FOO
138240
    1MOL0     O    1   5.263   4.253   5.564  0.2454  0.8451  0.4442
    1MOL0     C    2   5.349   4.333   5.582 -1.0741 -0.4191  0.0490
    1MOL0     O    3   5.326   4.472   5.602 -0.4812 -0.0952 -0.4296
    1MOL0     C    4   5.194   4.531   5.574 -0.1930  0.4879 -0.2939
    1MOL0     C    5   5.142   4.635   5.647 -0.1410  0.5730  0.7471
    1MOL0     C    6   5.030   4.701   5.609 -0.4994 -0.2521  0.0735
    1MOL0     C    7   4.950   4.661   5.496 -0.4137 -0.4743  0.7182
    1MOL0     O    8   4.852   4.742   5.448 -0.3788  0.0901 -0.2133
    1MOL0     C    9   4.771   4.812   5.554  0.1591  1.1195  0.5938
    1MOL0     C   10   4.660   4.890   5.490  0.4446 -0.5773 -0.1132
    1MOL0     C   11   4.562   4.806   5.418  0.8237 -0.0347 -0.5981
    1MOL0     C   12   4.431   4.867   5.372  0.3058  0.0200  0.4101
    1MOL0     C   13   4.457   4.975   5.274 -0.4685  0.5452  0.2311
    1MOL0     C   14   4.326   4.987   5.187  0.1439 -0.1370 -0.2444
    1MOL0     C   15   4.333   5.041   5.044  1.1616 -0.0051  0.6314
    1MOL0     C   16   4.414   5.172   5.042  0.3969 -0.6121 -0.2407
    1MOL0     N   17   4.430   5.205   4.900 -0.9644 -0.5122 -0.2626
    1MOL0     C   18   4.496   5.135   4.807 -0.1831 -1.1072  1.0849
    1MOL0     C   19   4.510   5.218   4.699  0.0147 -0.6282  0.4973
    1MOL0     C   20   4.607   5.180   4.588  0.4561  0.1519 -0.1918
    1MOL0     C   21   4.679   5.300   4.532 -0.3830 -0.5698 -0.1786
    1MOL0     C   22   4.813   5.268   4.482  0.3352  0.0292 -0.0195
    1MOL0     C   23   4.875   5.385   4.405 -0.0986  0.3206  0.3359
    1MOL0     O   24   4.900   5.484   4.504 -0.9156 -0.1995 -0.0456
    1MOL0     C   25   4.936   5.602   4.452 -0.5498 -0.8219  0.2437
    1MOL0     C   26   4.964   5.627   4.313  0.3449  0.0278  0.2765
    1MOL0     C   27   4.987   5.760   4.268 -0.3971  0.4269 -0.7077
    1MOL0     C   28   5.028   5.767   4.123  0.0255  0.2038  0.0447
    1MOL0     C   29   4.984   5.871   4.354  0.4253  0.4306 -0.3411
    1MOL0     C   30   5.004   6.013   4.311  0.6870 -0.0065  0.0361
    1MOL0     O   31   4.951   6.048   4.190 -0.5801 -0.2185 -0.0892
    1MOL0     C   32   4.987   6.176   4.143  0.0240  1.0975 -0.2558
    1MOL0     C   33   5.119   6.221   4.117  0.1541 -0.2803  0.0085
    1MOL0     C   34   5.155   6.336   4.048  0.5881  1.2127  0.7464
    1MOL0     C   35   5.056   6.420   3.995  0.3497 -0.4226 -0.4401
    1MOL0     O   36   5.095   6.523   3.917 -0.2115 -0.1721 -0.4729
    1MOL0     C   37   5.025   6.588   3.813 -0.1953  0.0801  0.0101
    1MOL0     C   38   5.110   6.695   3.748  0.1375  0.1121  0.2401
    1MOL0     C   39   5.051   6.740   3.610  0.7821  0.2487 -0.9037
    1MOL0     C   40   5.140   6.838   3.542  0.3782  0.9191  0.3195
    1MOL0     C   41   5.068   6.885   3.410 -0.1732 -0.2135 -0.3340
    1MOL0     C   42   5.108   7.028   3.388  0.3318 -0.7575  0.1569
    1MOL0     C   43   5.069   7.065   3.245  0.6396 -0.6988  0.6278
    1MOL0     C   44   5.127   7.193   3.185 -0.2083  0.2613 -0.1095
    1MOL0    Cl   45   5.304   7.181   3.153 -0.0561 -0.3031 -0.0744
    1MOL0     C   46   4.927   6.379   4.026  0.4791  0.7524  0.1947
    1MOL0     C   47   4.894   6.262   4.085  0.7215 -0.0129 -0.1954
    1MOL0     O   48   5.076   6.082   4.385  0.0166  0.0010 -0.3959
    1MOL0     C   49   4.977   5.842   4.497 -0.3146  0.2055 -0.2241
    1MOL0     C   50   4.937   5.712   4.536 -0.8325 -0.1342  0.9700
    1MOL0     N   51   4.432   5.332   4.716 -0.3560  0.3975 -0.0535
    1MOL0     N   52   4.383   5.313   4.836  0.3964  0.2694  0.3691
    1MOL0     C   53   4.997   4.549   5.420 -0.7210 -0.3634 -0.3191
    1MOL0     C   54   5.117   4.484   5.463 -0.7512 -0.6288 -0.1356
    1MOL0     C   55   5.486   4.287   5.588 -0.1137  0.6091 -0.4525
    1MOL0     C   56   5.514   4.158   5.639  0.3973  0.2399  1.4746
    1MOL0     C   57   5.651   4.120   5.647 -0.6230  0.9862 -0.1514
    1MOL0     C   58   5.758   4.200   5.611  0.2993 -0.8377 -0.4144
    1MOL0     O   59   5.892   4.169   5.620  0.8186  0.3286  0.0290
    1MOL0     C   60   5.917   4.074   5.512 -0.5132  0.3193  0.1330
    1MOL0     C   61   6.056   4.041   5.486 -0.0182  0.5411  0.2034
    1MOL0     C   62   6.158   4.159   5.516 -0.3415 -0.4525 -0.1119
    1MOL0     C   63   6.296   4.123   5.451  0.2178 -0.1026 -0.0097
    1MOL0     C   64   6.366   4.002   5.496  0.5672  0.6537  0.2694
    1MOL0     C   65   6.421   3.911   5.553 -0.1955 -0.1836 -0.4739
    1MOL0     C   66   5.727   4.329   5.564 -0.2246  0.0334  1.2681
    1MOL0     C   67   5.596   4.374   5.557 -0.4407 -0.9034  0.3900
    1MOL0     H   68   5.194   4.682   5.731 -2.7544  0.4874  2.5352
    1MOL0     H   69   5.003   4.778   5.680 -1.7219  1.0560 -1.7310
    1MOL0     H   70   4.738   4.730   5.619  0.0129 -0.7838 -1.7630
    1MOL0     H   71   4.821   4.879   5.624 -1.4393  3.4096 -0.3556
    1MOL0     H   72   4.612   4.940   5.575  0.9081  0.5681 -0.5110
    1MOL0     H   73   4.688   4.970   5.422 -1.8380 -0.1074 -0.5915
    1MOL0     H   74   4.615   4.763   5.333 -2.7693 -2.4455 -1.8410
    1MOL0     H   75   4.525   4.720   5.475  1.8974 -2.3966 -3.2661
    1MOL0     H   76   4.389   4.783   5.316  2.1562 -2.7711  2.9115
    1MOL0     H   77   4.368   4.904   5.453  1.1050 -0.0093  1.0656
    1MOL0     H   78   4.490   5.067   5.322  0.6428  0.6981 -0.7620
    1MOL0     H   79   4.537   4.936   5.209 -1.7161  0.5666 -1.3771
    1MOL0     H   80   4.281   4.887   5.179 -2.0646  0.8352 -0.5559
    1MOL0     H   81   4.266   5.060   5.241  0.5410  1.5884 -2.0234
    1MOL0     H   82   4.374   4.961   4.981  1.5780  0.2640  0.5573
    1MOL0     H   83   4.234   5.043   4.995  0.8382 -0.8081  1.2284
    1MOL0     H   84   4.514   5.160   5.084  1.0381 -1.0406 -1.8085
    1MOL0     H   85   4.369   5.256   5.094  0.8107 -0.3157 -0.3607
    1MOL0     H   86   4.552   5.044   4.823 -0.8263 -1.9912 -1.3153
    1MOL0     H   87   4.671   5.099   4.622  1.7280  1.4331  0.6069
    1MOL0     H   88   4.554   5.144   4.500  2.7112  0.3501 -1.7098
    1MOL0     H   89   4.683   5.375   4.611 -0.6099 -0.5955 -0.1417
    1MOL0     H   90   4.609   5.343   4.460 -1.5677 -4.1649 -1.4222
    1MOL0     H   91   4.791   5.187   4.413 -0.7321 -0.7899  1.2254
    1MOL0     H   92   4.888   5.242   4.557  1.4761 -0.1501 -1.1883
    1MOL0     H   93   4.801   5.418   4.332  0.6538 -1.6264 -1.4158
    1MOL0     H   94   4.966   5.346   4.359  1.0570  0.3888  2.4686
    1MOL0     H   95   4.960   5.554   4.233  2.5277 -1.6879  1.5890
    1MOL0     H   96   4.951   5.790   4.049  1.4739  0.7082 -1.3733
    1MOL0     H   97   5.103   5.843   4.098 -1.1336  1.5887  0.6694
    1MOL0     H   98   5.078   5.673   4.097 -0.8106 -0.6949  1.5386
    1MOL0     H   99   5.199   6.154   4.146  1.1363 -0.0921 -2.1092
    1MOL0     H  100   5.258   6.365   4.030  1.8218 -1.7361  2.4162
    1MOL0     H  101   4.994   6.508   3.744  0.6359 -1.4844  1.3753
    1MOL0     H  102   4.941   6.636   3.865  0.1005 -1.5245  2.0858
    1MOL0     H  103   5.109   6.777   3.821 -2.5462  0.3392  0.0616
    1MOL0     H  104   5.209   6.655   3.725  1.2373  2.5153  0.4254
    1MOL0     H  105   4.959   6.795   3.632  0.5332 -0.8101  0.8689
    1MOL0     H  106   5.010   6.656   3.553 -1.9943  0.7670  0.1240
    1MOL0     H  107   5.167   6.914   3.616  2.0043  2.2512 -1.5521
    1MOL0     H  108   5.231   6.782   3.517  0.5387  0.2331  2.2666
    1MOL0     H  109   4.960   6.878   3.427 -0.0420 -0.6662  0.3410
    1MOL0     H  110   5.110   6.829   3.326 -2.0583 -1.2320 -0.6548
    1MOL0     H  111   5.049   7.097   3.449  1.7923  1.7259 -1.0793
    1MOL0     H  112   5.215   7.051   3.390  0.5594 -1.7541  0.1409
    1MOL0     H  113   4.959   7.072   3.243  0.6520  0.2722  1.9070
    1MOL0     H  114   5.103   6.985   3.179  0.6802 -1.2913  1.3553
    1MOL0     H  115   5.094   7.276   3.248  0.2408  2.8252 -3.0113
    1MOL0     H  116   5.072   7.223   3.095  0.8286  3.1660  0.1183
    1MOL0     H  117   4.855   6.448   3.984  2.4050  1.8802 -1.3961
    1MOL0     H  118   4.792   6.224   4.082  1.0487 -0.8925 -0.3187
    1MOL0     H  119   4.998   5.909   4.580 -0.2325 -1.4388  1.1504
    1MOL0     H  120   4.912   5.710   4.641 -2.5246  3.4027  0.7516
    1MOL0     H  121   4.932   4.514   5.340 -0.9782 -2.7003  0.8370
    1MOL0     H  122   5.150   4.403   5.398 -1.2039  0.4258 -1.7539
    1MOL0     H  123   5.437   4.085   5.659  0.0672 -1.8198 -5.0598
    1MOL0     H  124   5.674   4.021   5.686  1.0302  2.0688  1.8763
    1MOL0     H  125   5.846   3.991   5.510 -0.6411  0.4101  0.6793
    1MOL0     H  126   5.904   4.140   5.426  1.7385 -0.2711 -0.7279
    1MOL0     H  127   6.079   4.005   5.385  1.5246  1.0799  0.3386
    1MOL0     H  128   6.076   3.958   5.555 -2.4510  0.4428  0.8813
    1MOL0     H  129   6.168   4.156   5.625  1.1883 -2.4451 -0.2385
    1MOL0     H  130   6.140   4.256   5.469  0.9340 -0.5060 -0.7473
    1MOL0     H  131   6.362   4.209   5.465  2.6172 -1.6973 -0.8170
    1MOL0     H  132   6.277   4.114   5.343  0.3793 -1.0643  0.0333
    1MOL0     H  133   6.477   3.839   5.610 -0.6172  1.2086  1.8266
    1MOL0     H  134   5.811   4.396   5.546  0.1793 -0.2477  2.0904
    1MOL0     H  135   5.587   4.475   5.516  3.4334 -0.1054  1.1928
    2MOL0     O  136   2.327   9.707   4.336 -0.6597 -0.3158 -0.7776
    2MOL0     C  137   2.392   9.651   4.422 -0.1511  0.1538  0.0647
    2MOL0     O  138   2.346   9.622   4.553  0.0845  0.4239 -0.4908
    2MOL0     C  139   2.213   9.659   4.571 -0.9455 -0.3092 -0.3402
    2MOL0     C  140   2.107   9.580   4.616 -0.2195 -0.8326  0.0720
    2MOL0     C  141   1.988   9.630   4.660  0.2338  0.4287  0.4171
    2MOL0     C  142   1.956   9.767   4.642 -0.7113 -0.8157 -0.1618
    2MOL0     O  143   1.829   9.802   4.661  0.1888  0.3168 -1.0151
    2MOL0     C  144   1.805   9.921   4.728 -0.7290 -0.5530 -0.2098
    2MOL0     C  145   1.693   9.881   4.827  0.4731 -0.0836 -0.1016
    2MOL0     C  146   1.551   9.883   4.758 -0.3268 -0.1702 -0.2894
    2MOL0     C  147   1.451   9.857   4.861  0.5273 -0.2451  0.3959
    2MOL0     C  148   1.305   9.885   4.799  0.1874  0.1523 -0.5794
    2MOL0     C  149   1.200   9.847   4.909  0.0324 -0.5400 -0.4172
    2MOL0     C  150   1.069   9.915   4.850 -0.0335  0.3050  0.2820
    2MOL0     C  151   0.950   9.897   4.943 -0.0164  0.2624  0.5544
    2MOL0     N  152   0.889   9.767   4.919 -0.3577 -0.3234 -0.6824
    2MOL0     C  153   0.935   9.638   4.937 -0.6826 -0.8370  0.3930
    2MOL0     C  154   0.858   9.558   4.857 -0.0112  0.5924  0.1985
    2MOL0     C  155   0.871   9.404   4.855 -0.2312 -0.1148 -0.2734
    2MOL0     C  156   0.960   9.343   4.960  0.1101 -0.4011  0.5112
    2MOL0     C  157   1.115   9.383   4.933 -0.5768  0.1254 -0.0726
    2MOL0     C  158   1.194   9.259   4.918 -0.4912  0.4782 -0.0276
    2MOL0     O  159   1.181   9.200   4.782  0.5208 -0.5323  0.1812
    2MOL0     C  160   1.271   9.101   4.770 -0.0902  0.2261 -0.4959
    2MOL0     C  161   1.221   8.970   4.778  0.3073  0.8998  0.7871
    2MOL0     C  162   1.306   8.859   4.750  0.5830 -1.1253 -0.0435
    2MOL0     C  163   1.248   8.720   4.765  0.1612 -0.3513  0.3280
    2MOL0     C  164   1.445   8.895   4.720 -0.3726  0.0162 -0.0445
    2MOL0     C  165   1.557   8.788   4.714 -0.3818 -0.9841 -0.1800
    2MOL0     O  166   1.686   8.835   4.705  0.0333  0.4095  1.1497
    2MOL0     C  167   1.781   8.744   4.675  0.5113  0.7304  0.0536
    2MOL0     C  168   1.815   8.717   4.540  0.2562 -0.1010  0.9230
    2MOL0     C  169   1.919   8.619   4.515 -1.1701 -0.7210  1.8673
    2MOL0     C  170   1.981   8.547   4.624 -0.6555 -0.3200 -0.0232
    2MOL0     O  171   2.073   8.439   4.626  0.1518 -0.7089 -0.1270
    2MOL0     C  172   2.167   8.444   4.519 -0.0373  0.5172  0.3263
    2MOL0     C  173   2.262   8.324   4.525 -0.1876 -0.3502  0.3631
    2MOL0     C  174   2.389   8.337   4.433 -0.5978  0.9071 -0.2654
    2MOL0     C  175   2.479   8.213   4.459 -0.6762  0.1647 -0.4388
    2MOL0     C  176   2.610   8.209   4.383  0.0981 -0.0770 -0.0229
    2MOL0     C  177   2.707   8.116   4.457 -0.0429  0.0583  0.2030
    2MOL0     C  178   2.846   8.088   4.392 -0.4854  0.3344  0.1337
    2MOL0     C  179   2.939   8.001   4.485  1.0290 -0.7004 -0.0808
    2MOL0    Cl  180   3.108   8.013   4.415  0.2319  0.4399 -0.1115
    2MOL0     C  181   1.950   8.596   4.753 -0.3926 -0.5909 -0.0415
    2MOL0     C  182   1.852   8.690   4.779 -1.0099  0.4987 -0.6980
    2MOL0     O  183   1.528   8.664   4.727  0.1404 -0.4543 -0.2745
    2MOL0     C  184   1.494   9.024   4.731  1.0920 -1.2228  0.2191
    2MOL0     C  185   1.406   9.127   4.740 -0.4387 -0.3513 -0.3990
    2MOL0     N  186   0.764   9.635   4.797 -0.2370 -0.5210  0.2381
    2MOL0     N  187   0.786   9.754   4.833 -0.1219 -0.4287 -0.8424
    2MOL0     C  188   2.062   9.849   4.598 -0.2318  0.2921 -0.8579
    2MOL0     C  189   2.182   9.796   4.564 -0.4226  0.6794  0.0737
    2MOL0     C  190   2.532   9.615   4.391 -0.6628 -0.0596  0.7382
    2MOL0     C  191   2.625   9.598   4.494 -0.1796  0.2825 -0.2838
    2MOL0     C  192   2.754   9.561   4.475  0.3409  0.0905 -0.7409
    2MOL0     C  193   2.796   9.544   4.341  0.3723  0.2015  0.2685
    2MOL0     O  194   2.919   9.488   4.314  0.7137  0.7831  0.4338
    2MOL0     C  195   2.942   9.402   4.202 -0.3464 -0.0641 -0.0442
    2MOL0     C  196   3.063   9.301   4.222  0.1199 -0.5059  0.9318
    2MOL0     C  197   3.162   9.342   4.328 -0.7240 -0.0614 -0.0788
    2MOL0     C  198   3.212   9.487   4.299  0.5141  0.2378  0.1966
    2MOL0     C  199   3.322   9.489   4.203 -0.4109 -0.9337  0.2413
    2MOL0     C  200   3.428   9.469   4.140 -0.0632  0.4911  0.5866
    2MOL0     C  201   2.716   9.585   4.237 -0.3375  1.1790  0.8088
    2MOL0     C  202   2.575   9.607   4.261 -0.4497  0.1176  1.1424
    2MOL0     H  203   2.122   9.473   4.624 -0.4599 -0.9224 -0.6633
    2MOL0     H  204   1.916   9.561   4.702  1.2854 -0.5548  0.6504
    2MOL0     H  205   1.891   9.962   4.783 -0.9408  0.4427 -0.6069
    2MOL0     H  206   1.770  10.001   4.663 -1.3575 -0.3097  0.4186
    2MOL0     H  207   1.708   9.782   4.872  0.9805 -0.1568 -0.4219
    2MOL0     H  208   1.692   9.949   4.912  0.4088  1.5152 -1.3290
    2MOL0     H  209   1.545   9.981   4.710 -2.0895  0.6695  1.5232
    2MOL0     H  210   1.544   9.799   4.688  0.5638  2.2035 -3.4570
    2MOL0     H  211   1.446   9.754   4.895 -3.0899 -1.3750 -2.8320
    2MOL0     H  212   1.458   9.934   4.939  2.3171  0.0110  0.0218
    2MOL0     H  213   1.305   9.991   4.771  1.6403  1.0064  2.3382
    2MOL0     H  214   1.288   9.823   4.711  1.8916 -0.6671 -0.3635
    2MOL0     H  215   1.188   9.739   4.922 -0.7208 -0.5267 -0.9035
    2MOL0     H  216   1.233   9.893   5.003  0.6156 -1.7449 -0.0167
    2MOL0     H  217   1.079  10.023   4.837  0.7728  0.0270 -1.9257
    2MOL0     H  218   1.054   9.864   4.754  2.6196  3.7967 -2.2738
    2MOL0     H  219   0.882   9.981   4.922 -0.9562 -0.3166  1.1884
    2MOL0     H  220   0.981   9.893   5.048 -0.7942 -0.6261  0.7616
    2MOL0     H  221   1.019   9.623   5.004  1.4050  4.7506 -0.4344
    2MOL0     H  222   0.771   9.361   4.860  0.6304 -2.4733 -1.7585
    2MOL0     H  223   0.907   9.388   4.753  2.7778  0.9337  0.5000
    2MOL0     H  224   0.939   9.236   4.961 -0.1679 -0.3503  0.3361
    2MOL0     H  225   0.922   9.379   5.056  1.9233 -0.1989  1.1901
    2MOL0     H  226   1.159   9.439   5.016  0.2661  1.2801 -1.2591
    2MOL0     H  227   1.123   9.448   4.846 -2.3379  0.0448 -0.3289
    2MOL0     H  228   1.174   9.186   4.998  1.2423  0.7915  0.7186
    2MOL0     H  229   1.295   9.294   4.941 -0.9455 -0.0180  3.2964
    2MOL0     H  230   1.115   8.950   4.791  0.3564  0.2037  0.1725
    2MOL0     H  231   1.279   8.672   4.858 -2.5000  0.3288  1.6502
    2MOL0     H  232   1.139   8.731   4.761  0.3280  1.5339 -0.2200
    2MOL0     H  233   1.269   8.659   4.676 -2.3519  0.1320 -0.6791
    2MOL0     H  234   1.758   8.772   4.466 -2.4133  0.6728  3.3438
    2MOL0     H  235   1.949   8.593   4.414  5.2631  2.6854  2.3555
    2MOL0     H  236   2.124   8.436   4.419 -0.7414  0.6171  0.6173
    2MOL0     H  237   2.221   8.539   4.515  2.0869 -0.5815  1.1402
    2MOL0     H  238   2.300   8.324   4.628  2.1666  1.3255 -0.4045
    2MOL0     H  239   2.210   8.231   4.500  1.5491 -1.4813  0.7464
    2MOL0     H  240   2.447   8.426   4.457  3.4005 -0.8183 -2.5257
    2MOL0     H  241   2.352   8.355   4.332  1.7065  2.0979 -0.9834
    2MOL0     H  242   2.501   8.202   4.566 -1.7944 -1.6218 -0.3481
    2MOL0     H  243   2.427   8.118   4.441 -0.0970 -0.5328  1.2984
    2MOL0     H  244   2.659   8.305   4.397  2.9488 -1.3338 -0.7870
    2MOL0     H  245   2.587   8.188   4.278  1.1013 -2.9997  0.2508
    2MOL0     H  246   2.724   8.157   4.557  0.4935  0.5952 -0.0999
    2MOL0     H  247   2.661   8.017   4.468 -1.1913  0.5548 -0.0874
    2MOL0     H  248   2.890   8.188   4.380 -2.4653  1.2291 -0.1087
    2MOL0     H  249   2.830   8.035   4.298 -2.9871  0.9826  0.1058
    2MOL0     H  250   2.914   7.894   4.476  0.5166 -0.6632  0.7958
    2MOL0     H  251   2.924   8.016   4.592 -2.8141 -1.5697 -0.3705
    2MOL0     H  252   1.988   8.545   4.841 -1.6303  0.7605  1.3449
    2MOL0     H  253   1.836   8.720   4.882  1.3475  0.2818 -0.2054
    2MOL0     H  254   1.597   9.046   4.704  1.0809 -1.8218 -0.3669
    2MOL0     H  255   1.430   9.232   4.733  1.4436 -0.6359  0.9094
    2MOL0     H  256   2.035   9.953   4.583 -2.7926 -0.1094  0.4031
    2MOL0     H  257   2.264   9.866   4.549  0.3561 -0.7552 -3.4240
    2MOL0     H  258   2.587   9.624   4.592  1.2463 -0.7080  0.5666
    2MOL0     H  259   2.804   9.540   4.569  1.9113 -1.8514 -1.9393
    2MOL0     H  260   2.852   9.347   4.174  0.2226 -0.3547 -1.3857
    2MOL0     H  261   2.970   9.468   4.119  0.6439  3.5727  2.9114
    2MOL0     H  262   3.116   9.300   4.127 -1.0319 -0.5855  0.2705
    2MOL0     H  263   3.040   9.195   4.234  1.1181 -0.6635  1.5574
    2MOL0     H  264   3.247   9.273   4.320 -1.2959 -0.6894 -0.9172
    2MOL0     H  265   3.108   9.337   4.422 -2.7722 -0.5533 -1.2354
    2MOL0     H  266   3.237   9.537   4.393 -1.2660 -2.0046  1.9836
    2MOL0     H  267   3.136   9.546   4.246 -0.3651 -1.4948 -0.5634
    2MOL0     H  268   3.521   9.441   4.095 -0.8583 -1.1493 -0.1035
    2MOL0     H  269   2.735   9.568   4.132 -3.5517 -0.5080  0.3675
    2MOL0     H  270   2.522   9.626   4.168  1.6397 -4.8618 -1.4662
    3MOL0     O  271   8.912   7.553   1.967  0.3624  0.1650 -0.2947
    3MOL0     C  272   8.912   7.620   1.864  0.7415 -0.2957 -0.5644
    3MOL0     O  273   8.895   7.762   1.859 -0.5485  0.1152  0.5101
    3MOL0     C  274   8.854   7.820   1.978 -0.6505 -0.0523  0.3594
    3MOL0     C  275   8.955   7.891   2.043  0.4112  1.1447  0.3530
    3MOL0     C  276   8.932   7.958   2.163  0.1945 -0.1676 -0.4471
    3MOL0     C  277   8.805   7.951   2.224 -0.0668  0.5522  0.0150
    3MOL0     O  278   8.754   8.011   2.337 -0.7614 -0.7028 -0.5186
    3MOL0     C  279   8.835   8.121   2.404  0.4662 -0.2353  0.5482
    3MOL0     C  280   8.938   8.069   2.495 -0.3399  0.2986  0.0639
    3MOL0     C  281   8.884   7.973   2.596  0.0328 -0.7008 -0.3421
    3MOL0     C  282   8.990   7.956   2.707  0.5270  0.5825  0.5033
    3MOL0     C  283   8.928   7.893   2.836 -0.6625  0.0730  0.3986
    3MOL0     C  284   9.048   7.859   2.928  0.4657 -0.9322  0.4644
    3MOL0     C  285   9.016   7.757   3.047 -0.2541 -0.7593  0.0190
    3MOL0     C  286   8.958   7.628   2.994  0.2764  0.2697  0.1311
    3MOL0     N  287   9.062   7.552   2.930 -0.3129  0.6810 -1.1893
    3MOL0     C  288   9.170   7.489   2.980 -0.1339  0.3342 -0.2592
    3MOL0     C  289   9.224   7.415   2.889  0.1313 -0.2282 -0.1824
    3MOL0     C  290   9.342   7.320   2.917 -0.3582  0.0979  0.1180
    3MOL0     C  291   9.302   7.192   2.992 -0.1902 -0.5849 -0.1714
    3MOL0     C  292   9.430   7.115   3.016  1.0923  0.1886 -0.4953
    3MOL0     C  293   9.410   6.965   3.059 -0.2750 -0.2043  0.0054
    3MOL0     O  294   9.323   6.904   2.967 -0.0805  0.3983  0.4621
    3MOL0     C  295   9.286   6.774   2.984  0.1525  0.1270  0.1914
    3MOL0     C  296   9.194   6.714   2.886 -0.0646 -0.8083 -0.6037
    3MOL0     C  297   9.145   6.586   2.905 -0.3581 -0.2894 -0.6932
    3MOL0     C  298   9.046   6.536   2.809  0.3840  0.2682 -0.4640
    3MOL0     C  299   9.198   6.508   3.014  0.4307 -0.0218  0.7544
    3MOL0     C  300   9.146   6.373   3.033  0.7287  0.8283 -0.6755
    3MOL0     O  301   9.082   6.355   3.151  0.5686 -0.3159  0.5818
    3MOL0     C  302   9.054   6.227   3.194  1.3435  0.3856  0.0270
    3MOL0     C  303   8.948   6.166   3.124 -1.1059  0.1041  0.7270
    3MOL0     C  304   8.933   6.024   3.142 -1.2756  0.3388  0.5876
    3MOL0     C  305   9.017   5.947   3.223 -0.2943  0.1768 -0.3872
    3MOL0     O  306   9.000   5.810   3.239  0.5547  0.3660  0.0233
    3MOL0     C  307   9.110   5.732   3.286  0.3977 -0.4879  0.2256
    3MOL0     C  308   9.071   5.581   3.280  0.5152 -0.0913  0.1347
    3MOL0     C  309   9.184   5.492   3.334 -0.1500  1.0115 -0.0439
    3MOL0     C  310   9.173   5.350   3.274  0.7586 -0.2263 -0.6603
    3MOL0     C  311   9.263   5.235   3.326  0.5676  0.9219  0.4485
    3MOL0     C  312   9.249   5.123   3.218  0.3286 -0.1926 -0.1931
    3MOL0     C  313   9.323   4.986   3.242  0.1718 -0.1003 -0.1226
    3MOL0     C  314   9.289   4.893   3.121  0.5955 -1.0775 -0.6905
    3MOL0    Cl  315   9.343   4.724   3.155 -0.1158  0.2160  0.1344
    3MOL0     C  316   9.120   6.015   3.285  0.0284  0.0090 -0.6315
    3MOL0     C  317   9.132   6.153   3.280 -0.1639 -0.9992 -0.1155
    3MOL0     O  318   9.177   6.285   2.958  0.6872  0.3631 -0.0310
    3MOL0     C  319   9.285   6.561   3.103 -0.3379 -0.0779  0.3673
    3MOL0     C  320   9.341   6.694   3.087  0.1449  0.6399  0.1467
    3MOL0     N  321   9.152   7.436   2.768 -1.3585 -0.1436 -0.2034
    3MOL0     N  322   9.056   7.514   2.798 -0.2121  0.2663 -0.4687
    3MOL0     C  323   8.710   7.864   2.165 -0.3702 -0.5535 -0.0358
    3MOL0     C  324   8.734   7.800   2.043  0.4738  0.5811 -0.0548
    3MOL0     C  325   8.944   7.556   1.738  0.1807 -0.5683 -0.2595
    3MOL0     C  326   9.001   7.433   1.738 -0.5999 -0.7041 -0.2254
    3MOL0     C  327   9.033   7.372   1.621 -0.1286  0.3165  0.0404
    3MOL0     C  328   9.031   7.442   1.499  0.4158 -0.4672  0.0107
    3MOL0     O  329   9.056   7.391   1.377 -0.1968 -0.0357 -1.1101
    3MOL0     C  330   9.127   7.269   1.346  0.5043  0.3333 -0.5717
    3MOL0     C  331   9.276   7.269   1.397 -0.5283 -0.4213  0.2847
    3MOL0     C  332   9.348   7.390   1.323 -0.1195 -0.2104  0.6751
    3MOL0     C  333   9.469   7.430   1.408 -0.6436  0.0951  0.0653
    3MOL0     C  334   9.513   7.555   1.353  0.1814  0.0958  0.0136
    3MOL0     C  335   9.557   7.658   1.314  0.5531  0.4653  0.9571
    3MOL0     C  336   8.975   7.569   1.497  0.2342  0.9271  0.8470
    3MOL0     C  337   8.922   7.617   1.610 -0.3597  0.0028 -0.1771
    3MOL0     H  338   9.052   7.898   1.995 -0.4571  1.5340 -1.4532
    3MOL0     H  339   9.009   8.018   2.210  1.5029 -0.1439 -2.4795
    3MOL0     H  340   8.880   8.188   2.331  0.9953 -1.3311 -0.1710
    3MOL0     H  341   8.769   8.187   2.460  0.0609  0.4666 -0.7193
    3MOL0     H  342   9.021   8.035   2.432 -0.4477  2.7727 -1.5762
    3MOL0     H  343   8.981   8.155   2.548  0.6481  0.2907 -0.6855
    3MOL0     H  344   8.788   8.010   2.635  0.6486 -0.9619  1.5161
    3MOL0     H  345   8.870   7.873   2.555  0.5229 -1.6884  1.7328
    3MOL0     H  346   9.070   7.888   2.677  1.7952  1.6602  1.3263
    3MOL0     H  347   9.033   8.052   2.737 -0.4352  1.7910 -1.7230
    3MOL0     H  348   8.857   7.965   2.878 -2.5960 -1.0374 -0.7577
    3MOL0     H  349   8.885   7.800   2.797  4.2341 -0.8650 -3.7991
    3MOL0     H  350   9.118   7.811   2.859 -1.5067 -0.9183 -1.6593
    3MOL0     H  351   9.094   7.947   2.974  2.0155 -1.5429  0.1394
    3MOL0     H  352   9.106   7.741   3.107  0.7601  0.2171 -1.1752
    3MOL0     H  353   8.949   7.802   3.120  0.8281  1.1711 -0.1024
    3MOL0     H  354   8.860   7.639   2.947  1.2536  2.2011 -1.5905
    3MOL0     H  355   8.932   7.570   3.084 -0.4300 -2.5301 -1.7442
    3MOL0     H  356   9.198   7.492   3.085  1.4922  0.6577 -0.6674
    3MOL0     H  357   9.378   7.277   2.823 -2.7793 -2.2794  0.1412
    3MOL0     H  358   9.418   7.376   2.972 -0.1857  0.3942 -0.4163
    3MOL0     H  359   9.223   7.138   2.940 -1.3284 -0.5438  1.4148
    3MOL0     H  360   9.254   7.210   3.089 -0.7506  1.1160 -0.7158
    3MOL0     H  361   9.488   7.156   3.100  1.4560 -0.7321 -0.2788
    3MOL0     H  362   9.485   7.115   2.922  2.7675  0.2569  0.4323
    3MOL0     H  363   9.362   6.974   3.157 -0.5068 -0.7228 -0.0576
    3MOL0     H  364   9.506   6.914   3.070 -1.5993 -2.5143  1.6767
    3MOL0     H  365   9.158   6.778   2.806  0.9708 -0.8938 -1.1495
    3MOL0     H  366   9.059   6.442   2.755  1.3409 -0.0436  0.2855
    3MOL0     H  367   8.958   6.532   2.874  0.1950 -0.7665 -0.7786
    3MOL0     H  368   9.030   6.616   2.736 -0.3137  0.5760  0.0131
    3MOL0     H  369   8.884   6.227   3.060  2.1619  0.0187 -3.0415
    3MOL0     H  370   8.853   5.978   3.083  0.5206  0.6101 -2.2635
    3MOL0     H  371   9.200   5.756   3.228 -0.8362  4.6617  0.0022
    3MOL0     H  372   9.121   5.761   3.391 -0.2145  0.2084  0.1075
    3MOL0     H  373   8.974   5.572   3.329 -1.9236  2.3977 -3.6581
    3MOL0     H  374   9.063   5.556   3.174  5.1835 -1.1233 -0.1672
    3MOL0     H  375   9.151   5.488   3.438  1.3015 -0.2426  0.4090
    3MOL0     H  376   9.289   5.517   3.347  0.3889  0.0407 -2.0944
    3MOL0     H  377   9.071   5.314   3.290  1.6996 -1.7215  3.0602
    3MOL0     H  378   9.183   5.347   3.165  0.3488 -2.7040 -0.6934
    3MOL0     H  379   9.230   5.198   3.423  0.0613 -1.8061 -0.6569
    3MOL0     H  380   9.366   5.270   3.326  0.5310  1.0381 -0.0526
    3MOL0     H  381   9.142   5.104   3.213  0.2402 -2.5442  4.7445
    3MOL0     H  382   9.281   5.172   3.125 -2.6939 -0.9806 -1.7719
    3MOL0     H  383   9.283   4.938   3.332  3.2291 -0.5841  1.0952
    3MOL0     H  384   9.427   5.009   3.265  0.1702 -0.1650 -0.0488
    3MOL0     H  385   9.341   4.934   3.034  2.1744 -0.8913  0.3070
    3MOL0     H  386   9.184   4.905   3.091  1.1572  1.3698 -1.9928
    3MOL0     H  387   9.184   5.960   3.353 -1.0863 -0.4088  0.1212
    3MOL0     H  388   9.222   6.201   3.317 -0.2556 -0.0211 -1.0744
    3MOL0     H  389   9.331   6.496   3.177 -1.2858 -0.7878  0.3654
    3MOL0     H  390   9.408   6.736   3.161 -1.7794  0.2199  2.2500
    3MOL0     H  391   8.614   7.838   2.209  0.5421 -2.9995  0.6518
    3MOL0     H  392   8.667   7.743   1.979  1.4838 -0.4437 -0.2252
    3MOL0     H  393   9.031   7.390   1.833 -0.2491 -1.6147 -0.7387
    3MOL0     H  394   9.063   7.268   1.630  0.4423 -0.0258 -3.9730
    3MOL0     H  395   9.078   7.185   1.397  2.8331 -2.6416 -2.8621
    3MOL0     H  396   9.117   7.251   1.239  0.6593  2.1412 -0.9234
    3MOL0     H  397   9.322   7.176   1.363 -5.5095 -1.9956 -3.4886
    3MOL0     H  398   9.272   7.271   1.506 -2.8794 -1.3591  0.2957
    3MOL0     H  399   9.282   7.473   1.299 -2.4636 -2.0051  0.5283
    3MOL0     H  400   9.390   7.355   1.228 -1.0582 -1.3900  0.6589
    3MOL0     H  401   9.554   7.361   1.420  0.5672  1.2916 -1.1482
    3MOL0     H  402   9.442   7.457   1.510  0.8245 -1.8358  1.0379
    3MOL0     H  403   9.614   7.740   1.274 -0.6626  1.3923  1.0700
    3MOL0     H  404   8.960   7.628   1.406 -2.3847  1.5502  1.5877
    3MOL0     H  405   8.869   7.709   1.589 -1.1604 -0.3865  0.1246
    4MOL0     O  406   7.157   1.794   0.769  0.0910 -0.3493  0.2401
    4MOL0     C  407   7.040   1.820   0.749 -0.3765  0.9146  0.4003
    4MOL0     O  408   6.995   1.921   0.653 -0.7977 -0.2203  0.3960
    4MOL0     C  409   7.094   1.958   0.558  1.2188  0.1814  0.5670
    4MOL0     C  410   7.140   2.083   0.545 -0.6180 -0.2290  0.7393
    4MOL0     C  411   7.243   2.117   0.452 -0.4386 -1.0380 -0.3436
    4MOL0     C  412   7.296   2.015   0.372  0.1131  0.1380 -0.2300
    4MOL0     O  413   7.390   2.050   0.280 -0.3446  0.2428  0.5223
    4MOL0     C  414   7.480   1.951   0.238 -0.5235  0.7074  0.1375
    4MOL0     C  415   7.608   2.020   0.173  0.2135 -0.4631 -0.3581
    4MOL0     C  416   7.709   2.060   0.277  0.9405 -0.2881  0.2502
    4MOL0     C  417   7.809   1.951   0.299 -0.9738 -0.2560  0.1651
    4MOL0     C  418   7.930   2.015   0.370  0.0902  0.4070  0.6849
    4MOL0     C  419   8.031   1.897   0.390  0.5935 -0.5105 -0.3249
    4MOL0     C  420   8.169   1.949   0.452  0.4619  0.6176 -0.2190
    4MOL0     C  421   8.280   1.841   0.436 -0.3546  0.0486 -0.1652
    4MOL0     N  422   8.244   1.711   0.504  0.8464  0.3516  0.5365
    4MOL0     C  423   8.197   1.607   0.439  0.0695  0.0846 -0.7605
    4MOL0     C  424   8.150   1.529   0.529  0.2044  0.0726 -0.4884
    4MOL0     C  425   8.061   1.406   0.500  0.0400 -0.9057 -1.2527
    4MOL0     C  426   7.948   1.388   0.608 -0.3901 -0.1212  1.1731
    4MOL0     C  427   7.823   1.471   0.571  0.1605 -0.2485  0.3564
    4MOL0     C  428   7.824   1.599   0.656 -1.4707 -0.4751 -0.0711
    4MOL0     O  429   7.707   1.674   0.625 -0.1539  0.4777  0.5231
    4MOL0     C  430   7.697   1.807   0.656  0.0539  0.2755 -0.4681
    4MOL0     C  431   7.795   1.893   0.695 -0.5325 -0.0746  0.9411
    4MOL0     C  432   7.759   2.025   0.713  0.0745 -0.0992  0.3329
    4MOL0     C  433   7.880   2.108   0.746  0.2274  0.0243 -0.5566
    4MOL0     C  434   7.628   2.075   0.687  0.1683 -0.1030 -0.1010
    4MOL0     C  435   7.606   2.213   0.686  0.8322 -0.1238 -0.7426
    4MOL0     O  436   7.530   2.260   0.580  0.5044  0.4056  0.6121
    4MOL0     C  437   7.503   2.393   0.566 -0.1435 -1.1267  1.1719
    4MOL0     C  438   7.488   2.499   0.654  0.0574 -0.9360 -0.1814
    4MOL0     C  439   7.483   2.630   0.608  0.0271 -0.2202 -0.1432
    4MOL0     C  440   7.443   2.653   0.483  0.1742  0.1546  0.5304
    4MOL0     O  441   7.389   2.773   0.450  0.2253 -0.3261  0.0721
    4MOL0     C  442   7.497   2.873   0.426 -0.3211  0.1917 -0.1886
    4MOL0     C  443   7.508   2.904   0.276  0.7741  0.3464 -0.1653
    4MOL0     C  444   7.588   3.025   0.228 -0.2309  0.1417 -0.5157
    4MOL0     C  445   7.706   3.045   0.330  0.5601  0.0418 -0.1546
    4MOL0     C  446   7.800   3.148   0.284 -0.0233  0.4402  0.3946
    4MOL0     C  447   7.902   3.165   0.390  0.2087 -0.3420  0.1689
    4MOL0     C  448   8.001   3.272   0.362 -0.1231  0.5836 -0.3906
    4MOL0     C  449   8.084   3.308   0.490  0.2225 -0.7034 -0.0254
    4MOL0    Cl  450   8.237   3.377   0.418  0.1027 -0.2061 -0.0468
    4MOL0     C  451   7.425   2.552   0.394 -0.1786  0.2523  0.8596
    4MOL0     C  452   7.469   2.426   0.436 -0.4223  1.6002 -0.9832
    4MOL0     O  453   7.637   2.273   0.790  0.1952 -0.3301  0.2702
    4MOL0     C  454   7.528   1.987   0.659  0.6280  0.1948  0.2277
    4MOL0     C  455   7.565   1.854   0.630 -0.3067 -0.6501  0.4439
    4MOL0     N  456   8.177   1.581   0.657  0.4598  0.2523 -0.2561
    4MOL0     N  457   8.235   1.695   0.634  0.2391  0.0953  1.1638
    4MOL0     C  458   7.251   1.883   0.387  0.8653 -0.4960  0.0391
    4MOL0     C  459   7.154   1.855   0.485  0.3754  0.0286 -0.1298
    4MOL0     C  460   6.940   1.735   0.814  0.3367 -0.0556  0.1304
    4MOL0     C  461   6.942   1.599   0.826  0.5343 -0.0499 -0.4317
    4MOL0     C  462   6.833   1.522   0.871  1.5361 -0.4266  0.3859
    4MOL0     C  463   6.710   1.584   0.900 -0.4991 -0.0135 -0.0784
    4MOL0     O  464   6.597   1.531   0.946 -0.4586 -0.5329  0.8499
    4MOL0     C  465   6.577   1.388   0.905  0.2467 -0.9373  0.4192
    4MOL0     C  466   6.633   1.302   1.023  0.1853 -0.3179  0.1368
    4MOL0     C  467   6.634   1.153   1.004 -0.1376  0.1379  0.0960
    4MOL0     C  468   6.725   1.077   1.104  0.2315  0.3427  0.4048
    4MOL0     C  469   6.866   1.111   1.114 -0.1931  0.0074 -0.5680
    4MOL0     C  470   6.973   1.159   1.106 -0.8883 -0.5880 -0.1710
    4MOL0     C  471   6.708   1.724   0.893 -0.3356  0.0089 -0.0550
    4MOL0     C  472   6.820   1.799   0.857 -0.6897  0.4756  0.2388
    4MOL0     H  473   7.090   2.161   0.602  0.6887  1.5710 -0.4802
    4MOL0     H  474   7.272   2.220   0.435 -0.4735 -0.8354  0.7597
    4MOL0     H  475   7.515   1.896   0.326 -1.4090 -0.4183 -0.2077
    4MOL0     H  476   7.445   1.878   0.165 -0.8207 -1.6992  2.5267
    4MOL0     H  477   7.660   1.956   0.101 -1.2551 -0.9493 -1.0199
    4MOL0     H  478   7.583   2.114   0.124  1.2447 -0.3331 -0.6570
    4MOL0     H  479   7.755   2.151   0.237 -1.8224  0.2737 -1.9295
    4MOL0     H  480   7.654   2.083   0.369  2.4245 -0.7009  1.2778
    4MOL0     H  481   7.761   1.868   0.352 -4.4772  0.9170 -0.8815
    4MOL0     H  482   7.846   1.905   0.207 -0.0128  1.3509 -0.3017
    4MOL0     H  483   7.984   2.086   0.308  1.1764  0.1860  1.3487
    4MOL0     H  484   7.900   2.072   0.459 -2.5481  0.9282 -0.4499
    4MOL0     H  485   7.983   1.839   0.469  0.2181  3.0002  2.2384
    4MOL0     H  486   8.046   1.840   0.298  0.0421 -0.8185 -0.2286
    4MOL0     H  487   8.201   2.046   0.413  0.8169  0.6476  0.1417
    4MOL0     H  488   8.169   1.972   0.559  1.3211  1.8765 -0.4689
    4MOL0     H  489   8.375   1.877   0.478 -0.7802  1.3914 -0.3009
    4MOL0     H  490   8.284   1.829   0.327 -0.7336 -2.7640  0.0681
    4MOL0     H  491   8.180   1.594   0.332  0.4881 -0.3395 -0.7757
    4MOL0     H  492   8.032   1.411   0.395  0.6478 -2.4063 -1.5053
    4MOL0     H  493   8.122   1.316   0.502  0.0921 -0.8942 -2.0331
    4MOL0     H  494   7.980   1.412   0.709  0.6737 -0.2492  0.8740
    4MOL0     H  495   7.916   1.285   0.622  0.2094 -0.6955 -1.2478
    4MOL0     H  496   7.729   1.417   0.579  0.5418 -0.7200  1.9017
    4MOL0     H  497   7.825   1.514   0.470  3.1052 -0.2400  0.3332
    4MOL0     H  498   7.913   1.661   0.642 -1.0770 -0.8889  0.5745
    4MOL0     H  499   7.826   1.581   0.764 -1.3296  0.8603  0.1599
    4MOL0     H  500   7.898   1.858   0.700  0.4349  1.5592 -3.4919
    4MOL0     H  501   7.894   2.201   0.691 -0.4901  0.3935 -0.1338
    4MOL0     H  502   7.886   2.124   0.854  1.2747 -0.9683 -0.4450
    4MOL0     H  503   7.978   2.063   0.729  0.9075 -0.1580  3.0272
    4MOL0     H  504   7.509   2.487   0.760  2.2502  3.2099  0.0651
    4MOL0     H  505   7.501   2.713   0.676 -2.2654 -0.8567  1.3666
    4MOL0     H  506   7.478   2.971   0.469  1.7915  0.5943 -0.0651
    4MOL0     H  507   7.586   2.844   0.484 -1.3497  0.7553  1.7592
    4MOL0     H  508   7.554   2.814   0.234 -1.1502 -2.0263  2.4148
    4MOL0     H  509   7.404   2.916   0.244 -0.0473  0.9354  2.5427
    4MOL0     H  510   7.511   3.102   0.228 -0.8128 -0.4352 -0.9938
    4MOL0     H  511   7.635   3.002   0.132  1.5558 -2.9738  0.9260
    4MOL0     H  512   7.664   3.085   0.423  0.5071  1.5072 -0.7782
    4MOL0     H  513   7.761   2.952   0.347  0.6241  0.0378 -0.3861
    4MOL0     H  514   7.749   3.242   0.261  1.0398  0.4597 -2.1291
    4MOL0     H  515   7.863   3.115   0.201  0.1473  3.2990 -0.6977
    4MOL0     H  516   7.851   3.193   0.483  1.4638  5.4482 -0.4917
    4MOL0     H  517   7.954   3.069   0.395 -2.3054 -1.9200 -1.2861
    4MOL0     H  518   7.954   3.366   0.333 -4.0552 -0.5706  1.5655
    4MOL0     H  519   8.065   3.244   0.278  1.6705  0.2772  1.0156
    4MOL0     H  520   8.104   3.214   0.541  2.0897 -1.0913 -1.3883
    4MOL0     H  521   8.037   3.382   0.555 -0.6094 -1.1682 -0.0795
    4MOL0     H  522   7.400   2.580   0.292 -0.4279 -1.5969  0.3768
    4MOL0     H  523   7.483   2.347   0.364 -0.2181 -1.5976  2.2869
    4MOL0     H  524   7.426   2.009   0.628  1.5148  2.1065 -1.5523
    4MOL0     H  525   7.477   1.806   0.586 -1.3200  0.3137  1.3523
    4MOL0     H  526   7.295   1.794   0.342 -0.0435 -2.2221  2.3785
    4MOL0     H  527   7.119   1.752   0.478 -0.4868  0.3692 -0.9098
    4MOL0     H  528   7.036   1.547   0.813 -0.8529 -3.0317  0.4087
    4MOL0     H  529   6.843   1.414   0.876 -3.0013 -1.2277 -2.2838
    4MOL0     H  530   6.470   1.372   0.889 -0.6405  3.6342  0.4399
    4MOL0     H  531   6.628   1.371   0.809  0.5347  2.3221 -0.1075
    4MOL0     H  532   6.570   1.321   1.111 -0.5600  1.0560 -0.6542
    4MOL0     H  533   6.733   1.338   1.050 -0.5221  1.1074  1.0196
    4MOL0     H  534   6.669   1.132   0.903  1.0074 -3.3052  1.0720
    4MOL0     H  535   6.536   1.111   1.027  0.1635  0.1725  1.6003
    4MOL0     H  536   6.719   0.969   1.084  0.6352  0.4265 -0.1963
    4MOL0     H  537   6.679   1.081   1.203  1.4110 -2.4983  1.1958
    4MOL0     H  538   7.078   1.177   1.103 -0.5681 -1.8485  1.8279
    4MOL0     H  539   6.614   1.768   0.925  0.4912  0.7817  1.4146
    4MOL0     H  540   6.804   1.905   0.842  0.4744  0.6383  0.0376
    5MOL0     O  541   5.914   7.032   3.644 -0.0930  0.2722 -0.1452
    5MOL0     C  542   5.944   6.961   3.737  0.9696  0.8093  0.2771
    5MOL0     O  543   6.006   6.837   3.732 -0.4620 -0.0071  0.0620
    5MOL0     C  544   6.047   6.793   3.609  0.9513 -0.5585 -0.3000
    5MOL0     C  545   6.124   6.863   3.523  0.6863  0.8325  0.4954
    5MOL0     C  546   6.175   6.793   3.413  0.0773 -0.4217  0.3236
    5MOL0     C  547   6.155   6.660   3.382  0.3819 -0.3524 -0.1180
    5MOL0     O  548   6.217   6.599   3.275  0.0204 -0.0477  0.2931
    5MOL0     C  549   6.249   6.466   3.298 -0.6702 -0.1232  0.4226
    5MOL0     C  550   6.338   6.408   3.188  0.1073  0.1787 -0.3860
    5MOL0     C  551   6.453   6.504   3.145  0.5558 -0.9562  0.1736
    5MOL0     C  552   6.563   6.520   3.255 -0.2364  0.1421  0.0395
    5MOL0     C  553   6.672   6.605   3.198 -0.5244  0.2910 -0.3242
    5MOL0     C  554   6.786   6.581   3.302  0.4426 -0.5547 -0.5415
    5MOL0     C  555   6.922   6.617   3.244  0.1756  0.1570  0.3015
    5MOL0     C  556   6.962   6.526   3.127 -0.4326 -0.2308 -0.0761
    5MOL0     N  557   7.085   6.577   3.061  0.1550 -0.6662 -0.0236
    5MOL0     C  558   7.204   6.600   3.122  0.3852  0.4163  0.7913
    5MOL0     C  559   7.296   6.651   3.035 -0.0411  0.0656 -0.9805
    5MOL0     C  560   7.433   6.697   3.065 -0.3720 -0.9678  0.0968
    5MOL0     C  561   7.537   6.589   3.042 -0.0631  0.4707 -0.1986
    5MOL0     C  562   7.688   6.634   3.070  1.1812 -0.4655  0.5120
    5MOL0     C  563   7.750   6.600   3.202 -0.3111  0.6645 -0.8116
    5MOL0     O  564   7.690   6.668   3.309 -0.5809 -0.3006  0.0132
    5MOL0     C  565   7.574   6.629   3.365 -0.1716 -0.3386  0.2430
    5MOL0     C  566   7.507   6.732   3.436 -0.9620  0.3097  0.4861
    5MOL0     C  567   7.395   6.713   3.509  0.3737  0.5499  0.2252
    5MOL0     C  568   7.332   6.830   3.586 -0.5073  0.1396  0.6425
    5MOL0     C  569   7.337   6.582   3.505 -0.0319 -1.1428 -0.1188
    5MOL0     C  570   7.210   6.553   3.566  0.5601 -0.1479  0.7426
    5MOL0     O  571   7.192   6.434   3.627 -1.4938 -0.7049 -0.3603
    5MOL0     C  572   7.069   6.394   3.675 -0.2553  0.3629  1.0383
    5MOL0     C  573   6.954   6.395   3.591 -0.4700 -0.6228  0.4251
    5MOL0     C  574   6.832   6.335   3.627  0.3091  0.0518  0.2817
    5MOL0     C  575   6.822   6.272   3.754  0.7119  0.8528  0.4550
    5MOL0     O  576   6.711   6.208   3.797  0.2876  0.9947 -0.4450
    5MOL0     C  577   6.586   6.254   3.753 -0.0489  0.6833  0.4654
    5MOL0     C  578   6.488   6.167   3.825  0.8239 -0.5826 -0.7739
    5MOL0     C  579   6.355   6.217   3.800  1.0563  0.4119  0.3409
    5MOL0     C  580   6.247   6.145   3.883 -0.2995  0.9269  0.5231
    5MOL0     C  581   6.104   6.183   3.848 -0.4595 -0.5176  0.3588
    5MOL0     C  582   6.093   6.340   3.845 -0.0861  0.4167 -0.6681
    5MOL0     C  583   5.966   6.393   3.908  0.6391 -0.2580  0.5010
    5MOL0     C  584   5.847   6.344   3.833  0.4113 -0.9314  0.0402
    5MOL0    Cl  585   5.850   6.370   3.657 -0.1198  0.3204  0.4528
    5MOL0     C  586   6.934   6.274   3.834  0.1288  0.7851 -0.4461
    5MOL0     C  587   7.054   6.337   3.806  0.0271 -0.1586  0.5004
    5MOL0     O  588   7.123   6.633   3.539  0.1413  0.4719  0.2591
    5MOL0     C  589   7.400   6.486   3.438  0.0025  0.8464  0.8830
    5MOL0     C  590   7.516   6.508   3.369 -0.0976 -0.0852 -0.6140
    5MOL0     N  591   7.220   6.661   2.919  0.2686  0.0409  0.3542
    5MOL0     N  592   7.099   6.607   2.934 -0.9802  0.4925  0.6999
    5MOL0     C  593   6.071   6.592   3.475  0.4470  0.5259 -0.5546
    5MOL0     C  594   6.023   6.661   3.591 -0.4054  0.0790  0.5864
    5MOL0     C  595   5.897   7.007   3.870  0.5030 -0.8371  0.0375
    5MOL0     C  596   5.848   7.133   3.893 -0.8205  0.6109  0.6122
    5MOL0     C  597   5.800   7.169   4.022 -0.9428  0.1492  0.2075
    5MOL0     C  598   5.785   7.075   4.123  0.1495 -0.0748 -0.1824
    5MOL0     O  599   5.742   7.090   4.257 -0.6596 -0.4533  0.0026
    5MOL0     C  600   5.718   7.214   4.308  1.1329 -0.2953 -0.1758
    5MOL0     C  601   5.644   7.210   4.438 -0.3477  0.2934 -0.7560
    5MOL0     C  602   5.545   7.099   4.423  0.3035  0.3531 -0.7155
    5MOL0     C  603   5.454   7.085   4.552 -0.3207 -0.9136 -0.6266
    5MOL0     C  604   5.371   6.962   4.534 -0.2321  0.6362  1.5024
    5MOL0     C  605   5.290   6.879   4.533  0.4744 -0.7009 -0.5112
    5MOL0     C  606   5.835   6.942   4.097  0.8244  0.2659  0.4085
    5MOL0     C  607   5.880   6.909   3.976 -0.4029  0.1897  1.2553
    5MOL0     H  608   6.136   6.970   3.535  7.6183  0.3810  1.5668
    5MOL0     H  609   6.238   6.849   3.345 -0.7228 -1.3344 -1.2450
    5MOL0     H  610   6.302   6.462   3.393 -1.4478 -0.4433  0.8512
    5MOL0     H  611   6.161   6.402   3.292 -0.4174 -0.3273 -2.4314
    5MOL0     H  612   6.390   6.315   3.210  1.4509  0.9353 -0.2360
    5MOL0     H  613   6.279   6.392   3.098  2.9076  0.7960 -2.4683
    5MOL0     H  614   6.509   6.476   3.056  2.5316 -0.8500  1.3182
    5MOL0     H  615   6.411   6.605   3.138 -0.6345 -1.3767  0.8462
    5MOL0     H  616   6.517   6.561   3.345  0.2412 -2.6041  1.6326
    5MOL0     H  617   6.593   6.416   3.270 -0.3176 -0.1128 -1.3747
    5MOL0     H  618   6.698   6.578   3.095  0.7702 -1.0260  0.3152
    5MOL0     H  619   6.643   6.710   3.192  1.1036  0.7138 -1.6771
    5MOL0     H  620   6.771   6.638   3.394 -1.8059  0.4072 -1.4185
    5MOL0     H  621   6.806   6.479   3.337  1.8058 -0.0670  0.1849
    5MOL0     H  622   6.921   6.718   3.202  3.8045 -0.6090 -2.1100
    5MOL0     H  623   7.000   6.618   3.321  1.0907  2.3458 -0.5760
    5MOL0     H  624   6.884   6.510   3.053 -1.0935 -0.4906  0.6635
    5MOL0     H  625   6.983   6.422   3.153 -3.1291 -0.1824  2.9257
    5MOL0     H  626   7.206   6.577   3.229 -1.9381 -2.7881  0.2963
    5MOL0     H  627   7.453   6.792   3.016 -0.5085  1.6869  4.6115
    5MOL0     H  628   7.430   6.734   3.168 -1.6693 -1.4289  0.2450
    5MOL0     H  629   7.527   6.557   2.938  0.3446  2.5120 -0.8989
    5MOL0     H  630   7.506   6.505   3.105  1.5136 -0.4808 -0.6253
    5MOL0     H  631   7.700   6.740   3.044 -0.2217 -0.0210  1.5290
    5MOL0     H  632   7.748   6.580   2.996 -0.0483 -1.5477  0.2773
    5MOL0     H  633   7.854   6.629   3.184 -0.6600  1.4118 -1.6910
    5MOL0     H  634   7.746   6.491   3.216  1.9252  0.6639  0.2232
    5MOL0     H  635   7.557   6.829   3.430 -1.5835  0.5621 -4.0869
    5MOL0     H  636   7.276   6.795   3.672  0.8130  1.3003  2.0238
    5MOL0     H  637   7.405   6.907   3.613 -2.7773  2.0807  1.5724
    5MOL0     H  638   7.255   6.871   3.520 -0.7558 -3.1454 -1.3470
    5MOL0     H  639   6.959   6.451   3.498  1.6900  0.5514  1.1891
    5MOL0     H  640   6.757   6.343   3.549 -0.7348 -0.5495  1.1944
    5MOL0     H  641   6.572   6.358   3.784 -2.4821  0.9703 -1.3420
    5MOL0     H  642   6.571   6.249   3.645 -0.1327  2.0372  0.3940
    5MOL0     H  643   6.499   6.059   3.812 -0.7807 -0.9308  0.3562
    5MOL0     H  644   6.500   6.185   3.933 -1.3090  0.3288 -0.6276
    5MOL0     H  645   6.328   6.198   3.696 -2.1795 -4.3325  1.7519
    5MOL0     H  646   6.355   6.327   3.798  0.3678  0.5150 -4.0006
    5MOL0     H  647   6.270   6.039   3.895 -0.7738  0.7337 -0.1325
    5MOL0     H  648   6.270   6.190   3.980  2.0982  3.2067 -0.9480
    5MOL0     H  649   6.033   6.146   3.923  0.0215  1.0688  1.6755
    5MOL0     H  650   6.074   6.146   3.750 -0.5584 -1.7236  0.8319
    5MOL0     H  651   6.174   6.377   3.909  1.1302 -2.5869 -0.3032
    5MOL0     H  652   6.105   6.375   3.742  1.6663 -0.6383 -0.8811
    5MOL0     H  653   5.969   6.502   3.900 -1.5379 -0.1536  0.5034
    5MOL0     H  654   5.953   6.364   4.013 -1.6546  2.6299  1.1411
    5MOL0     H  655   5.764   6.405   3.869 -0.3563  0.0764 -3.0869
    5MOL0     H  656   5.825   6.239   3.853  0.3448 -1.5042 -2.6625
    5MOL0     H  657   6.921   6.230   3.932  0.7968  4.7886  1.6411
    5MOL0     H  658   7.144   6.331   3.865  2.6283 -0.5775 -3.1398
    5MOL0     H  659   7.348   6.390   3.435 -2.1219  1.9590  0.2749
    5MOL0     H  660   7.557   6.423   3.316 -1.3888 -2.0658  1.3916
    5MOL0     H  661   6.062   6.485   3.460 -0.0140 -0.0034  2.7706
    5MOL0     H  662   5.961   6.602   3.657 -2.0054  0.9344 -0.0984
    5MOL0     H  663   5.842   7.217   3.825  1.2585  0.9664  0.8066
    5MOL0     H  664   5.760   7.269   4.037 -2.3819 -0.2093 -1.0119
    5MOL0     H  665   5.807   7.274   4.328 -0.2749  2.2423 -1.1444
    5MOL0     H  666   5.659   7.267   4.233  2.6552 -2.8157 -3.4772
    5MOL0     H  667   5.580   7.298   4.452 -1.8798 -0.9816  0.5970
    5MOL0     H  668   5.705   7.192   4.527  1.9909 -1.5977 -2.6014
    5MOL0     H  669   5.597   7.005   4.406  1.0697  0.8967 -1.4715
    5MOL0     H  670   5.490   7.104   4.328  1.9891  2.4101 -1.6576
    5MOL0     H  671   5.394   7.176   4.562  1.4955  0.2085  0.6588
    5MOL0     H  672   5.523   7.070   4.636  0.3117 -1.9847 -1.3063
    5MOL0     H  673   5.218   6.800   4.530 -0.5826  0.2012  0.0860
    5MOL0     H  674   5.826   6.878   4.184 -1.7902  0.6789  0.5497
    5MOL0     H  675   5.908   6.804   3.973  2.9206  0.9542  0.9496
    6MOL0     O  676   4.594   0.364   4.330 -0.0230  0.6275  0.1792
    6MOL0     C  677   4.693   0.329   4.257  0.2030  0.0151 -1.0466
    6MOL0     O  678   4.691   0.311   4.125 -0.8557 -0.3271 -0.0007
    6MOL0     C  679   4.570   0.330   4.063  0.5450 -0.3012  0.2420
    6MOL0     C  680   4.473   0.226   4.061 -0.8200 -0.3108  1.1701
    6MOL0     C  681   4.345   0.238   4.016 -0.4768  0.1177  0.3486
    6MOL0     C  682   4.318   0.351   3.944  0.0281  0.8823  0.6444
    6MOL0     O  683   4.184   0.348   3.895  0.0408 -0.4573 -0.1827
    6MOL0     C  684   4.149   0.453   3.804  0.2731 -0.6199 -0.1952
    6MOL0     C  685   4.016   0.439   3.738  0.5084  0.1552 -0.4150
    6MOL0     C  686   3.904   0.425   3.843 -0.1019 -0.1112  0.6761
    6MOL0     C  687   3.775   0.430   3.774  0.1939 -1.0866 -0.8047
    6MOL0     C  688   3.649   0.456   3.860  0.1835  0.0195 -0.4597
    6MOL0     C  689   3.521   0.469   3.779  0.2548  0.8383  0.7046
    6MOL0     C  690   3.445   0.610   3.786  0.3404  0.1851 -0.5865
    6MOL0     C  691   3.359   0.616   3.912  0.1079  0.5501  0.4929
    6MOL0     N  692   3.276   0.737   3.937 -0.1108  0.3712  0.9867
    6MOL0     C  693   3.147   0.749   3.880  0.6498 -0.3682  0.5493
    6MOL0     C  694   3.133   0.886   3.898 -0.1334  0.1123  0.2259
    6MOL0     C  695   3.028   0.977   3.834 -0.3119  1.1391 -0.1351
    6MOL0     C  696   2.894   0.974   3.903  0.3791  0.1140 -0.0265
    6MOL0     C  697   2.775   0.926   3.814  0.9675 -0.1345 -0.4879
    6MOL0     C  698   2.647   0.902   3.900 -0.7222  0.1936 -0.0388
    6MOL0     O  699   2.529   0.930   3.830  0.0965  0.2655  0.2920
    6MOL0     C  700   2.418   0.959   3.901 -0.4679 -0.7192 -0.0398
    6MOL0     C  701   2.326   1.050   3.848  0.2387  0.5501 -0.7271
    6MOL0     C  702   2.197   1.080   3.898 -1.2286  0.2677 -0.1428
    6MOL0     C  703   2.116   1.166   3.804 -0.1469  0.8865 -0.1954
    6MOL0     C  704   2.163   1.020   4.021  1.0180 -0.0775  0.1080
    6MOL0     C  705   2.035   1.056   4.093  0.3176 -0.1597  0.1747
    6MOL0     O  706   2.020   1.045   4.231 -0.2922  0.8035  0.3584
    6MOL0     C  707   1.902   1.091   4.282  0.3276  0.2866 -0.9100
    6MOL0     C  708   1.866   1.227   4.310  0.6289 -0.0380 -0.5584
    6MOL0     C  709   1.754   1.264   4.382  0.2852  1.1026 -0.6201
    6MOL0     C  710   1.651   1.157   4.398  0.9679  0.0456 -0.1315
    6MOL0     O  711   1.526   1.189   4.448  0.4004 -0.1139  0.2454
    6MOL0     C  712   1.468   1.104   4.548 -0.1441 -0.2408 -0.0977
    6MOL0     C  713   1.362   1.180   4.614  0.7661 -0.2582  0.0265
    6MOL0     C  714   1.427   1.315   4.677  0.2097 -0.1255  0.1760
    6MOL0     C  715   1.354   1.379   4.781  0.5303  0.6964 -0.3741
    6MOL0     C  716   1.420   1.510   4.834  1.0958 -0.3048  0.6850
    6MOL0     C  717   1.355   1.591   4.952  0.5511  0.7070  0.2862
    6MOL0     C  718   1.211   1.642   4.943 -0.0991 -0.2520  0.7751
    6MOL0     C  719   1.206   1.788   4.986  1.0910 -0.2715  0.3948
    6MOL0    Cl  720   1.039   1.839   5.026  0.2241  0.0533 -0.3736
    6MOL0     C  721   1.678   1.026   4.360  0.8004  0.1561 -0.6530
    6MOL0     C  722   1.801   0.991   4.302 -0.6180  0.5682  0.8450
    6MOL0     O  723   1.941   1.070   4.014 -0.2767 -0.5037  0.2165
    6MOL0     C  724   2.250   0.926   4.081 -0.6776  0.0305  0.1675
    6MOL0     C  725   2.384   0.908   4.021 -0.4718 -0.2216 -0.6495
    6MOL0     N  726   3.227   0.941   3.981  0.4426 -0.0605  0.3129
    6MOL0     N  727   3.316   0.844   4.000 -0.2622 -0.6716 -0.9304
    6MOL0     C  728   4.418   0.456   3.930 -0.1088  0.0118  0.3284
    6MOL0     C  729   4.542   0.445   3.983 -0.7371 -1.0378 -0.7649
    6MOL0     C  730   4.811   0.287   4.344 -0.5135  0.4874 -0.2968
    6MOL0     C  731   4.918   0.213   4.288 -0.1037  0.1158  0.2135
    6MOL0     C  732   5.010   0.155   4.368  0.0934 -0.0490 -0.5494
    6MOL0     C  733   5.011   0.170   4.511  0.7274 -1.2681  0.5430
    6MOL0     O  734   5.105   0.094   4.569  0.2902  0.0844 -0.0725
    6MOL0     C  735   5.103   0.050   4.709  0.2442  0.0660 -0.3023
    6MOL0     C  736   5.245   0.009   4.753  0.0858  0.4704  0.9410
    6MOL0     C  737   5.271   0.026   4.899 -0.0802  0.1207 -0.2289
    6MOL0     C  738   5.419   0.000   4.932  0.2047 -0.2386 -0.8414
    6MOL0     C  739   5.493   0.124   4.896  0.6864 -0.8788  0.1343
    6MOL0     C  740   5.545   0.228   4.875 -0.7717  0.0305 -1.1514
    6MOL0     C  741   4.919   0.256   4.568 -0.6420 -0.6690 -0.2333
    6MOL0     C  742   4.817   0.306   4.488  0.0487 -0.0220  0.3363
    6MOL0     H  743   4.480   0.133   4.116 -1.4308 -0.7645  0.4967
    6MOL0     H  744   4.275   0.156   4.025  0.5762 -0.8160  0.1300
    6MOL0     H  745   4.157   0.541   3.868  1.5699 -1.2844  0.6049
    6MOL0     H  746   4.228   0.466   3.729 -1.0381 -2.1171 -1.9165
    6MOL0     H  747   4.002   0.530   3.679  1.7901 -0.4070 -1.6524
    6MOL0     H  748   4.013   0.353   3.671  0.9526 -0.6413  0.5621
    6MOL0     H  749   3.912   0.338   3.909  0.5730 -0.9463 -0.4655
    6MOL0     H  750   3.905   0.511   3.911 -1.1706 -0.1093  0.6961
    6MOL0     H  751   3.773   0.515   3.705  0.1088 -1.2579 -1.0153
    6MOL0     H  752   3.767   0.333   3.723  0.8910 -0.2403 -2.5986
    6MOL0     H  753   3.639   0.379   3.937  0.9001 -1.3487 -1.7031
    6MOL0     H  754   3.671   0.549   3.913  2.4029 -1.0361  0.5801
    6MOL0     H  755   3.551   0.473   3.673 -0.9261  1.5438  0.3831
    6MOL0     H  756   3.452   0.387   3.798 -0.6854  1.3377 -0.4415
    6MOL0     H  757   3.513   0.695   3.788 -2.2191  2.3760 -0.8600
    6MOL0     H  758   3.386   0.630   3.697  1.3255 -0.8442 -1.4980
    6MOL0     H  759   3.424   0.608   3.999  0.4556 -1.2322  0.1193
    6MOL0     H  760   3.312   0.520   3.934  0.5792  0.1211 -0.3092
    6MOL0     H  761   3.097   0.689   3.805  1.2555  0.0787 -0.2179
    6MOL0     H  762   3.073   1.077   3.840  3.6578 -0.1425 -3.3787
    6MOL0     H  763   3.025   0.953   3.727  0.0074 -2.1063  0.4671
    6MOL0     H  764   2.867   1.071   3.945  0.3972 -0.0261  0.3178
    6MOL0     H  765   2.903   0.899   3.983 -1.9109  0.3737  0.5261
    6MOL0     H  766   2.792   0.830   3.764  0.8557 -1.5044  1.9384
    6MOL0     H  767   2.754   1.002   3.739 -1.6083 -1.9736 -1.8355
    6MOL0     H  768   2.658   0.951   3.998 -1.5819 -0.2384  0.2803
    6MOL0     H  769   2.643   0.796   3.927  0.0899 -0.3408 -1.8302
    6MOL0     H  770   2.348   1.098   3.754  0.3165 -0.2870 -1.1474
    6MOL0     H  771   2.050   1.241   3.850  0.6644  0.0224  2.6026
    6MOL0     H  772   2.167   1.219   3.724 -3.9226  0.8691 -2.8877
    6MOL0     H  773   2.052   1.097   3.747 -1.0977 -0.9849  2.8607
    6MOL0     H  774   1.929   1.308   4.276  1.3703 -1.1559 -1.9578
    6MOL0     H  775   1.725   1.367   4.400  1.8441  1.5453 -0.5368
    6MOL0     H  776   1.430   1.012   4.502  0.9169 -0.9306  0.3737
    6MOL0     H  777   1.546   1.072   4.618  1.6253  1.7413 -1.0269
    6MOL0     H  778   1.289   1.228   4.548  0.0218 -1.6555 -0.1947
    6MOL0     H  779   1.313   1.117   4.688  3.5454 -3.4763 -0.6197
    6MOL0     H  780   1.430   1.390   4.598 -0.6597  1.2085  1.3518
    6MOL0     H  781   1.534   1.300   4.692 -0.1421 -3.7443 -0.1003
    6MOL0     H  782   1.255   1.401   4.742  0.3783 -0.0496 -0.4271
    6MOL0     H  783   1.335   1.312   4.865  0.2658  1.2891  0.0417
    6MOL0     H  784   1.416   1.579   4.749 -1.5913 -0.2064  0.8195
    6MOL0     H  785   1.522   1.491   4.868  0.7950 -2.0785  0.7038
    6MOL0     H  786   1.356   1.517   5.033  1.1876  0.4461  0.0466
    6MOL0     H  787   1.419   1.675   4.982 -0.2807  2.9279 -3.4819
    6MOL0     H  788   1.145   1.584   5.009 -2.9686  3.3794  1.3783
    6MOL0     H  789   1.171   1.632   4.842 -1.4352  0.4137  1.2123
    6MOL0     H  790   1.239   1.844   4.899  0.1622  0.5317  0.5495
    6MOL0     H  791   1.264   1.803   5.078 -1.0563  1.6030  1.5315
    6MOL0     H  792   1.603   0.949   4.365  1.5915 -0.6204 -0.5155
    6MOL0     H  793   1.820   0.889   4.271  2.1453  1.5700 -1.1680
    6MOL0     H  794   2.221   0.876   4.173 -1.1416  0.3563  0.2041
    6MOL0     H  795   2.450   0.847   4.083 -1.2789 -1.0577 -0.5940
    6MOL0     H  796   4.384   0.540   3.871 -1.3986 -1.9747 -1.9662
    6MOL0     H  797   4.623   0.512   3.958  0.1656 -1.2124  1.4730
    6MOL0     H  798   4.930   0.189   4.183 -2.2550 -1.1324  0.2067
    6MOL0     H  799   5.091   0.099   4.323  2.2448  3.1040 -0.9359
    6MOL0     H  800   5.055   0.123   4.775  1.9131  0.8414  0.1247
    6MOL0     H  801   5.039  -0.038   4.709  0.1027  0.1459  0.9357
    6MOL0     H  802   5.322   0.065   4.701  1.6457 -3.1731 -1.0626
    6MOL0     H  803   5.254  -0.095   4.721  0.7002 -0.5581  4.1176
    6MOL0     H  804   5.211  -0.046   4.955 -1.3154  0.6635 -0.8194
    6MOL0     H  805   5.239   0.126   4.932 -3.9617 -0.4667 -1.7248
    6MOL0     H  806   5.457  -0.094   4.890 -2.2832 -1.3537 -0.7612
    6MOL0     H  807   5.425  -0.018   5.039  0.2147 -0.8910 -0.9466
    6MOL0     H  808   5.592   0.324   4.863 -2.3022  0.7089 -2.0089
    6MOL0     H  809   4.929   0.277   4.674 -3.9468 -1.1265  0.2575
    6MOL0     H  810   4.732   0.355   4.533 -0.0219 -1.2326  1.5854
    7MOL0     O  811  11.066   0.198   6.665  0.0388  0.0334 -0.9724
    7MOL0     C  812  11.110   0.084   6.690  0.2138  0.8955 -0.2868
    7MOL0     O  813  11.050   0.005   6.786 -0.8474  0.2122 -0.6900
    7MOL0     C  814  10.921   0.043   6.832  0.9476 -0.5403  0.7588
    7MOL0     C  815  10.906   0.060   6.969 -1.2982 -0.6562  0.1130
    7MOL0     C  816  10.779   0.080   7.032  0.3400  0.9482 -0.4765
    7MOL0     C  817  10.663   0.087   6.948 -0.4423  0.7040  0.1994
    7MOL0     O  818  10.542   0.112   7.004 -0.9879 -0.6817 -0.6743
    7MOL0     C  819  10.451   0.193   6.933  0.4234 -0.5672  0.2266
    7MOL0     C  820  10.343   0.097   6.866  0.4191  0.0398  0.5632
    7MOL0     C  821  10.296   0.164   6.734 -0.3472 -0.1900  0.4967
    7MOL0     C  822  10.258   0.312   6.733  0.6691 -1.3455 -0.1962
    7MOL0     C  823  10.233   0.361   6.590 -0.4816  0.0282 -0.6672
    7MOL0     C  824  10.347   0.400   6.491 -0.6950  1.4507 -0.6563
    7MOL0     C  825  10.276   0.466   6.369 -0.1096  0.1648  0.5435
    7MOL0     C  826  10.273   0.623   6.371 -0.4162  0.4844 -0.5126
    7MOL0     N  827  10.159   0.676   6.452  0.7306 -0.6965 -0.0022
    7MOL0     C  828  10.043   0.727   6.397 -0.6615 -0.8356 -0.5189
    7MOL0     C  829   9.977   0.781   6.499  0.1198 -0.3441 -0.4103
    7MOL0     C  830   9.848   0.862   6.492  0.2669  0.8293  0.2719
    7MOL0     C  831   9.781   0.858   6.356 -0.5357  0.3698 -0.8855
    7MOL0     C  832   9.716   0.727   6.324  0.6941  0.1635 -0.0801
    7MOL0     C  833   9.577   0.701   6.387 -0.4917  0.1550  0.0962
    7MOL0     O  834   9.531   0.556   6.380 -0.7369  0.2041 -0.5635
    7MOL0     C  835   9.455   0.523   6.282  0.4113  0.5165  0.2567
    7MOL0     C  836   9.502   0.419   6.202 -0.1431  0.3466  0.5416
    7MOL0     C  837   9.424   0.390   6.094 -0.3429 -0.4306  0.3503
    7MOL0     C  838   9.487   0.286   5.999 -0.1820  0.3851  0.3234
    7MOL0     C  839   9.295   0.450   6.057  0.0489  0.5638  0.5370
    7MOL0     C  840   9.216   0.429   5.932  0.0147  0.0086 -0.0609
    7MOL0     O  841   9.085   0.471   5.931 -0.3458 -0.0264 -0.9232
    7MOL0     C  842   9.011   0.474   5.813  0.3933 -0.4672 -0.4220
    7MOL0     C  843   8.934   0.589   5.774  0.1393  0.6805  0.3943
    7MOL0     C  844   8.852   0.593   5.667  0.7144  0.0076 -0.8163
    7MOL0     C  845   8.825   0.476   5.589  0.2342 -0.5848  0.0721
    7MOL0     O  846   8.723   0.480   5.500  0.7981  0.1733  0.6714
    7MOL0     C  847   8.710   0.602   5.428  0.4354  0.8842 -0.7212
    7MOL0     C  848   8.594   0.601   5.330  0.7403 -0.1149 -0.6419
    7MOL0     C  849   8.602   0.735   5.255 -0.0150 -0.7531  0.2473
    7MOL0     C  850   8.511   0.729   5.134  0.3106  0.0761 -0.1657
    7MOL0     C  851   8.588   0.809   5.021  0.4361 -0.6544  0.1585
    7MOL0     C  852   8.500   0.790   4.898 -0.4078  0.1143  0.2049
    7MOL0     C  853   8.520   0.879   4.775 -0.1899  0.3876 -0.8121
    7MOL0     C  854   8.501   1.028   4.805  0.4541 -0.1741 -0.2399
    7MOL0    Cl  855   8.343   1.051   4.866  0.2228 -0.0539  0.3661
    7MOL0     C  856   8.895   0.363   5.626 -1.1391 -0.2890  0.3888
    7MOL0     C  857   8.989   0.362   5.735 -0.0108  0.2325  0.4964
    7MOL0     O  858   9.264   0.361   5.844 -0.5074 -0.2661  0.5184
    7MOL0     C  859   9.254   0.546   6.150 -1.0174 -0.2926  0.5256
    7MOL0     C  860   9.336   0.588   6.260 -1.2817 -0.3302  0.5445
    7MOL0     N  861  10.051   0.764   6.613 -0.3852  0.0194 -0.7875
    7MOL0     N  862  10.159   0.699   6.590  0.4642  0.8415  0.9764
    7MOL0     C  863  10.680   0.078   6.808 -1.2567  0.0834  0.0305
    7MOL0     C  864  10.806   0.060   6.748 -0.6128  0.1647  0.3050
    7MOL0     C  865  11.237   0.031   6.627 -0.1406  0.0562 -1.1311
    7MOL0     C  866  11.286  -0.099   6.649  0.1969  0.0934  0.0061
    7MOL0     C  867  11.401  -0.148   6.576  0.3419  0.7398  0.0079
    7MOL0     C  868  11.469  -0.065   6.486  0.7013 -0.2735 -0.7837
    7MOL0     O  869  11.589  -0.104   6.431  0.4316 -0.1191  0.5921
    7MOL0     C  870  11.655  -0.015   6.342 -0.2846  0.0227  0.1841
    7MOL0     C  871  11.582  -0.028   6.200  0.5251 -0.8076  0.2563
    7MOL0     C  872  11.551  -0.170   6.135  0.4553  0.6111 -0.6693
    7MOL0     C  873  11.650  -0.275   6.170 -0.0965 -0.0460  0.5165
    7MOL0     C  874  11.773  -0.217   6.120 -0.3147  0.4988 -0.2676
    7MOL0     C  875  11.884  -0.170   6.097 -0.1960 -0.8640 -0.3384
    7MOL0     C  876  11.420   0.062   6.469  0.7207  0.8551  0.9729
    7MOL0     C  877  11.304   0.106   6.533  0.3048  0.1632 -0.0038
    7MOL0     H  878  10.993   0.049   7.034 -0.6283  0.7755 -0.5077
    7MOL0     H  879  10.780   0.087   7.140 -0.8190 -0.4322 -0.3435
    7MOL0     H  880  10.397   0.255   7.006 -1.8255 -0.5797 -1.3347
    7MOL0     H  881  10.497   0.259   6.859 -1.7028  0.7177 -0.0096
    7MOL0     H  882  10.388   0.005   6.829 -0.7651 -0.2953 -0.0992
    7MOL0     H  883  10.274   0.063   6.943 -1.4921  0.2569 -0.9628
    7MOL0     H  884  10.369   0.153   6.653  0.0517  1.2974  0.6249
    7MOL0     H  885  10.209   0.105   6.707 -0.5947 -0.1139  1.1045
    7MOL0     H  886  10.162   0.318   6.786 -0.2860  0.5763 -2.0188
    7MOL0     H  887  10.330   0.381   6.776 -1.7562  1.0401  0.2791
    7MOL0     H  888  10.160   0.291   6.547 -3.6007  0.8245  2.7766
    7MOL0     H  889  10.173   0.452   6.600 -0.8184  0.0320 -2.4106
    7MOL0     H  890  10.416   0.465   6.545 -0.8549  1.2211 -0.1704
    7MOL0     H  891  10.384   0.298   6.481 -1.7393  0.6719  2.3787
    7MOL0     H  892  10.322   0.437   6.274 -0.7363  1.4684 -0.1759
    7MOL0     H  893  10.171   0.437   6.357 -0.2649 -0.9177  3.5340
    7MOL0     H  894  10.242   0.652   6.270 -2.3322 -1.0118 -0.4281
    7MOL0     H  895  10.372   0.650   6.410 -0.9640 -1.5954  2.7661
    7MOL0     H  896  10.016   0.725   6.292 -3.9828 -2.0148  0.2428
    7MOL0     H  897   9.790   0.839   6.581 -1.1870 -1.7371 -1.2292
    7MOL0     H  898   9.875   0.968   6.499 -0.8004  1.4420 -3.0673
    7MOL0     H  899   9.876   0.879   6.307  0.6046  3.6668  2.3033
    7MOL0     H  900   9.710   0.941   6.349  0.5470  1.4490  0.3820
    7MOL0     H  901   9.776   0.638   6.348 -0.4532 -1.4336 -2.7487
    7MOL0     H  902   9.704   0.724   6.215 -1.4884 -3.0725  0.1024
    7MOL0     H  903   9.502   0.761   6.336 -0.2965 -0.0463 -0.4332
    7MOL0     H  904   9.592   0.729   6.492  1.4539  2.0147 -0.6032
    7MOL0     H  905   9.594   0.369   6.229 -0.5617 -0.8007 -0.0529
    7MOL0     H  906   9.429   0.194   5.999  1.4198 -0.6651  1.3350
    7MOL0     H  907   9.497   0.311   5.893 -2.4446 -2.8588 -0.8292
    7MOL0     H  908   9.585   0.251   6.030  0.3201  0.7231 -0.8344
    7MOL0     H  909   8.938   0.676   5.838  1.4995  3.4928 -3.1660
    7MOL0     H  910   8.812   0.692   5.653  4.5659  1.3449 -4.3734
    7MOL0     H  911   8.687   0.690   5.490  2.0391  0.1941  0.9405
    7MOL0     H  912   8.805   0.619   5.376  0.4082 -0.0752 -1.0919
    7MOL0     H  913   8.609   0.521   5.258  0.5109  1.8602 -3.0357
    7MOL0     H  914   8.499   0.594   5.383  1.1845  0.7304  0.3144
    7MOL0     H  915   8.703   0.771   5.229 -0.5161  1.1433  0.8133
    7MOL0     H  916   8.570   0.805   5.333 -0.0657 -2.2721  1.6290
    7MOL0     H  917   8.494   0.625   5.103  0.2530  0.2175 -0.6119
    7MOL0     H  918   8.413   0.773   5.152  1.2781  1.9519  0.7422
    7MOL0     H  919   8.695   0.795   5.007  0.8758  2.1110  0.2314
    7MOL0     H  920   8.559   0.909   5.056 -1.2662 -1.0051 -0.1231
    7MOL0     H  921   8.526   0.691   4.860 -0.4491  0.7657 -1.6495
    7MOL0     H  922   8.396   0.788   4.931 -0.1477 -0.7609  0.9971
    7MOL0     H  923   8.467   0.849   4.684 -0.3157 -0.8566 -0.3414
    7MOL0     H  924   8.622   0.861   4.739 -0.2207 -0.9760 -0.2959
    7MOL0     H  925   8.532   1.096   4.725 -0.5912 -0.7505 -1.1552
    7MOL0     H  926   8.580   1.055   4.876  2.6299 -0.2853 -2.4932
    7MOL0     H  927   8.887   0.276   5.561 -0.5815  1.4965 -2.1991
    7MOL0     H  928   9.044   0.270   5.754  2.5652  1.6347  0.3600
    7MOL0     H  929   9.159   0.596   6.137 -0.4693  1.1690  1.8247
    7MOL0     H  930   9.296   0.664   6.326 -0.3099  0.0124  0.7579
    7MOL0     H  931  10.602   0.105   6.738 -0.2364 -1.3694 -1.7388
    7MOL0     H  932  10.820   0.054   6.641 -2.0023 -1.4667  0.1581
    7MOL0     H  933  11.235  -0.171   6.712 -0.1012 -0.5074 -0.9001
    7MOL0     H  934  11.415  -0.254   6.595 -0.8996  0.5139 -0.2370
    7MOL0     H  935  11.666   0.086   6.384 -0.3059 -0.8237  2.4075
    7MOL0     H  936  11.759  -0.049   6.340 -0.0774  0.6163  0.5426
    7MOL0     H  937  11.652   0.018   6.130 -1.6242 -1.2279 -2.3411
    7MOL0     H  938  11.482   0.016   6.199 -0.7328 -3.4148  0.6504
    7MOL0     H  939  11.559  -0.159   6.026 -0.0193 -1.7223 -1.0046
    7MOL0     H  940  11.447  -0.202   6.146  1.8897 -5.3289 -0.7559
    7MOL0     H  941  11.640  -0.370   6.118  0.2538  0.5445 -0.6675
    7MOL0     H  942  11.645  -0.301   6.276  0.0927  1.3138  0.8878
    7MOL0     H  943  11.985  -0.142   6.075  0.8356 -3.9287  0.0181
    7MOL0     H  944  11.452   0.135   6.396  0.8927  1.0687  1.2641
    7MOL0     H  945  11.279   0.208   6.507  0.3627 -0.1415 -1.3440
    8MOL0     O  946   5.535   1.976  10.203  0.6744  0.3397 -0.1891
    8MOL0     C  947   5.587   1.864  10.202 -0.5430  0.2264  0.9263
    8MOL0     O  948   5.518   1.742  10.190 -0.2566  0.2454 -0.2364
    8MOL0     C  949   5.384   1.745  10.172 -0.0598 -0.2348  0.1719
    8MOL0     C  950   5.305   1.696  10.272 -0.6331  0.1863  0.0789
    8MOL0     C  951   5.163   1.690  10.248 -0.3668 -0.1278 -0.1045
    8MOL0     C  952   5.105   1.735  10.135 -0.8770 -0.9802  0.6657
    8MOL0     O  953   4.972   1.727  10.099  1.0486 -0.2053 -0.1156
    8MOL0     C  954   4.874   1.691  10.200 -0.1541  0.1426  0.3269
    8MOL0     C  955   4.730   1.671  10.155 -0.3528  0.2001  0.0463
    8MOL0     C  956   4.714   1.556  10.061  0.1685  0.8470  0.2210
    8MOL0     C  957   4.560   1.530  10.071 -0.2508  0.2108  0.8609
    8MOL0     C  958   4.514   1.455   9.938 -0.4342  0.1903  0.1036
    8MOL0     C  959   4.362   1.434   9.932  0.1076  0.0951 -0.4530
    8MOL0     C  960   4.312   1.364   9.802 -0.5683 -0.0301  0.2214
    8MOL0     C  961   4.330   1.210   9.817 -0.4078  0.4875 -0.4437
    8MOL0     N  962   4.262   1.149   9.699  0.4378 -0.2692  1.0700
    8MOL0     C  963   4.319   1.074   9.606 -0.2923 -0.4061 -2.0357
    8MOL0     C  964   4.234   1.062   9.513 -0.3609 -0.1228 -1.0899
    8MOL0     C  965   4.238   0.958   9.401 -0.8325  0.6393 -0.7105
    8MOL0     C  966   4.283   1.044   9.274  0.0572  0.2695  0.3288
    8MOL0     C  967   4.284   0.952   9.144 -0.0100 -0.7137  0.3332
    8MOL0     C  968   4.434   0.919   9.117  0.5529 -0.1570  0.0323
    8MOL0     O  969   4.511   0.861   9.233  0.5631 -0.0335  0.0112
    8MOL0     C  970   4.633   0.908   9.251  0.3634 -0.4361 -0.5760
    8MOL0     C  971   4.681   1.039   9.226  0.4372 -0.8983 -0.1158
    8MOL0     C  972   4.818   1.067   9.231 -0.1101  0.1722  0.4392
    8MOL0     C  973   4.853   1.204   9.176  0.3020  1.3329  0.7997
    8MOL0     C  974   4.910   0.969   9.271 -1.0706 -0.1086 -0.0180
    8MOL0     C  975   5.053   0.987   9.292  0.3210 -0.4511  0.2774
    8MOL0     O  976   5.130   0.872   9.305 -0.4081  0.6070 -1.0068
    8MOL0     C  977   5.269   0.884   9.299 -0.1505  0.0715  1.5148
    8MOL0     C  978   5.351   0.991   9.345 -0.3758 -0.0936  0.2495
    8MOL0     C  979   5.484   0.995   9.311 -0.5373  0.3596  0.7272
    8MOL0     C  980   5.547   0.879   9.252  0.1272  0.1009 -0.2320
    8MOL0     O  981   5.674   0.871   9.221 -0.6376 -1.0142 -0.7914
    8MOL0     C  982   5.765   0.971   9.260 -0.2145 -1.0370 -0.1965
    8MOL0     C  983   5.911   0.914   9.248 -0.0645  0.9221  0.5943
    8MOL0     C  984   5.936   0.832   9.117  0.2165  0.6804  0.0620
    8MOL0     C  985   6.096   0.815   9.104  0.0583 -0.7041  0.4348
    8MOL0     C  986   6.137   0.738   8.981  0.1408 -0.5183 -1.1457
    8MOL0     C  987   6.281   0.687   8.999  0.2586 -1.2519 -0.9253
    8MOL0     C  988   6.377   0.810   8.997  0.5347 -0.2322 -0.1675
    8MOL0     C  989   6.524   0.767   9.027 -0.0482 -0.3108  0.0031
    8MOL0    Cl  990   6.545   0.714   9.196  0.3497  0.4748 -0.0449
    8MOL0     C  991   5.465   0.779   9.201 -0.8322  0.8334  0.1075
    8MOL0     C  992   5.332   0.787   9.222  0.9643  0.4886  0.9855
    8MOL0     O  993   5.093   1.103   9.297  0.0331 -0.3213 -0.3771
    8MOL0     C  994   4.865   0.844   9.306  0.1260 -0.1398 -0.6678
    8MOL0     C  995   4.723   0.821   9.311  0.3373 -0.6923  0.6257
    8MOL0     N  996   4.126   1.148   9.522 -1.0339 -0.6155 -0.5243
    8MOL0     N  997   4.153   1.200   9.637 -0.0079 -1.2365 -0.9052
    8MOL0     C  998   5.194   1.776  10.032  0.6352 -0.0521 -0.9293
    8MOL0     C  999   5.330   1.783  10.054 -0.4301 -0.0772  0.1264
    8MOL0     C 1000   5.735   1.857  10.195 -0.4411  0.5763  0.0493
    8MOL0     C 1001   5.805   1.742  10.164  0.0472  0.0738  0.0959
    8MOL0     C 1002   5.946   1.740  10.144 -0.2674 -1.0219  0.2991
    8MOL0     C 1003   6.018   1.861  10.151 -0.1924  0.5316  0.4144
    8MOL0     O 1004   6.151   1.853  10.141 -0.5060  0.6318 -0.2479
    8MOL0     C 1005   6.226   1.942  10.219 -0.2904  0.1806  0.1812
    8MOL0     C 1006   6.198   1.936  10.376  1.0912 -0.1808  0.4741
    8MOL0     C 1007   6.207   1.800  10.431 -0.4098  0.3437 -0.1362
    8MOL0     C 1008   6.182   1.795  10.584 -0.1542 -0.8504  0.3384
    8MOL0     C 1009   6.302   1.801  10.666 -0.3585  0.0126 -0.1006
    8MOL0     C 1010   6.401   1.810  10.731  0.9579 -0.5486 -0.5096
    8MOL0     C 1011   5.952   1.976  10.180 -0.8717 -0.7375 -0.4071
    8MOL0     C 1012   5.816   1.975  10.205 -0.6489  0.7772 -1.2345
    8MOL0     H 1013   5.354   1.671  10.365  1.0621  1.3922 -0.4422
    8MOL0     H 1014   5.101   1.656  10.330 -1.0183 -2.8737 -1.6319
    8MOL0     H 1015   4.902   1.595  10.245  2.3876  1.0923  0.9605
    8MOL0     H 1016   4.885   1.761  10.283 -1.0632  0.9157 -0.1834
    8MOL0     H 1017   4.663   1.650  10.239  0.0477 -2.1478 -0.1389
    8MOL0     H 1018   4.695   1.761  10.104 -0.1841  0.6011  0.6370
    8MOL0     H 1019   4.737   1.582   9.957  3.5860 -3.2872 -0.3117
    8MOL0     H 1020   4.771   1.465  10.079  0.3296  1.1197  1.1503
    8MOL0     H 1021   4.534   1.464  10.155  0.0658 -0.9769  0.0573
    8MOL0     H 1022   4.506   1.625  10.076 -1.3953 -0.4478  1.3924
    8MOL0     H 1023   4.552   1.515   9.854 -0.2249  0.1417  0.1637
    8MOL0     H 1024   4.562   1.358   9.925 -0.3378 -0.0952  2.3107
    8MOL0     H 1025   4.320   1.374  10.012 -1.2398 -0.2656 -1.3917
    8MOL0     H 1026   4.311   1.531   9.939  1.3424  0.9767 -2.5177
    8MOL0     H 1027   4.204   1.374   9.785 -0.6933 -5.0515 -5.5682
    8MOL0     H 1028   4.355   1.401   9.709 -3.2288 -0.3830 -1.2495
    8MOL0     H 1029   4.282   1.186   9.912 -0.6567  1.5033 -0.2933
    8MOL0     H 1030   4.436   1.185   9.814 -0.3972  0.5829 -2.6461
    8MOL0     H 1031   4.423   1.042   9.606 -0.2361 -0.3711  0.1022
    8MOL0     H 1032   4.303   0.875   9.430 -1.1710  0.4691 -0.4293
    8MOL0     H 1033   4.133   0.929   9.392 -1.1752  1.9034 -1.0030
    8MOL0     H 1034   4.379   1.092   9.294  0.5677  0.8218 -2.8855
    8MOL0     H 1035   4.225   1.136   9.266 -0.4239 -0.1042 -0.7469
    8MOL0     H 1036   4.239   1.001   9.057 -1.2302 -1.7985  0.3235
    8MOL0     H 1037   4.233   0.856   9.160  1.4685 -1.3285  1.5139
    8MOL0     H 1038   4.477   1.011   9.076 -1.3899  0.5786 -0.4654
    8MOL0     H 1039   4.433   0.848   9.034 -0.1389 -1.4729  1.1293
    8MOL0     H 1040   4.609   1.118   9.208  0.2571 -0.6920  1.4193
    8MOL0     H 1041   4.875   1.262   9.266 -1.3499 -2.7407  4.1553
    8MOL0     H 1042   4.933   1.199   9.102 -0.4251  2.5277 -0.1117
    8MOL0     H 1043   4.769   1.249   9.121 -0.0889 -1.4131 -1.0674
    8MOL0     H 1044   5.292   1.069   9.391 -0.5946  1.1860 -2.0194
    8MOL0     H 1045   5.549   1.083   9.313 -2.0060  1.9236 -4.5935
    8MOL0     H 1046   5.766   1.068   9.208  0.9474 -0.7952  0.2544
    8MOL0     H 1047   5.753   0.999   9.365 -2.0489  1.3934 -0.9490
    8MOL0     H 1048   5.985   0.995   9.250 -0.1599  1.0047  0.7792
    8MOL0     H 1049   5.927   0.858   9.340 -2.6770 -0.3842  0.3630
    8MOL0     H 1050   5.890   0.887   9.034  1.1858  0.4439 -0.6561
    8MOL0     H 1051   5.901   0.729   9.128  2.9049 -0.4891 -1.2496
    8MOL0     H 1052   6.143   0.913   9.107 -1.4741  0.1248 -1.0511
    8MOL0     H 1053   6.122   0.761   9.196 -1.0383  0.2841  1.3637
    8MOL0     H 1054   6.132   0.798   8.890  0.5981  1.4545  0.0753
    8MOL0     H 1055   6.068   0.655   8.965 -1.1718  0.3229 -0.0258
    8MOL0     H 1056   6.289   0.628   9.091 -2.3558 -0.8570 -0.3804
    8MOL0     H 1057   6.320   0.622   8.919  2.1374 -3.7482  1.8015
    8MOL0     H 1058   6.356   0.882   9.077  0.6057  0.6719 -0.9510
    8MOL0     H 1059   6.369   0.853   8.897  1.2103 -3.1830 -1.6099
    8MOL0     H 1060   6.589   0.849   8.997 -1.4966  0.3915 -1.4115
    8MOL0     H 1061   6.545   0.688   8.955 -3.4813 -2.1423  0.7486
    8MOL0     H 1062   5.503   0.695   9.145 -1.3209 -0.7423  2.0234
    8MOL0     H 1063   5.268   0.709   9.181  1.2590  1.7148 -2.0911
    8MOL0     H 1064   4.931   0.767   9.344  0.4958  2.0810  3.9641
    8MOL0     H 1065   4.676   0.726   9.332 -2.6653  0.3037 -1.0618
    8MOL0     H 1066   5.156   1.809   9.936  3.4595  0.6638 -1.8841
    8MOL0     H 1067   5.398   1.825   9.981  2.8815  0.1167  3.0627
    8MOL0     H 1068   5.754   1.647  10.155 -2.1344  1.1486  0.5098
    8MOL0     H 1069   5.996   1.644  10.134  3.4488  0.5769  1.7651
    8MOL0     H 1070   6.329   1.906  10.213 -0.2808  0.0607  0.9618
    8MOL0     H 1071   6.215   2.046  10.186 -1.9865 -0.1890 -0.4877
    8MOL0     H 1072   6.099   1.981  10.392  1.1185  0.5461 -1.2226
    8MOL0     H 1073   6.273   1.994  10.432  0.6492  0.0729  0.8152
    8MOL0     H 1074   6.303   1.757  10.401 -0.4433  1.0228 -1.3102
    8MOL0     H 1075   6.123   1.743  10.390 -1.4984  1.2349  0.7745
    8MOL0     H 1076   6.122   1.706  10.603 -1.3864  0.1696  1.4449
    8MOL0     H 1077   6.121   1.883  10.608  2.0367  0.7561  0.3448
    8MOL0     H 1078   6.473   1.838  10.806  2.1082  1.2848 -2.2136
    8MOL0     H 1079   5.992   2.075  10.201 -2.4976 -0.1918  0.2659
    8MOL0     H 1080   5.760   2.062  10.233  0.4126  0.8351  0.8685
    9MOL0     O 1081   8.149   5.899   2.996  0.1436  0.2126  0.2228
    9MOL0     C 1082   8.134   5.808   3.081 -0.6690 -0.7511  0.2675
    9MOL0     O 1083   8.040   5.725   3.082  0.1617  0.3195 -0.1558
    9MOL0     C 1084   7.920   5.735   3.014 -0.1225  0.1472 -0.0531
    9MOL0     C 1085   7.865   5.616   2.977 -0.3447 -0.8001  0.3325
    9MOL0     C 1086   7.754   5.618   2.895 -0.6085 -0.0242 -0.2894
    9MOL0     C 1087   7.691   5.740   2.848  0.1252 -0.4065 -0.3689
    9MOL0     O 1088   7.577   5.742   2.768 -0.5692  0.3954  0.8592
    9MOL0     C 1089   7.514   5.607   2.739 -0.1082  0.4839 -0.2957
    9MOL0     C 1090   7.381   5.613   2.662 -0.3290 -0.2291 -0.5091
    9MOL0     C 1091   7.347   5.470   2.616 -0.3974 -0.2735 -0.1201
    9MOL0     C 1092   7.326   5.363   2.723  0.0735  0.2856 -0.1977
    9MOL0     C 1093   7.324   5.216   2.662  1.0842 -0.5349 -0.3024
    9MOL0     C 1094   7.313   5.115   2.773 -0.0590  0.6649 -0.2746
    9MOL0     C 1095   7.442   5.121   2.854  0.1599  0.6909 -0.2494
    9MOL0     C 1096   7.463   4.997   2.940  0.7624  0.2863 -1.0671
    9MOL0     N 1097   7.569   5.027   3.045  0.4738  0.6847 -0.0622
    9MOL0     C 1098   7.676   5.113   3.034 -0.6972 -0.4296 -0.8500
    9MOL0     C 1099   7.746   5.098   3.148 -0.3742 -0.2175 -0.8973
    9MOL0     C 1100   7.877   5.172   3.181  0.0616  0.0462 -0.0886
    9MOL0     C 1101   7.852   5.320   3.184  0.0871 -1.0805  0.5768
    9MOL0     C 1102   7.764   5.348   3.312  0.1913  0.0171 -0.6669
    9MOL0     C 1103   7.834   5.452   3.395  1.2792 -0.1066  0.1423
    9MOL0     O 1104   7.805   5.584   3.340  0.5899  0.3614  0.2404
    9MOL0     C 1105   7.848   5.696   3.402  0.1865 -0.2732  0.5214
    9MOL0     C 1106   7.932   5.699   3.519 -0.6725  0.5652  0.5108
    9MOL0     C 1107   7.997   5.816   3.572  0.3633  0.2951  0.9469
    9MOL0     C 1108   8.115   5.795   3.662  0.9276  0.0490  0.4097
    9MOL0     C 1109   7.958   5.950   3.516  0.7996  0.7172  0.7757
    9MOL0     C 1110   8.005   6.076   3.565  0.3137 -0.2079  0.0853
    9MOL0     O 1111   7.944   6.179   3.513 -0.8727 -1.2967 -0.3851
    9MOL0     C 1112   7.988   6.317   3.519  1.5018  0.9505  0.1540
    9MOL0     C 1113   7.889   6.418   3.501 -1.2083 -0.6966 -0.3409
    9MOL0     C 1114   7.930   6.552   3.503 -0.4326  0.5311  0.1019
    9MOL0     C 1115   8.073   6.580   3.507  0.0746  0.3139  0.0934
    9MOL0     O 1116   8.122   6.709   3.491  0.6841  0.3926 -0.4105
    9MOL0     C 1117   8.042   6.825   3.515 -0.0709 -0.5544 -1.2130
    9MOL0     C 1118   8.116   6.961   3.507  0.3968  0.2741 -0.6657
    9MOL0     C 1119   8.233   6.983   3.612 -0.4422  0.3366 -0.8360
    9MOL0     C 1120   8.319   7.113   3.592 -0.1029 -0.1914  0.0078
    9MOL0     C 1121   8.393   7.108   3.462 -0.0332  0.2808  0.3392
    9MOL0     C 1122   8.505   7.211   3.441 -0.0946  0.7816  0.0120
    9MOL0     C 1123   8.607   7.183   3.334  0.1467 -0.1028 -0.4493
    9MOL0     C 1124   8.727   7.135   3.412 -0.8188  0.2611  0.6369
    9MOL0    Cl 1125   8.859   7.107   3.300 -0.2419 -0.2170  0.1731
    9MOL0     C 1126   8.164   6.484   3.522  1.1312 -0.1863  0.6030
    9MOL0     C 1127   8.121   6.351   3.540 -0.0319  0.2239 -0.3478
    9MOL0     O 1128   8.102   6.072   3.638  0.7813 -0.7339  0.1716
    9MOL0     C 1129   7.855   5.945   3.408 -0.0357  0.6626 -0.5042
    9MOL0     C 1130   7.803   5.819   3.354 -0.0119  0.1801 -0.1137
    9MOL0     N 1131   7.675   5.013   3.237 -0.3046 -0.1589 -0.1819
    9MOL0     N 1132   7.565   4.981   3.169 -1.6300 -0.5443 -0.6719
    9MOL0     C 1133   7.737   5.858   2.888 -0.4884 -0.1112 -0.7658
    9MOL0     C 1134   7.850   5.857   2.969 -1.1459  0.6974  0.8093
    9MOL0     C 1135   8.241   5.801   3.185 -0.4108 -0.2752  0.7552
    9MOL0     C 1136   8.355   5.880   3.174 -0.5884  1.0787 -0.7776
    9MOL0     C 1137   8.457   5.879   3.276  0.4403 -0.2380 -0.0757
    9MOL0     C 1138   8.439   5.796   3.385  1.0576  1.0723  0.6734
    9MOL0     O 1139   8.515   5.799   3.498  0.8629  0.1742 -0.3549
    9MOL0     C 1140   8.655   5.786   3.482 -1.2944  0.2299  0.3136
    9MOL0     C 1141   8.717   5.752   3.618  0.1312  0.8030 -0.1467
    9MOL0     C 1142   8.869   5.734   3.620 -0.6603  0.2146 -0.7748
    9MOL0     C 1143   8.956   5.856   3.600  0.5481 -0.3560  0.5085
    9MOL0     C 1144   8.924   5.974   3.694  0.4916  0.8251  0.3422
    9MOL0     C 1145   8.913   6.061   3.778  0.6856 -0.1857  0.1690
    9MOL0     C 1146   8.323   5.723   3.403  0.4630  0.5431 -0.7493
    9MOL0     C 1147   8.227   5.724   3.304 -0.3576 -0.6238  0.1272
    9MOL0     H 1148   7.925   5.526   2.986  4.0303  1.6915 -0.8581
    9MOL0     H 1149   7.727   5.518   2.862 -0.4947 -0.9345  2.1289
    9MOL0     H 1150   7.596   5.553   2.690  0.3594 -1.0651  2.0352
    9MOL0     H 1151   7.501   5.561   2.837  4.8821  0.7656  0.7860
    9MOL0     H 1152   7.301   5.649   2.728  0.9582  0.9956  0.4324
    9MOL0     H 1153   7.396   5.681   2.578  0.7949 -1.7426 -1.5929
    9MOL0     H 1154   7.262   5.471   2.547 -0.0686 -3.1541 -0.6678
    9MOL0     H 1155   7.436   5.437   2.562  0.3816  2.3175 -0.5681
    9MOL0     H 1156   7.414   5.371   2.788  0.1161 -1.5170  0.0185
    9MOL0     H 1157   7.246   5.377   2.796 -1.9848 -1.8199 -1.8952
    9MOL0     H 1158   7.231   5.199   2.607  2.8386 -3.2134 -2.7551
    9MOL0     H 1159   7.406   5.197   2.592 -0.6119 -1.6666 -2.0851
    9MOL0     H 1160   7.227   5.131   2.838 -1.7188  0.2721 -2.2886
    9MOL0     H 1161   7.306   5.015   2.728  1.2667 -0.1890  1.2921
    9MOL0     H 1162   7.532   5.139   2.795  1.6070  0.3010  1.7366
    9MOL0     H 1163   7.428   5.207   2.921  0.0589  0.6136 -0.1690
    9MOL0     H 1164   7.485   4.906   2.883 -0.6700 -0.6901 -0.1292
    9MOL0     H 1165   7.375   4.967   2.998  1.1527 -1.0909 -1.1671
    9MOL0     H 1166   7.712   5.172   2.950  1.1145 -2.4916 -1.6137
    9MOL0     H 1167   7.923   5.135   3.273  1.7234  3.1667  0.4669
    9MOL0     H 1168   7.940   5.152   3.094 -0.0678 -1.2138  0.0866
    9MOL0     H 1169   7.787   5.341   3.098 -0.9127  0.7454  1.7141
    9MOL0     H 1170   7.941   5.383   3.186 -1.6666  1.6352 -0.8333
    9MOL0     H 1171   7.757   5.258   3.374 -0.2523  0.8004  0.4444
    9MOL0     H 1172   7.660   5.375   3.292  0.0909  0.3714  0.3208
    9MOL0     H 1173   7.941   5.432   3.408  1.3270 -0.4847 -0.7691
    9MOL0     H 1174   7.796   5.462   3.498  0.7842 -1.7456  0.1469
    9MOL0     H 1175   7.975   5.604   3.551 -0.5256 -0.0733 -1.4256
    9MOL0     H 1176   8.087   5.841   3.757  1.2831 -0.7301  0.8977
    9MOL0     H 1177   8.133   5.689   3.681 -0.1847 -0.1537  0.3811
    9MOL0     H 1178   8.207   5.845   3.627  0.1102  0.9987 -0.4768
    9MOL0     H 1179   7.788   6.381   3.485 -0.6997 -2.9142  1.1594
    9MOL0     H 1180   7.870   6.643   3.503  0.2486  0.9843  0.6240
    9MOL0     H 1181   7.966   6.832   3.437  0.0608 -2.2549 -1.5329
    9MOL0     H 1182   7.997   6.823   3.614  1.1916  0.0595 -0.6012
    9MOL0     H 1183   8.144   6.982   3.403 -2.4378 -1.2757 -1.8500
    9MOL0     H 1184   8.053   7.047   3.530  0.8515  0.9889 -1.9712
    9MOL0     H 1185   8.307   6.903   3.606  0.7011  1.3814 -1.2092
    9MOL0     H 1186   8.186   6.981   3.711  1.6005 -2.1505  0.1987
    9MOL0     H 1187   8.250   7.197   3.606 -1.5564 -1.7519  3.0388
    9MOL0     H 1188   8.392   7.098   3.673  2.0916  2.7383 -1.2268
    9MOL0     H 1189   8.328   7.104   3.375  1.2494  0.0325 -0.6408
    9MOL0     H 1190   8.432   7.006   3.463 -1.1972 -0.2442  3.0285
    9MOL0     H 1191   8.459   7.306   3.411  1.3669  1.5157 -0.0318
    9MOL0     H 1192   8.555   7.226   3.537 -0.0870  0.4902  0.0520
    9MOL0     H 1193   8.622   7.278   3.282  0.9007 -0.4360 -0.8539
    9MOL0     H 1194   8.573   7.110   3.260 -0.1516 -1.4902  0.9886
    9MOL0     H 1195   8.718   7.049   3.480 -0.0192 -1.1819 -0.9828
    9MOL0     H 1196   8.768   7.215   3.474  2.0859  0.4958 -1.3679
    9MOL0     H 1197   8.267   6.519   3.529  0.9090  0.2235  2.0658
    9MOL0     H 1198   8.198   6.276   3.549  1.7664  1.7234 -2.1328
    9MOL0     H 1199   7.826   6.037   3.358  0.2567  0.3333 -1.3155
    9MOL0     H 1200   7.740   5.815   3.266 -0.8229 -1.0978  0.4922
    9MOL0     H 1201   7.690   5.953   2.867 -2.6281 -0.5984  1.3501
    9MOL0     H 1202   7.902   5.951   2.986 -1.3430  0.9714 -0.0611
    9MOL0     H 1203   8.365   5.943   3.086 -1.3503  0.5774 -1.2421
    9MOL0     H 1204   8.545   5.942   3.269 -1.6414  2.6921 -3.0164
    9MOL0     H 1205   8.682   5.699   3.420  1.8147 -0.2096  2.0174
    9MOL0     H 1206   8.697   5.883   3.456 -1.2861 -0.1273 -1.0811
    9MOL0     H 1207   8.670   5.661   3.658 -2.7495  1.5534 -1.5506
    9MOL0     H 1208   8.692   5.837   3.683 -1.0912 -0.2027  0.7572
    9MOL0     H 1209   8.890   5.664   3.539  4.1861 -1.0339  1.2318
    9MOL0     H 1210   8.880   5.690   3.720 -1.2150  0.7184 -0.4857
    9MOL0     H 1211   8.956   5.891   3.496 -0.5741 -0.4398  0.4614
    9MOL0     H 1212   9.060   5.834   3.625  0.4186  1.3706  2.9116
    9MOL0     H 1213   8.903   6.139   3.850  1.5176 -1.0923  1.2967
    9MOL0     H 1214   8.299   5.660   3.488 -3.2351  0.2009 -1.9017
    9MOL0     H 1215   8.137   5.665   3.316 -1.6844  0.7754 -2.0564
   10MOL0     O 1216   5.494  11.324   1.186 -0.0485 -0.5071 -1.0876
   10MOL0     C 1217   5.534  11.400   1.107  0.2225  0.9846  0.4965
   10MOL0     O 1218   5.510  11.527   1.101 -0.4373  0.7087  0.4668
   10MOL0     C 1219   5.463  11.591   1.215 -0.6300  0.6040  0.0830
   10MOL0     C 1220   5.334  11.568   1.267 -0.6605 -0.4662  1.0343
   10MOL0     C 1221   5.292  11.652   1.375 -0.4537  0.0649 -0.2904
   10MOL0     C 1222   5.377  11.732   1.451 -0.7905  0.4583 -0.3522
   10MOL0     O 1223   5.337  11.798   1.571  0.5338 -0.2843  0.5458
   10MOL0     C 1224   5.273  11.931   1.557 -0.1330 -0.3916 -0.1233
   10MOL0     C 1225   5.189  11.975   1.674  0.3825  0.2308 -0.2738
   10MOL0     C 1226   5.117  11.856   1.742  0.4435  0.1126 -0.1111
   10MOL0     C 1227   5.010  11.894   1.847  0.2933  0.2744  0.7317
   10MOL0     C 1228   4.929  11.768   1.891 -0.2101  1.1086 -0.0854
   10MOL0     C 1229   4.798  11.793   1.952  0.1567  0.0695  0.2497
   10MOL0     C 1230   4.736  11.654   1.997  0.5407 -0.2267 -0.6452
   10MOL0     C 1231   4.768  11.636   2.144 -0.8156  0.0662  0.2726
   10MOL0     N 1232   4.730  11.499   2.181 -0.1194  0.1074 -0.1278
   10MOL0     C 1233   4.600  11.460   2.181  0.0272  0.3893  0.8496
   10MOL0     C 1234   4.594  11.326   2.207 -0.7866  0.0094  0.1899
   10MOL0     C 1235   4.474  11.239   2.221 -0.5846 -0.5772  1.0732
   10MOL0     C 1236   4.472  11.110   2.135  0.5306  0.0235 -0.1093
   10MOL0     C 1237   4.328  11.037   2.127 -0.8707 -0.6432 -0.4605
   10MOL0     C 1238   4.288  10.991   2.264 -0.3290  0.3315 -0.2416
   10MOL0     O 1239   4.392  10.919   2.331  0.3383  0.6103 -0.1376
   10MOL0     C 1240   4.358  10.828   2.427 -0.3823  0.2829  0.5127
   10MOL0     C 1241   4.366  10.868   2.565 -0.4449 -0.9102 -0.4405
   10MOL0     C 1242   4.298  10.792   2.662 -0.6875 -0.5607 -0.3106
   10MOL0     C 1243   4.299  10.840   2.806 -0.4832 -0.1104  0.1732
   10MOL0     C 1244   4.240  10.664   2.628  0.5823  0.9861 -0.1385
   10MOL0     C 1245   4.157  10.574   2.723  0.0199  0.7754 -0.0675
   10MOL0     O 1246   4.087  10.467   2.652  1.1625 -0.1140  0.1991
   10MOL0     C 1247   3.965  10.414   2.692  1.0399  0.3875  0.2698
   10MOL0     C 1248   3.909  10.331   2.595 -0.4963  0.0004 -0.7612
   10MOL0     C 1249   3.781  10.274   2.620 -0.7736  0.1051 -0.3526
   10MOL0     C 1250   3.719  10.282   2.748 -0.4270  0.1912 -0.4034
   10MOL0     O 1251   3.604  10.218   2.750  0.1043  0.3498 -0.3732
   10MOL0     C 1252   3.504  10.259   2.840  0.6556 -1.3325  0.8098
   10MOL0     C 1253   3.375  10.193   2.820  0.0598  0.1638 -0.0686
   10MOL0     C 1254   3.267  10.239   2.913 -0.2212 -0.4171  0.0284
   10MOL0     C 1255   3.127  10.189   2.863  0.1512 -0.1906 -1.0053
   10MOL0     C 1256   3.013  10.251   2.953  0.1545  0.6647 -0.0455
   10MOL0     C 1257   2.886  10.176   2.911  1.1869 -0.6099 -0.1092
   10MOL0     C 1258   2.762  10.246   2.947  0.1111 -0.3324 -0.2354
   10MOL0     C 1259   2.634  10.175   2.910  0.0138 -0.5893  0.2381
   10MOL0    Cl 1260   2.627  10.101   2.753  0.1787 -0.6159  0.0507
   10MOL0     C 1261   3.776  10.361   2.846 -0.3272  0.4038 -0.5178
   10MOL0     C 1262   3.894  10.428   2.816  0.5327 -0.2698  0.6654
   10MOL0     O 1263   4.147  10.590   2.840 -0.3959 -0.0726  0.1488
   10MOL0     C 1264   4.234  10.635   2.487 -0.4631  0.6568 -0.7135
   10MOL0     C 1265   4.297  10.713   2.394 -0.1311  0.8160  0.2817
   10MOL0     N 1266   4.724  11.292   2.246  0.6947 -0.7136  1.5201
   10MOL0     N 1267   4.799  11.392   2.209 -0.2343  0.6742 -1.3258
   10MOL0     C 1268   5.503  11.754   1.401 -0.5675  0.4631 -0.2501
   10MOL0     C 1269   5.539  11.690   1.279  1.0152  0.2879  0.9774
   10MOL0     C 1270   5.620  11.341   0.999 -0.4602  0.0105 -0.4319
   10MOL0     C 1271   5.651  11.416   0.884 -0.4878 -0.4111 -0.3757
   10MOL0     C 1272   5.736  11.372   0.788 -0.7067  0.2943 -0.4037
   10MOL0     C 1273   5.799  11.245   0.803  0.5938  0.3420 -0.1828
   10MOL0     O 1274   5.872  11.196   0.703  0.0962 -0.6647 -0.4121
   10MOL0     C 1275   5.974  11.102   0.730  0.1282  0.5633 -0.7197
   10MOL0     C 1276   5.944  10.980   0.656  0.1565  0.0667 -0.5806
   10MOL0     C 1277   6.054  10.869   0.669  0.0566 -0.0993 -0.4028
   10MOL0     C 1278   6.048  10.774   0.798  0.7687 -0.2331  0.9651
   10MOL0     C 1279   5.935  10.679   0.788 -0.6672 -0.4262 -0.7272
   10MOL0     C 1280   5.849  10.601   0.774 -0.2662 -0.0607 -0.5922
   10MOL0     C 1281   5.774  11.174   0.922 -0.4205 -0.3462  0.1858
   10MOL0     C 1282   5.686  11.224   1.022  0.8592 -0.0392 -0.5197
   10MOL0     H 1283   5.281  11.494   1.208 -1.5376 -0.9486  2.3847
   10MOL0     H 1284   5.198  11.630   1.423  0.0668 -0.1073  0.6872
   10MOL0     H 1285   5.363  11.993   1.554  1.8063 -2.9148  1.8839
   10MOL0     H 1286   5.214  11.932   1.464 -2.1105 -1.0171  1.0827
   10MOL0     H 1287   5.258  12.016   1.748 -0.5386 -2.1803  2.0698
   10MOL0     H 1288   5.113  12.050   1.646  2.1299  2.1128 -0.1993
   10MOL0     H 1289   5.058  11.798   1.671 -1.2126  1.5332  0.0481
   10MOL0     H 1290   5.189  11.787   1.787 -0.6906 -1.3869 -0.4997
   10MOL0     H 1291   5.054  11.937   1.937 -0.1364  0.7904  0.6980
   10MOL0     H 1292   4.949  11.973   1.804 -0.6599 -1.3684 -1.0772
   10MOL0     H 1293   4.917  11.697   1.809  1.8890  0.6707 -0.0751
   10MOL0     H 1294   4.991  11.717   1.966  0.7560  0.3231 -1.3733
   10MOL0     H 1295   4.799  11.858   2.040  1.3123  0.9719 -0.4217
   10MOL0     H 1296   4.736  11.844   1.878  1.5752  1.6472  0.1017
   10MOL0     H 1297   4.627  11.662   1.989  0.3281 -1.1933  0.8982
   10MOL0     H 1298   4.764  11.567   1.937  0.5474 -0.7580  0.1104
   10MOL0     H 1299   4.718  11.714   2.202  0.9631  0.1857  1.7294
   10MOL0     H 1300   4.877  11.647   2.155 -0.9431  1.4033  0.2901
   10MOL0     H 1301   4.517  11.525   2.155  0.1103  1.4116  2.8601
   10MOL0     H 1302   4.459  11.225   2.329  1.0767  1.2708  1.6028
   10MOL0     H 1303   4.386  11.289   2.179  0.2089  0.2909  0.4207
   10MOL0     H 1304   4.550  11.048   2.181  0.1517 -0.1244  0.3420
   10MOL0     H 1305   4.489  11.148   2.034 -1.2853 -0.4958 -0.6498
   10MOL0     H 1306   4.335  10.955   2.055  2.9568 -2.0034  1.1474
   10MOL0     H 1307   4.249  11.105   2.095 -0.3892  0.4302  0.5708
   10MOL0     H 1308   4.202  10.923   2.265 -0.7974  0.9121  0.8202
   10MOL0     H 1309   4.268  11.080   2.324  0.8829  1.7030 -1.7727
   10MOL0     H 1310   4.410  10.963   2.592  1.9076 -2.0518 -0.0140
   10MOL0     H 1311   4.203  10.892   2.811 -0.3923  0.1005 -0.1890
   10MOL0     H 1312   4.299  10.762   2.883  0.7056  0.9627  1.3236
   10MOL0     H 1313   4.370  10.921   2.830  0.5797 -1.3167  1.2674
   10MOL0     H 1314   3.948  10.324   2.494 -0.8126 -1.3878 -0.8068
   10MOL0     H 1315   3.731  10.218   2.542 -0.8792  0.9655 -0.9167
   10MOL0     H 1316   3.549  10.241   2.938 -0.1155 -2.6809  0.9383
   10MOL0     H 1317   3.485  10.366   2.829 -1.4545 -1.8423 -1.5500
   10MOL0     H 1318   3.345  10.200   2.715 -0.2123  1.9494  0.0961
   10MOL0     H 1319   3.395  10.088   2.841 -1.6064 -0.5472 -1.7741
   10MOL0     H 1320   3.273  10.348   2.910  2.8891 -0.5160 -1.0943
   10MOL0     H 1321   3.285  10.208   3.016 -2.5289 -1.0588  0.2854
   10MOL0     H 1322   3.114  10.237   2.766  1.2989  1.3538 -0.4237
   10MOL0     H 1323   3.117  10.080   2.858 -0.8804 -0.5324  3.6973
   10MOL0     H 1324   3.006  10.359   2.936 -0.8816  1.0665  2.4859
   10MOL0     H 1325   3.024  10.226   3.059 -0.0191  0.0997 -0.1616
   10MOL0     H 1326   2.871  10.190   2.804 -1.3874 -0.2894  0.2380
   10MOL0     H 1327   2.872  10.076   2.953 -2.0765  0.4453  1.6579
   10MOL0     H 1328   2.769  10.346   2.903  1.9187  0.1166  0.9579
   10MOL0     H 1329   2.751  10.262   3.055 -1.7570  2.0952 -0.6835
   10MOL0     H 1330   2.562  10.258   2.915  1.2849  0.6190 -0.7449
   10MOL0     H 1331   2.613  10.098   2.984 -0.5118 -0.5488  0.1350
   10MOL0     H 1332   3.731  10.382   2.943  0.8319  0.9452 -0.0772
   10MOL0     H 1333   3.935  10.496   2.889  0.9722 -0.8799  0.9903
   10MOL0     H 1334   4.184  10.545   2.452  0.7282 -1.5532  2.6970
   10MOL0     H 1335   4.278  10.694   2.288  0.7293 -3.2107  0.6832
   10MOL0     H 1336   5.570  11.818   1.458  0.0818 -0.2508 -0.1932
   10MOL0     H 1337   5.635  11.714   1.235  0.7611 -1.7685 -0.8714
   10MOL0     H 1338   5.582  11.497   0.863 -2.8315 -1.4257  2.5938
   10MOL0     H 1339   5.754  11.437   0.703  1.1563 -2.0254 -1.9321
   10MOL0     H 1340   6.066  11.145   0.688  0.9425 -1.8080 -1.5572
   10MOL0     H 1341   5.988  11.084   0.837  1.0129 -0.7678 -1.0325
   10MOL0     H 1342   5.948  10.998   0.548 -1.5583  2.2580 -0.3602
   10MOL0     H 1343   5.851  10.939   0.698  0.8747 -3.5292 -2.0771
   10MOL0     H 1344   6.149  10.920   0.649 -0.6778  1.6332  0.3212
   10MOL0     H 1345   6.032  10.806   0.583 -0.3525  1.1859 -1.2610
   10MOL0     H 1346   6.038  10.846   0.880  1.3998 -0.4793  1.2659
   10MOL0     H 1347   6.145  10.724   0.812  1.4368  0.7097 -0.1411
   10MOL0     H 1348   5.765  10.533   0.775 -0.0312 -0.5924  4.0049
   10MOL0     H 1349   5.805  11.072   0.941 -0.8205  0.0728  3.9051
   10MOL0     H 1350   5.653  11.166   1.108 -1.4651 -0.2326 -1.4779
   11MOL0     O 1351   2.110   4.317   2.086  0.1335  0.1073  0.2389
   11MOL0     C 1352   2.214   4.382   2.095  0.0497  0.8074 -0.5123
   11MOL0     O 1353   2.271   4.424   2.211  0.5222 -0.6517 -0.2987
   11MOL0     C 1354   2.209   4.404   2.336 -0.0826  0.7437  0.3584
   11MOL0     C 1355   2.268   4.323   2.434 -0.2887 -0.4852 -0.3527
   11MOL0     C 1356   2.202   4.307   2.563 -0.1619 -0.3056  0.7065
   11MOL0     C 1357   2.080   4.372   2.582  0.1864 -0.7661  0.5595
   11MOL0     O 1358   2.009   4.375   2.703 -1.0019  0.8855  0.4227
   11MOL0     C 1359   2.070   4.298   2.804 -0.5599  0.3972 -0.8461
   11MOL0     C 1360   1.966   4.285   2.919 -0.5106  0.2988  0.2833
   11MOL0     C 1361   1.929   4.418   2.993  0.6200 -0.2960  0.0451
   11MOL0     C 1362   1.851   4.391   3.118  0.1156 -0.5231 -1.1814
   11MOL0     C 1363   1.750   4.500   3.165  0.1509 -0.5196  0.1991
   11MOL0     C 1364   1.809   4.638   3.194  0.2082 -1.1170  0.2799
   11MOL0     C 1365   1.703   4.738   3.242 -0.2076  0.5914 -0.1931
   11MOL0     C 1366   1.695   4.775   3.392  0.3392  0.0199  0.4528
   11MOL0     N 1367   1.664   4.651   3.468 -0.4347  0.3758 -0.2837
   11MOL0     C 1368   1.539   4.605   3.496  0.3622  0.3439  0.0752
   11MOL0     C 1369   1.549   4.479   3.548 -0.0716 -0.4128  0.1565
   11MOL0     C 1370   1.433   4.386   3.577  0.2430  0.4276 -0.2236
   11MOL0     C 1371   1.316   4.403   3.474  0.2540  0.6742 -0.2220
   11MOL0     C 1372   1.184   4.323   3.516 -0.0729 -0.5469 -0.6098
   11MOL0     C 1373   1.106   4.386   3.639 -0.1066  0.7156  0.6628
   11MOL0     O 1374   0.971   4.335   3.640 -0.0172  0.1329 -0.4810
   11MOL0     C 1375   0.884   4.375   3.739  0.1265  0.0714 -0.2687
   11MOL0     C 1376   0.747   4.353   3.704 -0.7879  0.3088 -0.5186
   11MOL0     C 1377   0.647   4.369   3.794  0.5244 -0.7930 -0.1624
   11MOL0     C 1378   0.510   4.320   3.741  0.4556  0.1712 -0.7344
   11MOL0     C 1379   0.685   4.426   3.919 -0.2436  0.3482 -0.4703
   11MOL0     C 1380   0.588   4.456   4.030  0.7422 -0.4355  0.6311
   11MOL0     O 1381   0.478   4.384   4.025  0.5182  1.5706 -0.7305
   11MOL0     C 1382   0.382   4.388   4.126  1.1228 -0.0773 -0.3056
   11MOL0     C 1383   0.316   4.267   4.136  0.2035 -0.7517  0.7549
   11MOL0     C 1384   0.207   4.245   4.214  0.9732  0.5350 -0.9242
   11MOL0     C 1385   0.175   4.350   4.306 -0.2244  0.4331  0.1236
   11MOL0     O 1386   0.077   4.332   4.400  0.1143 -0.1410  0.0930
   11MOL0     C 1387  -0.034   4.233   4.397 -0.4866  0.0252 -0.0754
   11MOL0     C 1388  -0.131   4.270   4.281  1.0161 -0.8467  0.7496
   11MOL0     C 1389  -0.243   4.162   4.268 -0.0526 -0.1464 -0.3105
   11MOL0     C 1390  -0.197   4.027   4.226 -0.0078 -0.4193  0.5363
   11MOL0     C 1391  -0.300   3.917   4.166  0.3970 -0.5726  0.2968
   11MOL0     C 1392  -0.397   3.851   4.280 -0.3401  0.2165  0.7671
   11MOL0     C 1393  -0.324   3.801   4.412  0.1341 -0.3152  0.5157
   11MOL0     C 1394  -0.405   3.691   4.480 -0.1782  0.1586 -0.0613
   11MOL0    Cl 1395  -0.573   3.737   4.496 -0.5551  0.6471  0.1907
   11MOL0     C 1396   0.246   4.479   4.306 -0.2624  0.5049 -0.5315
   11MOL0     C 1397   0.348   4.493   4.221 -0.8341 -0.1222 -0.2382
   11MOL0     O 1398   0.622   4.548   4.108  0.9999  0.4929  0.0295
   11MOL0     C 1399   0.825   4.461   3.944  0.3158 -0.2434 -0.1856
   11MOL0     C 1400   0.922   4.441   3.854 -0.1269 -0.0006  0.7315
   11MOL0     N 1401   1.689   4.452   3.555  0.4497  0.2462 -0.4740
   11MOL0     N 1402   1.759   4.552   3.504  0.1406  1.2322 -0.6078
   11MOL0     C 1403   2.022   4.447   2.481  0.3433  0.5794  0.7387
   11MOL0     C 1404   2.089   4.467   2.358  0.2316 -0.1837  0.4153
   11MOL0     C 1405   2.282   4.412   1.964 -0.6489 -0.0538 -0.1626
   11MOL0     C 1406   2.417   4.377   1.959 -0.2340  1.1297  0.4651
   11MOL0     C 1407   2.493   4.408   1.841  0.9964  0.1257 -0.0013
   11MOL0     C 1408   2.430   4.479   1.740  0.3440  0.4956  0.2694
   11MOL0     O 1409   2.498   4.509   1.624 -0.2645 -0.0697  0.5119
   11MOL0     C 1410   2.636   4.456   1.600  0.1245 -0.0561 -0.0224
   11MOL0     C 1411   2.704   4.504   1.471  0.8127  0.4889 -0.0884
   11MOL0     C 1412   2.848   4.453   1.461  0.4290  0.0586 -1.2367
   11MOL0     C 1413   2.937   4.544   1.380 -0.5527 -0.6919  1.0169
   11MOL0     C 1414   2.893   4.537   1.243  0.2315 -0.7810 -0.2689
   11MOL0     C 1415   2.849   4.541   1.134  0.6064  0.0994  0.5974
   11MOL0     C 1416   2.296   4.519   1.756  0.8376  0.5937  0.8120
   11MOL0     C 1417   2.217   4.470   1.862  0.2011 -0.1854  0.1268
   11MOL0     H 1418   2.365   4.276   2.421 -0.5177 -0.8350 -0.8459
   11MOL0     H 1419   2.244   4.234   2.631 -1.2718 -2.4298 -0.7763
   11MOL0     H 1420   2.078   4.195   2.770 -0.2520  0.7364 -1.8291
   11MOL0     H 1421   2.161   4.335   2.854 -1.8983 -1.4665  3.4893
   11MOL0     H 1422   1.885   4.222   2.882 -0.1425 -0.9758  1.5466
   11MOL0     H 1423   2.005   4.218   2.997 -2.9273  0.3364  1.6326
   11MOL0     H 1424   2.019   4.480   2.996  0.5325  0.5272 -5.3019
   11MOL0     H 1425   1.850   4.472   2.939 -0.5099  1.1065  2.8620
   11MOL0     H 1426   1.797   4.297   3.127 -0.7835  0.0974  0.2129
   11MOL0     H 1427   1.923   4.381   3.199 -0.4322  1.1635 -0.4369
   11MOL0     H 1428   1.674   4.515   3.088  0.7598  2.4663  0.0712
   11MOL0     H 1429   1.706   4.458   3.256 -2.4566 -0.4679 -0.9367
   11MOL0     H 1430   1.892   4.624   3.264 -0.0360  1.1097  1.1038
   11MOL0     H 1431   1.845   4.679   3.099 -1.0107 -1.6612 -0.4387
   11MOL0     H 1432   1.730   4.833   3.196 -1.1928  1.4654  0.9774
   11MOL0     H 1433   1.602   4.702   3.219 -0.3293  0.7780  0.0386
   11MOL0     H 1434   1.622   4.855   3.398 -0.2725 -0.3028 -1.7773
   11MOL0     H 1435   1.792   4.813   3.427  0.3258  1.0340 -0.5823
   11MOL0     H 1436   1.449   4.660   3.475  0.2586 -0.5043 -1.9041
   11MOL0     H 1437   1.463   4.281   3.582  4.2389  1.4476  1.0778
   11MOL0     H 1438   1.394   4.405   3.677 -2.1500  1.0772 -1.2074
   11MOL0     H 1439   1.341   4.365   3.375  1.7074  2.1885 -0.4701
   11MOL0     H 1440   1.281   4.506   3.465  0.8715  0.9116  0.0464
   11MOL0     H 1441   1.191   4.214   3.525  1.3815 -0.4172  0.1598
   11MOL0     H 1442   1.118   4.327   3.429  0.7342  0.9855 -1.1858
   11MOL0     H 1443   1.111   4.495   3.647  0.6844  0.6702  0.8842
   11MOL0     H 1444   1.154   4.344   3.729 -1.8226 -4.6670 -0.5228
   11MOL0     H 1445   0.728   4.307   3.607  1.3367 -0.8677 -0.4230
   11MOL0     H 1446   0.496   4.336   3.634  0.4539  2.1090 -0.4695
   11MOL0     H 1447   0.499   4.212   3.757  1.6161  0.1996  0.4609
   11MOL0     H 1448   0.420   4.364   3.785 -1.5078 -1.7271 -2.6175
   11MOL0     H 1449   0.355   4.191   4.069  1.9226 -1.2406  2.2280
   11MOL0     H 1450   0.141   4.159   4.220  1.3321  0.3529  2.4843
   11MOL0     H 1451   0.010   4.133   4.397  0.8854  0.6049 -0.6016
   11MOL0     H 1452  -0.092   4.242   4.489  2.3185  0.4755  1.7710
   11MOL0     H 1453  -0.177   4.368   4.298  1.2687 -0.6746  0.4588
   11MOL0     H 1454  -0.089   4.280   4.180 -1.6815  0.4889 -0.3474
   11MOL0     H 1455  -0.305   4.211   4.192  0.7756  1.4305 -0.0152
   11MOL0     H 1456  -0.296   4.156   4.364  1.9808 -3.4528  0.7448
   11MOL0     H 1457  -0.115   4.036   4.154  3.8059 -0.3311  4.4577
   11MOL0     H 1458  -0.141   3.997   4.316  0.7803 -0.7261 -0.0413
   11MOL0     H 1459  -0.232   3.845   4.120  1.9857  1.3960 -0.5647
   11MOL0     H 1460  -0.359   3.952   4.081  1.7433  2.6295  0.5668
   11MOL0     H 1461  -0.470   3.926   4.311  0.4745  0.9904  0.8579
   11MOL0     H 1462  -0.460   3.768   4.247 -0.1409  0.3144  0.1333
   11MOL0     H 1463  -0.316   3.886   4.480 -1.9807  0.4437 -0.0879
   11MOL0     H 1464  -0.224   3.766   4.385 -0.2284  0.3103 -1.9502
   11MOL0     H 1465  -0.355   3.669   4.575 -0.7601 -1.4973 -0.1079
   11MOL0     H 1466  -0.386   3.609   4.410  1.2883  2.4135 -2.5210
   11MOL0     H 1467   0.205   4.556   4.371  0.9839 -1.2562  2.5391
   11MOL0     H 1468   0.409   4.582   4.226 -0.9105 -0.0868  4.8339
   11MOL0     H 1469   0.837   4.518   4.036 -2.1217  0.3996 -0.1860
   11MOL0     H 1470   1.021   4.470   3.888 -0.0610  0.3389  0.2711
   11MOL0     H 1471   1.919   4.478   2.494  0.2103 -0.4375  2.4512
   11MOL0     H 1472   2.045   4.518   2.273 -1.1956 -0.9156  0.6759
   11MOL0     H 1473   2.459   4.328   2.046  0.4039 -2.9292 -1.8365
   11MOL0     H 1474   2.598   4.380   1.838  0.4912 -2.0126 -2.7895
   11MOL0     H 1475   2.707   4.501   1.671  0.1893 -0.2622  0.0460
   11MOL0     H 1476   2.636   4.348   1.617 -3.4775 -0.3865 -1.3827
   11MOL0     H 1477   2.717   4.613   1.465  1.4767  0.5844  2.0431
   11MOL0     H 1478   2.651   4.466   1.384 -0.8579  1.5632  0.4153
   11MOL0     H 1479   2.861   4.348   1.432  0.3268 -0.4491  0.4302
   11MOL0     H 1480   2.889   4.453   1.563 -0.4255  0.9178 -0.8762
   11MOL0     H 1481   3.043   4.516   1.386  0.1816  1.6017 -0.1890
   11MOL0     H 1482   2.941   4.646   1.417  2.6707 -0.2194 -0.2898
   11MOL0     H 1483   2.794   4.543   1.042  1.4964 -2.7803 -0.0812
   11MOL0     H 1484   2.264   4.566   1.663 -1.3527 -3.9351 -1.0612
   11MOL0     H 1485   2.109   4.462   1.873  0.0608 -2.1608 -1.9727
   12MOL0     O 1486   2.297  10.394   1.173  0.8243  0.2942  0.8223
   12MOL0     C 1487   2.345  10.283   1.173 -0.1083 -0.0214 -0.0871
   12MOL0     O 1488   2.304  10.179   1.251 -0.3625  0.3737 -0.8938
   12MOL0     C 1489   2.178  10.173   1.303 -0.1205 -1.3488 -0.7260
   12MOL0     C 1490   2.108  10.055   1.308 -0.2895  0.4073 -0.1449
   12MOL0     C 1491   1.990  10.033   1.370  0.0964 -0.4445  0.0921
   12MOL0     C 1492   1.919  10.138   1.423 -0.1343  0.4270  1.2088
   12MOL0     O 1493   1.795  10.113   1.473 -0.2616 -0.0150 -0.3977
   12MOL0     C 1494   1.749  10.188   1.590  0.0813 -0.1272 -0.0614
   12MOL0     C 1495   1.684  10.092   1.683 -0.3492 -0.5605  0.4438
   12MOL0     C 1496   1.662  10.175   1.819  0.2823  0.0190 -0.2683
   12MOL0     C 1497   1.644  10.085   1.937  0.4613 -0.0741  0.0149
   12MOL0     C 1498   1.501  10.041   1.955 -0.4994 -0.5672 -0.0956
   12MOL0     C 1499   1.421  10.161   2.013  0.3122 -0.1373 -0.4471
   12MOL0     C 1500   1.307  10.133   2.118 -0.1809  0.0193  0.7636
   12MOL0     C 1501   1.216  10.002   2.083 -0.1277  0.2855  0.2067
   12MOL0     N 1502   1.107   9.983   2.184 -0.1793  0.0282 -0.3338
   12MOL0     C 1503   0.980  10.033   2.164 -0.8621 -0.7213 -0.7167
   12MOL0     C 1504   0.922  10.014   2.283 -0.4615  0.2740 -0.0761
   12MOL0     C 1505   0.779  10.047   2.320  0.3851 -0.8011 -0.1623
   12MOL0     C 1506   0.736  10.186   2.260 -0.1957 -0.4259 -0.0889
   12MOL0     C 1507   0.599  10.216   2.318 -0.6932  0.6514  1.0168
   12MOL0     C 1508   0.574  10.371   2.299  0.7631 -0.3812 -1.0783
   12MOL0     O 1509   0.453  10.408   2.374 -0.0418 -0.1764  0.7061
   12MOL0     C 1510   0.425  10.540   2.363 -0.1319  1.3147 -0.2239
   12MOL0     C 1511   0.337  10.581   2.455 -0.0674  1.3075  0.2173
   12MOL0     C 1512   0.284  10.711   2.459  0.0288 -0.1206 -0.9073
   12MOL0     C 1513   0.211  10.739   2.593 -0.4280  0.1819  0.5937
   12MOL0     C 1514   0.338  10.814   2.370 -0.0719 -0.5900 -0.0234
   12MOL0     C 1515   0.318  10.958   2.361  0.7248 -0.2823 -0.3646
   12MOL0     O 1516   0.300  11.013   2.230 -0.1952 -0.6251 -0.2484
   12MOL0     C 1517   0.232  11.141   2.231 -0.3558 -0.5362  0.5642
   12MOL0     C 1518   0.296  11.264   2.209 -0.3190  0.4692  0.3809
   12MOL0     C 1519   0.229  11.386   2.212 -1.5565 -0.9874  0.0427
   12MOL0     C 1520   0.093  11.399   2.243 -0.5454 -0.1559  0.3034
   12MOL0     O 1521   0.032  11.523   2.238  0.2531  0.7065  0.2358
   12MOL0     C 1522  -0.106  11.526   2.273 -0.0254 -0.5656  0.4319
   12MOL0     C 1523  -0.157  11.664   2.220 -1.6420 -0.4229  0.6140
   12MOL0     C 1524  -0.310  11.681   2.231  0.2258 -0.0157 -0.1738
   12MOL0     C 1525  -0.367  11.820   2.201  0.4875 -1.5341 -0.5567
   12MOL0     C 1526  -0.513  11.849   2.249  0.5301 -0.0539 -1.0656
   12MOL0     C 1527  -0.623  11.754   2.194  0.4594  0.1520 -0.5198
   12MOL0     C 1528  -0.624  11.772   2.040 -0.4836 -0.1159  0.9232
   12MOL0     C 1529  -0.728  11.688   1.974 -0.1903  0.7212 -1.7464
   12MOL0    Cl 1530  -0.888  11.700   2.053  0.3840 -0.2163 -0.0047
   12MOL0     C 1531   0.027  11.276   2.276 -0.1609 -0.1346  0.5968
   12MOL0     C 1532   0.100  11.156   2.267 -0.3337 -0.2594  0.5174
   12MOL0     O 1533   0.308  11.021   2.470 -0.5940  1.0129  0.8877
   12MOL0     C 1534   0.421  10.762   2.276 -0.4400 -0.4599 -0.6528
   12MOL0     C 1535   0.471  10.631   2.266  0.8780 -0.1438  0.1165
   12MOL0     N 1536   1.011   9.952   2.370 -0.1191  0.2958 -0.8591
   12MOL0     N 1537   1.120   9.922   2.307 -0.4609  0.2695  0.4598
   12MOL0     C 1538   1.969  10.262   1.416 -0.5100 -0.0901  0.4639
   12MOL0     C 1539   2.101  10.282   1.357 -0.5014 -0.1644 -0.3941
   12MOL0     C 1540   2.468  10.262   1.104  0.9483  0.2573 -0.2791
   12MOL0     C 1541   2.533  10.370   1.047  0.0880  0.1840  0.3207
   12MOL0     C 1542   2.646  10.350   0.966  0.1875 -0.0558 -0.1554
   12MOL0     C 1543   2.692  10.223   0.952 -0.1586 -0.2283  0.4250
   12MOL0     O 1544   2.808  10.177   0.881 -0.1855 -0.3122  0.2071
   12MOL0     C 1545   2.889  10.267   0.811 -0.0825  0.0773  0.1573
   12MOL0     C 1546   2.832  10.328   0.693  0.2670 -0.1758  1.1040
   12MOL0     C 1547   2.920  10.424   0.606 -1.1793 -0.3274 -0.1536
   12MOL0     C 1548   3.068  10.404   0.608  0.6612  0.3652  0.0897
   12MOL0     C 1549   3.140  10.475   0.511 -0.0865 -0.4728 -0.4872
   12MOL0     C 1550   3.198  10.539   0.422  0.0482 -0.2585 -0.2151
   12MOL0     C 1551   2.633  10.117   1.011  0.1637 -1.2531 -0.7039
   12MOL0     C 1552   2.523  10.128   1.094  0.0882  0.1575  0.7959
   12MOL0     H 1553   2.163   9.969   1.271  0.8964  1.6462 -1.3536
   12MOL0     H 1554   1.954   9.931   1.379 -0.4511 -0.2102  0.7117
   12MOL0     H 1555   1.827  10.246   1.639 -0.7025 -0.4903  1.7026
   12MOL0     H 1556   1.673  10.256   1.551 -1.4897 -1.6759  0.1373
   12MOL0     H 1557   1.587  10.056   1.647  0.9894 -4.3360  0.2504
   12MOL0     H 1558   1.749  10.005   1.693  1.6139  0.7224 -0.4016
   12MOL0     H 1559   1.750  10.236   1.844 -0.3840  0.2611  1.6093
   12MOL0     H 1560   1.577  10.243   1.809 -0.9265 -1.6413 -1.8339
   12MOL0     H 1561   1.714  10.001   1.937  0.4014 -0.2001  2.9060
   12MOL0     H 1562   1.679  10.143   2.023 -0.3519  1.1042 -0.4216
   12MOL0     H 1563   1.456  10.001   1.864  0.9692 -2.1717 -0.1777
   12MOL0     H 1564   1.498   9.947   2.011  1.5249 -1.9614 -2.1819
   12MOL0     H 1565   1.487  10.235   2.059  0.4601 -2.2277  3.0293
   12MOL0     H 1566   1.376  10.208   1.925  1.8679  4.7912  1.0661
   12MOL0     H 1567   1.362  10.113   2.210 -0.6585 -1.5337  0.7405
   12MOL0     H 1568   1.251  10.224   2.140  1.5237  1.0051  1.1467
   12MOL0     H 1569   1.277   9.911   2.076  0.2226  0.5934 -0.9258
   12MOL0     H 1570   1.171  10.017   1.984  1.4032  2.6899 -0.2020
   12MOL0     H 1571   0.922  10.083   2.087 -0.7385 -0.1088 -0.4229
   12MOL0     H 1572   0.715   9.963   2.293 -2.1554  1.1331 -0.6105
   12MOL0     H 1573   0.801  10.057   2.427  3.5571  1.8585 -0.8905
   12MOL0     H 1574   0.736  10.181   2.151  1.3897  1.5415 -0.2364
   12MOL0     H 1575   0.810  10.259   2.296 -0.5781 -1.9537  4.4809
   12MOL0     H 1576   0.597  10.179   2.421 -3.3201 -1.1325  0.3937
   12MOL0     H 1577   0.528  10.152   2.266  0.5322 -0.9200  1.1948
   12MOL0     H 1578   0.551  10.386   2.193  0.6689 -1.1730 -1.1763
   12MOL0     H 1579   0.662  10.429   2.327 -0.0029  0.1001  0.4521
   12MOL0     H 1580   0.311  10.500   2.522  0.6242 -3.0644 -4.2430
   12MOL0     H 1581   0.154  10.651   2.623 -0.7501 -0.9287 -2.8409
   12MOL0     H 1582   0.294  10.768   2.659  0.4465  1.8160 -1.1357
   12MOL0     H 1583   0.132  10.814   2.581 -1.3775 -1.1190 -2.2206
   12MOL0     H 1584   0.403  11.261   2.196 -0.5540  0.1577 -1.7664
   12MOL0     H 1585   0.281  11.474   2.176 -2.0488 -2.0981 -3.8868
   12MOL0     H 1586  -0.168  11.448   2.226  1.9283 -2.1969  0.4397
   12MOL0     H 1587  -0.121  11.504   2.379  1.6523 -2.3276  0.3590
   12MOL0     H 1588  -0.111  11.740   2.285 -0.9047 -1.2233  1.0577
   12MOL0     H 1589  -0.137  11.683   2.114 -1.7645  1.4702  0.8852
   12MOL0     H 1590  -0.351  11.658   2.330  3.5066 -0.6519  1.1588
   12MOL0     H 1591  -0.361  11.604   2.172 -3.9445  2.3370 -0.0610
   12MOL0     H 1592  -0.293  11.892   2.237 -0.7563  0.9679 -2.6239
   12MOL0     H 1593  -0.354  11.841   2.094  0.3225  0.7399 -0.1687
   12MOL0     H 1594  -0.542  11.947   2.210 -3.1761 -0.1893  0.8427
   12MOL0     H 1595  -0.518  11.839   2.358  0.1398  0.3407 -1.0495
   12MOL0     H 1596  -0.592  11.653   2.224  1.8987  0.4416 -0.9448
   12MOL0     H 1597  -0.722  11.776   2.233  0.5163  1.1413 -0.9116
   12MOL0     H 1598  -0.527  11.746   1.997 -2.3144  0.1398 -4.0227
   12MOL0     H 1599  -0.640  11.876   2.009  0.3162  0.7458  3.1514
   12MOL0     H 1600  -0.705  11.581   1.961 -5.0313 -1.4741  3.2997
   12MOL0     H 1601  -0.738  11.729   1.873  1.9797 -0.7126 -2.6201
   12MOL0     H 1602  -0.075  11.265   2.311 -0.2294  1.6361  1.0454
   12MOL0     H 1603   0.062  11.060   2.300  0.1839  0.6515  4.1961
   12MOL0     H 1604   0.451  10.839   2.206 -0.4991 -0.9980 -1.2801
   12MOL0     H 1605   0.537  10.612   2.182  0.7132  0.1996 -0.0917
   12MOL0     H 1606   1.922  10.350   1.460 -2.9123 -0.7495 -0.6113
   12MOL0     H 1607   2.141  10.383   1.359  3.6165 -1.6169 -0.9312
   12MOL0     H 1608   2.487  10.466   1.071 -0.4070 -0.0588  0.3639
   12MOL0     H 1609   2.699  10.435   0.924 -2.3425  1.7818  0.1142
   12MOL0     H 1610   2.917  10.348   0.879  0.6235  0.5064 -0.6278
   12MOL0     H 1611   2.972  10.202   0.780  2.6116  2.3875  2.0336
   12MOL0     H 1612   2.741  10.386   0.715 -0.1011 -0.7039  0.9924
   12MOL0     H 1613   2.797  10.245   0.630 -1.3972  1.6830 -0.5946
   12MOL0     H 1614   2.900  10.529   0.631  1.7847  0.6056 -1.2603
   12MOL0     H 1615   2.879  10.412   0.505 -0.4330 -2.0963 -0.2823
   12MOL0     H 1616   3.089  10.297   0.602 -0.7488 -0.2507  3.5905
   12MOL0     H 1617   3.097  10.449   0.704 -0.3197 -1.7388  1.4561
   12MOL0     H 1618   3.234  10.590   0.335  1.2331 -0.0110  0.4040
   12MOL0     H 1619   2.678  10.020   0.993  0.3935 -0.7517 -3.1598
   12MOL0     H 1620   2.467  10.046   1.140  2.3610 -0.8955  1.8242
   13MOL0     O 1621   6.877   0.590   5.714  0.0814  0.1258 -0.2728
   13MOL0     C 1622   6.896   0.560   5.831 -0.7082  0.1225 -0.9939
   13MOL0     O 1623   6.820   0.478   5.904 -0.1142 -0.7529 -0.5032
   13MOL0     C 1624   6.688   0.446   5.873  0.1367  0.0026  1.2255
   13MOL0     C 1625   6.638   0.328   5.929  0.6317 -0.3285 -0.0127
   13MOL0     C 1626   6.522   0.268   5.887 -0.8248  0.2216 -0.6306
   13MOL0     C 1627   6.452   0.318   5.780 -0.4414 -0.7495 -0.1885
   13MOL0     O 1628   6.347   0.253   5.723 -0.3042  0.4363 -0.2517
   13MOL0     C 1629   6.304   0.136   5.783 -0.5931 -0.5570  0.1605
   13MOL0     C 1630   6.183   0.082   5.710 -0.5112 -0.9031  0.5090
   13MOL0     C 1631   6.202   0.064   5.553 -0.7080  0.7756 -0.8323
   13MOL0     C 1632   6.095  -0.035   5.506  0.2798  0.3375  0.0646
   13MOL0     C 1633   6.081  -0.023   5.355 -0.3633  0.1449  0.2787
   13MOL0     C 1634   5.939  -0.013   5.296  0.7134 -0.7343  1.4498
   13MOL0     C 1635   5.877  -0.150   5.269  0.2185  0.2647 -0.8320
   13MOL0     C 1636   5.738  -0.151   5.222 -0.4571  0.2890 -0.1145
   13MOL0     N 1637   5.653  -0.055   5.289  0.1824 -0.3558  0.4511
   13MOL0     C 1638   5.620   0.067   5.245 -0.0736 -1.5661  0.0957
   13MOL0     C 1639   5.533   0.120   5.348 -0.4288  0.1727  0.5650
   13MOL0     C 1640   5.468   0.254   5.336  0.6698  0.6908 -0.4090
   13MOL0     C 1641   5.316   0.245   5.282  0.2813  0.3941 -0.3526
   13MOL0     C 1642   5.262   0.380   5.243 -0.0013 -0.1147 -0.7657
   13MOL0     C 1643   5.118   0.351   5.215 -0.1860 -0.0185 -0.3947
   13MOL0     O 1644   5.088   0.290   5.085  0.5101  0.3384 -0.9712
   13MOL0     C 1645   5.061   0.379   4.987 -0.2583  0.3025  0.5133
   13MOL0     C 1646   5.143   0.388   4.873  0.3233 -0.8176 -0.1155
   13MOL0     C 1647   5.119   0.472   4.765  0.0173  0.1742 -0.3316
   13MOL0     C 1648   5.222   0.492   4.656  0.3970  0.2229  0.0975
   13MOL0     C 1649   4.990   0.545   4.764 -0.1116  1.1842 -0.1638
   13MOL0     C 1650   4.942   0.618   4.641 -0.6860 -0.4739  0.6925
   13MOL0     O 1651   4.825   0.689   4.659 -0.2705 -0.0169 -0.4760
   13MOL0     C 1652   4.755   0.739   4.549  1.0218  0.8510 -0.2986
   13MOL0     C 1653   4.688   0.661   4.453  0.9858 -0.5885 -0.4165
   13MOL0     C 1654   4.630   0.716   4.338 -1.1281 -0.7015 -0.0965
   13MOL0     C 1655   4.655   0.852   4.309 -1.2100  0.7336 -0.1694
   13MOL0     O 1656   4.610   0.899   4.187  0.1711  0.6070  0.2537
   13MOL0     C 1657   4.586   1.042   4.183  0.5315 -1.2577  0.4100
   13MOL0     C 1658   4.500   1.075   4.059  0.9950 -1.0942  0.1929
   13MOL0     C 1659   4.360   1.009   4.078  0.3446 -0.6359 -0.3568
   13MOL0     C 1660   4.275   1.036   3.948 -0.2021  0.1220 -0.5475
   13MOL0     C 1661   4.140   0.969   3.976 -0.0914  0.8626 -1.6340
   13MOL0     C 1662   4.025   1.024   3.879 -0.8606 -0.2669 -0.8130
   13MOL0     C 1663   3.912   0.931   3.840 -0.1939 -0.2477 -0.5725
   13MOL0     C 1664   3.831   0.861   3.948 -0.5582  0.6950  0.0824
   13MOL0    Cl 1665   3.929   0.768   4.054 -0.1468 -0.4436 -0.0582
   13MOL0     C 1666   4.724   0.929   4.404  0.7925  0.0997 -0.3590
   13MOL0     C 1667   4.769   0.875   4.523  0.0448  1.2989 -0.4273
   13MOL0     O 1668   4.990   0.584   4.531  0.4228 -0.3487 -0.6035
   13MOL0     C 1669   4.920   0.556   4.883  0.0470  0.5637 -0.9731
   13MOL0     C 1670   4.950   0.469   4.989  0.5197 -0.3204  0.2888
   13MOL0     N 1671   5.526   0.019   5.448 -0.0540  0.3757  0.0907
   13MOL0     N 1672   5.585  -0.088   5.402 -0.3547  0.5846  0.6499
   13MOL0     C 1673   6.490   0.442   5.727  0.4837  0.6222  0.6625
   13MOL0     C 1674   6.605   0.509   5.772  0.1372 -0.7804 -0.3607
   13MOL0     C 1675   7.021   0.616   5.889 -0.3897  0.0618 -1.0548
   13MOL0     C 1676   7.038   0.628   6.029 -0.0399  0.6544  0.7867
   13MOL0     C 1677   7.142   0.702   6.089 -0.2159 -0.8797 -0.0267
   13MOL0     C 1678   7.231   0.771   6.009 -0.0715 -0.6370  0.4544
   13MOL0     O 1679   7.334   0.853   6.055  0.2435  0.3024 -0.8082
   13MOL0     C 1680   7.356   0.842   6.195 -0.6430 -0.4248 -0.0270
   13MOL0     C 1681   7.482   0.922   6.226 -0.1345 -0.0578 -0.4243
   13MOL0     C 1682   7.613   0.850   6.198  1.1924  0.1967  0.8080
   13MOL0     C 1683   7.739   0.910   6.234  0.8870 -0.1086 -0.1503
   13MOL0     C 1684   7.843   0.808   6.228  1.1272 -0.3498 -0.0726
   13MOL0     C 1685   7.921   0.719   6.224  0.8138  0.3568 -0.5304
   13MOL0     C 1686   7.227   0.756   5.871 -1.0663  0.1806  0.3911
   13MOL0     C 1687   7.127   0.675   5.809  0.0021 -0.4050 -0.6580
   13MOL0     H 1688   6.697   0.283   6.008 -0.0647 -0.3809  0.4819
   13MOL0     H 1689   6.472   0.196   5.951  0.8359 -0.9872 -0.6302
   13MOL0     H 1690   6.392   0.071   5.788  1.6104  1.6846 -4.0977
   13MOL0     H 1691   6.275   0.165   5.885  0.0499 -0.4874  0.3285
   13MOL0     H 1692   6.141  -0.012   5.748 -0.8367 -1.1589 -0.4595
   13MOL0     H 1693   6.102   0.153   5.728  0.4039 -0.1197  1.6396
   13MOL0     H 1694   6.193   0.163   5.507  1.1915  1.8063  0.8451
   13MOL0     H 1695   6.305   0.036   5.531 -0.6692  1.0420 -0.9839
   13MOL0     H 1696   6.118  -0.139   5.530 -1.4105  0.3672  2.0273
   13MOL0     H 1697   6.001  -0.021   5.561 -0.4999 -1.6064 -0.6688
   13MOL0     H 1698   6.148   0.055   5.318  1.4568 -1.0965  0.8212
   13MOL0     H 1699   6.125  -0.115   5.316  0.1825  1.9840 -3.9954
   13MOL0     H 1700   5.871   0.032   5.369 -1.4444 -5.1075  2.4844
   13MOL0     H 1701   5.953   0.044   5.204  1.2280 -0.5746  1.6240
   13MOL0     H 1702   5.926  -0.214   5.196  0.8876 -1.1145  0.7605
   13MOL0     H 1703   5.882  -0.198   5.368  1.2048 -1.0237 -1.4767
   13MOL0     H 1704   5.702  -0.254   5.225 -0.0194  0.1466  0.5707
   13MOL0     H 1705   5.737  -0.128   5.115 -1.7861  1.4631  0.1138
   13MOL0     H 1706   5.656   0.120   5.157 -0.0132  0.2929  1.1761
   13MOL0     H 1707   5.469   0.300   5.436  2.9181  1.6167 -0.8000
   13MOL0     H 1708   5.524   0.319   5.269  0.8125  0.3497 -0.6181
   13MOL0     H 1709   5.255   0.196   5.359  1.7863 -2.3817 -0.8038
   13MOL0     H 1710   5.320   0.182   5.193  1.3631  0.3414 -0.2759
   13MOL0     H 1711   5.313   0.415   5.153  1.8220 -0.0210  0.2484
   13MOL0     H 1712   5.268   0.466   5.311  2.6608 -0.2770 -0.6850
   13MOL0     H 1713   5.075   0.451   5.226 -1.5871 -0.6309  0.0180
   13MOL0     H 1714   5.071   0.295   5.297 -1.1320  0.8114 -0.3450
   13MOL0     H 1715   5.233   0.327   4.873  0.2303 -0.9595 -1.1633
   13MOL0     H 1716   5.327   0.469   4.677  0.8899  2.8477  0.8996
   13MOL0     H 1717   5.181   0.437   4.571  2.4818  1.3157 -1.7542
   13MOL0     H 1718   5.222   0.601   4.639 -1.8766  0.3144  0.4953
   13MOL0     H 1719   4.689   0.553   4.463  2.8882 -0.4865  1.1226
   13MOL0     H 1720   4.570   0.654   4.273 -1.3515 -0.3444 -0.2334
   13MOL0     H 1721   4.523   1.075   4.266 -1.3685 -0.2672 -1.3327
   13MOL0     H 1722   4.679   1.098   4.172  1.6330 -3.4529 -4.8762
   13MOL0     H 1723   4.480   1.183   4.050 -2.0388 -1.5249  0.6899
   13MOL0     H 1724   4.544   1.043   3.964  2.9870  4.6784 -1.2559
   13MOL0     H 1725   4.307   1.051   4.164 -1.3960 -0.0248 -1.6646
   13MOL0     H 1726   4.382   0.905   4.100  2.6609  0.3792  2.9073
   13MOL0     H 1727   4.262   1.142   3.926  5.8924  1.4021  0.1983
   13MOL0     H 1728   4.329   0.995   3.862  1.3662  2.3087 -0.6958
   13MOL0     H 1729   4.121   0.972   4.084  3.4323 -2.2123 -0.6895
   13MOL0     H 1730   4.153   0.864   3.947  1.4465  1.1601 -2.1265
   13MOL0     H 1731   3.989   1.121   3.916 -2.5194 -1.0140 -0.3536
   13MOL0     H 1732   4.076   1.042   3.785 -0.5508 -0.8928 -0.7722
   13MOL0     H 1733   3.957   0.849   3.783 -1.4068  0.1906 -2.2172
   13MOL0     H 1734   3.846   0.989   3.775 -2.4520 -2.2439 -0.1959
   13MOL0     H 1735   3.779   0.787   3.886  2.5228 -0.7799 -0.9079
   13MOL0     H 1736   3.764   0.932   3.999  0.2725  0.5742  1.3804
   13MOL0     H 1737   4.746   1.033   4.381  2.6998 -0.1845 -0.0535
   13MOL0     H 1738   4.812   0.948   4.591  0.7854  0.0598  0.4643
   13MOL0     H 1739   4.835   0.623   4.891  0.1089  0.6796 -1.2906
   13MOL0     H 1740   4.883   0.475   5.074 -0.6844 -1.6320 -0.5395
   13MOL0     H 1741   6.421   0.492   5.660 -0.2177 -0.7882  0.2902
   13MOL0     H 1742   6.608   0.607   5.726 -0.9797  0.3964  1.8658
   13MOL0     H 1743   6.964   0.580   6.092 -1.2681 -0.2325 -1.2291
   13MOL0     H 1744   7.138   0.705   6.197  1.1375  2.2280  0.0381
   13MOL0     H 1745   7.276   0.884   6.256  0.0273 -2.0832  2.1124
   13MOL0     H 1746   7.367   0.737   6.224 -0.0632 -0.9854 -2.0612
   13MOL0     H 1747   7.500   0.932   6.334  0.4060 -2.5327 -0.1994
   13MOL0     H 1748   7.475   1.018   6.176  2.2410 -0.2010 -1.1668
   13MOL0     H 1749   7.619   0.837   6.090  0.6084  0.9009  0.6800
   13MOL0     H 1750   7.609   0.746   6.232 -0.6991 -0.3991 -1.0144
   13MOL0     H 1751   7.729   0.946   6.337  1.0943 -1.0293  0.2060
   13MOL0     H 1752   7.755   1.003   6.180  0.8787 -1.1132 -1.9781
   13MOL0     H 1753   8.002   0.650   6.206 -2.5270 -3.7915 -1.3811
   13MOL0     H 1754   7.296   0.806   5.804 -2.5132  1.2590 -0.3415
   13MOL0     H 1755   7.116   0.669   5.701 -1.8925  1.1871 -0.6190
   14MOL0     O 1756   1.287   7.255   6.689  0.2912 -0.1464 -0.4338
   14MOL0     C 1757   1.265   7.151   6.757  1.2114 -0.3185 -0.3951
   14MOL0     O 1758   1.140   7.116   6.802 -0.3108  0.6317 -0.0989
   14MOL0     C 1759   1.030   7.168   6.746  1.2759  0.9599 -0.4469
   14MOL0     C 1760   0.920   7.188   6.833  0.3784 -0.1471 -0.1074
   14MOL0     C 1761   0.803   7.256   6.791 -0.6190 -0.3009  0.0176
   14MOL0     C 1762   0.782   7.285   6.656  0.3191  0.1047  0.1772
   14MOL0     O 1763   0.650   7.328   6.628 -0.0158 -0.3248 -0.3839
   14MOL0     C 1764   0.624   7.437   6.533  1.0553  0.3343  0.2299
   14MOL0     C 1765   0.484   7.489   6.544  0.5395 -0.2468 -0.4138
   14MOL0     C 1766   0.451   7.567   6.671  0.9945 -0.7992 -0.5613
   14MOL0     C 1767   0.563   7.661   6.719 -0.1632  0.4899 -1.0130
   14MOL0     C 1768   0.523   7.752   6.839  0.2101 -0.4040  0.5289
   14MOL0     C 1769   0.637   7.836   6.891  0.4258  0.0335 -0.1731
   14MOL0     C 1770   0.608   7.889   7.027  0.9634 -0.1891  0.1583
   14MOL0     C 1771   0.516   8.008   7.029  0.4118  0.3808 -0.2079
   14MOL0     N 1772   0.591   8.123   6.972 -0.1516  0.3615  0.7027
   14MOL0     C 1773   0.702   8.186   7.019  0.0881 -0.5875  0.2183
   14MOL0     C 1774   0.742   8.279   6.926  1.0024 -1.1996 -0.6505
   14MOL0     C 1775   0.846   8.391   6.957  0.5690  0.6764 -0.1011
   14MOL0     C 1776   0.796   8.529   6.995  0.3216 -0.2653  0.5577
   14MOL0     C 1777   0.722   8.582   6.876 -0.0290 -0.0358  0.4530
   14MOL0     C 1778   0.665   8.723   6.901  0.1123 -0.6878  0.1272
   14MOL0     O 1779   0.576   8.728   7.012  0.4594 -0.1682  0.2859
   14MOL0     C 1780   0.460   8.789   6.979 -1.6238  1.1413 -0.4451
   14MOL0     C 1781   0.453   8.923   6.991 -0.6334  0.3322 -0.4677
   14MOL0     C 1782   0.334   8.995   6.954  0.2316  0.2764 -0.6811
   14MOL0     C 1783   0.336   9.151   6.975 -0.4156 -0.4662 -0.1741
   14MOL0     C 1784   0.212   8.914   6.934 -0.3208 -0.6347  0.5587
   14MOL0     C 1785   0.079   8.972   6.928 -0.4068  0.1490 -0.2735
   14MOL0     O 1786  -0.012   8.907   6.842 -0.2524 -0.7772  0.3295
   14MOL0     C 1787  -0.139   8.954   6.810  0.9584  0.1193  0.2206
   14MOL0     C 1788  -0.169   9.028   6.694  0.2617 -0.5142 -0.6097
   14MOL0     C 1789  -0.304   9.074   6.676 -0.5026 -0.5050  0.1774
   14MOL0     C 1790  -0.406   9.039   6.761 -0.4959  0.1846 -0.5109
   14MOL0     O 1791  -0.529   9.082   6.748  0.2673 -0.2926 -0.5288
   14MOL0     C 1792  -0.593   9.070   6.618 -0.1459  0.0529  0.3377
   14MOL0     C 1793  -0.730   9.004   6.634  0.0253 -0.8351 -0.7699
   14MOL0     C 1794  -0.780   8.963   6.498  0.5341  0.0151  0.2814
   14MOL0     C 1795  -0.829   9.076   6.404 -0.5016 -0.9258 -0.8533
   14MOL0     C 1796  -0.947   9.030   6.313  0.1242 -0.7051 -0.2438
   14MOL0     C 1797  -0.902   8.944   6.191  0.2926  0.3252 -0.0804
   14MOL0     C 1798  -0.870   9.010   6.057 -0.4691  0.5204  0.2334
   14MOL0     C 1799  -0.981   9.083   5.992  0.1306  0.5291  0.2347
   14MOL0    Cl 1800  -1.095   8.964   5.941 -0.2563 -0.0310  0.2609
   14MOL0     C 1801  -0.363   8.986   6.888  0.8261  0.4453  1.1578
   14MOL0     C 1802  -0.242   8.941   6.906 -1.5242  0.8561 -0.1958
   14MOL0     O 1803   0.059   9.074   6.984 -0.1163  0.2257  0.6264
   14MOL0     C 1804   0.223   8.779   6.927  0.1305  0.3883  0.9212
   14MOL0     C 1805   0.346   8.710   6.954  0.6492 -0.0477  0.1575
   14MOL0     N 1806   0.642   8.273   6.826 -0.1396  0.4902  0.2248
   14MOL0     N 1807   0.564   8.174   6.844  0.2564  0.0164 -0.0694
   14MOL0     C 1808   0.879   7.258   6.565 -0.4038  0.3830 -0.2450
   14MOL0     C 1809   1.000   7.202   6.610  0.4121  0.7005 -0.4981
   14MOL0     C 1810   1.384   7.063   6.816  1.0600 -0.0106 -0.1986
   14MOL0     C 1811   1.509   7.065   6.747  0.2934  0.6433 -0.5602
   14MOL0     C 1812   1.621   6.986   6.787 -0.2914  0.1185 -0.7936
   14MOL0     C 1813   1.617   6.908   6.903 -0.2580  0.5213 -0.2466
   14MOL0     O 1814   1.726   6.835   6.952  0.1874  0.4594 -0.0958
   14MOL0     C 1815   1.864   6.873   6.928 -1.0063 -0.0755  1.0790
   14MOL0     C 1816   1.952   6.808   7.033 -0.0692 -0.3907  0.4028
   14MOL0     C 1817   2.013   6.672   6.989 -0.5026 -0.3205  0.3087
   14MOL0     C 1818   2.084   6.588   7.107 -0.6376  0.8628  0.1116
   14MOL0     C 1819   2.118   6.459   7.039  0.7797  0.3391  0.0846
   14MOL0     C 1820   2.168   6.364   6.986 -0.1830 -0.2217 -0.0808
   14MOL0     C 1821   1.491   6.908   6.970  0.3951  0.2751  0.8181
   14MOL0     C 1822   1.371   6.973   6.926 -0.0268  0.9057  0.6522
   14MOL0     H 1823   0.934   7.162   6.938  2.9272 -1.5469 -0.7096
   14MOL0     H 1824   0.724   7.278   6.863 -2.3429 -0.4565 -1.7249
   14MOL0     H 1825   0.697   7.517   6.545  4.1861 -2.2711 -0.2170
   14MOL0     H 1826   0.657   7.412   6.433  0.3896 -0.2981  0.1564
   14MOL0     H 1827   0.476   7.559   6.460  1.2850 -1.1570 -1.2756
   14MOL0     H 1828   0.414   7.405   6.535  0.4233 -0.2681  0.6538
   14MOL0     H 1829   0.366   7.632   6.648 -0.2005 -2.3531 -0.6625
   14MOL0     H 1830   0.423   7.494   6.748  0.7918 -2.1328 -1.8599
   14MOL0     H 1831   0.654   7.604   6.741  1.5080  2.4995 -2.3292
   14MOL0     H 1832   0.589   7.731   6.639  0.0384  0.9031 -0.5907
   14MOL0     H 1833   0.450   7.824   6.800  0.7389  1.3215  2.5451
   14MOL0     H 1834   0.473   7.693   6.915 -3.1677 -1.7337 -2.4376
   14MOL0     H 1835   0.732   7.783   6.890  0.6076  0.3658 -1.0288
   14MOL0     H 1836   0.652   7.923   6.827  2.5051 -0.7661 -0.8575
   14MOL0     H 1837   0.559   7.818   7.095  0.4879 -0.4276 -0.4212
   14MOL0     H 1838   0.705   7.921   7.066  1.3849  1.2001 -1.8507
   14MOL0     H 1839   0.504   8.031   7.135 -2.0325  0.6889 -0.4961
   14MOL0     H 1840   0.417   7.989   6.987  0.8638 -0.3765 -0.9751
   14MOL0     H 1841   0.753   8.171   7.113 -0.6848  1.8835  1.0845
   14MOL0     H 1842   0.907   8.347   7.036 -0.8783 -2.6938 -0.6807
   14MOL0     H 1843   0.916   8.406   6.874  1.8021 -0.3158  0.7202
   14MOL0     H 1844   0.883   8.593   7.013  0.4330  1.3715 -4.4190
   14MOL0     H 1845   0.731   8.522   7.083 -0.0104 -2.5409  0.1931
   14MOL0     H 1846   0.637   8.517   6.856 -0.7084  0.5938  1.2310
   14MOL0     H 1847   0.783   8.587   6.786  0.2389  0.6699  0.6635
   14MOL0     H 1848   0.611   8.758   6.813 -4.0213  0.5544  2.8739
   14MOL0     H 1849   0.746   8.793   6.924  0.2864 -0.2995 -1.5613
   14MOL0     H 1850   0.548   8.966   7.020 -0.5289  0.5857 -1.1552
   14MOL0     H 1851   0.436   9.194   6.990 -0.1480 -0.9613 -0.4985
   14MOL0     H 1852   0.305   9.210   6.888  1.2195 -2.2886 -2.0985
   14MOL0     H 1853   0.295   9.185   7.070  1.0046 -0.1056  0.3439
   14MOL0     H 1854  -0.078   9.041   6.636  0.5181  1.4605  0.1440
   14MOL0     H 1855  -0.326   9.136   6.590  0.4519 -1.8344 -1.0657
   14MOL0     H 1856  -0.607   9.168   6.571 -0.4655  0.0423  0.4115
   14MOL0     H 1857  -0.538   9.008   6.546 -1.1602 -3.0002  2.0007
   14MOL0     H 1858  -0.721   8.914   6.696  1.2442 -3.0759 -3.9072
   14MOL0     H 1859  -0.806   9.067   6.681 -0.1589 -2.6444  1.5064
   14MOL0     H 1860  -0.872   8.906   6.512 -0.2667  0.7562 -1.6658
   14MOL0     H 1861  -0.710   8.891   6.456  1.0560  0.0360  1.0848
   14MOL0     H 1862  -0.859   9.162   6.465  0.8296 -1.6904  0.9597
   14MOL0     H 1863  -0.734   9.118   6.369  0.1045  2.9201  4.2097
   14MOL0     H 1864  -0.991   9.120   6.271  2.4644  0.7865  0.3409
   14MOL0     H 1865  -1.021   8.979   6.376 -1.4058 -0.6904 -1.9489
   14MOL0     H 1866  -0.821   8.877   6.222  1.9014  2.3142  0.2097
   14MOL0     H 1867  -0.995   8.888   6.180 -0.3500  1.1732  0.8191
   14MOL0     H 1868  -0.840   8.926   5.994 -2.8192 -0.0036 -0.2776
   14MOL0     H 1869  -0.794   9.084   6.082 -1.3587  1.9585 -1.2080
   14MOL0     H 1870  -0.939   9.137   5.907 -1.4649  0.8668 -0.3766
   14MOL0     H 1871  -1.032   9.150   6.062 -1.4827  1.3102 -1.6050
   14MOL0     H 1872  -0.438   8.973   6.965  0.2257 -0.8145  0.3886
   14MOL0     H 1873  -0.221   8.892   7.000 -1.5556  0.7676 -0.2356
   14MOL0     H 1874   0.144   8.707   6.909 -0.6267  1.6022 -0.8547
   14MOL0     H 1875   0.348   8.602   6.968  0.4457  0.1635  2.1201
   14MOL0     H 1876   0.855   7.268   6.460  0.8488  5.0145 -0.2989
   14MOL0     H 1877   1.079   7.173   6.540  0.8003 -1.7500  0.8253
   14MOL0     H 1878   1.510   7.118   6.652 -0.7790 -1.6601 -1.9564
   14MOL0     H 1879   1.708   6.973   6.724 -0.4999 -1.8470 -0.7510
   14MOL0     H 1880   1.891   6.843   6.826  0.9798  0.2479  1.4820
   14MOL0     H 1881   1.888   6.980   6.934 -0.6320  0.1644 -2.4385
   14MOL0     H 1882   1.895   6.802   7.126  0.0511  0.6386  0.5511
   14MOL0     H 1883   2.032   6.881   7.049  0.9106 -1.4308  0.3560
   14MOL0     H 1884   2.084   6.681   6.906  1.8216 -0.2566  2.1939
   14MOL0     H 1885   1.918   6.624   6.965 -0.4132  0.7790 -2.6532
   14MOL0     H 1886   2.015   6.550   7.183  2.2420 -2.2508  1.4482
   14MOL0     H 1887   2.169   6.631   7.161  1.0866  0.3375 -2.0358
   14MOL0     H 1888   2.217   6.279   6.942  0.3171  0.5096 -0.9700
   14MOL0     H 1889   1.481   6.845   7.058 -2.3914  0.7252  0.9031
   14MOL0     H 1890   1.279   6.962   6.982 -2.4672 -0.2922 -3.2242
   15MOL0     O 1891   7.448   8.144   6.212  0.2074  0.6622  0.0421
   15MOL0     C 1892   7.565   8.121   6.173 -1.5209  0.1739 -0.4260
   15MOL0     O 1893   7.630   8.179   6.059 -0.1188 -0.4859 -0.4142
   15MOL0     C 1894   7.543   8.258   5.987  0.0291 -0.4372 -0.2581
   15MOL0     C 1895   7.536   8.394   6.009 -0.0945 -0.0396 -0.1361
   15MOL0     C 1896   7.456   8.470   5.923 -0.7518 -0.4976  0.4253
   15MOL0     C 1897   7.375   8.423   5.830  0.3743 -0.9537 -0.7388
   15MOL0     O 1898   7.290   8.499   5.751 -0.3252 -0.9875 -0.4835
   15MOL0     C 1899   7.324   8.636   5.723 -0.0343  0.5687 -0.1647
   15MOL0     C 1900   7.249   8.678   5.600 -0.1652 -0.7152 -0.8531
   15MOL0     C 1901   7.324   8.630   5.468 -0.0129  0.0080 -0.4645
   15MOL0     C 1902   7.221   8.543   5.396 -0.2220  0.1453 -0.1012
   15MOL0     C 1903   7.273   8.463   5.278  0.1312 -0.6976 -0.6105
   15MOL0     C 1904   7.335   8.556   5.181  0.7266  0.1146 -0.3187
   15MOL0     C 1905   7.362   8.469   5.051 -0.2057  0.8672 -0.2583
   15MOL0     C 1906   7.438   8.552   4.942  0.2907 -0.3606 -0.4342
   15MOL0     N 1907   7.358   8.660   4.895  0.7562 -1.0974  0.6709
   15MOL0     C 1908   7.230   8.637   4.855  1.3956  0.0737 -0.5977
   15MOL0     C 1909   7.170   8.763   4.856  0.0287 -0.6544 -0.5872
   15MOL0     C 1910   7.021   8.798   4.820 -0.1224 -0.1785  0.4800
   15MOL0     C 1911   6.962   8.915   4.911 -0.7939 -0.9915  0.5646
   15MOL0     C 1912   7.024   9.057   4.891  0.0936  0.1727 -1.0240
   15MOL0     C 1913   7.074   9.085   4.748  0.2166 -0.4922  0.0979
   15MOL0     O 1914   6.983   9.051   4.651 -0.1197 -0.5462  0.2591
   15MOL0     C 1915   7.015   9.093   4.518 -0.7545 -0.1680 -1.1287
   15MOL0     C 1916   6.958   9.211   4.468 -0.0516  0.2910  0.4252
   15MOL0     C 1917   6.973   9.257   4.330  0.1308  0.2976 -0.4363
   15MOL0     C 1918   6.929   9.395   4.297 -0.0955  0.2593 -0.2039
   15MOL0     C 1919   7.045   9.166   4.243 -0.0561  0.0754  0.4824
   15MOL0     C 1920   7.057   9.174   4.089 -0.7265 -1.0061  0.3852
   15MOL0     O 1921   7.129   9.081   4.025 -0.0226 -1.1678  1.0152
   15MOL0     C 1922   7.103   9.061   3.888  0.2697  0.2786 -0.3792
   15MOL0     C 1923   7.212   9.043   3.813 -0.5389 -0.0808 -0.1871
   15MOL0     C 1924   7.206   9.015   3.675 -0.5904  0.4437 -0.5000
   15MOL0     C 1925   7.084   9.024   3.617 -0.0350 -0.5789  0.9200
   15MOL0     O 1926   7.059   9.004   3.479 -0.4824 -0.0140  0.0681
   15MOL0     C 1927   7.164   8.960   3.388 -0.1509 -0.1174  1.1428
   15MOL0     C 1928   7.114   8.953   3.234  1.0364  0.1024 -0.3047
   15MOL0     C 1929   7.213   8.895   3.134  0.2938 -0.6179 -0.0298
   15MOL0     C 1930   7.190   8.946   2.989 -0.9025 -0.6022 -0.5310
   15MOL0     C 1931   7.264   8.862   2.886 -0.0301  0.6040 -0.5115
   15MOL0     C 1932   7.404   8.906   2.877 -0.0830 -0.2588  0.1664
   15MOL0     C 1933   7.417   9.027   2.785 -0.3374 -0.2203  0.7446
   15MOL0     C 1934   7.539   9.022   2.701  0.4589 -0.0122  0.3415
   15MOL0    Cl 1935   7.681   8.980   2.795  0.2360  0.1727 -0.2413
   15MOL0     C 1936   6.967   9.046   3.687 -0.1673  0.9164  0.6295
   15MOL0     C 1937   6.978   9.062   3.826 -0.3429  0.8298  0.0475
   15MOL0     O 1938   7.010   9.278   4.043 -0.3606  0.0059  0.0613
   15MOL0     C 1939   7.086   9.039   4.299 -0.6188 -1.1336  0.0422
   15MOL0     C 1940   7.068   9.001   4.429  0.0097 -0.1493 -1.7446
   15MOL0     N 1941   7.270   8.856   4.887  0.6816 -1.4471 -0.5555
   15MOL0     N 1942   7.384   8.796   4.909 -0.1934 -0.0204  0.2699
   15MOL0     C 1943   7.375   8.284   5.818 -0.1952 -0.3049 -0.1405
   15MOL0     C 1944   7.464   8.197   5.895  0.2596  0.3138  0.4975
   15MOL0     C 1945   7.649   8.040   6.263 -0.4427  0.7170 -0.6048
   15MOL0     C 1946   7.587   8.006   6.387 -0.1006 -0.7117  0.8394
   15MOL0     C 1947   7.652   7.924   6.476  0.3751 -0.3962 -0.1843
   15MOL0     C 1948   7.785   7.887   6.459  0.0664  0.1680  1.2757
   15MOL0     O 1949   7.850   7.820   6.561  0.0354  0.1692  0.0143
   15MOL0     C 1950   7.970   7.762   6.533 -0.6841 -0.4884 -0.3560
   15MOL0     C 1951   8.011   7.686   6.659 -0.1725  0.2497 -0.3368
   15MOL0     C 1952   7.928   7.556   6.696 -0.3021 -0.7188  0.7722
   15MOL0     C 1953   7.930   7.433   6.601 -0.3082  0.0988 -0.0454
   15MOL0     C 1954   7.880   7.317   6.680 -0.6972 -0.4335  0.5671
   15MOL0     C 1955   7.850   7.221   6.741  0.8353  0.0192 -0.2358
   15MOL0     C 1956   7.837   7.924   6.340  0.1239 -0.4098  0.1862
   15MOL0     C 1957   7.783   8.016   6.247 -0.6578  0.2766  0.4602
   15MOL0     H 1958   7.591   8.451   6.083 -0.7031  1.9776 -1.1841
   15MOL0     H 1959   7.459   8.577   5.945 -2.1580 -0.5823  1.0793
   15MOL0     H 1960   7.280   8.704   5.796 -0.2204  2.3072 -1.8262
   15MOL0     H 1961   7.430   8.662   5.716 -0.0628  0.3792 -5.3547
   15MOL0     H 1962   7.149   8.635   5.609  1.1029 -3.6407  0.9411
   15MOL0     H 1963   7.237   8.786   5.610  0.7152 -0.7658  1.3939
   15MOL0     H 1964   7.350   8.721   5.412 -0.4776  1.0449  0.9390
   15MOL0     H 1965   7.414   8.572   5.488 -1.1609 -1.9376 -0.6878
   15MOL0     H 1966   7.190   8.467   5.468  3.2069 -1.3452  0.0081
   15MOL0     H 1967   7.148   8.613   5.355  1.9195  0.0068 -4.7015
   15MOL0     H 1968   7.348   8.395   5.320 -0.5223  0.4145  2.6507
   15MOL0     H 1969   7.189   8.408   5.236 -2.4591  2.7000 -0.2447
   15MOL0     H 1970   7.270   8.636   5.147  1.3705  0.0104 -1.8713
   15MOL0     H 1971   7.429   8.599   5.218  0.4249  2.0649 -1.6736
   15MOL0     H 1972   7.415   8.381   5.089 -0.9767  1.5636  2.7514
   15MOL0     H 1973   7.270   8.435   5.002 -0.0155 -2.2075  1.2962
   15MOL0     H 1974   7.460   8.495   4.852  0.6049 -1.6976  0.4565
   15MOL0     H 1975   7.533   8.588   4.982  0.7455 -2.0162  0.0718
   15MOL0     H 1976   7.163   8.554   4.832  0.3617  1.3018 -2.3429
   15MOL0     H 1977   7.017   8.823   4.714 -0.4701  1.2034  0.8053
   15MOL0     H 1978   6.960   8.709   4.838 -0.7394 -0.0908 -1.0514
   15MOL0     H 1979   6.969   8.889   5.017  0.4350 -0.9373  0.5197
   15MOL0     H 1980   6.857   8.932   4.885 -0.8035 -0.2713  1.0586
   15MOL0     H 1981   7.105   9.075   4.963 -1.3150  0.8706  0.4487
   15MOL0     H 1982   6.953   9.139   4.906  0.7688  0.8211 -1.3243
   15MOL0     H 1983   7.165   9.029   4.727 -0.4633 -2.1488  1.3387
   15MOL0     H 1984   7.109   9.189   4.743  0.4754 -0.5337  0.8990
   15MOL0     H 1985   6.904   9.276   4.537 -0.5387  2.0435 -1.5022
   15MOL0     H 1986   6.833   9.383   4.248 -1.9404 -2.0429  3.5265
   15MOL0     H 1987   6.900   9.461   4.379 -3.0163  1.0845 -1.7584
   15MOL0     H 1988   7.001   9.451   4.236 -1.2060  2.3674  0.3363
   15MOL0     H 1989   7.305   9.056   3.867  0.4404  3.0281 -2.3505
   15MOL0     H 1990   7.295   8.999   3.616 -0.2053 -0.7574  0.3639
   15MOL0     H 1991   7.241   9.038   3.386 -2.5733  2.4748 -2.2912
   15MOL0     H 1992   7.219   8.872   3.425  1.6133  0.7909  0.8116
   15MOL0     H 1993   7.022   8.893   3.228 -1.1118  3.2345 -1.4212
   15MOL0     H 1994   7.077   9.053   3.213  1.0464  0.4119  1.0500
   15MOL0     H 1995   7.204   8.786   3.136 -1.2802 -0.4889  0.5497
   15MOL0     H 1996   7.314   8.921   3.168 -0.5246  2.5979  0.2594
   15MOL0     H 1997   7.086   8.953   2.957 -0.2532 -2.7942 -3.5786
   15MOL0     H 1998   7.226   9.049   2.980 -1.1210 -0.5845 -1.2527
   15MOL0     H 1999   7.213   8.869   2.789 -1.7767  1.4620  0.4336
   15MOL0     H 2000   7.247   8.757   2.912 -0.3815  0.4148 -1.4543
   15MOL0     H 2001   7.433   8.935   2.978  0.2721 -2.1117  0.6339
   15MOL0     H 2002   7.460   8.821   2.837  1.3147  1.8728 -2.7512
   15MOL0     H 2003   7.418   9.119   2.844  2.0363  2.1171 -2.5519
   15MOL0     H 2004   7.340   9.029   2.708  0.6163  1.3029 -0.2298
   15MOL0     H 2005   7.538   9.113   2.640  0.7819  0.9136  1.6656
   15MOL0     H 2006   7.516   8.940   2.633  0.9972  0.5608 -0.5481
   15MOL0     H 2007   6.871   9.054   3.638  0.1200 -1.6702 -0.5476
   15MOL0     H 2008   6.888   9.079   3.884 -0.3958 -1.7464  0.8421
   15MOL0     H 2009   7.149   8.978   4.235 -0.9087 -0.5889 -0.7890
   15MOL0     H 2010   7.102   8.907   4.472  0.2084  0.2626 -0.9860
   15MOL0     H 2011   7.305   8.237   5.750 -0.3352 -1.2575  0.6361
   15MOL0     H 2012   7.466   8.090   5.876 -1.7871  0.6389 -2.1955
   15MOL0     H 2013   7.479   8.009   6.395 -0.1994 -2.0645  0.2426
   15MOL0     H 2014   7.601   7.894   6.567 -1.9571  2.7182 -0.2802
   15MOL0     H 2015   7.963   7.694   6.447 -0.4390  0.1401 -0.8787
   15MOL0     H 2016   8.033   7.851   6.524 -2.3120  0.6270 -1.0802
   15MOL0     H 2017   8.003   7.751   6.747  0.7754 -0.9028  0.6529
   15MOL0     H 2018   8.110   7.641   6.655 -0.2609 -0.2252  1.6691
   15MOL0     H 2019   7.823   7.587   6.698  0.1351  1.1115 -1.0427
   15MOL0     H 2020   7.948   7.515   6.796 -0.9024 -1.8093  0.4635
   15MOL0     H 2021   8.033   7.415   6.570 -0.8901 -3.1898 -0.4022
   15MOL0     H 2022   7.871   7.461   6.513 -0.0441  1.5623  0.2025
   15MOL0     H 2023   7.845   7.127   6.792 -2.1756  0.3738  0.3330
   15MOL0     H 2024   7.938   7.894   6.315  1.6415  2.4502  2.3017
   15MOL0     H 2025   7.832   8.046   6.154 -0.4050 -0.0425  0.4885
   16MOL0     O 2026   6.817   9.177   3.179  0.3349 -0.5179 -1.0899
   16MOL0     C 2027   6.840   9.297   3.163  0.5602  0.5917 -0.1686
   16MOL0     O 2028   6.897   9.353   3.056 -0.5661  0.5942 -0.5847
   16MOL0     C 2029   6.938   9.280   2.949  1.0487 -1.2064 -0.6464
   16MOL0     C 2030   6.868   9.161   2.913  1.5792 -0.1561  0.5583
   16MOL0     C 2031   6.901   9.083   2.797  0.5306 -0.3154  0.5820
   16MOL0     C 2032   6.999   9.134   2.704  0.6805 -0.3339  0.5709
   16MOL0     O 2033   7.005   9.091   2.570  0.0966  0.5735  0.1869
   16MOL0     C 2034   6.915   8.985   2.535 -0.4734  1.0102 -0.1631
   16MOL0     C 2035   6.957   8.932   2.397  0.0334  0.0583 -0.1425
   16MOL0     C 2036   7.098   8.881   2.397  0.0594  0.3155  0.0321
   16MOL0     C 2037   7.112   8.747   2.473  0.2706  0.2851  0.1224
   16MOL0     C 2038   7.239   8.675   2.425 -0.0051  0.2128 -0.2809
   16MOL0     C 2039   7.270   8.556   2.512 -0.4451  1.4173  0.0786
   16MOL0     C 2040   7.409   8.503   2.485  0.0327 -0.5940  0.4152
   16MOL0     C 2041   7.456   8.414   2.598 -0.7209 -0.0939 -0.2964
   16MOL0     N 2042   7.596   8.425   2.643 -0.4579 -0.6246 -0.5458
   16MOL0     C 2043   7.651   8.537   2.708  0.0460  0.0301 -0.8926
   16MOL0     C 2044   7.785   8.509   2.715 -0.2233  0.4124 -0.0047
   16MOL0     C 2045   7.899   8.598   2.778  0.1690 -0.8611  0.8850
   16MOL0     C 2046   7.944   8.553   2.920 -0.3941  0.7480  0.0069
   16MOL0     C 2047   7.960   8.406   2.949 -0.3444  1.3113  0.7963
   16MOL0     C 2048   8.084   8.352   2.885 -0.1100 -0.0140 -0.9922
   16MOL0     O 2049   8.197   8.426   2.933 -0.9521 -0.1872  0.1318
   16MOL0     C 2050   8.307   8.372   2.994  0.6937  0.4289 -0.5855
   16MOL0     C 2051   8.359   8.460   3.083 -1.2070 -0.2277 -0.3873
   16MOL0     C 2052   8.471   8.438   3.165  0.3655 -1.4652  0.0725
   16MOL0     C 2053   8.496   8.538   3.285  0.1360 -1.2585  0.2071
   16MOL0     C 2054   8.531   8.309   3.164 -0.0351 -0.7143  0.0912
   16MOL0     C 2055   8.646   8.265   3.258  0.0878 -0.7740 -0.3297
   16MOL0     O 2056   8.697   8.140   3.232  0.0488 -0.0567 -0.4845
   16MOL0     C 2057   8.780   8.079   3.326 -0.2732  0.0726 -0.4785
   16MOL0     C 2058   8.916   8.068   3.294 -0.4752 -0.1918  0.8413
   16MOL0     C 2059   8.994   7.986   3.375 -0.1111  0.0291 -0.3268
   16MOL0     C 2060   8.937   7.915   3.490  0.0767 -0.9620 -0.2337
   16MOL0     O 2061   9.017   7.838   3.570 -0.2504  0.6704  0.1579
   16MOL0     C 2062   9.110   7.747   3.507  0.0067  0.4878  0.0918
   16MOL0     C 2063   9.051   7.632   3.417  0.8834 -0.3948  0.3341
   16MOL0     C 2064   8.968   7.522   3.486 -0.1565 -0.9338  0.3717
   16MOL0     C 2065   9.051   7.427   3.564 -0.1254 -0.2519 -0.5718
   16MOL0     C 2066   8.979   7.384   3.688  0.2871  1.0859 -0.4986
   16MOL0     C 2067   9.046   7.266   3.760 -0.5424 -0.9661  0.5670
   16MOL0     C 2068   9.076   7.136   3.671 -0.5305 -0.3952  0.3116
   16MOL0     C 2069   9.095   7.015   3.753  0.5173  0.0295  0.4526
   16MOL0    Cl 2070   9.199   6.901   3.663  0.0940  0.2668  0.3843
   16MOL0     C 2071   8.812   7.947   3.530  0.2875 -1.0231 -0.8413
   16MOL0     C 2072   8.730   8.021   3.444  1.8316  0.2687 -0.0373
   16MOL0     O 2073   8.687   8.337   3.349 -0.4073  0.3232 -0.0392
   16MOL0     C 2074   8.475   8.222   3.067 -1.0710 -0.6358  0.3964
   16MOL0     C 2075   8.367   8.243   2.987 -0.1130 -0.2443  0.2938
   16MOL0     N 2076   7.807   8.375   2.673  0.2764 -0.0939 -0.5562
   16MOL0     N 2077   7.690   8.326   2.640 -0.3454 -0.4299 -0.6751
   16MOL0     C 2078   7.065   9.248   2.743 -0.0533 -0.9643  0.4878
   16MOL0     C 2079   7.040   9.318   2.864 -0.3304  0.4237 -0.7707
   16MOL0     C 2080   6.794   9.392   3.275  0.6439 -0.1874  0.5665
   16MOL0     C 2081   6.797   9.530   3.261 -0.2154  0.3649 -0.3204
   16MOL0     C 2082   6.731   9.608   3.361  0.5754  0.6722  0.8970
   16MOL0     C 2083   6.649   9.553   3.464 -0.8523  0.0868  0.2698
   16MOL0     O 2084   6.571   9.624   3.557 -0.5121 -0.4274 -0.1702
   16MOL0     C 2085   6.506   9.743   3.521  1.1925  0.2092  0.6089
   16MOL0     C 2086   6.392   9.703   3.435  0.2386  0.0821 -0.6705
   16MOL0     C 2087   6.280   9.801   3.427  0.0531  0.9853 -0.9244
   16MOL0     C 2088   6.237   9.870   3.552  0.8183 -0.9287 -0.4057
   16MOL0     C 2089   6.197   9.782   3.663 -0.0941  0.2701 -0.0363
   16MOL0     C 2090   6.187   9.696   3.748  0.6005  0.1438  0.3586
   16MOL0     C 2091   6.658   9.414   3.475  1.3220  0.2970  0.5960
   16MOL0     C 2092   6.719   9.334   3.379 -0.1585  0.2182 -0.1144
   16MOL0     H 2093   6.770   9.143   2.957  1.4536 -1.6855 -0.2660
   16MOL0     H 2094   6.816   9.019   2.777 -2.2860  2.7591  1.7287
   16MOL0     H 2095   6.917   8.891   2.592  1.3620  0.9490 -0.2611
   16MOL0     H 2096   6.814   9.026   2.532 -0.5370  0.9278  0.6844
   16MOL0     H 2097   6.884   8.860   2.359  0.1356  0.7927 -1.7979
   16MOL0     H 2098   6.951   9.017   2.330  0.5661  1.5612  1.6178
   16MOL0     H 2099   7.122   8.856   2.293  0.3350  0.6517  0.0140
   16MOL0     H 2100   7.172   8.955   2.428 -0.7271  1.2189 -0.1989
   16MOL0     H 2101   7.111   8.773   2.579 -0.5234  1.6004 -0.1837
   16MOL0     H 2102   7.017   8.699   2.445  1.3210 -0.8429 -1.7041
   16MOL0     H 2103   7.234   8.639   2.322  1.7768  1.0916 -0.7016
   16MOL0     H 2104   7.324   8.742   2.438 -0.8335  1.2817 -0.2219
   16MOL0     H 2105   7.258   8.579   2.619  2.3045 -0.3395  0.8952
   16MOL0     H 2106   7.202   8.475   2.482  0.4886  1.2653 -1.7864
   16MOL0     H 2107   7.395   8.432   2.403  1.7398 -2.4033  1.5830
   16MOL0     H 2108   7.486   8.573   2.451  0.3254 -0.8791  0.4825
   16MOL0     H 2109   7.440   8.313   2.561 -0.1817  0.6994 -2.8780
   16MOL0     H 2110   7.402   8.441   2.690 -1.5242  2.6293 -1.4561
   16MOL0     H 2111   7.611   8.634   2.731 -1.0965 -0.4664 -0.7400
   16MOL0     H 2112   7.989   8.586   2.717 -2.3196  0.7907 -3.5639
   16MOL0     H 2113   7.880   8.706   2.770  4.0055 -0.1684 -1.4838
   16MOL0     H 2114   7.865   8.559   2.995 -0.3372 -4.3269  0.8167
   16MOL0     H 2115   8.030   8.612   2.952 -0.1978  0.7184 -0.4526
   16MOL0     H 2116   7.875   8.349   2.912 -2.4946  5.9576 -2.4578
   16MOL0     H 2117   7.973   8.403   3.058  3.1178  5.6284  0.8029
   16MOL0     H 2118   8.071   8.360   2.777 -2.1082 -0.5897 -0.8312
   16MOL0     H 2119   8.104   8.247   2.907 -0.8250  0.2902  1.4525
   16MOL0     H 2120   8.307   8.555   3.091  3.4768  2.5835  0.7056
   16MOL0     H 2121   8.487   8.506   3.389 -1.3049  3.6295  1.8771
   16MOL0     H 2122   8.591   8.588   3.263 -0.4014 -0.3151 -0.0636
   16MOL0     H 2123   8.420   8.617   3.289  1.8411  0.3615  2.5515
   16MOL0     H 2124   8.951   8.121   3.206  1.3211 -1.3449  0.7994
   16MOL0     H 2125   9.096   7.968   3.344 -0.5416  1.8009 -3.1220
   16MOL0     H 2126   9.183   7.803   3.449 -1.6521  5.4112  2.2530
   16MOL0     H 2127   9.177   7.705   3.583  2.2459  1.2089 -1.3956
   16MOL0     H 2128   8.979   7.674   3.345  1.0759 -0.0430  0.3438
   16MOL0     H 2129   9.122   7.588   3.347  2.6733  0.8981  1.2651
   16MOL0     H 2130   8.920   7.461   3.409  0.2582 -1.0802  0.2280
   16MOL0     H 2131   8.889   7.570   3.545 -0.0051  0.1467 -0.2684
   16MOL0     H 2132   9.073   7.335   3.508  0.5835 -2.6223  3.1647
   16MOL0     H 2133   9.149   7.473   3.582 -0.0841  0.7371 -2.9825
   16MOL0     H 2134   8.880   7.347   3.657  1.0253 -0.3975 -1.1624
   16MOL0     H 2135   8.967   7.461   3.765 -0.7970  0.0161  0.4479
   16MOL0     H 2136   9.144   7.304   3.788 -1.0942 -1.7365  4.0872
   16MOL0     H 2137   8.989   7.236   3.849  2.0334  0.6308  2.8962
   16MOL0     H 2138   9.166   7.141   3.609 -0.5014  0.6888  0.4150
   16MOL0     H 2139   8.993   7.135   3.600 -1.6688  2.6807  1.4215
   16MOL0     H 2140   8.998   6.974   3.785  1.4146 -1.6405  1.1337
   16MOL0     H 2141   9.150   7.050   3.840 -1.5469  2.0213  1.0670
   16MOL0     H 2142   8.774   7.898   3.619  0.3337 -0.1297 -0.3160
   16MOL0     H 2143   8.626   8.039   3.472  2.9456  2.0468  3.6016
   16MOL0     H 2144   8.505   8.119   3.049 -0.7967 -0.3976 -0.5639
   16MOL0     H 2145   8.337   8.159   2.926  1.4977  0.1945 -1.1767
   16MOL0     H 2146   7.140   9.290   2.677 -2.3682  0.8583 -1.1554
   16MOL0     H 2147   7.110   9.397   2.890 -0.2326 -0.0421  0.4924
   16MOL0     H 2148   6.849   9.578   3.178  1.5864 -0.4586  0.2715
   16MOL0     H 2149   6.741   9.715   3.344 -1.3780  1.1020  2.0768
   16MOL0     H 2150   6.473   9.783   3.617  0.2390 -0.3644  0.5320
   16MOL0     H 2151   6.577   9.808   3.469 -0.8267  0.1972 -2.4262
   16MOL0     H 2152   6.349   9.607   3.466  0.3156 -0.0332 -0.9144
   16MOL0     H 2153   6.432   9.673   3.337 -3.1519 -3.2019 -1.3106
   16MOL0     H 2154   6.193   9.743   3.393  1.1605 -0.5585 -1.2731
   16MOL0     H 2155   6.289   9.872   3.344  1.0754  0.2720 -1.4487
   16MOL0     H 2156   6.153   9.939   3.536 -1.6340 -3.2030  1.7585
   16MOL0     H 2157   6.314   9.936   3.595 -0.6574  1.3094 -1.0080
   16MOL0     H 2158   6.180   9.603   3.803 -3.2841 -3.1960 -4.8350
   16MOL0     H 2159   6.611   9.364   3.560  0.3035  2.9033  1.6677
   16MOL0     H 2160   6.707   9.226   3.377  0.8885  0.0962 -0.4302
   17MOL0     O 2161   9.995   1.458   6.463  0.2356  0.5780 -0.1477
   17MOL0     C 2162   9.888   1.400   6.447 -0.2002  0.1184  0.0566
   17MOL0     O 2163   9.874   1.294   6.368  0.2468 -0.5006  0.3160
   17MOL0     C 2164   9.979   1.212   6.350  0.4125 -0.9250 -0.2367
   17MOL0     C 2165  10.076   1.177   6.447  0.0505  0.5918  0.1742
   17MOL0     C 2166  10.172   1.080   6.416  0.8344  0.8589  1.0904
   17MOL0     C 2167  10.164   1.000   6.301 -0.7209  0.2317 -0.2819
   17MOL0     O 2168  10.272   0.916   6.276  0.1570 -0.0704 -0.0448
   17MOL0     C 2169  10.393   0.972   6.225 -0.0529 -0.4208  0.3605
   17MOL0     C 2170  10.504   0.866   6.211  0.0853  0.2754 -0.5876
   17MOL0     C 2171  10.636   0.927   6.161  0.5624  1.0505  0.3473
   17MOL0     C 2172  10.753   0.826   6.170  0.3357 -0.0485  0.1575
   17MOL0     C 2173  10.872   0.895   6.110  0.0213 -0.1315  0.5675
   17MOL0     C 2174  10.986   0.787   6.111 -0.1591  0.0029  0.3165
   17MOL0     C 2175  11.126   0.818   6.061  0.2101  0.0951 -0.0740
   17MOL0     C 2176  11.123   0.844   5.907 -0.6690 -0.4260 -0.1844
   17MOL0     N 2177  11.258   0.894   5.857  0.4569  0.3777 -0.0646
   17MOL0     C 2178  11.368   0.823   5.886  0.4277 -0.1789 -0.4442
   17MOL0     C 2179  11.465   0.877   5.808  1.1642  0.1610  0.4453
   17MOL0     C 2180  11.610   0.837   5.803 -0.4581  0.5843  0.1643
   17MOL0     C 2181  11.686   0.917   5.912 -0.3130  0.5244 -0.1314
   17MOL0     C 2182  11.674   0.825   6.044 -0.2492 -0.0469  1.2185
   17MOL0     C 2183  11.737   0.905   6.159  0.1463  1.1118 -0.1225
   17MOL0     O 2184  11.645   1.013   6.200  0.1040  0.3996 -0.6275
   17MOL0     C 2185  11.562   0.956   6.295 -0.2512  0.4445  0.2450
   17MOL0     C 2186  11.608   0.929   6.424 -0.6821 -0.0886 -0.0019
   17MOL0     C 2187  11.530   0.874   6.523  0.3341  0.2088 -0.4590
   17MOL0     C 2188  11.592   0.859   6.652 -0.3751 -1.1246  0.4649
   17MOL0     C 2189  11.392   0.841   6.495 -0.4068  0.3401  0.5581
   17MOL0     C 2190  11.298   0.793   6.595 -0.2054  0.0484 -0.5428
   17MOL0     O 2191  11.334   0.786   6.734  0.0066 -0.4347  0.7222
   17MOL0     C 2192  11.246   0.748   6.830  0.2670  0.4438  0.6190
   17MOL0     C 2193  11.103   0.736   6.822  0.0632 -0.7129  0.3444
   17MOL0     C 2194  11.036   0.704   6.940  0.2695 -0.6578 -0.5273
   17MOL0     C 2195  11.099   0.699   7.061  0.2843  0.3202  0.2558
   17MOL0     O 2196  11.042   0.673   7.184 -0.2391 -0.4073 -0.0703
   17MOL0     C 2197  10.928   0.763   7.213  0.2135 -0.4558 -0.0113
   17MOL0     C 2198  10.926   0.769   7.367  0.7983  0.6930  0.4668
   17MOL0     C 2199  10.798   0.836   7.417  0.0573 -0.3371  0.3488
   17MOL0     C 2200  10.802   0.990   7.380  0.6038 -0.8060 -0.0893
   17MOL0     C 2201  10.666   1.052   7.408  0.0258 -0.4110 -0.2671
   17MOL0     C 2202  10.669   1.204   7.382 -0.2787 -0.5738  0.3879
   17MOL0     C 2203  10.551   1.289   7.439 -0.7173  0.0131 -0.2939
   17MOL0     C 2204  10.433   1.257   7.363  0.1209 -0.4453 -0.7385
   17MOL0    Cl 2205  10.328   1.397   7.349  0.3545 -0.5887 -0.1522
   17MOL0     C 2206  11.240   0.712   7.064 -0.5103  0.4898  0.1216
   17MOL0     C 2207  11.309   0.728   6.952 -0.4206  0.1348  1.4166
   17MOL0     O 2208  11.187   0.762   6.550 -0.0737  0.7154  0.2714
   17MOL0     C 2209  11.345   0.862   6.361  0.1016 -0.8520  0.6205
   17MOL0     C 2210  11.432   0.916   6.269 -0.0647 -0.3359  0.4440
   17MOL0     N 2211  11.414   0.978   5.741 -0.3622  0.0322  0.2788
   17MOL0     N 2212  11.285   0.991   5.764 -0.7464  0.6803 -0.5870
   17MOL0     C 2213  10.068   1.036   6.201 -0.6925 -0.0626 -0.9542
   17MOL0     C 2214   9.979   1.136   6.230  0.0240  0.7280 -0.8236
   17MOL0     C 2215   9.773   1.478   6.495 -0.2811 -0.4731  0.2420
   17MOL0     C 2216   9.647   1.418   6.478  0.6377  0.9926 -0.9115
   17MOL0     C 2217   9.539   1.492   6.521  0.0956 -0.1491 -0.2852
   17MOL0     C 2218   9.555   1.611   6.587 -0.5237  0.3819 -0.2000
   17MOL0     O 2219   9.446   1.657   6.653 -0.2366 -0.5395  0.7687
   17MOL0     C 2220   9.460   1.712   6.784  0.5429 -0.3558  0.6129
   17MOL0     C 2221   9.341   1.663   6.853 -0.3038 -0.2501 -0.0124
   17MOL0     C 2222   9.349   1.695   7.004  0.0060  0.2351 -0.7924
   17MOL0     C 2223   9.352   1.852   7.033  0.7659  0.4596  0.5474
   17MOL0     C 2224   9.227   1.917   6.993 -0.0546  0.6364 -0.1494
   17MOL0     C 2225   9.125   1.982   6.982 -0.2987 -0.5679  0.2412
   17MOL0     C 2226   9.678   1.667   6.593  0.5294  0.2817 -0.0631
   17MOL0     C 2227   9.783   1.612   6.536 -0.7837 -0.0093  0.4451
   17MOL0     H 2228  10.076   1.228   6.542 -0.8845 -1.7047  1.4761
   17MOL0     H 2229  10.251   1.060   6.488  1.0892 -0.9588  0.3634
   17MOL0     H 2230  10.367   1.020   6.131 -0.9613 -0.9847  0.3149
   17MOL0     H 2231  10.441   1.052   6.283  1.8749 -0.3840 -1.1814
   17MOL0     H 2232  10.532   0.833   6.312  1.6398  0.6447 -0.8801
   17MOL0     H 2233  10.471   0.780   6.152 -0.7713 -1.3778  2.1191
   17MOL0     H 2234  10.632   0.956   6.056  1.5939  0.9230  0.2588
   17MOL0     H 2235  10.660   1.015   6.222  0.1953  0.2166  1.7576
   17MOL0     H 2236  10.774   0.802   6.275 -0.1015  1.4918  0.6269
   17MOL0     H 2237  10.739   0.729   6.122 -2.4492  0.3574 -0.0050
   17MOL0     H 2238  10.846   0.922   6.007  3.6314 -1.3994 -0.8795
   17MOL0     H 2239  10.903   0.985   6.163 -2.2996  0.8747  0.3024
   17MOL0     H 2240  10.994   0.764   6.218 -1.2387  1.0338  0.6354
   17MOL0     H 2241  10.962   0.688   6.071  0.6252 -0.1818  0.2923
   17MOL0     H 2242  11.165   0.900   6.121  1.9235  0.2662 -1.3580
   17MOL0     H 2243  11.196   0.737   6.084  0.8007  0.8522  0.8437
   17MOL0     H 2244  11.055   0.926   5.881  0.0565  0.7384  1.4372
   17MOL0     H 2245  11.083   0.761   5.848 -3.2985  0.2105  0.5260
   17MOL0     H 2246  11.374   0.746   5.962 -2.7892  1.5411  1.8060
   17MOL0     H 2247  11.614   0.728   5.807  0.4574  0.5834 -0.4286
   17MOL0     H 2248  11.654   0.861   5.706  0.9890 -1.3279  0.2890
   17MOL0     H 2249  11.641   1.013   5.939 -1.3450 -0.5466  2.1013
   17MOL0     H 2250  11.789   0.933   5.878  0.7167 -1.2469  1.9509
   17MOL0     H 2251  11.730   0.733   6.027  1.3741  0.5123  3.2394
   17MOL0     H 2252  11.572   0.789   6.062 -0.8147  1.3568  0.9891
   17MOL0     H 2253  11.830   0.950   6.121  0.3575  1.5015  0.8258
   17MOL0     H 2254  11.766   0.832   6.235 -0.8565 -0.7909 -1.4874
   17MOL0     H 2255  11.705   0.969   6.453 -0.2419 -1.2281  0.1222
   17MOL0     H 2256  11.595   0.757   6.691  2.9766 -0.3093  2.7906
   17MOL0     H 2257  11.697   0.888   6.646 -1.2593  2.1490 -1.4207
   17MOL0     H 2258  11.553   0.924   6.731  2.6496 -1.4068  2.3804
   17MOL0     H 2259  11.051   0.779   6.738 -0.4082 -0.4123  0.7843
   17MOL0     H 2260  10.931   0.678   6.946  1.1119 -4.4217  0.3197
   17MOL0     H 2261  10.955   0.856   7.162 -0.7731 -0.7958 -1.2123
   17MOL0     H 2262  10.835   0.726   7.168  0.9102 -0.3813 -1.6032
   17MOL0     H 2263  10.939   0.669   7.410  0.2077  0.4043 -0.0146
   17MOL0     H 2264  11.008   0.828   7.407  1.6330  0.5688 -0.9971
   17MOL0     H 2265  10.800   0.823   7.526  0.1717 -0.6135  0.3144
   17MOL0     H 2266  10.702   0.799   7.379  0.5717  0.5140 -1.9323
   17MOL0     H 2267  10.881   1.040   7.437  0.3480  0.6835 -0.9765
   17MOL0     H 2268  10.810   0.992   7.271  0.9299  0.9973 -0.0647
   17MOL0     H 2269  10.639   1.039   7.513 -0.7232  1.5862 -0.1792
   17MOL0     H 2270  10.586   1.019   7.341 -2.0753 -0.8827  2.3411
   17MOL0     H 2271  10.771   1.235   7.409 -0.2877 -2.1536  2.3627
   17MOL0     H 2272  10.672   1.234   7.276 -1.9644  2.1530  1.0025
   17MOL0     H 2273  10.581   1.393   7.424  1.8703 -0.7711 -1.2067
   17MOL0     H 2274  10.533   1.266   7.544  0.1804 -4.0868 -0.8663
   17MOL0     H 2275  10.374   1.174   7.402  0.3748 -1.0759 -1.6566
   17MOL0     H 2276  10.451   1.220   7.262 -2.2212 -0.4381 -1.2042
   17MOL0     H 2277  11.299   0.706   7.155 -1.1764  2.4154  0.7161
   17MOL0     H 2278  11.417   0.730   6.958 -0.1774 -3.5510  0.6536
   17MOL0     H 2279  11.248   0.841   6.318 -0.2037  0.8766  0.4183
   17MOL0     H 2280  11.394   0.933   6.169 -1.1035  0.1323  0.9075
   17MOL0     H 2281  10.050   0.968   6.119 -2.4713  0.1575 -0.7722
   17MOL0     H 2282   9.905   1.153   6.152  3.3013  1.7793 -3.9858
   17MOL0     H 2283   9.629   1.316   6.446  0.4384  1.3877 -2.1003
   17MOL0     H 2284   9.441   1.445   6.524  0.7236 -1.5610 -1.1136
   17MOL0     H 2285   9.552   1.671   6.827  1.2531  0.7258  0.1699
   17MOL0     H 2286   9.460   1.821   6.780 -0.1017 -0.3897 -1.6764
   17MOL0     H 2287   9.349   1.554   6.842  0.8808 -0.1733  0.0607
   17MOL0     H 2288   9.240   1.688   6.817 -2.4725 -2.7593  3.5951
   17MOL0     H 2289   9.443   1.648   7.035  1.6504  4.1769  0.8566
   17MOL0     H 2290   9.263   1.657   7.060 -0.5581 -2.2272 -3.0833
   17MOL0     H 2291   9.441   1.892   6.982  0.2555  0.5802 -0.2543
   17MOL0     H 2292   9.354   1.884   7.138 -1.1671 -2.3206  1.5540
   17MOL0     H 2293   9.046   2.053   6.978  0.7359  0.7584  1.8884
   17MOL0     H 2294   9.683   1.759   6.650  0.3729 -0.8770  1.8794
   17MOL0     H 2295   9.881   1.658   6.540 -0.2147 -1.1154 -0.0838
   18MOL0     O 2296  10.485   9.320   8.692 -0.0367  0.3647 -0.7689
   18MOL0     C 2297  10.544   9.398   8.768 -0.1442  0.1408 -0.5580
   18MOL0     O 2298  10.674   9.383   8.811  0.8851  0.2630  0.4660
   18MOL0     C 2299  10.740   9.264   8.803  0.6045  0.4123 -0.0737
   18MOL0     C 2300  10.809   9.230   8.920  0.5076  0.1202  0.0018
   18MOL0     C 2301  10.883   9.117   8.912  0.2642 -0.1925  0.1477
   18MOL0     C 2302  10.878   9.023   8.811  0.2568 -0.5832 -0.9632
   18MOL0     O 2303  10.950   8.902   8.818  0.0618  0.1311 -0.6799
   18MOL0     C 2304  10.888   8.777   8.780  0.3457  0.5523  0.8210
   18MOL0     C 2305  10.966   8.649   8.827  0.1253  0.2740  0.2625
   18MOL0     C 2306  10.986   8.631   8.977  0.6562 -0.4981  0.3322
   18MOL0     C 2307  10.856   8.639   9.065  0.3756 -0.0509  0.3891
   18MOL0     C 2308  10.905   8.616   9.214  0.4970  0.6183 -0.2872
   18MOL0     C 2309  10.789   8.623   9.313  0.1973  1.0353  0.2998
   18MOL0     C 2310  10.662   8.545   9.272  0.1495 -0.0508 -0.4966
   18MOL0     C 2311  10.571   8.530   9.401 -0.4939  0.1482 -1.4376
   18MOL0     N 2312  10.528   8.656   9.465 -0.3912  0.2899  0.0407
   18MOL0     C 2313  10.510   8.784   9.417  0.3736  0.1092  0.1484
   18MOL0     C 2314  10.461   8.865   9.518 -0.4215  0.9055 -0.6309
   18MOL0     C 2315  10.428   9.011   9.520  0.2193  0.4689  0.5386
   18MOL0     C 2316  10.279   9.024   9.504 -0.9087  0.0536  0.4762
   18MOL0     C 2317  10.224   9.166   9.527  1.1291  0.1716  1.3158
   18MOL0     C 2318  10.187   9.213   9.669 -0.8238  0.4477 -0.4638
   18MOL0     O 2319  10.294   9.182   9.762  0.4167 -0.2639 -1.3631
   18MOL0     C 2320  10.338   9.294   9.832 -0.4993  0.1745 -0.6640
   18MOL0     C 2321  10.250   9.369   9.901  0.0671  0.2251  0.4606
   18MOL0     C 2322  10.285   9.470   9.990  0.3026  0.4827 -0.6086
   18MOL0     C 2323  10.172   9.543  10.067 -0.9000 -0.9599 -0.0865
   18MOL0     C 2324  10.423   9.500  10.007  0.0023  0.1303  0.6063
   18MOL0     C 2325  10.478   9.609  10.102  0.0026 -0.3735 -0.6831
   18MOL0     O 2326  10.608   9.601  10.149 -0.1348  0.4943  0.8012
   18MOL0     C 2327  10.647   9.647  10.273  0.8677 -0.1966 -0.0646
   18MOL0     C 2328  10.556   9.680  10.370 -0.2281 -0.3935  0.1665
   18MOL0     C 2329  10.605   9.729  10.502  1.4516  0.1965 -0.1267
   18MOL0     C 2330  10.743   9.744  10.524  0.6426 -0.4983  0.5620
   18MOL0     O 2331  10.800   9.791  10.645 -0.3132  0.1250  0.1183
   18MOL0     C 2332  10.737   9.916  10.679 -1.4763 -0.6662  0.2379
   18MOL0     C 2333  10.816   9.990  10.794  0.2975 -0.5694 -0.2759
   18MOL0     C 2334  10.749  10.116  10.823 -0.4736 -0.8294 -0.6242
   18MOL0     C 2335  10.732  10.208  10.696  0.0433  1.2497 -0.2368
   18MOL0     C 2336  10.702  10.351  10.737  0.7708  0.0525 -0.6514
   18MOL0     C 2337  10.573  10.356  10.819  0.5651  0.3343  0.2135
   18MOL0     C 2338  10.571  10.495  10.882  0.0901  0.4512 -0.4532
   18MOL0     C 2339  10.448  10.518  10.978  0.0109 -0.6245 -0.4810
   18MOL0    Cl 2340  10.293  10.477  10.891 -0.6705  0.3149 -0.0148
   18MOL0     C 2341  10.830   9.711  10.425 -0.6556  0.4266  0.5428
   18MOL0     C 2342  10.781   9.667  10.296  0.5155 -0.1701 -0.5855
   18MOL0     O 2343  10.407   9.704  10.135 -0.1333  0.0809  0.7087
   18MOL0     C 2344  10.515   9.439   9.918 -0.3453  0.5316  0.0813
   18MOL0     C 2345  10.476   9.330   9.833  0.7306  0.0524  0.6470
   18MOL0     N 2346  10.438   8.775   9.622  0.2738  0.2925  0.1853
   18MOL0     N 2347  10.481   8.657   9.597 -0.9507  0.4967  0.3928
   18MOL0     C 2348  10.808   9.058   8.696  0.9624  0.3468 -0.5986
   18MOL0     C 2349  10.745   9.183   8.690  0.1260  0.7071  0.5351
   18MOL0     C 2350  10.477   9.522   8.803  0.3456 -0.4796 -0.2486
   18MOL0     C 2351  10.548   9.635   8.833 -0.2321 -0.2131 -0.1685
   18MOL0     C 2352  10.487   9.751   8.875 -0.3250  0.5494  0.6347
   18MOL0     C 2353  10.349   9.748   8.885  0.3105 -0.1016 -0.2102
   18MOL0     O 2354  10.286   9.859   8.935  0.0051 -0.2624  0.0273
   18MOL0     C 2355  10.323   9.937   9.053 -1.0888  0.2037 -0.4112
   18MOL0     C 2356  10.202   9.977   9.139 -0.6117  0.3949 -0.2913
   18MOL0     C 2357  10.241  10.058   9.261  0.8620 -0.3346 -0.7062
   18MOL0     C 2358  10.126  10.069   9.361  0.7227  0.8218  0.8073
   18MOL0     C 2359  10.009  10.137   9.301  0.2030  0.6901 -0.4350
   18MOL0     C 2360   9.905  10.194   9.281  0.5623  0.7555  0.2826
   18MOL0     C 2361  10.273   9.647   8.847  0.2421  0.3286 -0.1913
   18MOL0     C 2362  10.335   9.524   8.807  0.2996  0.1823 -0.2999
   18MOL0     H 2363  10.828   9.306   8.995  1.0238  0.5704 -0.5722
   18MOL0     H 2364  10.957   9.089   8.986  1.1295 -5.3841 -2.2332
   18MOL0     H 2365  10.788   8.786   8.822 -0.7327 -1.0823 -1.1724
   18MOL0     H 2366  10.863   8.763   8.674 -0.6778 -2.2299  1.3417
   18MOL0     H 2367  10.916   8.561   8.785 -0.2708  0.3516  0.5666
   18MOL0     H 2368  11.066   8.654   8.785 -0.3607 -0.8191 -1.0877
   18MOL0     H 2369  11.027   8.531   8.995 -2.3890 -1.8518  0.3851
   18MOL0     H 2370  11.057   8.709   9.006  0.3459 -0.0361 -0.1289
   18MOL0     H 2371  10.816   8.740   9.055 -0.7793 -0.6249 -1.1898
   18MOL0     H 2372  10.782   8.567   9.028 -1.2875  1.2186  1.1424
   18MOL0     H 2373  10.954   8.521   9.236  0.0303  0.2238 -0.9466
   18MOL0     H 2374  10.974   8.697   9.240 -0.1535  1.2245 -0.4068
   18MOL0     H 2375  10.824   8.603   9.415 -0.4782 -1.0188  0.1671
   18MOL0     H 2376  10.745   8.723   9.317 -5.6755 -1.2269  1.2997
   18MOL0     H 2377  10.603   8.590   9.192 -3.1211  2.2228  2.8135
   18MOL0     H 2378  10.689   8.442   9.249  0.0420 -0.4040  0.8390
   18MOL0     H 2379  10.627   8.468   9.472 -0.5038  0.9737 -0.6798
   18MOL0     H 2380  10.478   8.476   9.386 -0.5031 -0.4716  0.4998
   18MOL0     H 2381  10.524   8.797   9.311 -3.0745  0.2516 -0.4197
   18MOL0     H 2382  10.450   9.050   9.620 -0.7949  1.8624  0.2576
   18MOL0     H 2383  10.484   9.072   9.448  3.6282  0.4138  2.8927
   18MOL0     H 2384  10.235   8.963   9.583  1.7046 -1.0402  1.2103
   18MOL0     H 2385  10.256   8.976   9.408 -0.8247  0.6466  0.1547
   18MOL0     H 2386  10.132   9.167   9.469 -0.0033 -3.3400  2.7663
   18MOL0     H 2387  10.295   9.239   9.487  0.6813  1.3606  2.6080
   18MOL0     H 2388  10.097   9.156   9.693  0.3336 -1.1897  0.1944
   18MOL0     H 2389  10.150   9.316   9.669  4.0105  2.4516 -0.3696
   18MOL0     H 2390  10.146   9.340   9.897 -0.2806  1.5176 -0.1053
   18MOL0     H 2391  10.074   9.497  10.055 -1.0010 -0.2204 -2.5739
   18MOL0     H 2392  10.196   9.550  10.174 -1.6808 -0.1243  0.0430
   18MOL0     H 2393  10.177   9.646  10.032  2.8186 -0.8464  0.3409
   18MOL0     H 2394  10.448   9.680  10.357 -0.0632  0.5613 -1.4091
   18MOL0     H 2395  10.533   9.744  10.582  0.9307  1.1310 -0.7524
   18MOL0     H 2396  10.729   9.974  10.587 -0.8940 -3.3812 -1.6282
   18MOL0     H 2397  10.633   9.896  10.706 -1.8621 -0.5556 -1.1142
   18MOL0     H 2398  10.807   9.940  10.892 -2.2077 -2.6127 -1.4269
   18MOL0     H 2399  10.924  10.002  10.786  0.2458  2.8273  1.9426
   18MOL0     H 2400  10.823  10.173  10.879  1.6976 -2.5595 -1.5895
   18MOL0     H 2401  10.661  10.099  10.886  1.2295 -2.4203  1.4973
   18MOL0     H 2402  10.820  10.203  10.632 -0.7472 -1.2253 -1.2580
   18MOL0     H 2403  10.643  10.171  10.645  1.2029  0.6703 -1.9174
   18MOL0     H 2404  10.709  10.411  10.646 -0.7450  4.1141  1.6644
   18MOL0     H 2405  10.780  10.396  10.799  1.6006 -1.2326 -0.7342
   18MOL0     H 2406  10.499  10.341  10.739  0.6747  1.4853 -0.1223
   18MOL0     H 2407  10.557  10.277  10.892 -0.4414 -0.8139 -1.1814
   18MOL0     H 2408  10.570  10.574  10.806 -0.9177  0.7977 -0.0864
   18MOL0     H 2409  10.664  10.506  10.940 -0.1409 -0.9930  0.2387
   18MOL0     H 2410  10.437  10.617  11.025  2.3666 -1.2094  1.4983
   18MOL0     H 2411  10.449  10.441  11.055 -1.3075 -1.2997 -1.1121
   18MOL0     H 2412  10.936   9.730  10.417 -0.4929 -0.7935 -0.4865
   18MOL0     H 2413  10.841   9.653  10.207 -0.1443 -3.2073 -0.6584
   18MOL0     H 2414  10.621   9.464   9.912 -0.2604 -0.1243 -1.7368
   18MOL0     H 2415  10.543   9.263   9.778  0.1472 -0.0919  0.0932
   18MOL0     H 2416  10.810   8.990   8.611  3.2318  0.3060 -0.5665
   18MOL0     H 2417  10.689   9.206   8.601 -0.7069 -2.1921  0.2138
   18MOL0     H 2418  10.656   9.637   8.819 -0.1291  2.4507  0.3863
   18MOL0     H 2419  10.548   9.840   8.887  2.0101 -1.3022  4.8130
   18MOL0     H 2420  10.398   9.886   9.113  0.3732  1.8568 -0.7608
   18MOL0     H 2421  10.374  10.024   9.011 -3.6035  2.4601  0.8965
   18MOL0     H 2422  10.149   9.883   9.156  2.0280 -0.9454  1.1834
   18MOL0     H 2423  10.134  10.035   9.075 -0.5261  0.5500 -0.2425
   18MOL0     H 2424  10.286  10.149   9.221 -0.7857  0.6941 -0.3350
   18MOL0     H 2425  10.308  10.004   9.328 -0.1368  0.8736  1.3778
   18MOL0     H 2426  10.158  10.131   9.446 -1.9387  2.2180  0.8967
   18MOL0     H 2427  10.089   9.973   9.399  2.6229  0.2501  1.3767
   18MOL0     H 2428   9.811  10.243   9.266  1.8793  4.6517  3.1989
   18MOL0     H 2429  10.166   9.633   8.858  0.4745 -1.2883  0.4237
   18MOL0     H 2430  10.276   9.435   8.791  0.4362 -0.6121  3.0335
   19MOL0     O 2431   3.745   6.742   1.038 -0.9144  0.2065 -0.4073
   19MOL0     C 2432   3.779   6.789   0.926  0.1923  0.7714  0.1350
   19MOL0     O 2433   3.712   6.887   0.865  0.1470 -0.4106  0.0847
   19MOL0     C 2434   3.613   6.954   0.934 -0.9338  0.5656 -0.6142
   19MOL0     C 2435   3.478   6.948   0.882 -1.1361 -0.0147  0.9787
   19MOL0     C 2436   3.385   7.010   0.959  0.4106 -0.1902  0.3620
   19MOL0     C 2437   3.414   7.088   1.078 -0.2026  0.2031 -0.4491
   19MOL0     O 2438   3.311   7.165   1.120  0.0953 -0.6245 -0.3624
   19MOL0     C 2439   3.321   7.246   1.237  0.4136 -0.7362  0.3669
   19MOL0     C 2440   3.318   7.158   1.365 -0.6250  1.0098 -0.2512
   19MOL0     C 2441   3.195   7.060   1.367 -0.5222  0.5457  0.3971
   19MOL0     C 2442   3.096   7.076   1.485 -0.1030  0.2005  0.1212
   19MOL0     C 2443   3.012   6.942   1.500  0.3057 -0.2766  0.0284
   19MOL0     C 2444   2.944   6.954   1.644 -0.8056  0.1757  0.4242
   19MOL0     C 2445   2.855   6.843   1.681  0.1151  0.9889 -0.1371
   19MOL0     C 2446   2.712   6.867   1.617  0.3915  0.3250  0.1281
   19MOL0     N 2447   2.610   6.762   1.639  0.7193 -0.2308 -0.4563
   19MOL0     C 2448   2.478   6.789   1.614 -0.6919  0.5621 -0.2925
   19MOL0     C 2449   2.418   6.673   1.647  0.0146  0.4528  0.0883
   19MOL0     C 2450   2.273   6.659   1.670 -0.7637  0.0015  0.0890
   19MOL0     C 2451   2.190   6.631   1.558 -0.2571 -0.2026  1.5744
   19MOL0     C 2452   2.042   6.617   1.599  0.9763 -0.4840 -0.1971
   19MOL0     C 2453   1.985   6.746   1.657 -0.4875 -0.2103  0.3845
   19MOL0     O 2454   1.844   6.735   1.644  0.4518 -0.2129 -0.4961
   19MOL0     C 2455   1.773   6.688   1.755  0.0783 -0.4786 -0.4347
   19MOL0     C 2456   1.756   6.554   1.792 -0.6529 -0.6050  0.3133
   19MOL0     C 2457   1.678   6.522   1.901  0.3443 -0.4796 -0.0197
   19MOL0     C 2458   1.678   6.374   1.940 -0.3983 -1.4244  0.4918
   19MOL0     C 2459   1.591   6.616   1.972 -0.1730  0.7574 -0.5395
   19MOL0     C 2460   1.503   6.601   2.083  0.4889  0.8191  0.4785
   19MOL0     O 2461   1.443   6.711   2.133  0.0365 -0.3683 -0.2793
   19MOL0     C 2462   1.335   6.697   2.224 -0.6596 -0.3715  0.0821
   19MOL0     C 2463   1.343   6.757   2.353 -0.0530 -1.3581  0.9637
   19MOL0     C 2464   1.237   6.756   2.436  0.2280 -0.4378 -0.5625
   19MOL0     C 2465   1.117   6.694   2.405 -0.0675  0.6121 -0.6274
   19MOL0     O 2466   1.028   6.685   2.507 -0.3495  1.1034  0.0978
   19MOL0     C 2467   0.896   6.653   2.462 -0.2094 -0.3241  0.2907
   19MOL0     C 2468   0.804   6.677   2.585  0.1695  0.1130 -0.0274
   19MOL0     C 2469   0.660   6.616   2.589  0.7174 -0.1491 -0.5201
   19MOL0     C 2470   0.547   6.723   2.612 -2.0760  0.5494 -0.2008
   19MOL0     C 2471   0.412   6.653   2.624 -0.0030 -1.0405  0.2159
   19MOL0     C 2472   0.302   6.764   2.645 -0.1781 -0.1339  0.4226
   19MOL0     C 2473   0.236   6.803   2.501 -0.4536  0.2505 -0.1341
   19MOL0     C 2474   0.141   6.919   2.504  0.6339  0.1120 -0.6822
   19MOL0    Cl 2475   0.009   6.880   2.600 -0.1657  0.2418 -0.3006
   19MOL0     C 2476   1.102   6.637   2.276 -0.1967  0.0048  0.1777
   19MOL0     C 2477   1.216   6.634   2.190 -0.6879 -0.2801  0.0699
   19MOL0     O 2478   1.480   6.484   2.117  0.4143  0.2024  1.0586
   19MOL0     C 2479   1.614   6.753   1.935 -0.4334  0.5693  0.3316
   19MOL0     C 2480   1.704   6.787   1.827  0.7868  0.0956 -0.8922
   19MOL0     N 2481   2.515   6.580   1.677 -0.1938  0.9113  0.3288
   19MOL0     N 2482   2.630   6.634   1.677 -0.2595 -0.7806 -0.3036
   19MOL0     C 2483   3.547   7.100   1.122 -0.2476  0.4593 -0.4227
   19MOL0     C 2484   3.642   7.029   1.049 -0.4769  0.0453 -0.2345
   19MOL0     C 2485   3.900   6.723   0.860 -0.3893  0.0355  0.0955
   19MOL0     C 2486   3.930   6.586   0.885 -0.6000 -0.5506 -0.6352
   19MOL0     C 2487   4.051   6.526   0.845  0.5518  0.8680 -0.4484
   19MOL0     C 2488   4.128   6.596   0.752 -0.1803  0.4280 -0.8234
   19MOL0     O 2489   4.248   6.553   0.698 -0.0662  0.2480  0.8080
   19MOL0     C 2490   4.331   6.461   0.768  0.2463 -0.2733  0.3863
   19MOL0     C 2491   4.474   6.455   0.715 -0.0659  0.3182  0.0398
   19MOL0     C 2492   4.477   6.363   0.588  0.1694  0.7038 -0.3192
   19MOL0     C 2493   4.571   6.399   0.480  0.2879 -0.5714  0.7670
   19MOL0     C 2494   4.703   6.430   0.539 -0.1327  0.3864 -0.0270
   19MOL0     C 2495   4.810   6.470   0.584 -1.2666 -0.4803 -0.1996
   19MOL0     C 2496   4.099   6.730   0.728  0.1161 -0.7762  0.4012
   19MOL0     C 2497   3.990   6.801   0.783 -0.8523  0.6876 -0.3990
   19MOL0     H 2498   3.458   6.909   0.783  1.5645 -0.3117  0.4646
   19MOL0     H 2499   3.285   7.002   0.918  1.1765  2.0978 -2.1994
   19MOL0     H 2500   3.411   7.307   1.224 -0.2103 -0.1804 -1.5854
   19MOL0     H 2501   3.239   7.318   1.243  1.3469  0.3137  0.7789
   19MOL0     H 2502   3.406   7.094   1.366 -1.4831 -0.3340 -2.4675
   19MOL0     H 2503   3.318   7.223   1.452  1.6315 -0.6611  1.1213
   19MOL0     H 2504   3.141   7.063   1.272  0.2003  1.2067 -0.0049
   19MOL0     H 2505   3.227   6.956   1.375  2.9098  1.2029 -2.2814
   19MOL0     H 2506   3.162   7.081   1.572  0.5304 -0.6155 -0.2950
   19MOL0     H 2507   3.030   7.161   1.463 -0.2627 -0.7886 -4.0056
   19MOL0     H 2508   2.939   6.937   1.419  0.2635  2.9525 -0.2645
   19MOL0     H 2509   3.079   6.856   1.492  1.3144  0.3882  1.0632
   19MOL0     H 2510   3.028   6.951   1.715 -0.2638  1.4937 -0.1270
   19MOL0     H 2511   2.897   7.051   1.660 -0.2905  0.2894  1.3208
   19MOL0     H 2512   2.892   6.754   1.630 -0.3926 -2.1903  4.3911
   19MOL0     H 2513   2.855   6.833   1.790  0.5084  1.5143 -0.0813
   19MOL0     H 2514   2.737   6.887   1.512  4.7891  3.1591  1.4227
   19MOL0     H 2515   2.676   6.954   1.672 -0.6833 -1.2631  2.0421
   19MOL0     H 2516   2.434   6.884   1.584 -0.5044  1.1072  1.0547
   19MOL0     H 2517   2.264   6.577   1.742  5.3166 -1.0659  0.1378
   19MOL0     H 2518   2.247   6.757   1.712  1.1723  0.5695  0.0359
   19MOL0     H 2519   2.225   6.549   1.494  1.4579  1.6022  0.0737
   19MOL0     H 2520   2.198   6.713   1.486  0.5930 -0.1841  1.6732
   19MOL0     H 2521   2.031   6.533   1.667  1.7346  1.8841  3.1130
   19MOL0     H 2522   1.988   6.582   1.510  1.3665  0.1925 -0.7147
   19MOL0     H 2523   2.020   6.831   1.599 -1.9073 -0.9391 -1.6351
   19MOL0     H 2524   2.014   6.748   1.763 -3.0764  2.6925  1.1657
   19MOL0     H 2525   1.823   6.484   1.743 -0.1053  0.1522 -0.0384
   19MOL0     H 2526   1.585   6.328   1.907 -2.2723  1.4935  1.3170
   19MOL0     H 2527   1.759   6.318   1.891  0.1249 -1.9850  1.9431
   19MOL0     H 2528   1.683   6.368   2.049  0.5627  1.5908  0.7030
   19MOL0     H 2529   1.443   6.789   2.382 -0.8909  1.5507  0.9417
   19MOL0     H 2530   1.251   6.803   2.533 -0.5988 -0.4190 -0.4523
   19MOL0     H 2531   0.861   6.734   2.397  0.7606  2.6365  3.1621
   19MOL0     H 2532   0.890   6.553   2.418  2.8953 -1.6425  2.5473
   19MOL0     H 2533   0.853   6.626   2.669 -2.4387 -2.4973  0.0795
   19MOL0     H 2534   0.806   6.782   2.617 -0.5599 -0.6062  2.6229
   19MOL0     H 2535   0.650   6.546   2.672  0.0031  2.6120  1.8881
   19MOL0     H 2536   0.643   6.565   2.493 -1.1641 -1.3543  0.3961
   19MOL0     H 2537   0.573   6.775   2.704 -0.9576  0.7724 -0.6346
   19MOL0     H 2538   0.554   6.796   2.532  2.1797 -0.1454 -0.6939
   19MOL0     H 2539   0.414   6.588   2.712  2.3208 -0.6106  0.5478
   19MOL0     H 2540   0.390   6.611   2.525 -0.5290  1.3355 -0.7459
   19MOL0     H 2541   0.227   6.727   2.715  3.0894 -2.9617  2.7810
   19MOL0     H 2542   0.348   6.854   2.685 -2.4031  2.1289 -1.7414
   19MOL0     H 2543   0.184   6.714   2.464 -0.0076  0.4980 -1.4421
   19MOL0     H 2544   0.306   6.842   2.426  0.3220 -0.1842  0.3432
   19MOL0     H 2545   0.110   6.952   2.404 -0.3371  0.5343 -0.2542
   19MOL0     H 2546   0.188   7.005   2.553 -0.6576 -0.4257  1.6899
   19MOL0     H 2547   1.017   6.582   2.238  2.7087 -4.0167 -1.1950
   19MOL0     H 2548   1.192   6.578   2.101 -0.0300  0.1763 -0.3999
   19MOL0     H 2549   1.584   6.842   1.989  1.2684  1.5614 -0.2877
   19MOL0     H 2550   1.733   6.890   1.808  3.1959 -0.5678 -1.0909
   19MOL0     H 2551   3.575   7.153   1.212 -1.4170 -1.8905  1.4414
   19MOL0     H 2552   3.748   7.035   1.071 -0.6827  1.2669  0.5853
   19MOL0     H 2553   3.862   6.526   0.946 -0.5637 -0.4427 -0.4898
   19MOL0     H 2554   4.084   6.426   0.873  1.5746  0.3514 -3.2667
   19MOL0     H 2555   4.334   6.474   0.876  2.1715 -2.9465  0.7737
   19MOL0     H 2556   4.289   6.360   0.762  0.4091 -0.4095  1.4908
   19MOL0     H 2557   4.540   6.410   0.789 -0.1552 -1.7913 -1.0955
   19MOL0     H 2558   4.499   6.560   0.694 -0.2522  0.1165 -1.3128
   19MOL0     H 2559   4.377   6.365   0.543  0.2737 -0.3679 -0.6310
   19MOL0     H 2560   4.488   6.260   0.624 -0.2997  1.0299  0.8345
   19MOL0     H 2561   4.539   6.488   0.426 -2.1613 -2.1624 -0.5892
   19MOL0     H 2562   4.584   6.318   0.407  1.4318 -0.4595  0.8294
   19MOL0     H 2563   4.901   6.501   0.631 -3.1488  1.5257  2.4323
   19MOL0     H 2564   4.169   6.797   0.679  0.0723  0.8684  2.4512
   19MOL0     H 2565   3.974   6.906   0.764 -1.4721  0.8227  0.7998
   20MOL0     O 2566   4.319   3.262   5.815 -0.6243  0.0281  1.0657
   20MOL0     C 2567   4.405   3.318   5.879 -1.1783  0.1436 -0.4833
   20MOL0     O 2568   4.399   3.453   5.914  0.5766  0.3374  0.8525
   20MOL0     C 2569   4.288   3.517   5.873 -0.2638 -0.0675 -0.2939
   20MOL0     C 2570   4.280   3.525   5.732 -0.2634 -0.0628 -0.2825
   20MOL0     C 2571   4.175   3.590   5.669 -0.5442  0.3235  0.1480
   20MOL0     C 2572   4.075   3.651   5.739  0.3699  0.0735  0.0726
   20MOL0     O 2573   3.988   3.715   5.656  1.0777 -0.5917 -1.1207
   20MOL0     C 2574   3.859   3.725   5.716  1.0172 -0.2953  0.3179
   20MOL0     C 2575   3.759   3.752   5.593 -0.5437 -0.8124 -0.9430
   20MOL0     C 2576   3.706   3.639   5.516  0.0455  0.1897 -0.0285
   20MOL0     C 2577   3.661   3.683   5.376  0.3555  0.0692  0.7908
   20MOL0     C 2578   3.662   3.546   5.293  0.3453 -0.0380  0.7337
   20MOL0     C 2579   3.584   3.551   5.164  0.2280  0.2182 -0.0761
   20MOL0     C 2580   3.559   3.412   5.113 -0.1849  0.0703 -0.8320
   20MOL0     C 2581   3.486   3.410   4.977  0.3514  0.3651 -0.1085
   20MOL0     N 2582   3.348   3.471   4.990 -0.1641 -0.5417 -0.6004
   20MOL0     C 2583   3.233   3.433   5.052 -0.7945 -0.6862 -0.9103
   20MOL0     C 2584   3.148   3.528   5.011  0.7665 -0.2076  0.6895
   20MOL0     C 2585   3.017   3.563   5.079  0.5355 -0.1359  0.2664
   20MOL0     C 2586   2.895   3.515   4.995  0.6086  1.7610  0.2384
   20MOL0     C 2587   2.835   3.378   5.015  0.5186 -0.0925  0.5408
   20MOL0     C 2588   2.760   3.363   5.147 -0.2738  0.2399 -0.5583
   20MOL0     O 2589   2.641   3.444   5.149  0.2475 -0.4228 -0.4428
   20MOL0     C 2590   2.543   3.413   5.065  0.4847  0.5641  0.4156
   20MOL0     C 2591   2.457   3.512   5.018 -1.3028 -0.2831  0.6660
   20MOL0     C 2592   2.340   3.490   4.953  0.9845  0.3821 -0.2798
   20MOL0     C 2593   2.253   3.603   4.923  0.6099 -0.1622  0.0733
   20MOL0     C 2594   2.313   3.354   4.911  1.0492  0.4619 -0.0504
   20MOL0     C 2595   2.186   3.315   4.841 -1.1051  0.3475  0.7289
   20MOL0     O 2596   2.091   3.265   4.921  0.7422 -0.6091  0.2300
   20MOL0     C 2597   1.961   3.253   4.894 -0.3198  0.0929  0.2852
   20MOL0     C 2598   1.901   3.135   4.949 -0.3107  0.0448 -0.2066
   20MOL0     C 2599   1.765   3.096   4.916  0.3285 -0.7991 -1.0850
   20MOL0     C 2600   1.694   3.182   4.830  0.0167 -0.1894  0.3915
   20MOL0     O 2601   1.568   3.139   4.790  0.3348 -0.1018  0.0680
   20MOL0     C 2602   1.549   3.104   4.651 -0.3195  0.2494 -0.5991
   20MOL0     C 2603   1.400   3.120   4.623  0.3656 -0.5996  0.2700
   20MOL0     C 2604   1.320   3.000   4.673  0.2902  0.0169 -0.6323
   20MOL0     C 2605   1.170   2.986   4.633 -0.8128 -1.2396 -0.0271
   20MOL0     C 2606   1.118   2.846   4.630 -0.5082  0.4465 -0.0547
   20MOL0     C 2607   0.979   2.829   4.557 -0.0311  0.4985 -0.1398
   20MOL0     C 2608   0.866   2.900   4.637  0.2649  0.3728  0.2427
   20MOL0     C 2609   0.774   2.967   4.535 -0.3723 -0.0109 -0.2389
   20MOL0    Cl 2610   0.700   2.865   4.411  0.0295 -0.3077  0.2885
   20MOL0     C 2611   1.760   3.293   4.769  0.1517 -0.7202  0.2656
   20MOL0     C 2612   1.892   3.323   4.802 -0.3548 -0.7809  0.6440
   20MOL0     O 2613   2.180   3.333   4.720  1.0707  0.4385  0.3177
   20MOL0     C 2614   2.398   3.245   4.943  0.5200  0.6044 -0.7464
   20MOL0     C 2615   2.507   3.275   5.025  0.7972 -0.2747 -0.4422
   20MOL0     N 2616   3.203   3.618   4.929  0.3756 -0.0523  1.4272
   20MOL0     N 2617   3.329   3.588   4.923  0.2828  0.3027 -0.4223
   20MOL0     C 2618   4.079   3.638   5.879  0.1026 -0.1137 -0.9564
   20MOL0     C 2619   4.196   3.581   5.947 -0.3154 -0.2854  0.2891
   20MOL0     C 2620   4.521   3.247   5.925 -1.1872 -0.5970 -1.2494
   20MOL0     C 2621   4.634   3.318   5.980  0.5018  0.1242 -0.2891
   20MOL0     C 2622   4.750   3.246   6.013  0.1416 -0.4015 -0.8018
   20MOL0     C 2623   4.754   3.108   6.017  0.2084 -0.0775  0.1377
   20MOL0     O 2624   4.861   3.041   6.067 -0.3351 -0.4909 -0.0713
   20MOL0     C 2625   4.852   2.906   6.110 -0.3729 -0.0224 -0.4548
   20MOL0     C 2626   4.741   2.879   6.222 -0.1290 -0.9282  0.5120
   20MOL0     C 2627   4.776   2.945   6.359 -0.1168 -0.1503 -0.1547
   20MOL0     C 2628   4.664   2.935   6.478 -0.7059 -0.1828 -0.1523
   20MOL0     C 2629   4.652   2.793   6.504  0.5868  0.2831  0.1069
   20MOL0     C 2630   4.655   2.676   6.549  0.4275  0.2585 -0.9093
   20MOL0     C 2631   4.638   3.037   5.965  0.3677  1.1329 -0.2830
   20MOL0     C 2632   4.528   3.109   5.931  0.3419  0.0140  0.4418
   20MOL0     H 2633   4.356   3.480   5.668  1.5413  1.5739  0.5955
   20MOL0     H 2634   4.177   3.580   5.561  0.3887 -3.2734  0.3754
   20MOL0     H 2635   3.828   3.631   5.764  0.4259 -0.0749  0.3804
   20MOL0     H 2636   3.845   3.800   5.795 -1.0233 -1.7207  1.4361
   20MOL0     H 2637   3.674   3.807   5.634  0.6442  0.3397  0.0364
   20MOL0     H 2638   3.814   3.828   5.537 -1.4764  0.8043  0.2419
   20MOL0     H 2639   3.786   3.565   5.503 -0.4557 -1.4396  4.6076
   20MOL0     H 2640   3.627   3.582   5.565 -2.0335  1.5322 -1.6626
   20MOL0     H 2641   3.562   3.727   5.390 -0.9138 -1.5807 -2.1018
   20MOL0     H 2642   3.720   3.766   5.334 -2.5278  0.9389 -1.9245
   20MOL0     H 2643   3.765   3.513   5.277  0.6166  0.5149  1.3205
   20MOL0     H 2644   3.625   3.465   5.357  0.4820 -0.3549  0.4159
   20MOL0     H 2645   3.495   3.606   5.196  1.7355  3.2937 -0.7864
   20MOL0     H 2646   3.642   3.617   5.098 -0.8049  3.4523  1.9929
   20MOL0     H 2647   3.651   3.352   5.112 -1.2921 -1.8174  1.4013
   20MOL0     H 2648   3.509   3.348   5.186 -1.1190  0.3679 -1.1942
   20MOL0     H 2649   3.479   3.308   4.941 -1.4511 -0.6302  2.7168
   20MOL0     H 2650   3.540   3.461   4.897 -1.6936  0.3057 -1.5887
   20MOL0     H 2651   3.222   3.359   5.131  0.3826  0.6163  0.5340
   20MOL0     H 2652   3.020   3.503   5.170  0.7613 -3.2208 -1.6202
   20MOL0     H 2653   2.995   3.668   5.097 -0.1483 -0.2899  0.3677
   20MOL0     H 2654   2.909   3.526   4.887 -0.4286  0.5515 -0.0480
   20MOL0     H 2655   2.806   3.579   4.996 -0.0089  1.0275 -2.0403
   20MOL0     H 2656   2.915   3.304   5.011  1.6918  1.2050 -2.1663
   20MOL0     H 2657   2.760   3.346   4.943  3.7321 -2.9186 -1.8406
   20MOL0     H 2658   2.829   3.394   5.226  1.7097  1.0290 -2.4895
   20MOL0     H 2659   2.739   3.258   5.165 -0.8834  0.2089 -1.3608
   20MOL0     H 2660   2.488   3.607   5.059  0.7211 -1.3302  1.6955
   20MOL0     H 2661   2.222   3.585   4.819  2.5324 -0.7515 -0.4481
   20MOL0     H 2662   2.168   3.615   4.990 -1.4656 -1.3601 -2.1729
   20MOL0     H 2663   2.311   3.696   4.930  3.2234 -1.5686 -1.2644
   20MOL0     H 2664   1.964   3.082   5.020  0.9755  1.5014 -0.2057
   20MOL0     H 2665   1.718   3.008   4.960  0.6911 -0.5511 -0.1754
   20MOL0     H 2666   1.625   3.159   4.595  0.7255 -2.5372 -2.1021
   20MOL0     H 2667   1.578   3.001   4.628  1.8686  1.1250 -2.0911
   20MOL0     H 2668   1.360   3.208   4.675 -3.1973 -2.3964  0.9006
   20MOL0     H 2669   1.388   3.140   4.516 -3.5145 -4.5158 -0.3284
   20MOL0     H 2670   1.326   2.995   4.782 -2.0274  0.7789 -0.4208
   20MOL0     H 2671   1.365   2.911   4.627 -1.4442 -1.6523  0.7226
   20MOL0     H 2672   1.114   3.053   4.698  3.1656 -0.8619  3.4664
   20MOL0     H 2673   1.167   3.014   4.527 -1.3031 -2.6655 -0.4145
   20MOL0     H 2674   1.096   2.819   4.734 -0.7952  0.4329 -0.1165
   20MOL0     H 2675   1.193   2.784   4.581 -0.5382  1.6017 -1.6665
   20MOL0     H 2676   0.988   2.873   4.458 -2.6545 -0.4655 -0.8800
   20MOL0     H 2677   0.974   2.721   4.543  3.2778  0.2681 -0.3887
   20MOL0     H 2678   0.900   2.982   4.700  2.0083  1.8692 -2.4790
   20MOL0     H 2679   0.806   2.822   4.687 -0.5888 -0.2613 -1.6868
   20MOL0     H 2680   0.808   3.066   4.503  0.7196 -0.7110 -1.3822
   20MOL0     H 2681   0.686   3.004   4.588 -1.6783 -0.1844 -2.1721
   20MOL0     H 2682   1.716   3.372   4.709  1.4713 -1.9759 -2.5440
   20MOL0     H 2683   1.943   3.402   4.746  2.3681 -2.6101  0.3728
   20MOL0     H 2684   2.374   3.143   4.914 -1.5825  0.3282  1.6592
   20MOL0     H 2685   2.560   3.190   5.067 -0.9116 -1.1846 -0.0131
   20MOL0     H 2686   3.997   3.663   5.945 -1.0792 -4.3348 -0.4797
   20MOL0     H 2687   4.209   3.580   6.055  0.2618 -2.6499  0.2456
   20MOL0     H 2688   4.628   3.425   5.995 -5.4298  0.0158  0.2822
   20MOL0     H 2689   4.830   3.306   6.055 -0.5433  0.4003 -0.6136
   20MOL0     H 2690   4.839   2.836   6.026 -1.1339  1.4332 -1.6141
   20MOL0     H 2691   4.955   2.892   6.146  0.0190  3.0922 -0.0794
   20MOL0     H 2692   4.724   2.772   6.237 -0.3031 -0.7622  1.5525
   20MOL0     H 2693   4.643   2.910   6.186 -0.5786  0.4444  2.7176
   20MOL0     H 2694   4.796   3.051   6.339  0.7808 -0.0209  1.2936
   20MOL0     H 2695   4.872   2.912   6.399 -0.1183 -0.4043 -0.3597
   20MOL0     H 2696   4.572   2.986   6.447 -1.3456 -2.2293 -1.8543
   20MOL0     H 2697   4.709   2.984   6.564  2.2312 -1.3914 -0.8619
   20MOL0     H 2698   4.664   2.570   6.566  1.2135  0.4120 -0.3060
   20MOL0     H 2699   4.624   2.929   5.970 -0.2629  1.2499  0.9126
   20MOL0     H 2700   4.439   3.066   5.887  0.2112  1.5302 -0.8400
   21MOL0     O 2701  10.198   3.103   7.385  0.6879 -0.1185  0.0520
   21MOL0     C 2702  10.178   3.179   7.470  0.6824 -1.3733 -0.0534
   21MOL0     O 2703  10.059   3.201   7.530 -0.0033  0.0557 -0.5899
   21MOL0     C 2704   9.952   3.138   7.482 -0.3675  0.4616  0.4520
   21MOL0     C 2705   9.866   3.078   7.577 -0.5623 -1.0641  0.1879
   21MOL0     C 2706   9.760   3.004   7.539  0.8321 -0.5220  0.1970
   21MOL0     C 2707   9.733   2.988   7.401 -0.9775  0.7846  0.2186
   21MOL0     O 2708   9.613   2.916   7.379  0.5935 -0.5323  0.4179
   21MOL0     C 2709   9.631   2.819   7.267  1.0017 -0.5683  0.1097
   21MOL0     C 2710   9.502   2.757   7.235  0.8997  0.2478 -0.4180
   21MOL0     C 2711   9.494   2.673   7.104  0.3087  0.2020 -0.7819
   21MOL0     C 2712   9.436   2.771   6.996 -0.1916  1.0166 -0.1853
   21MOL0     C 2713   9.395   2.691   6.869  0.9621  0.7438  0.7053
   21MOL0     C 2714   9.518   2.621   6.792 -0.2170 -1.3853 -0.0148
   21MOL0     C 2715   9.470   2.560   6.661  0.9081  0.0314 -0.0640
   21MOL0     C 2716   9.593   2.508   6.586  1.2436  1.0554  0.7236
   21MOL0     N 2717   9.680   2.605   6.521 -0.2152 -0.1273  0.2422
   21MOL0     C 2718   9.783   2.575   6.437 -0.3655 -1.3718 -0.0097
   21MOL0     C 2719   9.821   2.698   6.393 -0.3560 -0.0421 -0.0970
   21MOL0     C 2720   9.927   2.743   6.301  0.3207 -0.3208 -0.2516
   21MOL0     C 2721   9.928   2.655   6.175 -0.5726  0.0833  0.0089
   21MOL0     C 2722  10.013   2.729   6.068 -0.0916 -0.1564 -0.3050
   21MOL0     C 2723   9.995   2.677   5.930  0.5954 -0.0963 -0.2865
   21MOL0     O 2724  10.100   2.732   5.840  0.2742 -0.4037  0.6714
   21MOL0     C 2725  10.213   2.660   5.810  0.4622  0.5159 -0.1438
   21MOL0     C 2726  10.250   2.542   5.888  0.8424 -0.8004 -0.6381
   21MOL0     C 2727  10.364   2.465   5.853  0.4375 -0.5268  0.8265
   21MOL0     C 2728  10.383   2.348   5.946 -0.2723 -0.4233  0.9225
   21MOL0     C 2729  10.447   2.510   5.749 -0.6029 -0.4075 -0.5906
   21MOL0     C 2730  10.578   2.451   5.721  0.2119 -0.3036  0.0624
   21MOL0     O 2731  10.647   2.376   5.812  0.3954 -0.2030  0.6070
   21MOL0     C 2732  10.775   2.354   5.776  0.1906  0.0558  0.4010
   21MOL0     C 2733  10.876   2.449   5.800  0.2905  0.6630  0.5474
   21MOL0     C 2734  11.003   2.438   5.748 -0.0667  0.2311  0.1408
   21MOL0     C 2735  11.038   2.328   5.665 -0.1344 -0.2529  0.1191
   21MOL0     O 2736  11.161   2.312   5.629  0.0801 -0.5881 -0.3915
   21MOL0     C 2737  11.234   2.425   5.572 -0.4347  0.4697 -0.3678
   21MOL0     C 2738  11.369   2.428   5.645  0.3174 -0.1554  0.2068
   21MOL0     C 2739  11.473   2.320   5.613 -0.2235  0.0424 -0.3219
   21MOL0     C 2740  11.612   2.362   5.660 -0.8562  0.1271 -0.8543
   21MOL0     C 2741  11.705   2.249   5.670 -0.8906 -0.6767 -0.2256
   21MOL0     C 2742  11.830   2.274   5.751 -0.3954 -0.0472 -0.3593
   21MOL0     C 2743  11.909   2.151   5.760  0.7240  0.8782  0.8052
   21MOL0     C 2744  12.039   2.149   5.681  0.2073  0.1958 -0.3130
   21MOL0    Cl 2745  12.005   2.127   5.509 -0.5036 -0.3069  0.1080
   21MOL0     C 2746  10.939   2.230   5.650 -0.1805 -0.1914 -0.1491
   21MOL0     C 2747  10.814   2.244   5.698 -0.9207 -0.7599 -0.6285
   21MOL0     O 2748  10.621   2.466   5.603  1.1719  0.2020 -0.7978
   21MOL0     C 2749  10.412   2.625   5.680 -0.5760  0.7090 -0.5439
   21MOL0     C 2750  10.293   2.694   5.704 -0.9756  0.0106 -0.4717
   21MOL0     N 2751   9.753   2.799   6.460  0.1372 -0.2995 -0.4175
   21MOL0     N 2752   9.662   2.740   6.538 -0.5404 -0.8508 -0.0930
   21MOL0     C 2753   9.816   3.041   7.301  0.0767  0.3823 -0.1013
   21MOL0     C 2754   9.924   3.122   7.342  0.2733 -0.5739  0.2425
   21MOL0     C 2755  10.285   3.280   7.474  0.5271  0.0657  0.8888
   21MOL0     C 2756  10.267   3.402   7.547  0.1926  0.3080  0.0665
   21MOL0     C 2757  10.372   3.496   7.556  0.3427  0.2504 -0.3456
   21MOL0     C 2758  10.491   3.464   7.500 -0.0115 -0.8978  1.0650
   21MOL0     O 2759  10.606   3.541   7.526  0.1008 -0.3891 -0.9456
   21MOL0     C 2760  10.657   3.609   7.412  0.4304  0.0377  0.0107
   21MOL0     C 2761  10.726   3.731   7.454 -0.3205 -0.0158 -0.0536
   21MOL0     C 2762  10.849   3.721   7.535  0.9789  0.9183  0.7702
   21MOL0     C 2763  10.942   3.845   7.534  0.1769  0.7250 -0.6658
   21MOL0     C 2764  11.044   3.838   7.433 -0.7409  1.0219  0.3717
   21MOL0     C 2765  11.124   3.842   7.342 -0.8797 -0.0354 -0.6175
   21MOL0     C 2766  10.509   3.345   7.435 -0.2445  0.9339  0.9709
   21MOL0     C 2767  10.407   3.261   7.413 -0.4489  0.5762  0.2667
   21MOL0     H 2768   9.879   3.092   7.683 -1.5121 -0.5459  0.2512
   21MOL0     H 2769   9.693   2.977   7.619  3.9619  0.4826  3.4287
   21MOL0     H 2770   9.658   2.874   7.176 -0.5541 -0.4208 -0.2813
   21MOL0     H 2771   9.698   2.739   7.300 -0.4547 -1.7491  0.3196
   21MOL0     H 2772   9.483   2.693   7.321  3.3087  2.2231  1.7530
   21MOL0     H 2773   9.418   2.827   7.235  0.1111 -0.6247 -2.0987
   21MOL0     H 2774   9.589   2.632   7.068  0.4992  0.7953 -0.9744
   21MOL0     H 2775   9.423   2.591   7.120 -1.5918  1.6175 -1.6157
   21MOL0     H 2776   9.340   2.809   7.032 -0.4062 -0.5732  1.0411
   21MOL0     H 2777   9.501   2.856   6.976  2.6012 -1.1484 -1.0319
   21MOL0     H 2778   9.317   2.618   6.891  0.5943  0.3149 -1.7615
   21MOL0     H 2779   9.356   2.774   6.810 -0.3579  1.0166  1.9001
   21MOL0     H 2780   9.592   2.697   6.769 -1.2439 -0.2913  0.1938
   21MOL0     H 2781   9.556   2.546   6.862  0.6567 -0.6106  0.3488
   21MOL0     H 2782   9.397   2.484   6.691 -0.7192  2.3957  2.4278
   21MOL0     H 2783   9.421   2.637   6.601  1.6229 -1.3434 -2.5323
   21MOL0     H 2784   9.563   2.438   6.507  2.2766  0.7106  0.6165
   21MOL0     H 2785   9.652   2.447   6.656  2.5681  0.4101 -0.8957
   21MOL0     H 2786   9.801   2.471   6.414  1.4173 -1.7638  2.7147
   21MOL0     H 2787   9.897   2.846   6.282 -0.6167 -0.5105  0.1494
   21MOL0     H 2788  10.018   2.756   6.360 -0.7521  2.0065  1.0706
   21MOL0     H 2789   9.823   2.651   6.145 -1.5442  1.3826  2.8294
   21MOL0     H 2790   9.961   2.554   6.201  0.5972  0.7225  1.1228
   21MOL0     H 2791  10.117   2.714   6.096 -0.2594 -0.0279  0.4123
   21MOL0     H 2792   9.985   2.835   6.067 -1.1110 -0.3687 -3.1508
   21MOL0     H 2793   9.898   2.715   5.899  0.5571  1.6319  1.7514
   21MOL0     H 2794  10.003   2.568   5.934  0.8269 -0.0740 -0.1140
   21MOL0     H 2795  10.188   2.509   5.970  1.7019 -0.5629  0.1208
   21MOL0     H 2796  10.289   2.331   5.999  0.0861  2.8163  2.9206
   21MOL0     H 2797  10.416   2.263   5.886 -0.1187 -0.0613  0.4941
   21MOL0     H 2798  10.454   2.370   6.027  1.3682 -0.3671 -0.4712
   21MOL0     H 2799  10.834   2.534   5.853 -3.1975 -0.0288 -0.8248
   21MOL0     H 2800  11.077   2.514   5.771  0.6984 -0.2322 -0.7188
   21MOL0     H 2801  11.253   2.424   5.465 -2.2781  2.1133 -0.7726
   21MOL0     H 2802  11.175   2.515   5.590 -2.4837 -0.9506  0.3185
   21MOL0     H 2803  11.422   2.521   5.622 -0.4498  0.4040  0.6311
   21MOL0     H 2804  11.357   2.430   5.753  2.5993 -0.0063  0.4887
   21MOL0     H 2805  11.471   2.296   5.506 -1.7451 -3.3131  0.3160
   21MOL0     H 2806  11.443   2.228   5.665  0.2713  0.4585  0.7214
   21MOL0     H 2807  11.656   2.443   5.601  0.0297 -0.5104 -1.0942
   21MOL0     H 2808  11.600   2.406   5.759 -0.1400  0.7550 -1.0281
   21MOL0     H 2809  11.728   2.211   5.570  0.1422  0.0217 -0.2753
   21MOL0     H 2810  11.649   2.171   5.722 -0.5047 -0.2760  0.8438
   21MOL0     H 2811  11.893   2.345   5.697  2.0371 -0.0826  2.1788
   21MOL0     H 2812  11.807   2.324   5.846  0.1639  1.7883 -1.1338
   21MOL0     H 2813  11.846   2.068   5.728  0.1265  1.5933  0.1150
   21MOL0     H 2814  11.936   2.124   5.863  0.2473 -1.3408  0.4045
   21MOL0     H 2815  12.103   2.064   5.709 -0.0529  0.6758  1.9098
   21MOL0     H 2816  12.100   2.237   5.703  0.3890 -0.1332  0.5524
   21MOL0     H 2817  10.957   2.138   5.596 -4.1284 -1.5077  0.5028
   21MOL0     H 2818  10.746   2.162   5.678  0.7363 -3.0278  2.3245
   21MOL0     H 2819  10.476   2.656   5.599  1.1224 -0.9613  0.0883
   21MOL0     H 2820  10.267   2.785   5.650 -0.2779  0.2533 -0.4201
   21MOL0     H 2821   9.793   3.029   7.195 -2.1056  3.3197 -0.0756
   21MOL0     H 2822   9.982   3.166   7.261  0.1501 -3.6945 -1.7017
   21MOL0     H 2823  10.175   3.422   7.601 -0.8444 -2.8428 -0.2873
   21MOL0     H 2824  10.371   3.574   7.631  0.0480 -3.0561  3.4442
   21MOL0     H 2825  10.727   3.557   7.345  2.7638  4.0190 -0.9627
   21MOL0     H 2826  10.578   3.647   7.347  0.7238 -0.1591 -0.4751
   21MOL0     H 2827  10.654   3.789   7.511  0.7982  0.9195  0.4369
   21MOL0     H 2828  10.749   3.781   7.360 -4.2454  1.5701 -0.3487
   21MOL0     H 2829  10.903   3.629   7.510 -0.1958  0.8613 -1.8502
   21MOL0     H 2830  10.815   3.716   7.639  2.9757  3.4868  1.6577
   21MOL0     H 2831  10.995   3.839   7.630  0.4803 -1.2988 -0.9178
   21MOL0     H 2832  10.889   3.940   7.525  0.0457  0.8661  1.1887
   21MOL0     H 2833  11.184   3.848   7.253  4.8167  3.5808  2.8088
   21MOL0     H 2834  10.609   3.322   7.400  0.3049  4.2679 -0.0312
   21MOL0     H 2835  10.424   3.164   7.367  1.3973 -0.2645  2.5305
   22MOL0     O 2836   2.360   4.231   4.411  0.9747  0.5838  1.3009
   22MOL0     C 2837   2.444   4.302   4.467 -1.1553  0.3341 -0.7135
   22MOL0     O 2838   2.517   4.406   4.413 -0.1905 -0.0549 -0.3886
   22MOL0     C 2839   2.470   4.469   4.298 -0.5908  0.1565  0.4796
   22MOL0     C 2840   2.565   4.483   4.193  0.4840 -0.5511 -0.5797
   22MOL0     C 2841   2.529   4.549   4.072 -0.0780  0.3312  0.2975
   22MOL0     C 2842   2.402   4.605   4.047  0.1258  0.4214  0.3372
   22MOL0     O 2843   2.374   4.659   3.925  0.0120  0.2422 -0.3727
   22MOL0     C 2844   2.249   4.714   3.894  0.5496 -0.0367 -0.8912
   22MOL0     C 2845   2.146   4.610   3.849  0.0803  0.4826 -0.2591
   22MOL0     C 2846   2.189   4.542   3.711  0.4793 -0.6164 -0.2334
   22MOL0     C 2847   2.077   4.490   3.620 -0.9475 -0.1810  0.0212
   22MOL0     C 2848   2.123   4.376   3.532  0.1732 -0.4841  0.5605
   22MOL0     C 2849   2.204   4.433   3.417 -0.4331  0.0667 -0.5610
   22MOL0     C 2850   2.255   4.330   3.320 -0.5440  0.8684  0.0982
   22MOL0     C 2851   2.325   4.373   3.186 -0.1636  0.7270  0.1497
   22MOL0     N 2852   2.372   4.269   3.093  0.5548  0.7903  0.2569
   22MOL0     C 2853   2.361   4.134   3.124  0.4610  0.3197 -0.0033
   22MOL0     C 2854   2.373   4.081   2.998 -0.6480 -0.3553  0.1053
   22MOL0     C 2855   2.399   3.934   2.975  0.8086  0.3160  0.3012
   22MOL0     C 2856   2.264   3.877   2.935 -0.2747 -0.4673  0.3138
   22MOL0     C 2857   2.309   3.751   2.864  1.0555  0.3849  0.3044
   22MOL0     C 2858   2.186   3.649   2.856 -0.2563 -0.6074  1.3474
   22MOL0     O 2859   2.105   3.648   2.974 -0.1677  0.6054 -0.2959
   22MOL0     C 2860   1.970   3.639   2.970  0.5361  0.1694  0.3965
   22MOL0     C 2861   1.894   3.557   2.887 -0.2892 -0.6429 -0.4696
   22MOL0     C 2862   1.750   3.567   2.891  0.3360 -0.0960 -0.3030
   22MOL0     C 2863   1.681   3.468   2.787  0.7933 -0.5225 -0.6259
   22MOL0     C 2864   1.691   3.653   2.984  0.0107 -0.1942 -0.2287
   22MOL0     C 2865   1.545   3.677   2.999  0.4857  1.3968  0.9720
   22MOL0     O 2866   1.456   3.612   2.903 -0.1667 -0.4519  0.6516
   22MOL0     C 2867   1.323   3.647   2.886  0.4270 -0.4100 -0.2939
   22MOL0     C 2868   1.283   3.783   2.895  0.4364 -0.1142  0.6335
   22MOL0     C 2869   1.146   3.813   2.860 -0.3386 -0.0724  0.2378
   22MOL0     C 2870   1.056   3.716   2.836 -0.0104 -0.4055 -0.6317
   22MOL0     O 2871   0.922   3.736   2.798 -0.6395 -0.0813  0.2336
   22MOL0     C 2872   0.872   3.871   2.767 -0.0093 -0.9009  0.6825
   22MOL0     C 2873   0.720   3.859   2.740  0.4972 -0.3265  0.5388
   22MOL0     C 2874   0.634   3.802   2.855  0.7481  0.2938 -0.0841
   22MOL0     C 2875   0.487   3.815   2.830  0.6045 -0.2208 -0.8086
   22MOL0     C 2876   0.401   3.709   2.909  0.3979 -0.0110  1.2835
   22MOL0     C 2877   0.250   3.724   2.867 -0.0821 -0.8979  0.1874
   22MOL0     C 2878   0.167   3.611   2.931 -0.4494 -0.3067  0.2909
   22MOL0     C 2879   0.087   3.528   2.822 -0.0024  0.8325 -0.2588
   22MOL0    Cl 2880  -0.001   3.379   2.884  0.5135 -0.1843  0.5698
   22MOL0     C 2881   1.102   3.584   2.839  0.1088 -0.3385 -0.7109
   22MOL0     C 2882   1.232   3.548   2.854  0.0940 -0.4393 -0.5253
   22MOL0     O 2883   1.510   3.738   3.102  0.6868  0.2593 -0.3397
   22MOL0     C 2884   1.780   3.718   3.078  0.5931 -0.5599  0.5173
   22MOL0     C 2885   1.915   3.716   3.067  1.2360 -0.3078 -0.6518
   22MOL0     N 2886   2.380   4.181   2.895  0.9973 -0.3393  0.1972
   22MOL0     N 2887   2.388   4.293   2.963  0.0522  0.5302  0.0851
   22MOL0     C 2888   2.310   4.592   4.157  0.0072  0.5991 -0.0918
   22MOL0     C 2889   2.339   4.526   4.279 -0.1007  0.1597 -0.5129
   22MOL0     C 2890   2.480   4.275   4.608  0.5279  0.7317  0.4320
   22MOL0     C 2891   2.409   4.171   4.664 -0.2219  0.5863 -0.4309
   22MOL0     C 2892   2.420   4.147   4.809 -0.6849  0.0063  0.3823
   22MOL0     C 2893   2.504   4.220   4.887  0.2387 -0.1201  0.4527
   22MOL0     O 2894   2.558   4.191   5.010  0.1054 -0.5466  0.0935
   22MOL0     C 2895   2.472   4.128   5.107  1.1662 -0.4940  0.7142
   22MOL0     C 2896   2.553   4.056   5.217 -0.3185  0.0099 -0.6474
   22MOL0     C 2897   2.586   3.911   5.174 -0.5168  0.4227  0.7671
   22MOL0     C 2898   2.726   3.868   5.221  0.7042  0.2427  0.2847
   22MOL0     C 2899   2.729   3.848   5.368  0.5047 -0.7791  0.2204
   22MOL0     C 2900   2.750   3.834   5.484  0.4610 -0.2754  0.1572
   22MOL0     C 2901   2.568   4.323   4.822  0.3559  0.2912 -0.5068
   22MOL0     C 2902   2.554   4.361   4.688 -0.6853  1.6011 -0.5533
   22MOL0     H 2903   2.662   4.433   4.191  0.5250 -0.4790 -2.2924
   22MOL0     H 2904   2.591   4.538   3.984 -1.0726 -0.0597 -0.3752
   22MOL0     H 2905   2.217   4.772   3.981  2.8904  2.3121 -1.4632
   22MOL0     H 2906   2.271   4.790   3.819  0.8095  0.0135 -0.7669
   22MOL0     H 2907   2.122   4.533   3.922 -0.1509 -0.8582 -1.7095
   22MOL0     H 2908   2.053   4.665   3.834 -0.1156  0.1029 -0.4301
   22MOL0     H 2909   2.252   4.609   3.652  0.3515 -1.8242 -1.7919
   22MOL0     H 2910   2.248   4.453   3.735 -2.1130 -3.2023 -2.7149
   22MOL0     H 2911   1.995   4.451   3.682 -1.4223  1.8992  0.7915
   22MOL0     H 2912   2.030   4.567   3.558 -0.7689  0.8799  1.1786
   22MOL0     H 2913   2.181   4.307   3.594 -1.4419 -0.8671  1.7247
   22MOL0     H 2914   2.046   4.322   3.476  0.9220  1.7316 -2.9478
   22MOL0     H 2915   2.143   4.519   3.386  0.1916  0.8536  0.3276
   22MOL0     H 2916   2.292   4.486   3.456  1.3504 -2.2371 -1.2544
   22MOL0     H 2917   2.321   4.264   3.377 -0.0450  3.2444  2.5058
   22MOL0     H 2918   2.169   4.278   3.279 -1.0116  3.4576 -2.5817
   22MOL0     H 2919   2.416   4.430   3.206 -0.4742  1.2762  0.0188
   22MOL0     H 2920   2.253   4.423   3.121 -0.4667 -0.9185 -0.8422
   22MOL0     H 2921   2.365   4.092   3.223 -2.1402  0.2213  0.1321
   22MOL0     H 2922   2.468   3.920   2.891  1.4245 -0.4539  0.9247
   22MOL0     H 2923   2.436   3.888   3.066  1.7461  4.2110  2.0766
   22MOL0     H 2924   2.219   3.948   2.864  1.1916 -2.0208 -2.3573
   22MOL0     H 2925   2.201   3.862   3.023 -2.4725 -1.0960 -1.2831
   22MOL0     H 2926   2.383   3.696   2.922  1.5251  1.4017  0.6936
   22MOL0     H 2927   2.361   3.774   2.770 -2.1528  3.8942 -0.8744
   22MOL0     H 2928   2.227   3.548   2.847 -0.3727 -0.5006 -4.1388
   22MOL0     H 2929   2.130   3.672   2.764  1.3241 -0.9753  0.2534
   22MOL0     H 2930   1.949   3.507   2.808  1.1934 -0.6065  0.4927
   22MOL0     H 2931   1.606   3.512   2.719 -0.0123 -0.6239  0.1805
   22MOL0     H 2932   1.759   3.437   2.716 -0.7345 -0.3586 -2.4605
   22MOL0     H 2933   1.637   3.378   2.830 -0.0067 -0.7210 -1.8069
   22MOL0     H 2934   1.356   3.862   2.907  0.1020  0.3655 -0.4193
   22MOL0     H 2935   1.122   3.918   2.851 -1.1712  0.1124  3.4427
   22MOL0     H 2936   0.893   3.937   2.851  1.7514 -2.3296  1.4397
   22MOL0     H 2937   0.934   3.907   2.684 -0.1324 -1.7412  0.2196
   22MOL0     H 2938   0.691   3.962   2.720  2.7189  0.7655  2.4927
   22MOL0     H 2939   0.720   3.791   2.655 -1.2300 -1.5531  1.4427
   22MOL0     H 2940   0.656   3.843   2.953  1.8008 -2.9098  1.1620
   22MOL0     H 2941   0.640   3.693   2.863 -3.6050 -0.1331 -0.0603
   22MOL0     H 2942   0.449   3.916   2.842 -0.3023 -0.4481 -1.5853
   22MOL0     H 2943   0.477   3.811   2.721  2.2910  2.1186 -1.1173
   22MOL0     H 2944   0.417   3.709   3.017  0.5886 -0.6025  1.2578
   22MOL0     H 2945   0.429   3.609   2.875  2.1690  0.9113 -0.1734
   22MOL0     H 2946   0.215   3.819   2.908  0.1142  0.2792 -2.2384
   22MOL0     H 2947   0.242   3.733   2.758  1.9388  1.5159  0.1691
   22MOL0     H 2948   0.091   3.648   3.000 -2.5448 -0.8349 -1.5985
   22MOL0     H 2949   0.226   3.538   2.986 -1.9378 -5.4806 -4.0593
   22MOL0     H 2950   0.165   3.500   2.751  1.9352  2.9912  0.8761
   22MOL0     H 2951   0.006   3.581   2.771  0.7298  0.9162 -1.3507
   22MOL0     H 2952   1.029   3.508   2.817  1.7382 -2.1367 -0.1529
   22MOL0     H 2953   1.263   3.447   2.830  2.1053 -0.2709  1.0201
   22MOL0     H 2954   1.741   3.765   3.168  2.2777  0.1199  0.9361
   22MOL0     H 2955   1.971   3.774   3.140 -4.1208  1.9201  2.3339
   22MOL0     H 2956   2.217   4.648   4.150  0.4075  1.1749 -1.0011
   22MOL0     H 2957   2.254   4.523   4.346  0.9508 -0.4419  0.8592
   22MOL0     H 2958   2.346   4.108   4.601 -0.4114  0.7663 -0.4250
   22MOL0     H 2959   2.368   4.061   4.851  1.1072 -0.8269  1.0112
   22MOL0     H 2960   2.417   4.204   5.164  0.6777 -0.1504 -0.1870
   22MOL0     H 2961   2.397   4.064   5.058  1.8651  0.2917 -1.5156
   22MOL0     H 2962   2.486   4.049   5.303 -1.6883  1.0006 -1.5854
   22MOL0     H 2963   2.637   4.115   5.254  1.2731 -3.3155  1.4806
   22MOL0     H 2964   2.584   3.909   5.065  0.5718  0.0540  0.7454
   22MOL0     H 2965   2.507   3.849   5.220 -1.4966  0.5890 -0.6305
   22MOL0     H 2966   2.806   3.936   5.190  0.2483 -0.1231 -1.8236
   22MOL0     H 2967   2.752   3.771   5.179 -2.0232  0.3011 -1.8687
   22MOL0     H 2968   2.768   3.826   5.589  0.3058  0.8804  0.2845
   22MOL0     H 2969   2.637   4.373   4.889 -1.3602 -0.3419  1.8584
   22MOL0     H 2970   2.614   4.444   4.650  1.2916  0.2459 -0.5479
   23MOL0     O 2971   6.109   9.745   4.636  0.8364  0.4803  0.0399
   23MOL0     C 2972   6.004   9.755   4.569  0.1811 -0.2131  0.4049
   23MOL0     O 2973   5.898   9.670   4.581  0.7020  0.1886 -0.3039
   23MOL0     C 2974   5.929   9.570   4.664 -0.2427 -0.2120 -0.1920
   23MOL0     C 2975   5.897   9.576   4.797  0.2787  0.2802 -0.3567
   23MOL0     C 2976   5.936   9.478   4.889 -1.0360  0.1134  0.2621
   23MOL0     C 2977   6.015   9.367   4.841 -0.1597 -0.4533  0.6090
   23MOL0     O 2978   6.060   9.265   4.928  0.6673  0.1114  0.5185
   23MOL0     C 2979   6.016   9.263   5.064  0.6860 -0.2974  0.6621
   23MOL0     C 2980   6.034   9.116   5.104 -0.4493 -0.6026 -0.0955
   23MOL0     C 2981   5.972   9.116   5.246 -0.5683  0.0646  0.3300
   23MOL0     C 2982   5.988   8.972   5.292  0.1383 -0.0585 -0.3003
   23MOL0     C 2983   5.936   8.954   5.434  0.4830 -0.8184  0.7488
   23MOL0     C 2984   6.009   9.038   5.539  0.6469 -1.0956 -0.7466
   23MOL0     C 2985   5.957   9.019   5.682  0.0070  0.3520 -0.1982
   23MOL0     C 2986   5.970   8.871   5.728  0.1031 -0.0695  0.3146
   23MOL0     N 2987   5.966   8.858   5.873  0.6027  0.5867  0.2971
   23MOL0     C 2988   6.072   8.832   5.956  0.9147  0.2022 -0.3590
   23MOL0     C 2989   6.022   8.845   6.081  0.8001 -0.5153 -0.3439
   23MOL0     C 2990   6.084   8.846   6.213  0.1303  0.5948  0.6126
   23MOL0     C 2991   6.164   8.984   6.232  0.3214 -0.1545  0.4082
   23MOL0     C 2992   6.089   9.106   6.217 -0.9361 -0.4204  0.2023
   23MOL0     C 2993   5.979   9.115   6.333 -0.0803  0.7131  0.4286
   23MOL0     O 2994   5.921   9.243   6.338 -0.4851  0.1138  0.0398
   23MOL0     C 2995   5.783   9.260   6.343 -0.5653 -0.6776  0.2299
   23MOL0     C 2996   5.731   9.362   6.427 -0.2317 -0.0019 -0.1555
   23MOL0     C 2997   5.594   9.393   6.428  0.3328  0.2035 -0.6020
   23MOL0     C 2998   5.547   9.515   6.505  0.9742  0.5557  0.2788
   23MOL0     C 2999   5.514   9.329   6.331  0.3196 -0.6862 -0.4910
   23MOL0     C 3000   5.374   9.365   6.303  1.0813 -0.2804  0.0237
   23MOL0     O 3001   5.281   9.251   6.301 -0.4353 -0.5779 -0.1203
   23MOL0     C 3002   5.152   9.279   6.288  0.5854 -0.1465  0.3603
   23MOL0     C 3003   5.063   9.242   6.388 -0.6842 -0.1752  0.8999
   23MOL0     C 3004   4.926   9.269   6.377  1.4804  0.9089  0.6524
   23MOL0     C 3005   4.871   9.327   6.262  0.0268 -0.1593  0.3874
   23MOL0     O 3006   4.730   9.327   6.259  0.3043 -0.5437  0.4805
   23MOL0     C 3007   4.654   9.323   6.133  0.1890  0.1546  1.0215
   23MOL0     C 3008   4.504   9.363   6.152  0.3860  0.7619 -0.0816
   23MOL0     C 3009   4.434   9.286   6.280  0.4174 -0.4507  0.9219
   23MOL0     C 3010   4.406   9.147   6.249 -0.1289 -0.4670 -0.2506
   23MOL0     C 3011   4.302   9.081   6.337  0.6725  0.3386  0.8820
   23MOL0     C 3012   4.348   9.091   6.479  0.8072 -0.2753 -0.6107
   23MOL0     C 3013   4.250   9.028   6.571  0.3501  0.2704  0.0092
   23MOL0     C 3014   4.291   9.032   6.720 -0.1417  0.0801 -0.4966
   23MOL0    Cl 3015   4.217   8.869   6.782  0.1484 -0.1399 -0.1404
   23MOL0     C 3016   4.958   9.360   6.159 -0.0295  0.8873  0.5034
   23MOL0     C 3017   5.098   9.338   6.171 -0.2332 -0.0916  0.5194
   23MOL0     O 3018   5.350   9.485   6.275 -0.2929 -0.2553 -0.2921
   23MOL0     C 3019   5.568   9.230   6.255  0.1907  0.7546  0.7695
   23MOL0     C 3020   5.698   9.188   6.257 -0.3466  0.7287 -0.6796
   23MOL0     N 3021   5.888   8.882   6.074  0.5338 -0.4063  0.3452
   23MOL0     N 3022   5.853   8.888   5.943 -0.1356 -0.3811 -0.5078
   23MOL0     C 3023   6.046   9.357   4.699  0.3420 -0.3178 -0.8133
   23MOL0     C 3024   5.995   9.458   4.610  0.8079  0.2799  0.1729
   23MOL0     C 3025   5.994   9.870   4.471 -0.5575 -0.2588 -0.1476
   23MOL0     C 3026   5.870   9.908   4.417 -0.2014 -0.6795 -0.0206
   23MOL0     C 3027   5.861  10.021   4.329 -0.3603  0.3668 -0.1754
   23MOL0     C 3028   5.973  10.099   4.303 -0.1858  0.2076  0.4574
   23MOL0     O 3029   5.952  10.207   4.228 -0.1575 -1.0994  0.5060
   23MOL0     C 3030   6.040  10.318   4.237  0.0551  0.8492  0.1450
   23MOL0     C 3031   5.983  10.437   4.155 -1.0487 -0.0278 -0.3186
   23MOL0     C 3032   6.100  10.535   4.131 -0.4295 -0.6226 -0.0625
   23MOL0     C 3033   6.074  10.681   4.102 -0.1045  1.1701 -0.4553
   23MOL0     C 3034   5.946  10.685   4.027  0.1874 -0.3189  0.2685
   23MOL0     C 3035   5.844  10.682   3.957  0.1260 -1.1151  0.2547
   23MOL0     C 3036   6.099  10.060   4.357  0.0261  0.3754 -0.0939
   23MOL0     C 3037   6.102   9.945   4.439 -0.3905 -0.4443  0.3980
   23MOL0     H 3038   5.827   9.652   4.832 -3.6258 -2.6741 -1.1057
   23MOL0     H 3039   5.930   9.501   4.995 -0.3688 -1.5440  0.6865
   23MOL0     H 3040   6.067   9.333   5.132  1.1577 -1.9969  2.1390
   23MOL0     H 3041   5.908   9.283   5.066  0.6052 -0.7601  0.9694
   23MOL0     H 3042   5.973   9.053   5.039 -2.1462 -0.1501  1.0010
   23MOL0     H 3043   6.139   9.084   5.102 -0.0858  0.4985  0.5539
   23MOL0     H 3044   6.029   9.177   5.317  0.9368 -1.7612  0.7709
   23MOL0     H 3045   5.864   9.129   5.254 -0.5305 -0.4103  2.2333
   23MOL0     H 3046   5.941   8.896   5.228 -1.5331  1.8667 -1.5026
   23MOL0     H 3047   6.092   8.939   5.294  0.4827  0.8895 -1.2719
   23MOL0     H 3048   5.832   8.985   5.447  1.0503  0.5981  2.2636
   23MOL0     H 3049   5.944   8.847   5.454  3.9380 -1.0365 -1.0117
   23MOL0     H 3050   6.117   9.020   5.529  0.7540 -1.0859  0.3298
   23MOL0     H 3051   5.998   9.145   5.520  0.7059 -1.3517 -2.3591
   23MOL0     H 3052   6.013   9.075   5.758 -1.1543  1.1661  0.0768
   23MOL0     H 3053   5.851   9.043   5.693  0.1373  0.1758  2.0184
   23MOL0     H 3054   6.066   8.833   5.691  0.6108 -2.3725  3.5430
   23MOL0     H 3055   5.882   8.818   5.692 -0.1276  0.2812  0.3552
   23MOL0     H 3056   6.174   8.815   5.923  0.3229 -3.9104 -0.5731
   23MOL0     H 3057   6.015   8.844   6.297  0.3913  2.9644  0.9489
   23MOL0     H 3058   6.150   8.760   6.228 -1.8052 -0.6548  2.5116
   23MOL0     H 3059   6.232   8.987   6.147  0.1694 -0.9816  0.2486
   23MOL0     H 3060   6.225   8.981   6.323  0.5293 -0.4064  0.2610
   23MOL0     H 3061   6.035   9.114   6.121 -0.5760  1.8492  0.1399
   23MOL0     H 3062   6.154   9.193   6.221 -1.7779  0.4283 -2.3812
   23MOL0     H 3063   6.038   9.096   6.423  1.9789  2.3299 -0.4833
   23MOL0     H 3064   5.897   9.043   6.327  2.0850 -2.1937  2.3881
   23MOL0     H 3065   5.805   9.399   6.497 -3.3061  4.8039  1.0419
   23MOL0     H 3066   5.522   9.591   6.430 -0.7001 -2.0080 -1.9465
   23MOL0     H 3067   5.454   9.502   6.562  1.3566  1.2348  1.0827
   23MOL0     H 3068   5.626   9.557   6.567  1.3863  0.2321 -0.0225
   23MOL0     H 3069   5.078   9.174   6.471  1.8727  0.9628  1.4551
   23MOL0     H 3070   4.850   9.230   6.444  1.4428 -0.5558 -0.1889
   23MOL0     H 3071   4.707   9.392   6.067  1.2647 -2.3540 -0.8888
   23MOL0     H 3072   4.661   9.228   6.081  2.1211 -0.2289  1.8845
   23MOL0     H 3073   4.499   9.468   6.183  0.6325  0.8504 -0.3261
   23MOL0     H 3074   4.452   9.366   6.056 -0.8752  0.9392  0.5943
   23MOL0     H 3075   4.347   9.345   6.311 -0.7983 -2.0808  0.7711
   23MOL0     H 3076   4.504   9.294   6.364 -1.0029 -0.4848  2.1552
   23MOL0     H 3077   4.380   9.130   6.144 -1.5115 -3.6174  0.4637
   23MOL0     H 3078   4.498   9.090   6.267  0.4799  0.6415  0.2396
   23MOL0     H 3079   4.285   8.974   6.323 -0.2468  0.5824  0.0654
   23MOL0     H 3080   4.206   9.133   6.335  1.6345  2.1899 -0.5487
   23MOL0     H 3081   4.439   9.032   6.486  0.5029 -0.5224  2.5187
   23MOL0     H 3082   4.357   9.195   6.512 -4.9161  0.9641 -1.8797
   23MOL0     H 3083   4.234   8.924   6.542 -1.4941  1.0492 -2.0425
   23MOL0     H 3084   4.153   9.078   6.563 -0.3050 -1.0505 -0.6247
   23MOL0     H 3085   4.254   9.117   6.777 -0.9151 -2.1273  2.5741
   23MOL0     H 3086   4.401   9.030   6.717 -0.1595 -0.6958 -1.0066
   23MOL0     H 3087   4.919   9.412   6.071 -1.0934  2.1973  1.6953
   23MOL0     H 3088   5.177   9.366   6.102  1.1259 -0.4645  1.8522
   23MOL0     H 3089   5.511   9.171   6.183  2.4675 -0.1520 -0.4119
   23MOL0     H 3090   5.732   9.115   6.184  1.5504  0.6642  0.2052
   23MOL0     H 3091   6.117   9.282   4.667  2.6353  2.1150 -1.8915
   23MOL0     H 3092   6.009   9.468   4.503  0.4860 -0.0099  0.1018
   23MOL0     H 3093   5.777   9.859   4.444  0.4108 -0.3328  3.0120
   23MOL0     H 3094   5.762  10.041   4.289 -0.9648  0.9501  1.5205
   23MOL0     H 3095   6.057  10.354   4.339  1.5682  1.5581 -0.3310
   23MOL0     H 3096   6.138  10.296   4.193  0.2491  3.7739 -1.0696
   23MOL0     H 3097   5.892  10.476   4.201 -1.8661 -0.9092 -1.1699
   23MOL0     H 3098   5.949  10.383   4.066 -0.5193  0.8995 -1.0994
   23MOL0     H 3099   6.175  10.487   4.068  1.9298  2.0795  0.4701
   23MOL0     H 3100   6.151  10.545   4.227  0.2493  2.0988 -0.6224
   23MOL0     H 3101   6.161  10.726   4.053  1.3609  1.2414  2.0455
   23MOL0     H 3102   6.047  10.730   4.196 -3.7557 -3.6866  1.4787
   23MOL0     H 3103   5.756  10.662   3.900  0.2166  0.6594 -0.5641
   23MOL0     H 3104   6.194  10.105   4.330  0.4012 -0.2008  0.2381
   23MOL0     H 3105   6.201   9.922   4.476 -0.8978 -2.6094  0.5467
   24MOL0     O 3106   6.763   3.950  10.341 -0.5394  0.6400  0.2020
   24MOL0     C 3107   6.859   4.021  10.350  0.2528  0.0721 -1.0850
   24MOL0     O 3108   6.860   4.152  10.389 -0.0366  0.6147 -0.4831
   24MOL0     C 3109   6.743   4.216  10.420  0.1619 -0.4136  0.0503
   24MOL0     C 3110   6.656   4.273  10.319 -0.0605 -0.4636  0.2929
   24MOL0     C 3111   6.539   4.336  10.362  0.6642 -0.4363  0.3523
   24MOL0     C 3112   6.494   4.352  10.494 -0.0456 -0.0855  0.0395
   24MOL0     O 3113   6.361   4.387  10.510 -0.1919 -0.5129  0.5352
   24MOL0     C 3114   6.344   4.466  10.628 -0.1473  1.0156 -0.2370
   24MOL0     C 3115   6.218   4.551  10.597 -0.2941 -0.0484 -0.2454
   24MOL0     C 3116   6.185   4.648  10.701  0.4093 -0.4316  0.0923
   24MOL0     C 3117   6.037   4.694  10.697  0.0445 -0.5211  0.5027
   24MOL0     C 3118   6.001   4.774  10.823 -0.2707  0.2248  0.2391
   24MOL0     C 3119   5.863   4.849  10.813 -0.2615  0.4400 -0.5497
   24MOL0     C 3120   5.820   4.912  10.946  0.5561  1.0074 -0.0181
   24MOL0     C 3121   5.686   4.980  10.954 -0.7120 -0.0520 -0.2657
   24MOL0     N 3122   5.705   5.121  10.916  0.1909 -0.0088  0.6109
   24MOL0     C 3123   5.761   5.215  10.996 -1.1366  0.1869 -0.7078
   24MOL0     C 3124   5.739   5.329  10.929 -0.1890 -0.6432 -0.0868
   24MOL0     C 3125   5.797   5.469  10.959  0.2337 -0.0374 -1.1814
   24MOL0     C 3126   5.745   5.532  11.094 -0.2650 -0.2804  0.3520
   24MOL0     C 3127   5.596   5.530  11.103 -0.2128 -0.5195 -0.1911
   24MOL0     C 3128   5.556   5.567  11.246 -0.0992  0.5276 -0.1470
   24MOL0     O 3129   5.600   5.467  11.345 -0.0861 -0.1415 -0.3365
   24MOL0     C 3130   5.588   5.507  11.478 -0.8297 -0.7605 -0.4361
   24MOL0     C 3131   5.494   5.607  11.518  0.3981  0.5361  0.8327
   24MOL0     C 3132   5.495   5.663  11.650 -0.7820 -0.3581 -0.4088
   24MOL0     C 3133   5.390   5.767  11.672 -0.5139 -0.3274 -0.2074
   24MOL0     C 3134   5.600   5.627  11.740  0.0973  0.7765 -0.0583
   24MOL0     C 3135   5.624   5.687  11.878  0.3800  0.4591  0.7273
   24MOL0     O 3136   5.718   5.634  11.955  0.1739  0.4121  0.5584
   24MOL0     C 3137   5.725   5.676  12.090 -0.7241 -0.0395 -0.4056
   24MOL0     C 3138   5.842   5.733  12.132 -0.2854 -0.4721 -0.3956
   24MOL0     C 3139   5.855   5.804  12.250  0.3881  1.0240 -0.3488
   24MOL0     C 3140   5.743   5.791  12.344 -0.1543 -0.7985 -0.5218
   24MOL0     O 3141   5.753   5.872  12.458 -0.1616 -0.3844  0.2411
   24MOL0     C 3142   5.663   5.860  12.567 -0.3595  0.0501 -1.0597
   24MOL0     C 3143   5.663   5.714  12.633 -0.5574  0.1084  0.2606
   24MOL0     C 3144   5.551   5.696  12.740 -0.5409 -0.6770 -0.2617
   24MOL0     C 3145   5.561   5.766  12.881 -0.0685 -0.2500  0.1429
   24MOL0     C 3146   5.415   5.771  12.947  0.2674 -0.0440  0.2589
   24MOL0     C 3147   5.408   5.821  13.091  0.1696  0.7244 -0.7123
   24MOL0     C 3148   5.260   5.830  13.133 -0.3994 -0.1910 -0.5456
   24MOL0     C 3149   5.234   5.771  13.276  0.0103 -1.5758 -0.8758
   24MOL0    Cl 3150   5.301   5.871  13.401 -0.0294  0.0110 -0.2203
   24MOL0     C 3151   5.627   5.727  12.302 -0.8202  0.2940  0.0443
   24MOL0     C 3152   5.618   5.673  12.178 -0.2635 -0.2977  0.1144
   24MOL0     O 3153   5.550   5.777  11.915  0.0760 -0.6540  0.6100
   24MOL0     C 3154   5.688   5.522  11.701  1.1625  0.0662 -0.4903
   24MOL0     C 3155   5.693   5.472  11.566 -0.0664  0.0131 -0.5877
   24MOL0     N 3156   5.659   5.304  10.812  0.5834 -0.0134  0.6796
   24MOL0     N 3157   5.637   5.175  10.812 -0.8691 -0.1253  0.7837
   24MOL0     C 3158   6.586   4.305  10.586 -0.4926  0.4856 -0.7365
   24MOL0     C 3159   6.707   4.240  10.550  0.3572  1.5269 -0.5086
   24MOL0     C 3160   6.991   3.967  10.309  0.0850  0.3324 -0.1643
   24MOL0     C 3161   7.008   3.856  10.225 -0.7010  0.2805  0.4138
   24MOL0     C 3162   7.134   3.804  10.193  0.4614  0.5580 -0.8026
   24MOL0     C 3163   7.254   3.868  10.236  0.0307  0.4149 -0.8744
   24MOL0     O 3164   7.383   3.820  10.202  0.6962 -0.6919  0.3056
   24MOL0     C 3165   7.504   3.891  10.230 -0.0866  0.6558  0.4309
   24MOL0     C 3166   7.622   3.786  10.217 -0.2511  0.4749  0.3319
   24MOL0     C 3167   7.739   3.810  10.309  0.4497  0.4419 -0.6513
   24MOL0     C 3168   7.836   3.914  10.249 -0.6881 -0.2897  0.5645
   24MOL0     C 3169   7.972   3.898  10.303 -0.5062 -0.3895  0.4629
   24MOL0     C 3170   8.095   3.885  10.313  0.1681  0.2412 -0.3016
   24MOL0     C 3171   7.235   3.985  10.325  0.0454  0.6017 -0.1115
   24MOL0     C 3172   7.108   4.025  10.361 -0.1613  0.7629 -0.5036
   24MOL0     H 3173   6.671   4.263  10.212 -1.4655 -2.6323  0.2465
   24MOL0     H 3174   6.478   4.375  10.281  1.6138 -2.7415 -1.5598
   24MOL0     H 3175   6.327   4.403  10.716 -0.6232  0.1035 -0.9670
   24MOL0     H 3176   6.427   4.536  10.644 -0.8530  1.5925  1.1615
   24MOL0     H 3177   6.239   4.613  10.509 -0.2498 -0.0074 -0.2054
   24MOL0     H 3178   6.134   4.482  10.581 -0.1522 -1.2909  3.5340
   24MOL0     H 3179   6.211   4.612  10.801  0.4360 -1.2167 -0.1933
   24MOL0     H 3180   6.247   4.737  10.692 -2.8961  1.8845 -2.0961
   24MOL0     H 3181   6.017   4.764  10.615  0.2120  0.7032  1.4721
   24MOL0     H 3182   5.971   4.607  10.690  0.6296 -1.0776  1.6315
   24MOL0     H 3183   5.991   4.708  10.910 -0.7727 -0.5322 -0.3753
   24MOL0     H 3184   6.079   4.843  10.858  2.8942 -2.6346 -0.5867
   24MOL0     H 3185   5.848   4.914  10.726  0.2878 -0.9210 -1.7005
   24MOL0     H 3186   5.796   4.765  10.792  0.1420  0.2955 -1.3122
   24MOL0     H 3187   5.837   4.830  11.016  2.6668  0.5043 -1.0397
   24MOL0     H 3188   5.895   4.987  10.975  2.1474 -0.3176 -0.5553
   24MOL0     H 3189   5.648   4.988  11.057 -0.0304  2.3252 -0.1546
   24MOL0     H 3190   5.609   4.933  10.892  0.9984 -1.4118 -1.4647
   24MOL0     H 3191   5.823   5.205  11.084 -0.4300 -1.9580 -1.3914
   24MOL0     H 3192   5.905   5.460  10.977 -0.1885 -2.3231  0.6968
   24MOL0     H 3193   5.779   5.534  10.873  2.6379  0.5598 -1.3024
   24MOL0     H 3194   5.790   5.631  11.108  2.1056 -1.5632  2.7795
   24MOL0     H 3195   5.768   5.465  11.177  0.6768 -1.7062 -1.0261
   24MOL0     H 3196   5.554   5.430  11.085 -3.9181  0.5645  1.4433
   24MOL0     H 3197   5.552   5.603  11.034  2.3389  0.3162 -1.0484
   24MOL0     H 3198   5.447   5.559  11.242 -0.0347 -0.2445 -0.5245
   24MOL0     H 3199   5.598   5.664  11.275  0.5815  0.1165  0.2683
   24MOL0     H 3200   5.413   5.625  11.448 -1.8106 -2.0582  2.4758
   24MOL0     H 3201   5.312   5.735  11.742  1.4733 -1.7274  1.4663
   24MOL0     H 3202   5.439   5.859  11.705 -0.3629  0.8536 -3.3178
   24MOL0     H 3203   5.354   5.789  11.570  0.9830  2.8043 -0.1844
   24MOL0     H 3204   5.925   5.741  12.062 -1.2682 -0.9873 -1.6612
   24MOL0     H 3205   5.940   5.866  12.278  2.6731 -2.3145  0.8127
   24MOL0     H 3206   5.686   5.950  12.625 -3.2032  0.4422 -0.4059
   24MOL0     H 3207   5.566   5.884  12.524  0.2032  0.1729 -2.2961
   24MOL0     H 3208   5.638   5.645  12.553  2.7948  2.3902 -3.0838
   24MOL0     H 3209   5.765   5.692  12.664 -0.1402  2.3834  0.7071
   24MOL0     H 3210   5.521   5.593  12.762 -1.2239 -0.9918 -2.3953
   24MOL0     H 3211   5.473   5.752  12.687  0.0202  0.0635 -0.3158
   24MOL0     H 3212   5.615   5.698  12.948 -0.1061  0.6109  1.0553
   24MOL0     H 3213   5.606   5.865  12.877 -0.8589  0.0740 -1.6649
   24MOL0     H 3214   5.363   5.674  12.952 -1.3193  0.7784  0.5578
   24MOL0     H 3215   5.351   5.833  12.883  1.1944  0.7717  0.1102
   24MOL0     H 3216   5.464   5.767  13.168 -0.7341  0.5248 -0.1706
   24MOL0     H 3217   5.446   5.923  13.103  2.2250  0.1521 -1.8953
   24MOL0     H 3218   5.194   5.785  13.059  0.0815  0.8300 -1.6155
   24MOL0     H 3219   5.240   5.937  13.138  0.1404 -0.1216  3.1019
   24MOL0     H 3220   5.257   5.665  13.289 -0.9761 -1.4369  4.4209
   24MOL0     H 3221   5.128   5.773  13.303  0.2639  0.4906  0.2181
   24MOL0     H 3222   5.541   5.721  12.368 -0.3100  0.9939  0.7842
   24MOL0     H 3223   5.524   5.627  12.150  0.2937 -0.7360 -1.1183
   24MOL0     H 3224   5.760   5.485  11.773 -0.9200  0.3381  1.8713
   24MOL0     H 3225   5.771   5.404  11.536  1.3571  0.9138  0.8923
   24MOL0     H 3226   6.551   4.315  10.688 -0.2672  2.6361 -0.8398
   24MOL0     H 3227   6.773   4.207  10.630 -1.0819  2.0427  0.9322
   24MOL0     H 3228   6.927   3.795  10.186 -0.7166  0.5833 -0.0395
   24MOL0     H 3229   7.135   3.713  10.134 -2.4271  0.5596 -1.0147
   24MOL0     H 3230   7.510   3.977  10.163 -2.6466  0.0882 -0.6254
   24MOL0     H 3231   7.512   3.933  10.331  1.8868  0.0112  0.6027
   24MOL0     H 3232   7.646   3.786  10.111 -1.0377 -1.9899  0.1018
   24MOL0     H 3233   7.580   3.689  10.247 -1.9541  0.2552 -2.4635
   24MOL0     H 3234   7.788   3.713  10.309 -0.1348  0.1418 -0.8990
   24MOL0     H 3235   7.701   3.833  10.409  1.6369  2.8998 -0.6782
   24MOL0     H 3236   7.795   4.012  10.277 -3.5596 -1.2853  0.2049
   24MOL0     H 3237   7.841   3.891  10.142 -1.8506  0.6388  0.2928
   24MOL0     H 3238   8.201   3.872  10.323  0.0648 -0.2119  0.2950
   24MOL0     H 3239   7.310   4.046  10.375 -0.4417 -0.8787  2.6227
   24MOL0     H 3240   7.101   4.108  10.431  0.4628  0.4172 -0.0157
   25MOL0     O 3241   0.174   9.633   8.299 -0.7130 -0.7704  0.4852
   25MOL0     C 3242   0.103   9.604   8.202 -0.4130 -0.2419 -1.1974
   25MOL0     O 3243   0.009   9.688   8.145 -0.1038 -0.2020 -0.9911
   25MOL0     C 3244  -0.027   9.806   8.206 -0.7984 -0.1064 -0.3790
   25MOL0     C 3245   0.066   9.907   8.225  0.2564 -0.2753 -1.1294
   25MOL0     C 3246   0.019  10.032   8.275  0.0324  0.0806 -0.4931
   25MOL0     C 3247  -0.117  10.054   8.304  0.4129  1.1500 -0.8517
   25MOL0     O 3248  -0.169  10.175   8.353 -0.2668  0.7002  0.0940
   25MOL0     C 3249  -0.115  10.294   8.293 -0.0347  0.3403  0.2472
   25MOL0     C 3250  -0.215  10.398   8.361 -0.6996 -0.1319 -0.2152
   25MOL0     C 3251  -0.186  10.414   8.511  0.0735 -0.1127 -0.0694
   25MOL0     C 3252  -0.290  10.496   8.571  0.3512  0.2290 -0.2981
   25MOL0     C 3253  -0.265  10.528   8.723 -0.8711 -0.1247  0.4932
   25MOL0     C 3254  -0.353  10.635   8.782  0.4001  0.8557 -0.3830
   25MOL0     C 3255  -0.360  10.615   8.939 -0.1051  0.3680  0.5017
   25MOL0     C 3256  -0.395  10.751   9.005  0.3644  0.1935  0.1538
   25MOL0     N 3257  -0.527  10.793   8.962 -0.6643  0.2911  0.1096
   25MOL0     C 3258  -0.641  10.730   8.997 -0.2397 -0.0454  0.0187
   25MOL0     C 3259  -0.734  10.790   8.918  0.2616 -0.0429  0.0054
   25MOL0     C 3260  -0.880  10.757   8.904 -0.1814  0.6933 -0.5809
   25MOL0     C 3261  -0.948  10.826   9.004  0.3729 -0.0892  0.4910
   25MOL0     C 3262  -1.090  10.777   9.012  0.4096 -0.2160  0.0145
   25MOL0     C 3263  -1.171  10.841   9.126 -0.7097 -0.1460 -0.8703
   25MOL0     O 3264  -1.173  10.981   9.112  0.1530 -0.2227  0.2497
   25MOL0     C 3265  -1.282  11.046   9.164 -0.9104 -0.6701 -0.3748
   25MOL0     C 3266  -1.342  11.008   9.278 -0.3646 -1.4763 -0.3083
   25MOL0     C 3267  -1.461  11.070   9.331  0.2148  1.0108 -0.3912
   25MOL0     C 3268  -1.497  11.053   9.477  1.0868  0.1974  0.5748
   25MOL0     C 3269  -1.522  11.175   9.254 -0.4622 -0.1171 -0.7780
   25MOL0     C 3270  -1.645  11.245   9.287  0.6258 -0.2659 -1.2445
   25MOL0     O 3271  -1.693  11.343   9.210 -0.5033 -0.7787  0.4468
   25MOL0     C 3272  -1.800  11.417   9.256  0.1626  1.6214 -1.0943
   25MOL0     C 3273  -1.777  11.504   9.364 -0.7088  0.7336  0.3510
   25MOL0     C 3274  -1.882  11.587   9.414  0.4610  0.5482  1.0482
   25MOL0     C 3275  -2.009  11.580   9.355  0.8991 -0.2300  0.3916
   25MOL0     O 3276  -2.121  11.661   9.381  0.0769 -0.1067  0.4557
   25MOL0     C 3277  -2.117  11.751   9.499 -0.4308 -0.1633 -0.1048
   25MOL0     C 3278  -2.237  11.845   9.493 -0.6463 -0.0153 -0.1183
   25MOL0     C 3279  -2.355  11.754   9.483  1.1480  0.5857  0.0761
   25MOL0     C 3280  -2.491  11.832   9.493  0.5879  0.0024  0.0345
   25MOL0     C 3281  -2.515  11.946   9.397 -1.2086  0.2065  0.5279
   25MOL0     C 3282  -2.607  12.058   9.458 -0.1852 -0.5682 -0.1448
   25MOL0     C 3283  -2.621  12.149   9.353 -0.5860 -0.3222  0.2052
   25MOL0     C 3284  -2.713  12.266   9.386 -0.0252  0.4220 -0.0247
   25MOL0    Cl 3285  -2.876  12.212   9.398 -0.0814  0.1718 -0.0163
   25MOL0     C 3286  -2.026  11.487   9.250 -0.4697  0.0652 -0.3108
   25MOL0     C 3287  -1.928  11.403   9.198 -0.7826  0.7155 -0.2063
   25MOL0     O 3288  -1.714  11.178   9.365  0.1711 -0.0539  0.5896
   25MOL0     C 3289  -1.450  11.217   9.129 -0.1493 -0.7618  0.5977
   25MOL0     C 3290  -1.333  11.157   9.090  0.5724 -0.7778 -0.2672
   25MOL0     N 3291  -0.675  10.882   8.838 -0.5372  0.1229  0.8767
   25MOL0     N 3292  -0.546  10.883   8.859 -0.1624 -0.0894 -0.5064
   25MOL0     C 3293  -0.205   9.947   8.288  0.4022  0.0157 -0.5636
   25MOL0     C 3294  -0.156   9.829   8.248  0.2499  0.6696  1.3189
   25MOL0     C 3295   0.136   9.490   8.116  0.0641  0.3113  0.1059
   25MOL0     C 3296   0.058   9.433   8.018  0.4647  0.7969 -0.2236
   25MOL0     C 3297   0.085   9.310   7.958  0.7460 -0.1375 -0.1072
   25MOL0     C 3298   0.209   9.247   7.983  0.5424  0.1998  0.6162
   25MOL0     O 3299   0.254   9.140   7.904  0.1058 -1.0049  0.5478
   25MOL0     C 3300   0.148   9.066   7.833  0.2714 -0.1384 -0.4424
   25MOL0     C 3301   0.191   8.925   7.800 -0.2051 -0.2218  0.4939
   25MOL0     C 3302   0.076   8.834   7.749 -0.3509 -0.0749  0.0728
   25MOL0     C 3303   0.132   8.699   7.679 -0.1922 -0.5059  1.0921
   25MOL0     C 3304   0.244   8.644   7.752 -0.5777 -0.6756 -1.1155
   25MOL0     C 3305   0.339   8.576   7.800 -0.4862 -0.0050  0.1055
   25MOL0     C 3306   0.298   9.314   8.069 -0.0259 -0.5348 -0.2989
   25MOL0     C 3307   0.260   9.428   8.134  0.4087 -0.7569  0.6431
   25MOL0     H 3308   0.171   9.905   8.199 -0.0033  0.2528 -2.2940
   25MOL0     H 3309   0.087  10.115   8.290  0.7393 -0.5107 -0.3689
   25MOL0     H 3310  -0.008  10.304   8.313  0.3721 -0.4339 -1.3660
   25MOL0     H 3311  -0.139  10.292   8.186 -2.4505 -0.0224  0.7523
   25MOL0     H 3312  -0.213  10.497   8.315 -3.6198 -0.7315 -1.8881
   25MOL0     H 3313  -0.321  10.369   8.355 -1.1601  1.6676 -2.0129
   25MOL0     H 3314  -0.193  10.319   8.564 -2.0822 -0.7255 -1.3413
   25MOL0     H 3315  -0.090  10.465   8.527  0.1091 -0.5871  1.4255
   25MOL0     H 3316  -0.297  10.594   8.522  3.8013  1.2497  0.9277
   25MOL0     H 3317  -0.389  10.449   8.567  0.2954  0.0766  1.6613
   25MOL0     H 3318  -0.268  10.436   8.783 -1.0012  1.3214  2.8028
   25MOL0     H 3319  -0.163  10.564   8.742 -0.5948 -1.8840  2.8615
   25MOL0     H 3320  -0.314  10.731   8.747 -0.7911  1.1333 -0.9990
   25MOL0     H 3321  -0.458  10.617   8.758  0.9086 -1.2723 -1.1647
   25MOL0     H 3322  -0.449  10.557   8.962 -0.8858  1.2108 -0.2907
   25MOL0     H 3323  -0.270  10.572   8.984 -0.8296 -0.1379  1.5037
   25MOL0     H 3324  -0.321  10.829   8.985 -0.3599  1.8527  3.2706
   25MOL0     H 3325  -0.390  10.736   9.114 -0.7657  1.6589  0.4381
   25MOL0     H 3326  -0.660  10.651   9.069 -2.8259 -0.2842 -0.8436
   25MOL0     H 3327  -0.927  10.772   8.806  3.6725 -0.2399 -2.7830
   25MOL0     H 3328  -0.887  10.650   8.923  0.7850  0.5775 -0.8152
   25MOL0     H 3329  -0.928  10.933   8.990  4.9374 -0.8741 -0.3110
   25MOL0     H 3330  -0.904  10.797   9.100 -1.1512 -3.7053  0.2429
   25MOL0     H 3331  -1.092  10.669   9.028 -1.8328 -0.3063 -0.5766
   25MOL0     H 3332  -1.145  10.798   8.920 -2.7845  0.5203  1.9466
   25MOL0     H 3333  -1.126  10.819   9.223 -0.7458  0.2523 -0.7594
   25MOL0     H 3334  -1.264  10.784   9.135  0.0302 -1.1270  1.1688
   25MOL0     H 3335  -1.297  10.931   9.339  2.4477  0.5060  0.3325
   25MOL0     H 3336  -1.505  11.151   9.525 -0.3114 -0.3884  1.6208
   25MOL0     H 3337  -1.595  11.003   9.476  0.6086  0.9932  2.3321
   25MOL0     H 3338  -1.430  10.980   9.525  1.6479 -0.8779 -1.7165
   25MOL0     H 3339  -1.680  11.519   9.410 -0.3023 -3.8991  1.4379
   25MOL0     H 3340  -1.862  11.652   9.499  0.0578 -0.9331  2.3172
   25MOL0     H 3341  -2.107  11.689   9.588  2.8305  0.6267  0.2105
   25MOL0     H 3342  -2.028  11.815   9.491  1.5276 -2.8867 -1.8399
   25MOL0     H 3343  -2.241  11.895   9.590 -0.7736  0.0525 -0.1588
   25MOL0     H 3344  -2.235  11.914   9.408  0.4657  0.9106  0.6406
   25MOL0     H 3345  -2.346  11.683   9.566  1.9422 -1.8074 -1.9365
   25MOL0     H 3346  -2.362  11.702   9.387  0.6001  2.3435 -0.8889
   25MOL0     H 3347  -2.575  11.764   9.477  0.5005 -0.6221  2.7069
   25MOL0     H 3348  -2.510  11.869   9.594 -2.2232  2.1225 -1.1546
   25MOL0     H 3349  -2.559  11.910   9.304  0.1525  0.2416 -0.1543
   25MOL0     H 3350  -2.420  11.984   9.359 -0.7026 -1.3922  0.1386
   25MOL0     H 3351  -2.697  12.013   9.499 -1.7019  2.0237 -0.4230
   25MOL0     H 3352  -2.565  12.112   9.544  1.2985  0.2531 -1.3213
   25MOL0     H 3353  -2.669  12.099   9.269  0.4399  0.7540 -1.0732
   25MOL0     H 3354  -2.529  12.186   9.306 -0.8209  0.1899  0.1338
   25MOL0     H 3355  -2.690  12.328   9.299 -1.0056  1.0796  0.1714
   25MOL0     H 3356  -2.691  12.319   9.479 -1.1013 -2.1749  1.8419
   25MOL0     H 3357  -2.128  11.474   9.218 -0.5974 -3.7035  1.0800
   25MOL0     H 3358  -1.960  11.336   9.119 -0.8973 -2.7232  2.5052
   25MOL0     H 3359  -1.475  11.310   9.079  0.8116 -0.3845  0.8020
   25MOL0     H 3360  -1.285  11.200   9.003  3.1380  1.6331  2.1156
   25MOL0     H 3361  -0.313   9.954   8.300 -0.2168 -0.2526 -4.5597
   25MOL0     H 3362  -0.229   9.750   8.231  0.7482  0.4041  0.3570
   25MOL0     H 3363  -0.031   9.480   7.976  0.6493  0.1761 -1.3507
   25MOL0     H 3364   0.003   9.273   7.897  0.4749 -0.4956  0.4683
   25MOL0     H 3365   0.062   9.067   7.901 -2.2402  2.4641 -3.3022
   25MOL0     H 3366   0.125   9.125   7.744  0.5787  0.6765 -0.0013
   25MOL0     H 3367   0.238   8.881   7.888  2.7734  1.1400 -0.2987
   25MOL0     H 3368   0.270   8.921   7.725  1.0979  1.5478  1.7051
   25MOL0     H 3369   0.023   8.890   7.671  0.8853 -0.7541 -1.3082
   25MOL0     H 3370   0.016   8.820   7.839 -1.9143 -0.2448 -0.9655
   25MOL0     H 3371   0.150   8.714   7.572 -4.4082 -0.0652  0.2853
   25MOL0     H 3372   0.048   8.630   7.668  0.4404 -1.3970  1.7274
   25MOL0     H 3373   0.425   8.521   7.833 -1.2500 -0.2978  1.6958
   25MOL0     H 3374   0.394   9.262   8.072 -0.1371 -1.0122 -2.7553
   25MOL0     H 3375   0.331   9.467   8.206 -2.8254  1.5007  2.9216
   26MOL0     O 3376   8.382  10.437   0.241  0.3035 -0.0200 -0.2667
   26MOL0     C 3377   8.351  10.391   0.129 -0.3924  0.4265  0.6402
   26MOL0     O 3378   8.385  10.261   0.077 -0.4578 -0.8807 -0.1543
   26MOL0     C 3379   8.471  10.168   0.137 -0.2233 -0.1130  0.4953
   26MOL0     C 3380   8.543  10.176   0.262  0.5191  0.2503 -0.2589
   26MOL0     C 3381   8.642  10.083   0.291  0.9108  0.7417  0.1607
   26MOL0     C 3382   8.670   9.978   0.196 -0.7274  0.4039  0.1300
   26MOL0     O 3383   8.764   9.887   0.234 -0.7079 -0.1372 -0.5207
   26MOL0     C 3384   8.787   9.768   0.155 -0.4201  0.0826 -0.2661
   26MOL0     C 3385   8.869   9.666   0.240  0.2793  0.3304 -0.3597
   26MOL0     C 3386   8.998   9.722   0.302 -1.1512 -0.1841  0.1558
   26MOL0     C 3387   9.111   9.762   0.198  0.4622  0.8829 -0.1564
   26MOL0     C 3388   9.248   9.781   0.260  0.0534  0.6170 -0.0006
   26MOL0     C 3389   9.359   9.814   0.157 -0.0627 -0.2733 -0.2698
   26MOL0     C 3390   9.484   9.872   0.214 -0.0078 -0.8982  0.3933
   26MOL0     C 3391   9.586   9.774   0.261  0.2420 -0.0483  1.0192
   26MOL0     N 3392   9.698   9.847   0.323  0.1431 -0.4592  0.3150
   26MOL0     C 3393   9.698   9.966   0.383  0.8951 -0.2999  2.0586
   26MOL0     C 3394   9.809   9.972   0.444  0.3700  0.0041 -0.6059
   26MOL0     C 3395   9.844  10.067   0.555 -0.1221  0.5547 -0.9135
   26MOL0     C 3396   9.890  10.196   0.497  0.0190 -0.0844 -0.3746
   26MOL0     C 3397   9.915  10.303   0.606 -0.4964 -0.2250 -0.1040
   26MOL0     C 3398  10.041  10.285   0.694 -0.9779  0.3714 -0.4282
   26MOL0     O 3399  10.067  10.397   0.779 -0.5506 -0.4221 -0.0160
   26MOL0     C 3400  10.168  10.362   0.862 -0.2077  0.6574  0.3434
   26MOL0     C 3401  10.289  10.414   0.827  0.0470 -0.2417 -0.2028
   26MOL0     C 3402  10.403  10.377   0.893  0.1516  0.3469 -0.3944
   26MOL0     C 3403  10.536  10.413   0.835 -0.7302  0.5020  0.1068
   26MOL0     C 3404  10.396  10.298   1.012  0.7560 -0.9032  0.3451
   26MOL0     C 3405  10.511  10.264   1.101  0.3704  0.3125 -1.1554
   26MOL0     O 3406  10.549  10.131   1.113 -0.1787  0.5061 -0.7253
   26MOL0     C 3407  10.647  10.097   1.204  1.1562  0.1652  0.3474
   26MOL0     C 3408  10.674  10.159   1.329 -0.8217  1.0318  0.8392
   26MOL0     C 3409  10.791  10.117   1.393 -0.4329  0.1432  0.0923
   26MOL0     C 3410  10.874  10.012   1.348 -0.2022  0.4966  0.8373
   26MOL0     O 3411  10.986   9.968   1.391 -0.1337 -0.3486 -1.2128
   26MOL0     C 3412  11.039  10.010   1.517 -0.6969 -0.0840  0.3467
   26MOL0     C 3413  11.171   9.938   1.570 -0.3642  0.5712  0.1741
   26MOL0     C 3414  11.285   9.963   1.477 -0.3160  0.1376 -0.8087
   26MOL0     C 3415  11.411   9.984   1.564  0.4028 -0.7558 -0.6813
   26MOL0     C 3416  11.539   9.980   1.475 -0.0076 -0.1893 -0.6496
   26MOL0     C 3417  11.661  10.041   1.545  0.4393 -0.8071 -0.2831
   26MOL0     C 3418  11.710   9.954   1.656  0.9961  0.4196 -0.3992
   26MOL0     C 3419  11.792   9.833   1.613 -0.5711  0.0371  0.0802
   26MOL0    Cl 3420  11.734   9.680   1.699 -0.1986 -0.6688 -0.2013
   26MOL0     C 3421  10.828   9.947   1.233  0.4264  0.1269  0.4230
   26MOL0     C 3422  10.715   9.983   1.163  1.1638  0.0911 -0.1525
   26MOL0     O 3423  10.562  10.366   1.156  0.0156 -0.0257 -0.2040
   26MOL0     C 3424  10.270  10.257   1.062  0.0059 -1.3925  0.1839
   26MOL0     C 3425  10.160  10.278   0.978 -0.3765 -0.5645  0.2456
   26MOL0     N 3426   9.881   9.847   0.417  0.7220 -0.5164 -0.4785
   26MOL0     N 3427   9.809   9.769   0.344 -0.0920  0.6159 -0.3083
   26MOL0     C 3428   8.592   9.964   0.082  0.0777  0.4741 -0.2426
   26MOL0     C 3429   8.491  10.059   0.052  0.4242 -0.0627 -0.3971
   26MOL0     C 3430   8.260  10.464   0.038  0.1317  0.1957 -0.1404
   26MOL0     C 3431   8.224  10.414  -0.089  0.2190  0.1238 -1.2585
   26MOL0     C 3432   8.135  10.479  -0.173 -0.1811  1.3572 -0.2311
   26MOL0     C 3433   8.073  10.600  -0.129  0.7575 -0.8792 -0.6695
   26MOL0     O 3434   7.990  10.662  -0.213  0.2737  0.3970 -0.7154
   26MOL0     C 3435   7.926  10.786  -0.203  0.2343  0.4598  0.1430
   26MOL0     C 3436   7.866  10.837  -0.331 -0.3780 -0.6796 -0.2353
   26MOL0     C 3437   7.794  10.732  -0.412 -0.8646  0.5939  1.0265
   26MOL0     C 3438   7.700  10.776  -0.523 -0.0442  0.2693 -0.9880
   26MOL0     C 3439   7.573  10.839  -0.471 -0.9086 -0.3183  0.2684
   26MOL0     C 3440   7.467  10.885  -0.431  0.3006  0.1547 -0.0929
   26MOL0     C 3441   8.108  10.654  -0.006 -0.2395  0.9123 -1.2165
   26MOL0     C 3442   8.201  10.588   0.080  0.2757 -0.2065  0.5777
   26MOL0     H 3443   8.529  10.264   0.324 -0.0249  2.3815 -3.1724
   26MOL0     H 3444   8.699  10.090   0.383  2.7072 -1.2216 -0.7357
   26MOL0     H 3445   8.693   9.726   0.119  0.7993 -2.9192 -0.2645
   26MOL0     H 3446   8.847   9.791   0.066  0.6549 -2.4344 -0.2798
   26MOL0     H 3447   8.807   9.628   0.322 -5.2229  4.6511 -1.9773
   26MOL0     H 3448   8.901   9.584   0.174  0.6905  0.3010 -0.1287
   26MOL0     H 3449   8.975   9.808   0.365 -3.0331 -0.1117 -0.5516
   26MOL0     H 3450   9.028   9.657   0.384 -1.5206  1.4360  1.6086
   26MOL0     H 3451   9.125   9.682   0.125 -0.9733 -0.9560  1.4610
   26MOL0     H 3452   9.076   9.853   0.148  1.0777  2.4136  2.0381
   26MOL0     H 3453   9.248   9.864   0.330 -1.1971 -1.4372  2.6074
   26MOL0     H 3454   9.278   9.695   0.321  3.3116  1.8861  0.3934
   26MOL0     H 3455   9.388   9.735   0.087  2.3867  0.5332 -0.2372
   26MOL0     H 3456   9.318   9.887   0.085 -1.8968 -4.3061 -3.7631
   26MOL0     H 3457   9.539   9.916   0.131 -0.0046 -0.1320  0.7914
   26MOL0     H 3458   9.464   9.961   0.275  3.7598  0.9011 -0.7147
   26MOL0     H 3459   9.617   9.728   0.167 -0.2837 -1.1017  1.3488
   26MOL0     H 3460   9.549   9.695   0.327  0.2291  0.4831  1.6562
   26MOL0     H 3461   9.617  10.038   0.388  0.8164  0.0800 -1.9269
   26MOL0     H 3462   9.759  10.088   0.621  0.6749 -2.1048  1.1675
   26MOL0     H 3463   9.923  10.025   0.619 -2.6708 -0.8145  1.5988
   26MOL0     H 3464   9.804  10.235   0.442 -3.2089  0.9675  4.7678
   26MOL0     H 3465   9.970  10.180   0.424 -1.7677 -0.7020 -2.2641
   26MOL0     H 3466   9.824  10.305   0.667  0.5781 -1.5391  1.6773
   26MOL0     H 3467   9.910  10.400   0.556  0.6774  0.1668  0.4904
   26MOL0     H 3468  10.131  10.271   0.634  0.2115  2.1074  0.8320
   26MOL0     H 3469  10.010  10.201   0.757 -0.0981  0.4257  0.0902
   26MOL0     H 3470  10.297  10.479   0.740 -3.4347  0.0123 -0.4785
   26MOL0     H 3471  10.611  10.334   0.846 -1.5472 -0.4374 -0.8711
   26MOL0     H 3472  10.530  10.439   0.729 -0.3090  1.6409  0.3418
   26MOL0     H 3473  10.558  10.509   0.883  2.0925  0.3975 -0.7451
   26MOL0     H 3474  10.610  10.237   1.367 -1.3477  0.5527  0.9652
   26MOL0     H 3475  10.814  10.153   1.493 -0.5999 -2.3486  1.1039
   26MOL0     H 3476  11.065  10.116   1.513  0.9945 -0.2374  3.6160
   26MOL0     H 3477  10.965   9.995   1.597 -0.1662  1.5018  1.1719
   26MOL0     H 3478  11.199   9.983   1.666  2.0088 -0.6304  0.1314
   26MOL0     H 3479  11.151   9.833   1.592 -1.6494 -0.0732 -3.4453
   26MOL0     H 3480  11.276  10.055   1.419  2.0430  2.5379  2.2474
   26MOL0     H 3481  11.311   9.879   1.413 -1.4269  0.1819 -1.3482
   26MOL0     H 3482  11.412  10.077   1.621  1.0043 -1.7023  0.9392
   26MOL0     H 3483  11.425   9.907   1.641  1.2337 -0.3376 -0.3994
   26MOL0     H 3484  11.525  10.047   1.390  0.5740  1.4431  0.4932
   26MOL0     H 3485  11.564   9.876   1.454 -1.7651 -0.4539 -1.6809
   26MOL0     H 3486  11.743  10.050   1.473  2.5957 -2.8846  1.7247
   26MOL0     H 3487  11.639  10.141   1.583  0.7051 -1.1049  0.6939
   26MOL0     H 3488  11.627   9.923   1.720  1.0155  0.6514 -0.2623
   26MOL0     H 3489  11.780  10.010   1.717  2.6103 -1.8931  0.0200
   26MOL0     H 3490  11.896   9.854   1.639 -0.5135  2.2242 -1.6680
   26MOL0     H 3491  11.787   9.818   1.505  2.7545 -0.2663 -0.1403
   26MOL0     H 3492  10.888   9.865   1.195  0.9066  0.5497  0.2669
   26MOL0     H 3493  10.667   9.943   1.074  1.6567 -0.9872  0.0416
   26MOL0     H 3494  10.259  10.212   1.160 -2.9301 -1.3397 -0.0265
   26MOL0     H 3495  10.066  10.246   1.022 -2.1294  2.3661 -1.0910
   26MOL0     H 3496   8.609   9.880   0.015 -0.2206  0.5360 -0.3954
   26MOL0     H 3497   8.424  10.050  -0.032 -0.9748 -1.2414  0.7713
   26MOL0     H 3498   8.267  10.320  -0.123  3.3197  0.8359  0.2961
   26MOL0     H 3499   8.113  10.423  -0.264  2.0583 -1.4448  0.8126
   26MOL0     H 3500   7.851  10.771  -0.126  2.4771 -2.0208  2.0352
   26MOL0     H 3501   7.991  10.866  -0.166 -0.0181 -0.5788  3.0680
   26MOL0     H 3502   7.948  10.871  -0.395  0.7960 -1.5684  0.7424
   26MOL0     H 3503   7.800  10.919  -0.304  1.6011  0.2331  2.2518
   26MOL0     H 3504   7.741  10.661  -0.348 -2.8159 -2.8121 -3.7864
   26MOL0     H 3505   7.869  10.672  -0.466 -2.8593  0.2654 -1.5394
   26MOL0     H 3506   7.676  10.689  -0.585  2.8319 -0.7239 -0.8695
   26MOL0     H 3507   7.740  10.863  -0.577  0.1688  0.5827 -0.3335
   26MOL0     H 3508   7.371  10.916  -0.395 -1.1366 -1.0885 -2.5950
   26MOL0     H 3509   8.077  10.751   0.032  3.4210  2.8228 -2.5434
   26MOL0     H 3510   8.210  10.644   0.173 -1.1787  0.6697  0.2132
   27MOL0     O 3511   2.885   9.703   9.372  0.3644  0.2721  0.4106
   27MOL0     C 3512   2.768   9.684   9.371  1.3272 -0.4653  1.0626
   27MOL0     O 3513   2.696   9.575   9.418 -0.5320 -0.2259 -1.1965
   27MOL0     C 3514   2.777   9.471   9.456 -0.4218  0.6071  0.7084
   27MOL0     C 3515   2.864   9.456   9.562  0.7728  0.2526 -0.1732
   27MOL0     C 3516   2.925   9.331   9.599  0.2284  0.5958 -0.0475
   27MOL0     C 3517   2.898   9.217   9.517 -0.5555 -0.7938  0.0014
   27MOL0     O 3518   2.955   9.100   9.566  1.1782  0.0891 -0.0093
   27MOL0     C 3519   2.896   8.975   9.520  0.7962  0.2078  0.3726
   27MOL0     C 3520   2.925   8.862   9.618 -0.4724 -0.6248 -0.2918
   27MOL0     C 3521   3.073   8.831   9.663  0.3038 -0.0355  0.0793
   27MOL0     C 3522   3.175   8.822   9.545  0.6897  0.3924 -1.2393
   27MOL0     C 3523   3.310   8.797   9.614 -0.4256  0.0438  0.5220
   27MOL0     C 3524   3.439   8.827   9.522 -0.2026 -0.0159  0.4749
   27MOL0     C 3525   3.438   8.965   9.455 -0.5382  0.3893 -0.0940
   27MOL0     C 3526   3.575   9.031   9.462 -0.2969  0.8701 -0.6057
   27MOL0     N 3527   3.587   9.145   9.377  0.2348  0.0928 -0.4668
   27MOL0     C 3528   3.599   9.142   9.243  0.3433 -0.5464 -0.6400
   27MOL0     C 3529   3.604   9.270   9.205 -0.0223  0.3452  0.0489
   27MOL0     C 3530   3.613   9.325   9.066  0.2544 -0.3573 -0.5606
   27MOL0     C 3531   3.753   9.301   9.003 -0.5882 -0.1175  0.7034
   27MOL0     C 3532   3.754   9.382   8.868 -0.1176  0.7435 -0.1797
   27MOL0     C 3533   3.892   9.369   8.797 -0.0746  0.9184 -0.1166
   27MOL0     O 3534   3.933   9.226   8.776  0.3896  0.0811  0.1394
   27MOL0     C 3535   4.003   9.206   8.657  0.4569  0.1122 -0.0686
   27MOL0     C 3536   4.117   9.281   8.612  0.0008  0.6072 -0.2993
   27MOL0     C 3537   4.181   9.247   8.487  0.6042  0.1978  0.3682
   27MOL0     C 3538   4.293   9.325   8.427 -0.1381 -0.0146  0.1656
   27MOL0     C 3539   4.130   9.129   8.414 -0.3799 -0.4673 -0.5235
   27MOL0     C 3540   4.193   9.074   8.290 -0.0038  0.5504  0.4738
   27MOL0     O 3541   4.198   8.931   8.280 -0.9921 -0.1974 -0.2040
   27MOL0     C 3542   4.223   8.884   8.154 -0.0517 -0.0080 -0.0030
   27MOL0     C 3543   4.151   8.774   8.103  0.2592  0.0701  0.3130
   27MOL0     C 3544   4.173   8.704   7.978 -0.4407  0.0293 -0.2519
   27MOL0     C 3545   4.275   8.763   7.898 -0.8622  0.8071  0.0933
   27MOL0     O 3546   4.305   8.734   7.771  0.4075 -0.4178 -0.6545
   27MOL0     C 3547   4.206   8.652   7.699 -0.1921 -0.3150 -1.6183
   27MOL0     C 3548   4.251   8.646   7.553  0.3325  1.0700 -0.6163
   27MOL0     C 3549   4.314   8.773   7.485 -0.0372 -0.1796  0.2861
   27MOL0     C 3550   4.315   8.761   7.333  0.8392 -0.4465 -0.1004
   27MOL0     C 3551   4.313   8.892   7.261  0.3221  0.1051  0.2245
   27MOL0     C 3552   4.418   8.907   7.150  0.4090 -0.1947  0.0250
   27MOL0     C 3553   4.416   9.035   7.069  0.6002 -0.3694  0.3652
   27MOL0     C 3554   4.480   9.155   7.135 -0.0922  0.6416  0.4060
   27MOL0    Cl 3555   4.512   9.281   7.025 -0.3198  0.2282 -0.2966
   27MOL0     C 3556   4.351   8.868   7.950  0.0081  0.8719  0.2402
   27MOL0     C 3557   4.335   8.931   8.077 -0.3832  0.3714 -0.1892
   27MOL0     O 3558   4.213   9.154   8.199  0.4672 -0.7732  0.3034
   27MOL0     C 3559   4.027   9.059   8.472  0.2569 -0.0559  0.2934
   27MOL0     C 3560   3.968   9.092   8.592  0.1340  0.4342  0.1058
   27MOL0     N 3561   3.596   9.345   9.317  0.2156 -0.1705  0.4010
   27MOL0     N 3562   3.575   9.267   9.415 -0.6197  0.7147 -0.5193
   27MOL0     C 3563   2.811   9.231   9.406  0.0620  0.7601  0.0804
   27MOL0     C 3564   2.758   9.352   9.385 -0.8015  0.2945  0.5109
   27MOL0     C 3565   2.679   9.803   9.325 -0.6949 -0.6214  0.4255
   27MOL0     C 3566   2.550   9.825   9.366 -0.9001 -0.0500  0.2312
   27MOL0     C 3567   2.471   9.933   9.317 -0.3616 -0.3359 -0.5512
   27MOL0     C 3568   2.514  10.025   9.220  0.4518  0.6206  0.3414
   27MOL0     O 3569   2.423  10.111   9.173 -0.1171 -0.9840  0.3427
   27MOL0     C 3570   2.465  10.218   9.080  0.3025  0.2874 -0.1990
   27MOL0     C 3571   2.479  10.358   9.139  0.8832 -0.3084 -0.9174
   27MOL0     C 3572   2.339  10.424   9.173 -0.6407  0.4137 -0.5900
   27MOL0     C 3573   2.251  10.356   9.276  0.3378 -0.0853 -0.4409
   27MOL0     C 3574   2.129  10.435   9.311 -0.8789 -0.6068 -0.9052
   27MOL0     C 3575   2.025  10.495   9.336 -0.0794  0.4512 -0.2525
   27MOL0     C 3576   2.655  10.008   9.186  0.9977 -0.2256 -0.6051
   27MOL0     C 3577   2.732   9.896   9.229  0.0852  0.9997  0.1219
   27MOL0     H 3578   2.880   9.537   9.632  2.3690 -0.0189 -0.1908
   27MOL0     H 3579   2.991   9.325   9.684  1.1461  2.8872 -0.5261
   27MOL0     H 3580   2.796   8.977   9.477  1.6836 -2.0898 -2.0614
   27MOL0     H 3581   2.947   8.925   9.437 -0.1535 -0.3096  0.0955
   27MOL0     H 3582   2.876   8.892   9.711 -0.8111 -2.1201  0.0341
   27MOL0     H 3583   2.879   8.768   9.587  0.4893 -1.1931 -0.0167
   27MOL0     H 3584   3.101   8.920   9.720  1.9983 -0.2176 -0.4153
   27MOL0     H 3585   3.071   8.750   9.737 -3.2920  0.0861  0.2959
   27MOL0     H 3586   3.149   8.734   9.485 -1.6568 -0.4466  0.8354
   27MOL0     H 3587   3.178   8.912   9.483 -0.9120  1.5974  0.3253
   27MOL0     H 3588   3.322   8.849   9.709 -3.3391  1.7033  0.0795
   27MOL0     H 3589   3.307   8.688   9.627 -0.1604  0.1602  1.6872
   27MOL0     H 3590   3.536   8.800   9.566  0.8896 -0.6428 -2.1132
   27MOL0     H 3591   3.433   8.762   9.434  2.4673  1.1667 -0.6707
   27MOL0     H 3592   3.402   8.954   9.353  1.7866  1.1371 -1.0425
   27MOL0     H 3593   3.375   9.029   9.518  0.3417 -2.3429  4.0190
   27MOL0     H 3594   3.651   8.956   9.437 -1.3383  0.0021 -1.2497
   27MOL0     H 3595   3.586   9.063   9.566 -0.0875  3.1496 -1.2874
   27MOL0     H 3596   3.598   9.048   9.189 -0.3917 -0.4475 -0.8050
   27MOL0     H 3597   3.525   9.282   9.017  0.5800 -2.6863  0.7548
   27MOL0     H 3598   3.609   9.434   9.074 -0.4836 -0.4090 -0.1086
   27MOL0     H 3599   3.783   9.197   8.983  1.0696  1.1511 -6.1990
   27MOL0     H 3600   3.837   9.342   9.059 -0.5578 -0.8354  1.2067
   27MOL0     H 3601   3.740   9.486   8.898 -0.5043  0.3776  0.9692
   27MOL0     H 3602   3.685   9.343   8.794 -0.1179 -0.3806  0.3913
   27MOL0     H 3603   3.968   9.400   8.869  1.0490 -1.1333 -0.3457
   27MOL0     H 3604   3.898   9.434   8.709  0.4686 -0.6776 -1.2955
   27MOL0     H 3605   4.147   9.360   8.681  1.7409  0.1000 -0.4344
   27MOL0     H 3606   4.374   9.269   8.381  0.1353  2.3258 -2.4548
   27MOL0     H 3607   4.250   9.400   8.359 -2.6299  1.1126  2.7891
   27MOL0     H 3608   4.342   9.376   8.510 -0.1032 -0.1439  0.2245
   27MOL0     H 3609   4.081   8.733   8.175  1.8432 -1.8231  0.8644
   27MOL0     H 3610   4.106   8.628   7.938 -2.6482  1.9642 -0.4311
   27MOL0     H 3611   4.201   8.550   7.738 -0.5442 -0.1636 -1.2707
   27MOL0     H 3612   4.106   8.695   7.712 -0.7550 -2.3613  1.9641
   27MOL0     H 3613   4.328   8.569   7.557 -0.1099  0.5965 -1.1274
   27MOL0     H 3614   4.167   8.607   7.494 -1.0256  0.1475  1.7616
   27MOL0     H 3615   4.411   8.790   7.533  0.0173 -2.4566  1.0772
   27MOL0     H 3616   4.258   8.860   7.522 -0.1070  0.3086 -0.9185
   27MOL0     H 3617   4.409   8.710   7.307  2.1094  2.5378 -1.8263
   27MOL0     H 3618   4.227   8.702   7.306 -1.2233  1.3345  2.2380
   27MOL0     H 3619   4.316   8.981   7.325 -2.8002  0.1269  0.4817
   27MOL0     H 3620   4.214   8.900   7.217 -0.2611 -0.1077  1.4588
   27MOL0     H 3621   4.523   8.895   7.176  1.1160 -1.5495 -3.0077
   27MOL0     H 3622   4.389   8.832   7.076 -2.4924 -0.6940  1.4936
   27MOL0     H 3623   4.312   9.069   7.065  1.0059  0.8309 -1.7002
   27MOL0     H 3624   4.453   9.025   6.967  2.4230  3.5755  0.4344
   27MOL0     H 3625   4.580   9.124   7.166  0.5269 -0.1162 -2.1062
   27MOL0     H 3626   4.425   9.198   7.220 -1.2921  0.4957 -0.2676
   27MOL0     H 3627   4.432   8.906   7.887  1.2513  0.9312  1.7956
   27MOL0     H 3628   4.390   9.012   8.124  0.8223 -0.8999  0.6699
   27MOL0     H 3629   3.985   8.977   8.414  3.3052 -2.2579  0.9929
   27MOL0     H 3630   3.899   9.020   8.636 -1.0380  0.0120 -2.2435
   27MOL0     H 3631   2.783   9.140   9.354 -0.5579  0.1911  1.3478
   27MOL0     H 3632   2.683   9.363   9.308 -0.2892  3.0686  0.2931
   27MOL0     H 3633   2.491   9.767   9.436 -1.0642 -2.6094 -1.8631
   27MOL0     H 3634   2.375   9.964   9.358  1.0772 -0.0566  2.9522
   27MOL0     H 3635   2.556  10.190   9.026 -0.5051 -0.8190 -1.0361
   27MOL0     H 3636   2.395  10.223   8.995  1.2020 -0.7331 -1.0374
   27MOL0     H 3637   2.531  10.430   9.075  2.2157 -2.1178 -1.9622
   27MOL0     H 3638   2.537  10.346   9.231 -3.1506 -1.4332  1.7611
   27MOL0     H 3639   2.276  10.445   9.086 -1.1236  1.9489  0.0900
   27MOL0     H 3640   2.363  10.521   9.219 -1.0260 -0.8536  2.5486
   27MOL0     H 3641   2.305  10.344   9.370 -0.4377  0.7799  0.1321
   27MOL0     H 3642   2.228  10.258   9.232 -0.0262  0.7177 -2.1324
   27MOL0     H 3643   1.933  10.549   9.337 -0.3542  0.1018 -2.2992
   27MOL0     H 3644   2.712  10.075   9.122  1.2692  1.1760  1.0304
   27MOL0     H 3645   2.827   9.881   9.179 -0.3106 -0.7846 -0.1631
   28MOL0     O 3646   1.585  11.389   2.753 -0.2054 -0.3255 -0.2293
   28MOL0     C 3647   1.575  11.500   2.700  0.0490  0.3030  0.9540
   28MOL0     O 3648   1.666  11.608   2.724  0.3673 -0.4143 -0.3651
   28MOL0     C 3649   1.775  11.593   2.806 -0.6133 -0.4232 -0.9321
   28MOL0     C 3650   1.798  11.692   2.898  0.2221  0.5099  0.4181
   28MOL0     C 3651   1.906  11.698   2.991  0.4486 -0.1520  0.5379
   28MOL0     C 3652   2.009  11.601   2.963  0.2311 -0.0778  0.6054
   28MOL0     O 3653   2.131  11.579   3.020  0.1238 -0.0645  0.3682
   28MOL0     C 3654   2.180  11.677   3.119 -0.7296  0.4946  0.3872
   28MOL0     C 3655   2.330  11.703   3.070  0.3775  0.3172 -0.3531
   28MOL0     C 3656   2.421  11.784   3.164 -0.1346  0.1608  0.2063
   28MOL0     C 3657   2.554  11.803   3.103  0.3405  0.1996  0.1909
   28MOL0     C 3658   2.667  11.852   3.200 -0.3726 -0.0353  0.5391
   28MOL0     C 3659   2.808  11.860   3.143 -0.8655 -0.3542  0.6773
   28MOL0     C 3660   2.843  11.986   3.053  0.1817  0.0586 -0.2143
   28MOL0     C 3661   2.876  12.118   3.128  0.8992  0.3218  0.0769
   28MOL0     N 3662   2.947  12.221   3.059 -0.1707 -0.8773 -0.3068
   28MOL0     C 3663   3.054  12.196   2.980  1.2883  0.2456  0.0232
   28MOL0     C 3664   3.053  12.305   2.896 -0.1563  0.2193  0.1164
   28MOL0     C 3665   3.131  12.333   2.776  0.2061 -0.1231 -0.4895
   28MOL0     C 3666   3.045  12.325   2.650 -0.1616  0.6358 -1.8369
   28MOL0     C 3667   3.026  12.176   2.599 -0.2926  0.0198  0.7296
   28MOL0     C 3668   2.935  12.179   2.460 -0.8276 -0.5414  0.3313
   28MOL0     O 3669   3.009  12.162   2.338  0.5572  0.1379  0.1743
   28MOL0     C 3670   2.940  12.161   2.216 -0.7951 -0.0535 -0.2523
   28MOL0     C 3671   3.034  12.141   2.117 -0.1316 -1.0050 -0.1096
   28MOL0     C 3672   3.000  12.104   1.989  0.1305 -0.5628 -0.6811
   28MOL0     C 3673   3.121  12.073   1.895 -0.0732 -0.7753 -0.4308
   28MOL0     C 3674   2.858  12.108   1.952 -0.7079 -0.1109 -0.3216
   28MOL0     C 3675   2.811  12.095   1.809  0.4091  0.8247 -1.2423
   28MOL0     O 3676   2.675  12.098   1.782  0.1393 -0.2197 -0.1157
   28MOL0     C 3677   2.638  12.083   1.652  0.4029  0.1600 -0.4766
   28MOL0     C 3678   2.624  11.959   1.586 -0.7179 -0.3078  0.8164
   28MOL0     C 3679   2.555  11.942   1.458  0.7125 -0.3216 -1.1139
   28MOL0     C 3680   2.523  12.059   1.384 -0.5465  0.2508  0.3155
   28MOL0     O 3681   2.484  12.074   1.258  0.0776 -0.2411  0.4208
   28MOL0     C 3682   2.427  11.960   1.195  0.1899  0.5429  1.1966
   28MOL0     C 3683   2.374  11.988   1.053 -0.3541  0.1062  0.2497
   28MOL0     C 3684   2.314  11.877   0.980  0.0912  0.4837 -0.4066
   28MOL0     C 3685   2.319  11.889   0.831 -0.2904 -0.5184  0.2386
   28MOL0     C 3686   2.244  11.782   0.750  0.0462 -0.2052  0.2584
   28MOL0     C 3687   2.092  11.774   0.778  0.1465  0.0737 -0.0697
   28MOL0     C 3688   2.032  11.665   0.689  0.3898  0.0763 -0.3618
   28MOL0     C 3689   1.885  11.650   0.721  0.3574  0.3964 -0.8179
   28MOL0    Cl 3690   1.802  11.791   0.645 -0.0095  0.5597 -0.3346
   28MOL0     C 3691   2.548  12.181   1.448 -0.0777 -0.0536 -1.0850
   28MOL0     C 3692   2.592  12.197   1.584  0.9872  0.7075  0.1282
   28MOL0     O 3693   2.895  12.063   1.723  0.8321 -0.7370 -0.7184
   28MOL0     C 3694   2.769  12.122   2.057  0.0880  0.7507 -0.1537
   28MOL0     C 3695   2.806  12.142   2.191 -0.4162  0.3440  0.1362
   28MOL0     N 3696   2.959  12.392   2.948  0.3304 -0.6568  0.6163
   28MOL0     N 3697   2.885  12.340   3.039 -0.9567 -0.6463 -0.7427
   28MOL0     C 3698   1.981  11.496   2.870 -0.0273  0.0828 -0.4344
   28MOL0     C 3699   1.866  11.492   2.791  0.8876  0.6370  0.3383
   28MOL0     C 3700   1.470  11.515   2.601  0.0738 -0.2707 -0.3658
   28MOL0     C 3701   1.378  11.414   2.577  0.4302  0.1977  0.1923
   28MOL0     C 3702   1.258  11.435   2.507 -0.3854  0.1761  0.6177
   28MOL0     C 3703   1.227  11.556   2.461 -1.3410 -0.0054 -0.4246
   28MOL0     O 3704   1.100  11.563   2.406  0.3425 -0.3009  0.5900
   28MOL0     C 3705   1.105  11.553   2.258 -0.3264  1.0539  0.0508
   28MOL0     C 3706   1.029  11.673   2.205  0.5115 -0.0337 -0.4710
   28MOL0     C 3707   0.997  11.667   2.054  1.0193  1.0479  0.1244
   28MOL0     C 3708   1.121  11.633   1.967  0.0765 -0.4119  0.1422
   28MOL0     C 3709   1.103  11.665   1.823 -0.8540 -0.5989 -0.4409
   28MOL0     C 3710   1.090  11.708   1.706  0.3103  1.1128 -0.9242
   28MOL0     C 3711   1.324  11.660   2.479  0.2683 -0.1231  0.4610
   28MOL0     C 3712   1.448  11.638   2.540 -0.5097 -0.1674 -0.0352
   28MOL0     H 3713   1.714  11.760   2.914  0.6476  1.1431  0.0042
   28MOL0     H 3714   1.915  11.767   3.074  2.3118 -0.3812  0.5678
   28MOL0     H 3715   2.123  11.770   3.120 -0.2804  0.7744  0.7318
   28MOL0     H 3716   2.173  11.636   3.221  1.8514 -0.2052  0.3539
   28MOL0     H 3717   2.364  11.600   3.058 -0.8931 -0.0157 -1.4225
   28MOL0     H 3718   2.323  11.744   2.969 -1.3525 -1.1604 -0.9000
   28MOL0     H 3719   2.376  11.879   3.195 -2.4742  0.4243 -3.3501
   28MOL0     H 3720   2.443  11.737   3.260 -0.5519 -1.4297 -0.4308
   28MOL0     H 3721   2.571  11.699   3.073 -1.9284 -2.0666  5.4323
   28MOL0     H 3722   2.547  11.873   3.019  1.7039 -0.1296 -0.2207
   28MOL0     H 3723   2.627  11.946   3.239 -2.5540 -1.6013  2.3329
   28MOL0     H 3724   2.671  11.788   3.289  0.2221  1.7729  1.8660
   28MOL0     H 3725   2.877  11.855   3.228 -1.3112 -2.3775  0.9771
   28MOL0     H 3726   2.837  11.773   3.083 -1.7832  0.3547 -0.8413
   28MOL0     H 3727   2.926  11.964   2.985 -0.7130 -1.9637 -0.7144
   28MOL0     H 3728   2.752  12.002   2.996  0.6993  0.8152 -0.8610
   28MOL0     H 3729   2.924  12.090   3.223 -0.5120  3.0429  1.7379
   28MOL0     H 3730   2.783  12.169   3.157 -0.9342 -2.2056 -0.9478
   28MOL0     H 3731   3.115  12.107   2.982 -1.1788 -1.6322  4.0482
   28MOL0     H 3732   3.178  12.431   2.780 -0.2739  0.2253 -2.3342
   28MOL0     H 3733   3.217  12.267   2.763 -1.0440 -2.0965  0.7544
   28MOL0     H 3734   3.089  12.397   2.581 -0.5067  3.1192  0.3734
   28MOL0     H 3735   2.947  12.370   2.673 -0.3448 -0.3902 -0.3965
   28MOL0     H 3736   2.961  12.122   2.668 -0.6713  0.4288  0.6950
   28MOL0     H 3737   3.120  12.124   2.577  1.3951  2.6114  1.4252
   28MOL0     H 3738   2.869  12.267   2.457 -1.9375 -1.2508  2.2136
   28MOL0     H 3739   2.879  12.087   2.480 -0.4715 -0.7590  0.3159
   28MOL0     H 3740   3.139  12.148   2.144 -0.4131 -0.9509  1.0202
   28MOL0     H 3741   3.111  11.989   1.826  5.8656 -0.3878 -2.2886
   28MOL0     H 3742   3.129  12.163   1.833 -3.4933  0.4171  0.6004
   28MOL0     H 3743   3.205  12.055   1.963 -0.7037 -0.4787  0.4510
   28MOL0     H 3744   2.662  11.870   1.636  1.3131 -1.8143 -3.0193
   28MOL0     H 3745   2.531  11.846   1.414 -1.9051 -1.4490  2.3091
   28MOL0     H 3746   2.504  11.882   1.189  0.7224  1.1420 -0.8269
   28MOL0     H 3747   2.340  11.925   1.251 -0.6204  0.2268 -0.2211
   28MOL0     H 3748   2.291  12.059   1.057 -0.5228 -0.0420 -0.5270
   28MOL0     H 3749   2.447  12.042   0.992 -1.0498  2.2182  1.1998
   28MOL0     H 3750   2.209  11.864   1.009  0.3297 -4.1019 -0.8465
   28MOL0     H 3751   2.363  11.785   1.012 -0.2279  0.0149 -1.2452
   28MOL0     H 3752   2.274  11.984   0.801  1.2015  0.5654  1.2645
   28MOL0     H 3753   2.427  11.898   0.817  0.4828 -2.5549  3.5785
   28MOL0     H 3754   2.283  11.680   0.758 -0.8913 -0.4839  1.6620
   28MOL0     H 3755   2.261  11.798   0.643 -0.8334  4.0478  0.5830
   28MOL0     H 3756   2.068  11.765   0.885  1.7521 -4.0866  0.1347
   28MOL0     H 3757   2.053  11.871   0.746  0.2755 -0.3148 -1.4567
   28MOL0     H 3758   2.077  11.567   0.705 -0.9642 -0.8696 -1.9519
   28MOL0     H 3759   2.048  11.691   0.584  1.9482 -1.4119 -0.5290
   28MOL0     H 3760   1.866  11.656   0.828 -4.5758  0.6170 -1.4642
   28MOL0     H 3761   1.862  11.552   0.680  1.3350 -0.4135  0.5039
   28MOL0     H 3762   2.536  12.276   1.397  0.1202 -0.8025 -2.5490
   28MOL0     H 3763   2.596  12.297   1.626 -3.0018  1.1305 -0.1230
   28MOL0     H 3764   2.667  12.093   2.033  0.1339 -1.2297  1.7787
   28MOL0     H 3765   2.732  12.134   2.270  0.3294 -4.8078  0.6690
   28MOL0     H 3766   2.053  11.416   2.884  1.3971  1.3273 -0.3861
   28MOL0     H 3767   1.861  11.422   2.709 -0.2577  0.4053  0.5850
   28MOL0     H 3768   1.374  11.313   2.618 -2.7897  0.7552  1.5039
   28MOL0     H 3769   1.180  11.361   2.488 -0.3384 -0.1840  1.7027
   28MOL0     H 3770   1.208  11.560   2.224 -0.1389  1.3892  0.6592
   28MOL0     H 3771   1.056  11.464   2.218  1.5687  0.2181 -0.4816
   28MOL0     H 3772   1.098  11.757   2.219 -1.2663  1.9075 -2.6222
   28MOL0     H 3773   0.932  11.683   2.254  0.8940  1.9596 -0.0387
   28MOL0     H 3774   0.942  11.755   2.022 -0.4077  0.2399  0.2524
   28MOL0     H 3775   0.928  11.583   2.046  0.5366  0.8632  4.1178
   28MOL0     H 3776   1.150  11.528   1.970  0.8794 -0.2480 -1.1826
   28MOL0     H 3777   1.207  11.694   1.997  0.5475 -0.9063 -0.1976
   28MOL0     H 3778   1.064  11.737   1.606 -2.5795  1.8218 -0.0869
   28MOL0     H 3779   1.297  11.753   2.430  0.1577  1.0673  2.6430
   28MOL0     H 3780   1.513  11.725   2.544 -1.1327  0.3056  0.0370
   29MOL0     O 3781   3.015   4.746   8.521  0.0522  0.6295 -0.0813
   29MOL0     C 3782   2.916   4.762   8.593  0.5453  0.3446 -0.2183
   29MOL0     O 3783   2.836   4.872   8.606  0.2169 -0.0622 -0.4211
   29MOL0     C 3784   2.845   4.970   8.506  0.2108  0.1947  0.0607
   29MOL0     C 3785   2.964   5.058   8.485  1.1694  0.5191 -0.3400
   29MOL0     C 3786   2.959   5.151   8.379  1.0195 -0.6305  0.4005
   29MOL0     C 3787   2.839   5.165   8.307 -0.4720  0.2835  0.5108
   29MOL0     O 3788   2.823   5.243   8.193  0.4524 -0.0899  0.8195
   29MOL0     C 3789   2.932   5.305   8.125 -0.2885  0.8507 -0.3405
   29MOL0     C 3790   2.876   5.404   8.024 -0.3287  0.1426 -1.1817
   29MOL0     C 3791   2.785   5.513   8.086 -0.6398 -0.6551  0.2055
   29MOL0     C 3792   2.633   5.489   8.103 -0.4211  0.9069  1.0622
   29MOL0     C 3793   2.542   5.530   7.992 -0.7727 -0.2717 -0.0127
   29MOL0     C 3794   2.571   5.463   7.860 -0.1548  0.4636 -0.4628
   29MOL0     C 3795   2.441   5.473   7.764  0.9399 -0.8740 -0.0625
   29MOL0     C 3796   2.312   5.389   7.798 -1.1573 -0.0256 -0.1099
   29MOL0     N 3797   2.314   5.266   7.716 -0.2730  0.4971 -0.3050
   29MOL0     C 3798   2.421   5.189   7.669 -0.5036  0.5367  0.5548
   29MOL0     C 3799   2.356   5.087   7.614 -0.6222 -0.6240  0.7375
   29MOL0     C 3800   2.408   4.963   7.548  0.1776  0.4372  0.2466
   29MOL0     C 3801   2.503   4.877   7.639  1.1343 -0.2805 -0.4775
   29MOL0     C 3802   2.569   4.766   7.568  0.0070  0.1204  0.2493
   29MOL0     C 3803   2.639   4.679   7.666 -0.0269  0.4624  0.4031
   29MOL0     O 3804   2.706   4.567   7.615  0.3814  0.0039  0.5530
   29MOL0     C 3805   2.840   4.570   7.604 -1.2222  0.4128 -0.3225
   29MOL0     C 3806   2.901   4.517   7.492 -1.1277  0.2661 -0.2794
   29MOL0     C 3807   3.044   4.494   7.487 -0.5640 -0.0770 -0.0687
   29MOL0     C 3808   3.095   4.431   7.357  0.2113 -0.2127 -0.5946
   29MOL0     C 3809   3.118   4.499   7.618 -0.6453  0.4058  0.9132
   29MOL0     C 3810   3.257   4.445   7.635 -0.0719 -0.7549  0.0611
   29MOL0     O 3811   3.304   4.441   7.759  0.5370 -0.6114 -0.3606
   29MOL0     C 3812   3.420   4.378   7.768  0.1930  0.2575  1.2977
   29MOL0     C 3813   3.547   4.434   7.748  0.0914 -0.0899 -0.4689
   29MOL0     C 3814   3.661   4.352   7.752 -0.1118  0.1474  0.9244
   29MOL0     C 3815   3.644   4.213   7.767 -0.3814  0.8303  0.2893
   29MOL0     O 3816   3.764   4.130   7.771  0.7987 -0.6011 -0.6889
   29MOL0     C 3817   3.882   4.166   7.703  0.6063 -1.0822 -0.6420
   29MOL0     C 3818   3.976   4.241   7.808  0.1313  0.3033 -0.0691
   29MOL0     C 3819   4.069   4.338   7.728 -0.0189  0.8388 -0.6221
   29MOL0     C 3820   4.194   4.371   7.812  0.1569 -0.5384  0.6278
   29MOL0     C 3821   4.182   4.506   7.881 -0.5474  0.8983  0.3231
   29MOL0     C 3822   4.306   4.536   7.962 -0.2605 -0.3742  0.8260
   29MOL0     C 3823   4.290   4.664   8.054  0.3352 -0.1936 -0.9002
   29MOL0     C 3824   4.360   4.648   8.192 -0.5419  0.5538 -0.1892
   29MOL0    Cl 3825   4.237   4.560   8.298  0.0097  0.4542  0.0792
   29MOL0     C 3826   3.520   4.154   7.804 -1.3362 -0.6286  0.4240
   29MOL0     C 3827   3.409   4.238   7.796  0.4178  0.1615  0.1753
   29MOL0     O 3828   3.318   4.424   7.531 -0.3001  0.8072  0.5493
   29MOL0     C 3829   3.050   4.564   7.720 -0.1839 -0.2247 -0.1278
   29MOL0     C 3830   2.917   4.607   7.717  0.0081  0.6387  0.2044
   29MOL0     N 3831   2.219   5.098   7.623 -0.0615 -0.2719  0.0963
   29MOL0     N 3832   2.201   5.201   7.698 -0.4385 -0.1364  0.6881
   29MOL0     C 3833   2.730   5.086   8.333 -0.9625  0.1324  0.3973
   29MOL0     C 3834   2.730   4.987   8.435 -0.1384  1.6815 -0.0933
   29MOL0     C 3835   2.893   4.646   8.682  0.7074  0.2043  0.0314
   29MOL0     C 3836   2.811   4.671   8.791  0.0568  0.3593  0.0057
   29MOL0     C 3837   2.781   4.562   8.874  0.5783 -0.8786 -0.4538
   29MOL0     C 3838   2.833   4.436   8.863  0.1464 -0.2390 -0.3539
   29MOL0     O 3839   2.804   4.347   8.959 -0.0656 -0.2013 -0.0803
   29MOL0     C 3840   2.881   4.225   8.962  0.3117 -0.6535 -0.4907
   29MOL0     C 3841   2.806   4.122   8.870 -0.4196 -0.4417 -0.1398
   29MOL0     C 3842   2.867   3.989   8.885 -0.4947 -0.0830 -0.1859
   29MOL0     C 3843   2.814   3.890   8.781 -0.7105  0.9336 -0.5178
   29MOL0     C 3844   2.856   3.922   8.645 -0.0521  0.7837  0.0587
   29MOL0     C 3845   2.881   3.947   8.527  0.2153 -0.6824 -0.3211
   29MOL0     C 3846   2.906   4.409   8.749 -0.4770  1.0975  0.3463
   29MOL0     C 3847   2.927   4.513   8.658 -0.5331 -0.5172  0.1177
   29MOL0     H 3848   3.058   5.035   8.534 -0.1793 -0.5086  1.8921
   29MOL0     H 3849   3.052   5.201   8.356 -0.3756  1.3289 -1.3663
   29MOL0     H 3850   3.002   5.356   8.191 -1.1847 -0.0594  1.3920
   29MOL0     H 3851   2.997   5.231   8.076 -2.2089 -2.4513  1.7156
   29MOL0     H 3852   2.954   5.447   7.960  0.0219 -0.2348 -1.0154
   29MOL0     H 3853   2.808   5.351   7.957 -2.0617 -0.2465  0.7675
   29MOL0     H 3854   2.830   5.531   8.185  0.6324 -1.7576 -0.1393
   29MOL0     H 3855   2.799   5.606   8.030 -0.8687  0.9507  2.6378
   29MOL0     H 3856   2.618   5.382   8.121 -0.6066  1.0591  1.8518
   29MOL0     H 3857   2.609   5.537   8.198  0.3592  0.7122  1.3644
   29MOL0     H 3858   2.436   5.526   8.019 -0.6050  2.5171  1.3901
   29MOL0     H 3859   2.563   5.635   7.967 -1.1233 -0.0733  0.4973
   29MOL0     H 3860   2.661   5.499   7.808  0.0294 -2.0378 -2.0594
   29MOL0     H 3861   2.585   5.355   7.869 -1.8947  0.0467 -2.0869
   29MOL0     H 3862   2.409   5.577   7.756  1.5956 -0.7471 -1.3515
   29MOL0     H 3863   2.479   5.453   7.663  3.1863  1.8902  0.0906
   29MOL0     H 3864   2.223   5.449   7.779 -0.1204  1.8703  0.8125
   29MOL0     H 3865   2.305   5.377   7.906 -0.1252 -0.6360 -0.0933
   29MOL0     H 3866   2.528   5.206   7.680 -0.3153 -0.1848 -0.0722
   29MOL0     H 3867   2.324   4.901   7.514 -1.2172 -0.2603  4.3119
   29MOL0     H 3868   2.470   4.989   7.462 -1.0668  2.7406 -0.0283
   29MOL0     H 3869   2.430   4.838   7.710  0.8582 -2.0006 -1.6535
   29MOL0     H 3870   2.568   4.955   7.682 -2.3219  1.0419  2.9234
   29MOL0     H 3871   2.631   4.825   7.500  2.3512 -0.1769  2.0086
   29MOL0     H 3872   2.499   4.709   7.507  1.1236  1.3296 -2.3295
   29MOL0     H 3873   2.573   4.631   7.738 -1.7734 -1.1528 -2.1046
   29MOL0     H 3874   2.704   4.746   7.723  0.1757 -2.1107  3.4794
   29MOL0     H 3875   2.839   4.476   7.412  1.5002 -0.0040 -2.2959
   29MOL0     H 3876   3.012   4.420   7.287 -0.7563  1.0353  0.3205
   29MOL0     H 3877   3.169   4.498   7.314 -0.1442  0.6062  0.0550
   29MOL0     H 3878   3.135   4.329   7.368 -2.1296 -0.9385  5.3633
   29MOL0     H 3879   3.568   4.540   7.734  0.0105 -0.2336 -1.7535
   29MOL0     H 3880   3.751   4.413   7.748  0.2987 -0.3832  1.8846
   29MOL0     H 3881   3.931   4.073   7.675  0.1544 -2.2561  2.1563
   29MOL0     H 3882   3.879   4.230   7.614 -0.7643 -0.9812 -0.5447
   29MOL0     H 3883   3.925   4.305   7.880 -1.1964  0.3722 -1.0205
   29MOL0     H 3884   4.034   4.160   7.853 -0.6256 -0.6243 -0.7311
   29MOL0     H 3885   4.018   4.425   7.687 -0.1770 -0.1809 -2.7337
   29MOL0     H 3886   4.090   4.293   7.631 -0.5488  0.6835 -0.6655
   29MOL0     H 3887   4.234   4.289   7.873  5.0341 -0.5721 -2.0816
   29MOL0     H 3888   4.279   4.389   7.745 -0.2985  2.8447  0.7663
   29MOL0     H 3889   4.108   4.494   7.960  0.7806 -3.3691  1.2118
   29MOL0     H 3890   4.165   4.592   7.815  0.3635  0.5768 -0.3613
   29MOL0     H 3891   4.338   4.451   8.024  1.9882 -0.1958  0.0150
   29MOL0     H 3892   4.388   4.547   7.890 -0.7488 -3.1710 -0.2853
   29MOL0     H 3893   4.186   4.692   8.071  1.1190  1.2107  2.5701
   29MOL0     H 3894   4.346   4.740   7.999  0.7818  0.5670  0.5547
   29MOL0     H 3895   4.382   4.744   8.240 -0.3911  0.2698  0.3178
   29MOL0     H 3896   4.455   4.595   8.183  0.4760  2.3141 -0.3341
   29MOL0     H 3897   3.520   4.053   7.844  1.4475 -0.2207  1.7215
   29MOL0     H 3898   3.314   4.191   7.819  0.3276 -0.0634 -0.6198
   29MOL0     H 3899   3.103   4.605   7.805  1.1749  0.5735 -1.3050
   29MOL0     H 3900   2.870   4.667   7.794 -0.8963 -0.5664  0.6193
   29MOL0     H 3901   2.653   5.113   8.261 -1.8200  1.2106  1.6808
   29MOL0     H 3902   2.645   4.925   8.460  1.9492 -2.0171 -1.3940
   29MOL0     H 3903   2.755   4.759   8.820  1.5259  0.4839  2.8016
   29MOL0     H 3904   2.714   4.593   8.953  3.0042  1.4380  0.8375
   29MOL0     H 3905   2.986   4.222   8.931 -0.3410 -0.1037 -2.9468
   29MOL0     H 3906   2.879   4.192   9.066 -0.2532 -2.5417 -1.0680
   29MOL0     H 3907   2.824   4.150   8.766  3.0062 -1.1347  0.1449
   29MOL0     H 3908   2.697   4.116   8.882 -0.5095 -2.8918 -1.5867
   29MOL0     H 3909   2.848   3.947   8.984  0.7433  0.2700  0.2153
   29MOL0     H 3910   2.975   4.002   8.882 -0.4199 -0.6092  0.0920
   29MOL0     H 3911   2.705   3.887   8.774 -0.7501 -0.5387  0.3589
   29MOL0     H 3912   2.843   3.788   8.807  0.6511  1.2318 -0.7953
   29MOL0     H 3913   2.902   3.994   8.433 -1.0357 -1.5410 -1.0617
   29MOL0     H 3914   2.953   4.314   8.724 -1.2391  1.0597 -1.0873
   29MOL0     H 3915   2.979   4.493   8.565  1.5503  0.2376  1.0541
   30MOL0     O 3916   6.870   0.509   7.318 -0.0105 -0.1980  0.3941
   30MOL0     C 3917   6.850   0.457   7.423 -0.4070  0.6646 -0.9666
   30MOL0     O 3918   6.722   0.429   7.469 -0.7321 -0.5883 -0.8528
   30MOL0     C 3919   6.615   0.469   7.395 -0.8103  0.9521  0.4035
   30MOL0     C 3920   6.539   0.590   7.416 -0.2779 -0.5620 -0.4255
   30MOL0     C 3921   6.427   0.611   7.333  0.4083 -0.4443 -0.4927
   30MOL0     C 3922   6.387   0.519   7.237  0.6803  0.0665  0.5082
   30MOL0     O 3923   6.287   0.551   7.151 -0.6012 -0.7822  0.2962
   30MOL0     C 3924   6.208   0.444   7.097 -0.3185  0.5205 -0.6886
   30MOL0     C 3925   6.079   0.512   7.042  1.2375  0.7105  1.3865
   30MOL0     C 3926   5.986   0.581   7.142  0.2913  0.5181 -0.1993
   30MOL0     C 3927   5.866   0.648   7.085 -0.1629 -1.1027  0.5959
   30MOL0     C 3928   5.780   0.737   7.189  0.5349 -0.0214  0.5708
   30MOL0     C 3929   5.633   0.751   7.135 -0.2091  1.2009 -1.0470
   30MOL0     C 3930   5.550   0.804   7.252  0.6614 -0.0021 -0.3798
   30MOL0     C 3931   5.399   0.785   7.201 -0.0872  0.0572  1.0658
   30MOL0     N 3932   5.361   0.648   7.177  0.2644  0.3921  0.9111
   30MOL0     C 3933   5.419   0.546   7.246 -1.1460  0.2286 -0.1580
   30MOL0     C 3934   5.417   0.437   7.158  0.2289 -1.5776  0.7598
   30MOL0     C 3935   5.472   0.308   7.195  0.3993  0.2366  0.4705
   30MOL0     C 3936   5.610   0.280   7.138  0.2514  0.6819 -0.2709
   30MOL0     C 3937   5.717   0.243   7.241  1.2018 -0.3839 -0.5968
   30MOL0     C 3938   5.732   0.091   7.262  0.4740 -0.6029 -0.0855
   30MOL0     O 3939   5.789   0.080   7.400 -0.2830  0.2004  0.4556
   30MOL0     C 3940   5.915   0.034   7.424 -0.1337 -0.1556 -1.0402
   30MOL0     C 3941   6.028   0.073   7.346  0.1493  0.2340 -0.1792
   30MOL0     C 3942   6.157   0.028   7.379 -0.7092 -0.2310  0.2847
   30MOL0     C 3943   6.260   0.057   7.272 -0.4682  0.0263 -0.4623
   30MOL0     C 3944   6.176  -0.053   7.494 -0.0476 -1.0335  0.1762
   30MOL0     C 3945   6.313  -0.087   7.537 -0.3671 -0.2184 -0.6030
   30MOL0     O 3946   6.416  -0.056   7.462 -0.1504 -0.0347 -0.3122
   30MOL0     C 3947   6.542  -0.091   7.503  0.8858  0.2317 -0.3284
   30MOL0     C 3948   6.626  -0.017   7.574  0.9144  0.1068 -0.7066
   30MOL0     C 3949   6.759  -0.055   7.601  0.1734 -0.7695  0.6002
   30MOL0     C 3950   6.805  -0.177   7.567 -0.2064  0.7718  0.2046
   30MOL0     O 3951   6.929  -0.211   7.589 -0.3903  0.2087 -0.1055
   30MOL0     C 3952   6.984  -0.288   7.480  0.0634  0.7251  0.2844
   30MOL0     C 3953   7.132  -0.292   7.474 -0.1403 -0.5529 -1.2684
   30MOL0     C 3954   7.200  -0.170   7.544  0.6265  0.2165  0.3341
   30MOL0     C 3955   7.350  -0.195   7.538 -1.0906 -0.5594  0.1583
   30MOL0     C 3956   7.419  -0.082   7.600 -0.6419 -0.3290 -0.2045
   30MOL0     C 3957   7.572  -0.092   7.570  0.2316  0.8372 -0.3958
   30MOL0     C 3958   7.654   0.023   7.605 -1.2100  0.1711 -0.4130
   30MOL0     C 3959   7.773   0.033   7.511 -0.2851  1.0137  0.2297
   30MOL0    Cl 3960   7.864  -0.124   7.473  0.0515  0.5756 -0.2087
   30MOL0     C 3961   6.716  -0.263   7.497  0.2528 -0.1632 -0.6407
   30MOL0     C 3962   6.591  -0.213   7.461  0.9670 -0.4193  0.8232
   30MOL0     O 3963   6.320  -0.159   7.635 -0.6866 -0.0233  0.3329
   30MOL0     C 3964   6.074  -0.087   7.571  0.8232 -1.1325  0.8449
   30MOL0     C 3965   5.940  -0.040   7.538  0.0647  0.4342  0.2542
   30MOL0     N 3966   5.359   0.487   7.040 -0.1305  0.4677  0.2083
   30MOL0     N 3967   5.315   0.604   7.056  0.1679  0.0570 -0.3016
   30MOL0     C 3968   6.470   0.407   7.216  0.4671  0.2295 -0.1744
   30MOL0     C 3969   6.581   0.380   7.298 -0.4776  0.2467 -0.4842
   30MOL0     C 3970   6.957   0.407   7.496 -0.2278 -0.3410 -0.1148
   30MOL0     C 3971   7.087   0.452   7.470  0.8066  0.0691 -0.1475
   30MOL0     C 3972   7.192   0.409   7.549 -0.7445 -0.8836  0.8000
   30MOL0     C 3973   7.169   0.317   7.655 -0.1423  0.1356 -0.5190
   30MOL0     O 3974   7.259   0.266   7.745 -0.9109 -0.5166 -0.6283
   30MOL0     C 3975   7.387   0.331   7.740  0.3529  0.8110  0.9055
   30MOL0     C 3976   7.462   0.319   7.866  0.6892 -1.0996  0.3457
   30MOL0     C 3977   7.362   0.341   7.984  0.2821  0.2730 -0.6084
   30MOL0     C 3978   7.435   0.381   8.111  0.1686  0.7809  0.5117
   30MOL0     C 3979   7.486   0.520   8.116  0.1766  1.0251  0.6515
   30MOL0     C 3980   7.521   0.632   8.110  0.8179 -0.3065 -1.1197
   30MOL0     C 3981   7.039   0.261   7.670 -0.9442 -0.0758  0.4976
   30MOL0     C 3982   6.938   0.305   7.591 -0.9830 -0.2548  0.5778
   30MOL0     H 3983   6.578   0.667   7.481 -1.7388  0.1506 -0.3471
   30MOL0     H 3984   6.382   0.708   7.351  0.6516 -0.2222 -1.0523
   30MOL0     H 3985   6.260   0.398   7.013 -0.6402  1.8731 -1.6652
   30MOL0     H 3986   6.188   0.382   7.185  0.8992  2.4073  1.0129
   30MOL0     H 3987   6.093   0.578   6.955  0.7750 -2.4505 -1.2625
   30MOL0     H 3988   6.037   0.420   7.001  1.3592  1.8851 -1.6527
   30MOL0     H 3989   5.946   0.506   7.211 -0.0665  0.1021 -0.8407
   30MOL0     H 3990   6.051   0.649   7.198  0.5575  0.4491 -0.4202
   30MOL0     H 3991   5.884   0.719   7.003  0.7647 -0.6927  1.1357
   30MOL0     H 3992   5.794   0.576   7.047 -3.5979  2.9227 -1.3859
   30MOL0     H 3993   5.770   0.680   7.282 -2.7298 -2.5444 -1.1335
   30MOL0     H 3994   5.814   0.839   7.211  0.2544  1.2846 -4.0592
   30MOL0     H 3995   5.625   0.807   7.041  1.3393 -0.5047 -2.2881
   30MOL0     H 3996   5.610   0.649   7.101  3.2098 -0.7695  1.8443
   30MOL0     H 3997   5.567   0.746   7.343 -0.9058 -0.2751 -0.2167
   30MOL0     H 3998   5.572   0.909   7.271  2.1261 -0.6241  1.6493
   30MOL0     H 3999   5.379   0.845   7.112  0.8681 -0.1807  0.6813
   30MOL0     H 4000   5.323   0.829   7.266 -0.7754  1.2893 -0.5218
   30MOL0     H 4001   5.479   0.548   7.337 -0.5910  2.8763 -0.5237
   30MOL0     H 4002   5.489   0.300   7.303  0.2395  0.8935  0.5462
   30MOL0     H 4003   5.401   0.230   7.165 -1.0680  1.6824  0.0917
   30MOL0     H 4004   5.658   0.366   7.089 -0.0802  0.5176 -0.8826
   30MOL0     H 4005   5.607   0.195   7.070 -2.9128  0.4115  0.0682
   30MOL0     H 4006   5.705   0.286   7.341  1.7718  0.5361 -0.9032
   30MOL0     H 4007   5.810   0.280   7.197  1.0901 -1.0513 -1.4226
   30MOL0     H 4008   5.789   0.041   7.183  3.7341  1.0876  1.0249
   30MOL0     H 4009   5.632   0.046   7.255 -0.5595  1.6562 -0.5464
   30MOL0     H 4010   6.001   0.131   7.259  0.8206 -1.5471 -1.6408
   30MOL0     H 4011   6.336   0.123   7.315  1.2923 -2.5882  0.7221
   30MOL0     H 4012   6.315  -0.027   7.229 -1.1804 -0.2581 -0.8387
   30MOL0     H 4013   6.220   0.114   7.188 -0.3491  2.3588  0.9578
   30MOL0     H 4014   6.593   0.085   7.590  1.4151  0.3166 -0.9905
   30MOL0     H 4015   6.832   0.017   7.639  0.7348  0.5725 -2.7038
   30MOL0     H 4016   6.947  -0.391   7.493  0.8101  0.3435 -0.4965
   30MOL0     H 4017   6.940  -0.252   7.387 -0.5302  2.2876  1.1426
   30MOL0     H 4018   7.155  -0.370   7.547  0.5840  0.9240  0.1461
   30MOL0     H 4019   7.171  -0.306   7.373  1.7218  2.5770 -1.1132
   30MOL0     H 4020   7.162  -0.163   7.647  3.1474  1.7227  1.2531
   30MOL0     H 4021   7.173  -0.078   7.492  1.9519 -0.8061 -2.3784
   30MOL0     H 4022   7.380  -0.285   7.591  2.1562  0.1953 -0.1961
   30MOL0     H 4023   7.383  -0.207   7.435  0.3810 -0.7960  0.6411
   30MOL0     H 4024   7.391  -0.071   7.705  2.0911  0.4109  0.5212
   30MOL0     H 4025   7.390   0.004   7.538  0.7948  0.6103  0.3841
   30MOL0     H 4026   7.615  -0.172   7.631  0.5553  1.0633 -0.3236
   30MOL0     H 4027   7.590  -0.127   7.468  0.0738 -2.9744  0.7415
   30MOL0     H 4028   7.692   0.001   7.705 -1.0509 -0.8968 -0.6926
   30MOL0     H 4029   7.591   0.113   7.608 -0.9168  0.3637 -0.0457
   30MOL0     H 4030   7.851   0.090   7.562 -0.2076  0.4357  0.7806
   30MOL0     H 4031   7.743   0.094   7.426 -2.8946 -0.9551 -0.3816
   30MOL0     H 4032   6.742  -0.368   7.483  0.6433 -0.4181  1.5311
   30MOL0     H 4033   6.520  -0.274   7.406 -0.4246  2.5256 -0.9262
   30MOL0     H 4034   6.082  -0.144   7.662 -0.3565 -0.2257  1.5487
   30MOL0     H 4035   5.863  -0.065   7.611  0.3082  1.6686  0.9783
   30MOL0     H 4036   6.440   0.340   7.135 -2.1376 -1.4309  2.0073
   30MOL0     H 4037   6.631   0.284   7.297  2.5743  1.6828 -1.6846
   30MOL0     H 4038   7.112   0.534   7.404  2.4047  0.3156  0.7080
   30MOL0     H 4039   7.288   0.435   7.505  0.4941 -0.8247  3.3321
   30MOL0     H 4040   7.446   0.289   7.658  0.4094  1.7568  0.4421
   30MOL0     H 4041   7.376   0.439   7.726  0.4651  0.5361 -2.0893
   30MOL0     H 4042   7.539   0.397   7.866 -1.5410  1.2721  1.7315
   30MOL0     H 4043   7.498   0.216   7.867 -1.4844 -1.9061  1.5970
   30MOL0     H 4044   7.307   0.248   8.002 -0.7944  1.2106  1.3255
   30MOL0     H 4045   7.284   0.413   7.960 -0.8962 -0.4598  0.8249
   30MOL0     H 4046   7.529   0.326   8.118 -0.2960 -0.2191 -0.7660
   30MOL0     H 4047   7.375   0.360   8.200  1.8348 -0.4149  1.4039
   30MOL0     H 4048   7.547   0.735   8.096  2.5983 -0.8419 -2.1433
   30MOL0     H 4049   7.030   0.192   7.753  1.7703 -0.1305  0.8380
   30MOL0     H 4050   6.840   0.270   7.621 -0.7920 -2.4427 -1.1434
   31MOL0     O 4051   4.994   5.866  11.446 -0.3507  0.0064  0.2710
   31MOL0     C 4052   4.973   5.985  11.422  0.3584  0.0857  0.8025
   31MOL0     O 4053   4.911   6.035  11.307 -0.8167  0.5430 -0.7302
   31MOL0     C 4054   4.876   5.948  11.206 -0.0857 -0.1289  0.1404
   31MOL0     C 4055   4.897   6.005  11.075 -1.0617  0.0200  0.1568
   31MOL0     C 4056   4.873   5.927  10.959  0.4713  0.2767  0.4679
   31MOL0     C 4057   4.816   5.796  10.965 -0.6900  0.9154 -0.3820
   31MOL0     O 4058   4.771   5.732  10.851  0.2652 -0.1058  0.4212
   31MOL0     C 4059   4.664   5.642  10.869 -0.3310 -0.1472 -0.3884
   31MOL0     C 4060   4.601   5.627  10.727  0.0300  0.8090  0.9583
   31MOL0     C 4061   4.675   5.536  10.625 -0.3751  0.4029 -0.7285
   31MOL0     C 4062   4.799   5.604  10.550 -0.3338 -0.0796  0.3563
   31MOL0     C 4063   4.778   5.755  10.510 -0.2862 -0.4913 -0.2801
   31MOL0     C 4064   4.891   5.805  10.411 -0.1700  0.1989 -0.4935
   31MOL0     C 4065   5.014   5.858  10.486  0.0219  0.1189  0.4577
   31MOL0     C 4066   5.126   5.897  10.385 -0.8146  0.6944 -0.2365
   31MOL0     N 4067   5.236   5.970  10.447 -0.8837  0.3348  0.1569
   31MOL0     C 4068   5.375   5.943  10.433 -0.1936  0.3994  0.1757
   31MOL0     C 4069   5.435   6.052  10.490  0.9075  0.4923 -0.7868
   31MOL0     C 4070   5.579   6.059  10.501  0.5053  0.0977 -0.2280
   31MOL0     C 4071   5.617   6.203  10.485 -0.3031 -1.0703 -0.6061
   31MOL0     C 4072   5.766   6.210  10.471  0.1440 -0.0224 -1.1184
   31MOL0     C 4073   5.799   6.336  10.413  0.1092 -0.4289 -0.1061
   31MOL0     O 4074   5.933   6.322  10.374 -0.2002 -0.7581 -0.4070
   31MOL0     C 4075   5.996   6.430  10.323  0.3369 -0.0772 -0.2537
   31MOL0     C 4076   5.973   6.562  10.370  0.4351  1.0078  0.9121
   31MOL0     C 4077   6.057   6.667  10.321  0.3399 -0.3155 -0.0554
   31MOL0     C 4078   6.014   6.805  10.346  0.1487  0.0398 -0.8949
   31MOL0     C 4079   6.165   6.640  10.226  0.5983  0.4225  0.4461
   31MOL0     C 4080   6.259   6.730  10.165  0.1143  0.1529  0.0647
   31MOL0     O 4081   6.304   6.706  10.035  0.3940  0.1570  0.1167
   31MOL0     C 4082   6.386   6.795   9.970 -0.7096 -1.1414  0.6587
   31MOL0     C 4083   6.495   6.855  10.033  0.6276 -0.3517 -0.3967
   31MOL0     C 4084   6.565   6.953   9.969  0.6290 -0.6037  0.1934
   31MOL0     C 4085   6.534   6.996   9.847 -0.0830  1.8234 -0.0845
   31MOL0     O 4086   6.608   7.096   9.787 -0.2642  0.3895  0.2920
   31MOL0     C 4087   6.689   7.198   9.846 -0.3345 -0.7604  0.5906
   31MOL0     C 4088   6.618   7.284   9.958 -0.6221  0.2576  0.3657
   31MOL0     C 4089   6.495   7.343   9.901  0.8961 -0.4458  0.1107
   31MOL0     C 4090   6.469   7.480   9.959 -0.7152 -0.1181  0.5413
   31MOL0     C 4091   6.321   7.533   9.956 -0.7782 -0.3523  0.9282
   31MOL0     C 4092   6.320   7.685   9.945  0.0073 -1.4921 -1.1539
   31MOL0     C 4093   6.175   7.741   9.933 -0.0127  0.4355  0.0442
   31MOL0     C 4094   6.158   7.890   9.977 -0.1786 -0.5608  0.4826
   31MOL0    Cl 4095   6.201   7.909  10.147  0.2112  0.1631 -0.0324
   31MOL0     C 4096   6.423   6.940   9.781 -0.2728  0.3817 -0.2070
   31MOL0     C 4097   6.347   6.840   9.844 -0.1348  1.1655  1.0661
   31MOL0     O 4098   6.287   6.830  10.230 -0.3884  0.0886  0.2242
   31MOL0     C 4099   6.188   6.508  10.197  0.0393 -0.2739 -0.3538
   31MOL0     C 4100   6.098   6.405  10.240 -0.4237 -0.3155  0.0646
   31MOL0     N 4101   5.333   6.125  10.556 -0.2784 -0.6523 -0.9757
   31MOL0     N 4102   5.220   6.086  10.517  0.1303  0.2368  0.2804
   31MOL0     C 4103   4.799   5.745  11.091 -0.6171  0.0072  0.0805
   31MOL0     C 4104   4.828   5.810  11.211  0.9985  0.1673 -0.1038
   31MOL0     C 4105   5.010   6.087  11.521  0.5480 -0.0544 -0.3655
   31MOL0     C 4106   5.071   6.068  11.651 -0.2924  0.3448  0.7545
   31MOL0     C 4107   5.122   6.172  11.733  0.7503  0.2902  0.3658
   31MOL0     C 4108   5.110   6.307  11.679  0.9093  0.5376 -0.2592
   31MOL0     O 4109   5.164   6.428  11.731  0.4590  0.1836  0.0113
   31MOL0     C 4110   5.220   6.422  11.864 -0.0737  0.4076  0.1780
   31MOL0     C 4111   5.236   6.571  11.900 -0.4992  0.0773 -0.8121
   31MOL0     C 4112   5.314   6.585  12.034  0.5582  0.6848 -0.0070
   31MOL0     C 4113   5.212   6.606  12.150  0.8210  0.3358 -0.7215
   31MOL0     C 4114   5.279   6.630  12.278  0.1018 -0.1059 -0.3605
   31MOL0     C 4115   5.343   6.676  12.373  0.1351  0.9477 -0.0484
   31MOL0     C 4116   5.040   6.325  11.558  0.3655  0.5816 -0.1205
   31MOL0     C 4117   4.985   6.222  11.486  0.0448  0.0212  0.1435
   31MOL0     H 4118   4.921   6.110  11.064 -2.7545  0.1804 -3.8702
   31MOL0     H 4119   4.870   5.982  10.865  1.4659  2.9344  1.8915
   31MOL0     H 4120   4.691   5.547  10.917 -0.7691  0.1444  0.4667
   31MOL0     H 4121   4.598   5.690  10.942  0.7866 -0.8818  1.1733
   31MOL0     H 4122   4.503   5.582  10.745 -0.2870  0.1858 -1.9416
   31MOL0     H 4123   4.579   5.720  10.673 -0.2583  1.5873  2.3457
   31MOL0     H 4124   4.708   5.445  10.676  0.3857  0.2895 -1.4092
   31MOL0     H 4125   4.588   5.511  10.563 -2.1339  1.8153  1.0348
   31MOL0     H 4126   4.885   5.589  10.615  1.7192  2.7852 -1.4397
   31MOL0     H 4127   4.825   5.544  10.463 -0.0221 -0.1563  0.4995
   31MOL0     H 4128   4.684   5.780  10.461 -0.8105 -0.8119  0.5449
   31MOL0     H 4129   4.796   5.820  10.596  2.5491  0.9028 -1.7760
   31MOL0     H 4130   4.926   5.720  10.351 -2.5200  0.2375 -2.0414
   31MOL0     H 4131   4.850   5.886  10.351 -0.0265 -0.0662 -0.9538
   31MOL0     H 4132   4.979   5.946  10.541 -2.7900 -0.5012 -0.1919
   31MOL0     H 4133   5.052   5.787  10.560 -0.4638 -0.9677 -0.3008
   31MOL0     H 4134   5.081   5.948  10.298  1.4774  0.1395 -1.8379
   31MOL0     H 4135   5.164   5.799  10.353  2.4274  0.5896  3.2932
   31MOL0     H 4136   5.420   5.859  10.381  1.0642  0.6577  0.8201
   31MOL0     H 4137   5.623   6.006  10.586  0.4784  0.2883 -0.0940
   31MOL0     H 4138   5.620   6.006  10.415  0.2984 -2.5208  1.2081
   31MOL0     H 4139   5.582   6.264  10.569  0.5212  0.9155 -1.6400
   31MOL0     H 4140   5.566   6.252  10.401  2.1617  1.1430 -0.9461
   31MOL0     H 4141   5.806   6.124  10.417 -2.6711 -2.0118 -0.2759
   31MOL0     H 4142   5.822   6.198  10.565  0.4036 -3.3286 -1.5638
   31MOL0     H 4143   5.783   6.419  10.482 -0.8849 -1.2473  0.6833
   31MOL0     H 4144   5.743   6.361  10.322 -1.6858 -1.8992  0.5181
   31MOL0     H 4145   5.903   6.588  10.448 -1.8447 -2.3810  0.1834
   31MOL0     H 4146   6.058   6.871  10.421 -5.4698  1.7177  1.5270
   31MOL0     H 4147   6.026   6.864  10.254  2.0723  2.1474  0.5952
   31MOL0     H 4148   5.905   6.805  10.358  0.2907 -1.1953  0.5217
   31MOL0     H 4149   6.521   6.835  10.137  2.3961  2.2772 -0.2142
   31MOL0     H 4150   6.652   6.992  10.022 -0.2143 -0.1105  1.2558
   31MOL0     H 4151   6.777   7.160   9.899 -2.6266 -3.2310  2.9302
   31MOL0     H 4152   6.724   7.274   9.776 -1.2570 -1.3351 -0.5328
   31MOL0     H 4153   6.582   7.226  10.043 -1.1576 -2.3184 -1.4929
   31MOL0     H 4154   6.686   7.364   9.989  0.7822 -0.3299 -1.0570
   31MOL0     H 4155   6.412   7.272   9.913  0.6528 -0.4847 -1.5593
   31MOL0     H 4156   6.507   7.366   9.795 -1.9265  1.4306  0.0882
   31MOL0     H 4157   6.501   7.479  10.064 -3.6867  2.9622  1.6466
   31MOL0     H 4158   6.524   7.546   9.891 -0.3507  0.7756  1.6772
   31MOL0     H 4159   6.286   7.520  10.059  0.7996 -4.0096  1.1540
   31MOL0     H 4160   6.251   7.487   9.886 -0.4243  0.6809 -0.1284
   31MOL0     H 4161   6.365   7.718  10.039 -0.7039 -0.9398 -0.9974
   31MOL0     H 4162   6.379   7.718   9.859  0.3461 -1.0853 -0.7645
   31MOL0     H 4163   6.110   7.673   9.989  1.0200 -1.1484 -0.5951
   31MOL0     H 4164   6.149   7.735   9.827  0.2879 -0.5251  0.0068
   31MOL0     H 4165   6.060   7.937   9.962  1.0777  2.2930  0.7238
   31MOL0     H 4166   6.224   7.962   9.930  0.5851 -0.0474  2.2621
   31MOL0     H 4167   6.389   6.976   9.684 -0.2618  0.3984 -0.2046
   31MOL0     H 4168   6.267   6.796   9.786 -0.3383  5.6540 -2.6119
   31MOL0     H 4169   6.272   6.483  10.133  1.2458 -0.6501  1.3008
   31MOL0     H 4170   6.123   6.301  10.224 -2.1313 -0.7116 -0.1894
   31MOL0     H 4171   4.756   5.647  11.109 -0.2739 -0.0789  0.4370
   31MOL0     H 4172   4.794   5.771  11.306 -1.9067 -3.4736 -2.3472
   31MOL0     H 4173   5.097   5.966  11.675  0.1210  0.6440  1.6472
   31MOL0     H 4174   5.171   6.142  11.825 -0.1025 -0.8528  0.4653
   31MOL0     H 4175   5.153   6.378  11.939  0.7661 -0.8978  0.1955
   31MOL0     H 4176   5.310   6.361  11.860  0.2980  0.7560  2.3050
   31MOL0     H 4177   5.133   6.607  11.904 -0.5162 -0.1005  1.8553
   31MOL0     H 4178   5.295   6.626  11.826  2.2510 -0.0402  1.1585
   31MOL0     H 4179   5.370   6.679  12.041 -0.7094  1.3205  3.1802
   31MOL0     H 4180   5.377   6.497  12.050  0.5135  0.0821 -2.6913
   31MOL0     H 4181   5.157   6.512  12.162  3.6342 -1.4199 -0.5211
   31MOL0     H 4182   5.143   6.687  12.124  1.1587  0.4510 -1.2739
   31MOL0     H 4183   5.407   6.709  12.452 -1.4321  1.3010  1.1374
   31MOL0     H 4184   5.031   6.423  11.512 -0.3745  1.1296  1.1455
   31MOL0     H 4185   4.943   6.252  11.390  1.1345 -0.8747 -0.6449
   32MOL0     O 4186   5.695   5.456   7.394 -0.3370 -0.2807 -0.3314
   32MOL0     C 4187   5.816   5.440   7.420 -0.0881  0.6791  0.5871
   32MOL0     O 4188   5.911   5.521   7.404 -0.3799 -0.9725  0.1638
   32MOL0     C 4189   5.916   5.619   7.306 -0.8514  1.1232  0.6910
   32MOL0     C 4190   5.814   5.666   7.222 -0.2632  0.0054  0.1108
   32MOL0     C 4191   5.820   5.775   7.136 -0.0021  0.3319 -0.8119
   32MOL0     C 4192   5.941   5.850   7.130  0.2259 -0.1817 -0.8438
   32MOL0     O 4193   5.944   5.953   7.047  0.0508  0.1400 -0.8352
   32MOL0     C 4194   6.073   6.014   7.021  0.2933 -0.2281 -0.0826
   32MOL0     C 4195   6.041   6.121   6.922  0.0788  0.1237 -0.1074
   32MOL0     C 4196   6.154   6.216   6.894 -0.3400  0.8786  0.3140
   32MOL0     C 4197   6.128   6.303   6.784 -0.4772 -0.6200 -0.3557
   32MOL0     C 4198   6.220   6.427   6.784 -0.2956  0.9121  0.6674
   32MOL0     C 4199   6.353   6.368   6.740  0.5067 -0.1635 -0.4317
   32MOL0     C 4200   6.454   6.474   6.721 -0.0169  0.6604 -0.7163
   32MOL0     C 4201   6.514   6.516   6.854  0.0868  0.8117 -0.1147
   32MOL0     N 4202   6.618   6.629   6.852 -0.1173  0.3757  0.2609
   32MOL0     C 4203   6.700   6.694   6.755  0.2588  0.8631  0.8447
   32MOL0     C 4204   6.742   6.808   6.812 -0.0093  0.1516 -0.0291
   32MOL0     C 4205   6.851   6.903   6.759  0.0123 -1.0667  0.2054
   32MOL0     C 4206   6.808   7.044   6.780  0.4794  0.8269  0.0251
   32MOL0     C 4207   6.694   7.086   6.683  0.9077  0.0870 -0.1969
   32MOL0     C 4208   6.627   7.211   6.735  0.2541  0.0833  0.2191
   32MOL0     O 4209   6.495   7.228   6.681 -0.6107  0.0072  0.0920
   32MOL0     C 4210   6.408   7.309   6.756 -0.6136  0.1225  0.8368
   32MOL0     C 4211   6.285   7.325   6.695  0.3992  0.6726 -1.1395
   32MOL0     C 4212   6.183   7.394   6.758  0.3724 -0.3534 -0.6073
   32MOL0     C 4213   6.061   7.400   6.681  0.2037 -0.0713 -0.0822
   32MOL0     C 4214   6.201   7.448   6.891 -0.2252 -0.1001  0.1570
   32MOL0     C 4215   6.096   7.524   6.958 -0.4681  0.7891 -0.0357
   32MOL0     O 4216   6.134   7.627   7.030 -0.3991 -0.3070 -0.5934
   32MOL0     C 4217   6.061   7.695   7.124  0.3700 -1.1524  0.8196
   32MOL0     C 4218   5.920   7.687   7.150 -1.1412 -0.1173  0.0285
   32MOL0     C 4219   5.862   7.764   7.252  0.2116 -0.0640 -0.3190
   32MOL0     C 4220   5.937   7.844   7.339  0.2062 -0.0275 -1.3423
   32MOL0     O 4221   5.894   7.911   7.449  0.7074  0.4672  0.6316
   32MOL0     C 4222   5.768   7.984   7.441 -0.7994 -0.6744  0.4137
   32MOL0     C 4223   5.655   7.911   7.509 -0.0665 -0.5196  0.0705
   32MOL0     C 4224   5.530   7.990   7.487  0.5608  0.0179  0.2266
   32MOL0     C 4225   5.411   7.912   7.521  0.2583  0.1562 -0.6029
   32MOL0     C 4226   5.292   7.995   7.563 -0.0079  1.2832 -0.9263
   32MOL0     C 4227   5.226   8.064   7.452  0.5041  0.4908  1.0840
   32MOL0     C 4228   5.119   8.158   7.499  1.2514 -0.1712 -0.2516
   32MOL0     C 4229   5.040   8.231   7.395  0.6321  0.2230  0.0951
   32MOL0    Cl 4230   5.134   8.326   7.290 -0.0038 -0.1694  0.0408
   32MOL0     C 4231   6.073   7.853   7.308  0.7542 -0.4919  0.2421
   32MOL0     C 4232   6.136   7.778   7.206 -0.3416  0.1863  0.7368
   32MOL0     O 4233   5.983   7.489   6.932  0.8196 -0.1821  0.7672
   32MOL0     C 4234   6.335   7.443   6.948  0.6534  0.1876 -0.1255
   32MOL0     C 4235   6.439   7.365   6.886  0.5029 -0.5449 -0.5523
   32MOL0     N 4236   6.700   6.811   6.937  0.1614 -0.0165 -0.4683
   32MOL0     N 4237   6.628   6.705   6.967 -0.0195 -0.0396  0.0337
   32MOL0     C 4238   6.045   5.814   7.218 -0.3143  0.0226  0.3774
   32MOL0     C 4239   6.029   5.697   7.301 -0.1864 -0.8615  0.5067
   32MOL0     C 4240   5.840   5.302   7.478  0.2595 -0.0580  0.1687
   32MOL0     C 4241   5.741   5.212   7.501  0.5799  0.2129 -0.1546
   32MOL0     C 4242   5.771   5.077   7.536  0.8310  0.2165  0.0254
   32MOL0     C 4243   5.904   5.039   7.565 -0.8239  0.5914 -0.7312
   32MOL0     O 4244   5.946   4.925   7.624 -0.0910  0.8137 -0.0038
   32MOL0     C 4245   5.920   4.800   7.552  1.0106  1.0346 -0.6420
   32MOL0     C 4246   5.890   4.673   7.641  0.0459 -0.1065 -0.1629
   32MOL0     C 4247   6.016   4.609   7.706 -0.6935 -0.3217 -0.2574
   32MOL0     C 4248   6.068   4.678   7.825 -0.1938  0.5041 -0.9132
   32MOL0     C 4249   6.198   4.636   7.881 -0.2984  0.5006 -0.5892
   32MOL0     C 4250   6.292   4.574   7.924  0.2580  0.6072  0.4568
   32MOL0     C 4251   6.005   5.141   7.555  0.3405  0.6063  1.2254
   32MOL0     C 4252   5.971   5.266   7.500 -0.3111 -0.2078 -0.3899
   32MOL0     H 4253   5.717   5.618   7.228 -0.3891 -0.2232 -2.4315
   32MOL0     H 4254   5.739   5.792   7.066  2.1510 -0.1603 -3.5811
   32MOL0     H 4255   6.112   6.059   7.113  2.1242 -0.0844 -0.8909
   32MOL0     H 4256   6.138   5.948   6.963 -1.0456 -0.2123 -1.6753
   32MOL0     H 4257   6.003   6.074   6.831  2.6052 -1.4476 -0.4681
   32MOL0     H 4258   5.955   6.179   6.958  0.3869 -1.2808  3.3271
   32MOL0     H 4259   6.183   6.275   6.981  1.4742  0.9210 -0.2812
   32MOL0     H 4260   6.239   6.149   6.876  0.3074  1.5978  0.6698
   32MOL0     H 4261   6.135   6.246   6.691  2.0305  1.8280 -1.8226
   32MOL0     H 4262   6.028   6.347   6.789 -0.7804 -1.3481  0.2889
   32MOL0     H 4263   6.184   6.510   6.723 -0.5139  0.9319  0.8195
   32MOL0     H 4264   6.228   6.472   6.884  2.1947  0.7766  0.5739
   32MOL0     H 4265   6.399   6.301   6.814 -3.2779  0.9901  3.3445
   32MOL0     H 4266   6.346   6.322   6.641  2.3123 -0.0121 -0.6530
   32MOL0     H 4267   6.516   6.441   6.637  0.1396  2.0442 -1.1690
   32MOL0     H 4268   6.393   6.557   6.686 -0.4879  0.7630  0.3154
   32MOL0     H 4269   6.553   6.427   6.902 -1.7112 -1.2427 -2.2235
   32MOL0     H 4270   6.435   6.550   6.921 -1.1012 -3.1343  0.7003
   32MOL0     H 4271   6.724   6.662   6.654 -4.3438  1.0863 -0.5181
   32MOL0     H 4272   6.943   6.884   6.816 -0.4765  1.0712  1.8201
   32MOL0     H 4273   6.872   6.884   6.654 -1.7711 -0.6889 -0.2356
   32MOL0     H 4274   6.893   7.112   6.770  0.8746  0.5242  1.1994
   32MOL0     H 4275   6.777   7.057   6.884 -1.3412 -1.8986 -0.0667
   32MOL0     H 4276   6.614   7.012   6.674 -0.1205  1.0828  0.4428
   32MOL0     H 4277   6.726   7.098   6.579 -1.9372 -2.1874 -1.4758
   32MOL0     H 4278   6.683   7.299   6.704 -1.5706  0.6784 -1.6155
   32MOL0     H 4279   6.619   7.205   6.844 -1.1514 -0.0347  0.1287
   32MOL0     H 4280   6.259   7.272   6.604  0.3128 -1.6935  0.1767
   32MOL0     H 4281   5.996   7.327   6.731 -0.2856  0.2131 -0.3028
   32MOL0     H 4282   6.010   7.495   6.698 -0.1817 -0.4314  0.8092
   32MOL0     H 4283   6.091   7.376   6.579  2.7154 -1.9411  0.9684
   32MOL0     H 4284   5.847   7.626   7.098 -0.9241 -0.5422  0.2254
   32MOL0     H 4285   5.758   7.777   7.277  1.0867  1.4318  3.1013
   32MOL0     H 4286   5.791   8.078   7.492 -1.4487 -1.1390  1.6046
   32MOL0     H 4287   5.736   8.000   7.338  3.2925 -0.5165 -1.0125
   32MOL0     H 4288   5.640   7.810   7.470 -1.0633 -1.1579  1.9905
   32MOL0     H 4289   5.683   7.897   7.613 -0.0948 -0.3800  0.0960
   32MOL0     H 4290   5.528   8.025   7.384  2.5094 -1.5509 -0.4144
   32MOL0     H 4291   5.524   8.069   7.562 -0.0507  0.0956  0.0976
   32MOL0     H 4292   5.391   7.847   7.435 -0.1257  2.0765 -2.0489
   32MOL0     H 4293   5.446   7.852   7.605  2.0956 -0.3101 -1.6503
   32MOL0     H 4294   5.328   8.063   7.641 -0.0410  0.9925 -0.6563
   32MOL0     H 4295   5.225   7.921   7.610 -2.4979  4.0252  0.1166
   32MOL0     H 4296   5.300   8.131   7.406 -0.3814 -0.5014 -2.0423
   32MOL0     H 4297   5.188   8.000   7.372 -0.9379  0.3317  1.8754
   32MOL0     H 4298   5.166   8.238   7.557  2.1673  1.1294 -2.6745
   32MOL0     H 4299   5.061   8.092   7.564  2.8564  1.5096  3.2111
   32MOL0     H 4300   4.965   8.292   7.448 -0.0622 -2.3251  2.3077
   32MOL0     H 4301   4.985   8.171   7.322 -1.1205  1.4445  0.3424
   32MOL0     H 4302   6.134   7.919   7.369  0.0177 -2.2663  3.0880
   32MOL0     H 4303   6.243   7.783   7.191 -0.1108  0.7612  2.3410
   32MOL0     H 4304   6.340   7.487   7.047 -0.7625 -0.6042  0.3245
   32MOL0     H 4305   6.538   7.376   6.930  0.2593  1.4247 -0.3953
   32MOL0     H 4306   6.143   5.860   7.228  1.0543 -2.8767  1.7222
   32MOL0     H 4307   6.112   5.663   7.361 -0.4827 -0.9892  0.8480
   32MOL0     H 4308   5.638   5.239   7.480  1.0825  1.8511 -0.7170
   32MOL0     H 4309   5.689   5.008   7.550 -0.5601  2.0042  1.1752
   32MOL0     H 4310   5.831   4.818   7.490  0.7776 -1.2469 -1.0518
   32MOL0     H 4311   6.004   4.778   7.485  0.9144 -1.1660 -0.0898
   32MOL0     H 4312   5.851   4.596   7.573 -1.5324  0.0083  0.5747
   32MOL0     H 4313   5.818   4.705   7.717  2.2754  3.0007  0.8041
   32MOL0     H 4314   6.095   4.602   7.631  1.7352  1.8646  1.8821
   32MOL0     H 4315   5.984   4.509   7.738 -0.5225 -0.2641  0.0962
   32MOL0     H 4316   5.995   4.656   7.903 -0.8110 -2.2180 -2.1182
   32MOL0     H 4317   6.074   4.786   7.814  0.8165  0.6632  0.8307
   32MOL0     H 4318   6.385   4.525   7.949  0.7520  2.2151  1.9367
   32MOL0     H 4319   6.104   5.115   7.591 -0.1881  1.6746  3.5877
   32MOL0     H 4320   6.055   5.334   7.482  1.4298 -1.4547  2.4345
   33MOL0     O 4321   2.589   9.205   9.110 -0.5452 -0.9164 -0.1863
   33MOL0     C 4322   2.603   9.300   9.033 -0.4846 -0.3630 -0.0413
   33MOL0     O 4323   2.516   9.402   9.025 -0.0443  0.7598 -0.7578
   33MOL0     C 4324   2.411   9.403   9.113  0.7964  0.4083  0.5301
   33MOL0     C 4325   2.311   9.316   9.098 -0.0419 -0.7801  0.2344
   33MOL0     C 4326   2.210   9.309   9.189 -0.3631 -0.2346  0.6225
   33MOL0     C 4327   2.211   9.406   9.293  0.2660 -0.2615 -0.2185
   33MOL0     O 4328   2.104   9.399   9.380  0.1950  0.8807 -0.0015
   33MOL0     C 4329   2.052   9.515   9.445 -0.7472 -0.0921  0.6593
   33MOL0     C 4330   1.987   9.622   9.359 -0.7170  0.5882 -0.5132
   33MOL0     C 4331   1.865   9.572   9.284  0.1675 -0.9684  0.1589
   33MOL0     C 4332   1.799   9.689   9.207  0.0398  0.0096  0.0456
   33MOL0     C 4333   1.699   9.649   9.101 -0.8476 -0.0108  0.1811
   33MOL0     C 4334   1.639   9.774   9.031 -0.2661  0.4234 -0.5082
   33MOL0     C 4335   1.744   9.854   8.949 -0.1457 -0.8205 -0.9878
   33MOL0     C 4336   1.686   9.935   8.838  0.5274 -1.0894  0.5040
   33MOL0     N 4337   1.585  10.033   8.882  0.5116  0.3502  0.0718
   33MOL0     C 4338   1.587  10.164   8.829  0.1492  0.6820 -0.0888
   33MOL0     C 4339   1.472  10.217   8.865 -1.1986 -0.5283 -0.6095
   33MOL0     C 4340   1.429  10.353   8.826  0.0320 -0.0396  0.3924
   33MOL0     C 4341   1.333  10.419   8.923 -0.9290 -0.4721  0.2210
   33MOL0     C 4342   1.258  10.544   8.863 -0.0894  0.5998  0.9700
   33MOL0     C 4343   1.155  10.601   8.962 -1.2572  0.0888  0.3036
   33MOL0     O 4344   1.048  10.511   8.981  0.3477 -0.7694  0.1814
   33MOL0     C 4345   0.927  10.561   9.028 -0.1541 -0.7278  0.0678
   33MOL0     C 4346   0.820  10.519   8.960  0.9040  0.3447  0.1757
   33MOL0     C 4347   0.688  10.545   8.994  0.1946 -0.6141  0.4860
   33MOL0     C 4348   0.584  10.490   8.900 -0.0861 -0.2823 -0.8600
   33MOL0     C 4349   0.666  10.637   9.107  0.0280  0.2081 -0.8298
   33MOL0     C 4350   0.527  10.670   9.157 -0.0827 -0.1391 -0.1738
   33MOL0     O 4351   0.517  10.773   9.245 -0.0139 -0.0690  0.3774
   33MOL0     C 4352   0.394  10.819   9.299  0.5808  0.4865 -1.1106
   33MOL0     C 4353   0.292  10.729   9.345 -0.1323 -0.3633 -0.3921
   33MOL0     C 4354   0.179  10.773   9.411 -0.0904 -0.2926 -0.0240
   33MOL0     C 4355   0.143  10.906   9.418  0.2963  0.4230 -0.0755
   33MOL0     O 4356   0.029  10.938   9.493 -0.8511 -0.3963  0.2382
   33MOL0     C 4357   0.019  10.886   9.630  0.3820  0.1093 -0.1633
   33MOL0     C 4358   0.106  10.957   9.726 -0.5141  0.8429  0.4991
   33MOL0     C 4359   0.104  10.886   9.866  0.4618 -0.1449  0.2774
   33MOL0     C 4360  -0.026  10.926   9.941  0.0807  0.3530 -0.3280
   33MOL0     C 4361  -0.037  10.839  10.066 -0.1868  0.0437 -0.3741
   33MOL0     C 4362  -0.142  10.905  10.157  0.1317 -0.0871 -1.8256
   33MOL0     C 4363  -0.141  10.836  10.297  0.1047 -0.4545  0.2055
   33MOL0     C 4364  -0.194  10.925  10.412 -0.1055  0.1298  0.2867
   33MOL0    Cl 4365  -0.141  10.849  10.562  0.6702 -0.0643 -0.1343
   33MOL0     C 4366   0.233  10.992   9.364  0.2593  0.3950  0.0537
   33MOL0     C 4367   0.367  10.954   9.313  0.3921  0.3856 -0.6896
   33MOL0     O 4368   0.440  10.593   9.120  1.0463  0.5139  1.1234
   33MOL0     C 4369   0.782  10.689   9.171  0.4757  0.1682 -0.0270
   33MOL0     C 4370   0.909  10.644   9.139 -0.6551  0.3954  0.8525
   33MOL0     N 4371   1.396  10.120   8.939 -0.8493 -0.2218  0.2930
   33MOL0     N 4372   1.478  10.016   8.959  0.3347  0.2612  0.2646
   33MOL0     C 4373   2.308   9.506   9.303 -0.2070  0.7966  0.3977
   33MOL0     C 4374   2.407   9.504   9.207  0.6016 -0.5290  0.2946
   33MOL0     C 4375   2.720   9.271   8.938  0.8660 -0.6464  0.5294
   33MOL0     C 4376   2.739   9.358   8.824 -0.3476 -0.3032  0.1991
   33MOL0     C 4377   2.845   9.340   8.741 -0.1424  0.4364 -0.2895
   33MOL0     C 4378   2.941   9.243   8.767 -0.4530  0.2334  0.4992
   33MOL0     O 4379   3.046   9.230   8.679  0.4008 -0.2603  0.4050
   33MOL0     C 4380   3.128   9.109   8.680 -0.4017  0.4334  0.2412
   33MOL0     C 4381   3.201   9.085   8.547  0.8499  0.9435  0.0723
   33MOL0     C 4382   3.128   9.155   8.429  0.0845  0.0187  0.3156
   33MOL0     C 4383   3.198   9.118   8.299 -0.1444 -0.2261  0.0067
   33MOL0     C 4384   3.326   9.189   8.285  0.0423 -0.0549  0.7535
   33MOL0     C 4385   3.430   9.254   8.281 -0.1582  0.8796  0.7433
   33MOL0     C 4386   2.921   9.153   8.875  0.6373 -0.1387 -0.0891
   33MOL0     C 4387   2.821   9.172   8.969 -0.0792  0.0189  0.0031
   33MOL0     H 4388   2.318   9.243   9.019 -0.8512 -0.5795 -0.0292
   33MOL0     H 4389   2.128   9.237   9.186  0.1015 -0.7608  0.3491
   33MOL0     H 4390   1.974   9.470   9.506  0.1412 -0.1236  1.8192
   33MOL0     H 4391   2.129   9.552   9.513 -2.1938  0.1235  2.2382
   33MOL0     H 4392   1.945   9.699   9.424  1.8368  3.4682 -2.0144
   33MOL0     H 4393   2.059   9.674   9.295  3.5274 -0.7671  2.6688
   33MOL0     H 4394   1.897   9.514   9.197  2.7735 -2.2682  1.8299
   33MOL0     H 4395   1.796   9.512   9.344 -0.9540  0.2399  0.1151
   33MOL0     H 4396   1.737   9.740   9.282 -1.9052 -3.0567  0.7290
   33MOL0     H 4397   1.884   9.736   9.158 -0.1765  0.4669  0.1071
   33MOL0     H 4398   1.749   9.583   9.030  0.9406  4.1205 -2.8430
   33MOL0     H 4399   1.613   9.600   9.146  0.2782 -2.3717 -0.0679
   33MOL0     H 4400   1.562   9.734   8.964 -1.0393  1.1385 -0.0622
   33MOL0     H 4401   1.595   9.841   9.105 -0.1716 -0.5269  0.4384
   33MOL0     H 4402   1.808   9.917   9.011  0.3782 -0.3639 -1.9659
   33MOL0     H 4403   1.810   9.786   8.894 -0.5799 -1.0029 -1.2918
   33MOL0     H 4404   1.628   9.875   8.768 -0.2032  0.2774 -0.0914
   33MOL0     H 4405   1.773   9.981   8.790 -2.7427  4.7175 -0.9299
   33MOL0     H 4406   1.669  10.204   8.769  0.1349  2.5744  1.0770
   33MOL0     H 4407   1.514  10.422   8.827  0.9304 -1.0170  4.2727
   33MOL0     H 4408   1.387  10.352   8.725 -1.9565 -0.2469  1.1768
   33MOL0     H 4409   1.395  10.451   9.007  1.1218  1.3576 -1.8522
   33MOL0     H 4410   1.257  10.351   8.962 -0.3432 -0.1903  1.9307
   33MOL0     H 4411   1.208  10.512   8.771  0.6821  2.2462 -0.0527
   33MOL0     H 4412   1.330  10.612   8.818 -1.2585  0.4092 -1.3777
   33MOL0     H 4413   1.119  10.692   8.912  2.3873 -0.9936 -5.2211
   33MOL0     H 4414   1.200  10.611   9.060 -0.6949  1.3342 -0.0695
   33MOL0     H 4415   0.838  10.446   8.881  0.5153 -1.7025  1.8969
   33MOL0     H 4416   0.633  10.481   8.802  1.7384  0.1169 -0.0291
   33MOL0     H 4417   0.549  10.391   8.929  2.2864 -0.6906  0.9441
   33MOL0     H 4418   0.502  10.563   8.895  1.3976  1.7433  1.9475
   33MOL0     H 4419   0.297  10.621   9.343 -0.6987 -0.4248  0.6838
   33MOL0     H 4420   0.113  10.696   9.449  1.3712 -0.0597  3.2829
   33MOL0     H 4421  -0.083  10.893   9.671  0.1222  2.2699 -1.0717
   33MOL0     H 4422   0.043  10.779   9.633 -0.3090 -0.0287  1.1413
   33MOL0     H 4423   0.205  10.946   9.680 -1.9900 -1.1958 -2.5096
   33MOL0     H 4424   0.076  11.062   9.727  0.4374  1.1825 -1.6612
   33MOL0     H 4425   0.199  10.915   9.912  1.1248 -0.0174 -1.1121
   33MOL0     H 4426   0.100  10.777   9.863 -1.5982 -0.1474  1.2136
   33MOL0     H 4427  -0.026  11.032   9.969 -2.3444  1.2618 -3.1843
   33MOL0     H 4428  -0.111  10.891   9.881 -0.0604 -0.5744  0.3883
   33MOL0     H 4429   0.061  10.838  10.115 -1.4553  3.0078  2.5791
   33MOL0     H 4430  -0.053  10.732  10.045  1.7075 -0.5419  0.8801
   33MOL0     H 4431  -0.124  11.012  10.170  0.0613 -0.3428  1.3781
   33MOL0     H 4432  -0.242  10.897  10.113 -0.4733  4.3053 -1.6790
   33MOL0     H 4433  -0.039  10.803  10.320 -0.6798 -3.2679 -0.0811
   33MOL0     H 4434  -0.210  10.752  10.297 -2.2776  1.3972  0.6504
   33MOL0     H 4435  -0.303  10.931  10.409 -0.2278 -1.6524 -1.2413
   33MOL0     H 4436  -0.147  11.022  10.394  1.7978 -0.7786  0.0174
   33MOL0     H 4437   0.200  11.095   9.360 -2.5099 -0.3806  0.6766
   33MOL0     H 4438   0.435  11.029   9.274  1.0133  1.2259  1.8117
   33MOL0     H 4439   0.757  10.757   9.252  0.5642  0.5589 -0.3232
   33MOL0     H 4440   0.996  10.686   9.188 -1.3449  2.0856  0.6993
   33MOL0     H 4441   2.298   9.579   9.383 -0.9828  2.6288 -1.2827
   33MOL0     H 4442   2.485   9.576   9.226 -1.7863  2.3467 -0.1370
   33MOL0     H 4443   2.659   9.427   8.798  0.5400  0.8909  0.5513
   33MOL0     H 4444   2.861   9.397   8.650  0.8552 -0.1660 -0.5100
   33MOL0     H 4445   3.202   9.119   8.760  0.5539 -0.4351 -0.5074
   33MOL0     H 4446   3.069   9.021   8.708  0.3820 -0.1844 -0.0072
   33MOL0     H 4447   3.201   8.976   8.538  1.2457  1.0712 -2.0488
   33MOL0     H 4448   3.305   9.118   8.553  1.0656  0.4335 -0.6206
   33MOL0     H 4449   3.105   9.262   8.432 -0.6576 -0.0471 -1.7897
   33MOL0     H 4450   3.026   9.119   8.416 -0.7122  2.2996 -0.1506
   33MOL0     H 4451   3.131   9.146   8.217 -2.5714 -0.5027  1.8083
   33MOL0     H 4452   3.218   9.011   8.289  1.8059  0.1439 -0.5101
   33MOL0     H 4453   3.524   9.303   8.268 -0.0695  1.0717  2.0586
   33MOL0     H 4454   2.963   9.054   8.890  0.6924 -0.7902 -3.7011
   33MOL0     H 4455   2.811   9.110   9.057 -1.8424 -3.0764 -2.1847
   34MOL0     O 4456   0.198   4.394   1.592 -0.4306  0.4787  0.1796
   34MOL0     C 4457   0.251   4.390   1.703  0.1855  0.4102 -0.1940
   34MOL0     O 4458   0.185   4.396   1.815  0.5703 -1.1020 -0.2830
   34MOL0     C 4459   0.043   4.408   1.801  0.5178 -0.3787 -0.2158
   34MOL0     C 4460  -0.008   4.535   1.810  0.2761  0.0039 -0.8309
   34MOL0     C 4461  -0.145   4.553   1.802  0.4234 -0.5683  1.1648
   34MOL0     C 4462  -0.236   4.457   1.749  0.7998 -0.1018  0.2090
   34MOL0     O 4463  -0.370   4.471   1.729  0.2785 -0.7473 -0.5463
   34MOL0     C 4464  -0.408   4.598   1.669 -0.8711  0.5143 -0.0350
   34MOL0     C 4465  -0.541   4.583   1.605  0.3537  0.3296  0.2147
   34MOL0     C 4466  -0.573   4.687   1.495 -0.4048  0.5179  0.4651
   34MOL0     C 4467  -0.721   4.732   1.491 -1.0630 -0.2685 -0.0372
   34MOL0     C 4468  -0.723   4.846   1.382  0.5620 -0.8987 -0.6979
   34MOL0     C 4469  -0.866   4.905   1.387  0.1606  0.4090 -0.4549
   34MOL0     C 4470  -0.878   5.057   1.385  0.1671  0.7025  0.5479
   34MOL0     C 4471  -1.008   5.119   1.363  1.1035 -1.0458 -0.0062
   34MOL0     N 4472  -1.057   5.117   1.222  0.2288  0.2455 -0.6140
   34MOL0     C 4473  -1.100   5.009   1.144 -0.9916 -0.6944  0.2626
   34MOL0     C 4474  -1.134   5.063   1.022  1.3311  0.6247 -0.8506
   34MOL0     C 4475  -1.191   4.978   0.905 -0.3521 -0.6811  0.1403
   34MOL0     C 4476  -1.332   4.972   0.905  0.8613  0.1464  0.1941
   34MOL0     C 4477  -1.393   4.972   0.765 -0.6246 -0.2472  0.1730
   34MOL0     C 4478  -1.535   4.902   0.758  0.5252 -0.0469  0.3415
   34MOL0     O 4479  -1.583   4.907   0.619  0.1302 -0.2802  0.0569
   34MOL0     C 4480  -1.705   4.854   0.593  0.4145 -0.2908  0.9557
   34MOL0     C 4481  -1.796   4.796   0.676  0.9049 -0.1291  0.1193
   34MOL0     C 4482  -1.913   4.727   0.635 -0.5436 -0.3574 -0.5294
   34MOL0     C 4483  -1.986   4.645   0.739  0.0082 -0.7181  0.8158
   34MOL0     C 4484  -1.937   4.724   0.496  0.6151 -0.8139  0.4763
   34MOL0     C 4485  -2.043   4.636   0.441  0.3633  0.5021  0.0951
   34MOL0     O 4486  -2.014   4.595   0.308 -0.6887  0.4048  0.4733
   34MOL0     C 4487  -2.125   4.567   0.228  0.0464  0.1285 -1.1600
   34MOL0     C 4488  -2.169   4.435   0.208  0.3451 -0.2123  0.2670
   34MOL0     C 4489  -2.283   4.404   0.141 -0.7747 -1.2725 -0.2652
   34MOL0     C 4490  -2.367   4.508   0.096  0.5462  0.3594  0.8675
   34MOL0     O 4491  -2.469   4.463   0.009  0.4368 -0.5036  0.1787
   34MOL0     C 4492  -2.519   4.560  -0.085 -0.2124  0.5895  0.2588
   34MOL0     C 4493  -2.634   4.505  -0.175 -0.2546 -0.1225 -0.0622
   34MOL0     C 4494  -2.653   4.604  -0.291  0.0124  0.1536 -0.0692
   34MOL0     C 4495  -2.770   4.554  -0.383  0.0656 -0.5657 -1.0068
   34MOL0     C 4496  -2.789   4.637  -0.516 -1.0090 -0.0121  0.0203
   34MOL0     C 4497  -2.772   4.790  -0.501 -0.3115 -0.3805 -0.9205
   34MOL0     C 4498  -2.875   4.860  -0.415  0.0800 -0.6423  0.2444
   34MOL0     C 4499  -3.018   4.826  -0.444 -0.6145 -0.1776 -0.3144
   34MOL0    Cl 4500  -3.127   4.955  -0.387  0.0942 -0.3099  0.1325
   34MOL0     C 4501  -2.324   4.639   0.115  0.1051  0.0420  0.4853
   34MOL0     C 4502  -2.203   4.672   0.179  0.7098  0.8959  0.4604
   34MOL0     O 4503  -2.151   4.616   0.500  0.0566 -0.3659  0.2615
   34MOL0     C 4504  -1.850   4.784   0.404 -0.1974 -0.3891  0.1691
   34MOL0     C 4505  -1.726   4.828   0.458 -0.7277 -0.4324  0.1241
   34MOL0     N 4506  -1.090   5.197   1.025 -0.2934 -0.2102  0.1287
   34MOL0     N 4507  -1.047   5.222   1.140  0.1092  0.3525 -1.0877
   34MOL0     C 4508  -0.189   4.326   1.752 -1.2221  0.4633  0.2085
   34MOL0     C 4509  -0.054   4.302   1.800  0.6772 -1.2867  0.8250
   34MOL0     C 4510   0.393   4.414   1.711 -0.7667 -0.0143  0.2025
   34MOL0     C 4511   0.425   4.485   1.829  0.3832  1.1861  0.9508
   34MOL0     C 4512   0.552   4.541   1.840 -0.6903  0.1476 -0.2782
   34MOL0     C 4513   0.656   4.504   1.744  0.3169  0.7276  0.7553
   34MOL0     O 4514   0.780   4.559   1.740 -0.0594 -0.1550  0.1835
   34MOL0     C 4515   0.860   4.542   1.851 -0.2594 -0.4675 -0.1317
   34MOL0     C 4516   0.985   4.458   1.824  0.3781  0.0752 -0.5786
   34MOL0     C 4517   0.980   4.352   1.714 -0.5073  0.2249  0.4165
   34MOL0     C 4518   0.974   4.405   1.572 -0.4687  0.0202 -0.2327
   34MOL0     C 4519   1.098   4.395   1.493 -0.1141 -0.0333 -0.7355
   34MOL0     C 4520   1.200   4.380   1.426  0.3932  0.2749 -0.4198
   34MOL0     C 4521   0.627   4.423   1.638  0.2296 -1.0930  0.3220
   34MOL0     C 4522   0.497   4.376   1.615 -0.8677  0.6988 -0.3511
   34MOL0     H 4523   0.058   4.618   1.835  1.2164 -1.2273  1.0452
   34MOL0     H 4524  -0.177   4.656   1.805  0.9849 -0.1574 -2.6307
   34MOL0     H 4525  -0.414   4.670   1.751  3.1321  0.7086  0.2739
   34MOL0     H 4526  -0.333   4.640   1.602 -2.9766  0.2318 -2.7152
   34MOL0     H 4527  -0.549   4.482   1.563  1.1696 -0.1731  1.2253
   34MOL0     H 4528  -0.614   4.589   1.686  0.2554  1.4994  0.0655
   34MOL0     H 4529  -0.522   4.781   1.516  2.4965 -0.6873 -0.6887
   34MOL0     H 4530  -0.546   4.651   1.395 -0.1484 -0.4785  0.8787
   34MOL0     H 4531  -0.785   4.647   1.466 -2.1467  0.6776 -0.5859
   34MOL0     H 4532  -0.754   4.765   1.590 -0.6602  0.3203 -0.0943
   34MOL0     H 4533  -0.655   4.928   1.409 -0.3999 -0.5349  0.7965
   34MOL0     H 4534  -0.692   4.807   1.285  2.1195  0.5138 -0.8103
   34MOL0     H 4535  -0.914   4.854   1.303 -0.2616  1.0919 -0.6338
   34MOL0     H 4536  -0.917   4.867   1.476  1.6078 -1.4798 -0.3756
   34MOL0     H 4537  -0.831   5.101   1.474  1.1913  2.7989 -0.9384
   34MOL0     H 4538  -0.805   5.091   1.311  1.5565 -3.9793 -0.5447
   34MOL0     H 4539  -0.998   5.226   1.385  0.4857 -1.0665  0.4077
   34MOL0     H 4540  -1.093   5.081   1.420  0.7936 -0.3806 -0.0071
   34MOL0     H 4541  -1.112   4.907   1.178 -2.0141 -1.0800 -1.1483
   34MOL0     H 4542  -1.164   5.036   0.816 -0.8437 -1.2067 -0.3637
   34MOL0     H 4543  -1.151   4.877   0.897  0.2896 -0.7188  2.8549
   34MOL0     H 4544  -1.374   5.061   0.954  2.1999  0.3529  1.0139
   34MOL0     H 4545  -1.356   4.879   0.956  1.1559 -1.2734 -2.0860
   34MOL0     H 4546  -1.326   4.915   0.700 -0.3802 -1.5384  1.5138
   34MOL0     H 4547  -1.402   5.072   0.722 -0.2260 -0.2554  0.0592
   34MOL0     H 4548  -1.602   4.955   0.826 -1.4249  0.5480 -1.9058
   34MOL0     H 4549  -1.534   4.800   0.799 -3.7347 -1.5358 -2.5429
   34MOL0     H 4550  -1.779   4.796   0.783 -0.7206  1.4398  0.4258
   34MOL0     H 4551  -2.091   4.677   0.741 -0.0719 -1.0000  1.6931
   34MOL0     H 4552  -1.984   4.537   0.718 -2.2930 -0.1944 -3.1618
   34MOL0     H 4553  -1.949   4.674   0.838  1.3698  0.1555  0.0777
   34MOL0     H 4554  -2.120   4.347   0.250 -0.9736 -0.6910  0.8292
   34MOL0     H 4555  -2.310   4.300   0.128 -1.8341 -0.8532 -1.7514
   34MOL0     H 4556  -2.551   4.649  -0.031  1.4964 -0.2830  2.9060
   34MOL0     H 4557  -2.439   4.593  -0.152 -0.4987  1.5490  0.3823
   34MOL0     H 4558  -2.599   4.409  -0.215  0.3232 -1.3702  3.1373
   34MOL0     H 4559  -2.721   4.489  -0.110 -0.3070  0.3892  0.0028
   34MOL0     H 4560  -2.560   4.606  -0.348  0.6447 -0.4960  0.9283
   34MOL0     H 4561  -2.678   4.706  -0.259 -3.4382 -0.4958 -0.2875
   34MOL0     H 4562  -2.745   4.449  -0.401  2.8762 -0.1854  0.2171
   34MOL0     H 4563  -2.868   4.566  -0.336  0.4817  1.2006 -0.5400
   34MOL0     H 4564  -2.880   4.614  -0.571  0.9031 -1.5976 -2.7390
   34MOL0     H 4565  -2.704   4.601  -0.575 -1.3862  1.1852 -1.2965
   34MOL0     H 4566  -2.670   4.804  -0.462 -0.6282 -2.6394  0.9524
   34MOL0     H 4567  -2.767   4.828  -0.603 -2.2608 -2.9217 -2.0868
   34MOL0     H 4568  -2.866   4.965  -0.447  1.1398 -1.6108 -3.1097
   34MOL0     H 4569  -2.845   4.842  -0.312  0.8532  0.0018  0.1448
   34MOL0     H 4570  -3.046   4.731  -0.397 -1.9931  0.2890 -0.1370
   34MOL0     H 4571  -3.028   4.814  -0.552  3.0537  0.6923 -0.8654
   34MOL0     H 4572  -2.377   4.715   0.058  0.4254 -0.1006 -0.0053
   34MOL0     H 4573  -2.158   4.769   0.192  2.3027  0.3808 -0.8479
   34MOL0     H 4574  -1.867   4.778   0.297 -1.1022  3.0947  0.0171
   34MOL0     H 4575  -1.651   4.856   0.386 -1.8095  1.5526 -0.3167
   34MOL0     H 4576  -0.268   4.253   1.738 -1.2620  0.4953  0.2646
   34MOL0     H 4577  -0.010   4.203   1.793  2.7000 -0.3161 -1.4998
   34MOL0     H 4578   0.361   4.519   1.910 -1.7387  0.8056 -0.4602
   34MOL0     H 4579   0.579   4.601   1.926 -1.9364  0.3910 -0.0529
   34MOL0     H 4580   0.892   4.641   1.886  2.2638 -2.0755  2.6215
   34MOL0     H 4581   0.799   4.488   1.925  0.0195 -2.9298 -1.5811
   34MOL0     H 4582   1.017   4.416   1.920 -2.9843  1.1078  1.1483
   34MOL0     H 4583   1.065   4.529   1.805  1.3684 -0.1245  2.2761
   34MOL0     H 4584   0.885   4.300   1.727 -1.1800  1.3499  0.0987
   34MOL0     H 4585   1.057   4.275   1.721 -0.1295  0.4625 -0.9034
   34MOL0     H 4586   0.935   4.506   1.559 -0.7709  0.0963  1.1978
   34MOL0     H 4587   0.896   4.358   1.511  0.7479 -2.4147 -0.0521
   34MOL0     H 4588   1.286   4.353   1.367 -0.0531  1.2636 -1.5575
   34MOL0     H 4589   0.709   4.399   1.572  0.1397  1.2252 -0.7323
   34MOL0     H 4590   0.474   4.307   1.534  1.3960  0.0058 -0.4778
   35MOL0     O 4591  10.012   9.398   8.888 -0.2820  0.5663 -0.5241
   35MOL0     C 4592   9.945   9.405   8.987  0.2489  0.3198  0.7064
   35MOL0     O 4593   9.990   9.430   9.108  1.1981 -0.0928  0.2958
   35MOL0     C 4594  10.125   9.431   9.138  0.3021 -0.7551 -0.1626
   35MOL0     C 4595  10.148   9.516   9.246  0.1559  0.0463 -0.1794
   35MOL0     C 4596  10.280   9.545   9.287  0.1151 -0.0790 -0.0341
   35MOL0     C 4597  10.386   9.487   9.234  0.1931  0.4253 -0.6194
   35MOL0     O 4598  10.517   9.507   9.296  0.5903  0.6279  0.3189
   35MOL0     C 4599  10.613   9.582   9.214  0.3517  0.5139 -0.3311
   35MOL0     C 4600  10.633   9.724   9.265  0.1896  0.7222 -0.1320
   35MOL0     C 4601  10.707   9.723   9.397  0.4392  0.0771 -0.4251
   35MOL0     C 4602  10.698   9.857   9.464 -0.7684  0.5251 -0.4277
   35MOL0     C 4603  10.813   9.858   9.564  0.1670  0.5054 -0.7226
   35MOL0     C 4604  10.791   9.766   9.681 -0.6775 -0.0745 -0.0154
   35MOL0     C 4605  10.896   9.810   9.790  0.4876  0.3092  0.6391
   35MOL0     C 4606  10.870   9.745   9.920  0.5517  0.9277 -0.2988
   35MOL0     N 4607  10.961   9.789  10.020  0.0713  0.1014 -0.2382
   35MOL0     C 4608  10.945   9.898  10.103 -0.4948 -0.1684  0.4421
   35MOL0     C 4609  11.058   9.894  10.179 -0.1152 -0.3627 -0.4699
   35MOL0     C 4610  11.098   9.992  10.288 -0.2635  0.3102  0.1515
   35MOL0     C 4611  10.996  10.103  10.327 -0.2923 -0.3196  0.3128
   35MOL0     C 4612  11.002  10.231  10.231 -0.1882  0.3536  0.4365
   35MOL0     C 4613  10.938  10.229  10.100 -0.1440  0.6363  0.4593
   35MOL0     O 4614  10.806  10.184  10.133  0.4942  0.2745  0.1530
   35MOL0     C 4615  10.723  10.141  10.029  0.3705  0.0080 -0.5839
   35MOL0     C 4616  10.727  10.174   9.897  1.2310 -0.4342 -0.3018
   35MOL0     C 4617  10.638  10.121   9.806  0.3216  0.1653  1.0090
   35MOL0     C 4618  10.646  10.191   9.672  0.1827 -0.3216  1.1285
   35MOL0     C 4619  10.534  10.033   9.845  0.7174  0.1288 -0.6624
   35MOL0     C 4620  10.431   9.981   9.749  0.2083 -0.2040 -0.2770
   35MOL0     O 4621  10.344   9.889   9.812 -0.7256  0.0310 -0.2501
   35MOL0     C 4622  10.253   9.828   9.734  0.3162  0.6116  0.7937
   35MOL0     C 4623  10.130   9.888   9.724 -0.1396 -0.5060 -0.7064
   35MOL0     C 4624  10.030   9.815   9.664 -0.5744  0.1589 -0.1045
   35MOL0     C 4625  10.050   9.690   9.608 -0.4520 -1.5089  0.7214
   35MOL0     O 4626   9.957   9.630   9.526  0.4248  0.0879  0.2717
   35MOL0     C 4627   9.820   9.625   9.554  1.3835 -0.3803  0.5414
   35MOL0     C 4628   9.742   9.518   9.468  0.4740  0.2723  0.6701
   35MOL0     C 4629   9.769   9.367   9.517 -0.0559 -0.9583 -0.8157
   35MOL0     C 4630   9.813   9.284   9.392  0.3138  0.7485  0.2072
   35MOL0     C 4631   9.808   9.133   9.425  0.3686  0.2103  0.0953
   35MOL0     C 4632   9.850   9.057   9.297 -0.4134  1.0158 -0.2362
   35MOL0     C 4633   9.845   8.904   9.327 -0.4537  0.2836 -0.1538
   35MOL0     C 4634   9.887   8.814   9.209 -0.3559  0.2935  0.0357
   35MOL0    Cl 4635   9.783   8.822   9.063 -0.4051  0.0435 -0.0310
   35MOL0     C 4636  10.180   9.637   9.622 -0.0355 -0.0017  0.4318
   35MOL0     C 4637  10.280   9.704   9.679  1.0149  0.2678 -1.3035
   35MOL0     O 4638  10.428  10.014   9.634  1.0349  0.7926  0.0568
   35MOL0     C 4639  10.541   9.989   9.977  0.3408  0.0550 -0.9501
   35MOL0     C 4640  10.630  10.048  10.069  0.4713  1.2347  0.6624
   35MOL0     N 4641  11.135   9.792  10.145 -0.6608  0.0927  0.6183
   35MOL0     N 4642  11.072   9.717  10.062  0.4390 -0.1334  0.2751
   35MOL0     C 4643  10.366   9.395   9.124 -0.2148 -0.4333 -0.0180
   35MOL0     C 4644  10.231   9.369   9.075 -0.5034 -0.7908 -0.5740
   35MOL0     C 4645   9.814   9.351   8.981  0.1308 -0.1451  0.0133
   35MOL0     C 4646   9.711   9.394   9.061 -1.0834  0.1378 -0.3498
   35MOL0     C 4647   9.579   9.357   9.052  0.4248 -0.2641 -0.4032
   35MOL0     C 4648   9.540   9.250   8.962  0.3305  0.0533 -0.5357
   35MOL0     O 4649   9.426   9.183   8.941 -0.9297  0.7026 -0.1579
   35MOL0     C 4650   9.308   9.203   9.014 -0.0583 -0.0864  0.8877
   35MOL0     C 4651   9.317   9.141   9.160 -0.1356 -0.2275 -0.1638
   35MOL0     C 4652   9.302   8.995   9.165  0.7445 -0.1532  0.1098
   35MOL0     C 4653   9.423   8.919   9.217  0.1786  0.5182 -0.5293
   35MOL0     C 4654   9.448   8.938   9.364  0.6322  1.5128  0.0586
   35MOL0     C 4655   9.465   8.948   9.483  0.3273  0.0470 -0.5325
   35MOL0     C 4656   9.639   9.222   8.860  0.9602  0.9510 -1.0581
   35MOL0     C 4657   9.771   9.267   8.875 -0.7334 -0.2614  0.1876
   35MOL0     H 4658  10.067   9.569   9.295  0.2554 -1.2359  1.4669
   35MOL0     H 4659  10.298   9.611   9.371 -1.7690 -0.6000  0.8491
   35MOL0     H 4660  10.707   9.528   9.200 -0.5304 -2.1163  2.6939
   35MOL0     H 4661  10.582   9.592   9.110 -0.0367 -1.8971 -0.4921
   35MOL0     H 4662  10.686   9.776   9.185  1.8890  2.7079  2.1486
   35MOL0     H 4663  10.528   9.754   9.278  0.6349  2.1028  0.3905
   35MOL0     H 4664  10.665   9.646   9.462 -2.5859  2.3359  0.5087
   35MOL0     H 4665  10.812   9.695   9.383  0.5623  0.3294 -0.0046
   35MOL0     H 4666  10.709   9.931   9.384  2.8474  1.6561  0.9092
   35MOL0     H 4667  10.602   9.879   9.512  0.8903  2.0270  2.4392
   35MOL0     H 4668  10.905   9.839   9.509 -0.0900 -3.0219 -0.1404
   35MOL0     H 4669  10.809   9.960   9.602 -1.5426  0.8095 -1.5862
   35MOL0     H 4670  10.697   9.786   9.732 -0.9834 -2.6149  0.5326
   35MOL0     H 4671  10.808   9.661   9.655  0.7138 -0.7415  3.1635
   35MOL0     H 4672  11.002   9.792   9.774  0.4123  1.3199 -1.3690
   35MOL0     H 4673  10.879   9.918   9.801  0.6666  0.5289 -0.9574
   35MOL0     H 4674  10.887   9.637   9.910 -1.5611  0.5893 -0.8593
   35MOL0     H 4675  10.765   9.759   9.948  0.4396  2.9811 -1.5437
   35MOL0     H 4676  10.866   9.971  10.118 -0.6961 -0.1627 -0.6121
   35MOL0     H 4677  11.145   9.931  10.365  0.7115  0.0363 -0.6432
   35MOL0     H 4678  11.183  10.048  10.248  2.1853 -3.3572 -0.2989
   35MOL0     H 4679  11.021  10.144  10.426 -0.6334  0.6378  0.0099
   35MOL0     H 4680  10.896  10.059  10.341 -0.1351 -0.7976 -0.0702
   35MOL0     H 4681  11.103  10.269  10.218  0.3988 -1.5742 -1.0927
   35MOL0     H 4682  10.942  10.307  10.283 -1.9199 -0.0463 -0.8683
   35MOL0     H 4683  10.993  10.157  10.039 -2.4913 -2.0861  1.3291
   35MOL0     H 4684  10.931  10.328  10.055  1.3565 -0.1021 -1.5287
   35MOL0     H 4685  10.801  10.247   9.865  1.8511 -0.8977  0.0571
   35MOL0     H 4686  10.700  10.286   9.670 -0.7604  0.2175  0.5064
   35MOL0     H 4687  10.692  10.136   9.590  1.9616  1.8640  0.5747
   35MOL0     H 4688  10.545  10.218   9.639 -1.4334 -1.6056  4.4419
   35MOL0     H 4689  10.108   9.992   9.749 -0.2407 -0.9100  1.0143
   35MOL0     H 4690   9.940   9.875   9.660 -1.2184 -0.6082  1.7542
   35MOL0     H 4691   9.797   9.608   9.660 -1.6116 -1.1496 -0.1319
   35MOL0     H 4692   9.778   9.723   9.530 -0.0034 -1.2173 -0.5948
   35MOL0     H 4693   9.636   9.540   9.480  0.1765  0.1774 -1.3501
   35MOL0     H 4694   9.772   9.528   9.363 -0.1347  0.7745  0.5363
   35MOL0     H 4695   9.678   9.344   9.573  1.1655  0.1759  1.7776
   35MOL0     H 4696   9.858   9.370   9.581  2.3079  0.1130 -3.8713
   35MOL0     H 4697   9.755   9.320   9.306  2.7640  3.4588 -0.4925
   35MOL0     H 4698   9.913   9.307   9.354  0.6408 -0.5582  0.2508
   35MOL0     H 4699   9.704   9.118   9.457  0.2178  0.2228 -0.3823
   35MOL0     H 4700   9.887   9.137   9.501  0.9697  5.1387 -0.5058
   35MOL0     H 4701   9.770   9.066   9.224 -0.1750  0.6931 -0.5417
   35MOL0     H 4702   9.952   9.090   9.271  0.4322  1.0807  2.8341
   35MOL0     H 4703   9.749   8.867   9.364 -0.0908 -0.2716  0.2563
   35MOL0     H 4704   9.919   8.886   9.406 -0.2782  4.4298  0.8215
   35MOL0     H 4705   9.893   8.710   9.243  0.5314  1.2452  3.1373
   35MOL0     H 4706   9.987   8.838   9.172  0.0506 -3.5944 -1.8437
   35MOL0     H 4707  10.208   9.544   9.573  1.4549  1.4866 -1.7269
   35MOL0     H 4708  10.379   9.661   9.691  1.3087  1.5714  2.0521
   35MOL0     H 4709  10.462   9.922  10.011  1.3856 -1.0269 -0.6137
   35MOL0     H 4710  10.614  10.007  10.168 -0.7230 -4.2389 -1.4244
   35MOL0     H 4711  10.451   9.353   9.070  1.6804  1.0648  1.6546
   35MOL0     H 4712  10.211   9.297   8.997  1.8944 -2.9950  0.7056
   35MOL0     H 4713   9.732   9.457   9.146 -1.3443  0.8726 -0.8159
   35MOL0     H 4714   9.503   9.410   9.109  0.2507  0.7358 -1.5177
   35MOL0     H 4715   9.303   9.311   9.032  1.1834 -0.5402  4.7799
   35MOL0     H 4716   9.217   9.180   8.957  1.2992  2.1913 -2.5724
   35MOL0     H 4717   9.237   9.189   9.217 -1.9055 -2.8729 -0.2684
   35MOL0     H 4718   9.409   9.170   9.212  0.9308 -0.4589 -1.8381
   35MOL0     H 4719   9.288   8.953   9.065 -0.5619 -2.4312  1.1746
   35MOL0     H 4720   9.209   8.963   9.213  0.5129 -0.5007 -0.5525
   35MOL0     H 4721   9.505   8.964   9.161 -0.5781  1.4581 -0.9165
   35MOL0     H 4722   9.423   8.810   9.203  1.9795 -0.1945  3.7000
   35MOL0     H 4723   9.489   8.982   9.582  2.5925  2.9642 -1.9335
   35MOL0     H 4724   9.611   9.147   8.788  0.8843 -1.9247  1.7411
   35MOL0     H 4725   9.850   9.240   8.804 -0.0690 -0.1886  0.8878
   36MOL0     O 4726  10.788   8.957   9.201 -0.4487  0.6633 -0.1234
   36MOL0     C 4727  10.742   9.064   9.233 -0.1149 -0.6073  1.0681
   36MOL0     O 4728  10.607   9.099   9.221 -0.4331 -0.3714  0.2835
   36MOL0     C 4729  10.522   9.027   9.145  0.4386 -0.3203  0.0723
   36MOL0     C 4730  10.393   9.061   9.171 -0.4345 -0.7468  0.2204
   36MOL0     C 4731  10.285   8.999   9.106  0.3783 -0.5639  0.3557
   36MOL0     C 4732  10.314   8.910   8.998  0.0680  0.9894  0.1241
   36MOL0     O 4733  10.215   8.853   8.919  0.4172 -0.4497  0.0019
   36MOL0     C 4734  10.091   8.926   8.901  0.4800  0.0557 -0.6404
   36MOL0     C 4735  10.057   8.902   8.753 -0.2027  0.7635 -0.0171
   36MOL0     C 4736   9.912   8.923   8.728  0.6626 -0.1400  0.4544
   36MOL0     C 4737   9.881   8.891   8.579  0.6272 -0.5372 -1.0079
   36MOL0     C 4738   9.727   8.888   8.553 -0.1785 -0.4541  0.2323
   36MOL0     C 4739   9.658   8.754   8.582 -0.1627 -0.4551 -0.0725
   36MOL0     C 4740   9.717   8.619   8.529  0.0509  0.7983 -0.3908
   36MOL0     C 4741   9.704   8.586   8.379 -0.0824 -0.5180  0.4150
   36MOL0     N 4742   9.559   8.559   8.327  0.0225 -0.8373 -0.2220
   36MOL0     C 4743   9.501   8.650   8.240 -1.3230  0.9741 -0.3681
   36MOL0     C 4744   9.377   8.599   8.214 -0.3364 -0.0400 -0.5130
   36MOL0     C 4745   9.262   8.673   8.161 -0.0999 -0.1437 -0.4244
   36MOL0     C 4746   9.210   8.777   8.261 -0.1139 -0.1232  0.2087
   36MOL0     C 4747   9.233   8.743   8.408  0.6037  0.0250  0.3932
   36MOL0     C 4748   9.157   8.831   8.498  0.2656  0.6696 -0.6968
   36MOL0     O 4749   9.191   8.795   8.632  0.6586 -0.0561 -0.1085
   36MOL0     C 4750   9.121   8.866   8.733 -0.3955  0.6765 -0.1912
   36MOL0     C 4751   9.119   8.791   8.847  0.8521  0.6714 -0.7128
   36MOL0     C 4752   9.051   8.843   8.959  0.1389  0.0833  0.1830
   36MOL0     C 4753   9.036   8.762   9.082  0.4043 -0.0934  1.3480
   36MOL0     C 4754   9.007   8.986   8.954  1.1684  0.7703 -0.2938
   36MOL0     C 4755   8.936   9.057   9.071 -0.0725  0.1415 -0.0894
   36MOL0     O 4756   8.865   9.175   9.036 -0.5703 -0.5374 -0.5318
   36MOL0     C 4757   8.794   9.243   9.143 -0.3345  0.8924 -0.0548
   36MOL0     C 4758   8.654   9.225   9.130 -0.3632 -0.2798 -0.7303
   36MOL0     C 4759   8.567   9.265   9.231  0.4140  0.0903 -0.9390
   36MOL0     C 4760   8.617   9.305   9.348  0.8713 -1.0627 -0.3777
   36MOL0     O 4761   8.545   9.354   9.448 -0.3877 -0.3987  0.1852
   36MOL0     C 4762   8.408   9.379   9.434  0.6644  0.7397 -0.4137
   36MOL0     C 4763   8.354   9.463   9.561  0.5235 -0.1444  0.2106
   36MOL0     C 4764   8.202   9.491   9.554  0.7105  0.6607  0.7450
   36MOL0     C 4765   8.167   9.589   9.436  1.0049  0.4384  0.3604
   36MOL0     C 4766   8.074   9.715   9.470  0.1727  1.0315  1.0277
   36MOL0     C 4767   8.161   9.823   9.535  0.5971 -1.1366  0.3350
   36MOL0     C 4768   8.072   9.940   9.589 -0.1890  0.0385 -0.1329
   36MOL0     C 4769   8.098  10.071   9.517  0.0034 -1.0455 -0.4360
   36MOL0    Cl 4770   8.236  10.155   9.581  0.0448  0.0967  0.3852
   36MOL0     C 4771   8.749   9.320   9.363 -0.5245 -0.1755  0.1563
   36MOL0     C 4772   8.843   9.283   9.267 -0.2828 -0.1844 -0.0673
   36MOL0     O 4773   8.936   9.001   9.182  0.0262 -0.1725 -0.1405
   36MOL0     C 4774   9.014   9.050   8.835 -0.5343 -0.2126 -0.6763
   36MOL0     C 4775   9.076   8.998   8.725  0.2149  0.4100  0.6386
   36MOL0     N 4776   9.366   8.479   8.281 -0.6771 -0.4979  0.3452
   36MOL0     N 4777   9.480   8.451   8.340  1.4929 -0.5094  0.1129
   36MOL0     C 4778  10.448   8.871   8.974 -1.2595 -0.5287  0.5660
   36MOL0     C 4779  10.552   8.936   9.035 -0.0383  0.3063 -0.1213
   36MOL0     C 4780  10.829   9.157   9.305  0.3488 -1.2152 -0.2366
   36MOL0     C 4781  10.773   9.277   9.354  0.4428 -0.6163 -0.4678
   36MOL0     C 4782  10.852   9.370   9.423 -0.0143  0.4161  0.1240
   36MOL0     C 4783  10.989   9.343   9.453  0.7549  0.0390  0.6566
   36MOL0     O 4784  11.063   9.426   9.533 -0.4138 -0.9288 -0.6465
   36MOL0     C 4785  11.204   9.425   9.553  0.2295 -0.4261 -0.6654
   36MOL0     C 4786  11.265   9.540   9.486 -0.5936  0.1541 -1.0719
   36MOL0     C 4787  11.169   9.666   9.476 -0.3147 -0.3846  0.2707
   36MOL0     C 4788  11.256   9.786   9.421 -0.4213 -0.7747 -0.7481
   36MOL0     C 4789  11.176   9.917   9.413  0.5159  0.3957 -0.3031
   36MOL0     C 4790  11.118  10.022   9.389  0.8485  0.1042 -0.3654
   36MOL0     C 4791  11.044   9.225   9.395 -1.0203 -0.6850  0.1486
   36MOL0     C 4792  10.966   9.147   9.312  0.3042 -0.2818  0.1225
   36MOL0     H 4793  10.351   9.130   9.244 -1.1485 -0.4270 -0.4743
   36MOL0     H 4794  10.181   9.010   9.136  0.3989 -1.0150  0.5940
   36MOL0     H 4795  10.014   8.878   8.962 -3.4506  3.6744 -2.2210
   36MOL0     H 4796  10.093   9.033   8.924  0.9791 -0.1128  0.1297
   36MOL0     H 4797  10.124   8.959   8.688  2.3529  0.2548  1.9707
   36MOL0     H 4798  10.074   8.795   8.740 -1.8492  0.5251 -0.3638
   36MOL0     H 4799   9.852   8.871   8.803 -1.2211 -1.3450 -1.7727
   36MOL0     H 4800   9.884   9.028   8.741 -1.3180 -0.2320 -2.2559
   36MOL0     H 4801   9.925   8.976   8.527  1.9466  0.0774  0.9915
   36MOL0     H 4802   9.927   8.798   8.546  0.8582 -0.1054 -1.9370
   36MOL0     H 4803   9.674   8.967   8.607 -1.0353  0.1405 -1.4117
   36MOL0     H 4804   9.718   8.903   8.445 -0.1509 -0.3755  0.2404
   36MOL0     H 4805   9.656   8.750   8.691  2.4909  4.3751  0.4559
   36MOL0     H 4806   9.557   8.767   8.541 -0.5594 -0.9603  0.7194
   36MOL0     H 4807   9.824   8.609   8.550 -0.4993  0.5941  2.8198
   36MOL0     H 4808   9.661   8.538   8.576 -1.1389  2.8889  2.0979
   36MOL0     H 4809   9.766   8.500   8.355  2.1805  0.7462  1.4468
   36MOL0     H 4810   9.736   8.676   8.325 -2.4536 -0.3648 -0.8946
   36MOL0     H 4811   9.540   8.746   8.208  1.7394  0.9345  2.6296
   36MOL0     H 4812   9.273   8.712   8.059 -0.3216  1.3686  0.1023
   36MOL0     H 4813   9.180   8.602   8.151 -1.1656  1.1209 -0.9571
   36MOL0     H 4814   9.106   8.795   8.232  0.7170  1.6918 -1.9054
   36MOL0     H 4815   9.257   8.873   8.242  1.8741 -1.3185 -1.2778
   36MOL0     H 4816   9.338   8.738   8.437  0.4840 -0.0036  0.8350
   36MOL0     H 4817   9.188   8.643   8.419 -0.3554  0.2880 -0.8124
   36MOL0     H 4818   9.053   8.804   8.478  0.7825 -0.6459 -1.6490
   36MOL0     H 4819   9.192   8.930   8.468  1.2212  0.0570 -1.6433
   36MOL0     H 4820   9.149   8.686   8.842 -0.0016  0.3526  0.3785
   36MOL0     H 4821   9.105   8.791   9.161  0.1566  3.0190  0.5358
   36MOL0     H 4822   8.934   8.760   9.121  0.8599 -0.3150  2.5611
   36MOL0     H 4823   9.050   8.656   9.057 -0.2972 -0.3244  1.8866
   36MOL0     H 4824   8.616   9.202   9.030 -0.7576 -4.5136  0.2158
   36MOL0     H 4825   8.460   9.253   9.217  0.0755  0.8922  0.7284
   36MOL0     H 4826   8.395   9.439   9.343 -1.1630  2.0934  0.6810
   36MOL0     H 4827   8.349   9.288   9.426  1.1855  0.2248  1.2900
   36MOL0     H 4828   8.372   9.412   9.656  0.9633  1.2853  0.9198
   36MOL0     H 4829   8.403   9.560   9.577 -1.2010  0.6114  1.0973
   36MOL0     H 4830   8.171   9.541   9.647  3.6191  1.5451  1.3461
   36MOL0     H 4831   8.140   9.401   9.554  1.9095 -0.2935 -2.3220
   36MOL0     H 4832   8.257   9.623   9.383  3.8488 -0.7895  3.9905
   36MOL0     H 4833   8.111   9.532   9.362 -0.1393 -0.4689  1.8790
   36MOL0     H 4834   7.999   9.678   9.540 -0.0915 -1.8713 -0.6298
   36MOL0     H 4835   8.021   9.748   9.381 -1.3252 -0.0225  1.4979
   36MOL0     H 4836   8.227   9.780   9.610 -0.5302 -2.4236  0.6224
   36MOL0     H 4837   8.225   9.857   9.453  3.5441 -2.0156  2.1559
   36MOL0     H 4838   8.098   9.943   9.696  1.8970 -0.1069 -0.5870
   36MOL0     H 4839   7.966   9.923   9.572  0.1338  0.9460 -3.7644
   36MOL0     H 4840   8.010  10.135   9.530  1.3303  0.4670  1.9845
   36MOL0     H 4841   8.107  10.041   9.412  1.3922 -0.5911 -0.4601
   36MOL0     H 4842   8.788   9.351   9.459  1.2814 -1.0232 -0.2621
   36MOL0     H 4843   8.948   9.265   9.285 -0.1268 -1.0400 -1.6516
   36MOL0     H 4844   8.977   9.151   8.823  3.8827  1.8821  0.7961
   36MOL0     H 4845   9.074   9.043   8.626 -0.0805 -1.9786 -0.5048
   36MOL0     H 4846  10.480   8.803   8.895  1.2795  2.6147 -1.3637
   36MOL0     H 4847  10.658   8.916   9.024  0.4342  0.7075  2.7563
   36MOL0     H 4848  10.670   9.293   9.327 -0.4880  1.7706  3.6148
   36MOL0     H 4849  10.818   9.467   9.459 -0.0146  1.0107 -1.3786
   36MOL0     H 4850  11.215   9.434   9.661  1.2914 -2.0178 -0.5940
   36MOL0     H 4851  11.262   9.336   9.526  2.4104  0.3225  1.2237
   36MOL0     H 4852  11.316   9.506   9.395  2.8007 -2.1268  1.4321
   36MOL0     H 4853  11.353   9.577   9.540 -0.9804  2.4221 -1.8896
   36MOL0     H 4854  11.121   9.692   9.571  2.5769  2.3395  1.1666
   36MOL0     H 4855  11.089   9.638   9.408  0.7237  0.1530 -1.2113
   36MOL0     H 4856  11.290   9.765   9.320 -1.0280  0.5502 -1.2471
   36MOL0     H 4857  11.341   9.809   9.486 -3.0848  0.6342  2.5524
   36MOL0     H 4858  11.050  10.105   9.386 -1.4809 -1.3719  3.5906
   36MOL0     H 4859  11.137   9.180   9.428  1.5881  2.9794 -1.4340
   36MOL0     H 4860  11.008   9.059   9.265  1.8375  0.0546  0.7995
   37MOL0     O 4861   6.655   9.324   0.551  0.0339 -0.0995 -0.8495
   37MOL0     C 4862   6.667   9.445   0.519  0.3794 -0.2688  0.3665
   37MOL0     O 4863   6.593   9.544   0.574  0.6011 -0.2096 -0.6608
   37MOL0     C 4864   6.501   9.513   0.671  0.0497  0.6581  0.5810
   37MOL0     C 4865   6.531   9.434   0.780 -0.1553 -0.0786 -0.8479
   37MOL0     C 4866   6.428   9.389   0.868 -0.4556 -0.2295 -0.0940
   37MOL0     C 4867   6.299   9.432   0.853  0.5251  0.3048  0.9907
   37MOL0     O 4868   6.196   9.397   0.927  0.5650  0.2008 -0.2615
   37MOL0     C 4869   6.208   9.317   1.046 -0.5419  0.1319  0.2782
   37MOL0     C 4870   6.218   9.170   1.010 -0.2324  0.5676  0.1135
   37MOL0     C 4871   6.097   9.121   0.937  0.1220 -0.4871 -0.0460
   37MOL0     C 4872   6.093   8.973   0.916  0.1633  0.2623 -0.8570
   37MOL0     C 4873   5.970   8.907   0.846 -0.2201 -0.2899  0.2652
   37MOL0     C 4874   5.827   8.903   0.912 -0.3499  0.2209 -0.3004
   37MOL0     C 4875   5.717   8.818   0.851 -0.1173  0.3256  0.6886
   37MOL0     C 4876   5.602   8.806   0.950  0.3128 -0.1204 -0.1558
   37MOL0     N 4877   5.479   8.749   0.890 -0.9359  0.3369  0.2188
   37MOL0     C 4878   5.460   8.620   0.828 -0.7671 -0.5847  0.5529
   37MOL0     C 4879   5.326   8.594   0.820 -0.2289 -0.4937 -0.1154
   37MOL0     C 4880   5.257   8.464   0.787  0.5937 -1.0428  0.4231
   37MOL0     C 4881   5.115   8.474   0.743  0.2572 -0.1246  0.1381
   37MOL0     C 4882   5.049   8.335   0.772 -0.5323 -0.0996  0.1769
   37MOL0     C 4883   4.926   8.293   0.692 -0.5184 -0.4166  0.0363
   37MOL0     O 4884   4.980   8.238   0.567 -0.4609 -0.1301  0.0543
   37MOL0     C 4885   4.899   8.174   0.478 -0.5719  0.5639 -0.9964
   37MOL0     C 4886   4.758   8.159   0.507  0.1380  0.4829  0.2498
   37MOL0     C 4887   4.669   8.080   0.427  0.3972 -0.7001  0.3432
   37MOL0     C 4888   4.526   8.066   0.477 -0.2928 -0.1187 -0.3564
   37MOL0     C 4889   4.724   8.014   0.311 -1.0298 -0.1477 -0.6813
   37MOL0     C 4890   4.648   7.925   0.219 -0.6525  1.0268 -0.6330
   37MOL0     O 4891   4.710   7.879   0.101  0.1027 -0.3187  0.0782
   37MOL0     C 4892   4.666   7.783   0.012  0.8143 -0.3755  0.0524
   37MOL0     C 4893   4.554   7.695   0.025 -0.6443  0.2956  0.6437
   37MOL0     C 4894   4.528   7.607  -0.083  0.8071 -1.0461 -0.2820
   37MOL0     C 4895   4.598   7.602  -0.199  0.2782 -0.1141 -0.3379
   37MOL0     O 4896   4.553   7.495  -0.285 -0.0240  0.0078 -0.1982
   37MOL0     C 4897   4.639   7.464  -0.402 -0.0372 -0.3710 -0.8165
   37MOL0     C 4898   4.565   7.354  -0.469 -0.2749  0.5509 -0.1163
   37MOL0     C 4899   4.424   7.380  -0.516  0.4499 -0.7215 -0.9427
   37MOL0     C 4900   4.353   7.285  -0.616 -0.6601 -0.2138 -0.3680
   37MOL0     C 4901   4.326   7.147  -0.561  0.4250 -1.2694  0.4559
   37MOL0     C 4902   4.290   7.055  -0.679 -0.8938  0.8218 -0.0959
   37MOL0     C 4903   4.216   6.951  -0.611 -0.2224  0.1263  0.6170
   37MOL0     C 4904   4.159   6.848  -0.714  0.3470  0.1255  0.3247
   37MOL0    Cl 4905   4.271   6.746  -0.811 -0.2316 -0.2800  0.0444
   37MOL0     C 4906   4.709   7.697  -0.217  0.0441  0.0846 -0.2983
   37MOL0     C 4907   4.739   7.780  -0.109  0.5046  0.2927  0.0290
   37MOL0     O 4908   4.529   7.891   0.244  0.2960 -0.6016 -0.3270
   37MOL0     C 4909   4.873   8.031   0.289  0.9659 -0.4769  0.4547
   37MOL0     C 4910   4.949   8.112   0.364  0.6318 -0.5651  0.5295
   37MOL0     N 4911   5.264   8.713   0.860  0.4415 -0.3649 -0.1169
   37MOL0     N 4912   5.355   8.798   0.890  0.4869  0.0006 -0.5954
   37MOL0     C 4913   6.266   9.524   0.745 -0.7457  0.6382 -0.0378
   37MOL0     C 4914   6.371   9.563   0.654 -0.8850 -0.1509  0.6218
   37MOL0     C 4915   6.776   9.474   0.421  0.3383  0.2341 -0.7256
   37MOL0     C 4916   6.764   9.576   0.341 -0.4902 -0.2125  0.1175
   37MOL0     C 4917   6.872   9.602   0.249 -0.6957  0.6947 -0.5731
   37MOL0     C 4918   6.989   9.525   0.249  0.6524  0.0348  0.2193
   37MOL0     O 4919   7.094   9.557   0.160 -0.3575 -0.5459  0.1645
   37MOL0     C 4920   7.157   9.451   0.079  0.3649 -0.1466 -1.0598
   37MOL0     C 4921   7.141   9.493  -0.069 -0.5814 -0.2407 -0.5644
   37MOL0     C 4922   6.988   9.482  -0.090  0.5152 -0.1638  0.1242
   37MOL0     C 4923   6.925   9.350  -0.121  0.3695  0.8722  0.8764
   37MOL0     C 4924   6.864   9.297   0.004  0.6447  0.0102  0.3911
   37MOL0     C 4925   6.835   9.222   0.093 -0.0918  0.1033 -0.4098
   37MOL0     C 4926   6.993   9.413   0.337 -1.1768 -0.9687 -0.1936
   37MOL0     C 4927   6.886   9.382   0.420 -0.7086  0.4465  1.1512
   37MOL0     H 4928   6.625   9.387   0.805  0.8417  3.0523  2.0750
   37MOL0     H 4929   6.459   9.306   0.931  0.9496 -0.4081 -0.9565
   37MOL0     H 4930   6.294   9.349   1.105 -0.6500 -0.1108  0.5699
   37MOL0     H 4931   6.111   9.331   1.095 -0.8742 -1.2441  0.0415
   37MOL0     H 4932   6.312   9.146   0.960  1.1408  1.0341  2.3193
   37MOL0     H 4933   6.212   9.116   1.106 -2.2986  0.1914 -0.1846
   37MOL0     H 4934   6.015   9.156   1.000  0.1541 -0.5776  0.0457
   37MOL0     H 4935   6.081   9.164   0.838 -0.3871  0.0886  0.2799
   37MOL0     H 4936   6.185   8.952   0.861  1.1811  2.2413 -0.0051
   37MOL0     H 4937   6.110   8.915   1.007  0.2953 -1.1715 -1.7523
   37MOL0     H 4938   5.953   8.950   0.747  3.1305 -0.2832 -0.4303
   37MOL0     H 4939   6.004   8.804   0.839  1.4567  0.2682 -0.2967
   37MOL0     H 4940   5.844   8.869   1.014  1.4874  1.4026 -0.1752
   37MOL0     H 4941   5.788   9.005   0.919 -3.0348 -0.6368 -1.3195
   37MOL0     H 4942   5.675   8.866   0.762  2.0608 -2.3079 -1.9253
   37MOL0     H 4943   5.746   8.717   0.820  0.4392  0.1511  1.7150
   37MOL0     H 4944   5.565   8.904   0.983  1.2021  0.1095  0.1861
   37MOL0     H 4945   5.636   8.758   1.042 -1.0960 -1.3746 -0.2618
   37MOL0     H 4946   5.539   8.557   0.788 -0.8762 -0.8717  0.7888
   37MOL0     H 4947   5.311   8.407   0.710  2.8261  0.6898  0.6217
   37MOL0     H 4948   5.262   8.397   0.873 -1.7986  0.0304  1.4802
   37MOL0     H 4949   5.104   8.495   0.636  0.1883 -0.3012  0.1108
   37MOL0     H 4950   5.080   8.557   0.804  0.6117  1.7066 -2.0332
   37MOL0     H 4951   5.028   8.333   0.880 -0.7694  0.9161  0.1565
   37MOL0     H 4952   5.118   8.251   0.770 -0.8876 -0.5706  2.9192
   37MOL0     H 4953   4.869   8.384   0.670  2.3122  1.2507 -1.0956
   37MOL0     H 4954   4.864   8.216   0.737 -0.5746 -1.3493 -1.5740
   37MOL0     H 4955   4.709   8.213   0.587  0.8959  1.5484  0.0188
   37MOL0     H 4956   4.504   7.960   0.496  3.1195 -0.3625  3.4982
   37MOL0     H 4957   4.519   8.111   0.576 -0.9574  1.0517 -0.9165
   37MOL0     H 4958   4.455   8.115   0.410  2.8827  5.6980 -0.0651
   37MOL0     H 4959   4.495   7.679   0.115 -0.1245 -1.1540  0.7654
   37MOL0     H 4960   4.452   7.531  -0.066 -0.3528  0.1699  0.2267
   37MOL0     H 4961   4.651   7.551  -0.468 -0.6027  1.8440  1.8087
   37MOL0     H 4962   4.737   7.435  -0.362 -0.1402  0.6728  0.2480
   37MOL0     H 4963   4.624   7.333  -0.559 -2.5013 -0.4827 -1.4243
   37MOL0     H 4964   4.566   7.269  -0.400 -1.7357  2.8471  2.9914
   37MOL0     H 4965   4.409   7.477  -0.564 -1.1683 -1.1527 -1.3746
   37MOL0     H 4966   4.356   7.390  -0.432  0.0282  0.4506 -1.4042
   37MOL0     H 4967   4.260   7.321  -0.662 -0.0227  1.1924 -0.6082
   37MOL0     H 4968   4.432   7.266  -0.690  0.9697 -0.6975  1.4222
   37MOL0     H 4969   4.249   7.159  -0.484  1.8149  2.0579  1.5219
   37MOL0     H 4970   4.409   7.100  -0.508 -1.9813 -3.9383  2.1403
   37MOL0     H 4971   4.221   7.108  -0.745 -0.1598  3.8016  1.3529
   37MOL0     H 4972   4.371   7.020  -0.744  0.1505 -0.8228  1.9756
   37MOL0     H 4973   4.125   6.987  -0.562 -0.6840 -0.3668  0.1327
   37MOL0     H 4974   4.283   6.910  -0.535  0.7874  1.2884  0.3789
   37MOL0     H 4975   4.095   6.895  -0.789 -0.0977 -0.4224  0.3533
   37MOL0     H 4976   4.109   6.783  -0.641  0.2269  1.8924  1.9055
   37MOL0     H 4977   4.782   7.675  -0.293  0.7486 -0.6113  0.5544
   37MOL0     H 4978   4.824   7.848  -0.115  1.2192 -0.3943  1.7452
   37MOL0     H 4979   4.919   7.974   0.208  1.1792  1.1457 -0.6168
   37MOL0     H 4980   5.053   8.120   0.334  0.2792 -0.4736 -0.7200
   37MOL0     H 4981   6.164   9.560   0.739 -0.8803  0.0284 -2.8036
   37MOL0     H 4982   6.348   9.631   0.572 -2.5237 -3.4259 -1.8560
   37MOL0     H 4983   6.672   9.632   0.328 -0.8656 -0.8905 -0.1639
   37MOL0     H 4984   6.879   9.682   0.176  3.3035  1.3983  0.3098
   37MOL0     H 4985   7.264   9.448   0.102 -0.1914  2.8346  3.0658
   37MOL0     H 4986   7.115   9.351   0.088  0.2654 -0.4166 -3.7010
   37MOL0     H 4987   7.193   9.412  -0.121 -1.2950 -0.4017 -1.0450
   37MOL0     H 4988   7.182   9.592  -0.088 -0.7656 -0.5868 -3.1608
   37MOL0     H 4989   6.981   9.539  -0.183 -0.1277 -0.0322  0.2511
   37MOL0     H 4990   6.934   9.546  -0.020  0.0411 -0.6967  0.2468
   37MOL0     H 4991   6.999   9.272  -0.141 -1.9760 -1.3661  0.3794
   37MOL0     H 4992   6.860   9.349  -0.209 -1.8685 -0.9286  2.4317
   37MOL0     H 4993   6.803   9.177   0.185  0.7040 -0.0613 -0.2111
   37MOL0     H 4994   7.088   9.361   0.338 -0.6600 -0.0558  1.2462
   37MOL0     H 4995   6.886   9.291   0.480 -1.6404  0.5119  1.2659
   38MOL0     O 4996   6.673   5.722  11.159  0.9287  0.2180  0.8678
   38MOL0     C 4997   6.679   5.698  11.038  0.3866  0.5597  0.5209
   38MOL0     O 4998   6.800   5.687  10.971  0.7463  0.2192  0.0620
   38MOL0     C 4999   6.909   5.660  11.044  0.3970 -0.5741  0.6726
   38MOL0     C 5000   6.982   5.544  11.004 -0.2499 -1.2692 -0.0598
   38MOL0     C 5001   7.102   5.519  11.076 -0.3469 -0.3865  0.7104
   38MOL0     C 5002   7.158   5.614  11.163 -0.1668 -0.3103 -0.2774
   38MOL0     O 5003   7.277   5.592  11.227  0.5523  0.0406 -0.3504
   38MOL0     C 5004   7.386   5.659  11.169 -0.5156  1.0188  0.6789
   38MOL0     C 5005   7.520   5.580  11.194  1.1703  0.3751 -0.7093
   38MOL0     C 5006   7.574   5.587  11.336 -0.0151  0.2610 -0.8268
   38MOL0     C 5007   7.723   5.567  11.345 -0.6664 -0.2364 -0.2996
   38MOL0     C 5008   7.769   5.543  11.491 -0.0986  0.3891 -0.2477
   38MOL0     C 5009   7.921   5.524  11.503 -0.5844 -0.5776 -0.7130
   38MOL0     C 5010   7.985   5.540  11.645 -1.1315  0.5451 -0.6795
   38MOL0     C 5011   7.927   5.660  11.737  0.4767 -0.2501  0.4148
   38MOL0     N 5012   7.924   5.786  11.665 -0.5153 -0.1569  0.1816
   38MOL0     C 5013   8.027   5.846  11.587  1.1636 -0.7705  0.2764
   38MOL0     C 5014   7.974   5.957  11.535  2.0268  0.7905  0.1684
   38MOL0     C 5015   8.040   6.055  11.440  0.2114  0.4603  0.5090
   38MOL0     C 5016   7.991   6.051  11.297  0.4542 -0.2389  1.3224
   38MOL0     C 5017   8.028   6.175  11.210 -1.3250 -0.1325  0.4510
   38MOL0     C 5018   7.944   6.289  11.261  0.0156 -0.0218 -0.3909
   38MOL0     O 5019   7.976   6.402  11.182 -0.1900  0.0439  0.4538
   38MOL0     C 5020   7.918   6.527  11.201 -0.0514 -0.4658 -0.1829
   38MOL0     C 5021   7.812   6.551  11.291 -0.0805  0.1985  0.2027
   38MOL0     C 5022   7.777   6.677  11.328  0.9278 -0.2033  0.4306
   38MOL0     C 5023   7.652   6.695  11.414  0.5594  0.4432 -0.0772
   38MOL0     C 5024   7.829   6.790  11.252 -0.8333  0.3178 -0.9923
   38MOL0     C 5025   7.783   6.924  11.269 -0.1629  0.5773 -0.3933
   38MOL0     O 5026   7.768   6.974  11.401  0.5009  0.2483  0.0399
   38MOL0     C 5027   7.819   7.098  11.431 -0.3457 -0.0088  0.4216
   38MOL0     C 5028   7.928   7.160  11.364 -0.7628 -0.0181 -0.4098
   38MOL0     C 5029   7.971   7.282  11.411 -0.0988 -0.4537  0.3268
   38MOL0     C 5030   7.904   7.349  11.522 -0.4450  0.2021 -0.1224
   38MOL0     O 5031   7.977   7.460  11.578 -0.0269 -0.2300  1.3538
   38MOL0     C 5032   7.928   7.509  11.699 -0.2799 -0.4864 -0.2212
   38MOL0     C 5033   8.017   7.621  11.761  0.2628 -0.7136 -0.1673
   38MOL0     C 5034   8.024   7.746  11.674 -0.7911  0.8482  0.2181
   38MOL0     C 5035   7.886   7.792  11.628  0.1353  0.7882 -0.3547
   38MOL0     C 5036   7.890   7.907  11.529  0.6519  0.1903  0.1676
   38MOL0     C 5037   7.757   7.964  11.485  0.0421  0.7888  0.6462
   38MOL0     C 5038   7.766   8.081  11.390 -0.6665  0.2257 -0.1422
   38MOL0     C 5039   7.637   8.140  11.372 -0.0237 -0.8724 -0.0535
   38MOL0    Cl 5040   7.651   8.277  11.256 -0.3783 -0.3786  0.3100
   38MOL0     C 5041   7.784   7.293  11.578 -0.7299 -0.1312 -0.2729
   38MOL0     C 5042   7.751   7.164  11.538  0.0124 -0.0665  0.7235
   38MOL0     O 5043   7.748   6.979  11.169  0.2079 -0.3204  0.6625
   38MOL0     C 5044   7.934   6.771  11.155  0.5004 -0.6691 -0.5087
   38MOL0     C 5045   7.978   6.636  11.133 -0.5013 -1.2459 -0.5547
   38MOL0     N 5046   7.849   5.975  11.595 -0.0514  0.0547 -0.0898
   38MOL0     N 5047   7.816   5.867  11.654  0.3282  0.1842  0.2838
   38MOL0     C 5048   7.092   5.736  11.185  0.1054 -0.2552 -0.4726
   38MOL0     C 5049   6.963   5.755  11.128 -0.1313 -0.8346  0.5621
   38MOL0     C 5050   6.548   5.690  10.958  0.1310  0.0265  0.0067
   38MOL0     C 5051   6.426   5.650  11.022  0.5044 -0.1746 -0.0325
   38MOL0     C 5052   6.305   5.647  10.959  0.4848  0.5524  1.0364
   38MOL0     C 5053   6.292   5.686  10.828  0.1176 -1.1306 -0.2816
   38MOL0     O 5054   6.170   5.710  10.771  0.2492  0.6484  0.0880
   38MOL0     C 5055   6.095   5.821  10.820 -0.7688 -0.3821 -0.2653
   38MOL0     C 5056   6.183   5.952  10.813  0.2230  0.4335  0.0564
   38MOL0     C 5057   6.229   5.983  10.675 -0.1631 -0.2199 -0.2205
   38MOL0     C 5058   6.119   6.069  10.598  0.0647 -0.3406 -1.0314
   38MOL0     C 5059   6.116   6.053  10.455  0.1574  0.6122 -0.6525
   38MOL0     C 5060   6.127   6.033  10.339  0.6226  0.5798  0.4647
   38MOL0     C 5061   6.412   5.715  10.763 -0.2624 -0.2424  0.3975
   38MOL0     C 5062   6.536   5.717  10.823 -1.3159  0.2776 -0.3623
   38MOL0     H 5063   6.951   5.471  10.931  1.5436 -0.6405 -1.5511
   38MOL0     H 5064   7.157   5.426  11.065 -0.5061 -0.3302 -0.8053
   38MOL0     H 5065   7.375   5.656  11.060 -1.6548 -0.1370  0.7878
   38MOL0     H 5066   7.406   5.760  11.203  0.0407  2.1944 -2.7086
   38MOL0     H 5067   7.497   5.475  11.173  1.5401 -0.1301  1.2191
   38MOL0     H 5068   7.590   5.621  11.121 -0.9504  4.7389 -0.5949
   38MOL0     H 5069   7.546   5.675  11.394 -1.0071 -0.6843  0.1870
   38MOL0     H 5070   7.522   5.515  11.400  1.3529 -0.2951 -0.3198
   38MOL0     H 5071   7.754   5.481  11.286 -4.3928 -0.9379 -1.5322
   38MOL0     H 5072   7.779   5.656  11.314  1.1508  0.0889  3.3646
   38MOL0     H 5073   7.738   5.634  11.545  0.5735 -0.0695  0.9517
   38MOL0     H 5074   7.713   5.458  11.531  1.0622  0.8180  2.5289
   38MOL0     H 5075   7.948   5.425  11.465  0.1872 -0.2787 -0.9589
   38MOL0     H 5076   7.962   5.601  11.437 -0.2358 -0.2230 -0.0845
   38MOL0     H 5077   7.961   5.451  11.705 -2.5758  2.1841  1.3167
   38MOL0     H 5078   8.092   5.557  11.632 -1.3312  0.8531 -2.0182
   38MOL0     H 5079   7.996   5.667  11.822  1.4483 -0.6359 -0.3142
   38MOL0     H 5080   7.834   5.622  11.782 -2.4468  3.5271 -1.9153
   38MOL0     H 5081   8.120   5.796  11.564  0.3896 -1.1919 -2.1590
   38MOL0     H 5082   8.033   6.154  11.487 -1.6222  0.7191 -0.2334
   38MOL0     H 5083   8.148   6.041  11.437  0.1889  0.4281 -0.3307
   38MOL0     H 5084   7.882   6.044  11.300  0.3436  0.7074  0.2338
   38MOL0     H 5085   8.040   5.968  11.246  3.5692  2.1085  0.1626
   38MOL0     H 5086   8.013   6.153  11.103  0.5349  0.0995  0.1093
   38MOL0     H 5087   8.131   6.208  11.226 -2.1504  3.4571 -0.7646
   38MOL0     H 5088   7.965   6.303  11.367 -0.7552  0.3708 -0.2824
   38MOL0     H 5089   7.841   6.253  11.249  0.6246 -1.7518 -0.7621
   38MOL0     H 5090   7.754   6.469  11.330  0.2528 -1.4892 -2.6222
   38MOL0     H 5091   7.572   6.742  11.356  0.1907 -1.3915 -1.1617
   38MOL0     H 5092   7.621   6.600  11.458 -1.5622  1.0436 -0.1573
   38MOL0     H 5093   7.679   6.756  11.500 -4.5515  2.9868  0.0819
   38MOL0     H 5094   7.992   7.114  11.290  0.7358 -1.6630  1.7582
   38MOL0     H 5095   8.053   7.338  11.369 -0.0158  0.0428  1.1235
   38MOL0     H 5096   7.825   7.543  11.694 -0.2139 -0.4641 -2.1967
   38MOL0     H 5097   7.939   7.434  11.778  1.2622 -0.4219 -0.3350
   38MOL0     H 5098   7.993   7.640  11.866  2.3669 -2.1091  0.6460
   38MOL0     H 5099   8.116   7.579  11.782  0.4906  0.2272  0.7659
   38MOL0     H 5100   8.086   7.726  11.586 -1.9003  0.3316 -0.4611
   38MOL0     H 5101   8.076   7.827  11.727 -0.1265  0.4548  0.1878
   38MOL0     H 5102   7.832   7.711  11.579 -3.2906  1.7565  1.4658
   38MOL0     H 5103   7.825   7.814  11.717  2.5328  3.8858  0.6962
   38MOL0     H 5104   7.951   7.870  11.446 -0.3579 -1.7205  0.2119
   38MOL0     H 5105   7.947   7.989  11.573  0.9129  1.8766 -3.0076
   38MOL0     H 5106   7.699   7.884  11.439 -0.5766  0.7252  1.5159
   38MOL0     H 5107   7.708   8.000  11.576 -0.0374 -0.5934  1.1730
   38MOL0     H 5108   7.814   8.049  11.297  0.9542  0.6056  0.5239
   38MOL0     H 5109   7.842   8.152  11.425  0.5295 -0.6018 -0.9747
   38MOL0     H 5110   7.591   8.173  11.466  4.9271 -0.9236  2.6961
   38MOL0     H 5111   7.564   8.076  11.322 -1.8543 -0.3328  1.7734
   38MOL0     H 5112   7.714   7.335  11.648 -1.2610  0.0001 -0.8703
   38MOL0     H 5113   7.670   7.107  11.583  1.0246 -0.6058  1.9058
   38MOL0     H 5114   7.970   6.866  11.117 -1.0087  0.4176  0.6262
   38MOL0     H 5115   8.071   6.609  11.084  0.8356 -2.1099  2.2622
   38MOL0     H 5116   7.137   5.818  11.239 -2.6995  0.8784  0.3335
   38MOL0     H 5117   6.909   5.848  11.141  0.8660  0.0267 -1.0002
   38MOL0     H 5118   6.406   5.608  11.121 -1.2611 -1.5261 -0.9055
   38MOL0     H 5119   6.223   5.604  11.015  1.0907  0.1206  1.6110
   38MOL0     H 5120   6.007   5.827  10.756  0.0426  0.4942 -1.3635
   38MOL0     H 5121   6.055   5.807  10.921  3.2190  0.1202  1.5986
   38MOL0     H 5122   6.269   5.934  10.879  1.6358 -1.1133 -2.0420
   38MOL0     H 5123   6.125   6.030  10.861  0.4960 -1.3817  3.6898
   38MOL0     H 5124   6.251   5.892  10.617 -0.7073 -1.0675  0.8601
   38MOL0     H 5125   6.322   6.040  10.683 -0.0006 -0.6948  1.7853
   38MOL0     H 5126   6.129   6.177  10.616  2.0808 -0.5387 -0.6988
   38MOL0     H 5127   6.018   6.038  10.625  0.5761 -1.3190 -0.1734
   38MOL0     H 5128   6.129   6.000  10.237  4.0092 -2.0828  1.2107
   38MOL0     H 5129   6.411   5.735  10.656 -1.8260 -1.2259  0.1988
   38MOL0     H 5130   6.626   5.734  10.765 -1.3990  0.3387 -0.4741
   39MOL0     O 5131   6.523  10.964  10.904 -0.9722 -0.0013 -0.1301
   39MOL0     C 5132   6.499  10.942  10.788 -0.1255 -0.0582  0.2307
   39MOL0     O 5133   6.385  10.897  10.743  0.4874 -0.2084 -0.8646
   39MOL0     C 5134   6.275  10.898  10.818  0.3897 -0.8846  0.6261
   39MOL0     C 5135   6.202  10.784  10.813  0.6901 -0.4941 -1.1549
   39MOL0     C 5136   6.073  10.777  10.870  0.2228 -0.3445 -0.4537
   39MOL0     C 5137   6.020  10.887  10.926 -0.2317 -0.4135 -0.9205
   39MOL0     O 5138   5.902  10.906  10.994 -0.1677  0.9539 -0.8004
   39MOL0     C 5139   5.794  10.821  10.987 -0.4758  0.4996  0.6888
   39MOL0     C 5140   5.663  10.880  11.040  0.0023 -0.1747 -0.0499
   39MOL0     C 5141   5.528  10.789  11.013 -0.2636  0.6395  0.8125
   39MOL0     C 5142   5.432  10.780  11.132  0.2956 -0.1566 -0.9180
   39MOL0     C 5143   5.282  10.744  11.089 -1.0386 -0.0825 -0.6622
   39MOL0     C 5144   5.194  10.693  11.201 -0.0798  0.4766 -0.3218
   39MOL0     C 5145   5.050  10.713  11.160 -0.4441  0.7290 -0.6562
   39MOL0     C 5146   4.970  10.628  11.259  0.0864 -0.5395 -0.5688
   39MOL0     N 5147   4.846  10.694  11.299  0.5660  0.7198 -0.0400
   39MOL0     C 5148   4.802  10.722  11.428 -0.4946 -0.6035 -0.0182
   39MOL0     C 5149   4.675  10.751  11.421 -0.4708  0.4865  1.2745
   39MOL0     C 5150   4.594  10.766  11.539 -0.1326 -0.2967 -0.8523
   39MOL0     C 5151   4.635  10.898  11.613 -0.3440 -0.0080  0.4094
   39MOL0     C 5152   4.713  10.866  11.735  0.4327 -0.0078  0.9847
   39MOL0     C 5153   4.726  10.989  11.826 -0.2724  0.6198  0.2585
   39MOL0     O 5154   4.854  10.979  11.889 -0.1767 -0.5499  0.1218
   39MOL0     C 5155   4.857  10.902  11.999 -0.1007 -0.4791  0.5088
   39MOL0     C 5156   4.750  10.833  12.058  0.3551 -1.1539  0.2809
   39MOL0     C 5157   4.773  10.743  12.156  0.2174 -0.4361  0.6709
   39MOL0     C 5158   4.646  10.665  12.198 -0.2836 -0.6354 -0.5018
   39MOL0     C 5159   4.902  10.724  12.205 -0.0373 -0.1903  0.8806
   39MOL0     C 5160   4.939  10.631  12.314  0.0182  0.7102  0.2684
   39MOL0     O 5161   5.055  10.648  12.373  0.3974 -0.2393  0.1257
   39MOL0     C 5162   5.085  10.559  12.479 -0.8727  0.9723 -0.4670
   39MOL0     C 5163   5.032  10.569  12.610  0.7604  0.2073 -0.5752
   39MOL0     C 5164   5.064  10.475  12.705  0.2174  0.0497  0.1988
   39MOL0     C 5165   5.160  10.381  12.686 -1.0400  0.9305 -0.0208
   39MOL0     O 5166   5.205  10.278  12.762 -0.1713 -0.7445 -0.0686
   39MOL0     C 5167   5.156  10.267  12.899 -0.4538 -0.0474 -0.9733
   39MOL0     C 5168   5.169  10.126  12.961 -0.7419 -0.2268  0.7477
   39MOL0     C 5169   5.077  10.024  12.891 -0.4910 -1.6745 -0.6561
   39MOL0     C 5170   5.089   9.889  12.964  0.4643  0.7001  0.6253
   39MOL0     C 5171   5.000   9.788  12.893 -0.3410  0.4155  0.3429
   39MOL0     C 5172   5.018   9.654  12.963  0.5672  0.2821 -0.6304
   39MOL0     C 5173   4.968   9.541  12.868 -0.9694 -0.2181 -0.3171
   39MOL0     C 5174   4.968   9.410  12.954  0.6214 -0.9786  0.0723
   39MOL0    Cl 5175   4.882   9.281  12.862 -0.1148 -0.1340  0.6298
   39MOL0     C 5176   5.219  10.373  12.563  0.3380 -0.7791 -0.2238
   39MOL0     C 5177   5.179  10.458  12.461 -0.5825  0.7385 -0.0356
   39MOL0     O 5178   4.863  10.540  12.344  0.4091 -0.2408 -0.1715
   39MOL0     C 5179   5.009  10.796  12.144  0.7767  0.1297  0.0367
   39MOL0     C 5180   4.984  10.884  12.046  0.0082 -0.1754 -0.0370
   39MOL0     N 5181   4.628  10.756  11.289 -0.7968 -0.1456  0.4624
   39MOL0     N 5182   4.730  10.711  11.221 -0.3941  0.0316 -0.4096
   39MOL0     C 5183   6.094  11.004  10.932  0.0500 -0.0466  1.6165
   39MOL0     C 5184   6.226  11.011  10.880  0.7289  0.6739 -0.2562
   39MOL0     C 5185   6.608  10.972  10.690 -0.0868  0.2904 -0.6423
   39MOL0     C 5186   6.575  11.007  10.560 -0.2748  0.4376 -0.7794
   39MOL0     C 5187   6.680  11.029  10.465  0.3584  0.1906  0.4276
   39MOL0     C 5188   6.814  11.031  10.502  0.1798  0.1202 -0.6860
   39MOL0     O 5189   6.908  11.049  10.402 -0.1978  0.1284  0.6159
   39MOL0     C 5190   7.047  11.023  10.432  0.3931 -0.0971  0.3048
   39MOL0     C 5191   7.143  11.034  10.314 -0.9856 -0.2402 -1.1282
   39MOL0     C 5192   7.089  10.940  10.204  0.2859 -0.4162  0.8173
   39MOL0     C 5193   7.175  10.940  10.073 -0.1300 -0.5913  0.7663
   39MOL0     C 5194   7.304  10.877  10.098  0.1110  1.0384 -1.2830
   39MOL0     C 5195   7.409  10.824  10.138 -0.1315  0.8087  0.9924
   39MOL0     C 5196   6.845  11.008  10.633 -0.3453 -0.2219 -0.6217
   39MOL0     C 5197   6.745  10.984  10.728  0.3806  0.2889 -0.5007
   39MOL0     H 5198   6.248  10.694  10.773  2.6728 -0.0004 -0.0927
   39MOL0     H 5199   6.028  10.679  10.862  2.5378 -1.5863  0.6712
   39MOL0     H 5200   5.780  10.804  10.880  0.4396 -1.1103  0.7947
   39MOL0     H 5201   5.803  10.721  11.029 -1.3408 -0.6872 -1.7546
   39MOL0     H 5202   5.668  10.899  11.147  1.7793 -0.6151 -0.0331
   39MOL0     H 5203   5.655  10.979  10.994  1.3282  0.5041  1.1107
   39MOL0     H 5204   5.483  10.839  10.926  1.9765 -1.4659 -1.7541
   39MOL0     H 5205   5.549  10.689  10.974 -2.8140  0.3082  0.1212
   39MOL0     H 5206   5.467  10.706  11.205  2.2527  1.9092  0.3759
   39MOL0     H 5207   5.424  10.875  11.186 -1.3172 -0.0080 -1.3909
   39MOL0     H 5208   5.246  10.835  11.040 -1.7561 -0.0936 -0.1718
   39MOL0     H 5209   5.291  10.660  11.020 -0.5547 -0.5332 -0.0662
   39MOL0     H 5210   5.210  10.587  11.223 -4.2500 -0.2899 -0.1994
   39MOL0     H 5211   5.209  10.752  11.293  2.4176 -1.0546  0.3518
   39MOL0     H 5212   5.025  10.819  11.163 -1.6249  0.4439  0.9256
   39MOL0     H 5213   5.020  10.660  11.069 -1.7170 -0.1039  0.2175
   39MOL0     H 5214   5.030  10.630  11.350 -0.8189  1.8057  0.0694
   39MOL0     H 5215   4.950  10.525  11.228 -2.0122  0.1987 -1.8630
   39MOL0     H 5216   4.862  10.714  11.518 -1.3494 -3.2564  0.4028
   39MOL0     H 5217   4.485  10.772  11.527 -0.9223 -0.8737  3.8008
   39MOL0     H 5218   4.603  10.678  11.604  0.4534 -0.5639 -1.2923
   39MOL0     H 5219   4.541  10.943  11.645 -1.0625 -1.0112 -0.2170
   39MOL0     H 5220   4.677  10.976  11.550 -4.2686  2.2627  0.3057
   39MOL0     H 5221   4.810  10.823  11.708  1.6160  1.7117  2.2841
   39MOL0     H 5222   4.650  10.796  11.791  1.2448  0.1888  2.2084
   39MOL0     H 5223   4.634  10.994  11.884 -1.3605 -1.2687 -1.1802
   39MOL0     H 5224   4.717  11.074  11.757 -3.1856 -0.1267 -0.4366
   39MOL0     H 5225   4.650  10.845  12.019 -0.8155 -0.7560  3.1829
   39MOL0     H 5226   4.559  10.730  12.182  0.1889  0.3136  0.6465
   39MOL0     H 5227   4.648  10.559  12.171  5.7214 -3.2441  6.5848
   39MOL0     H 5228   4.660  10.655  12.306  0.8151 -1.8056 -0.7232
   39MOL0     H 5229   4.944  10.630  12.628  1.1144 -0.4112  4.7792
   39MOL0     H 5230   5.017  10.469  12.802 -1.1239 -3.1399 -0.5246
   39MOL0     H 5231   5.210  10.335  12.966 -1.8889 -1.4322  1.7714
   39MOL0     H 5232   5.049  10.289  12.901 -0.1844  1.4079 -1.4215
   39MOL0     H 5233   5.270  10.087  12.972 -1.5271 -2.9734 -0.6760
   39MOL0     H 5234   5.127  10.142  13.061 -1.1271 -1.2333  0.7589
   39MOL0     H 5235   5.119  10.012  12.791 -0.2443 -2.9564 -0.4189
   39MOL0     H 5236   4.974  10.060  12.878 -0.5749 -1.1565  1.1638
   39MOL0     H 5237   5.193   9.858  12.967  0.3136 -0.1017 -1.0639
   39MOL0     H 5238   5.050   9.908  13.064  1.6565 -2.6324  1.8375
   39MOL0     H 5239   5.013   9.787  12.785 -3.0530  1.8132 -0.0891
   39MOL0     H 5240   4.894   9.815  12.902 -0.5157  0.4509 -1.4249
   39MOL0     H 5241   5.126   9.639  12.979  0.6531  1.9131  0.5444
   39MOL0     H 5242   4.967   9.648  13.059 -2.7911 -0.0918 -2.3015
   39MOL0     H 5243   5.011   9.537  12.767 -2.3053 -2.9267 -0.8855
   39MOL0     H 5244   4.861   9.553  12.849 -1.5035 -0.6930  2.1144
   39MOL0     H 5245   4.907   9.420  13.044 -0.8814 -4.2046 -0.4291
   39MOL0     H 5246   5.070   9.378  12.978  0.5876 -0.4219  0.9900
   39MOL0     H 5247   5.306  10.308  12.562 -0.0254 -1.2745 -0.5616
   39MOL0     H 5248   5.223  10.449  12.362  2.1785 -0.6405  1.1964
   39MOL0     H 5249   5.108  10.778  12.185 -0.3610 -0.8986  2.5320
   39MOL0     H 5250   5.077  10.922  12.005  0.2884  0.1498  0.8757
   39MOL0     H 5251   6.054  11.083  10.995  0.3385 -0.1515  1.9404
   39MOL0     H 5252   6.290  11.098  10.889  0.7065  0.5077  2.2724
   39MOL0     H 5253   6.472  10.993  10.528  0.3412 -1.5242 -2.1226
   39MOL0     H 5254   6.665  11.031  10.357  1.9971 -1.2290  0.1195
   39MOL0     H 5255   7.073  11.098  10.506  0.2881  0.1270  0.1147
   39MOL0     H 5256   7.053  10.917  10.461 -1.1816 -0.6227 -1.0920
   39MOL0     H 5257   7.247  11.009  10.337 -0.8185  0.8782 -0.5792
   39MOL0     H 5258   7.149  11.138  10.281 -0.5961 -0.0885 -0.5927
   39MOL0     H 5259   6.985  10.960  10.176  0.5299  1.6525  1.2651
   39MOL0     H 5260   7.097  10.838  10.244  4.7194  0.2596  2.2069
   39MOL0     H 5261   7.193  11.045  10.050  0.3489 -0.9230 -0.4184
   39MOL0     H 5262   7.116  10.883  10.001 -1.7325 -1.5270  2.6960
   39MOL0     H 5263   7.496  10.772  10.170  0.4487  1.8631  1.1835
   39MOL0     H 5264   6.942  11.038  10.671 -1.3467  0.9896  1.1302
   39MOL0     H 5265   6.775  10.977  10.832 -0.3426  0.5756 -0.2633
   40MOL0     O 5266   2.944   6.028   7.439  0.8000 -0.3925 -0.3476
   40MOL0     C 5267   2.990   5.916   7.476 -0.6205  0.0757 -0.5484
   40MOL0     O 5268   2.932   5.799   7.484  0.4419 -0.2133  0.2682
   40MOL0     C 5269   2.817   5.780   7.410  0.0710  0.0664 -1.1524
   40MOL0     C 5270   2.823   5.809   7.274 -1.1799  0.5392 -0.1715
   40MOL0     C 5271   2.721   5.779   7.190  0.4157 -0.1536  0.6997
   40MOL0     C 5272   2.609   5.714   7.234  0.6779  0.1689 -0.1988
   40MOL0     O 5273   2.510   5.668   7.148 -0.1660  0.0148 -0.5737
   40MOL0     C 5274   2.549   5.662   7.015 -0.7742  0.0484 -0.0439
   40MOL0     C 5275   2.425   5.592   6.943 -0.1570  0.0203 -0.8815
   40MOL0     C 5276   2.296   5.666   6.961  0.7908 -0.0563  0.2319
   40MOL0     C 5277   2.279   5.764   6.849 -0.4050 -0.3652  0.5350
   40MOL0     C 5278   2.172   5.861   6.899  0.6593 -0.9215 -0.2308
   40MOL0     C 5279   2.148   5.970   6.787  0.1688  0.5432 -0.9423
   40MOL0     C 5280   2.028   6.074   6.798  1.0467  0.6797  0.3090
   40MOL0     C 5281   2.019   6.142   6.658 -0.1504  0.8081  0.7037
   40MOL0     N 5282   1.917   6.246   6.646 -0.0858  0.1362 -0.0964
   40MOL0     C 5283   1.928   6.372   6.691  0.2946  0.5590  1.2345
   40MOL0     C 5284   1.829   6.440   6.634  0.3044 -0.0925 -0.2912
   40MOL0     C 5285   1.806   6.577   6.684  0.5657 -0.4896  0.8820
   40MOL0     C 5286   1.703   6.652   6.603  0.1342 -0.6389  0.1618
   40MOL0     C 5287   1.770   6.702   6.478 -0.0962 -0.1367 -0.0552
   40MOL0     C 5288   1.671   6.783   6.398  0.3532 -0.5905 -0.6174
   40MOL0     O 5289   1.704   6.852   6.284  0.3791 -0.4033  0.6780
   40MOL0     C 5290   1.733   6.776   6.175  0.8450  1.2370  0.1036
   40MOL0     C 5291   1.690   6.642   6.164  0.0926 -0.2063 -0.0760
   40MOL0     C 5292   1.731   6.568   6.051 -0.9373  0.7641 -0.0845
   40MOL0     C 5293   1.723   6.414   6.068  0.6720 -0.2397 -0.4383
   40MOL0     C 5294   1.789   6.623   5.933 -0.1837 -0.5609  0.0591
   40MOL0     C 5295   1.820   6.561   5.805  0.0351 -0.1281  0.3285
   40MOL0     O 5296   1.912   6.626   5.726 -0.7658  0.0195  0.0138
   40MOL0     C 5297   1.972   6.556   5.626  1.1769 -0.1548 -0.2959
   40MOL0     C 5298   2.026   6.427   5.638  1.1613  0.1473  0.8304
   40MOL0     C 5299   2.112   6.372   5.541 -0.5036  0.3232 -0.2084
   40MOL0     C 5300   2.137   6.448   5.421 -0.0325  0.2379 -0.6237
   40MOL0     O 5301   2.213   6.401   5.317  0.3292 -0.5146 -0.2024
   40MOL0     C 5302   2.334   6.340   5.350 -0.1978  0.4948 -0.0487
   40MOL0     C 5303   2.408   6.316   5.230  0.5050 -0.5952  0.5152
   40MOL0     C 5304   2.551   6.269   5.261 -0.6281 -0.0894 -0.1741
   40MOL0     C 5305   2.652   6.343   5.169  0.2116  0.2483  0.6073
   40MOL0     C 5306   2.618   6.328   5.021 -0.1413 -0.2590 -0.4153
   40MOL0     C 5307   2.745   6.342   4.939 -0.4086  0.0175  0.0904
   40MOL0     C 5308   2.703   6.324   4.789 -0.0232  0.2334 -0.4347
   40MOL0     C 5309   2.842   6.317   4.712  0.4097 -0.3603 -0.1596
   40MOL0    Cl 5310   2.927   6.471   4.728 -0.0121 -0.3971 -0.6104
   40MOL0     C 5311   2.078   6.579   5.403  0.0630 -0.1915  0.8983
   40MOL0     C 5312   2.001   6.633   5.506 -0.4809  0.1629  0.2020
   40MOL0     O 5313   1.769   6.456   5.780 -0.3642  0.2655 -0.2513
   40MOL0     C 5314   1.815   6.756   5.945 -1.1242  0.1747  0.0619
   40MOL0     C 5315   1.795   6.833   6.063  0.0807 -0.3236 -0.7474
   40MOL0     N 5316   1.744   6.353   6.564  0.5767 -0.6636  0.0575
   40MOL0     N 5317   1.801   6.233   6.578 -0.1857 -1.0971 -0.0972
   40MOL0     C 5318   2.592   5.704   7.370 -0.0195 -0.1353  0.5677
   40MOL0     C 5319   2.693   5.736   7.455 -0.4245 -0.0685 -0.0867
   40MOL0     C 5320   3.138   5.922   7.493  0.1461 -0.6429  0.0678
   40MOL0     C 5321   3.203   6.033   7.549  0.1616  0.5807  0.2307
   40MOL0     C 5322   3.336   6.021   7.588 -0.6925 -0.8351 -0.3904
   40MOL0     C 5323   3.405   5.902   7.590 -0.2999  0.1115  0.3096
   40MOL0     O 5324   3.529   5.884   7.648  0.7623 -0.0534  0.4146
   40MOL0     C 5325   3.603   5.996   7.701 -0.2431  0.8229  0.7613
   40MOL0     C 5326   3.734   5.947   7.772 -0.4090 -0.9251 -0.0033
   40MOL0     C 5327   3.813   5.869   7.680  0.4275 -0.0710 -0.3669
   40MOL0     C 5328   3.960   5.836   7.723 -0.1789  0.2693  0.4301
   40MOL0     C 5329   4.056   5.943   7.692 -1.0143 -0.4250 -0.3905
   40MOL0     C 5330   4.141   6.029   7.658 -0.2221  0.2979  0.3063
   40MOL0     C 5331   3.348   5.796   7.522 -0.6745 -0.3577  0.4979
   40MOL0     C 5332   3.212   5.799   7.482 -0.4085  0.1000 -0.3983
   40MOL0     H 5333   2.919   5.828   7.227 -0.6308 -0.2994  0.5757
   40MOL0     H 5334   2.745   5.807   7.089 -0.5785 -2.4090 -0.2371
   40MOL0     H 5335   2.557   5.755   6.957 -0.2921 -0.3858 -0.6852
   40MOL0     H 5336   2.635   5.595   7.008 -2.2806 -1.9308 -0.7954
   40MOL0     H 5337   2.440   5.607   6.835  0.5070  2.0034 -0.5510
   40MOL0     H 5338   2.413   5.484   6.950 -1.0860  0.0182 -2.0956
   40MOL0     H 5339   2.214   5.594   6.967  0.5039  0.3169  0.9020
   40MOL0     H 5340   2.294   5.721   7.055  1.5685  0.3168  0.0352
   40MOL0     H 5341   2.377   5.810   6.829  0.2752 -0.9776  2.2695
   40MOL0     H 5342   2.246   5.706   6.763  1.3315 -1.1440  0.3469
   40MOL0     H 5343   2.084   5.799   6.920  0.1773  0.1900  1.2451
   40MOL0     H 5344   2.205   5.915   6.988  2.3113 -0.3611 -1.1497
   40MOL0     H 5345   2.229   6.043   6.788 -1.2130  2.1925 -2.3202
   40MOL0     H 5346   2.159   5.921   6.690  2.5542 -1.6730  0.3393
   40MOL0     H 5347   1.936   6.029   6.835  2.5945 -2.9154  0.2663
   40MOL0     H 5348   2.060   6.149   6.871 -1.0029  2.0001 -0.0855
   40MOL0     H 5349   1.998   6.070   6.578 -0.3762  1.2209  0.3929
   40MOL0     H 5350   2.112   6.193   6.633 -0.8760  0.8740 -2.1906
   40MOL0     H 5351   2.000   6.410   6.763  4.0227  0.8463 -2.2574
   40MOL0     H 5352   1.767   6.571   6.786 -2.4990  0.7485 -0.1127
   40MOL0     H 5353   1.900   6.633   6.687 -0.1634  1.0456 -1.6189
   40MOL0     H 5354   1.668   6.743   6.653 -1.0908 -0.5438 -0.8379
   40MOL0     H 5355   1.613   6.596   6.576  0.9854 -0.6971 -2.8237
   40MOL0     H 5356   1.800   6.615   6.418 -0.4918 -0.9481  0.8976
   40MOL0     H 5357   1.857   6.763   6.502 -1.3761  2.3003 -1.2469
   40MOL0     H 5358   1.638   6.853   6.475  0.4200 -1.8449  0.5853
   40MOL0     H 5359   1.583   6.725   6.369 -0.1785  0.4094 -1.0715
   40MOL0     H 5360   1.631   6.590   6.239 -0.1715  3.5440  2.5475
   40MOL0     H 5361   1.707   6.378   6.171 -3.8968 -0.0487 -0.8760
   40MOL0     H 5362   1.644   6.378   6.002  0.3234 -0.6059  0.1658
   40MOL0     H 5363   1.817   6.363   6.044  0.4138 -0.7537 -0.3702
   40MOL0     H 5364   2.015   6.379   5.735  0.1147  1.3344  1.3327
   40MOL0     H 5365   2.160   6.276   5.556 -1.0991  0.2686  1.5104
   40MOL0     H 5366   2.404   6.393   5.415  1.8115 -1.2325 -0.6511
   40MOL0     H 5367   2.321   6.242   5.397 -1.6349  2.0436  3.0522
   40MOL0     H 5368   2.345   6.245   5.174  0.6483  0.2976 -0.8384
   40MOL0     H 5369   2.417   6.411   5.176 -0.8862  1.0962  3.1063
   40MOL0     H 5370   2.557   6.160   5.259  0.5432 -0.1963  2.9333
   40MOL0     H 5371   2.590   6.293   5.361 -0.3874 -0.4172 -0.1877
   40MOL0     H 5372   2.644   6.451   5.180 -2.8387  0.3084 -1.0799
   40MOL0     H 5373   2.750   6.299   5.189 -0.0328 -0.8426 -0.4311
   40MOL0     H 5374   2.546   6.399   4.978 -1.7017 -1.0820  0.7175
   40MOL0     H 5375   2.572   6.230   5.002 -3.6067  1.2688 -0.6501
   40MOL0     H 5376   2.784   6.444   4.951  0.3406 -0.2620  0.0604
   40MOL0     H 5377   2.828   6.276   4.968  1.1054  0.8017 -2.1718
   40MOL0     H 5378   2.645   6.409   4.751 -0.9134 -0.0527  0.2496
   40MOL0     H 5379   2.650   6.228   4.784 -1.2366  0.7077  1.7855
   40MOL0     H 5380   2.834   6.279   4.610 -1.5345  1.3495 -0.7181
   40MOL0     H 5381   2.899   6.243   4.768  0.4319  1.1963  2.0360
   40MOL0     H 5382   2.100   6.637   5.313 -0.2809 -2.9761 -1.1150
   40MOL0     H 5383   1.956   6.732   5.507 -1.4544 -0.2497  2.1501
   40MOL0     H 5384   1.853   6.822   5.868  0.1373  0.0925  0.5871
   40MOL0     H 5385   1.829   6.936   6.062 -0.2287 -0.2126 -1.8247
   40MOL0     H 5386   2.498   5.663   7.405  0.9367 -1.2667  1.9136
   40MOL0     H 5387   2.682   5.721   7.562  0.7185 -2.4884 -0.2475
   40MOL0     H 5388   3.151   6.128   7.560 -1.6113 -0.2409 -0.5842
   40MOL0     H 5389   3.390   6.110   7.617 -2.6239  0.9585 -1.9962
   40MOL0     H 5390   3.619   6.075   7.627 -1.6336 -0.6319 -1.2146
   40MOL0     H 5391   3.524   6.043   7.760 -4.5779 -2.3328 -1.8608
   40MOL0     H 5392   3.710   5.897   7.866  0.8696  0.3181  1.0230
   40MOL0     H 5393   3.806   6.024   7.803  1.4855 -2.7251  0.3287
   40MOL0     H 5394   3.818   5.915   7.581 -4.5701 -1.9042 -1.7574
   40MOL0     H 5395   3.772   5.769   7.664  0.0370 -0.4427  2.4536
   40MOL0     H 5396   4.001   5.747   7.674  2.5358  1.6434  0.0009
   40MOL0     H 5397   3.974   5.816   7.830 -2.9747 -1.2519  0.6036
   40MOL0     H 5398   4.195   6.111   7.615  0.9040 -0.8909 -0.6226
   40MOL0     H 5399   3.404   5.703   7.522 -1.0474 -0.5862  0.6485
   40MOL0     H 5400   3.176   5.705   7.442 -0.5953  0.8767 -2.1603
   41MOL0     O 5401   0.003   5.062   7.746  0.5783 -0.9850 -0.2503
   41MOL0     C 5402  -0.047   5.069   7.632  0.7702  0.1051  0.0836
   41MOL0     O 5403   0.024   5.094   7.522  0.1914 -0.6507  0.6111
   41MOL0     C 5404   0.161   5.098   7.524 -0.7886 -0.0525  0.4531
   41MOL0     C 5405   0.240   4.997   7.573 -0.6086 -0.0709  0.7848
   41MOL0     C 5406   0.382   5.015   7.567 -0.1740 -0.4044 -0.6641
   41MOL0     C 5407   0.440   5.139   7.525 -0.2395 -0.7009 -0.5290
   41MOL0     O 5408   0.574   5.145   7.510  0.5831  0.3008  0.7732
   41MOL0     C 5409   0.670   5.051   7.577  0.2157  0.3557  0.0015
   41MOL0     C 5410   0.815   5.074   7.554 -0.0202 -0.5360  0.2689
   41MOL0     C 5411   0.873   5.165   7.664  1.6149 -0.7173 -0.6010
   41MOL0     C 5412   1.006   5.220   7.597  0.3668  0.4185 -0.7029
   41MOL0     C 5413   1.075   5.338   7.678  0.1994  0.4429  0.2593
   41MOL0     C 5414   1.209   5.381   7.624 -0.3210 -0.4230  0.3654
   41MOL0     C 5415   1.196   5.443   7.490  0.4556 -0.0509 -0.0613
   41MOL0     C 5416   1.313   5.535   7.465  0.0988 -1.3895  0.3663
   41MOL0     N 5417   1.269   5.615   7.353 -0.0965 -0.4516 -0.0758
   41MOL0     C 5418   1.237   5.743   7.350  1.2241 -0.3491 -0.2656
   41MOL0     C 5419   1.184   5.776   7.230  0.6050  0.4945 -0.2431
   41MOL0     C 5420   1.134   5.899   7.165  0.9644  0.5665  0.8143
   41MOL0     C 5421   0.973   5.919   7.160 -0.5754 -0.0195 -0.6079
   41MOL0     C 5422   0.895   5.791   7.129  0.0484  0.4136  1.0658
   41MOL0     C 5423   0.744   5.821   7.115 -0.7847 -0.7190 -0.4437
   41MOL0     O 5424   0.692   5.902   7.213  0.1234  0.0021 -0.2299
   41MOL0     C 5425   0.555   5.920   7.209 -0.8550 -0.3076  0.1498
   41MOL0     C 5426   0.494   5.971   7.320  0.2798 -0.4866 -0.4260
   41MOL0     C 5427   0.353   5.960   7.339 -1.1612  0.0748 -0.4673
   41MOL0     C 5428   0.295   6.011   7.474 -0.1989 -1.0793 -0.0241
   41MOL0     C 5429   0.274   5.918   7.236 -0.2021 -0.6311  1.8102
   41MOL0     C 5430   0.127   5.906   7.237  0.9125 -0.1578  0.3406
   41MOL0     O 5431   0.063   5.911   7.106  0.4460 -0.4480 -0.5870
   41MOL0     C 5432  -0.069   5.895   7.122  0.2539 -0.1957  1.5188
   41MOL0     C 5433  -0.159   5.999   7.088  0.3462  0.3245 -0.0672
   41MOL0     C 5434  -0.294   5.988   7.099  0.4067  0.3441 -0.6940
   41MOL0     C 5435  -0.345   5.864   7.143  0.0949 -0.8105  0.3490
   41MOL0     O 5436  -0.473   5.834   7.180 -0.5844 -0.6972  0.2025
   41MOL0     C 5437  -0.581   5.907   7.122 -0.5453  0.2819  0.1604
   41MOL0     C 5438  -0.726   5.861   7.130 -0.2141 -0.4191  0.2266
   41MOL0     C 5439  -0.749   5.795   7.266  0.5091  0.6607  0.0070
   41MOL0     C 5440  -0.901   5.804   7.303  0.4987 -0.8814  0.8484
   41MOL0     C 5441  -0.972   5.704   7.221 -0.5775  0.4150 -0.8030
   41MOL0     C 5442  -1.120   5.696   7.253 -0.2463 -0.6820  0.3079
   41MOL0     C 5443  -1.196   5.577   7.198 -0.5057 -0.4907  0.6789
   41MOL0     C 5444  -1.221   5.560   7.052 -0.2459 -0.1168  0.0618
   41MOL0    Cl 5445  -1.065   5.523   6.958  0.1101  0.0697 -0.2551
   41MOL0     C 5446  -0.262   5.765   7.190 -0.7083 -0.0786  0.2678
   41MOL0     C 5447  -0.126   5.767   7.169 -0.0965 -0.1873  0.6699
   41MOL0     O 5448   0.072   5.892   7.346 -0.2449 -0.3349  0.5538
   41MOL0     C 5449   0.331   5.894   7.113 -1.2305  0.1999 -0.5083
   41MOL0     C 5450   0.474   5.883   7.102  0.2454  0.9030 -0.6931
   41MOL0     N 5451   1.182   5.654   7.160  0.2738 -0.4143 -0.2767
   41MOL0     N 5452   1.227   5.561   7.230  0.2443  0.1112 -0.1077
   41MOL0     C 5453   0.355   5.238   7.485  0.1980  0.2472 -0.5346
   41MOL0     C 5454   0.222   5.219   7.479 -0.6454 -0.1039 -0.0869
   41MOL0     C 5455  -0.190   5.040   7.624  0.2135 -0.1396 -0.3693
   41MOL0     C 5456  -0.262   5.042   7.503  0.5917 -0.9827 -0.8024
   41MOL0     C 5457  -0.394   5.004   7.499 -0.6433  0.0279 -0.3587
   41MOL0     C 5458  -0.464   4.938   7.603 -1.1731 -0.4991  0.6708
   41MOL0     O 5459  -0.585   4.872   7.579 -0.1337  0.2281 -0.3879
   41MOL0     C 5460  -0.611   4.826   7.447  1.4880 -1.0156  0.3308
   41MOL0     C 5461  -0.736   4.738   7.442 -0.3687 -0.7996  0.1694
   41MOL0     C 5462  -0.764   4.656   7.571 -0.1721  0.5940 -0.5191
   41MOL0     C 5463  -0.841   4.528   7.537  0.3991 -0.3775  0.0876
   41MOL0     C 5464  -0.968   4.546   7.465 -0.1956  0.0347 -0.7194
   41MOL0     C 5465  -1.067   4.566   7.401  0.3952  0.8731 -0.0055
   41MOL0     C 5466  -0.391   4.937   7.724  0.4164  0.1907 -0.1138
   41MOL0     C 5467  -0.260   4.986   7.742 -0.1110 -0.1289  0.0758
   41MOL0     H 5468   0.191   4.908   7.610 -2.2441  0.6006  0.3131
   41MOL0     H 5469   0.450   4.937   7.600 -0.9715 -0.1705  1.7244
   41MOL0     H 5470   0.653   5.037   7.684 -3.6434 -2.5002 -0.7498
   41MOL0     H 5471   0.654   4.962   7.515  4.7980  0.1813 -1.3082
   41MOL0     H 5472   0.860   4.975   7.555  0.2525 -0.4762  3.3249
   41MOL0     H 5473   0.813   5.118   7.454 -0.3974 -1.4316 -0.1315
   41MOL0     H 5474   0.808   5.249   7.686  3.5239  0.2453  1.9269
   41MOL0     H 5475   0.898   5.104   7.752  1.6750  0.1850  0.0169
   41MOL0     H 5476   1.071   5.133   7.604 -0.0240  0.2446  2.8954
   41MOL0     H 5477   0.986   5.248   7.493 -0.7935 -2.9613 -1.5353
   41MOL0     H 5478   1.002   5.419   7.682 -0.8527 -0.3381 -1.9568
   41MOL0     H 5479   1.093   5.313   7.783  0.5484  0.0909  0.1203
   41MOL0     H 5480   1.243   5.449   7.703 -1.1742  0.9503 -0.3967
   41MOL0     H 5481   1.283   5.301   7.627 -1.5677 -1.6855 -1.1616
   41MOL0     H 5482   1.189   5.367   7.412  1.7931 -3.1940  2.6670
   41MOL0     H 5483   1.101   5.495   7.475  1.1230  0.7900 -1.6355
   41MOL0     H 5484   1.395   5.464   7.450  0.8055 -1.2307  3.0170
   41MOL0     H 5485   1.339   5.596   7.552  0.0363  1.3902 -1.4190
   41MOL0     H 5486   1.252   5.811   7.434  0.1644  1.7106 -1.6689
   41MOL0     H 5487   1.194   5.989   7.184 -1.7044  3.0317 -1.4609
   41MOL0     H 5488   1.162   5.885   7.060 -1.2407  0.6577  0.1695
   41MOL0     H 5489   0.939   5.988   7.083  0.3611 -1.5755 -2.4881
   41MOL0     H 5490   0.937   5.935   7.262 -2.4346  0.0958 -1.2511
   41MOL0     H 5491   0.906   5.714   7.206  2.6138  0.1374  0.5052
   41MOL0     H 5492   0.927   5.745   7.035 -2.8343 -0.6349  0.4850
   41MOL0     H 5493   0.688   5.727   7.124  0.2101 -1.3938 -1.0810
   41MOL0     H 5494   0.725   5.861   7.014  0.1257 -1.9956 -1.1444
   41MOL0     H 5495   0.557   6.006   7.402  2.9622 -2.7479 -1.3519
   41MOL0     H 5496   0.371   6.062   7.533  0.6977  0.7570 -2.6187
   41MOL0     H 5497   0.217   6.086   7.459  0.3593 -0.4989 -0.0637
   41MOL0     H 5498   0.251   5.923   7.523  0.0278 -0.3810  1.4902
   41MOL0     H 5499  -0.121   6.094   7.052 -2.4224  0.6377 -2.5143
   41MOL0     H 5500  -0.358   6.070   7.069 -0.3034 -0.5289 -1.6252
   41MOL0     H 5501  -0.590   6.001   7.177 -0.5923  0.2966  0.1281
   41MOL0     H 5502  -0.548   5.930   7.020  2.0029  1.6129  1.2044
   41MOL0     H 5503  -0.792   5.945   7.104  1.9485  0.9460 -1.2658
   41MOL0     H 5504  -0.738   5.786   7.051 -0.9489  1.2116 -1.2924
   41MOL0     H 5505  -0.706   5.835   7.359  1.4976  0.5628 -0.3991
   41MOL0     H 5506  -0.713   5.693   7.253  2.2298  1.3820 -1.2889
   41MOL0     H 5507  -0.909   5.776   7.409 -0.0095 -0.1125  1.0235
   41MOL0     H 5508  -0.958   5.896   7.287  0.1184 -1.3700 -0.7424
   41MOL0     H 5509  -0.925   5.606   7.232 -0.7934  0.3141 -0.7600
   41MOL0     H 5510  -0.945   5.714   7.116  4.0246 -0.9705  0.0519
   41MOL0     H 5511  -1.156   5.712   7.355 -0.1738  1.2702  0.0652
   41MOL0     H 5512  -1.161   5.784   7.201  1.7022 -0.5346 -1.1049
   41MOL0     H 5513  -1.287   5.570   7.258 -0.4466  2.3673  1.2418
   41MOL0     H 5514  -1.130   5.493   7.222 -1.3647 -1.4627 -0.3005
   41MOL0     H 5515  -1.268   5.651   7.012 -1.4136 -0.8919 -0.4017
   41MOL0     H 5516  -1.284   5.470   7.046 -0.6184  0.2154 -1.4104
   41MOL0     H 5517  -0.303   5.675   7.236 -1.2410 -0.2710 -0.5499
   41MOL0     H 5518  -0.062   5.683   7.194 -0.2811 -0.1367  1.3221
   41MOL0     H 5519   0.273   5.873   7.023 -0.8083  0.8070 -0.9261
   41MOL0     H 5520   0.507   5.831   7.012 -0.8979 -1.0413 -0.0226
   41MOL0     H 5521   0.392   5.336   7.454 -0.4396 -0.8146 -5.4813
   41MOL0     H 5522   0.162   5.292   7.425  1.1295  1.7921  0.3902
   41MOL0     H 5523  -0.222   5.084   7.411 -2.0532 -1.0297 -2.0638
   41MOL0     H 5524  -0.436   5.022   7.400  0.0733 -1.6576 -1.0006
   41MOL0     H 5525  -0.633   4.912   7.383 -0.4184 -1.5916  0.1814
   41MOL0     H 5526  -0.531   4.757   7.418  0.4905 -1.5027 -1.3707
   41MOL0     H 5527  -0.728   4.658   7.367 -1.6298 -1.5641  0.8179
   41MOL0     H 5528  -0.818   4.801   7.407  0.2291  0.9021  1.6691
   41MOL0     H 5529  -0.812   4.715   7.649 -0.2684 -0.8723  0.5670
   41MOL0     H 5530  -0.673   4.623   7.622 -1.9079 -2.3925  0.8905
   41MOL0     H 5531  -0.870   4.489   7.635 -1.6445 -0.8648 -0.6508
   41MOL0     H 5532  -0.776   4.463   7.478  2.3920  1.2465  0.3993
   41MOL0     H 5533  -1.162   4.580   7.354  0.8777  0.7158 -1.0778
   41MOL0     H 5534  -0.437   4.898   7.815  2.3588 -2.1293 -0.0215
   41MOL0     H 5535  -0.211   4.961   7.835  0.2102 -1.9215 -0.5218
   42MOL0     O 5536   0.624   5.364   4.208 -0.1352 -0.4129 -0.9260
   42MOL0     C 5537   0.741   5.337   4.168  0.5233 -0.5194 -0.6495
   42MOL0     O 5538   0.781   5.222   4.087 -0.2746  0.0464 -0.6209
   42MOL0     C 5539   0.701   5.136   4.021  0.5202  0.0928  0.4265
   42MOL0     C 5540   0.743   5.004   3.986  0.0871 -0.6303  0.1742
   42MOL0     C 5541   0.641   4.914   3.943 -0.4998 -0.6886 -0.6072
   42MOL0     C 5542   0.513   4.963   3.915  0.1746 -0.0470 -0.5249
   42MOL0     O 5543   0.414   4.883   3.865 -0.5645  0.5688 -1.0395
   42MOL0     C 5544   0.447   4.752   3.818  0.2638  0.7629 -0.3881
   42MOL0     C 5545   0.328   4.673   3.761  0.7949  0.0046 -0.4764
   42MOL0     C 5546   0.219   4.649   3.859  0.1957 -0.3757 -0.3889
   42MOL0     C 5547   0.111   4.754   3.871  0.1397 -0.6945 -0.0348
   42MOL0     C 5548  -0.003   4.702   3.962 -0.0724 -0.5732 -0.9854
   42MOL0     C 5549   0.037   4.704   4.111 -0.2223  0.6696  0.2520
   42MOL0     C 5550  -0.106   4.683   4.179  0.2461  0.6781 -0.7889
   42MOL0     C 5551  -0.087   4.644   4.326  0.3809 -0.2287  0.7290
   42MOL0     N 5552  -0.214   4.641   4.404  1.8598  0.3253  0.1157
   42MOL0     C 5553  -0.234   4.561   4.513 -0.4873 -0.5568  0.1050
   42MOL0     C 5554  -0.359   4.587   4.552  0.2214 -0.9777  0.3077
   42MOL0     C 5555  -0.427   4.532   4.673 -0.0534 -0.2379  0.0501
   42MOL0     C 5556  -0.492   4.646   4.753  0.2490 -0.3317  0.0959
   42MOL0     C 5557  -0.640   4.602   4.772 -0.7094  0.4447 -0.4631
   42MOL0     C 5558  -0.726   4.702   4.845  0.7056 -0.6279  0.4936
   42MOL0     O 5559  -0.682   4.704   4.983  0.1140 -0.0395  0.1266
   42MOL0     C 5560  -0.753   4.779   5.070  0.3179 -0.0393 -0.8833
   42MOL0     C 5561  -0.719   4.751   5.205 -0.5724 -0.2294  0.1895
   42MOL0     C 5562  -0.784   4.812   5.321 -0.9282 -0.7174 -0.2102
   42MOL0     C 5563  -0.742   4.765   5.459 -0.6527 -0.5973 -0.6259
   42MOL0     C 5564  -0.894   4.897   5.297  1.6641  0.7621 -0.7037
   42MOL0     C 5565  -0.981   4.965   5.407  0.2453 -0.6410  0.1612
   42MOL0     O 5566  -1.108   5.014   5.377  0.0574  0.0524  0.1823
   42MOL0     C 5567  -1.188   5.048   5.475  0.8006  0.2505 -0.3513
   42MOL0     C 5568  -1.204   4.967   5.597 -0.4166 -0.3904  1.3038
   42MOL0     C 5569  -1.256   5.018   5.717  0.5655 -0.9956 -0.6582
   42MOL0     C 5570  -1.311   5.156   5.710  0.4727  0.4208 -0.4271
   42MOL0     O 5571  -1.386   5.218   5.813 -0.2330  0.3252  0.3862
   42MOL0     C 5572  -1.384   5.159   5.946 -1.2422 -0.9862  0.2434
   42MOL0     C 5573  -1.241   5.163   6.015 -0.0597  0.3074  0.7697
   42MOL0     C 5574  -1.231   5.206   6.163  0.1053 -0.0379 -0.0861
   42MOL0     C 5575  -1.263   5.357   6.177  0.4771  0.3479  0.3278
   42MOL0     C 5576  -1.364   5.380   6.288 -0.0524  0.3952 -0.9434
   42MOL0     C 5577  -1.383   5.530   6.281 -0.1486  0.2270 -0.1540
   42MOL0     C 5578  -1.489   5.569   6.394  0.3498 -0.7477 -0.0584
   42MOL0     C 5579  -1.527   5.719   6.389  1.1922  0.2409  0.0996
   42MOL0    Cl 5580  -1.382   5.808   6.380 -0.3030 -0.1117 -0.0757
   42MOL0     C 5581  -1.294   5.228   5.587  0.2178  0.2157 -0.4628
   42MOL0     C 5582  -1.226   5.177   5.477 -0.3210  0.0892  0.5543
   42MOL0     O 5583  -0.922   4.987   5.514  0.9924  0.4633  0.8203
   42MOL0     C 5584  -0.934   4.917   5.160 -0.1231  0.2155 -0.4058
   42MOL0     C 5585  -0.862   4.864   5.048  0.0516  0.0784 -1.1281
   42MOL0     N 5586  -0.411   4.673   4.456  0.6429  0.9264 -0.4582
   42MOL0     N 5587  -0.331   4.695   4.362 -0.1703  0.1420  0.3049
   42MOL0     C 5588   0.487   5.091   3.922  0.3063 -0.3013  0.1682
   42MOL0     C 5589   0.573   5.189   3.978  0.2883  0.4982  0.0845
   42MOL0     C 5590   0.847   5.423   4.219 -0.5209 -0.3559  0.2813
   42MOL0     C 5591   0.975   5.410   4.159  0.0431  1.4180 -0.7108
   42MOL0     C 5592   1.090   5.479   4.207  0.1613  0.6607  0.1157
   42MOL0     C 5593   1.086   5.580   4.306 -0.2985 -0.2100 -0.1018
   42MOL0     O 5594   1.198   5.662   4.335  0.2500 -0.8227 -0.2775
   42MOL0     C 5595   1.185   5.752   4.445  0.0914  0.3979  0.5262
   42MOL0     C 5596   1.305   5.838   4.478 -0.0065 -0.2602  0.7486
   42MOL0     C 5597   1.415   5.756   4.541  0.2988  0.1441  0.1778
   42MOL0     C 5598   1.539   5.840   4.575 -0.2287  0.3585  0.5059
   42MOL0     C 5599   1.508   5.948   4.674 -0.6514  0.0634 -0.2604
   42MOL0     C 5600   1.470   6.037   4.741 -0.2241 -0.1424 -0.2892
   42MOL0     C 5601   0.958   5.599   4.361  0.5412  0.4817 -0.0945
   42MOL0     C 5602   0.839   5.524   4.318 -0.2525  0.3810  0.2043
   42MOL0     H 5603   0.840   4.964   4.013  0.2797  0.6395  1.5374
   42MOL0     H 5604   0.663   4.808   3.941  0.3561 -0.4988 -2.1128
   42MOL0     H 5605   0.514   4.766   3.732 -0.1240 -2.3941 -1.3149
   42MOL0     H 5606   0.497   4.694   3.895  0.1860  0.1384 -0.8026
   42MOL0     H 5607   0.288   4.716   3.669  1.8582 -1.2941 -1.5790
   42MOL0     H 5608   0.352   4.576   3.716  1.0766  1.7008 -4.3705
   42MOL0     H 5609   0.168   4.559   3.823 -1.8799 -0.8420  3.1590
   42MOL0     H 5610   0.267   4.644   3.957  1.0963 -0.7153 -0.8430
   42MOL0     H 5611   0.149   4.849   3.911  0.2229  0.1176 -1.9534
   42MOL0     H 5612   0.073   4.780   3.772  2.4734  2.4033 -0.2622
   42MOL0     H 5613  -0.102   4.746   3.944 -0.4934 -0.7920  0.6452
   42MOL0     H 5614  -0.032   4.600   3.936 -1.9947  0.3663 -2.8397
   42MOL0     H 5615   0.104   4.624   4.142 -1.5554 -1.3199 -1.6671
   42MOL0     H 5616   0.080   4.799   4.145 -1.5378  1.8434 -1.2076
   42MOL0     H 5617  -0.165   4.775   4.180 -0.5040  0.2080 -1.3184
   42MOL0     H 5618  -0.169   4.604   4.137 -2.1587  0.3091  3.0897
   42MOL0     H 5619  -0.026   4.725   4.367  0.1834  1.3091 -1.7636
   42MOL0     H 5620  -0.041   4.546   4.336 -0.1391 -0.4825  0.7007
   42MOL0     H 5621  -0.173   4.488   4.566 -0.9617 -2.5116 -1.9034
   42MOL0     H 5622  -0.501   4.466   4.626 -0.9046 -0.6225  1.8536
   42MOL0     H 5623  -0.370   4.465   4.738 -1.7343 -1.2712  0.5306
   42MOL0     H 5624  -0.482   4.744   4.704  1.6474 -1.8323 -2.8642
   42MOL0     H 5625  -0.455   4.643   4.856 -1.2088 -2.3694  0.6277
   42MOL0     H 5626  -0.645   4.508   4.828 -2.3751  0.0475 -1.2314
   42MOL0     H 5627  -0.689   4.598   4.675  0.9719  0.2219 -1.3443
   42MOL0     H 5628  -0.832   4.676   4.851 -0.2149  2.9319  2.0521
   42MOL0     H 5629  -0.710   4.804   4.807  0.0290  0.2343  2.4067
   42MOL0     H 5630  -0.642   4.676   5.214 -1.9950 -2.3327 -3.3015
   42MOL0     H 5631  -0.832   4.749   5.519 -0.9384  0.9459 -0.6147
   42MOL0     H 5632  -0.692   4.668   5.447 -0.6174 -0.2555 -4.2071
   42MOL0     H 5633  -0.681   4.832   5.519 -0.3569 -0.0164 -1.5455
   42MOL0     H 5634  -1.157   4.869   5.606  2.8959  1.2037  3.1434
   42MOL0     H 5635  -1.278   4.954   5.802  0.4313 -0.9415 -0.6504
   42MOL0     H 5636  -1.441   5.237   5.998  1.7836  1.4996  0.1086
   42MOL0     H 5637  -1.432   5.061   5.943  0.1896 -1.6893 -0.7610
   42MOL0     H 5638  -1.198   5.064   5.994 -1.2727  0.4648 -3.3703
   42MOL0     H 5639  -1.187   5.239   5.957 -1.4466 -0.4310 -1.6362
   42MOL0     H 5640  -1.128   5.190   6.199 -0.9242 -2.0798  2.2427
   42MOL0     H 5641  -1.295   5.145   6.227  1.2760  1.6133  2.8623
   42MOL0     H 5642  -1.167   5.407   6.192  1.1736 -0.2252 -1.8384
   42MOL0     H 5643  -1.299   5.405   6.086  0.5193  2.1501  1.2297
   42MOL0     H 5644  -1.308   5.360   6.380 -2.2560  2.9957  1.1729
   42MOL0     H 5645  -1.461   5.329   6.292 -1.4377  2.9085  1.6482
   42MOL0     H 5646  -1.287   5.575   6.305  1.7084 -1.7927 -3.1118
   42MOL0     H 5647  -1.412   5.562   6.180  2.6746  2.1272 -0.4687
   42MOL0     H 5648  -1.449   5.549   6.494 -2.7648  0.3903  1.5557
   42MOL0     H 5649  -1.582   5.512   6.400 -0.8780  1.3284  3.4628
   42MOL0     H 5650  -1.581   5.750   6.480  0.7105 -0.8032  0.1895
   42MOL0     H 5651  -1.592   5.732   6.302  1.5205  1.4020  0.0183
   42MOL0     H 5652  -1.342   5.326   5.584 -0.1855  0.0103 -0.9213
   42MOL0     H 5653  -1.212   5.248   5.396 -0.5208  2.9793  2.8708
   42MOL0     H 5654  -1.004   4.997   5.137  1.2382  1.8023  0.7174
   42MOL0     H 5655  -0.890   4.889   4.946 -2.4898 -0.0041 -0.5006
   42MOL0     H 5656   0.384   5.119   3.907  0.0052 -1.4689 -0.0304
   42MOL0     H 5657   0.535   5.291   3.978 -2.6138 -0.5106 -0.4841
   42MOL0     H 5658   0.997   5.340   4.079  2.9311 -2.6503  3.1456
   42MOL0     H 5659   1.184   5.454   4.159  1.0024  0.6538  1.7169
   42MOL0     H 5660   1.093   5.807   4.428 -1.7516 -2.8449 -1.1156
   42MOL0     H 5661   1.157   5.680   4.522 -2.7018 -1.0023 -1.6128
   42MOL0     H 5662   1.268   5.910   4.551 -0.2841 -1.5262  1.9088
   42MOL0     H 5663   1.341   5.881   4.384  0.1650 -1.9996 -0.0220
   42MOL0     H 5664   1.438   5.675   4.472  1.2839 -1.8944  2.7553
   42MOL0     H 5665   1.371   5.720   4.634  1.1603  1.4755  1.1373
   42MOL0     H 5666   1.580   5.879   4.482  1.9108 -2.7415  0.0090
   42MOL0     H 5667   1.614   5.770   4.614  0.3761  1.0326  0.5740
   42MOL0     H 5668   1.437   6.111   4.812 -1.0646 -1.5647  0.8621
   42MOL0     H 5669   0.935   5.668   4.442  0.8755  3.2399 -2.1811
   42MOL0     H 5670   0.740   5.550   4.356 -0.2095 -0.9653  1.3044
   43MOL0     O 5671   1.292   4.752   7.160  0.5209 -0.7476  0.8732
   43MOL0     C 5672   1.267   4.675   7.248  0.5506  0.4480  0.2998
   43MOL0     O 5673   1.147   4.664   7.313 -0.1534  0.7474 -0.1267
   43MOL0     C 5674   1.044   4.734   7.255  1.0219 -0.9931 -0.3053
   43MOL0     C 5675   0.928   4.660   7.233 -0.4942 -0.1863 -0.4947
   43MOL0     C 5676   0.813   4.726   7.182  0.1348 -0.5857  0.3783
   43MOL0     C 5677   0.804   4.865   7.178  0.2488  0.5120  0.3932
   43MOL0     O 5678   0.692   4.936   7.146 -1.0798  0.5414 -0.4876
   43MOL0     C 5679   0.634   4.913   7.024 -0.0473  1.0039  0.1317
   43MOL0     C 5680   0.559   5.037   6.967  0.5867 -0.7323 -0.2314
   43MOL0     C 5681   0.488   5.107   7.080  0.0901  0.3276  0.0064
   43MOL0     C 5682   0.415   5.232   7.028  0.0440  0.9901 -0.2005
   43MOL0     C 5683   0.355   5.291   7.159  0.0708  0.3037  0.8916
   43MOL0     C 5684   0.268   5.415   7.119 -0.6294  0.0956 -0.3094
   43MOL0     C 5685   0.132   5.396   7.057  0.5539  0.2744  0.2851
   43MOL0     C 5686   0.035   5.329   7.144  0.6582 -0.1986 -0.1468
   43MOL0     N 5687  -0.100   5.322   7.081 -0.0164 -0.3832 -0.1347
   43MOL0     C 5688  -0.214   5.372   7.141 -0.7696  0.0298  0.7392
   43MOL0     C 5689  -0.310   5.362   7.049  0.0501 -0.5452  0.1917
   43MOL0     C 5690  -0.450   5.413   7.067 -0.0208  0.1339 -0.8430
   43MOL0     C 5691  -0.533   5.318   7.142  0.0848 -0.1445 -0.3024
   43MOL0     C 5692  -0.675   5.377   7.154  1.1323 -0.8056  0.0199
   43MOL0     C 5693  -0.772   5.258   7.202 -0.1347 -1.3802  0.5040
   43MOL0     O 5694  -0.746   5.219   7.334 -0.4831  0.1056 -0.4325
   43MOL0     C 5695  -0.827   5.140   7.407  0.0939  0.1748  0.1646
   43MOL0     C 5696  -0.808   5.131   7.546 -0.9492  0.0625 -1.0330
   43MOL0     C 5697  -0.882   5.049   7.642 -0.3359  0.2651  0.6833
   43MOL0     C 5698  -0.829   5.051   7.785  0.0701  0.3571 -0.1339
   43MOL0     C 5699  -1.005   4.990   7.585 -0.9657  0.1424 -0.0970
   43MOL0     C 5700  -1.092   4.886   7.654 -0.0449  0.2387 -0.2647
   43MOL0     O 5701  -1.194   4.825   7.582 -0.2477  0.1936  0.4397
   43MOL0     C 5702  -1.315   4.781   7.629  0.2537 -1.0737 -0.4846
   43MOL0     C 5703  -1.396   4.711   7.539  0.5690 -0.4785  0.0788
   43MOL0     C 5704  -1.521   4.674   7.575  0.7513 -0.7826 -0.9443
   43MOL0     C 5705  -1.582   4.701   7.704  0.2515 -0.1781  1.2068
   43MOL0     O 5706  -1.707   4.652   7.744 -0.5186  0.1772 -0.6863
   43MOL0     C 5707  -1.705   4.574   7.867  0.4909 -0.1988  1.1344
   43MOL0     C 5708  -1.853   4.562   7.916 -0.2289  0.0892 -0.5941
   43MOL0     C 5709  -1.866   4.480   8.042 -1.9621  0.0951 -0.1265
   43MOL0     C 5710  -1.991   4.504   8.120  0.3987 -0.7671  0.3992
   43MOL0     C 5711  -2.120   4.483   8.048  0.5507 -0.4612  0.6086
   43MOL0     C 5712  -2.239   4.513   8.143  0.3955 -0.8698  0.9993
   43MOL0     C 5713  -2.376   4.506   8.082 -0.0322 -0.8516 -0.9728
   43MOL0     C 5714  -2.477   4.570   8.179  0.5395  0.6579 -0.1474
   43MOL0    Cl 5715  -2.624   4.612   8.092  0.2645 -0.0625  0.0070
   43MOL0     C 5716  -1.502   4.782   7.781 -0.0657  0.2891 -0.0699
   43MOL0     C 5717  -1.375   4.827   7.753 -1.0876  0.0056  0.1845
   43MOL0     O 5718  -1.064   4.853   7.764  0.3060 -0.1270  0.3282
   43MOL0     C 5719  -1.036   5.030   7.452  0.2992  0.0188  0.8124
   43MOL0     C 5720  -0.947   5.083   7.357  1.0259 -0.3367 -0.2908
   43MOL0     N 5721  -0.244   5.311   6.928  0.3313  0.4285 -0.3972
   43MOL0     N 5722  -0.121   5.284   6.956 -0.0246  0.6980 -0.0267
   43MOL0     C 5723   0.907   4.948   7.219 -1.3066 -0.4930  0.7518
   43MOL0     C 5724   1.021   4.881   7.251 -0.5940 -0.2798  0.2625
   43MOL0     C 5725   1.375   4.576   7.277  0.5687  0.0062 -0.1892
   43MOL0     C 5726   1.459   4.522   7.183 -0.7411 -0.4875  0.3003
   43MOL0     C 5727   1.562   4.433   7.205  0.2192 -0.9858  0.7237
   43MOL0     C 5728   1.577   4.387   7.332 -0.0299 -0.0424  0.0594
   43MOL0     O 5729   1.678   4.307   7.348 -0.5257 -0.5045 -0.9559
   43MOL0     C 5730   1.794   4.375   7.403 -0.2303 -0.3371  0.5836
   43MOL0     C 5731   1.916   4.279   7.412 -0.0537  0.1169  0.8410
   43MOL0     C 5732   1.908   4.180   7.535 -0.2841  0.6110 -0.1907
   43MOL0     C 5733   1.954   4.036   7.500 -0.5597 -1.1865  0.0674
   43MOL0     C 5734   2.093   4.041   7.441 -0.2323  0.2107  0.6962
   43MOL0     C 5735   2.200   4.054   7.380  0.7184  0.4597 -0.5532
   43MOL0     C 5736   1.498   4.444   7.433 -0.9175 -0.2121 -0.3988
   43MOL0     C 5737   1.393   4.524   7.407  0.0035 -0.0148  0.1559
   43MOL0     H 5738   0.940   4.552   7.222 -2.2009 -0.4371 -0.1467
   43MOL0     H 5739   0.725   4.675   7.145  0.1973 -1.0588  0.8586
   43MOL0     H 5740   0.714   4.881   6.956  1.1056  4.2756 -0.2433
   43MOL0     H 5741   0.564   4.832   7.045 -0.1477  0.9457 -0.4186
   43MOL0     H 5742   0.626   5.112   6.925 -0.2711  1.5500  2.1606
   43MOL0     H 5743   0.479   5.013   6.896 -0.4709  0.0369  0.6496
   43MOL0     H 5744   0.414   5.043   7.128  0.2762 -0.4237 -0.6702
   43MOL0     H 5745   0.553   5.135   7.163 -1.0528 -0.5165  1.2126
   43MOL0     H 5746   0.479   5.295   6.966  0.5738 -1.3562 -2.1791
   43MOL0     H 5747   0.333   5.205   6.962 -0.3223  1.8364 -0.1095
   43MOL0     H 5748   0.290   5.230   7.221 -2.1371  1.7960  0.1770
   43MOL0     H 5749   0.427   5.333   7.230  0.5794  1.0053 -0.0042
   43MOL0     H 5750   0.261   5.461   7.218 -2.7872 -1.7663  0.5011
   43MOL0     H 5751   0.319   5.493   7.063  3.3968  1.6897  4.8112
   43MOL0     H 5752   0.083   5.491   7.031 -0.5745  0.0591  1.5582
   43MOL0     H 5753   0.148   5.339   6.965  1.8579 -1.4053  1.4967
   43MOL0     H 5754   0.025   5.386   7.237 -1.1321 -0.5139 -0.1100
   43MOL0     H 5755   0.062   5.227   7.172  1.0777 -0.3710 -1.1466
   43MOL0     H 5756  -0.222   5.419   7.239  2.5621  3.7885 -0.5019
   43MOL0     H 5757  -0.453   5.511   7.114 -1.6564 -0.9806  1.5615
   43MOL0     H 5758  -0.499   5.427   6.970  1.6303  1.3175 -1.5537
   43MOL0     H 5759  -0.484   5.310   7.239 -0.6122  0.2498  0.0941
   43MOL0     H 5760  -0.544   5.222   7.091 -0.8206  0.5658 -1.5025
   43MOL0     H 5761  -0.707   5.419   7.058  2.8828  0.5096 -0.0452
   43MOL0     H 5762  -0.670   5.462   7.222 -0.3384 -0.4734 -0.2553
   43MOL0     H 5763  -0.764   5.170   7.137  1.7295 -0.4428 -0.6467
   43MOL0     H 5764  -0.874   5.295   7.199 -0.1450 -0.8595  3.9338
   43MOL0     H 5765  -0.730   5.191   7.591 -1.5357 -0.5615  0.9737
   43MOL0     H 5766  -0.879   4.987   7.857 -0.1381  0.2271 -0.3913
   43MOL0     H 5767  -0.724   5.019   7.785 -0.5081 -1.6033 -0.0822
   43MOL0     H 5768  -0.837   5.145   7.841 -2.1969  0.5680 -0.7191
   43MOL0     H 5769  -1.360   4.676   7.443  1.5811 -1.6757  0.8707
   43MOL0     H 5770  -1.574   4.622   7.496  0.2340  1.8034 -2.4383
   43MOL0     H 5771  -1.659   4.476   7.851  0.8310  0.2856 -1.4472
   43MOL0     H 5772  -1.655   4.626   7.948 -1.3810 -1.5226  3.2531
   43MOL0     H 5773  -1.882   4.666   7.928  0.8484  0.5158 -1.4576
   43MOL0     H 5774  -1.915   4.522   7.835  1.0329  0.3241 -1.7251
   43MOL0     H 5775  -1.780   4.512   8.101 -0.6413 -1.6553 -1.0083
   43MOL0     H 5776  -1.840   4.376   8.023  0.6080  0.8312 -1.0756
   43MOL0     H 5777  -1.985   4.445   8.211 -1.4359  0.3211  1.2998
   43MOL0     H 5778  -1.988   4.607   8.158 -0.2892 -0.5212 -0.1769
   43MOL0     H 5779  -2.113   4.379   8.014  1.8216 -0.3944  0.6294
   43MOL0     H 5780  -2.123   4.544   7.957  1.8938 -0.3382  0.6280
   43MOL0     H 5781  -2.246   4.441   8.225 -4.7467 -1.7112  0.1339
   43MOL0     H 5782  -2.219   4.617   8.169  1.8602 -0.0838 -2.7007
   43MOL0     H 5783  -2.406   4.406   8.049 -2.1298 -0.8240  0.6869
   43MOL0     H 5784  -2.375   4.575   7.996 -0.0156 -1.0971 -1.1713
   43MOL0     H 5785  -2.433   4.656   8.232 -1.7795  1.1382  1.1794
   43MOL0     H 5786  -2.492   4.495   8.258  2.5233  2.6437  2.3113
   43MOL0     H 5787  -1.532   4.831   7.873 -0.0119  0.3827 -0.1013
   43MOL0     H 5788  -1.318   4.889   7.822  1.7318 -1.4438 -0.6510
   43MOL0     H 5789  -1.133   5.021   7.404  0.3418  1.9258  0.2996
   43MOL0     H 5790  -1.004   5.096   7.265 -0.2112  0.4602  0.5574
   43MOL0     H 5791   0.887   5.054   7.231  0.3903  0.1671 -1.5775
   43MOL0     H 5792   1.103   4.935   7.296 -2.2557  0.0323  3.2113
   43MOL0     H 5793   1.443   4.532   7.076 -2.9479  0.0873  0.6357
   43MOL0     H 5794   1.620   4.406   7.117 -0.1977 -2.7708  0.9540
   43MOL0     H 5795   1.830   4.466   7.354 -0.2704  0.2379  1.5992
   43MOL0     H 5796   1.775   4.409   7.506  0.1684  2.1460 -0.0883
   43MOL0     H 5797   2.013   4.330   7.409  0.8516 -1.5483  0.8816
   43MOL0     H 5798   1.902   4.219   7.322  1.1762 -0.1939  0.8474
   43MOL0     H 5799   1.807   4.179   7.576 -0.4087  0.2448 -0.5061
   43MOL0     H 5800   1.969   4.220   7.617  0.8583 -0.1021 -0.6624
   43MOL0     H 5801   1.880   4.005   7.426 -0.8794  4.0333 -2.2478
   43MOL0     H 5802   1.942   3.967   7.585  0.1383  0.5152  1.6194
   43MOL0     H 5803   2.279   4.077   7.312 -0.7301  0.3759 -2.3434
   43MOL0     H 5804   1.515   4.430   7.540 -1.8805  0.0340 -0.2067
   43MOL0     H 5805   1.324   4.563   7.481 -0.4273 -0.4756  0.0003
   44MOL0     O 5806  11.304   0.248  11.062  0.4842  0.4957  0.2316
   44MOL0     C 5807  11.373   0.159  11.001  1.4351  0.4478 -0.0918
   44MOL0     O 5808  11.419   0.040  11.051 -0.1454  0.0537 -0.4464
   44MOL0     C 5809  11.345  -0.012  11.150 -0.7265 -0.0245 -1.0566
   44MOL0     C 5810  11.273  -0.130  11.125  0.1824  0.6659 -1.2711
   44MOL0     C 5811  11.186  -0.174  11.228 -1.0627  0.2471 -0.1112
   44MOL0     C 5812  11.164  -0.103  11.351 -0.2293  0.2228 -0.7078
   44MOL0     O 5813  11.061  -0.144  11.434 -0.5721  0.1913  0.0589
   44MOL0     C 5814  11.102  -0.228  11.537  0.2205  0.6884 -0.0968
   44MOL0     C 5815  10.984  -0.327  11.550 -0.3439 -0.7405 -0.3817
   44MOL0     C 5816  10.983  -0.389  11.693 -0.0232  0.0044  0.5515
   44MOL0     C 5817  10.859  -0.483  11.722 -0.5211 -0.9019 -0.3625
   44MOL0     C 5818  10.841  -0.529  11.867 -0.1052  0.6010  0.0859
   44MOL0     C 5819  10.944  -0.629  11.919 -0.2389  0.1845 -0.7848
   44MOL0     C 5820  10.915  -0.646  12.071  0.2408 -1.0796 -0.3499
   44MOL0     C 5821  10.788  -0.717  12.121  0.0793  0.2480  0.1613
   44MOL0     N 5822  10.791  -0.860  12.083  0.1418 -0.4670  0.3717
   44MOL0     C 5823  10.728  -0.918  11.976  0.1502  0.2630 -0.1103
   44MOL0     C 5824  10.774  -1.041  11.963  0.4491 -0.9919 -0.9125
   44MOL0     C 5825  10.743  -1.147  11.873  0.0626 -0.0501  0.4796
   44MOL0     C 5826  10.592  -1.167  11.844 -0.0268  0.7729  0.5664
   44MOL0     C 5827  10.570  -1.221  11.705  0.4427  0.4537 -0.2395
   44MOL0     C 5828  10.414  -1.212  11.672 -0.1690 -0.2917 -0.1863
   44MOL0     O 5829  10.438  -1.219  11.522 -0.4029  0.0253 -0.2202
   44MOL0     C 5830  10.328  -1.216  11.441 -0.0138 -0.4824 -0.6570
   44MOL0     C 5831  10.186  -1.227  11.487 -0.6043 -0.1223  0.1299
   44MOL0     C 5832  10.079  -1.217  11.393  1.4129 -0.7746 -0.1327
   44MOL0     C 5833   9.938  -1.243  11.464  0.7604  0.2805  0.0764
   44MOL0     C 5834  10.109  -1.216  11.257  0.4642  0.2042  0.5444
   44MOL0     C 5835  10.003  -1.214  11.151 -0.4351 -0.1711  0.6695
   44MOL0     O 5836  10.048  -1.259  11.027  0.1966 -0.3750 -1.0623
   44MOL0     C 5837   9.953  -1.253  10.926  0.2382  0.8239  0.2871
   44MOL0     C 5838   9.960  -1.145  10.843  0.5999 -0.8863  0.3546
   44MOL0     C 5839   9.874  -1.131  10.731 -0.1902  0.0974  0.7354
   44MOL0     C 5840   9.783  -1.232  10.698 -0.3038 -1.2875 -1.1413
   44MOL0     O 5841   9.719  -1.213  10.581  1.1247  0.4900 -0.5014
   44MOL0     C 5842   9.625  -1.312  10.555  0.1016  0.4638 -0.4797
   44MOL0     C 5843   9.529  -1.260  10.445 -0.2509 -0.0326 -0.2366
   44MOL0     C 5844   9.382  -1.329  10.444  0.5857  0.4598 -0.2900
   44MOL0     C 5845   9.391  -1.483  10.427  0.1313 -0.4368  0.2377
   44MOL0     C 5846   9.448  -1.532  10.286  0.3572  0.1195  0.1233
   44MOL0     C 5847   9.377  -1.473  10.169  0.0428 -0.8118 -0.4417
   44MOL0     C 5848   9.456  -1.357  10.102  1.0892 -0.5387  0.0745
   44MOL0     C 5849   9.384  -1.316   9.969 -0.1574 -0.1610  0.1725
   44MOL0    Cl 5850   9.229  -1.240   9.989  0.2349  0.2100  0.0315
   44MOL0     C 5851   9.778  -1.353  10.779 -1.0323 -0.7538 -0.5129
   44MOL0     C 5852   9.862  -1.365  10.893 -1.4879 -1.0118 -0.8070
   44MOL0     O 5853   9.889  -1.162  11.169 -1.0299  0.4254  0.4206
   44MOL0     C 5854  10.243  -1.219  11.217 -0.2809  0.1685  0.1129
   44MOL0     C 5855  10.346  -1.233  11.307 -0.4389 -0.2441  0.1417
   44MOL0     N 5856  10.855  -1.064  12.073  0.0459 -0.2629 -0.1020
   44MOL0     N 5857  10.867  -0.956  12.148  0.1917 -0.0166  0.0849
   44MOL0     C 5858  11.245   0.014  11.380 -0.0300  0.2705 -0.9304
   44MOL0     C 5859  11.333   0.049  11.277  0.8770  0.0682  0.2973
   44MOL0     C 5860  11.425   0.195  10.873 -0.7378 -0.5983 -0.1622
   44MOL0     C 5861  11.536   0.135  10.820  0.0731  0.7007  0.1383
   44MOL0     C 5862  11.577   0.139  10.685  0.3274 -0.4520  1.1135
   44MOL0     C 5863  11.506   0.227  10.595  0.7490  0.3247  0.4974
   44MOL0     O 5864  11.528   0.247  10.460  0.2963  0.1667  0.7865
   44MOL0     C 5865  11.614   0.172  10.379  0.5201  0.0706  0.3673
   44MOL0     C 5866  11.558   0.026  10.355  1.1043  0.0581  0.1311
   44MOL0     C 5867  11.536   0.016  10.207  0.2412  0.0863  0.1897
   44MOL0     C 5868  11.450  -0.106  10.176 -0.0207  0.1778 -0.7631
   44MOL0     C 5869  11.541  -0.226  10.187 -0.5963  0.2023  0.5605
   44MOL0     C 5870  11.616  -0.325  10.176 -0.9390 -1.6841 -0.4492
   44MOL0     C 5871  11.395   0.297  10.648 -1.0767  0.3929 -0.5239
   44MOL0     C 5872  11.357   0.272  10.784  0.5667  0.4142  0.6705
   44MOL0     H 5873  11.287  -0.184  11.031  1.3065  1.2150 -1.4441
   44MOL0     H 5874  11.132  -0.266  11.208 -1.6589  0.8834 -1.5551
   44MOL0     H 5875  11.195  -0.283  11.523  0.3725  0.8414  0.3078
   44MOL0     H 5876  11.106  -0.166  11.627  0.3154  1.7636 -0.8221
   44MOL0     H 5877  10.886  -0.282  11.532 -1.3897 -1.9398  1.9229
   44MOL0     H 5878  11.009  -0.397  11.469  2.8705 -3.5120  2.6458
   44MOL0     H 5879  11.076  -0.443  11.714 -0.5266  0.1944  3.7655
   44MOL0     H 5880  10.974  -0.308  11.766 -0.6045 -0.6829  1.2527
   44MOL0     H 5881  10.779  -0.413  11.696 -0.0823 -0.3745 -0.3144
   44MOL0     H 5882  10.867  -0.570  11.656 -1.5416 -3.2597  2.4095
   44MOL0     H 5883  10.850  -0.442  11.932  1.7945 -0.0447  0.7247
   44MOL0     H 5884  10.744  -0.577  11.883  0.8647 -2.4944 -2.2654
   44MOL0     H 5885  10.938  -0.727  11.870 -1.8791 -0.8498  1.2876
   44MOL0     H 5886  11.040  -0.577  11.904 -0.8372  0.7839 -2.8080
   44MOL0     H 5887  10.999  -0.697  12.120 -0.3794 -2.2923 -0.5000
   44MOL0     H 5888  10.908  -0.542  12.103  1.2447 -1.4495  1.1979
   44MOL0     H 5889  10.703  -0.677  12.065 -0.1887 -0.6045 -0.0490
   44MOL0     H 5890  10.785  -0.717  12.230  0.7071 -0.7775  0.1898
   44MOL0     H 5891  10.664  -0.869  11.904 -0.3642 -2.9465 -2.0467
   44MOL0     H 5892  10.796  -1.131  11.778  1.6282  0.1232  1.3565
   44MOL0     H 5893  10.758  -1.246  11.918  0.4307  1.4980  4.0610
   44MOL0     H 5894  10.541  -1.077  11.878  3.2169  2.4719  1.3841
   44MOL0     H 5895  10.550  -1.245  11.909  0.4597  0.3231  0.3523
   44MOL0     H 5896  10.603  -1.325  11.699 -0.3575 -0.1068  2.8706
   44MOL0     H 5897  10.633  -1.162  11.639  1.5062  0.4320  0.7226
   44MOL0     H 5898  10.367  -1.121  11.709  0.0416 -1.2785  2.8032
   44MOL0     H 5899  10.351  -1.295  11.707 -0.3283 -0.9327 -1.9152
   44MOL0     H 5900  10.167  -1.240  11.593 -2.8551 -1.0312 -0.3071
   44MOL0     H 5901   9.891  -1.146  11.482  2.3354  1.1206 -0.1572
   44MOL0     H 5902   9.871  -1.298  11.398 -0.0274  1.3392 -0.0308
   44MOL0     H 5903   9.955  -1.296  11.558  1.1474 -0.4915 -0.4148
   44MOL0     H 5904  10.020  -1.058  10.867 -2.2295  1.0483  0.8890
   44MOL0     H 5905   9.899  -1.049  10.665 -0.6933  0.6863  1.2590
   44MOL0     H 5906   9.677  -1.404  10.526  0.8920  0.2036  1.5637
   44MOL0     H 5907   9.556  -1.329  10.638 -0.9957 -2.3515 -1.8178
   44MOL0     H 5908   9.511  -1.153  10.463  0.5555  0.8689 -3.8687
   44MOL0     H 5909   9.578  -1.263  10.347  0.7785 -2.0779  0.2916
   44MOL0     H 5910   9.312  -1.281  10.374  0.0523 -0.6773 -0.5487
   44MOL0     H 5911   9.335  -1.321  10.542 -0.1304 -1.3074 -0.4671
   44MOL0     H 5912   9.463  -1.519  10.501  1.3231 -1.0736 -1.1746
   44MOL0     H 5913   9.295  -1.531  10.447  0.1474  0.2192  2.0481
   44MOL0     H 5914   9.436  -1.641  10.281  1.7759 -0.0689  0.3508
   44MOL0     H 5915   9.553  -1.504  10.282  0.8960 -1.4807  1.5317
   44MOL0     H 5916   9.357  -1.554  10.098  0.9419 -1.4451  0.0233
   44MOL0     H 5917   9.285  -1.444  10.219  1.3434 -1.8066  2.7399
   44MOL0     H 5918   9.551  -1.383  10.054  0.8958  1.2175 -1.3236
   44MOL0     H 5919   9.468  -1.268  10.164  0.8180  0.6539 -1.5344
   44MOL0     H 5920   9.374  -1.407   9.910 -1.2783  0.3003 -0.3651
   44MOL0     H 5921   9.448  -1.247   9.912 -1.5590  1.5817  0.6234
   44MOL0     H 5922   9.719  -1.443  10.764  1.4576 -2.8260  1.3085
   44MOL0     H 5923   9.866  -1.445  10.966 -2.0783  0.0079  0.3622
   44MOL0     H 5924  10.271  -1.219  11.112 -0.1017 -0.3066  0.1563
   44MOL0     H 5925  10.445  -1.257  11.271  0.5750 -2.6996  4.0523
   44MOL0     H 5926  11.233   0.073  11.470  0.9703 -0.6409 -0.1671
   44MOL0     H 5927  11.390   0.138  11.302  1.3350 -0.8241  2.6595
   44MOL0     H 5928  11.588   0.065  10.885  1.8063  1.3986 -0.4547
   44MOL0     H 5929  11.659   0.073  10.657  1.5497  1.1836  0.6349
   44MOL0     H 5930  11.627   0.227  10.285  0.5490 -1.6984 -0.7018
   44MOL0     H 5931  11.710   0.155  10.429  0.5314  0.3175  0.4310
   44MOL0     H 5932  11.468   0.008  10.413  2.3779 -4.0832  1.1431
   44MOL0     H 5933  11.630  -0.052  10.382  1.2021  0.4227  0.9537
   44MOL0     H 5934  11.631   0.016  10.152 -0.0747  0.0994 -0.3710
   44MOL0     H 5935  11.474   0.099  10.173  0.8478  0.1313 -0.8831
   44MOL0     H 5936  11.404  -0.104  10.077  1.3877  1.2445 -1.4277
   44MOL0     H 5937  11.373  -0.123  10.252  1.4451 -3.8938  0.0218
   44MOL0     H 5938  11.691  -0.401  10.182 -0.4167 -1.0482  2.5838
   44MOL0     H 5939  11.353   0.377  10.589  3.3909  1.9961 -1.8757
   44MOL0     H 5940  11.269   0.327  10.817 -1.5649 -2.0374 -0.6054
   45MOL0     O 5941   0.616   4.070   7.401 -0.7563 -0.3694  0.4256
   45MOL0     C 5942   0.548   4.141   7.323  0.6563  0.5834  0.0541
   45MOL0     O 5943   0.590   4.223   7.223  0.4779  0.0231  0.3378
   45MOL0     C 5944   0.723   4.243   7.197 -0.1283 -0.6660 -0.2014
   45MOL0     C 5945   0.771   4.226   7.068  0.2680  0.7372 -0.2141
   45MOL0     C 5946   0.909   4.242   7.048 -0.0362  1.2425  0.3150
   45MOL0     C 5947   1.005   4.282   7.148 -0.2990  1.2314  0.0283
   45MOL0     O 5948   1.139   4.302   7.125  0.2680 -0.2929 -0.9628
   45MOL0     C 5949   1.216   4.188   7.125  0.3023 -0.2399 -0.9384
   45MOL0     C 5950   1.247   4.138   7.275  0.2936 -0.1884  0.0462
   45MOL0     C 5951   1.396   4.082   7.286  0.1660  0.7978 -0.1020
   45MOL0     C 5952   1.415   4.035   7.428 -0.3589  0.1854 -0.5810
   45MOL0     C 5953   1.531   3.936   7.425 -0.4869  0.2916 -0.7757
   45MOL0     C 5954   1.572   3.884   7.561 -1.3275  0.5483 -0.3638
   45MOL0     C 5955   1.463   3.820   7.644 -0.3346  0.6896  0.1764
   45MOL0     C 5956   1.434   3.678   7.597 -0.1512 -0.0926 -0.1462
   45MOL0     N 5957   1.341   3.608   7.687  0.6424  0.5923  0.6024
   45MOL0     C 5958   1.214   3.650   7.712  0.3881 -0.1951 -0.2452
   45MOL0     C 5959   1.156   3.538   7.774  0.6844 -1.4614  1.0353
   45MOL0     C 5960   1.011   3.525   7.838 -0.3982  0.3259 -0.1065
   45MOL0     C 5961   0.909   3.445   7.751 -0.4588 -0.3210  0.2138
   45MOL0     C 5962   0.828   3.545   7.672  0.8053  1.1365  0.0236
   45MOL0     C 5963   0.721   3.482   7.587 -0.4602 -0.0633  1.1876
   45MOL0     O 5964   0.607   3.438   7.665 -0.7357 -0.8853  0.6446
   45MOL0     C 5965   0.480   3.449   7.604 -0.6355 -1.3437 -0.4582
   45MOL0     C 5966   0.391   3.520   7.672  0.9760 -0.5843 -0.7354
   45MOL0     C 5967   0.261   3.556   7.622 -0.1393 -0.3242 -0.3365
   45MOL0     C 5968   0.184   3.663   7.707  0.7693 -0.9551 -0.7776
   45MOL0     C 5969   0.222   3.513   7.496  0.2325  0.8469 -0.2303
   45MOL0     C 5970   0.092   3.542   7.430  0.1409 -1.6925  0.1284
   45MOL0     O 5971   0.050   3.453   7.339 -0.7259  0.0459 -0.0700
   45MOL0     C 5972  -0.062   3.472   7.268 -0.1332 -0.1420  0.8644
   45MOL0     C 5973  -0.183   3.529   7.303 -0.2492 -1.0223 -0.1219
   45MOL0     C 5974  -0.298   3.515   7.223  0.1237  0.4568 -0.2234
   45MOL0     C 5975  -0.281   3.455   7.103  0.0665 -0.6259  0.4299
   45MOL0     O 5976  -0.386   3.419   7.020  0.4375  0.8059  0.7489
   45MOL0     C 5977  -0.516   3.398   7.065 -0.3811  0.2789 -0.4450
   45MOL0     C 5978  -0.591   3.344   6.943 -0.2407 -0.3889 -0.0236
   45MOL0     C 5979  -0.726   3.292   6.992  0.0430  0.2547  0.3452
   45MOL0     C 5980  -0.812   3.217   6.890  0.6595  0.2108 -0.5315
   45MOL0     C 5981  -0.927   3.128   6.947 -0.1440  0.5396 -0.5192
   45MOL0     C 5982  -1.054   3.213   6.971 -0.1770  1.0002  0.1573
   45MOL0     C 5983  -1.145   3.123   7.055 -0.8555 -0.1454  0.4423
   45MOL0     C 5984  -1.283   3.171   7.072 -0.3231  0.7132  0.0914
   45MOL0    Cl 5985  -1.334   3.275   6.949  0.3775  0.2102  0.0839
   45MOL0     C 5986  -0.158   3.414   7.055  0.8830  0.0903 -0.2578
   45MOL0     C 5987  -0.046   3.421   7.143  0.8043 -0.3354  0.3869
   45MOL0     O 5988   0.047   3.659   7.445 -0.0341 -0.8897 -0.3578
   45MOL0     C 5989   0.314   3.417   7.432 -0.1445  0.0119 -0.0261
   45MOL0     C 5990   0.445   3.404   7.482  0.1845  1.8139  0.5317
   45MOL0     N 5991   1.236   3.429   7.763 -0.1287 -0.0978  0.2184
   45MOL0     N 5992   1.350   3.477   7.710  0.2000 -0.4278 -0.5431
   45MOL0     C 5993   0.947   4.304   7.272  0.3011 -0.7122  0.0480
   45MOL0     C 5994   0.811   4.280   7.302 -0.0449 -0.1174  0.5548
   45MOL0     C 5995   0.400   4.130   7.364 -0.7892  0.0862  0.3980
   45MOL0     C 5996   0.308   4.228   7.329 -0.1055 -0.5669  0.2674
   45MOL0     C 5997   0.175   4.209   7.361  0.7360  0.5024 -0.2164
   45MOL0     C 5998   0.119   4.097   7.427 -1.0403  0.0391  0.1273
   45MOL0     O 5999  -0.013   4.104   7.464 -0.0498  1.0427  0.2044
   45MOL0     C 6000  -0.063   4.001   7.557  0.0561 -0.0364 -0.3986
   45MOL0     C 6001  -0.034   4.032   7.700  0.2167 -0.0058 -0.6142
   45MOL0     C 6002  -0.071   3.919   7.797  0.3157  0.2963  0.9543
   45MOL0     C 6003  -0.222   3.884   7.788 -0.2502 -0.5462  0.0546
   45MOL0     C 6004  -0.254   3.771   7.870 -0.6309 -0.2222 -0.8282
   45MOL0     C 6005  -0.288   3.664   7.925 -0.2991 -0.5448  0.1317
   45MOL0     C 6006   0.209   4.001   7.450  0.1950  0.3299 -1.0569
   45MOL0     C 6007   0.348   4.014   7.422  0.4086 -0.1254  0.2126
   45MOL0     H 6008   0.711   4.206   6.980 -2.5836 -0.2202  1.7994
   45MOL0     H 6009   0.948   4.214   6.951  0.4695  1.4381  0.4591
   45MOL0     H 6010   1.165   4.099   7.086 -2.0457 -0.8594  2.8817
   45MOL0     H 6011   1.300   4.211   7.060  0.9272 -1.0812 -0.4577
   45MOL0     H 6012   1.231   4.215   7.351  0.6620 -2.8378  2.9948
   45MOL0     H 6013   1.180   4.058   7.308 -0.5972 -0.1333 -1.5351
   45MOL0     H 6014   1.393   4.002   7.211  1.2455  2.3713 -1.9223
   45MOL0     H 6015   1.478   4.147   7.256  0.0115  0.8598 -0.3983
   45MOL0     H 6016   1.442   4.112   7.502  2.5597 -1.4268  0.1756
   45MOL0     H 6017   1.325   3.983   7.462  1.5008 -2.3002  0.9392
   45MOL0     H 6018   1.508   3.844   7.371  1.4675 -1.7815  1.6884
   45MOL0     H 6019   1.619   3.981   7.376  0.7382 -2.7549 -1.5925
   45MOL0     H 6020   1.661   3.823   7.543  0.6631  2.8548  1.1786
   45MOL0     H 6021   1.600   3.975   7.614 -0.6834  1.2977 -1.9245
   45MOL0     H 6022   1.506   3.805   7.744  0.6627 -3.0409 -0.6507
   45MOL0     H 6023   1.384   3.893   7.660  0.7406  1.5404  2.0342
   45MOL0     H 6024   1.520   3.616   7.571 -0.5734  0.2573 -2.6309
   45MOL0     H 6025   1.388   3.692   7.499  2.6334  0.5691 -1.4483
   45MOL0     H 6026   1.183   3.754   7.715 -1.3397 -0.6904  1.3860
   45MOL0     H 6027   1.038   3.470   7.929  1.2181  0.9389 -0.1751
   45MOL0     H 6028   0.962   3.614   7.878 -4.6378 -0.6566 -2.4917
   45MOL0     H 6029   0.850   3.372   7.806 -0.3997 -2.3544 -2.2556
   45MOL0     H 6030   0.966   3.392   7.674 -0.0461  0.1620  0.1842
   45MOL0     H 6031   0.902   3.597   7.611  1.5950 -2.4238 -2.3078
   45MOL0     H 6032   0.790   3.621   7.741  0.3689 -0.4032  1.5579
   45MOL0     H 6033   0.768   3.398   7.535 -0.5312 -1.2480  2.9951
   45MOL0     H 6034   0.683   3.549   7.508 -0.0274 -2.1920 -0.9437
   45MOL0     H 6035   0.421   3.558   7.769 -0.0437  1.1381 -1.0549
   45MOL0     H 6036   0.153   3.749   7.648 -2.5406 -1.4101  0.0847
   45MOL0     H 6037   0.092   3.625   7.753  2.0281 -1.4649  1.4569
   45MOL0     H 6038   0.250   3.700   7.785 -1.7496  3.7231 -0.5284
   45MOL0     H 6039  -0.188   3.573   7.402 -0.0091  1.1014 -0.9831
   45MOL0     H 6040  -0.391   3.562   7.252  0.3400  1.2442 -0.7814
   45MOL0     H 6041  -0.519   3.319   7.141 -2.2622  0.1349 -0.6269
   45MOL0     H 6042  -0.554   3.494   7.098  3.8530  1.4134  1.9162
   45MOL0     H 6043  -0.600   3.429   6.875 -1.2574  0.1048  0.7104
   45MOL0     H 6044  -0.543   3.265   6.884 -0.9208  1.1977 -2.8929
   45MOL0     H 6045  -0.789   3.379   7.014  0.5939  1.0808 -1.1915
   45MOL0     H 6046  -0.704   3.232   7.081 -0.0378 -1.3661 -0.6986
   45MOL0     H 6047  -0.858   3.293   6.826 -0.0582  0.0274 -0.2430
   45MOL0     H 6048  -0.754   3.147   6.829 -0.3621 -2.8459  1.7370
   45MOL0     H 6049  -0.902   3.073   7.039 -1.5700 -1.6714 -1.3955
   45MOL0     H 6050  -0.945   3.054   6.869 -0.0361 -3.6349  3.0155
   45MOL0     H 6051  -1.034   3.308   7.021  0.1539 -0.0225  2.0800
   45MOL0     H 6052  -1.090   3.222   6.868  0.2416 -3.7865 -0.6546
   45MOL0     H 6053  -1.104   3.096   7.152 -0.7777  0.1205  0.4839
   45MOL0     H 6054  -1.161   3.028   7.003 -0.6053  0.5442 -0.9331
   45MOL0     H 6055  -1.296   3.218   7.170 -1.4466  0.9130 -0.1303
   45MOL0     H 6056  -1.352   3.087   7.062 -1.8833  2.0209 -0.6283
   45MOL0     H 6057  -0.148   3.361   6.961 -0.4409 -0.9595  0.1630
   45MOL0     H 6058   0.048   3.375   7.113 -0.0227  0.8344 -5.0088
   45MOL0     H 6059   0.291   3.356   7.346  1.5209  0.7113 -0.9968
   45MOL0     H 6060   0.511   3.331   7.436  0.4575  1.3480  1.6246
   45MOL0     H 6061   1.000   4.340   7.359 -2.2712  1.7707  0.7278
   45MOL0     H 6062   0.772   4.307   7.400  1.2593  4.3713  0.0903
   45MOL0     H 6063   0.352   4.312   7.276 -0.2529  2.0523  3.9507
   45MOL0     H 6064   0.105   4.284   7.325 -0.8467 -0.7583  0.1318
   45MOL0     H 6065  -0.171   3.992   7.545 -0.1442 -1.4496  1.9372
   45MOL0     H 6066  -0.021   3.905   7.524 -1.3245 -0.8715  0.2083
   45MOL0     H 6067  -0.069   4.131   7.730  3.3447  1.0280  0.0744
   45MOL0     H 6068   0.074   4.050   7.703  0.0988  0.8730  3.4996
   45MOL0     H 6069  -0.027   3.959   7.889  2.6418  1.9337 -0.7735
   45MOL0     H 6070  -0.008   3.832   7.775 -0.3590  0.3445 -1.3878
   45MOL0     H 6071  -0.241   3.844   7.688  0.2765 -0.9281  0.1025
   45MOL0     H 6072  -0.275   3.979   7.801  0.2272 -0.2625 -0.0114
   45MOL0     H 6073  -0.346   3.588   7.973 -2.3037 -1.1295 -2.9388
   45MOL0     H 6074   0.174   3.911   7.499  0.0785  2.2596  2.8567
   45MOL0     H 6075   0.407   3.926   7.448 -2.0174 -1.6369  0.9825
   46MOL0     O 6076   8.156   6.865   2.048  0.1745  0.2668  0.3972
   46MOL0     C 6077   8.111   6.945   1.970  0.2558 -0.2630 -0.1079
   46MOL0     O 6078   7.999   6.929   1.889 -0.4028 -0.2303 -0.0174
   46MOL0     C 6079   7.936   6.809   1.862  0.0610 -1.0165 -0.2996
   46MOL0     C 6080   8.005   6.686   1.857 -0.1491 -0.1609  0.5827
   46MOL0     C 6081   7.933   6.573   1.833 -0.0527 -0.1800  0.9095
   46MOL0     C 6082   7.799   6.579   1.805  0.0077 -0.4446  0.6397
   46MOL0     O 6083   7.717   6.473   1.778  0.0108 -0.1388  0.3361
   46MOL0     C 6084   7.720   6.343   1.833  0.5712  0.3619  0.0613
   46MOL0     C 6085   7.792   6.254   1.733 -0.2008 -0.0572  0.2088
   46MOL0     C 6086   7.730   6.120   1.767 -0.1113  0.4384  0.0747
   46MOL0     C 6087   7.826   6.017   1.702 -0.2530 -0.1413  0.2991
   46MOL0     C 6088   7.789   5.877   1.743 -0.1648  0.5331 -0.3322
   46MOL0     C 6089   7.888   5.766   1.712 -0.8287  0.0262 -0.6457
   46MOL0     C 6090   7.832   5.621   1.739 -0.8253 -0.3223  0.3235
   46MOL0     C 6091   7.945   5.516   1.717 -0.5563 -0.3456 -0.2026
   46MOL0     N 6092   7.870   5.385   1.724  0.6504 -1.0104 -0.5671
   46MOL0     C 6093   7.763   5.352   1.804  0.7250  0.1654  0.4256
   46MOL0     C 6094   7.722   5.243   1.735  0.3558 -0.7450 -0.2579
   46MOL0     C 6095   7.600   5.167   1.760  0.3961  0.3233  0.0699
   46MOL0     C 6096   7.491   5.267   1.796 -0.2020  0.7233 -0.3100
   46MOL0     C 6097   7.359   5.207   1.754  0.8549  0.5437  0.4495
   46MOL0     C 6098   7.298   5.104   1.849  0.5192  0.8575 -0.2658
   46MOL0     O 6099   7.272   5.154   1.978 -0.1331 -0.4840 -0.1731
   46MOL0     C 6100   7.155   5.215   2.015  1.4503 -0.1086  0.2778
   46MOL0     C 6101   7.044   5.244   1.929 -1.2682 -0.5697  0.3859
   46MOL0     C 6102   6.939   5.327   1.969 -0.5167  0.5998  0.4621
   46MOL0     C 6103   6.852   5.366   1.844 -0.2835  0.5925 -0.3764
   46MOL0     C 6104   6.943   5.383   2.091 -0.3132 -1.0982  1.2982
   46MOL0     C 6105   6.839   5.472   2.131  0.7987 -0.4639 -0.0570
   46MOL0     O 6106   6.726   5.478   2.065  0.3639  0.3394  0.1085
   46MOL0     C 6107   6.610   5.484   2.145 -0.3834  0.0174 -0.4257
   46MOL0     C 6108   6.556   5.373   2.195  0.5084  0.2032  0.2807
   46MOL0     C 6109   6.441   5.381   2.271 -0.3141  0.7891  0.3227
   46MOL0     C 6110   6.379   5.502   2.290 -0.1628 -0.1769 -0.7961
   46MOL0     O 6111   6.253   5.514   2.348 -1.0696 -0.5509  0.3883
   46MOL0     C 6112   6.152   5.447   2.278 -0.1106 -0.9123  0.6839
   46MOL0     C 6113   6.014   5.524   2.303  0.1219  0.0869 -0.8889
   46MOL0     C 6114   5.898   5.451   2.225 -0.4578  0.7880 -0.7229
   46MOL0     C 6115   5.801   5.554   2.195  0.6488 -0.2190 -0.2850
   46MOL0     C 6116   5.677   5.488   2.122 -0.5948 -0.4438 -0.1806
   46MOL0     C 6117   5.579   5.599   2.090  1.2193 -0.2659 -0.1111
   46MOL0     C 6118   5.451   5.532   2.061 -0.0694 -0.8700 -0.6511
   46MOL0     C 6119   5.438   5.466   1.925 -0.4146  0.5377  0.6039
   46MOL0    Cl 6120   5.523   5.295   1.895  0.0918 -0.1605 -0.0787
   46MOL0     C 6121   6.439   5.620   2.251  0.1468  0.1497  0.0468
   46MOL0     C 6122   6.550   5.611   2.174  0.2164  0.1639  0.1320
   46MOL0     O 6123   6.853   5.530   2.236 -0.1584  0.2120  0.1320
   46MOL0     C 6124   7.045   5.342   2.183  0.2520 -0.2990 -0.2925
   46MOL0     C 6125   7.150   5.261   2.146 -0.1435 -0.0275  0.5721
   46MOL0     N 6126   7.794   5.219   1.621  0.4974 -0.3134  0.3618
   46MOL0     N 6127   7.894   5.295   1.625 -0.5888  0.6935  0.0935
   46MOL0     C 6128   7.730   6.695   1.814  0.0613 -0.6133 -0.4294
   46MOL0     C 6129   7.801   6.813   1.838  0.7204  0.8662 -0.4055
   46MOL0     C 6130   8.156   7.084   1.959  0.0965 -0.3996 -0.4062
   46MOL0     C 6131   8.234   7.132   2.067  1.2045 -0.5929 -0.0738
   46MOL0     C 6132   8.288   7.259   2.072  0.2994 -0.4729  0.0987
   46MOL0     C 6133   8.265   7.344   1.969  0.8116 -0.4935 -0.1718
   46MOL0     O 6134   8.318   7.469   1.967  0.0726 -0.4764 -0.8992
   46MOL0     C 6135   8.461   7.487   1.987  0.1134 -0.1032 -0.5862
   46MOL0     C 6136   8.551   7.422   1.886 -0.3651  0.1053 -0.1494
   46MOL0     C 6137   8.513   7.465   1.740  0.2835 -0.6380 -0.3424
   46MOL0     C 6138   8.603   7.377   1.652 -0.1487  0.4584  0.4944
   46MOL0     C 6139   8.588   7.430   1.520  0.2858  0.5468 -0.4134
   46MOL0     C 6140   8.572   7.469   1.408 -0.3045  0.4913 -0.5606
   46MOL0     C 6141   8.186   7.306   1.864 -0.1237 -0.1283  0.1868
   46MOL0     C 6142   8.123   7.176   1.856 -0.9457 -0.7159  0.3978
   46MOL0     H 6143   8.109   6.680   1.888 -0.4064  2.4249  2.2467
   46MOL0     H 6144   7.983   6.477   1.824 -1.3246 -0.9569  1.8286
   46MOL0     H 6145   7.781   6.347   1.924  1.7679  0.2027 -0.7044
   46MOL0     H 6146   7.615   6.317   1.844 -0.4194  2.2616 -3.2427
   46MOL0     H 6147   7.759   6.283   1.632 -0.7890  3.2448  1.2416
   46MOL0     H 6148   7.901   6.261   1.725 -0.3045 -0.4682 -4.2805
   46MOL0     H 6149   7.714   6.095   1.872 -0.4728 -1.8960 -0.4743
   46MOL0     H 6150   7.635   6.134   1.716  0.3204  3.3226 -0.1135
   46MOL0     H 6151   7.832   6.020   1.593 -1.8529 -1.1630  0.1494
   46MOL0     H 6152   7.928   6.038   1.737  0.0395 -0.4257 -0.3543
   46MOL0     H 6153   7.774   5.873   1.851 -1.5339  0.0813 -0.5211
   46MOL0     H 6154   7.692   5.845   1.703  0.2164 -0.1936 -0.6923
   46MOL0     H 6155   7.903   5.763   1.603 -0.2565 -3.2690 -0.5771
   46MOL0     H 6156   7.976   5.783   1.775 -0.7445 -1.3215 -0.3723
   46MOL0     H 6157   7.792   5.617   1.841  2.9780  4.5737  2.4762
   46MOL0     H 6158   7.760   5.613   1.657 -0.8292 -0.3944  0.3350
   46MOL0     H 6159   8.030   5.528   1.785 -0.5649 -2.7650  0.3239
   46MOL0     H 6160   7.975   5.526   1.613  0.2392 -1.3739 -0.0863
   46MOL0     H 6161   7.717   5.395   1.892  2.0286  1.2228  0.6175
   46MOL0     H 6162   7.574   5.117   1.666 -1.5314  2.1971 -0.4699
   46MOL0     H 6163   7.606   5.092   1.840  1.9204  0.4469  0.1031
   46MOL0     H 6164   7.503   5.360   1.740 -1.8032  0.6009 -0.9180
   46MOL0     H 6165   7.495   5.301   1.900  0.6158  0.5742 -0.2891
   46MOL0     H 6166   7.365   5.164   1.654 -1.3851  0.6671  0.2114
   46MOL0     H 6167   7.289   5.291   1.747  1.2811  0.8379 -0.3862
   46MOL0     H 6168   7.360   5.015   1.859  0.9701  1.3778  2.1892
   46MOL0     H 6169   7.206   5.067   1.802  0.3326 -0.6509  1.2003
   46MOL0     H 6170   7.058   5.206   1.828  0.4825  0.9163  0.0059
   46MOL0     H 6171   6.855   5.473   1.824 -1.1200  0.5534 -0.7082
   46MOL0     H 6172   6.890   5.318   1.754  3.0984  0.5715  0.8908
   46MOL0     H 6173   6.758   5.314   1.865  0.6304 -0.5546  1.1150
   46MOL0     H 6174   6.587   5.271   2.177 -4.0597 -1.1328 -1.3995
   46MOL0     H 6175   6.387   5.292   2.303 -1.7698  1.5797  0.1387
   46MOL0     H 6176   6.165   5.443   2.169  0.6874 -2.0522  0.8128
   46MOL0     H 6177   6.147   5.341   2.303  2.3727 -0.6387  2.7937
   46MOL0     H 6178   5.995   5.522   2.411  2.3624  1.0735 -0.4211
   46MOL0     H 6179   6.013   5.628   2.271 -0.4993 -0.1256 -1.6072
   46MOL0     H 6180   5.840   5.381   2.287 -2.7297  3.0709 -0.1153
   46MOL0     H 6181   5.944   5.405   2.137  1.1805  2.5806 -0.8672
   46MOL0     H 6182   5.766   5.604   2.285 -2.3058 -0.2277 -1.3137
   46MOL0     H 6183   5.848   5.628   2.130 -1.1522  1.3950  0.1870
   46MOL0     H 6184   5.631   5.413   2.186  2.3739 -1.7679  0.5952
   46MOL0     H 6185   5.714   5.440   2.031  1.4803 -1.3212  1.0486
   46MOL0     H 6186   5.552   5.648   2.184  0.4602 -0.1867 -0.3644
   46MOL0     H 6187   5.613   5.677   2.021  2.5909 -0.3739  0.4109
   46MOL0     H 6188   5.371   5.606   2.048  0.3591 -0.5356 -1.4618
   46MOL0     H 6189   5.424   5.465   2.143  0.0410 -0.0308  0.0922
   46MOL0     H 6190   5.473   5.529   1.842  2.0633 -1.5294 -0.0597
   46MOL0     H 6191   5.332   5.443   1.910 -0.5588 -0.1895  2.4822
   46MOL0     H 6192   6.387   5.715   2.262  0.1378  0.3217 -1.2919
   46MOL0     H 6193   6.597   5.695   2.125 -1.5857  0.4832 -1.1561
   46MOL0     H 6194   7.035   5.367   2.288 -1.7621 -3.2958  0.3640
   46MOL0     H 6195   7.215   5.228   2.226 -3.7510 -2.4481  2.7748
   46MOL0     H 6196   7.623   6.711   1.805  0.5158  4.2761 -0.0223
   46MOL0     H 6197   7.751   6.908   1.845  1.9577  1.4325  1.9332
   46MOL0     H 6198   8.257   7.073   2.155 -0.0173 -1.9062 -0.5890
   46MOL0     H 6199   8.357   7.281   2.153  0.3459  1.0375 -0.3171
   46MOL0     H 6200   8.485   7.592   1.970  1.1447 -0.2486 -0.0918
   46MOL0     H 6201   8.484   7.452   2.088 -2.0713  0.2020  0.0695
   46MOL0     H 6202   8.532   7.314   1.888  2.4740 -0.5634 -2.6137
   46MOL0     H 6203   8.656   7.447   1.905 -0.8169  1.7007  0.4221
   46MOL0     H 6204   8.531   7.570   1.715  0.9269 -0.5594  0.4135
   46MOL0     H 6205   8.408   7.438   1.730  0.2585 -0.6185 -0.1413
   46MOL0     H 6206   8.565   7.274   1.660  1.1633 -0.1146 -0.3266
   46MOL0     H 6207   8.709   7.379   1.678  0.1471  0.2563 -0.6342
   46MOL0     H 6208   8.554   7.512   1.311 -0.3972 -1.4182 -1.4313
   46MOL0     H 6209   8.174   7.372   1.779  0.1064  0.7320  0.8109
   46MOL0     H 6210   8.060   7.149   1.772 -0.7738 -2.9553  0.9451
   47MOL0     O 6211   5.540   3.591   5.027 -0.2868 -0.3135 -0.1680
   47MOL0     C 6212   5.533   3.483   5.084  0.3929 -0.2757 -0.5562
   47MOL0     O 6213   5.590   3.367   5.040  0.5284 -0.6628 -0.2340
   47MOL0     C 6214   5.593   3.349   4.905  0.8358  0.4477 -0.3297
   47MOL0     C 6215   5.480   3.291   4.844  0.3786  1.2528  0.2686
   47MOL0     C 6216   5.470   3.266   4.708  0.1159 -0.0962  0.0399
   47MOL0     C 6217   5.578   3.275   4.619  0.2819 -0.2676 -0.4615
   47MOL0     O 6218   5.563   3.245   4.489  0.0914  0.1081  0.7064
   47MOL0     C 6219   5.679   3.253   4.403 -0.1284 -1.3270 -0.1425
   47MOL0     C 6220   5.698   3.394   4.349  0.6324 -0.3544  0.8696
   47MOL0     C 6221   5.811   3.381   4.242 -0.5834 -0.0385 -0.0862
   47MOL0     C 6222   5.863   3.524   4.216 -0.3409  0.0248  0.0813
   47MOL0     C 6223   5.976   3.549   4.115 -0.5754  0.5824 -0.4021
   47MOL0     C 6224   6.110   3.479   4.161 -0.0918 -0.3964 -0.0612
   47MOL0     C 6225   6.159   3.518   4.302  0.6547 -0.2348 -0.5725
   47MOL0     C 6226   6.294   3.463   4.336 -0.5688  0.2154 -0.2619
   47MOL0     N 6227   6.301   3.325   4.296 -0.5778  0.3829  0.5556
   47MOL0     C 6228   6.389   3.284   4.199  0.3002 -0.5010 -0.7146
   47MOL0     C 6229   6.366   3.149   4.198 -0.0273 -0.5085 -0.6116
   47MOL0     C 6230   6.463   3.052   4.139 -0.2394  0.2159 -0.4176
   47MOL0     C 6231   6.592   3.037   4.208  0.4355 -0.1639 -0.0691
   47MOL0     C 6232   6.675   2.917   4.150  0.1374 -0.2382  0.3109
   47MOL0     C 6233   6.807   2.899   4.225  0.6847  0.1295  0.8080
   47MOL0     O 6234   6.888   3.014   4.200 -0.8180 -1.1035 -0.7095
   47MOL0     C 6235   7.024   3.023   4.225 -0.0058 -0.3362 -0.1432
   47MOL0     C 6236   7.091   2.915   4.284  0.7633 -0.8795 -0.0985
   47MOL0     C 6237   7.229   2.938   4.313  0.0730  0.2134 -0.0818
   47MOL0     C 6238   7.305   2.827   4.386 -0.2529  0.2368 -0.1919
   47MOL0     C 6239   7.302   3.053   4.262 -0.6018 -0.2146 -0.6559
   47MOL0     C 6240   7.450   3.066   4.276 -0.8261 -0.3877  0.0981
   47MOL0     O 6241   7.528   2.947   4.285 -0.8006 -0.1811 -0.0023
   47MOL0     C 6242   7.663   2.958   4.312 -0.4329 -0.3806  0.3163
   47MOL0     C 6243   7.722   3.049   4.401 -0.5737 -0.2300  0.3932
   47MOL0     C 6244   7.854   3.072   4.420 -0.7111 -0.1661 -0.2096
   47MOL0     C 6245   7.938   2.996   4.342  0.8612  0.7491 -0.0037
   47MOL0     O 6246   8.065   3.031   4.358 -0.1150 -0.8071 -0.2865
   47MOL0     C 6247   8.158   2.959   4.287  0.0137  0.3640  0.2372
   47MOL0     C 6248   8.299   2.995   4.341  0.3594 -0.6314  0.9649
   47MOL0     C 6249   8.408   2.920   4.263 -0.8689 -0.0670 -0.0789
   47MOL0     C 6250   8.389   2.771   4.255  1.3899  0.1591 -0.2450
   47MOL0     C 6251   8.515   2.692   4.194  0.2829 -0.4588 -0.8613
   47MOL0     C 6252   8.492   2.655   4.054 -0.8278  0.1385  0.2297
   47MOL0     C 6253   8.623   2.623   3.976  0.2747 -0.8636 -0.0262
   47MOL0     C 6254   8.588   2.577   3.836 -0.2366 -0.2728 -0.8311
   47MOL0    Cl 6255   8.730   2.533   3.746  0.0389  0.4108 -0.3359
   47MOL0     C 6256   7.887   2.894   4.256  0.8376  0.5643  0.2301
   47MOL0     C 6257   7.749   2.873   4.248  0.0556  0.6367  0.0829
   47MOL0     O 6258   7.498   3.172   4.245  0.9376 -0.7166 -0.4358
   47MOL0     C 6259   7.226   3.158   4.205 -0.6430  0.0244 -0.5474
   47MOL0     C 6260   7.087   3.138   4.192  0.0300  0.0544 -0.2652
   47MOL0     N 6261   6.269   3.119   4.290  0.0624 -0.6993  0.3405
   47MOL0     N 6262   6.216   3.224   4.333 -0.6375 -0.5700 -0.8430
   47MOL0     C 6263   5.699   3.325   4.682  0.5808 -0.0459 -0.1007
   47MOL0     C 6264   5.710   3.368   4.817  0.2439 -0.4179 -0.8196
   47MOL0     C 6265   5.447   3.471   5.207 -0.1930  0.7472 -0.1785
   47MOL0     C 6266   5.378   3.580   5.252 -0.3433 -0.1946 -0.9970
   47MOL0     C 6267   5.291   3.574   5.357 -0.6253 -0.7118 -0.7101
   47MOL0     C 6268   5.277   3.462   5.433 -0.1903 -0.3098 -1.2488
   47MOL0     O 6269   5.204   3.445   5.550  0.4132 -0.8669 -0.0745
   47MOL0     C 6270   5.085   3.530   5.557 -0.7243  0.3354 -0.6873
   47MOL0     C 6271   4.992   3.485   5.670 -1.0739  0.2589 -0.0007
   47MOL0     C 6272   4.880   3.591   5.675  0.8850 -0.6325 -0.7654
   47MOL0     C 6273   4.802   3.567   5.801  0.1094 -0.3862 -0.0255
   47MOL0     C 6274   4.679   3.652   5.798 -0.7278  0.4349  0.1195
   47MOL0     C 6275   4.574   3.703   5.776 -0.2741 -0.7648 -0.9049
   47MOL0     C 6276   5.352   3.349   5.399  0.6242  0.0206  0.5360
   47MOL0     C 6277   5.430   3.356   5.283  0.4362  0.9772 -0.4201
   47MOL0     H 6278   5.395   3.254   4.901 -0.8519 -0.1408 -2.2866
   47MOL0     H 6279   5.376   3.231   4.666 -0.4278  0.5107  0.7401
   47MOL0     H 6280   5.765   3.211   4.455  0.1801 -0.3571  0.1475
   47MOL0     H 6281   5.667   3.192   4.312  2.5971 -4.3982  1.3560
   47MOL0     H 6282   5.608   3.438   4.303  0.6221  0.3418  1.5470
   47MOL0     H 6283   5.730   3.458   4.432 -2.9110  1.2356  1.2088
   47MOL0     H 6284   5.897   3.322   4.276 -0.8763 -0.7032 -0.4636
   47MOL0     H 6285   5.784   3.324   4.153  3.1199  0.1349 -1.5058
   47MOL0     H 6286   5.779   3.581   4.173 -0.1834 -0.1209 -0.4290
   47MOL0     H 6287   5.891   3.567   4.312  2.8558 -0.0540 -0.7114
   47MOL0     H 6288   5.952   3.500   4.020  2.2167 -0.0454 -0.8686
   47MOL0     H 6289   5.995   3.655   4.096 -3.5870  1.3948  0.5315
   47MOL0     H 6290   6.082   3.374   4.153  2.1316 -0.9239 -1.5731
   47MOL0     H 6291   6.182   3.506   4.083  0.4676  0.7933  0.8437
   47MOL0     H 6292   6.168   3.627   4.309 -1.6448 -0.0912  1.5598
   47MOL0     H 6293   6.081   3.497   4.376  1.5350  1.8819  1.0541
   47MOL0     H 6294   6.312   3.468   4.444 -2.1644 -3.1718  0.2991
   47MOL0     H 6295   6.368   3.524   4.284  0.1582 -0.3546  0.0835
   47MOL0     H 6296   6.452   3.342   4.132 -2.1782 -0.1555 -2.8660
   47MOL0     H 6297   6.408   2.957   4.136 -2.4805  1.3567  1.6979
   47MOL0     H 6298   6.483   3.086   4.037  3.0367 -1.8569 -0.6220
   47MOL0     H 6299   6.569   3.008   4.311 -0.4382  0.6421 -0.0236
   47MOL0     H 6300   6.646   3.132   4.211 -0.9293  0.6159  1.7340
   47MOL0     H 6301   6.697   2.957   4.051  2.8096  1.7139  1.5551
   47MOL0     H 6302   6.625   2.820   4.139 -0.1741 -0.0643  0.1621
   47MOL0     H 6303   6.855   2.816   4.172 -0.7037  1.1558 -2.2948
   47MOL0     H 6304   6.791   2.872   4.330  3.4639 -3.2793  0.5544
   47MOL0     H 6305   7.044   2.819   4.307 -1.8836 -0.0181 -1.4662
   47MOL0     H 6306   7.364   2.869   4.468  1.3130 -0.1810 -1.0653
   47MOL0     H 6307   7.232   2.759   4.432 -1.8552  0.9993 -1.4922
   47MOL0     H 6308   7.357   2.774   4.306 -2.7608 -1.0038 -1.1230
   47MOL0     H 6309   7.657   3.113   4.459 -1.6928  0.6704 -1.7638
   47MOL0     H 6310   7.884   3.155   4.484  0.8896  0.4991 -1.7476
   47MOL0     H 6311   8.149   2.854   4.318  2.9040 -0.3309 -0.8851
   47MOL0     H 6312   8.152   2.972   4.178  0.0534 -1.4322 -0.0136
   47MOL0     H 6313   8.325   3.101   4.339  1.5607 -0.8898  1.3760
   47MOL0     H 6314   8.302   2.966   4.447  0.6465 -0.4211  1.0159
   47MOL0     H 6315   8.503   2.945   4.310 -0.8874 -3.1549  1.8875
   47MOL0     H 6316   8.409   2.947   4.157  1.1099 -2.8266 -0.8784
   47MOL0     H 6317   8.388   2.724   4.354  0.0922 -2.4316 -1.3846
   47MOL0     H 6318   8.297   2.744   4.202  1.1985  0.8874 -0.2905
   47MOL0     H 6319   8.524   2.594   4.242  0.1757 -0.9602 -1.8481
   47MOL0     H 6320   8.605   2.750   4.217  0.4383 -0.5544 -1.2119
   47MOL0     H 6321   8.412   2.583   4.040  0.8373 -2.0511  1.4017
   47MOL0     H 6322   8.447   2.746   4.012 -4.2112 -1.0974  0.8905
   47MOL0     H 6323   8.677   2.547   4.034 -0.0636 -0.3637  0.9690
   47MOL0     H 6324   8.686   2.712   3.982  0.9859 -1.3488 -0.1243
   47MOL0     H 6325   8.543   2.658   3.778  1.3418 -0.2500 -2.0996
   47MOL0     H 6326   8.519   2.494   3.850 -0.2745 -0.1532 -0.2814
   47MOL0     H 6327   7.968   2.843   4.205 -0.3995 -1.4870  0.1891
   47MOL0     H 6328   7.702   2.790   4.198 -0.2284 -0.0976  1.5143
   47MOL0     H 6329   7.278   3.247   4.171 -2.5063  3.4522  4.3903
   47MOL0     H 6330   7.032   3.218   4.143  0.3476  0.8710  0.6790
   47MOL0     H 6331   5.794   3.341   4.633 -0.3010  0.3102 -1.7482
   47MOL0     H 6332   5.798   3.421   4.852  0.0252  0.0813 -1.0172
   47MOL0     H 6333   5.388   3.681   5.212 -1.8089  1.4857  2.4622
   47MOL0     H 6334   5.225   3.656   5.384 -0.6594  0.2831 -3.5431
   47MOL0     H 6335   5.113   3.627   5.597  0.9203 -1.5201  3.2220
   47MOL0     H 6336   5.037   3.542   5.459 -3.6209 -1.2431  0.4172
   47MOL0     H 6337   5.047   3.494   5.764  0.0315  2.1993 -0.7657
   47MOL0     H 6338   4.950   3.385   5.651 -1.8525  0.1672  2.0273
   47MOL0     H 6339   4.811   3.576   5.591 -1.1437 -1.5157  0.9833
   47MOL0     H 6340   4.907   3.697   5.670  2.5121 -0.8461  1.7124
   47MOL0     H 6341   4.868   3.589   5.885 -1.3169  0.2859  0.9706
   47MOL0     H 6342   4.773   3.461   5.806 -0.7323 -0.5307 -4.5478
   47MOL0     H 6343   4.476   3.741   5.760  0.3977  0.6144 -1.9439
   47MOL0     H 6344   5.351   3.255   5.453  2.3479 -2.7145 -3.6919
   47MOL0     H 6345   5.478   3.260   5.266 -0.4439  0.2723  0.8981
   48MOL0     O 6346   8.990   7.143   7.459 -0.2041 -0.0849  0.1293
   48MOL0     C 6347   9.038   7.160   7.570 -0.1423  0.6154 -0.4009
   48MOL0     O 6348   8.965   7.141   7.680  0.1116 -0.3517  0.2948
   48MOL0     C 6349   8.836   7.089   7.665  0.5339  0.2145  0.3228
   48MOL0     C 6350   8.727   7.182   7.648 -0.5798 -0.8080 -1.1809
   48MOL0     C 6351   8.594   7.141   7.633  0.1205  1.2179  0.0482
   48MOL0     C 6352   8.568   6.998   7.645  0.2555 -0.2609 -0.5248
   48MOL0     O 6353   8.445   6.949   7.672  0.0657 -0.8903  0.8193
   48MOL0     C 6354   8.333   7.037   7.656 -0.4705 -0.2772 -0.3861
   48MOL0     C 6355   8.195   6.968   7.674  0.3603  1.1579 -0.2528
   48MOL0     C 6356   8.085   7.042   7.597  0.4773 -0.3235 -0.4542
   48MOL0     C 6357   8.037   7.182   7.646 -0.0700 -0.0952  0.2177
   48MOL0     C 6358   7.969   7.258   7.534 -0.4648  0.3701 -0.0867
   48MOL0     C 6359   8.071   7.297   7.422  0.0288 -0.9777  0.4277
   48MOL0     C 6360   8.011   7.411   7.323 -0.3278  0.3912 -0.4765
   48MOL0     C 6361   8.124   7.484   7.245  0.7328 -0.2106 -0.6962
   48MOL0     N 6362   8.076   7.589   7.159  0.1636 -0.0642 -1.2330
   48MOL0     C 6363   8.087   7.724   7.191 -0.0787 -0.0084  0.1386
   48MOL0     C 6364   7.988   7.786   7.113 -0.8364 -0.2105 -0.1166
   48MOL0     C 6365   7.965   7.932   7.104  0.1242 -0.1124  0.2749
   48MOL0     C 6366   7.908   7.976   6.962  0.0954  0.1355  0.0998
   48MOL0     C 6367   7.767   7.919   6.929  0.4532 -0.1004 -0.2412
   48MOL0     C 6368   7.682   8.001   6.818  0.3090 -0.6122 -0.9159
   48MOL0     O 6369   7.707   8.138   6.825 -0.6140  0.1824 -0.2705
   48MOL0     C 6370   7.654   8.226   6.725 -0.5051 -0.2608 -1.0519
   48MOL0     C 6371   7.723   8.345   6.692 -0.3277  0.7170 -0.4520
   48MOL0     C 6372   7.682   8.441   6.599  0.4441  0.9608  0.4109
   48MOL0     C 6373   7.749   8.568   6.599 -0.6456 -0.2077  0.7880
   48MOL0     C 6374   7.569   8.412   6.512 -0.5633  1.1445  0.4747
   48MOL0     C 6375   7.522   8.497   6.405 -0.4411  0.9055  0.1397
   48MOL0     O 6376   7.385   8.509   6.391 -0.2009  0.1027  0.6125
   48MOL0     C 6377   7.337   8.604   6.308 -0.9839 -0.7863  0.2833
   48MOL0     C 6378   7.365   8.739   6.323 -0.1459  0.0367 -0.2874
   48MOL0     C 6379   7.304   8.838   6.242  0.2262  0.8611 -0.2148
   48MOL0     C 6380   7.208   8.803   6.145  0.7202 -0.1305  0.2078
   48MOL0     O 6381   7.150   8.891   6.061  0.0496 -0.0002 -0.1864
   48MOL0     C 6382   7.161   9.030   6.102  0.2652  1.3046  0.1748
   48MOL0     C 6383   7.046   9.105   6.050 -0.1300 -0.4768  0.6797
   48MOL0     C 6384   7.031   9.126   5.895  0.4978 -0.3875  0.3448
   48MOL0     C 6385   6.918   9.044   5.843 -0.0383  0.0190  0.2741
   48MOL0     C 6386   6.878   9.069   5.692 -0.0307  0.4018  0.4410
   48MOL0     C 6387   6.993   9.101   5.599  1.0797  0.4482  0.4539
   48MOL0     C 6388   6.947   9.126   5.451 -1.1397  0.6680 -0.4035
   48MOL0     C 6389   7.060   9.118   5.345  0.0546 -0.5593  0.2171
   48MOL0    Cl 6390   7.134   8.959   5.358  0.6973 -0.5719 -0.4824
   48MOL0     C 6391   7.185   8.672   6.135  0.3487 -0.5283  0.4273
   48MOL0     C 6392   7.252   8.566   6.206  0.0627 -0.0179  0.2618
   48MOL0     O 6393   7.607   8.558   6.339 -0.2503  0.2399 -0.5099
   48MOL0     C 6394   7.500   8.291   6.543  0.7180  0.1469 -0.4562
   48MOL0     C 6395   7.538   8.211   6.651  0.2830  0.1272 -0.1620
   48MOL0     N 6396   7.921   7.683   7.053 -0.3334  0.8465 -0.1823
   48MOL0     N 6397   7.967   7.566   7.078 -0.0244 -0.5086  0.5305
   48MOL0     C 6398   8.672   6.907   7.656 -1.0469 -0.1029 -0.2818
   48MOL0     C 6399   8.806   6.951   7.665 -0.1612  0.2672  0.2607
   48MOL0     C 6400   9.183   7.202   7.585 -0.9243 -0.1295 -0.1877
   48MOL0     C 6401   9.251   7.216   7.710  0.7189 -0.5190  0.4619
   48MOL0     C 6402   9.393   7.239   7.716  0.5420 -0.8231 -0.0259
   48MOL0     C 6403   9.466   7.258   7.609  0.6400 -0.3720 -0.5812
   48MOL0     O 6404   9.605   7.291   7.619  0.2151  0.7751  0.1492
   48MOL0     C 6405   9.680   7.338   7.508  0.4426  0.7340 -0.5610
   48MOL0     C 6406   9.816   7.360   7.540 -0.6227 -0.0021  0.2867
   48MOL0     C 6407   9.884   7.224   7.580 -0.4839 -0.3609 -0.5644
   48MOL0     C 6408   9.947   7.229   7.720 -0.7225  0.5818 -0.3177
   48MOL0     C 6409  10.034   7.103   7.739  0.6375  0.0136 -0.3662
   48MOL0     C 6410  10.113   7.010   7.732 -0.7523 -0.6341 -0.1432
   48MOL0     C 6411   9.402   7.244   7.483 -0.1082  0.3280  1.1059
   48MOL0     C 6412   9.270   7.203   7.473 -0.3587 -0.0572  0.5000
   48MOL0     H 6413   8.749   7.288   7.655 -0.4989 -0.9453  3.6331
   48MOL0     H 6414   8.518   7.218   7.638 -2.8645 -1.4770 -0.4022
   48MOL0     H 6415   8.340   7.110   7.738 -0.7537  1.2344 -1.6533
   48MOL0     H 6416   8.336   7.088   7.559 -1.1094  1.9103  0.6738
   48MOL0     H 6417   8.198   6.865   7.639  0.4971  1.0554  0.0601
   48MOL0     H 6418   8.157   6.970   7.777  0.6263 -1.6885 -0.0204
   48MOL0     H 6419   8.113   7.047   7.492  2.1412 -0.5683 -0.0441
   48MOL0     H 6420   7.992   6.986   7.614  1.1766 -1.1690  0.7465
   48MOL0     H 6421   7.972   7.162   7.731  2.5954  0.6012  2.5468
   48MOL0     H 6422   8.121   7.239   7.686  2.1008 -3.4781  0.9046
   48MOL0     H 6423   7.889   7.199   7.489 -0.8441  1.9739 -1.6318
   48MOL0     H 6424   7.924   7.347   7.579 -1.6710  0.8158 -2.0232
   48MOL0     H 6425   8.155   7.340   7.478 -1.3595  0.8934  1.1696
   48MOL0     H 6426   8.120   7.217   7.365 -3.3253 -2.3924 -0.6766
   48MOL0     H 6427   7.935   7.363   7.260 -1.5957  2.0456 -0.2843
   48MOL0     H 6428   7.972   7.488   7.391  0.6190 -0.2238  0.8085
   48MOL0     H 6429   8.189   7.410   7.196  1.0603 -1.4278  1.4575
   48MOL0     H 6430   8.192   7.542   7.307  0.1838 -0.9993  0.6911
   48MOL0     H 6431   8.161   7.774   7.252 -0.9429 -0.6749  1.8146
   48MOL0     H 6432   7.900   7.950   7.190  0.5861 -0.6454  0.7414
   48MOL0     H 6433   8.057   7.986   7.129 -0.2642  1.7990 -2.0152
   48MOL0     H 6434   7.980   7.941   6.887  0.4182  1.9211 -0.4485
   48MOL0     H 6435   7.909   8.083   6.944  0.9036 -0.0737 -1.2334
   48MOL0     H 6436   7.705   7.938   7.017  0.0137  0.9047 -0.7492
   48MOL0     H 6437   7.764   7.810   6.915 -2.7458 -0.4307  2.0855
   48MOL0     H 6438   7.577   7.988   6.843 -0.4050  0.0344 -3.3379
   48MOL0     H 6439   7.710   7.967   6.718 -1.6794 -0.7623 -1.4443
   48MOL0     H 6440   7.806   8.377   6.755  0.3429  2.1736 -2.0038
   48MOL0     H 6441   7.849   8.556   6.643  0.4306  0.2288 -1.4186
   48MOL0     H 6442   7.761   8.618   6.502 -0.4565  1.5453  1.6759
   48MOL0     H 6443   7.696   8.639   6.663 -1.4567 -0.6802  0.6423
   48MOL0     H 6444   7.439   8.769   6.396  1.8528 -1.6752 -1.4964
   48MOL0     H 6445   7.329   8.942   6.257  1.0593  0.3637  2.3227
   48MOL0     H 6446   7.164   9.039   6.211  1.8894 -1.1010  0.4013
   48MOL0     H 6447   7.256   9.055   6.054  1.4189 -0.6668  1.2883
   48MOL0     H 6448   6.954   9.067   6.096 -0.8247  0.1872 -0.1268
   48MOL0     H 6449   7.055   9.209   6.083 -1.2569 -0.4788  1.0447
   48MOL0     H 6450   7.123   9.109   5.838  0.2423  0.3559 -0.3151
   48MOL0     H 6451   6.996   9.228   5.876 -0.1474 -0.8845 -1.2756
   48MOL0     H 6452   6.931   8.936   5.856 -0.3331 -0.4928 -2.9163
   48MOL0     H 6453   6.837   9.064   5.914  1.6485  1.5674  1.8571
   48MOL0     H 6454   6.805   9.150   5.692 -2.1063 -1.3759  1.0726
   48MOL0     H 6455   6.822   8.983   5.654 -1.2851  0.7874  1.3566
   48MOL0     H 6456   7.045   9.191   5.634  0.3339  0.8430  0.5719
   48MOL0     H 6457   7.071   9.025   5.600  0.3252 -0.3365  0.9052
   48MOL0     H 6458   6.893   9.222   5.447 -2.1748  0.1110 -0.0782
   48MOL0     H 6459   6.863   9.059   5.430 -2.6988  1.7635  1.9395
   48MOL0     H 6460   7.134   9.194   5.372 -0.1063 -0.4686  0.4070
   48MOL0     H 6461   7.034   9.138   5.241  2.1785  0.1173 -0.2262
   48MOL0     H 6462   7.109   8.637   6.066  2.1606 -3.3921 -0.2880
   48MOL0     H 6463   7.236   8.463   6.178  0.0225  0.2299 -0.6491
   48MOL0     H 6464   7.421   8.261   6.475  0.7476  2.3316 -1.5457
   48MOL0     H 6465   7.482   8.119   6.668  0.8590 -0.6375 -2.1515
   48MOL0     H 6466   8.654   6.800   7.656  0.5516 -0.4191  1.0994
   48MOL0     H 6467   8.888   6.881   7.677 -0.2745 -0.8056 -3.7971
   48MOL0     H 6468   9.194   7.198   7.801  1.6673 -1.3917  0.9129
   48MOL0     H 6469   9.463   7.237   7.799 -0.0850 -1.0055  0.5064
   48MOL0     H 6470   9.669   7.271   7.423 -5.8991  2.3234 -1.5036
   48MOL0     H 6471   9.637   7.433   7.474  0.6911  0.4118 -1.8249
   48MOL0     H 6472   9.821   7.431   7.623 -0.0154 -0.5629  0.7475
   48MOL0     H 6473   9.872   7.407   7.459  2.2876 -0.2517  2.0095
   48MOL0     H 6474   9.959   7.189   7.508 -0.6920 -2.0458 -0.0075
   48MOL0     H 6475   9.822   7.135   7.593  0.7217 -1.1159  0.2738
   48MOL0     H 6476   9.859   7.232   7.784  0.3831 -0.9184  1.3613
   48MOL0     H 6477  10.004   7.319   7.747  0.0216 -0.2648  1.0866
   48MOL0     H 6478  10.183   6.931   7.717 -1.3866 -1.0570 -0.9314
   48MOL0     H 6479   9.467   7.265   7.399  1.7546 -1.0328  2.1348
   48MOL0     H 6480   9.226   7.193   7.375  2.0956  3.7797 -1.2208
   49MOL0     O 6481   0.727   0.365   5.417  0.4226  0.1762  0.4121
   49MOL0     C 6482   0.833   0.407   5.356  0.1235  0.1695  0.2950
   49MOL0     O 6483   0.829   0.467   5.237  0.5989 -0.4243  0.3394
   49MOL0     C 6484   0.714   0.524   5.192  0.4846 -0.1326 -0.1565
   49MOL0     C 6485   0.684   0.656   5.219 -0.8068  0.6026  0.5121
   49MOL0     C 6486   0.577   0.725   5.166  0.1351  0.5261  0.5726
   49MOL0     C 6487   0.483   0.655   5.080 -0.4321 -0.5779  0.3052
   49MOL0     O 6488   0.375   0.730   5.032 -0.6053 -0.6527  0.7774
   49MOL0     C 6489   0.304   0.695   4.907 -0.8578  0.1332  0.0115
   49MOL0     C 6490   0.183   0.785   4.876  0.2070  0.3227  0.1114
   49MOL0     C 6491   0.068   0.729   4.964 -0.1510 -0.1926  1.2661
   49MOL0     C 6492  -0.059   0.803   4.929  0.0911  0.0209 -0.6356
   49MOL0     C 6493  -0.186   0.749   4.980  0.6740  0.8652 -0.0799
   49MOL0     C 6494  -0.216   0.612   4.918 -0.0304  0.4898  0.3238
   49MOL0     C 6495  -0.371   0.596   4.916 -0.5382  0.3462  0.5105
   49MOL0     C 6496  -0.411   0.455   4.854  0.7221 -0.9970 -0.4793
   49MOL0     N 6497  -0.374   0.335   4.923 -0.1080  0.0548  0.4138
   49MOL0     C 6498  -0.388   0.320   5.058 -0.6274  0.0422 -0.8183
   49MOL0     C 6499  -0.371   0.189   5.084 -0.1052 -0.3518 -0.4081
   49MOL0     C 6500  -0.376   0.127   5.222  0.3364  0.6272  0.3166
   49MOL0     C 6501  -0.502   0.053   5.229 -0.7008  0.1167  0.4941
   49MOL0     C 6502  -0.521  -0.015   5.362  0.5174  1.4445  0.8081
   49MOL0     C 6503  -0.667  -0.073   5.364 -0.6389 -0.6576  0.3141
   49MOL0     O 6504  -0.767   0.027   5.338  0.4828 -0.7093 -0.2076
   49MOL0     C 6505  -0.908   0.004   5.330 -0.8262  0.0743  0.6580
   49MOL0     C 6506  -0.960  -0.134   5.356 -0.0106  0.0473  0.0371
   49MOL0     C 6507  -1.089  -0.168   5.349  0.1214 -0.2730  0.0096
   49MOL0     C 6508  -1.125  -0.299   5.397  0.3495  0.4787 -0.0294
   49MOL0     C 6509  -1.178  -0.071   5.300  0.0548 -0.2693  0.2804
   49MOL0     C 6510  -1.323  -0.103   5.279  1.1426  0.4880  0.0221
   49MOL0     O 6511  -1.406   0.006   5.255  0.0157  0.3118 -0.2316
   49MOL0     C 6512  -1.535  -0.017   5.219  0.0806  0.5427  0.7496
   49MOL0     C 6513  -1.643   0.035   5.287  0.0969 -0.7809 -1.1527
   49MOL0     C 6514  -1.774   0.016   5.244 -1.3846 -1.0123  0.9168
   49MOL0     C 6515  -1.802  -0.052   5.122  1.4464 -0.0461 -0.3247
   49MOL0     O 6516  -1.935  -0.081   5.081 -0.9725 -0.8248 -0.2919
   49MOL0     C 6517  -2.038  -0.078   5.176  0.2879 -0.1302 -0.8001
   49MOL0     C 6518  -2.169  -0.111   5.106  0.0132  0.0730  0.0443
   49MOL0     C 6519  -2.243   0.010   5.042 -0.4000 -0.3525  0.1471
   49MOL0     C 6520  -2.338  -0.040   4.943  0.4843 -0.3123 -0.8646
   49MOL0     C 6521  -2.423   0.066   4.883  0.4558  0.1542  0.4972
   49MOL0     C 6522  -2.549   0.097   4.967  0.0631  0.1582  0.3832
   49MOL0     C 6523  -2.625   0.218   4.900 -1.2562  0.5140 -0.0764
   49MOL0     C 6524  -2.737   0.257   4.994 -0.0316  0.0853 -0.0183
   49MOL0    Cl 6525  -2.681   0.385   5.096 -0.1030  0.1100 -0.0857
   49MOL0     C 6526  -1.695  -0.094   5.044 -0.8115  0.1446 -0.0077
   49MOL0     C 6527  -1.565  -0.066   5.088 -0.2760  0.7603  1.3194
   49MOL0     O 6528  -1.356  -0.227   5.270  0.3523  0.5944 -0.6219
   49MOL0     C 6529  -1.131   0.064   5.274  0.5316 -0.3456 -0.2827
   49MOL0     C 6530  -0.996   0.098   5.285  0.3684 -0.4776  0.6090
   49MOL0     N 6531  -0.348   0.124   4.962  0.3047 -0.0709 -0.0230
   49MOL0     N 6532  -0.348   0.213   4.860  0.0702 -0.6968 -0.4805
   49MOL0     C 6533   0.525   0.525   5.045  1.1344  0.9423 -0.3824
   49MOL0     C 6534   0.641   0.464   5.095  0.1481  0.4115 -0.2762
   49MOL0     C 6535   0.964   0.412   5.424  0.0924  0.8553  0.1881
   49MOL0     C 6536   0.999   0.341   5.540  0.7119  0.4895  0.4261
   49MOL0     C 6537   1.131   0.325   5.592  0.2209 -0.8417  0.4290
   49MOL0     C 6538   1.238   0.379   5.522 -0.8387 -0.7183  0.7459
   49MOL0     O 6539   1.370   0.372   5.561  0.8604 -0.6563  0.8732
   49MOL0     C 6540   1.405   0.354   5.698 -0.4534 -0.0147  0.4694
   49MOL0     C 6541   1.446   0.212   5.737  0.1422  0.8131 -0.8179
   49MOL0     C 6542   1.599   0.189   5.753 -0.2301  0.0529  0.1775
   49MOL0     C 6543   1.634   0.050   5.805  0.1664 -0.4389  0.7985
   49MOL0     C 6544   1.775   0.024   5.774  0.5141 -0.6010  0.4535
   49MOL0     C 6545   1.896  -0.004   5.760 -0.3404 -0.0115  0.2933
   49MOL0     C 6546   1.204   0.442   5.409  0.2524 -0.2764  0.1387
   49MOL0     C 6547   1.080   0.461   5.358 -0.0448  0.4206  0.9262
   49MOL0     H 6548   0.748   0.710   5.287 -0.0129 -0.8544  0.9500
   49MOL0     H 6549   0.547   0.829   5.177 -2.3171  0.0235 -0.6314
   49MOL0     H 6550   0.370   0.724   4.825  1.3037 -1.5278  1.0663
   49MOL0     H 6551   0.288   0.587   4.909  1.2082 -0.2000  0.9387
   49MOL0     H 6552   0.199   0.891   4.897 -0.8749  0.1523  2.0643
   49MOL0     H 6553   0.154   0.763   4.773 -0.9484 -2.7219  0.9656
   49MOL0     H 6554   0.054   0.621   4.949 -4.4156  0.3213  0.1329
   49MOL0     H 6555   0.073   0.752   5.071 -3.2057 -5.1521  2.8276
   49MOL0     H 6556  -0.051   0.909   4.953  0.5468 -0.0251 -0.5739
   49MOL0     H 6557  -0.066   0.802   4.819  0.2073 -0.3807 -0.6397
   49MOL0     H 6558  -0.193   0.740   5.088 -1.7543  0.0445 -0.2360
   49MOL0     H 6559  -0.267   0.816   4.949  0.5049  1.3190  1.2742
   49MOL0     H 6560  -0.180   0.612   4.814 -0.2507 -0.0723  0.2403
   49MOL0     H 6561  -0.168   0.533   4.977 -0.1733 -0.9930 -1.4438
   49MOL0     H 6562  -0.393   0.594   5.023  0.5658  0.0686  0.7439
   49MOL0     H 6563  -0.430   0.678   4.874 -0.2079 -0.5027 -1.7914
   49MOL0     H 6564  -0.372   0.454   4.752 -1.3324 -0.5718 -1.3289
   49MOL0     H 6565  -0.517   0.453   4.825  1.4923  1.4051 -4.2079
   49MOL0     H 6566  -0.406   0.394   5.135  2.5888  0.0915  0.0123
   49MOL0     H 6567  -0.295   0.054   5.234  0.1062  0.3681  0.2943
   49MOL0     H 6568  -0.360   0.193   5.307 -0.4960 -0.9082  1.7188
   49MOL0     H 6569  -0.522   0.000   5.136  0.9973  0.2792  0.0053
   49MOL0     H 6570  -0.573   0.136   5.236  0.0328  0.6819  1.6376
   49MOL0     H 6571  -0.503   0.052   5.447  4.5098 -2.0355  3.0587
   49MOL0     H 6572  -0.454  -0.100   5.372 -1.8321 -0.8023 -1.1341
   49MOL0     H 6573  -0.691  -0.121   5.460  0.9387  1.1553  1.7133
   49MOL0     H 6574  -0.665  -0.141   5.279 -0.1990  1.6292 -1.5892
   49MOL0     H 6575  -0.886  -0.203   5.394 -1.6161 -1.9244 -0.2556
   49MOL0     H 6576  -1.126  -0.360   5.306 -1.7721  1.6647 -0.8740
   49MOL0     H 6577  -1.049  -0.353   5.454 -0.1365  2.1173  2.3261
   49MOL0     H 6578  -1.216  -0.296   5.458  2.1882  3.9695  2.9163
   49MOL0     H 6579  -1.623   0.083   5.382 -1.1950 -0.2402 -1.1224
   49MOL0     H 6580  -1.850   0.063   5.305  1.0055  0.6528  2.7849
   49MOL0     H 6581  -2.023  -0.160   5.247 -0.9601  0.2257 -0.0854
   49MOL0     H 6582  -2.039   0.005   5.247 -2.1457 -1.1935  0.5503
   49MOL0     H 6583  -2.156  -0.200   5.045  0.8644 -1.7904  2.7451
   49MOL0     H 6584  -2.241  -0.138   5.184 -1.8679 -1.2236 -2.0076
   49MOL0     H 6585  -2.165   0.067   4.989 -0.1458 -0.2228  0.6520
   49MOL0     H 6586  -2.280   0.071   5.125  2.3150 -0.4848  1.5964
   49MOL0     H 6587  -2.284  -0.079   4.856  1.7655  1.7560 -1.0848
   49MOL0     H 6588  -2.398  -0.118   4.990 -1.1487  1.6050  0.3988
   49MOL0     H 6589  -2.453   0.034   4.783 -0.6567 -0.8829  1.1414
   49MOL0     H 6590  -2.359   0.154   4.868  1.8776 -1.1630 -2.0471
   49MOL0     H 6591  -2.627   0.022   4.978 -2.0744  1.9334 -1.6683
   49MOL0     H 6592  -2.516   0.118   5.069 -2.2493 -0.4621  1.3227
   49MOL0     H 6593  -2.664   0.182   4.804  4.2348  1.1287 -2.9481
   49MOL0     H 6594  -2.553   0.294   4.870  0.7884 -1.8143 -1.4959
   49MOL0     H 6595  -2.784   0.172   5.045 -0.6271  0.8082  0.6681
   49MOL0     H 6596  -2.811   0.303   4.928  1.0798  0.7650 -0.8154
   49MOL0     H 6597  -1.709  -0.146   4.950  0.2125  3.0957 -1.9147
   49MOL0     H 6598  -1.482  -0.082   5.020 -1.5417 -0.4916 -0.0313
   49MOL0     H 6599  -1.189   0.144   5.231  1.4980  1.6023  1.8123
   49MOL0     H 6600  -0.965   0.200   5.261  0.9585 -1.0353 -1.2141
   49MOL0     H 6601   0.462   0.472   4.975  2.6336 -0.4090 -0.7816
   49MOL0     H 6602   0.681   0.368   5.065  1.0521  1.1303 -1.4396
   49MOL0     H 6603   0.913   0.306   5.596 -0.1442  2.2979  0.3486
   49MOL0     H 6604   1.144   0.280   5.690 -2.6510 -1.7743  0.4815
   49MOL0     H 6605   1.493   0.415   5.720 -0.3913  0.2089 -0.3679
   49MOL0     H 6606   1.329   0.399   5.762  0.0004 -0.0201  1.0283
   49MOL0     H 6607   1.402   0.141   5.667  0.8433  0.0818 -0.5329
   49MOL0     H 6608   1.402   0.177   5.831  0.4116 -0.7861 -1.2574
   49MOL0     H 6609   1.639   0.262   5.824  1.1092  0.8415 -1.3348
   49MOL0     H 6610   1.643   0.211   5.655  2.0265 -0.6777  0.9719
   49MOL0     H 6611   1.577  -0.027   5.751 -2.9125  2.2886 -0.1646
   49MOL0     H 6612   1.608   0.037   5.910 -1.2052 -2.9666  0.2302
   49MOL0     H 6613   1.994  -0.047   5.759  0.3020  1.3005  2.3223
   49MOL0     H 6614   1.285   0.499   5.366 -1.7729  1.0775 -2.1327
   49MOL0     H 6615   1.069   0.518   5.266 -1.8215  2.0249  2.0486
   50MOL0     O 6616   7.676   2.441   5.723  0.0183 -0.1835  0.5321
   50MOL0     C 6617   7.802   2.437   5.717  0.5171 -1.5768  0.1534
   50MOL0     O 6618   7.883   2.552   5.743  0.4714  0.0658 -0.1208
   50MOL0     C 6619   7.819   2.672   5.733  0.8507 -0.4122  0.0639
   50MOL0     C 6620   7.782   2.714   5.610  0.4139  0.0540 -0.3530
   50MOL0     C 6621   7.708   2.826   5.589  0.0132 -0.7463 -0.2996
   50MOL0     C 6622   7.678   2.909   5.701 -0.1255 -0.3249 -0.5529
   50MOL0     O 6623   7.594   3.020   5.684  0.1626 -0.0334  0.3859
   50MOL0     C 6624   7.497   3.018   5.574  0.7902 -0.6510  0.8433
   50MOL0     C 6625   7.439   3.157   5.579  0.2733 -0.3781  0.4036
   50MOL0     C 6626   7.338   3.164   5.464 -0.0256 -0.0234 -0.2561
   50MOL0     C 6627   7.283   3.304   5.455  0.6815  0.3753  0.2712
   50MOL0     C 6628   7.145   3.315   5.392 -0.3289  0.6471  1.0458
   50MOL0     C 6629   7.108   3.463   5.371  0.6467  0.2823 -0.6927
   50MOL0     C 6630   6.963   3.480   5.318 -0.8389  0.1131 -0.9182
   50MOL0     C 6631   6.859   3.423   5.423  0.8891  0.6991  0.4917
   50MOL0     N 6632   6.733   3.494   5.386  0.0481 -0.0630 -0.5084
   50MOL0     C 6633   6.612   3.448   5.351  0.6288  0.9268 -1.0042
   50MOL0     C 6634   6.523   3.551   5.369  0.3406  0.1926  0.0284
   50MOL0     C 6635   6.387   3.557   5.320  0.9884  0.4181  0.0244
   50MOL0     C 6636   6.301   3.607   5.439 -0.1833  0.0477  0.4178
   50MOL0     C 6637   6.154   3.566   5.416  0.6631 -0.3319 -0.4413
   50MOL0     C 6638   6.062   3.618   5.531  0.2169 -0.9683  0.4633
   50MOL0     O 6639   5.929   3.580   5.504 -0.4027 -0.2427  0.9277
   50MOL0     C 6640   5.828   3.603   5.592  0.1282 -0.4212 -0.4562
   50MOL0     C 6641   5.840   3.661   5.712 -0.2021  0.3364 -0.5598
   50MOL0     C 6642   5.731   3.701   5.796 -0.5516 -0.0990 -0.9613
   50MOL0     C 6643   5.766   3.771   5.932 -0.0423  0.2058  0.7861
   50MOL0     C 6644   5.605   3.684   5.753  0.2078  0.1819  0.4154
   50MOL0     C 6645   5.473   3.718   5.830  0.0844 -0.6018  0.8194
   50MOL0     O 6646   5.349   3.697   5.772  0.4781  0.3327 -0.0883
   50MOL0     C 6647   5.244   3.749   5.849  0.2881  0.4691  0.4184
   50MOL0     C 6648   5.208   3.878   5.813  0.4205 -0.1128  0.4423
   50MOL0     C 6649   5.109   3.946   5.890 -0.6655  0.1044  0.0847
   50MOL0     C 6650   5.030   3.875   5.984 -0.2560 -0.8145 -0.7994
   50MOL0     O 6651   4.933   3.938   6.058  0.5420 -0.1071  0.1583
   50MOL0     C 6652   4.810   3.862   6.089 -0.2463  0.2130 -0.2507
   50MOL0     C 6653   4.722   3.926   6.198  0.5486 -0.6494 -0.3552
   50MOL0     C 6654   4.807   3.952   6.326  0.9054  0.7357  0.2766
   50MOL0     C 6655   4.720   3.995   6.445 -0.2845 -0.1013  0.5174
   50MOL0     C 6656   4.640   4.124   6.406 -0.2385  1.7748  0.7037
   50MOL0     C 6657   4.554   4.158   6.529 -0.9187 -0.3042 -0.0803
   50MOL0     C 6658   4.431   4.237   6.471 -0.1632 -0.1777 -0.3062
   50MOL0     C 6659   4.345   4.309   6.575 -0.3555  0.1152 -1.1388
   50MOL0    Cl 6660   4.259   4.189   6.659  0.0734  0.0600 -0.3756
   50MOL0     C 6661   5.064   3.744   6.008 -0.6741 -0.3247  0.2026
   50MOL0     C 6662   5.171   3.679   5.946  0.3587 -0.5645 -0.0685
   50MOL0     O 6663   5.492   3.774   5.941  0.4644 -0.0986 -0.0001
   50MOL0     C 6664   5.594   3.615   5.621 -0.7393  0.1468  0.3125
   50MOL0     C 6665   5.703   3.590   5.543  0.3128 -0.1864 -0.3579
   50MOL0     N 6666   6.603   3.663   5.389 -0.1595 -0.4697 -0.1754
   50MOL0     N 6667   6.725   3.631   5.411 -0.2802 -0.3863  0.0954
   50MOL0     C 6668   7.724   2.877   5.832  0.1229 -0.0738  0.8459
   50MOL0     C 6669   7.779   2.746   5.844 -0.5514 -1.1501  0.4883
   50MOL0     C 6670   7.863   2.308   5.706 -0.3594 -0.9745  0.7866
   50MOL0     C 6671   7.781   2.193   5.707 -0.4734 -0.2854  0.1763
   50MOL0     C 6672   7.839   2.071   5.679  0.1290  0.5545 -0.1009
   50MOL0     C 6673   7.981   2.055   5.685  0.6798  0.7634 -0.3683
   50MOL0     O 6674   8.043   1.935   5.674  0.0836 -0.4033 -0.9958
   50MOL0     C 6675   7.974   1.810   5.678 -0.2415  0.8591  1.3862
   50MOL0     C 6676   8.094   1.708   5.681  0.3298 -0.3693 -0.6357
   50MOL0     C 6677   8.048   1.564   5.675  0.9922 -0.6797  0.2773
   50MOL0     C 6678   8.173   1.470   5.659  0.1041 -0.3238  0.3460
   50MOL0     C 6679   8.253   1.480   5.784  0.1963 -0.0745 -0.2161
   50MOL0     C 6680   8.327   1.481   5.876 -0.7780  0.0208 -0.8509
   50MOL0     C 6681   8.068   2.166   5.689  0.6327 -0.2721 -0.1137
   50MOL0     C 6682   8.002   2.288   5.690 -0.5788 -0.6668 -0.9082
   50MOL0     H 6683   7.811   2.643   5.534 -1.9633  0.4900 -1.7519
   50MOL0     H 6684   7.690   2.850   5.484  2.4408  0.7466 -0.4426
   50MOL0     H 6685   7.546   3.010   5.476 -2.9108  0.8625 -1.3569
   50MOL0     H 6686   7.421   2.940   5.588  0.2418 -0.3160 -0.1597
   50MOL0     H 6687   7.378   3.176   5.668 -0.0670 -0.5260  0.2079
   50MOL0     H 6688   7.516   3.231   5.557  0.3595 -0.7456 -0.6284
   50MOL0     H 6689   7.385   3.132   5.371 -1.2572  1.2407 -1.3459
   50MOL0     H 6690   7.261   3.088   5.487 -0.6628  0.3519 -1.1023
   50MOL0     H 6691   7.269   3.336   5.558  3.0187 -1.7893  1.3834
   50MOL0     H 6692   7.357   3.373   5.413  3.2508 -2.1952  0.2278
   50MOL0     H 6693   7.160   3.264   5.297 -0.8455 -0.0113  1.3138
   50MOL0     H 6694   7.067   3.259   5.445  0.5544 -0.9750  0.6713
   50MOL0     H 6695   7.118   3.519   5.464 -1.7186  0.5659 -0.5442
   50MOL0     H 6696   7.181   3.497   5.298  0.1470  0.1771 -1.2459
   50MOL0     H 6697   6.951   3.587   5.297  0.7055  0.4826 -0.0558
   50MOL0     H 6698   6.942   3.427   5.225  0.2783 -2.5905  0.2759
   50MOL0     H 6699   6.886   3.433   5.528 -0.4846 -2.6508  1.3016
   50MOL0     H 6700   6.848   3.314   5.423 -2.4368  0.8835 -1.9282
   50MOL0     H 6701   6.596   3.348   5.313  2.1567  0.4475 -0.4701
   50MOL0     H 6702   6.369   3.618   5.230  0.4995  0.9614  0.4842
   50MOL0     H 6703   6.357   3.458   5.285 -0.5286  0.7238  0.4113
   50MOL0     H 6704   6.309   3.716   5.436 -1.5378  0.2066  1.2649
   50MOL0     H 6705   6.334   3.568   5.536  2.1256  0.3737 -0.1818
   50MOL0     H 6706   6.159   3.457   5.412 -0.9323 -0.4674  0.4654
   50MOL0     H 6707   6.118   3.602   5.319 -0.3970  0.0961  0.0954
   50MOL0     H 6708   6.073   3.727   5.528  0.2238 -0.9943 -0.9993
   50MOL0     H 6709   6.095   3.577   5.627 -3.5483  0.0493  2.3845
   50MOL0     H 6710   5.938   3.671   5.758 -1.3698  0.5595  2.0495
   50MOL0     H 6711   5.737   3.876   5.935 -1.7142 -0.2353  1.3499
   50MOL0     H 6712   5.707   3.724   6.012 -3.4179  2.2900 -0.2667
   50MOL0     H 6713   5.871   3.772   5.961  0.2978 -1.0094 -0.3346
   50MOL0     H 6714   5.259   3.928   5.731  2.7616 -2.0980  0.5743
   50MOL0     H 6715   5.080   4.048   5.866  1.4485  0.0772 -3.2106
   50MOL0     H 6716   4.745   3.849   6.002  1.6698  0.7307 -1.8230
   50MOL0     H 6717   4.831   3.763   6.129 -1.4845 -0.8772 -2.1409
   50MOL0     H 6718   4.687   4.020   6.155  0.0213 -0.4509  0.4996
   50MOL0     H 6719   4.636   3.868   6.229  0.6954 -0.4939  0.3436
   50MOL0     H 6720   4.871   4.031   6.285 -0.5307  1.0127 -1.5782
   50MOL0     H 6721   4.863   3.860   6.343  2.0043  1.2300 -0.5584
   50MOL0     H 6722   4.649   3.914   6.466 -1.1996  0.4249 -0.4304
   50MOL0     H 6723   4.784   4.013   6.531  1.5593 -4.2856  0.2696
   50MOL0     H 6724   4.580   4.093   6.320  1.3490 -0.2711  0.2525
   50MOL0     H 6725   4.707   4.209   6.390  1.3255  0.2871 -1.2164
   50MOL0     H 6726   4.534   4.070   6.592  0.5579 -0.9831 -0.5376
   50MOL0     H 6727   4.609   4.214   6.605 -2.6667 -0.2443  1.1966
   50MOL0     H 6728   4.365   4.164   6.422 -1.4649 -0.3179  1.5263
   50MOL0     H 6729   4.461   4.311   6.397  1.4473 -1.6421 -1.1782
   50MOL0     H 6730   4.269   4.374   6.530 -0.1509  1.0954 -0.0973
   50MOL0     H 6731   4.414   4.360   6.641 -1.5612  0.5718 -0.1879
   50MOL0     H 6732   5.012   3.682   6.080  0.6824 -0.2719  1.2823
   50MOL0     H 6733   5.198   3.575   5.961 -1.8232 -1.5961 -2.5609
   50MOL0     H 6734   5.501   3.589   5.573  0.5781 -2.0804 -1.2438
   50MOL0     H 6735   5.698   3.559   5.439  1.2848  0.0165 -0.4763
   50MOL0     H 6736   7.684   2.929   5.918 -1.2896 -1.5948  1.1552
   50MOL0     H 6737   7.814   2.721   5.944 -0.8131  2.7267  1.7573
   50MOL0     H 6738   7.674   2.211   5.719 -0.5334  0.2875 -1.0633
   50MOL0     H 6739   7.780   1.981   5.675 -0.0344  0.6202  0.5832
   50MOL0     H 6740   7.912   1.797   5.768 -2.2047  0.4387  0.0247
   50MOL0     H 6741   7.907   1.792   5.594  2.0657  0.1374 -0.3799
   50MOL0     H 6742   8.152   1.726   5.772 -0.9066 -1.7795  0.5052
   50MOL0     H 6743   8.159   1.738   5.598  1.7456  1.4302  1.0300
   50MOL0     H 6744   7.988   1.547   5.585  2.2632  0.2765 -0.8079
   50MOL0     H 6745   7.987   1.542   5.763  1.4297  0.2086  0.8189
   50MOL0     H 6746   8.222   1.483   5.562 -0.5568  1.0868  0.1792
   50MOL0     H 6747   8.132   1.368   5.652 -0.9717  0.1875 -1.5281
   50MOL0     H 6748   8.391   1.479   5.962 -1.3809  0.7093 -0.3816
   50MOL0     H 6749   8.175   2.150   5.693  0.5497 -1.3338 -1.5891
   50MOL0     H 6750   8.064   2.376   5.681 -0.0178 -1.0957 -1.3046
   51MOL0     O 6751   2.986   4.921   6.755  0.2666 -0.0012  0.4523
   51MOL0     C 6752   2.953   4.800   6.764  0.6931 -0.2639  0.3361
   51MOL0     O 6753   2.987   4.711   6.861  0.5025 -0.2612 -0.1145
   51MOL0     C 6754   3.100   4.749   6.929 -0.2666 -0.2762  0.0776
   51MOL0     C 6755   3.109   4.848   7.026  0.0339  0.5010  0.4298
   51MOL0     C 6756   3.229   4.842   7.105  0.7378  0.9313 -0.2609
   51MOL0     C 6757   3.338   4.759   7.075 -0.2893 -0.3043 -0.5380
   51MOL0     O 6758   3.453   4.774   7.148 -0.3358 -0.0886  0.3647
   51MOL0     C 6759   3.531   4.655   7.184  0.4341 -0.1634 -0.3436
   51MOL0     C 6760   3.662   4.671   7.102  0.3125  1.3723  0.3975
   51MOL0     C 6761   3.747   4.546   7.108 -0.0201  0.1095 -0.0186
   51MOL0     C 6762   3.865   4.540   7.009 -0.8421  0.1763 -0.0835
   51MOL0     C 6763   3.965   4.414   7.017 -0.2639 -0.7425 -0.4514
   51MOL0     C 6764   4.077   4.401   6.913  0.2948  0.3663 -0.6411
   51MOL0     C 6765   4.172   4.521   6.920  0.1784 -0.6040 -0.6633
   51MOL0     C 6766   4.206   4.553   7.066 -0.2402  0.6212  0.0446
   51MOL0     N 6767   4.322   4.642   7.060  0.6263 -0.7237  0.3008
   51MOL0     C 6768   4.367   4.729   7.163  0.1157  0.1670  0.8781
   51MOL0     C 6769   4.485   4.776   7.120 -0.2925  0.5038 -0.5441
   51MOL0     C 6770   4.582   4.882   7.169  0.1572  0.4091  0.1587
   51MOL0     C 6771   4.678   4.837   7.279  0.6183 -0.3285 -0.5380
   51MOL0     C 6772   4.758   4.713   7.259 -0.5408 -0.0322  0.0865
   51MOL0     C 6773   4.885   4.691   7.338 -0.1325  0.1442  0.3396
   51MOL0     O 6774   4.937   4.560   7.320  0.6693  0.3368  0.1393
   51MOL0     C 6775   5.013   4.534   7.206 -0.1664 -0.1656 -0.2034
   51MOL0     C 6776   5.069   4.625   7.112  1.4325 -0.6527  0.9512
   51MOL0     C 6777   5.139   4.585   7.001  0.2350  0.5651 -0.2113
   51MOL0     C 6778   5.175   4.693   6.898 -0.1602  0.0422  0.4361
   51MOL0     C 6779   5.184   4.454   6.999  0.3611 -0.8354 -0.4264
   51MOL0     C 6780   5.286   4.412   6.906  0.1246 -0.4193  1.0387
   51MOL0     O 6781   5.408   4.483   6.914 -0.0285 -0.7162  0.7085
   51MOL0     C 6782   5.480   4.499   6.791 -1.4958  0.0479  0.2303
   51MOL0     C 6783   5.448   4.454   6.665 -0.5639  0.7743 -0.4174
   51MOL0     C 6784   5.537   4.445   6.562 -0.0976  0.2317 -0.3293
   51MOL0     C 6785   5.671   4.488   6.585  0.3740 -0.6498  0.2855
   51MOL0     O 6786   5.768   4.495   6.491 -0.8152  0.0333 -0.4103
   51MOL0     C 6787   5.729   4.507   6.352 -0.1519  0.1689 -0.1526
   51MOL0     C 6788   5.681   4.647   6.309  0.2364 -0.2868 -0.2520
   51MOL0     C 6789   5.556   4.653   6.225  0.2168  0.2146 -0.8188
   51MOL0     C 6790   5.519   4.787   6.154  0.4793  0.0738  0.4887
   51MOL0     C 6791   5.383   4.788   6.099  0.0484 -0.1619  1.3822
   51MOL0     C 6792   5.350   4.910   6.005 -0.0947 -0.1722  0.3147
   51MOL0     C 6793   5.201   4.908   5.957  0.2673 -0.1565  0.7159
   51MOL0     C 6794   5.169   5.036   5.888  0.0954 -0.0163  1.0978
   51MOL0    Cl 6795   5.226   5.183   5.981  0.2499 -0.3096  0.4334
   51MOL0     C 6796   5.708   4.527   6.708  0.0698 -0.8457 -0.1205
   51MOL0     C 6797   5.613   4.539   6.813  0.5173 -0.6629 -1.0779
   51MOL0     O 6798   5.260   4.324   6.824 -0.0487 -0.2372 -0.7198
   51MOL0     C 6799   5.138   4.358   7.097 -0.2124 -0.1896  0.7945
   51MOL0     C 6800   5.066   4.402   7.196 -0.2658  0.1326 -1.3495
   51MOL0     N 6801   4.510   4.723   6.998 -0.5100 -0.4797 -0.2611
   51MOL0     N 6802   4.413   4.658   6.966 -0.3643 -0.2705  0.0970
   51MOL0     C 6803   3.324   4.664   6.974  0.9947  1.6140 -0.0316
   51MOL0     C 6804   3.197   4.654   6.908 -0.6428  0.9470 -0.9831
   51MOL0     C 6805   2.847   4.743   6.671 -0.1420 -0.4253  0.8937
   51MOL0     C 6806   2.783   4.826   6.570 -0.2232 -0.2667  0.2419
   51MOL0     C 6807   2.684   4.789   6.482 -0.1463  0.2175 -0.6770
   51MOL0     C 6808   2.638   4.660   6.491  0.4530 -0.7586  1.1374
   51MOL0     O 6809   2.535   4.637   6.404 -0.4662  0.3584 -0.1415
   51MOL0     C 6810   2.488   4.498   6.390 -0.4371 -0.4252 -0.3675
   51MOL0     C 6811   2.589   4.417   6.311  0.1157 -0.2123  0.4450
   51MOL0     C 6812   2.576   4.268   6.305  0.2508 -0.6248 -0.4099
   51MOL0     C 6813   2.460   4.218   6.219 -0.3977  0.4116 -0.1208
   51MOL0     C 6814   2.473   4.070   6.216 -0.4720 -0.3397 -0.2178
   51MOL0     C 6815   2.480   3.953   6.235  0.3915  0.2867  0.9609
   51MOL0     C 6816   2.697   4.575   6.588  0.3201  0.3252 -1.0768
   51MOL0     C 6817   2.799   4.620   6.680  0.0586  1.0802 -0.2172
   51MOL0     H 6818   3.029   4.917   7.049  2.2682  3.0397  1.0657
   51MOL0     H 6819   3.242   4.895   7.199  2.5803 -0.3572  0.2799
   51MOL0     H 6820   3.559   4.664   7.289 -2.1016  2.8184  0.2184
   51MOL0     H 6821   3.482   4.561   7.156 -0.5496  0.4025 -0.5569
   51MOL0     H 6822   3.638   4.681   6.996  2.8616 -2.2766 -0.7028
   51MOL0     H 6823   3.725   4.746   7.151  1.8157 -0.1355  0.8651
   51MOL0     H 6824   3.784   4.547   7.211  0.9634 -4.0927 -0.1570
   51MOL0     H 6825   3.688   4.454   7.098  1.1044 -0.5163 -1.0906
   51MOL0     H 6826   3.826   4.537   6.907 -1.1192 -6.7717 -0.2817
   51MOL0     H 6827   3.922   4.633   7.018  1.4054 -1.1513  0.3017
   51MOL0     H 6828   4.005   4.407   7.119  0.0292  0.3618 -0.4742
   51MOL0     H 6829   3.906   4.322   7.016  2.2160 -2.4443 -1.2146
   51MOL0     H 6830   4.123   4.302   6.921 -0.2554  0.0528 -1.3179
   51MOL0     H 6831   4.031   4.397   6.814 -0.4194 -0.3757 -0.2890
   51MOL0     H 6832   4.261   4.490   6.865  0.6293  0.3662 -0.5006
   51MOL0     H 6833   4.124   4.609   6.875  0.0861  1.0477  2.3911
   51MOL0     H 6834   4.222   4.455   7.112  1.8183  0.0380 -1.7238
   51MOL0     H 6835   4.124   4.592   7.126 -0.3773  1.3212 -0.5844
   51MOL0     H 6836   4.311   4.765   7.249 -1.0251  4.6454 -1.3927
   51MOL0     H 6837   4.647   4.913   7.086  1.0643 -0.5321  0.4959
   51MOL0     H 6838   4.524   4.970   7.200 -2.4365 -1.5740  1.2739
   51MOL0     H 6839   4.623   4.832   7.373  0.2157 -1.1855 -0.8066
   51MOL0     H 6840   4.763   4.903   7.298  1.1507 -0.9377 -0.7711
   51MOL0     H 6841   4.794   4.725   7.157 -3.7431  1.2426 -1.0157
   51MOL0     H 6842   4.703   4.619   7.262  1.7622 -1.4542 -0.0431
   51MOL0     H 6843   4.857   4.707   7.443 -0.7366  0.7869  0.0873
   51MOL0     H 6844   4.960   4.768   7.317 -0.5250  0.4220 -0.0761
   51MOL0     H 6845   5.041   4.729   7.118 -0.7244 -1.1535  0.3683
   51MOL0     H 6846   5.283   4.709   6.898 -0.0656 -0.2277  2.7098
   51MOL0     H 6847   5.152   4.647   6.802 -0.0348 -0.9859  0.8932
   51MOL0     H 6848   5.126   4.788   6.921 -0.4311 -0.2803  1.2167
   51MOL0     H 6849   5.346   4.430   6.637 -0.0519 -1.8513 -0.2708
   51MOL0     H 6850   5.497   4.412   6.467 -2.0616  0.3729  0.4040
   51MOL0     H 6851   5.828   4.491   6.307  0.3651  2.8814 -0.1758
   51MOL0     H 6852   5.668   4.423   6.318 -0.5010 -0.7100  2.4257
   51MOL0     H 6853   5.651   4.702   6.399 -1.5625  0.2792 -1.1584
   51MOL0     H 6854   5.760   4.711   6.270  2.0936 -1.1561  1.7978
   51MOL0     H 6855   5.469   4.627   6.287  1.2278 -0.4169  0.3676
   51MOL0     H 6856   5.576   4.581   6.146  1.6911 -1.8409  1.3044
   51MOL0     H 6857   5.527   4.862   6.234 -2.1207 -1.0157  1.9049
   51MOL0     H 6858   5.587   4.812   6.072  1.8093  1.7316  2.0073
   51MOL0     H 6859   5.307   4.799   6.176 -1.6222 -0.9553 -0.0768
   51MOL0     H 6860   5.373   4.691   6.050 -0.8026 -1.2306  3.5856
   51MOL0     H 6861   5.372   4.996   6.068  1.5266 -1.1999  1.2489
   51MOL0     H 6862   5.412   4.916   5.914 -2.6836 -3.7851 -1.9835
   51MOL0     H 6863   5.139   4.905   6.047 -0.1651 -0.4429  0.4110
   51MOL0     H 6864   5.171   4.822   5.898 -3.2640  1.1605  0.3719
   51MOL0     H 6865   5.063   5.046   5.862  0.8462 -0.3972 -2.6119
   51MOL0     H 6866   5.229   5.043   5.797  1.8466  0.4202  2.2407
   51MOL0     H 6867   5.810   4.561   6.715 -0.0679  0.9435 -4.2475
   51MOL0     H 6868   5.648   4.562   6.913  0.7520 -1.4141 -0.9783
   51MOL0     H 6869   5.176   4.257   7.085 -2.1633 -0.9601  0.7877
   51MOL0     H 6870   5.038   4.328   7.271 -1.2308 -0.1789 -1.9978
   51MOL0     H 6871   3.393   4.582   6.961 -0.2980  0.6215 -1.0279
   51MOL0     H 6872   3.191   4.572   6.837  0.7906 -1.3199  1.3827
   51MOL0     H 6873   2.817   4.929   6.572 -1.1791  0.0485  0.8748
   51MOL0     H 6874   2.645   4.843   6.396 -2.7024 -0.4793 -0.0312
   51MOL0     H 6875   2.462   4.449   6.485  0.1302 -1.2801 -0.6407
   51MOL0     H 6876   2.399   4.501   6.327 -0.1210  2.4747 -0.8085
   51MOL0     H 6877   2.686   4.428   6.360  0.3222  1.6154 -0.2550
   51MOL0     H 6878   2.596   4.456   6.209  0.8084  1.7745  1.2057
   51MOL0     H 6879   2.569   4.226   6.406 -0.8758 -0.0126 -0.2077
   51MOL0     H 6880   2.661   4.232   6.247  0.3236  1.2400 -1.5341
   51MOL0     H 6881   2.477   4.255   6.118 -1.4637 -3.7738 -2.0386
   51MOL0     H 6882   2.364   4.256   6.257 -0.4456  0.6173 -0.4400
   51MOL0     H 6883   2.472   3.856   6.280  1.5636 -1.0736 -1.5533
   51MOL0     H 6884   2.666   4.472   6.599  0.6861  0.2518 -0.7070
   51MOL0     H 6885   2.854   4.552   6.745 -1.0131 -0.5750 -0.9778
   52MOL0     O 6886   3.516   1.930  10.734 -0.4762 -0.2217 -0.3683
   52MOL0     C 6887   3.467   1.925  10.851 -0.8329  0.0034  0.2951
   52MOL0     O 6888   3.547   1.931  10.965  0.4558  0.1186  0.8418
   52MOL0     C 6889   3.682   1.950  10.965  1.0837  0.7887 -0.1077
   52MOL0     C 6890   3.765   1.890  10.877 -0.3957 -0.7116 -0.6681
   52MOL0     C 6891   3.902   1.873  10.910  0.8149 -0.4489 -0.7523
   52MOL0     C 6892   3.948   1.933  11.029  0.2775 -0.5927  0.4149
   52MOL0     O 6893   4.077   1.912  11.066 -0.2528 -0.2101 -0.2817
   52MOL0     C 6894   4.175   1.987  10.991  0.5518  0.0743  0.0046
   52MOL0     C 6895   4.302   2.003  11.075 -0.0974  0.4297 -0.2071
   52MOL0     C 6896   4.270   2.092  11.205 -1.6623  0.3469  0.1697
   52MOL0     C 6897   4.344   2.042  11.325 -0.5909  0.0888 -0.8239
   52MOL0     C 6898   4.301   1.899  11.384  0.3176 -0.6894  0.6031
   52MOL0     C 6899   4.163   1.901  11.446 -0.0639  0.0893  0.5383
   52MOL0     C 6900   4.149   1.778  11.545 -0.0761 -0.8560  0.0734
   52MOL0     C 6901   4.006   1.754  11.594 -0.0890  0.8371  0.3830
   52MOL0     N 6902   3.953   1.874  11.637  0.6784 -0.5899  0.3995
   52MOL0     C 6903   4.006   1.972  11.732 -0.4767  0.1899  1.0051
   52MOL0     C 6904   3.924   2.082  11.716  0.6591  0.1544 -0.0988
   52MOL0     C 6905   3.917   2.217  11.790 -0.4171  0.5643 -0.0023
   52MOL0     C 6906   3.804   2.307  11.750  0.4118 -0.3607 -0.5391
   52MOL0     C 6907   3.835   2.436  11.812  0.3986  0.0465  0.4680
   52MOL0     C 6908   3.719   2.532  11.785 -0.2902  0.3851 -0.1535
   52MOL0     O 6909   3.591   2.479  11.817 -0.2143 -0.4228 -0.7907
   52MOL0     C 6910   3.540   2.498  11.945  0.2955  1.0537 -0.2769
   52MOL0     C 6911   3.411   2.454  11.956 -0.2672  0.2317  0.1652
   52MOL0     C 6912   3.338   2.456  12.078 -0.1042  0.6367 -0.0198
   52MOL0     C 6913   3.193   2.400  12.083 -0.2355 -0.5041  0.5856
   52MOL0     C 6914   3.401   2.508  12.192 -0.6744 -0.2575 -0.0763
   52MOL0     C 6915   3.327   2.529  12.320  0.0950  0.7084 -0.0936
   52MOL0     O 6916   3.197   2.554  12.325  0.4287  0.5741 -0.2055
   52MOL0     C 6917   3.120   2.538  12.440 -0.2261 -0.0517  0.3146
   52MOL0     C 6918   3.144   2.441  12.540 -0.3080  0.8997 -0.7987
   52MOL0     C 6919   3.045   2.440  12.645 -1.0024 -0.3485 -0.0365
   52MOL0     C 6920   2.947   2.541  12.660 -0.0570  1.0708  0.1798
   52MOL0     O 6921   2.874   2.544  12.772  0.1841 -0.1131 -0.5720
   52MOL0     C 6922   2.727   2.544  12.760 -0.1190 -0.0335 -0.5125
   52MOL0     C 6923   2.662   2.435  12.854  0.2105 -0.4645  0.1680
   52MOL0     C 6924   2.512   2.431  12.840 -0.4436 -0.2133 -0.4656
   52MOL0     C 6925   2.450   2.334  12.933 -0.0711  0.1675  0.0749
   52MOL0     C 6926   2.293   2.352  12.914 -0.0250 -0.3567 -0.6084
   52MOL0     C 6927   2.238   2.282  13.036  0.4221  1.8616  0.2377
   52MOL0     C 6928   2.089   2.324  13.041 -0.3417  0.3910 -0.1191
   52MOL0     C 6929   2.028   2.270  13.173 -0.0760  0.0732  0.4833
   52MOL0    Cl 6930   2.017   2.092  13.165 -0.2305  0.0213  0.8391
   52MOL0     C 6931   2.926   2.631  12.553  0.0361 -0.8080  0.8751
   52MOL0     C 6932   3.010   2.626  12.447 -0.8152  0.1085  0.6694
   52MOL0     O 6933   3.402   2.522  12.419  0.1859  0.0161 -0.5240
   52MOL0     C 6934   3.537   2.542  12.187 -0.0363  0.3426 -0.6937
   52MOL0     C 6935   3.590   2.544  12.062 -0.1207  1.1254 -0.6604
   52MOL0     N 6936   3.826   2.054  11.621  0.1254  0.5452 -0.4804
   52MOL0     N 6937   3.858   1.940  11.563  0.5139 -0.5028  0.3938
   52MOL0     C 6938   3.864   2.003  11.112  0.2586 -0.3398 -1.5050
   52MOL0     C 6939   3.730   2.005  11.083  0.3184 -0.0639 -0.5324
   52MOL0     C 6940   3.319   1.915  10.850 -0.4983  0.2089 -0.0705
   52MOL0     C 6941   3.248   1.967  10.953  0.3400  0.0492  0.4843
   52MOL0     C 6942   3.114   1.978  10.938  0.3206  0.4039 -0.0645
   52MOL0     C 6943   3.048   1.940  10.827  1.0102 -0.0136  0.4792
   52MOL0     O 6944   2.921   1.963  10.789 -0.0441 -0.0197  0.1216
   52MOL0     C 6945   2.820   2.043  10.857  0.1588  0.7772 -0.3649
   52MOL0     C 6946   2.725   2.108  10.753 -0.1477  0.6215 -0.5018
   52MOL0     C 6947   2.775   2.221  10.667 -0.3998 -0.8943  0.2714
   52MOL0     C 6948   2.694   2.258  10.533 -0.1096  0.2072 -0.4522
   52MOL0     C 6949   2.564   2.314  10.565  0.2039  0.1899 -0.9487
   52MOL0     C 6950   2.468   2.381  10.597  0.1941 -0.4133 -0.0401
   52MOL0     C 6951   3.111   1.855  10.734 -0.8512 -0.2807  0.1462
   52MOL0     C 6952   3.250   1.851  10.744 -0.3232  1.1656  0.0071
   52MOL0     H 6953   3.737   1.833  10.789  0.3786  2.2870 -3.0274
   52MOL0     H 6954   3.964   1.832  10.831 -3.3995  0.3901 -4.9431
   52MOL0     H 6955   4.197   1.941  10.894 -0.5796  0.1897 -0.3175
   52MOL0     H 6956   4.138   2.090  10.980  1.0049  0.2588  0.1695
   52MOL0     H 6957   4.331   1.902  11.105 -0.8367  0.1249 -0.4873
   52MOL0     H 6958   4.372   2.060  11.013 -1.5526  3.2311  0.5351
   52MOL0     H 6959   4.309   2.194  11.192  0.4158 -0.2354  1.4182
   52MOL0     H 6960   4.164   2.087  11.232 -2.0217  1.4308 -0.9385
   52MOL0     H 6961   4.449   2.044  11.294  0.3295  2.1611  2.0234
   52MOL0     H 6962   4.336   2.116  11.405 -1.4497 -0.9380  0.0533
   52MOL0     H 6963   4.311   1.821  11.307 -0.2977  0.9391 -1.1911
   52MOL0     H 6964   4.368   1.878  11.468 -1.0453 -1.2169  1.6051
   52MOL0     H 6965   4.139   2.002  11.483 -2.4345 -0.2157 -0.0284
   52MOL0     H 6966   4.103   1.874  11.359  1.0866 -2.7010  0.5174
   52MOL0     H 6967   4.192   1.692  11.492  0.6601  0.0926 -0.9088
   52MOL0     H 6968   4.211   1.806  11.630 -0.2853 -0.0006 -0.0495
   52MOL0     H 6969   4.010   1.689  11.682  2.2973 -0.5586 -0.6415
   52MOL0     H 6970   3.934   1.710  11.525 -2.0016  1.0992  2.1019
   52MOL0     H 6971   4.084   1.959  11.806  0.3623  2.1263  0.5069
   52MOL0     H 6972   3.916   2.194  11.897  1.1835 -1.2410 -0.3232
   52MOL0     H 6973   4.016   2.262  11.786  1.3874 -2.8551  1.6189
   52MOL0     H 6974   3.711   2.263  11.786  1.5905 -1.4494  1.3810
   52MOL0     H 6975   3.796   2.312  11.641  2.7400  0.5273 -0.7403
   52MOL0     H 6976   3.923   2.490  11.776  0.0532  0.7792  0.6991
   52MOL0     H 6977   3.851   2.411  11.917  2.0756  0.9288  0.4726
   52MOL0     H 6978   3.722   2.562  11.680  0.9753  0.5970 -0.0741
   52MOL0     H 6979   3.730   2.621  11.848 -2.3987 -0.8529  2.1401
   52MOL0     H 6980   3.364   2.414  11.867 -2.2070  0.5010  1.0254
   52MOL0     H 6981   3.159   2.383  11.981 -2.3000  0.3842  1.0846
   52MOL0     H 6982   3.195   2.303  12.136  1.0519 -0.4401  0.6986
   52MOL0     H 6983   3.127   2.467  12.138  1.6230  1.2281  0.8291
   52MOL0     H 6984   3.223   2.367  12.541 -0.0262  1.1838 -1.6882
   52MOL0     H 6985   3.064   2.363  12.719  0.9690  0.6766  0.5854
   52MOL0     H 6986   2.684   2.644  12.776  0.9874  0.4878 -0.6457
   52MOL0     H 6987   2.698   2.519  12.658 -1.1437  3.1026 -1.1116
   52MOL0     H 6988   2.684   2.339  12.807 -0.0831  0.0503 -1.0432
   52MOL0     H 6989   2.703   2.432  12.956 -1.1771  1.9386  0.8861
   52MOL0     H 6990   2.475   2.422  12.738  1.0796 -0.0064 -1.0588
   52MOL0     H 6991   2.469   2.521  12.886 -0.4125  0.6877 -2.1309
   52MOL0     H 6992   2.476   2.233  12.901 -0.2603  0.6726 -1.7683
   52MOL0     H 6993   2.483   2.356  13.035  1.0210 -0.4190 -0.1426
   52MOL0     H 6994   2.268   2.305  12.818  0.1882 -2.8463  0.4666
   52MOL0     H 6995   2.257   2.455  12.906  3.1278  1.3826  3.8682
   52MOL0     H 6996   2.263   2.178  13.013  0.4755  2.3239 -2.0978
   52MOL0     H 6997   2.273   2.314  13.135 -0.8867  0.3061  1.2555
   52MOL0     H 6998   2.035   2.294  12.950  0.3516 -1.1978 -0.0288
   52MOL0     H 6999   2.085   2.433  13.048 -0.5663  0.8393 -4.4364
   52MOL0     H 7000   1.935   2.324  13.193  0.0505  1.0491 -1.3449
   52MOL0     H 7001   2.100   2.295  13.251  1.4852  2.0408 -1.4820
   52MOL0     H 7002   2.838   2.694  12.557  0.6342  0.4006 -2.2772
   52MOL0     H 7003   2.998   2.703  12.371 -3.2389 -1.2649 -0.4887
   52MOL0     H 7004   3.603   2.566  12.269 -2.0732  0.2086  1.0692
   52MOL0     H 7005   3.699   2.552  12.065 -0.0228 -0.2228 -0.1380
   52MOL0     H 7006   3.895   2.062  11.197 -3.8972 -0.4118  0.3019
   52MOL0     H 7007   3.675   2.075  11.146 -0.9578 -2.0826  0.6994
   52MOL0     H 7008   3.298   2.019  11.035  2.2670 -1.8840  0.6271
   52MOL0     H 7009   3.052   2.047  10.995 -1.0782 -0.6820 -0.1909
   52MOL0     H 7010   2.754   1.972  10.908  0.7922 -1.2388 -2.1529
   52MOL0     H 7011   2.859   2.120  10.924 -3.4515 -1.0211  4.3145
   52MOL0     H 7012   2.632   2.136  10.804 -0.1733  1.0929 -0.7982
   52MOL0     H 7013   2.686   2.030  10.687  1.8750 -1.6961  0.8590
   52MOL0     H 7014   2.880   2.216  10.638 -0.9262  0.3260 -2.0410
   52MOL0     H 7015   2.766   2.309  10.733  1.1606 -0.5405  0.0634
   52MOL0     H 7016   2.694   2.176  10.461 -0.8676 -0.8315  0.7006
   52MOL0     H 7017   2.760   2.339  10.499  1.3402 -1.7784 -2.6615
   52MOL0     H 7018   2.379   2.435  10.623 -1.1897 -2.0311 -1.2141
   52MOL0     H 7019   3.065   1.818  10.643  0.1974  2.2530 -1.5401
   52MOL0     H 7020   3.317   1.798  10.677 -0.1235 -0.3514  1.3544
   53MOL0     O 7021   5.131   8.669   3.277 -0.1594 -0.0031 -0.7944
   53MOL0     C 7022   5.211   8.593   3.325  0.7782 -1.0159 -0.1653
   53MOL0     O 7023   5.210   8.550   3.458  0.6444 -0.6214  0.3880
   53MOL0     C 7024   5.118   8.601   3.538  0.2157 -0.6398  0.2630
   53MOL0     C 7025   4.986   8.546   3.536 -0.4968 -0.6337  0.2032
   53MOL0     C 7026   4.886   8.600   3.613  0.4505  0.0218 -0.0914
   53MOL0     C 7027   4.911   8.696   3.714 -0.1391  0.0862 -0.6725
   53MOL0     O 7028   4.801   8.731   3.785  0.0569  0.0506  0.3544
   53MOL0     C 7029   4.815   8.850   3.872  0.3875  0.9231  0.4326
   53MOL0     C 7030   4.683   8.862   3.949  0.8332  0.4170  0.6084
   53MOL0     C 7031   4.669   9.000   4.009 -0.4615 -0.1440  0.2126
   53MOL0     C 7032   4.532   9.025   4.066  1.0769  0.1058 -0.1584
   53MOL0     C 7033   4.525   9.174   4.099  0.9366 -0.0894  0.1701
   53MOL0     C 7034   4.392   9.193   4.177 -0.0470 -0.9239  0.0313
   53MOL0     C 7035   4.387   9.335   4.232 -0.3925 -0.0202  0.1089
   53MOL0     C 7036   4.239   9.371   4.265  0.3989  0.0021  0.8255
   53MOL0     N 7037   4.225   9.501   4.332  0.2529  0.6364  0.2208
   53MOL0     C 7038   4.264   9.628   4.282 -0.6449 -0.3112 -0.4474
   53MOL0     C 7039   4.195   9.719   4.351 -0.2401 -0.2443  0.8139
   53MOL0     C 7040   4.221   9.869   4.323 -0.6990 -0.1624  0.9752
   53MOL0     C 7041   4.106   9.948   4.354  0.1095  0.3907  0.3379
   53MOL0     C 7042   4.126  10.098   4.338 -0.7002  0.3623 -0.3916
   53MOL0     C 7043   4.004  10.158   4.267  1.2397 -0.2135 -0.5193
   53MOL0     O 7044   4.016  10.292   4.225 -0.2138  0.6224 -1.0553
   53MOL0     C 7045   3.929  10.395   4.253  0.9419  0.4537 -0.9196
   53MOL0     C 7046   3.977  10.523   4.234 -1.2225 -0.2885 -0.3130
   53MOL0     C 7047   3.904  10.650   4.245  0.3093  0.2045 -0.8030
   53MOL0     C 7048   3.997  10.772   4.232 -0.1937 -0.0733 -0.4873
   53MOL0     C 7049   3.771  10.637   4.297  0.7449  0.3035  0.4995
   53MOL0     C 7050   3.675  10.738   4.340  0.6134 -1.2449  0.6809
   53MOL0     O 7051   3.547  10.700   4.360  0.1995 -0.3522 -0.3750
   53MOL0     C 7052   3.465  10.784   4.428  0.1875  0.2633  0.3429
   53MOL0     C 7053   3.445  10.749   4.560 -1.0748 -0.4131 -0.9409
   53MOL0     C 7054   3.365  10.835   4.635 -1.1295  0.6452  0.3806
   53MOL0     C 7055   3.305  10.950   4.581 -0.2470 -1.1684 -0.2079
   53MOL0     O 7056   3.237  11.043   4.658  0.1067 -0.0004  0.8983
   53MOL0     C 7057   3.242  11.177   4.623  0.6550  0.0666  1.2354
   53MOL0     C 7058   3.253  11.267   4.738 -0.2323 -0.2168 -0.2826
   53MOL0     C 7059   3.365  11.250   4.842 -0.3875 -0.0486  0.4475
   53MOL0     C 7060   3.511  11.255   4.791  0.0395 -0.6702 -0.1913
   53MOL0     C 7061   3.614  11.200   4.889 -0.2038 -0.5291  0.4202
   53MOL0     C 7062   3.749  11.164   4.823 -0.5627 -1.0028  0.0414
   53MOL0     C 7063   3.847  11.108   4.920 -1.0683 -0.2537 -0.7049
   53MOL0     C 7064   3.978  11.055   4.853  0.8450 -0.0111  0.1059
   53MOL0    Cl 7065   4.060  10.976   4.999 -0.6373  0.5295  0.0668
   53MOL0     C 7066   3.317  10.970   4.438 -0.3764 -1.4345  0.2025
   53MOL0     C 7067   3.395  10.883   4.358 -0.1725 -0.1961  0.1026
   53MOL0     O 7068   3.719  10.850   4.352 -0.5821 -0.8156 -0.1259
   53MOL0     C 7069   3.720  10.501   4.304 -0.6513 -0.6080 -0.7056
   53MOL0     C 7070   3.793  10.386   4.281 -0.3919 -0.2821 -0.5393
   53MOL0     N 7071   4.113   9.655   4.444  0.3878  0.5802  0.3088
   53MOL0     N 7072   4.135   9.521   4.435 -0.4131  0.0998  0.4315
   53MOL0     C 7073   5.049   8.736   3.733  0.6821  0.1473 -0.2878
   53MOL0     C 7074   5.147   8.685   3.643 -0.1994  0.8422 -0.5451
   53MOL0     C 7075   5.330   8.569   3.244  0.4730  0.2893 -0.0057
   53MOL0     C 7076   5.341   8.601   3.109  0.9271  1.0437  0.4892
   53MOL0     C 7077   5.454   8.577   3.034  0.5223  0.3986  1.0117
   53MOL0     C 7078   5.555   8.505   3.085  0.3437 -0.4954  0.4073
   53MOL0     O 7079   5.669   8.504   3.002 -0.1533 -0.9891  0.5219
   53MOL0     C 7080   5.777   8.438   3.052 -0.1649  0.2155 -0.1028
   53MOL0     C 7081   5.876   8.541   3.094 -0.2176 -0.8111 -0.6846
   53MOL0     C 7082   5.984   8.490   3.194  0.0614  0.7901  0.9356
   53MOL0     C 7083   6.118   8.550   3.162  0.7248 -0.6569  0.2604
   53MOL0     C 7084   6.205   8.513   3.269 -0.2043  1.0554  0.3490
   53MOL0     C 7085   6.296   8.477   3.350  0.6751 -0.2846  0.3910
   53MOL0     C 7086   5.545   8.455   3.218 -0.1699  0.6302 -0.4690
   53MOL0     C 7087   5.432   8.489   3.298 -0.4886 -0.7776  0.3200
   53MOL0     H 7088   4.951   8.471   3.466 -3.0212 -1.3444  2.0567
   53MOL0     H 7089   4.787   8.559   3.594  0.4053  1.1141 -2.5850
   53MOL0     H 7090   4.904   8.837   3.935  1.4518  0.2746 -1.1339
   53MOL0     H 7091   4.835   8.936   3.808 -1.8978 -1.8942 -4.6337
   53MOL0     H 7092   4.604   8.860   3.873  1.2401 -0.9583  0.1934
   53MOL0     H 7093   4.674   8.788   4.029  0.7178  0.6053  0.7705
   53MOL0     H 7094   4.746   9.006   4.087  1.6254  3.1401 -1.8959
   53MOL0     H 7095   4.694   9.072   3.931 -1.6731  0.2180  0.1427
   53MOL0     H 7096   4.465   9.012   3.980  2.9008 -1.1356 -1.4783
   53MOL0     H 7097   4.513   8.954   4.147  0.6567 -1.9485 -1.9387
   53MOL0     H 7098   4.612   9.216   4.150  0.8504 -0.3395  0.5254
   53MOL0     H 7099   4.513   9.231   4.006  0.5192  3.3111  2.1232
   53MOL0     H 7100   4.304   9.158   4.122  0.3685 -3.1290  0.6713
   53MOL0     H 7101   4.381   9.140   4.272  0.1833  1.8827  1.7438
   53MOL0     H 7102   4.442   9.347   4.326  0.4918 -0.9448 -0.2817
   53MOL0     H 7103   4.427   9.409   4.162  1.4645  0.5513  1.6846
   53MOL0     H 7104   4.212   9.292   4.336 -2.0243  0.1534  0.1638
   53MOL0     H 7105   4.179   9.356   4.174  0.2560 -2.3577  1.2352
   53MOL0     H 7106   4.336   9.639   4.201 -0.5548 -0.4916 -0.3935
   53MOL0     H 7107   4.307   9.886   4.389  0.4536 -2.8937  0.3060
   53MOL0     H 7108   4.253   9.881   4.219 -2.9088 -2.4669 -0.0690
   53MOL0     H 7109   4.071   9.919   4.454  6.0965 -0.5663  2.5782
   53MOL0     H 7110   4.031   9.904   4.287  0.0991  0.7319  0.1260
   53MOL0     H 7111   4.212  10.109   4.271 -0.7035  0.5893 -0.3606
   53MOL0     H 7112   4.147  10.152   4.431 -0.5545  0.5975 -0.5596
   53MOL0     H 7113   3.921  10.151   4.338 -0.1254 -0.3430 -2.0705
   53MOL0     H 7114   3.989  10.086   4.186 -0.9247 -2.8739  2.0199
   53MOL0     H 7115   4.082  10.531   4.205 -1.2086 -0.0608 -0.2091
   53MOL0     H 7116   4.094  10.739   4.270 -1.2121  1.9263  4.6531
   53MOL0     H 7117   4.007  10.796   4.125  2.3448  0.4564 -0.2070
   53MOL0     H 7118   3.964  10.855   4.295 -0.6669 -2.5212  2.7509
   53MOL0     H 7119   3.507  10.673   4.606 -1.3886 -1.0261 -1.5066
   53MOL0     H 7120   3.355  10.811   4.740  1.6971  0.0180  0.5792
   53MOL0     H 7121   3.326  11.199   4.556  0.3385 -1.6447  0.2234
   53MOL0     H 7122   3.145  11.192   4.574  0.7998 -0.2126  0.8586
   53MOL0     H 7123   3.269  11.369   4.703 -1.1049  0.2161  0.5076
   53MOL0     H 7124   3.160  11.279   4.796  0.6903 -0.6050  1.3456
   53MOL0     H 7125   3.354  11.163   4.907  0.1560 -1.2181 -0.9756
   53MOL0     H 7126   3.369  11.335   4.911  1.2813 -0.7108  1.2254
   53MOL0     H 7127   3.518  11.212   4.691  0.2434  0.4739 -0.6869
   53MOL0     H 7128   3.524  11.361   4.764 -1.4953 -1.0691 -2.8153
   53MOL0     H 7129   3.578  11.114   4.946  0.6438 -1.0752  0.1343
   53MOL0     H 7130   3.640  11.276   4.964 -1.7857 -0.8500  1.3373
   53MOL0     H 7131   3.723  11.103   4.736 -0.5748  0.5484 -1.0769
   53MOL0     H 7132   3.794  11.252   4.776  1.2617 -1.6501  0.4870
   53MOL0     H 7133   3.808  11.021   4.974 -0.5713  0.2145  0.4481
   53MOL0     H 7134   3.892  11.180   4.990 -0.4097  0.3531 -1.7298
   53MOL0     H 7135   4.043  11.131   4.808 -0.2921  1.4127  0.7627
   53MOL0     H 7136   3.946  10.974   4.787 -2.5418 -1.1506  2.8169
   53MOL0     H 7137   3.273  11.057   4.391  0.4751 -0.3071  1.4049
   53MOL0     H 7138   3.412  10.905   4.253 -0.3663  0.0591  0.1235
   53MOL0     H 7139   3.614  10.481   4.316 -0.1861 -1.6689  2.7933
   53MOL0     H 7140   3.740  10.291   4.276 -0.0557 -0.4705 -0.5277
   53MOL0     H 7141   5.074   8.814   3.804 -2.3504  0.1441  0.9023
   53MOL0     H 7142   5.250   8.710   3.664 -0.5431  1.0277  1.0292
   53MOL0     H 7143   5.262   8.660   3.062 -0.2952  0.8761  2.2379
   53MOL0     H 7144   5.456   8.628   2.938 -0.2509 -0.5990  0.4585
   53MOL0     H 7145   5.746   8.381   3.140 -3.4748  0.6403 -0.8527
   53MOL0     H 7146   5.813   8.364   2.980 -2.7744 -1.2068 -0.0895
   53MOL0     H 7147   5.816   8.622   3.137  1.5366  0.2325 -0.0867
   53MOL0     H 7148   5.921   8.599   3.013  0.4401  3.0301  2.1208
   53MOL0     H 7149   5.987   8.382   3.180  2.5768  1.0604 -1.3203
   53MOL0     H 7150   5.955   8.529   3.292  2.8315  2.1195  1.3161
   53MOL0     H 7151   6.106   8.657   3.142 -0.0228 -0.7035  0.4203
   53MOL0     H 7152   6.157   8.501   3.072  0.3706 -5.2848  2.3682
   53MOL0     H 7153   6.375   8.436   3.408 -0.6626 -1.3578  1.5178
   53MOL0     H 7154   5.607   8.386   3.274 -3.2604 -1.7299  0.2832
   53MOL0     H 7155   5.426   8.454   3.401 -2.2302  1.6010  1.1055
   54MOL0     O 7156   0.552   3.707   8.046 -0.7874  0.1926  0.9920
   54MOL0     C 7157   0.482   3.809   8.046 -0.7401 -0.6441  0.7363
   54MOL0     O 7158   0.494   3.910   7.952 -0.6250 -0.9002  0.0982
   54MOL0     C 7159   0.613   3.903   7.887 -0.2020  0.0402  0.2001
   54MOL0     C 7160   0.607   3.875   7.753 -0.2551 -0.2410  0.4333
   54MOL0     C 7161   0.724   3.872   7.678 -0.6286  0.3090 -0.4242
   54MOL0     C 7162   0.848   3.902   7.736  0.1171 -0.3783 -0.2158
   54MOL0     O 7163   0.956   3.887   7.662  0.0808  0.3090  0.6719
   54MOL0     C 7164   0.962   3.950   7.532 -0.2689  0.1128  0.7651
   54MOL0     C 7165   0.953   3.855   7.405  0.2899  0.2915 -0.1649
   54MOL0     C 7166   1.074   3.765   7.386 -0.2776 -0.4117 -0.1949
   54MOL0     C 7167   1.041   3.619   7.331  0.2682 -0.3351  0.9371
   54MOL0     C 7168   1.165   3.533   7.322 -0.1266  0.2528  0.7837
   54MOL0     C 7169   1.143   3.415   7.228 -0.4875 -1.1548 -0.6123
   54MOL0     C 7170   1.039   3.319   7.287 -0.4852  0.1379 -0.0791
   54MOL0     C 7171   1.107   3.242   7.403 -0.3733  0.0368 -0.7364
   54MOL0     N 7172   1.024   3.137   7.460  0.4161 -0.2142  0.1657
   54MOL0     C 7173   1.024   3.007   7.416 -1.2109  0.0495 -0.5969
   54MOL0     C 7174   0.932   2.940   7.495  0.1744 -0.3656  1.0077
   54MOL0     C 7175   0.906   2.792   7.495  0.0052  0.2189  0.0979
   54MOL0     C 7176   0.760   2.752   7.444  0.6631 -0.9291  0.0249
   54MOL0     C 7177   0.725   2.610   7.489 -0.2477 -0.1016  0.2349
   54MOL0     C 7178   0.587   2.586   7.436 -0.2921 -0.0016 -0.4533
   54MOL0     O 7179   0.546   2.451   7.466  1.0180 -0.0805 -0.2970
   54MOL0     C 7180   0.612   2.353   7.396 -0.0963  0.0126  0.2763
   54MOL0     C 7181   0.643   2.362   7.258  0.0311 -0.1748  0.3013
   54MOL0     C 7182   0.708   2.257   7.198  0.0422 -0.0369 -0.3051
   54MOL0     C 7183   0.746   2.267   7.054 -0.9885 -0.3171  0.4908
   54MOL0     C 7184   0.743   2.140   7.279  0.9326 -0.3896  0.0570
   54MOL0     C 7185   0.807   2.022   7.227 -0.2802 -0.3193 -0.2602
   54MOL0     O 7186   0.907   2.032   7.131  1.2748 -1.0940 -0.1501
   54MOL0     C 7187   0.977   1.922   7.090 -0.4750 -0.3061  0.6566
   54MOL0     C 7188   1.045   1.943   6.962 -0.1464  0.0054 -0.5818
   54MOL0     C 7189   1.122   1.837   6.906  1.4385 -0.8427  0.6533
   54MOL0     C 7190   1.141   1.720   6.983  0.2263  0.9137 -0.0705
   54MOL0     O 7191   1.219   1.615   6.948 -0.4606  0.3614 -0.1350
   54MOL0     C 7192   1.290   1.612   6.825 -0.3434  0.3778  0.5022
   54MOL0     C 7193   1.438   1.662   6.856 -0.2132  0.7481  0.1529
   54MOL0     C 7194   1.509   1.715   6.727 -0.7671 -0.3938 -0.4905
   54MOL0     C 7195   1.591   1.602   6.647 -0.1384 -0.1738 -0.3403
   54MOL0     C 7196   1.717   1.644   6.578  0.2496 -0.1744  0.4573
   54MOL0     C 7197   1.778   1.551   6.476 -0.2439 -0.4481 -0.6704
   54MOL0     C 7198   1.902   1.601   6.397 -0.5691 -0.2701  0.1253
   54MOL0     C 7199   1.962   1.491   6.301  0.6085 -0.3924 -0.0519
   54MOL0    Cl 7200   2.125   1.528   6.232 -0.6203 -0.5554 -0.1999
   54MOL0     C 7201   1.089   1.703   7.114  0.5084 -0.8213 -0.0991
   54MOL0     C 7202   1.015   1.812   7.167  0.3480  0.0272 -0.1111
   54MOL0     O 7203   0.778   1.919   7.282  0.1959  0.0973 -0.9215
   54MOL0     C 7204   0.719   2.140   7.422  0.3098 -0.1317  0.8357
   54MOL0     C 7205   0.653   2.248   7.475 -0.5617 -0.6161 -0.6883
   54MOL0     N 7206   0.884   3.032   7.591 -0.4747 -0.5939  0.6030
   54MOL0     N 7207   0.940   3.149   7.565  0.5692  0.2472 -0.7740
   54MOL0     C 7208   0.858   3.922   7.874  0.0726 -0.1120 -0.1651
   54MOL0     C 7209   0.739   3.924   7.945  0.7431 -0.3575 -0.3456
   54MOL0     C 7210   0.371   3.813   8.131 -0.4319 -0.2676 -0.1218
   54MOL0     C 7211   0.287   3.926   8.136 -0.9985  0.1921 -0.8778
   54MOL0     C 7212   0.174   3.935   8.209 -0.4945 -0.4489  0.1385
   54MOL0     C 7213   0.138   3.831   8.297  0.0099 -0.0325  0.8261
   54MOL0     O 7214   0.017   3.820   8.366 -0.1357  0.1736  0.2641
   54MOL0     C 7215  -0.100   3.844   8.280  0.2679  0.2743 -0.3288
   54MOL0     C 7216  -0.223   3.847   8.377  0.2846  0.0839  0.1521
   54MOL0     C 7217  -0.358   3.838   8.290 -0.2956  0.0326 -0.4397
   54MOL0     C 7218  -0.469   3.776   8.371 -0.9446 -0.7876  0.3428
   54MOL0     C 7219  -0.490   3.843   8.500  0.4732 -0.8149  0.4519
   54MOL0     C 7220  -0.519   3.920   8.594 -0.3217 -1.0189 -0.3793
   54MOL0     C 7221   0.233   3.725   8.304  0.7476  0.3104  0.1254
   54MOL0     C 7222   0.343   3.711   8.223  0.5382  0.1653  0.6640
   54MOL0     H 7223   0.510   3.861   7.706  0.1779  0.9648 -0.8973
   54MOL0     H 7224   0.716   3.839   7.575  1.9317 -3.3859  0.3585
   54MOL0     H 7225   0.881   4.023   7.521  0.6574  1.0196 -0.2868
   54MOL0     H 7226   1.055   4.007   7.526  0.4723 -1.1923 -1.1278
   54MOL0     H 7227   0.859   3.799   7.397  0.3628  0.0546  0.5520
   54MOL0     H 7228   0.958   3.926   7.321  0.2565  0.2697 -0.1860
   54MOL0     H 7229   1.144   3.821   7.324  1.5401  1.0530  2.9320
   54MOL0     H 7230   1.126   3.764   7.482  1.9349  0.5645 -1.3194
   54MOL0     H 7231   0.964   3.568   7.388 -0.5244 -0.5561 -0.3030
   54MOL0     H 7232   0.996   3.640   7.234  2.2958  0.2014  0.0397
   54MOL0     H 7233   1.244   3.602   7.291 -0.9388  1.2864  0.9413
   54MOL0     H 7234   1.197   3.490   7.417  3.3879  0.3392 -0.2355
   54MOL0     H 7235   1.112   3.450   7.129  1.4481 -2.0005 -1.5784
   54MOL0     H 7236   1.240   3.368   7.207  1.9206  1.4330  3.3896
   54MOL0     H 7237   0.956   3.376   7.330  0.1634  0.4425  0.7963
   54MOL0     H 7238   1.009   3.253   7.205 -1.2024  1.6753 -1.1133
   54MOL0     H 7239   1.133   3.302   7.490 -2.4304 -1.2797  0.8488
   54MOL0     H 7240   1.198   3.196   7.363  0.5963  0.3187  1.0287
   54MOL0     H 7241   1.101   2.961   7.355 -2.1137 -5.4957  1.8098
   54MOL0     H 7242   0.986   2.748   7.435  0.2007  0.9858 -0.2139
   54MOL0     H 7243   0.928   2.749   7.593  0.7176 -1.4381 -0.7549
   54MOL0     H 7244   0.753   2.752   7.335 -0.9564 -0.1878  0.1014
   54MOL0     H 7245   0.685   2.823   7.479 -0.8817 -1.3236 -2.2713
   54MOL0     H 7246   0.735   2.604   7.598 -0.7670 -0.2157  0.2802
   54MOL0     H 7247   0.797   2.536   7.452  0.3996  0.9503 -0.6815
   54MOL0     H 7248   0.588   2.601   7.327 -0.1357 -0.3417 -0.5012
   54MOL0     H 7249   0.519   2.663   7.472  1.2101  0.2038  2.2130
   54MOL0     H 7250   0.615   2.449   7.199  0.8252  0.6058  1.0543
   54MOL0     H 7251   0.854   2.270   7.036 -1.1464  2.1118 -0.4969
   54MOL0     H 7252   0.714   2.181   6.995  1.6406  0.4289 -2.2976
   54MOL0     H 7253   0.716   2.362   7.008  2.0390  0.3970 -0.2520
   54MOL0     H 7254   1.025   2.038   6.913  1.7852  0.7829  0.0592
   54MOL0     H 7255   1.178   1.850   6.814 -0.4727 -1.1806 -0.6281
   54MOL0     H 7256   1.285   1.509   6.789  1.0650  1.3143 -2.7525
   54MOL0     H 7257   1.237   1.660   6.742 -0.8639 -3.0916 -1.3634
   54MOL0     H 7258   1.420   1.740   6.930 -1.6468 -0.3894  1.0361
   54MOL0     H 7259   1.495   1.585   6.909  1.3110  2.5746  1.3046
   54MOL0     H 7260   1.566   1.807   6.747  0.9287 -1.8425  1.8401
   54MOL0     H 7261   1.445   1.759   6.650  1.1298  2.2133 -0.7284
   54MOL0     H 7262   1.617   1.525   6.719 -0.8704  1.0951  1.3641
   54MOL0     H 7263   1.527   1.543   6.581 -1.0508 -2.7100  2.5715
   54MOL0     H 7264   1.790   1.641   6.660 -0.5095 -1.3616  1.1170
   54MOL0     H 7265   1.721   1.743   6.531  1.4034 -0.0115  0.8480
   54MOL0     H 7266   1.795   1.462   6.537  0.0697  0.4895  0.6699
   54MOL0     H 7267   1.700   1.530   6.403 -1.1931 -1.0056  0.4649
   54MOL0     H 7268   1.979   1.619   6.472 -0.3251  1.9786 -0.5874
   54MOL0     H 7269   1.897   1.699   6.348 -1.0511 -1.6402 -2.7919
   54MOL0     H 7270   1.906   1.460   6.212  0.0195  1.2717 -0.2813
   54MOL0     H 7271   1.966   1.406   6.370  1.9596 -0.6313 -0.3897
   54MOL0     H 7272   1.098   1.607   7.164  1.7449 -0.4486  0.4279
   54MOL0     H 7273   0.980   1.792   7.268 -3.8103 -0.5758 -1.4778
   54MOL0     H 7274   0.749   2.063   7.492 -1.2632 -1.1397  0.4361
   54MOL0     H 7275   0.615   2.249   7.576 -0.0793  1.4710 -0.4923
   54MOL0     H 7276   0.949   3.949   7.927 -2.5787  1.7306  4.0649
   54MOL0     H 7277   0.757   3.957   8.047  2.7248  1.5498 -1.2254
   54MOL0     H 7278   0.304   4.004   8.062 -1.6014  3.3647  2.0650
   54MOL0     H 7279   0.110   4.022   8.218  1.1110  1.0107 -1.5858
   54MOL0     H 7280  -0.087   3.941   8.230  0.5785  0.1632 -0.4623
   54MOL0     H 7281  -0.118   3.763   8.209 -0.7400  1.4173 -1.4490
   54MOL0     H 7282  -0.228   3.942   8.430 -0.5983  0.2689 -0.2436
   54MOL0     H 7283  -0.222   3.763   8.448 -0.3700 -1.9404 -2.0849
   54MOL0     H 7284  -0.336   3.765   8.211  1.8717  0.5511 -0.3929
   54MOL0     H 7285  -0.386   3.938   8.255 -0.8867  0.6523  1.6531
   54MOL0     H 7286  -0.437   3.673   8.388  1.1813 -0.4452 -1.1353
   54MOL0     H 7287  -0.566   3.766   8.320 -1.0790 -3.7459  1.0219
   54MOL0     H 7288  -0.539   3.990   8.673  4.4870 -0.3259  0.5382
   54MOL0     H 7289   0.199   3.646   8.370 -1.9546  1.1490 -0.1115
   54MOL0     H 7290   0.402   3.620   8.211 -1.6291 -0.9477 -5.3653
   55MOL0     O 7291   8.384   6.590   2.582 -0.5592 -0.4094  0.0300
   55MOL0     C 7292   8.375   6.662   2.678  0.1160 -0.0347 -0.9630
   55MOL0     O 7293   8.255   6.688   2.749  0.3469 -1.1259 -0.3813
   55MOL0     C 7294   8.135   6.654   2.692 -0.5777 -0.7389  0.0121
   55MOL0     C 7295   8.031   6.606   2.774  0.3840 -0.7730 -0.2270
   55MOL0     C 7296   7.904   6.582   2.725  0.2086  0.1048 -0.4562
   55MOL0     C 7297   7.867   6.620   2.596  0.2656  1.0594 -0.4771
   55MOL0     O 7298   7.749   6.586   2.545  0.2707  0.5755 -0.0571
   55MOL0     C 7299   7.642   6.626   2.630  0.1846  0.4665 -0.1130
   55MOL0     C 7300   7.517   6.602   2.552  0.0808 -0.5550 -0.0074
   55MOL0     C 7301   7.406   6.692   2.615 -0.0776 -0.8911 -0.6235
   55MOL0     C 7302   7.267   6.677   2.548  0.4907 -0.0067  0.1806
   55MOL0     C 7303   7.157   6.781   2.585  0.0908 -0.9124 -1.6098
   55MOL0     C 7304   7.069   6.770   2.466  0.3601  0.4155 -0.5536
   55MOL0     C 7305   6.951   6.871   2.476  0.3559  1.1897 -0.3234
   55MOL0     C 7306   6.972   7.017   2.455  0.5432  0.4079 -0.3769
   55MOL0     N 7307   6.848   7.086   2.441  0.0434 -0.5941  0.5878
   55MOL0     C 7308   6.728   7.076   2.514  0.6077  0.0986  1.2504
   55MOL0     C 7309   6.637   7.152   2.437  0.9604  0.7407  0.7969
   55MOL0     C 7310   6.501   7.180   2.489 -0.0710 -0.1924  0.3525
   55MOL0     C 7311   6.505   7.288   2.601  0.5773 -0.1536 -0.5428
   55MOL0     C 7312   6.373   7.289   2.683  1.0427 -0.7681 -0.3674
   55MOL0     C 7313   6.359   7.181   2.788  0.3057  0.5012 -0.5959
   55MOL0     O 7314   6.297   7.228   2.907  0.9012  0.3764  0.1840
   55MOL0     C 7315   6.171   7.174   2.935 -0.2935 -0.0156  0.0491
   55MOL0     C 7316   6.136   7.160   3.066  0.2236 -0.2011  0.2321
   55MOL0     C 7317   6.013   7.102   3.108 -0.1700 -1.2574  0.1540
   55MOL0     C 7318   5.984   7.081   3.260 -0.3228 -0.9481  0.2193
   55MOL0     C 7319   5.928   7.050   3.004 -1.4689 -0.6291  0.2420
   55MOL0     C 7320   5.799   6.971   3.028 -0.3015  0.4916 -0.8547
   55MOL0     O 7321   5.727   6.929   2.921  0.0394 -0.0606 -0.1748
   55MOL0     C 7322   5.600   6.877   2.916  1.0933 -0.5130  0.0529
   55MOL0     C 7323   5.564   6.770   2.830 -1.0230 -0.6216  0.9486
   55MOL0     C 7324   5.435   6.728   2.801  0.3116  0.2722 -0.1623
   55MOL0     C 7325   5.321   6.790   2.863  0.2157  0.6761 -0.3621
   55MOL0     O 7326   5.196   6.750   2.825 -0.1385  0.9711  0.1594
   55MOL0     C 7327   5.090   6.840   2.839 -0.0085 -0.6811  0.3305
   55MOL0     C 7328   4.959   6.764   2.873 -1.0611  0.6327 -0.7609
   55MOL0     C 7329   4.839   6.861   2.893 -0.0488  0.0126 -0.3611
   55MOL0     C 7330   4.714   6.791   2.908  0.9398  0.2848  0.1485
   55MOL0     C 7331   4.612   6.885   2.968 -0.0353  0.6244  0.1601
   55MOL0     C 7332   4.467   6.829   2.967  0.2876 -1.0111  0.2442
   55MOL0     C 7333   4.452   6.696   3.054  0.2928  1.5672  0.8304
   55MOL0     C 7334   4.307   6.639   3.033  0.0335  0.1005 -0.7467
   55MOL0    Cl 7335   4.188   6.768   3.074 -0.2765 -0.0537  0.3103
   55MOL0     C 7336   5.353   6.912   2.934 -0.7912 -0.2191 -1.1216
   55MOL0     C 7337   5.493   6.949   2.965  0.3777 -0.4858  0.6565
   55MOL0     O 7338   5.771   6.941   3.142 -0.6995 -0.6088  0.3123
   55MOL0     C 7339   5.960   7.080   2.872  0.8571  0.2187 -0.0937
   55MOL0     C 7340   6.079   7.134   2.840 -0.3171  0.2898  0.2831
   55MOL0     N 7341   6.711   7.214   2.327  0.2649 -0.3008 -1.1970
   55MOL0     N 7342   6.835   7.184   2.345  0.0017  0.4999 -0.0516
   55MOL0     C 7343   7.975   6.658   2.509  0.8638 -0.4847  0.6714
   55MOL0     C 7344   8.106   6.680   2.553  0.1063  0.0019 -0.5708
   55MOL0     C 7345   8.497   6.670   2.764 -0.0720 -0.5222  0.4131
   55MOL0     C 7346   8.495   6.659   2.904  0.3306  0.5566  0.1120
   55MOL0     C 7347   8.598   6.686   2.981  0.0234 -0.4479  1.0741
   55MOL0     C 7348   8.723   6.729   2.928 -0.0068 -0.2996 -0.2290
   55MOL0     O 7349   8.838   6.759   2.994  0.1408 -0.8591  0.4620
   55MOL0     C 7350   8.854   6.766   3.132  1.3682  0.1625  0.5225
   55MOL0     C 7351   8.853   6.627   3.184 -0.3600  0.5402  0.2090
   55MOL0     C 7352   8.878   6.611   3.335 -0.4063  0.5884 -0.8835
   55MOL0     C 7353   8.833   6.731   3.428  0.3483 -0.1294 -0.4538
   55MOL0     C 7354   8.686   6.739   3.452  0.4780  0.2963 -0.0299
   55MOL0     C 7355   8.566   6.771   3.468  0.1225  0.7463 -0.4548
   55MOL0     C 7356   8.736   6.729   2.790 -0.0554 -0.2424  0.3304
   55MOL0     C 7357   8.628   6.704   2.711 -0.3009  0.7759 -0.3597
   55MOL0     H 7358   8.058   6.579   2.876 -0.0397  4.5805  1.5979
   55MOL0     H 7359   7.830   6.541   2.794 -1.2326  0.6973 -1.6078
   55MOL0     H 7360   7.635   6.582   2.730 -1.2835 -1.2003 -0.8896
   55MOL0     H 7361   7.640   6.733   2.650 -0.9325  0.3859  0.2545
   55MOL0     H 7362   7.526   6.634   2.447  0.0946 -2.5722 -0.6670
   55MOL0     H 7363   7.487   6.497   2.554  2.7974 -1.5459 -2.6361
   55MOL0     H 7364   7.389   6.667   2.720 -0.4071  0.6525 -0.2876
   55MOL0     H 7365   7.425   6.800   2.608 -1.9563 -0.5977 -2.5543
   55MOL0     H 7366   7.299   6.685   2.443  1.2595 -0.1498  0.3986
   55MOL0     H 7367   7.230   6.575   2.564  2.2655 -0.4899  1.4745
   55MOL0     H 7368   7.112   6.747   2.679  1.2767 -4.7659 -2.2416
   55MOL0     H 7369   7.188   6.885   2.596 -2.3013 -0.2809 -0.0250
   55MOL0     H 7370   7.125   6.781   2.373  1.9975  1.0924  0.4718
   55MOL0     H 7371   7.019   6.672   2.472  0.9206  0.2255  1.5537
   55MOL0     H 7372   6.872   6.838   2.408 -0.7935 -0.1854  1.5804
   55MOL0     H 7373   6.912   6.853   2.577  2.9208  3.9624  1.3175
   55MOL0     H 7374   7.048   7.039   2.380 -2.3036  0.7872 -3.3664
   55MOL0     H 7375   7.004   7.047   2.556 -3.5062  0.7591  1.0057
   55MOL0     H 7376   6.705   7.020   2.604 -1.8698  2.6200  2.3657
   55MOL0     H 7377   6.432   7.210   2.409  2.9164 -2.3473 -3.3860
   55MOL0     H 7378   6.468   7.086   2.534  3.1443 -0.9469  1.4115
   55MOL0     H 7379   6.511   7.386   2.553 -1.4736 -0.4052 -1.4232
   55MOL0     H 7380   6.596   7.268   2.659  0.0924 -3.0977 -0.6481
   55MOL0     H 7381   6.280   7.291   2.626  0.5965 -4.6172 -0.0368
   55MOL0     H 7382   6.384   7.384   2.737 -1.3309 -0.0930 -0.9609
   55MOL0     H 7383   6.461   7.153   2.817 -0.7505 -0.4874  2.5226
   55MOL0     H 7384   6.311   7.088   2.759 -1.0649  1.0605 -0.1858
   55MOL0     H 7385   6.199   7.212   3.138  2.1184  1.6590 -2.5490
   55MOL0     H 7386   5.964   6.975   3.276 -0.0195 -0.8885  1.0698
   55MOL0     H 7387   6.061   7.115   3.330  0.7176  0.9384 -1.7429
   55MOL0     H 7388   5.891   7.135   3.284 -2.1055 -3.6593 -0.1504
   55MOL0     H 7389   5.649   6.720   2.784 -0.3624  1.4180 -0.1583
   55MOL0     H 7390   5.400   6.648   2.737 -2.5827  1.6140 -0.4477
   55MOL0     H 7391   5.095   6.919   2.914 -1.4285  0.2308 -0.4796
   55MOL0     H 7392   5.077   6.906   2.753 -1.1552  3.1531  3.1749
   55MOL0     H 7393   4.943   6.705   2.782 -0.0403  2.1583 -1.9802
   55MOL0     H 7394   4.976   6.709   2.966  0.5418  2.8117  0.3117
   55MOL0     H 7395   4.826   6.922   2.804  1.1024  2.8245  1.2681
   55MOL0     H 7396   4.861   6.930   2.975  3.5077  0.9233 -1.9273
   55MOL0     H 7397   4.674   6.751   2.814  1.0600  2.3220 -0.8235
   55MOL0     H 7398   4.729   6.708   2.977  2.6980  0.1127 -0.3987
   55MOL0     H 7399   4.598   6.970   2.900 -4.7299 -0.7407 -0.9622
   55MOL0     H 7400   4.637   6.931   3.064  0.4375  0.0412  0.3187
   55MOL0     H 7401   4.408   6.907   3.015 -2.7847 -2.1914 -1.3724
   55MOL0     H 7402   4.435   6.824   2.863 -3.7787  0.0275  1.2633
   55MOL0     H 7403   4.467   6.710   3.161 -1.0859 -0.2444  1.3092
   55MOL0     H 7404   4.519   6.619   3.016 -2.6572 -0.1004 -1.4543
   55MOL0     H 7405   4.272   6.560   3.101  1.1609  0.5643  0.4154
   55MOL0     H 7406   4.300   6.594   2.934 -0.8718  0.4628 -0.8574
   55MOL0     H 7407   5.288   6.986   2.981  1.2273  0.7214  0.3495
   55MOL0     H 7408   5.513   7.047   3.007  1.3866 -0.2238 -0.3790
   55MOL0     H 7409   5.893   7.046   2.794  2.6500 -0.2545 -1.4985
   55MOL0     H 7410   6.109   7.150   2.737 -1.3373  2.2742  0.2526
   55MOL0     H 7411   7.967   6.692   2.406 -3.9526  2.0935  1.5840
   55MOL0     H 7412   8.185   6.714   2.486 -0.8289  0.9675 -1.2120
   55MOL0     H 7413   8.403   6.630   2.956  0.4659 -0.2426 -0.0721
   55MOL0     H 7414   8.607   6.671   3.089  2.9100  1.0670  1.1457
   55MOL0     H 7415   8.935   6.831   3.166  0.0709  1.8854  0.4644
   55MOL0     H 7416   8.770   6.825   3.170 -2.5967 -2.9626 -2.5256
   55MOL0     H 7417   8.935   6.572   3.135 -0.5690  0.2417  0.1890
   55MOL0     H 7418   8.768   6.566   3.153 -0.9949  1.6006 -0.1715
   55MOL0     H 7419   8.986   6.600   3.348 -0.2172  2.2888 -0.7459
   55MOL0     H 7420   8.828   6.519   3.367  0.6187  0.8426  1.6619
   55MOL0     H 7421   8.869   6.830   3.397  0.1919  0.6372  1.6581
   55MOL0     H 7422   8.850   6.694   3.529 -0.3910 -1.7397 -0.8987
   55MOL0     H 7423   8.462   6.793   3.483  0.2239 -0.6262  3.3592
   55MOL0     H 7424   8.836   6.742   2.750 -0.1215  1.1660  0.5644
   55MOL0     H 7425   8.635   6.724   2.605  2.2984 -0.8337 -0.5740
   56MOL0     O 7426  10.584   4.255   0.745  0.0995 -0.3919 -0.3997
   56MOL0     C 7427  10.567   4.145   0.800 -0.6560 -0.3262  0.6562
   56MOL0     O 7428  10.669   4.063   0.846  0.2487 -0.3742 -0.1294
   56MOL0     C 7429  10.798   4.078   0.790  0.0125  0.4987 -0.3279
   56MOL0     C 7430  10.913   4.046   0.869  0.3788  0.2754 -0.1367
   56MOL0     C 7431  11.038   4.048   0.809  0.0568 -0.2762 -0.0717
   56MOL0     C 7432  11.058   4.080   0.670  0.8116  0.1216 -0.4180
   56MOL0     O 7433  11.179   4.082   0.610  0.3962  0.4198 -0.1315
   56MOL0     C 7434  11.285   4.153   0.683  0.5824 -0.6328 -0.3438
   56MOL0     C 7435  11.397   4.171   0.587  0.4315  0.4795  0.9513
   56MOL0     C 7436  11.530   4.183   0.657  0.5808 -0.1445 -0.4135
   56MOL0     C 7437  11.538   4.272   0.776  0.8264 -0.1617 -0.1977
   56MOL0     C 7438  11.678   4.276   0.833 -0.3822 -0.9270 -0.6325
   56MOL0     C 7439  11.682   4.368   0.958  0.1775  0.1271  0.1256
   56MOL0     C 7440  11.825   4.356   1.007 -0.2080 -0.6950 -0.5703
   56MOL0     C 7441  11.857   4.436   1.137  0.1665  0.8138  0.5701
   56MOL0     N 7442  11.997   4.435   1.186  0.3392  0.9457 -0.6538
   56MOL0     C 7443  12.100   4.505   1.132  0.8641 -0.0736 -0.7005
   56MOL0     C 7444  12.202   4.484   1.214  0.1896 -0.0507  0.7297
   56MOL0     C 7445  12.333   4.544   1.202 -0.4418 -0.2433 -0.2604
   56MOL0     C 7446  12.421   4.477   1.094  0.6046  0.0763 -0.7885
   56MOL0     C 7447  12.496   4.582   1.017 -0.6468  0.5111  0.2512
   56MOL0     C 7448  12.615   4.504   0.958 -0.1153 -0.0757 -0.2495
   56MOL0     O 7449  12.725   4.459   1.043 -0.2827  0.0351 -0.2647
   56MOL0     C 7450  12.818   4.544   1.085 -0.5248 -0.7432 -0.7283
   56MOL0     C 7451  12.924   4.484   1.143 -0.7480 -0.6782  1.1504
   56MOL0     C 7452  13.032   4.561   1.193 -0.0380  0.2181  0.3015
   56MOL0     C 7453  13.156   4.494   1.259 -0.1018 -0.3809 -0.4407
   56MOL0     C 7454  13.035   4.703   1.161  0.4253  0.2895 -0.2323
   56MOL0     C 7455  13.133   4.799   1.215 -0.3475  0.4186  0.9036
   56MOL0     O 7456  13.145   4.923   1.144  0.3951  0.4263 -0.1000
   56MOL0     C 7457  13.270   4.979   1.164  0.1829  1.2194 -0.7568
   56MOL0     C 7458  13.280   5.116   1.188  0.1332  0.0882 -0.3275
   56MOL0     C 7459  13.404   5.186   1.196  0.6946  0.2312 -0.0565
   56MOL0     C 7460  13.521   5.116   1.194 -0.6149 -0.1100  0.1773
   56MOL0     O 7461  13.636   5.190   1.224  0.0353 -0.1197 -0.8845
   56MOL0     C 7462  13.755   5.120   1.250 -0.7161 -0.2923 -0.0221
   56MOL0     C 7463  13.849   5.220   1.309  0.2440  0.0573  0.0829
   56MOL0     C 7464  13.993   5.161   1.328  0.3165 -0.0819 -0.4782
   56MOL0     C 7465  14.098   5.268   1.367 -0.3237 -1.2715 -0.2886
   56MOL0     C 7466  14.237   5.202   1.389  0.6036  0.4862 -0.1038
   56MOL0     C 7467  14.268   5.170   1.536  0.1660  0.9043  0.1628
   56MOL0     C 7468  14.419   5.146   1.564 -1.0384 -0.1638  0.2138
   56MOL0     C 7469  14.457   5.073   1.701  0.8046  0.6838 -0.0327
   56MOL0    Cl 7470  14.349   5.120   1.829  0.5581  0.2260  0.1022
   56MOL0     C 7471  13.516   4.977   1.174  0.4470  1.0088  0.3120
   56MOL0     C 7472  13.397   4.914   1.160  0.0145  0.3000  0.6404
   56MOL0     O 7473  13.215   4.773   1.303  0.7530 -0.3357 -0.0246
   56MOL0     C 7474  12.936   4.759   1.087  0.6093 -0.1000  0.1890
   56MOL0     C 7475  12.825   4.679   1.044  0.0917  0.1177 -0.0542
   56MOL0     N 7476  12.166   4.387   1.305  1.4533  0.1188  0.4050
   56MOL0     N 7477  12.038   4.358   1.296 -0.1443  0.2581  0.3705
   56MOL0     C 7478  10.942   4.099   0.591  0.5674 -0.1633 -0.7305
   56MOL0     C 7479  10.812   4.090   0.652  0.6234 -0.3229  0.1061
   56MOL0     C 7480  10.438   4.110   0.833  0.9646  0.3480  0.6300
   56MOL0     C 7481  10.335   4.196   0.854  0.5915 -0.3886  0.2103
   56MOL0     C 7482  10.202   4.148   0.878  0.0594  0.5554 -0.7551
   56MOL0     C 7483  10.176   4.015   0.889  0.5278  1.2948  0.5444
   56MOL0     O 7484  10.045   3.978   0.908 -0.2222  0.0592  0.0171
   56MOL0     C 7485  10.001   3.844   0.873  0.2652 -0.9431  0.1730
   56MOL0     C 7486   9.849   3.836   0.889  0.7485  0.8424 -0.1644
   56MOL0     C 7487   9.814   3.851   1.034  0.0823 -0.1278 -0.2783
   56MOL0     C 7488   9.870   3.733   1.122  0.8794  0.0470 -0.0817
   56MOL0     C 7489   9.794   3.736   1.248  0.7529  0.2479 -0.0770
   56MOL0     C 7490   9.729   3.711   1.347  0.8244 -0.2818 -0.8015
   56MOL0     C 7491  10.282   3.921   0.884 -0.2363 -0.2246 -0.3102
   56MOL0     C 7492  10.409   3.971   0.848 -0.8004 -0.5232  0.0493
   56MOL0     H 7493  10.909   4.027   0.975 -0.9468 -2.4141 -0.6013
   56MOL0     H 7494  11.130   4.043   0.867  0.1067 -1.4525 -0.2331
   56MOL0     H 7495  11.254   4.253   0.717 -1.2070 -1.4946  0.7485
   56MOL0     H 7496  11.311   4.097   0.772 -0.1598  1.3112  1.1794
   56MOL0     H 7497  11.402   4.080   0.527 -2.7876 -0.8081  2.4120
   56MOL0     H 7498  11.386   4.262   0.528  2.0145  1.7017  2.4248
   56MOL0     H 7499  11.574   4.087   0.687  0.0168  0.3822  2.4097
   56MOL0     H 7500  11.593   4.219   0.575  2.5129  0.3923  1.2259
   56MOL0     H 7501  11.500   4.373   0.756 -2.4857 -1.4871 -1.1158
   56MOL0     H 7502  11.477   4.228   0.855 -2.1525  1.1396 -1.5927
   56MOL0     H 7503  11.702   4.176   0.871  0.4404 -0.7000 -0.5358
   56MOL0     H 7504  11.755   4.303   0.761 -0.0597 -0.9308 -0.2921
   56MOL0     H 7505  11.660   4.473   0.939 -1.0175 -0.0821  0.3012
   56MOL0     H 7506  11.611   4.339   1.036  0.3995 -0.0867  0.2489
   56MOL0     H 7507  11.854   4.252   1.025 -0.2866 -0.2728  2.5153
   56MOL0     H 7508  11.891   4.402   0.933 -0.5281  0.3139 -0.2471
   56MOL0     H 7509  11.787   4.380   1.200  0.1323 -0.8067 -0.8193
   56MOL0     H 7510  11.836   4.544   1.129  0.9752  0.8575 -1.9607
   56MOL0     H 7511  12.102   4.570   1.045 -1.8213  2.6570  1.0671
   56MOL0     H 7512  12.316   4.651   1.187 -0.2527  0.1329  1.8783
   56MOL0     H 7513  12.382   4.536   1.300 -0.7421  0.9825  0.0004
   56MOL0     H 7514  12.350   4.417   1.037 -1.8133  0.4867  1.5527
   56MOL0     H 7515  12.484   4.412   1.156 -1.4752 -3.1625 -1.7939
   56MOL0     H 7516  12.533   4.657   1.088 -1.7364 -0.6953  2.2021
   56MOL0     H 7517  12.436   4.625   0.937 -4.5081 -2.1905  1.3984
   56MOL0     H 7518  12.651   4.559   0.871  4.6928  0.2089  1.6277
   56MOL0     H 7519  12.592   4.403   0.920  1.5587 -0.0051 -1.5743
   56MOL0     H 7520  12.931   4.377   1.164  0.8966 -1.1541 -1.3334
   56MOL0     H 7521  13.137   4.386   1.270  0.9065 -0.5830 -0.5615
   56MOL0     H 7522  13.248   4.489   1.201  1.7679 -2.1015  2.4081
   56MOL0     H 7523  13.174   4.537   1.358 -0.7046  2.1710 -1.3723
   56MOL0     H 7524  13.189   5.175   1.185  0.2131  0.2066 -0.4096
   56MOL0     H 7525  13.409   5.295   1.200  1.1354  0.3200 -2.1495
   56MOL0     H 7526  13.735   5.043   1.324  4.1537 -0.5104  1.4388
   56MOL0     H 7527  13.798   5.085   1.155 -1.7506 -0.4236 -0.4574
   56MOL0     H 7528  13.863   5.308   1.245  0.2263  0.1063  0.1455
   56MOL0     H 7529  13.800   5.262   1.398 -0.5678 -0.1919 -0.2346
   56MOL0     H 7530  14.016   5.117   1.230  0.3821 -3.3341  0.8841
   56MOL0     H 7531  13.993   5.082   1.403  2.2279  1.9769  1.8464
   56MOL0     H 7532  14.103   5.330   1.277  0.2555 -3.7520 -2.0662
   56MOL0     H 7533  14.058   5.326   1.450  0.7929 -1.6511  0.5351
   56MOL0     H 7534  14.310   5.268   1.341  1.2309 -2.8565 -4.3553
   56MOL0     H 7535  14.248   5.110   1.331  0.3280  1.0226 -1.0273
   56MOL0     H 7536  14.248   5.249   1.609  2.6825  1.0006  0.8462
   56MOL0     H 7537  14.204   5.090   1.574 -1.2193  3.7862  4.7142
   56MOL0     H 7538  14.464   5.245   1.563 -1.3793  0.0256 -2.0497
   56MOL0     H 7539  14.456   5.088   1.479 -1.6307 -1.0254  0.5279
   56MOL0     H 7540  14.560   5.097   1.727  0.3186  0.1360  2.6516
   56MOL0     H 7541  14.440   4.966   1.692  1.1941  0.6934 -1.1101
   56MOL0     H 7542  13.604   4.913   1.167  1.7347  2.8069 -0.9936
   56MOL0     H 7543  13.391   4.806   1.149  1.5699  0.3530 -1.4994
   56MOL0     H 7544  12.923   4.865   1.063 -1.6096  0.0070  1.5212
   56MOL0     H 7545  12.744   4.719   0.984 -2.0862 -1.6432  1.5590
   56MOL0     H 7546  10.957   4.120   0.486  3.3224  0.4116 -0.2775
   56MOL0     H 7547  10.725   4.087   0.588  1.1994 -0.1617 -0.7057
   56MOL0     H 7548  10.355   4.302   0.841 -0.2874 -0.5660 -4.0263
   56MOL0     H 7549  10.115   4.214   0.889 -0.7037 -0.7112  1.2124
   56MOL0     H 7550  10.041   3.825   0.773  2.0755 -3.6209  1.2752
   56MOL0     H 7551  10.051   3.774   0.941  0.0894 -0.4761  0.7918
   56MOL0     H 7552   9.802   3.745   0.849 -2.9401  2.9441 -1.0820
   56MOL0     H 7553   9.799   3.910   0.825 -0.9011  0.1107  0.2137
   56MOL0     H 7554   9.706   3.865   1.036 -0.1577 -0.5308 -3.8825
   56MOL0     H 7555   9.859   3.944   1.069  0.0767 -0.7613  1.5487
   56MOL0     H 7556   9.977   3.730   1.146  1.2394 -1.3281 -1.6295
   56MOL0     H 7557   9.858   3.643   1.060 -0.4627  0.1996 -0.0555
   56MOL0     H 7558   9.662   3.701   1.430  0.8963 -0.6694 -0.7914
   56MOL0     H 7559  10.250   3.818   0.890 -1.3491  0.1227 -0.0476
   56MOL0     H 7560  10.486   3.895   0.839 -1.5132 -1.0392 -2.5282
   57MOL0     O 7561   0.400   4.427   2.143  0.1506 -0.0638  0.3434
   57MOL0     C 7562   0.440   4.310   2.155 -0.8280  0.7539  1.1110
   57MOL0     O 7563   0.365   4.191   2.172 -0.1120  0.9895 -0.3606
   57MOL0     C 7564   0.231   4.176   2.167  0.1207  0.2050 -0.3316
   57MOL0     C 7565   0.140   4.266   2.118  0.2752  0.1794 -0.4157
   57MOL0     C 7566   0.002   4.239   2.126  0.2073  0.0316 -0.0594
   57MOL0     C 7567  -0.049   4.126   2.184 -0.5997  0.0449  0.6366
   57MOL0     O 7568  -0.182   4.093   2.204  0.6874  0.2458  0.5092
   57MOL0     C 7569  -0.278   4.159   2.117  0.5035 -0.1779  0.4749
   57MOL0     C 7570  -0.408   4.089   2.104  0.3687  0.1299  0.1236
   57MOL0     C 7571  -0.470   4.138   1.975 -0.4725 -0.4077  0.1801
   57MOL0     C 7572  -0.607   4.064   1.970  0.0740 -1.0928 -0.1725
   57MOL0     C 7573  -0.682   4.117   1.851  0.5123  0.6868  0.4748
   57MOL0     C 7574  -0.836   4.087   1.858 -0.6596  0.2813 -0.3318
   57MOL0     C 7575  -0.919   4.144   1.742  0.6141 -0.4575  0.3971
   57MOL0     C 7576  -0.929   4.293   1.744 -0.0712 -0.3753  0.1638
   57MOL0     N 7577  -1.012   4.341   1.633  0.5436 -0.1670 -0.7817
   57MOL0     C 7578  -1.069   4.471   1.635  0.8107  0.4242  0.3426
   57MOL0     C 7579  -1.151   4.480   1.529  0.8445 -0.2043  0.5171
   57MOL0     C 7580  -1.252   4.590   1.503 -0.6728 -0.0477  0.2726
   57MOL0     C 7581  -1.393   4.527   1.515  0.3448  0.0494 -0.5417
   57MOL0     C 7582  -1.499   4.609   1.445 -0.1883 -0.0946 -0.4136
   57MOL0     C 7583  -1.643   4.542   1.447  0.0230 -0.8263 -0.4374
   57MOL0     O 7584  -1.645   4.405   1.445 -0.3085 -0.0231 -0.0085
   57MOL0     C 7585  -1.774   4.351   1.450  0.1883  0.3387 -0.1833
   57MOL0     C 7586  -1.769   4.207   1.450  0.6127 -0.2117  0.1852
   57MOL0     C 7587  -1.889   4.131   1.465 -0.9412  0.5851 -0.0587
   57MOL0     C 7588  -1.866   3.985   1.482 -1.6711  0.5116 -0.4000
   57MOL0     C 7589  -2.008   4.203   1.472 -0.2010  0.6156 -0.0532
   57MOL0     C 7590  -2.143   4.130   1.482 -0.3558  1.0521  0.2184
   57MOL0     O 7591  -2.158   4.018   1.397 -0.3722 -0.6753 -0.4426
   57MOL0     C 7592  -2.278   3.956   1.394  0.2589  1.0785  0.8290
   57MOL0     C 7593  -2.313   3.851   1.484 -1.5151 -0.3384  0.1280
   57MOL0     C 7594  -2.427   3.776   1.454 -0.3937 -0.0395  0.1332
   57MOL0     C 7595  -2.507   3.805   1.335  0.4443  0.0115 -1.6022
   57MOL0     O 7596  -2.625   3.730   1.335  0.2794  0.3139  0.2775
   57MOL0     C 7597  -2.680   3.706   1.203 -0.0167  0.5025 -0.2089
   57MOL0     C 7598  -2.675   3.555   1.170 -0.2851 -1.0562 -0.0365
   57MOL0     C 7599  -2.530   3.509   1.140  0.3092  0.3979 -1.1591
   57MOL0     C 7600  -2.552   3.393   1.044  0.7372  0.3417  0.1150
   57MOL0     C 7601  -2.422   3.350   0.979  0.5911  0.0306  0.4724
   57MOL0     C 7602  -2.354   3.458   0.893 -0.1020  0.5163  0.1583
   57MOL0     C 7603  -2.261   3.404   0.779  1.2635 -0.6201 -0.0122
   57MOL0     C 7604  -2.173   3.296   0.839 -0.5938 -0.4846  0.6870
   57MOL0    Cl 7605  -2.065   3.370   0.968 -0.7364  0.4376  0.4470
   57MOL0     C 7606  -2.470   3.914   1.255 -0.1242 -0.3155  0.1878
   57MOL0     C 7607  -2.355   3.982   1.280  0.0064 -0.1021 -0.4633
   57MOL0     O 7608  -2.226   4.183   1.557  0.2112  0.6628 -0.4487
   57MOL0     C 7609  -2.007   4.337   1.483 -0.0508 -0.1829 -0.1152
   57MOL0     C 7610  -1.897   4.412   1.462 -0.3899 -0.1932 -0.0458
   57MOL0     N 7611  -1.145   4.357   1.462  0.5409 -0.7726  0.0148
   57MOL0     N 7612  -1.064   4.276   1.526  0.2737  0.4107 -0.0036
   57MOL0     C 7613   0.047   4.023   2.223 -0.6399 -1.4165 -0.8899
   57MOL0     C 7614   0.184   4.050   2.214  0.0848 -0.6243 -0.3025
   57MOL0     C 7615   0.588   4.288   2.154  0.1453  0.0633  0.7409
   57MOL0     C 7616   0.642   4.171   2.112  0.5349  0.2961 -0.2319
   57MOL0     C 7617   0.781   4.155   2.106  0.2488 -0.0627 -0.1494
   57MOL0     C 7618   0.875   4.244   2.149 -0.3648 -0.0462 -0.0568
   57MOL0     O 7619   1.008   4.217   2.158  0.6389 -0.0654  0.4850
   57MOL0     C 7620   1.063   4.104   2.087 -0.4484 -0.0589  0.8102
   57MOL0     C 7621   1.214   4.118   2.111 -1.0650  0.4280 -1.1416
   57MOL0     C 7622   1.284   4.251   2.056  0.1243 -0.5243  0.2270
   57MOL0     C 7623   1.310   4.237   1.902 -0.9737  0.5492 -0.4373
   57MOL0     C 7624   1.416   4.144   1.868  0.0457  0.1663  0.9865
   57MOL0     C 7625   1.502   4.059   1.858 -0.3293 -0.8470  0.8831
   57MOL0     C 7626   0.819   4.363   2.195 -0.6129  0.2799 -0.4163
   57MOL0     C 7627   0.685   4.380   2.196 -0.2826 -0.5313  0.2284
   57MOL0     H 7628   0.172   4.352   2.058 -0.0679  1.4488  1.1620
   57MOL0     H 7629  -0.064   4.315   2.086 -0.4729 -0.0025  0.9472
   57MOL0     H 7630  -0.281   4.262   2.156  2.1417  0.6445 -1.3809
   57MOL0     H 7631  -0.234   4.155   2.017  0.3609  0.0382  0.4031
   57MOL0     H 7632  -0.383   3.983   2.088  0.7615  0.0462  1.2205
   57MOL0     H 7633  -0.476   4.106   2.188 -0.4176  3.5655 -1.0775
   57MOL0     H 7634  -0.488   4.246   1.968  3.6961  0.4011 -0.7867
   57MOL0     H 7635  -0.417   4.112   1.883  2.8126  1.2658  1.4334
   57MOL0     H 7636  -0.589   3.957   1.961  2.6374 -0.7443  0.1145
   57MOL0     H 7637  -0.663   4.072   2.064 -0.4016 -0.1680 -0.5176
   57MOL0     H 7638  -0.679   4.226   1.843 -1.2205  0.6692 -1.0527
   57MOL0     H 7639  -0.642   4.076   1.758 -0.9244 -2.3145  1.0279
   57MOL0     H 7640  -0.844   3.978   1.864 -0.0739  0.2954  1.8188
   57MOL0     H 7641  -0.873   4.136   1.949 -0.0444  2.8020 -1.3434
   57MOL0     H 7642  -0.886   4.092   1.651 -1.8037 -0.4540 -0.5603
   57MOL0     H 7643  -1.020   4.106   1.757 -0.1391  1.1433 -0.4085
   57MOL0     H 7644  -0.831   4.336   1.720 -1.2072  0.2366 -4.2503
   57MOL0     H 7645  -0.960   4.327   1.843  0.9625 -1.8634  1.0243
   57MOL0     H 7646  -1.052   4.549   1.709  0.2232  1.0988 -0.2240
   57MOL0     H 7647  -1.231   4.668   1.576  0.5419 -1.0859  1.0873
   57MOL0     H 7648  -1.243   4.626   1.400  2.2975  2.4626  1.2671
   57MOL0     H 7649  -1.420   4.532   1.621  0.1707 -0.6801 -0.5425
   57MOL0     H 7650  -1.397   4.421   1.487  0.8281 -0.7719  2.2307
   57MOL0     H 7651  -1.479   4.620   1.338 -3.3108 -0.0198 -1.0814
   57MOL0     H 7652  -1.504   4.708   1.492  3.3050  0.3726 -0.7705
   57MOL0     H 7653  -1.712   4.587   1.375  1.2269 -0.2826 -1.2853
   57MOL0     H 7654  -1.673   4.574   1.547  1.3974  1.9704 -0.8017
   57MOL0     H 7655  -1.675   4.153   1.448 -0.0674 -1.7088  3.1593
   57MOL0     H 7656  -1.941   3.924   1.430 -2.0005 -0.8353  1.5808
   57MOL0     H 7657  -1.764   3.956   1.454 -0.0754  3.7885  1.3232
   57MOL0     H 7658  -1.885   3.979   1.589 -0.2216  1.5718 -0.0499
   57MOL0     H 7659  -2.250   3.817   1.565  0.2982 -2.8209 -2.1680
   57MOL0     H 7660  -2.461   3.698   1.520  0.9058  1.4835  2.7680
   57MOL0     H 7661  -2.783   3.743   1.203  1.3890  5.3913 -3.3002
   57MOL0     H 7662  -2.636   3.760   1.119 -0.2363  2.9562  1.1585
   57MOL0     H 7663  -2.726   3.512   1.257 -0.1886  0.4582  0.8089
   57MOL0     H 7664  -2.740   3.535   1.085  1.9917 -1.8994 -1.6872
   57MOL0     H 7665  -2.466   3.474   1.222  1.2121 -1.0923 -2.4355
   57MOL0     H 7666  -2.485   3.589   1.081  1.1561  0.1493 -0.8583
   57MOL0     H 7667  -2.587   3.300   1.089  2.4522 -0.7929 -0.7928
   57MOL0     H 7668  -2.622   3.429   0.968  1.1196  3.7143  1.2074
   57MOL0     H 7669  -2.453   3.278   0.902 -1.1610  1.1366  0.1001
   57MOL0     H 7670  -2.353   3.302   1.050 -0.2792  1.4764  2.3579
   57MOL0     H 7671  -2.433   3.519   0.847 -0.0992 -0.2923 -0.9456
   57MOL0     H 7672  -2.296   3.524   0.959 -0.3208  2.1597 -1.2112
   57MOL0     H 7673  -2.201   3.486   0.741  2.3242 -1.5040 -0.3007
   57MOL0     H 7674  -2.312   3.356   0.695 -0.0285  0.5765  0.0582
   57MOL0     H 7675  -2.123   3.253   0.751  1.1180  1.5413  0.5811
   57MOL0     H 7676  -2.222   3.208   0.881  1.5190 -0.9980  2.2001
   57MOL0     H 7677  -2.525   3.939   1.165 -0.7428 -4.5419 -0.8311
   57MOL0     H 7678  -2.318   4.063   1.217  3.4832  0.1317  1.6368
   57MOL0     H 7679  -2.107   4.372   1.503 -0.0082  0.8716 -1.6259
   57MOL0     H 7680  -1.910   4.520   1.459 -0.8825 -0.1316  2.3062
   57MOL0     H 7681   0.015   3.929   2.265 -2.4726 -1.1265 -1.5575
   57MOL0     H 7682   0.265   3.987   2.251  2.3829  2.8623  1.2631
   57MOL0     H 7683   0.581   4.090   2.075  1.4610 -1.3986  1.7053
   57MOL0     H 7684   0.815   4.061   2.064  2.4439 -0.9326  3.2049
   57MOL0     H 7685   1.022   4.010   2.125 -0.4379 -0.8949 -1.1407
   57MOL0     H 7686   1.034   4.117   1.982 -2.7428 -0.5367  1.3216
   57MOL0     H 7687   1.264   4.026   2.079 -2.8701 -1.6761  1.6081
   57MOL0     H 7688   1.234   4.129   2.218  0.7361  0.5376 -1.4500
   57MOL0     H 7689   1.377   4.264   2.112  1.7468  0.4838 -2.4902
   57MOL0     H 7690   1.217   4.337   2.057  0.0753 -0.5625  0.8474
   57MOL0     H 7691   1.344   4.337   1.875 -1.3138  0.3527 -1.6600
   57MOL0     H 7692   1.215   4.209   1.856 -1.0031 -2.4357  1.1909
   57MOL0     H 7693   1.579   3.985   1.853  3.8913  3.0068  1.8995
   57MOL0     H 7694   0.883   4.447   2.220 -1.7490  1.1883 -0.4912
   57MOL0     H 7695   0.647   4.475   2.233  1.3785  0.3288 -0.1915
   58MOL0     O 7696   3.010  11.216   2.863 -0.4626 -0.5655 -0.5360
   58MOL0     C 7697   2.994  11.309   2.785 -0.6193 -1.2279  0.2720
   58MOL0     O 7698   2.901  11.404   2.788 -0.0765 -0.5501 -0.0004
   58MOL0     C 7699   2.811  11.382   2.888 -0.6846 -0.7134  0.0457
   58MOL0     C 7700   2.706  11.300   2.884  1.2049  0.3418 -0.1709
   58MOL0     C 7701   2.608  11.298   2.988 -0.0552 -0.4814 -0.2357
   58MOL0     C 7702   2.610  11.391   3.098  0.3791  0.7867  0.2355
   58MOL0     O 7703   2.525  11.393   3.203 -0.5334  0.3858 -0.3936
   58MOL0     C 7704   2.419  11.297   3.211 -0.6208  0.4166 -0.3028
   58MOL0     C 7705   2.343  11.305   3.346 -0.1545 -0.5187  0.9234
   58MOL0     C 7706   2.429  11.253   3.467  0.3680  0.4248  0.5648
   58MOL0     C 7707   2.329  11.193   3.570 -0.3962 -0.0457  0.8949
   58MOL0     C 7708   2.393  11.145   3.699  0.9651 -0.3676 -0.3585
   58MOL0     C 7709   2.295  11.142   3.811 -0.1163 -0.1016  0.6992
   58MOL0     C 7710   2.355  11.110   3.948 -0.2993 -0.2556 -0.0691
   58MOL0     C 7711   2.435  11.234   4.002  0.3977 -0.8041  0.1263
   58MOL0     N 7712   2.353  11.331   4.070  0.1873  0.1640  0.5738
   58MOL0     C 7713   2.268  11.304   4.171  0.2119  0.3840 -0.3270
   58MOL0     C 7714   2.244  11.429   4.220  0.4288 -1.3807  0.6667
   58MOL0     C 7715   2.159  11.471   4.338  0.0801  0.0009  0.3309
   58MOL0     C 7716   2.014  11.471   4.303 -0.2357  0.1191  0.6797
   58MOL0     C 7717   1.959  11.324   4.281 -0.9681  0.2807 -0.0509
   58MOL0     C 7718   1.973  11.239   4.407  0.2227  0.4119 -0.0093
   58MOL0     O 7719   2.108  11.186   4.408 -0.9619 -0.5165  0.2727
   58MOL0     C 7720   2.140  11.101   4.515  0.1309 -0.5074  0.1174
   58MOL0     C 7721   2.067  11.096   4.634  0.6201 -0.4057 -0.4387
   58MOL0     C 7722   2.108  11.018   4.739  0.6567  0.8246  0.0930
   58MOL0     C 7723   2.022  11.015   4.856  0.2967 -0.1404  0.5176
   58MOL0     C 7724   2.214  10.923   4.719 -0.1228  0.1079 -0.2324
   58MOL0     C 7725   2.260  10.828   4.833 -0.1411 -0.0598 -0.5407
   58MOL0     O 7726   2.383  10.774   4.808 -0.3163  0.0339  0.5405
   58MOL0     C 7727   2.453  10.679   4.883 -1.0478  0.2031  0.2279
   58MOL0     C 7728   2.518  10.579   4.807  0.0428 -0.9933  0.5026
   58MOL0     C 7729   2.602  10.496   4.880 -0.0985  1.4256  0.0604
   58MOL0     C 7730   2.619  10.499   5.021  0.0410  0.1101  0.0211
   58MOL0     O 7731   2.690  10.396   5.073 -1.1372 -0.3149  0.7973
   58MOL0     C 7732   2.786  10.440   5.171 -0.1555 -0.1777 -0.3238
   58MOL0     C 7733   2.896  10.342   5.158  0.6347  0.1966 -0.3996
   58MOL0     C 7734   3.018  10.367   5.249  0.3064  0.7751 -0.1441
   58MOL0     C 7735   2.987  10.300   5.391 -0.0938 -0.2001 -0.1060
   58MOL0     C 7736   3.085  10.355   5.497  0.2630 -0.3721  0.1893
   58MOL0     C 7737   3.228  10.365   5.452 -0.4941  0.6116 -0.0896
   58MOL0     C 7738   3.332  10.379   5.558 -0.2396  0.1181 -0.4009
   58MOL0     C 7739   3.480  10.361   5.509 -0.5814 -0.1161  0.3885
   58MOL0    Cl 7740   3.491  10.493   5.392  0.6467  0.0855 -0.0147
   58MOL0     C 7741   2.552  10.595   5.093  0.7125 -0.4931 -0.1912
   58MOL0     C 7742   2.470  10.691   5.024  0.3402  0.8992  0.5115
   58MOL0     O 7743   2.184  10.793   4.925 -0.0115 -0.1207 -0.3628
   58MOL0     C 7744   2.301  10.936   4.608 -0.1416  0.9021  0.3837
   58MOL0     C 7745   2.257  11.023   4.505 -0.2145  0.3720 -0.6689
   58MOL0     N 7746   2.312  11.520   4.145  0.0359 -0.1878 -0.8220
   58MOL0     N 7747   2.384  11.459   4.062 -0.1777 -0.6321  0.6635
   58MOL0     C 7748   2.720  11.479   3.089 -0.0531  0.2338 -0.6345
   58MOL0     C 7749   2.816  11.475   2.986  0.3375  0.1777  0.1499
   58MOL0     C 7750   3.098  11.334   2.686  0.4442  0.2383  0.1556
   58MOL0     C 7751   3.203  11.245   2.677 -0.8141  0.3906 -0.5690
   58MOL0     C 7752   3.310  11.267   2.586  0.3956  0.8835 -0.6026
   58MOL0     C 7753   3.312  11.377   2.500  0.8718  0.0951  0.3058
   58MOL0     O 7754   3.430  11.384   2.440  0.4468 -0.5440  0.3978
   58MOL0     C 7755   3.461  11.493   2.347  0.4548  1.5547  0.4176
   58MOL0     C 7756   3.600  11.490   2.287  0.1797  0.9082  0.7111
   58MOL0     C 7757   3.621  11.368   2.192 -0.1039  0.7824 -0.5439
   58MOL0     C 7758   3.630  11.228   2.259  0.1634 -0.9166  0.8546
   58MOL0     C 7759   3.653  11.130   2.148  0.9761  0.7252  0.4219
   58MOL0     C 7760   3.667  11.028   2.084  0.0378  0.7088  0.6587
   58MOL0     C 7761   3.207  11.463   2.509  0.7008  1.1291 -0.0462
   58MOL0     C 7762   3.095  11.438   2.590 -0.2996 -1.0881  0.7495
   58MOL0     H 7763   2.701  11.241   2.793 -0.1536  1.0012 -0.5537
   58MOL0     H 7764   2.522  11.232   2.986  1.0657 -1.9828 -1.7610
   58MOL0     H 7765   2.343  11.314   3.134 -0.8857  2.9027  0.3943
   58MOL0     H 7766   2.473  11.202   3.202  2.3899  2.0956 -1.6538
   58MOL0     H 7767   2.295  11.400   3.371  4.1905  2.2612 -0.1928
   58MOL0     H 7768   2.263  11.233   3.332  1.0500 -1.4913 -1.5359
   58MOL0     H 7769   2.496  11.173   3.434  0.5135  0.8920 -0.2818
   58MOL0     H 7770   2.494  11.333   3.503 -1.7615  1.2250  2.9610
   58MOL0     H 7771   2.247  11.264   3.586  0.7047  2.2694 -2.6623
   58MOL0     H 7772   2.288  11.101   3.527  1.0513 -0.1257 -0.3905
   58MOL0     H 7773   2.439  11.046   3.688 -0.3613 -0.7917 -2.6977
   58MOL0     H 7774   2.469  11.220   3.724 -0.1631  0.1987  1.5400
   58MOL0     H 7775   2.232  11.231   3.807  0.4460  0.2581 -0.8864
   58MOL0     H 7776   2.234  11.054   3.791 -0.0350  0.1145 -0.6110
   58MOL0     H 7777   2.273  11.072   4.010  0.3819 -0.6114  0.6265
   58MOL0     H 7778   2.420  11.023   3.939 -4.8223 -4.0227  0.0528
   58MOL0     H 7779   2.482  11.278   3.913  0.1650  1.4122  1.0573
   58MOL0     H 7780   2.516  11.193   4.063  0.0063 -0.8864  0.5957
   58MOL0     H 7781   2.219  11.211   4.200  0.5854  0.5176  0.7622
   58MOL0     H 7782   2.185  11.408   4.423  0.2445 -1.6291 -0.8819
   58MOL0     H 7783   2.191  11.573   4.363 -2.1074  0.7938  0.1254
   58MOL0     H 7784   2.000  11.537   4.217 -1.8199  0.4729  1.1755
   58MOL0     H 7785   1.969  11.521   4.389  2.9069  0.5538  2.2316
   58MOL0     H 7786   2.010  11.280   4.195 -1.1045  0.6365 -0.3150
   58MOL0     H 7787   1.853  11.340   4.261 -1.4172  1.3275  2.6980
   58MOL0     H 7788   1.904  11.153   4.405  1.0929 -0.3186  0.5900
   58MOL0     H 7789   1.954  11.303   4.494  1.3026  1.4504 -0.5147
   58MOL0     H 7790   1.979  11.159   4.643  2.4201  2.0333  0.9775
   58MOL0     H 7791   1.954  11.100   4.845  2.2926  1.3995 -0.4992
   58MOL0     H 7792   1.961  10.924   4.855  0.3680 -0.1996 -0.6669
   58MOL0     H 7793   2.082  11.024   4.947 -1.4368 -1.8548  1.9222
   58MOL0     H 7794   2.515  10.573   4.699  0.4341  0.9471  0.3484
   58MOL0     H 7795   2.657  10.424   4.821  0.1466 -0.3918  2.3680
   58MOL0     H 7796   2.822  10.543   5.163 -0.3269  0.0729  1.5901
   58MOL0     H 7797   2.739  10.436   5.270 -0.3979  0.1996 -0.4204
   58MOL0     H 7798   2.843  10.247   5.162  0.6217  0.2271  0.2489
   58MOL0     H 7799   2.933  10.356   5.056 -0.7682  1.8911 -0.7080
   58MOL0     H 7800   3.024  10.475   5.266 -2.2463  0.4489  4.7553
   58MOL0     H 7801   3.115  10.334   5.210 -0.2318  1.4072 -2.1193
   58MOL0     H 7802   2.881  10.316   5.412 -0.0235 -1.2593  1.2060
   58MOL0     H 7803   3.003  10.192   5.385  0.1454 -0.0895 -2.5985
   58MOL0     H 7804   3.088  10.290   5.585 -3.8594 -0.4282  0.4633
   58MOL0     H 7805   3.048  10.453   5.530  1.3317 -0.6304  2.3851
   58MOL0     H 7806   3.258  10.268   5.412  0.5894  0.4938  0.9562
   58MOL0     H 7807   3.251  10.439   5.374 -1.3946  0.1559 -0.8064
   58MOL0     H 7808   3.319  10.313   5.645  2.9606  1.4574  1.2676
   58MOL0     H 7809   3.318  10.477   5.603  0.6798 -0.3383  0.9583
   58MOL0     H 7810   3.492  10.266   5.457  1.0537  0.7665 -0.9281
   58MOL0     H 7811   3.559  10.371   5.584  0.5521  2.2355 -0.9814
   58MOL0     H 7812   2.564  10.605   5.200  2.0429  0.0486 -0.3683
   58MOL0     H 7813   2.418  10.767   5.082 -1.2592  0.4244 -0.2532
   58MOL0     H 7814   2.393  10.883   4.587 -1.2661 -1.0762  0.2014
   58MOL0     H 7815   2.310  11.033   4.411  1.8489  3.8199  0.6921
   58MOL0     H 7816   2.745  11.547   3.170 -2.0427 -0.3449  0.5335
   58MOL0     H 7817   2.911  11.529   2.983  1.5319 -1.8001  0.7926
   58MOL0     H 7818   3.206  11.165   2.751 -0.3006  1.9518  1.1620
   58MOL0     H 7819   3.392  11.196   2.591 -0.0379  0.4540  2.1135
   58MOL0     H 7820   3.391  11.500   2.263  1.3104  2.6373 -0.2295
   58MOL0     H 7821   3.444  11.591   2.392 -0.8753  1.5471 -0.0118
   58MOL0     H 7822   3.673  11.487   2.369 -0.6683  1.7363  1.5305
   58MOL0     H 7823   3.621  11.577   2.225 -3.6443 -0.3619 -2.8318
   58MOL0     H 7824   3.718  11.389   2.147 -0.0514  0.7925 -0.4280
   58MOL0     H 7825   3.536  11.365   2.123 -0.1219 -2.3249 -0.5076
   58MOL0     H 7826   3.542  11.211   2.322 -0.4249 -0.7936  0.0899
   58MOL0     H 7827   3.716  11.234   2.327  0.5071 -2.5829  0.6062
   58MOL0     H 7828   3.666  10.931   2.039  1.4589  2.1932 -2.8867
   58MOL0     H 7829   3.217  11.556   2.454  0.9478 -0.5876 -3.1234
   58MOL0     H 7830   3.013  11.508   2.576 -1.7850 -2.3952  2.3868
   59MOL0     O 7831   1.411   0.405   1.616 -0.4101 -0.0304  0.3622
   59MOL0     C 7832   1.464   0.300   1.568 -0.4731  0.0170 -1.0836
   59MOL0     O 7833   1.501   0.286   1.438 -0.2678 -0.7032 -0.7347
   59MOL0     C 7834   1.496   0.398   1.351 -0.1944  0.8281 -0.1123
   59MOL0     C 7835   1.585   0.498   1.338  0.2824  0.2088  0.9984
   59MOL0     C 7836   1.569   0.598   1.238 -0.1743 -0.4462 -0.0222
   59MOL0     C 7837   1.454   0.605   1.160 -0.1253 -0.3270  1.0588
   59MOL0     O 7838   1.424   0.712   1.080 -0.0686 -0.4244  0.3762
   59MOL0     C 7839   1.307   0.717   0.997 -0.4564  0.2467 -0.9704
   59MOL0     C 7840   1.307   0.834   0.904 -0.4240  0.4767  0.5741
   59MOL0     C 7841   1.337   0.959   0.980 -0.4846 -0.6815  0.1972
   59MOL0     C 7842   1.309   1.090   0.883  0.0874  0.1933 -1.5200
   59MOL0     C 7843   1.312   1.221   0.962  0.4714 -0.7837  0.3883
   59MOL0     C 7844   1.188   1.247   1.053 -1.0205  0.2867 -0.0578
   59MOL0     C 7845   1.209   1.383   1.115 -0.2729  0.3202 -0.3634
   59MOL0     C 7846   1.134   1.399   1.246  0.5010 -0.3605  0.0905
   59MOL0     N 7847   0.992   1.358   1.249 -0.1157  0.2206  0.3063
   59MOL0     C 7848   0.892   1.393   1.161  0.6647  0.3214  0.2020
   59MOL0     C 7849   0.778   1.349   1.219 -0.3171 -0.5468 -0.4548
   59MOL0     C 7850   0.653   1.340   1.140 -0.7389 -0.0027  0.7994
   59MOL0     C 7851   0.596   1.461   1.055 -0.4911 -0.4646  0.2362
   59MOL0     C 7852   0.567   1.596   1.130 -0.2102  0.3090  0.2521
   59MOL0     C 7853   0.493   1.568   1.262 -0.3839 -0.9442  0.0791
   59MOL0     O 7854   0.366   1.501   1.244 -0.0536 -0.1862  0.7212
   59MOL0     C 7855   0.262   1.563   1.189  0.1267  0.0899 -0.9194
   59MOL0     C 7856   0.249   1.691   1.159 -0.2743 -0.1768  0.6486
   59MOL0     C 7857   0.137   1.749   1.096  0.1894 -0.1100  0.4258
   59MOL0     C 7858   0.158   1.892   1.055  0.2008 -0.1490  0.2382
   59MOL0     C 7859   0.019   1.669   1.074  0.3096 -0.8070 -0.2896
   59MOL0     C 7860  -0.109   1.723   1.018  0.3148 -0.4129  0.0209
   59MOL0     O 7861  -0.201   1.629   0.988  0.4012 -0.4592 -0.7168
   59MOL0     C 7862  -0.334   1.672   0.990  0.6404  0.5703  0.2580
   59MOL0     C 7863  -0.394   1.693   0.870  0.7451 -0.6406  0.2788
   59MOL0     C 7864  -0.528   1.740   0.867  0.0445  0.1510 -1.4531
   59MOL0     C 7865  -0.604   1.746   0.986  0.0224  0.3309 -0.3453
   59MOL0     O 7866  -0.736   1.774   0.975 -0.8271 -0.3450  0.0820
   59MOL0     C 7867  -0.825   1.715   1.074 -0.4191 -0.6100 -0.5379
   59MOL0     C 7868  -0.978   1.721   1.020 -0.6611 -0.5277 -0.2262
   59MOL0     C 7869  -1.097   1.702   1.122 -0.2583 -0.7266  0.2176
   59MOL0     C 7870  -1.231   1.696   1.039  0.8042  0.2637  0.5648
   59MOL0     C 7871  -1.350   1.671   1.132 -0.2218  0.6233  1.1078
   59MOL0     C 7872  -1.485   1.702   1.066 -0.3545  0.0313  0.0644
   59MOL0     C 7873  -1.602   1.644   1.140  0.0562  0.2628  0.4485
   59MOL0     C 7874  -1.649   1.744   1.251 -0.2109  0.4375  0.0567
   59MOL0    Cl 7875  -1.748   1.876   1.186 -0.1644 -0.2135 -0.1491
   59MOL0     C 7876  -0.542   1.704   1.109  0.8824  0.0485 -0.5429
   59MOL0     C 7877  -0.405   1.676   1.111 -0.6062 -0.5509  0.1287
   59MOL0     O 7878  -0.125   1.849   0.997 -0.3264  0.0297  0.2760
   59MOL0     C 7879   0.029   1.537   1.108 -0.6029  0.4635  0.0731
   59MOL0     C 7880   0.155   1.488   1.157  0.1229 -0.0315  0.0107
   59MOL0     N 7881   0.812   1.293   1.339  0.0797 -0.2078 -0.4609
   59MOL0     N 7882   0.938   1.291   1.351 -0.1295  0.4241 -0.4822
   59MOL0     C 7883   1.368   0.496   1.161  0.9535  0.0791 -0.6005
   59MOL0     C 7884   1.395   0.390   1.254 -0.3979  0.5358  0.2882
   59MOL0     C 7885   1.501   0.191   1.670 -0.1542  0.7925 -0.1507
   59MOL0     C 7886   1.485   0.054   1.639 -0.1554 -0.2362  0.2207
   59MOL0     C 7887   1.525  -0.038   1.724  0.6163  1.0497 -0.0634
   59MOL0     C 7888   1.566  -0.006   1.855  0.0916 -1.1505 -0.0787
   59MOL0     O 7889   1.591  -0.101   1.953 -0.9013  0.2675  0.9880
   59MOL0     C 7890   1.569  -0.073   2.087 -0.1337  0.4329  0.1607
   59MOL0     C 7891   1.422  -0.103   2.141 -0.8347  0.0597 -0.5387
   59MOL0     C 7892   1.392  -0.256   2.126 -0.8229 -0.0904  0.1870
   59MOL0     C 7893   1.243  -0.273   2.150  0.7591  0.0256  0.0785
   59MOL0     C 7894   1.157  -0.220   2.046 -0.1889 -1.5784 -0.5078
   59MOL0     C 7895   1.079  -0.185   1.960  0.3530  0.6414  1.0755
   59MOL0     C 7896   1.561   0.128   1.894  0.0550  0.5073  0.6456
   59MOL0     C 7897   1.533   0.227   1.801 -0.2804  0.9008 -0.3474
   59MOL0     H 7898   1.673   0.506   1.401 -0.6494  2.7902  2.1036
   59MOL0     H 7899   1.650   0.670   1.244  1.9560 -2.7887  1.0451
   59MOL0     H 7900   1.285   0.623   0.947 -1.0904  0.4411 -1.0610
   59MOL0     H 7901   1.226   0.723   1.069  0.5401  0.8513  0.1401
   59MOL0     H 7902   1.392   0.809   0.839  0.3757  1.8514  1.0367
   59MOL0     H 7903   1.213   0.847   0.851 -0.9754  0.1235  1.4551
   59MOL0     H 7904   1.275   0.966   1.070 -1.5759  0.7650 -0.6150
   59MOL0     H 7905   1.441   0.959   1.011 -1.0601  2.3121  2.5830
   59MOL0     H 7906   1.392   1.094   0.812 -1.2723 -2.1861 -3.3830
   59MOL0     H 7907   1.212   1.085   0.833 -0.1648  1.8120 -1.2594
   59MOL0     H 7908   1.410   1.226   1.010  0.4604  0.4119  0.3211
   59MOL0     H 7909   1.316   1.301   0.888  0.2188 -0.5631  0.6114
   59MOL0     H 7910   1.097   1.250   0.992 -1.9512  0.3699  1.2938
   59MOL0     H 7911   1.178   1.168   1.128  2.1008  0.2055  0.3805
   59MOL0     H 7912   1.317   1.396   1.127 -0.3226  0.3107  0.1350
   59MOL0     H 7913   1.180   1.456   1.040 -1.4949 -2.3301 -2.6785
   59MOL0     H 7914   1.136   1.506   1.266 -2.3793 -0.2386  0.1515
   59MOL0     H 7915   1.183   1.349   1.330  0.3210  1.5700  1.4116
   59MOL0     H 7916   0.907   1.443   1.066 -0.4981 -0.4277 -0.4065
   59MOL0     H 7917   0.656   1.246   1.084 -0.4799 -0.6254  1.8317
   59MOL0     H 7918   0.581   1.316   1.219  0.3110 -0.4638  1.6365
   59MOL0     H 7919   0.512   1.441   0.988 -1.0849  1.2259  0.4130
   59MOL0     H 7920   0.670   1.490   0.980  0.4316 -0.7319  1.0287
   59MOL0     H 7921   0.505   1.658   1.065 -0.2286 -1.1938 -1.2527
   59MOL0     H 7922   0.654   1.659   1.153  1.4736 -1.7656 -0.0862
   59MOL0     H 7923   0.482   1.670   1.300 -1.1526 -0.7292 -0.6847
   59MOL0     H 7924   0.547   1.509   1.336 -1.7121 -0.0473  1.8248
   59MOL0     H 7925   0.333   1.754   1.187 -0.6365  0.3804  0.4912
   59MOL0     H 7926   0.263   1.923   1.047 -0.9867  4.4171 -0.9496
   59MOL0     H 7927   0.114   1.905   0.955  0.5540 -0.8409 -0.0117
   59MOL0     H 7928   0.109   1.965   1.121  1.6425  1.7182 -0.6723
   59MOL0     H 7929  -0.346   1.675   0.774  1.3729  0.1688  0.4262
   59MOL0     H 7930  -0.575   1.762   0.771  0.8060 -2.7725 -2.5940
   59MOL0     H 7931  -0.789   1.613   1.087  0.8587 -0.2924 -1.3419
   59MOL0     H 7932  -0.828   1.760   1.174  1.3215 -2.5443  0.4744
   59MOL0     H 7933  -0.987   1.815   0.965 -4.7050 -1.3994 -1.3316
   59MOL0     H 7934  -0.993   1.652   0.937 -0.8603 -0.3415 -0.3465
   59MOL0     H 7935  -1.094   1.788   1.190  2.0357  0.0840 -0.8104
   59MOL0     H 7936  -1.090   1.614   1.186  1.9235 -0.1925  0.7833
   59MOL0     H 7937  -1.244   1.792   0.989  3.0841  0.0498 -0.5624
   59MOL0     H 7938  -1.220   1.612   0.970  3.0948 -1.4977  2.8739
   59MOL0     H 7939  -1.350   1.727   1.226  0.3684 -0.9118  2.0665
   59MOL0     H 7940  -1.351   1.568   1.168 -0.0727  0.9121  1.9618
   59MOL0     H 7941  -1.513   1.805   1.045  0.8386  0.9714  2.7221
   59MOL0     H 7942  -1.472   1.640   0.976  4.5522 -2.6396  2.2152
   59MOL0     H 7943  -1.570   1.551   1.187  4.5167  0.2562 -2.1034
   59MOL0     H 7944  -1.677   1.625   1.063 -2.1287 -0.1735  2.5494
   59MOL0     H 7945  -1.561   1.779   1.305 -0.5260 -0.7758  1.3856
   59MOL0     H 7946  -1.710   1.681   1.316  1.8020 -1.4987  0.1579
   59MOL0     H 7947  -0.599   1.709   1.202 -0.9359  2.2257 -1.6606
   59MOL0     H 7948  -0.374   1.649   1.211  0.1840 -2.0222 -0.4829
   59MOL0     H 7949  -0.045   1.462   1.086 -0.8296  0.7581 -0.1816
   59MOL0     H 7950   0.166   1.384   1.189  0.4179  0.6306  2.2471
   59MOL0     H 7951   1.273   0.497   1.108  1.6685 -0.8116 -1.9542
   59MOL0     H 7952   1.325   0.307   1.253  0.0309  0.1672  0.7548
   59MOL0     H 7953   1.432   0.028   1.548 -1.4333  0.1067  0.8537
   59MOL0     H 7954   1.501  -0.143   1.711 -0.6149  1.0986  1.5335
   59MOL0     H 7955   1.637  -0.140   2.139  0.1724 -1.0966 -2.0616
   59MOL0     H 7956   1.600   0.026   2.123  0.7099 -0.1350  1.0166
   59MOL0     H 7957   1.347  -0.031   2.105 -0.0687  1.8662  1.2863
   59MOL0     H 7958   1.427  -0.083   2.248  1.7666  1.7242 -0.8756
   59MOL0     H 7959   1.448  -0.299   2.209  2.0208 -1.0771 -2.0652
   59MOL0     H 7960   1.429  -0.303   2.034  0.8151 -0.7650  1.1532
   59MOL0     H 7961   1.218  -0.228   2.246  3.3069  2.9055 -0.4448
   59MOL0     H 7962   1.221  -0.380   2.157  3.2987 -0.5335  0.6387
   59MOL0     H 7963   1.010  -0.177   1.879  0.3157 -5.5736  0.0102
   59MOL0     H 7964   1.579   0.171   1.992  0.5977 -0.5261  1.0039
   59MOL0     H 7965   1.534   0.333   1.827 -1.8855  0.5910  1.1937
   60MOL0     O 7966   3.582   4.710   1.150 -0.1857 -0.0716 -0.2292
   60MOL0     C 7967   3.676   4.745   1.224  0.3614  0.4580  0.4282
   60MOL0     O 7968   3.749   4.854   1.211 -0.6470 -0.0033  0.1743
   60MOL0     C 7969   3.711   4.939   1.108 -1.1013  0.1713 -0.1219
   60MOL0     C 7970   3.723   4.919   0.972 -0.1781 -0.2735 -0.9470
   60MOL0     C 7971   3.664   5.005   0.880 -1.0703 -1.3305 -0.0750
   60MOL0     C 7972   3.603   5.121   0.926 -1.0385  0.1294  0.2454
   60MOL0     O 7973   3.566   5.210   0.830 -0.0149  0.3974 -0.2351
   60MOL0     C 7974   3.428   5.201   0.796 -0.4675  0.3009 -1.1140
   60MOL0     C 7975   3.343   5.303   0.864 -0.2561  0.6505 -0.5588
   60MOL0     C 7976   3.194   5.272   0.829 -0.1780 -0.4173  0.6161
   60MOL0     C 7977   3.103   5.374   0.898  0.7376  0.3316 -0.1718
   60MOL0     C 7978   2.973   5.387   0.819  0.6426  0.1062 -0.1205
   60MOL0     C 7979   2.889   5.255   0.831 -0.0177 -0.0247  0.5905
   60MOL0     C 7980   2.741   5.272   0.780  1.0936  0.4821  0.1014
   60MOL0     C 7981   2.652   5.332   0.886  0.7466 -0.1637 -0.4175
   60MOL0     N 7982   2.509   5.327   0.865  0.4623  0.1922  0.2532
   60MOL0     C 7983   2.429   5.228   0.914  0.3846  0.7396  0.1299
   60MOL0     C 7984   2.310   5.251   0.860  0.6423  0.6033  0.1065
   60MOL0     C 7985   2.206   5.147   0.860 -0.1687 -0.5690 -0.3737
   60MOL0     C 7986   2.180   5.080   0.730  0.9442  0.0968 -0.4912
   60MOL0     C 7987   2.061   4.978   0.726 -0.6877 -0.4203  0.6741
   60MOL0     C 7988   2.054   4.871   0.826  0.5041 -0.2561  0.4495
   60MOL0     O 7989   1.914   4.835   0.838  0.1706 -0.3955 -0.1912
   60MOL0     C 7990   1.860   4.734   0.769 -0.2226 -1.0077 -0.2956
   60MOL0     C 7991   1.913   4.659   0.660 -0.1698  0.4220 -0.1762
   60MOL0     C 7992   1.834   4.551   0.600 -0.4537 -1.3142 -0.1030
   60MOL0     C 7993   1.896   4.490   0.474  0.7264 -0.1249 -0.0208
   60MOL0     C 7994   1.700   4.523   0.646  0.3266 -0.8686  0.8138
   60MOL0     C 7995   1.605   4.426   0.590 -0.1003  0.0761 -0.6104
   60MOL0     O 7996   1.476   4.458   0.613 -0.1765  0.2869 -0.8382
   60MOL0     C 7997   1.382   4.380   0.555  0.1851  0.3531  0.1427
   60MOL0     C 7998   1.382   4.336   0.414  0.1419 -0.8476 -0.2708
   60MOL0     C 7999   1.267   4.268   0.370  0.4317  0.4889  0.1129
   60MOL0     C 8000   1.157   4.242   0.444  0.8692 -1.1371  0.0445
   60MOL0     O 8001   1.059   4.167   0.381  0.6860  0.0674 -0.4893
   60MOL0     C 8002   0.962   4.089   0.461  0.1932  0.2595 -0.4290
   60MOL0     C 8003   0.861   4.005   0.378  0.3662 -0.3102 -0.1929
   60MOL0     C 8004   0.731   3.959   0.455  0.6187  0.1571  0.3211
   60MOL0     C 8005   0.747   3.908   0.601  0.9212  0.0814 -0.8304
   60MOL0     C 8006   0.628   3.914   0.701  0.6014 -0.3116 -0.7954
   60MOL0     C 8007   0.655   4.027   0.796  0.1080 -1.2497  0.4086
   60MOL0     C 8008   0.655   4.168   0.724 -0.4474 -0.3088 -0.2935
   60MOL0     C 8009   0.723   4.267   0.824  0.2314 -0.0503  0.2019
   60MOL0    Cl 8010   0.683   4.429   0.769 -0.0957 -0.2350  0.0685
   60MOL0     C 8011   1.149   4.293   0.571 -0.5003  0.1169 -0.3103
   60MOL0     C 8012   1.261   4.364   0.631 -0.2501 -0.3424 -0.3193
   60MOL0     O 8013   1.646   4.338   0.509  0.4552  0.7165  0.9254
   60MOL0     C 8014   1.648   4.606   0.753 -0.4118 -0.0970  0.2434
   60MOL0     C 8015   1.729   4.705   0.820 -0.8237 -0.1073  0.3283
   60MOL0     N 8016   2.317   5.365   0.776 -0.5248  0.7666 -0.2027
   60MOL0     N 8017   2.440   5.409   0.778 -0.6755  0.1749  0.4634
   60MOL0     C 8018   3.580   5.143   1.059  0.3572  0.0462 -1.2906
   60MOL0     C 8019   3.644   5.054   1.151 -0.5849  0.1245  0.2336
   60MOL0     C 8020   3.720   4.656   1.328  0.4408  0.6024  0.1391
   60MOL0     C 8021   3.629   4.563   1.383  0.2902 -0.8153  0.8736
   60MOL0     C 8022   3.673   4.482   1.483 -0.7076  0.2681  0.1127
   60MOL0     C 8023   3.801   4.487   1.533 -0.7553  0.9006  0.1457
   60MOL0     O 8024   3.846   4.410   1.637 -0.3361  0.3898  0.0629
   60MOL0     C 8025   3.752   4.390   1.746 -0.2867  0.5864  0.3819
   60MOL0     C 8026   3.702   4.512   1.821  0.2123  0.3258  0.0199
   60MOL0     C 8027   3.807   4.589   1.910 -0.5860 -0.0365 -0.6379
   60MOL0     C 8028   3.769   4.743   1.894  0.2034  0.6486 -0.5739
   60MOL0     C 8029   3.802   4.812   2.022  0.6987 -0.6128  0.2553
   60MOL0     C 8030   3.845   4.870   2.124 -0.8221 -0.0332 -0.6503
   60MOL0     C 8031   3.899   4.576   1.480  0.4163 -0.5002  0.5499
   60MOL0     C 8032   3.860   4.662   1.378 -0.6882  0.7845  0.1371
   60MOL0     H 8033   3.774   4.828   0.942 -0.7897 -0.5863 -1.0751
   60MOL0     H 8034   3.674   4.999   0.772 -0.3980  2.9599 -0.4148
   60MOL0     H 8035   3.415   5.207   0.688 -1.4316  1.7840 -0.9605
   60MOL0     H 8036   3.382   5.106   0.826  0.0747  0.4230  0.1826
   60MOL0     H 8037   3.352   5.302   0.973 -1.2705 -0.2320 -0.4625
   60MOL0     H 8038   3.369   5.402   0.825 -0.5691  1.9003  2.1692
   60MOL0     H 8039   3.188   5.280   0.720  2.8169 -0.5753  0.3599
   60MOL0     H 8040   3.152   5.177   0.863 -3.1167  1.2199  1.9510
   60MOL0     H 8041   3.065   5.356   0.999 -3.7287 -1.6864 -1.9340
   60MOL0     H 8042   3.153   5.471   0.903  0.7046  0.2824  1.6795
   60MOL0     H 8043   2.921   5.477   0.856 -0.4557 -0.3156 -0.6225
   60MOL0     H 8044   2.996   5.404   0.714 -1.1007  0.1778 -0.5146
   60MOL0     H 8045   2.930   5.187   0.755 -0.4904 -0.8058  1.0249
   60MOL0     H 8046   2.890   5.195   0.923 -4.3201 -0.1474  0.7694
   60MOL0     H 8047   2.726   5.326   0.686 -3.3222  0.5299  0.6301
   60MOL0     H 8048   2.696   5.174   0.761  0.2852  0.4417  2.0159
   60MOL0     H 8049   2.671   5.440   0.885  1.5481 -0.3025 -0.6236
   60MOL0     H 8050   2.673   5.278   0.979 -2.7506 -4.0709 -1.5624
   60MOL0     H 8051   2.465   5.148   0.978 -2.6792 -0.7408  0.1542
   60MOL0     H 8052   2.239   5.083   0.942  3.4152 -2.8162 -3.2969
   60MOL0     H 8053   2.112   5.195   0.891  0.6824  0.9627 -0.0468
   60MOL0     H 8054   2.268   5.027   0.692  1.8690  0.5984  0.8861
   60MOL0     H 8055   2.176   5.163   0.659  0.6499  1.3379  0.9295
   60MOL0     H 8056   2.058   4.933   0.627  3.2703  0.7990 -0.1438
   60MOL0     H 8057   1.969   5.037   0.733 -0.0029  1.1600 -2.2268
   60MOL0     H 8058   2.082   4.902   0.927  0.5558  2.0008 -0.1830
   60MOL0     H 8059   2.121   4.789   0.801 -0.9256 -1.5434  0.7079
   60MOL0     H 8060   2.014   4.670   0.623  0.6719  1.1576  2.1279
   60MOL0     H 8061   1.897   4.381   0.489 -1.2633 -0.4357 -1.6667
   60MOL0     H 8062   1.839   4.507   0.382 -1.8935 -1.0287  1.3097
   60MOL0     H 8063   2.002   4.515   0.476  1.2023 -2.0483  1.6158
   60MOL0     H 8064   1.458   4.360   0.341  0.2844 -0.2500  0.0603
   60MOL0     H 8065   1.273   4.233   0.267 -3.2897 -2.0412  0.5356
   60MOL0     H 8066   1.011   4.028   0.538 -0.9392 -0.9908 -0.6715
   60MOL0     H 8067   0.900   4.164   0.510  0.8948  0.9269 -0.5425
   60MOL0     H 8068   0.811   4.045   0.289 -0.8291 -0.2868  0.4574
   60MOL0     H 8069   0.901   3.908   0.348  0.0893  0.7443 -4.7983
   60MOL0     H 8070   0.677   3.878   0.406  0.5218 -0.6160  1.6614
   60MOL0     H 8071   0.662   4.042   0.471 -3.3686 -3.0091  1.1212
   60MOL0     H 8072   0.775   3.802   0.603  0.5682 -0.0437  2.0826
   60MOL0     H 8073   0.819   3.976   0.647 -1.7784  1.7737  1.1849
   60MOL0     H 8074   0.624   3.823   0.761 -0.9608  0.2321 -0.0217
   60MOL0     H 8075   0.536   3.926   0.643  0.6833  0.0300 -0.8591
   60MOL0     H 8076   0.567   4.033   0.861  1.0809 -1.5373  1.7877
   60MOL0     H 8077   0.738   4.005   0.864 -0.0180 -0.3620  0.8661
   60MOL0     H 8078   0.550   4.193   0.711 -0.6672 -0.2779  1.2589
   60MOL0     H 8079   0.701   4.165   0.625  1.7896 -1.8509  0.6891
   60MOL0     H 8080   0.831   4.252   0.832  0.5378  2.2953  1.4647
   60MOL0     H 8081   0.690   4.254   0.928  2.9080  1.6041  1.3559
   60MOL0     H 8082   1.055   4.271   0.620  0.2782  0.9654  1.6378
   60MOL0     H 8083   1.245   4.400   0.732  2.4390 -0.2167  0.1195
   60MOL0     H 8084   1.563   4.574   0.812 -0.8034  2.2351  1.0619
   60MOL0     H 8085   1.695   4.749   0.913 -1.1854 -2.1846  1.2412
   60MOL0     H 8086   3.522   5.229   1.092  5.0522  3.2641 -0.5192
   60MOL0     H 8087   3.648   5.075   1.257  1.1960 -1.8796  0.6345
   60MOL0     H 8088   3.527   4.563   1.344  0.5538  3.9426 -0.4433
   60MOL0     H 8089   3.605   4.402   1.508 -2.0721  1.8496  1.7862
   60MOL0     H 8090   3.660   4.342   1.712  0.1666  1.5733 -2.4600
   60MOL0     H 8091   3.808   4.332   1.820  0.3183 -0.0015 -0.5114
   60MOL0     H 8092   3.620   4.478   1.886  1.5595 -3.4395 -0.0072
   60MOL0     H 8093   3.654   4.577   1.748 -0.4434  1.0477  1.0709
   60MOL0     H 8094   3.910   4.571   1.877  0.3087  0.4859  1.6307
   60MOL0     H 8095   3.808   4.545   2.011  3.0186  1.4071  0.1076
   60MOL0     H 8096   3.661   4.745   1.880 -0.2401 -0.7029  1.9625
   60MOL0     H 8097   3.825   4.782   1.809  1.1824  0.3122 -0.0969
   60MOL0     H 8098   3.876   4.896   2.223 -5.7295  0.1272  1.1030
   60MOL0     H 8099   4.003   4.565   1.510  0.7825  1.0123 -0.1008
   60MOL0     H 8100   3.931   4.724   1.325 -1.8313  3.5961  1.6714
   61MOL0     O 8101   1.655   8.228  10.402 -0.1989  0.8793 -1.0085
   61MOL0     C 8102   1.733   8.190  10.487  0.0461 -0.5006 -0.3372
   61MOL0     O 8103   1.866   8.219  10.485  0.5853 -0.9250  0.0234
   61MOL0     C 8104   1.912   8.307  10.391  0.0489  0.4656 -0.6264
   61MOL0     C 8105   1.846   8.439  10.373 -1.4524 -0.5419  0.6853
   61MOL0     C 8106   1.905   8.520  10.270  0.1826  0.2409  0.0887
   61MOL0     C 8107   2.028   8.482  10.212 -0.7928  0.1727  0.5074
   61MOL0     O 8108   2.090   8.561  10.118  0.5584  1.1561  0.4529
   61MOL0     C 8109   2.196   8.647  10.167 -0.1475  0.2146 -0.9058
   61MOL0     C 8110   2.300   8.660  10.053 -0.6610  0.1764  0.5799
   61MOL0     C 8111   2.430   8.707  10.097 -0.2037 -0.5714 -0.0432
   61MOL0     C 8112   2.542   8.704   9.991 -0.6632  0.4725 -0.9326
   61MOL0     C 8113   2.677   8.734  10.064  0.0306 -0.0711  1.4986
   61MOL0     C 8114   2.800   8.763   9.977 -0.1722 -0.0929 -0.2038
   61MOL0     C 8115   2.939   8.752  10.052 -0.1871 -0.6317  0.6033
   61MOL0     C 8116   2.963   8.880  10.128  0.4652  0.4280 -0.0409
   61MOL0     N 8117   3.026   8.982  10.044 -0.1111 -0.2947  0.0848
   61MOL0     C 8118   3.163   8.980  10.027  0.2401  0.5056  0.4622
   61MOL0     C 8119   3.177   9.086   9.945  0.3341  0.9234  0.3900
   61MOL0     C 8120   3.297   9.142   9.892 -0.3359  0.6429  0.1017
   61MOL0     C 8121   3.347   9.265   9.967 -0.2272  0.1926 -0.1550
   61MOL0     C 8122   3.503   9.248   9.976  0.2788 -0.0683 -0.2662
   61MOL0     C 8123   3.575   9.371  10.039  0.1210 -0.2092  0.1700
   61MOL0     O 8124   3.542   9.404  10.175  0.4108 -0.3028 -0.1439
   61MOL0     C 8125   3.604   9.515  10.234 -0.3933  0.1004 -0.0686
   61MOL0     C 8126   3.541   9.584  10.339  0.3832  0.4111  0.1093
   61MOL0     C 8127   3.600   9.686  10.406  0.9808 -0.6542  0.5358
   61MOL0     C 8128   3.501   9.751  10.506 -0.2975  0.8359 -0.0348
   61MOL0     C 8129   3.733   9.721  10.384  0.5751  0.5189  0.5188
   61MOL0     C 8130   3.800   9.832  10.445 -1.2308  0.6609 -0.1312
   61MOL0     O 8131   3.752   9.877  10.563  0.5331  0.3239  0.0686
   61MOL0     C 8132   3.815   9.978  10.630 -0.3542  0.6324 -0.0666
   61MOL0     C 8133   3.916   9.940  10.717  0.2973 -0.2192  0.0755
   61MOL0     C 8134   3.972  10.036  10.807  0.2845  0.3606  0.5305
   61MOL0     C 8135   3.938  10.172  10.795  1.0264 -1.2111  0.0557
   61MOL0     O 8136   3.993  10.268  10.879  0.0582  0.8972 -0.9147
   61MOL0     C 8137   3.924  10.391  10.895  0.2386 -0.1873  0.5414
   61MOL0     C 8138   3.981  10.460  11.006 -0.2317  0.2544  0.3105
   61MOL0     C 8139   3.922  10.603  11.045  0.5427 -0.2460 -0.9446
   61MOL0     C 8140   3.795  10.592  11.121 -0.5519  0.3194 -0.3502
   61MOL0     C 8141   3.744  10.728  11.173  0.1764  0.2695 -0.2590
   61MOL0     C 8142   3.716  10.826  11.052  0.1571 -0.5694  0.2172
   61MOL0     C 8143   3.650  10.790  10.919 -0.4923  0.5582  0.7589
   61MOL0     C 8144   3.666  10.899  10.811 -0.8013  0.0184  0.5214
   61MOL0    Cl 8145   3.645  11.065  10.874  0.5440 -0.1838  0.0848
   61MOL0     C 8146   3.841  10.206  10.697  0.2260  0.4117 -0.6012
   61MOL0     C 8147   3.780  10.109  10.613  0.2440 -0.0275  0.0383
   61MOL0     O 8148   3.888   9.884  10.374 -0.5601 -0.1803 -0.1765
   61MOL0     C 8149   3.796   9.658  10.273 -0.6378  1.0063  0.3714
   61MOL0     C 8150   3.729   9.558  10.208 -0.4573  0.5064  0.3613
   61MOL0     N 8151   3.059   9.157   9.947 -0.0437  0.0794  0.3624
   61MOL0     N 8152   2.962   9.094   9.998  0.5242 -0.0199 -0.0209
   61MOL0     C 8153   2.082   8.354  10.232  0.3397  0.2439 -0.0653
   61MOL0     C 8154   2.023   8.270  10.321  0.2447 -0.3395  0.7441
   61MOL0     C 8155   1.679   8.100  10.599  0.0109 -0.4646 -0.6061
   61MOL0     C 8156   1.542   8.080  10.632 -0.3450  1.0570 -0.7974
   61MOL0     C 8157   1.510   7.983  10.735 -0.3378  0.7229 -0.7441
   61MOL0     C 8158   1.603   7.932  10.821  0.5144  0.2344 -0.2826
   61MOL0     O 8159   1.577   7.830  10.909  0.5685 -0.1036  0.1074
   61MOL0     C 8160   1.453   7.845  10.979 -0.5877 -0.2902 -0.5215
   61MOL0     C 8161   1.489   7.803  11.123  0.5162 -0.2418  0.4311
   61MOL0     C 8162   1.493   7.650  11.126  0.0689  0.1313  0.5028
   61MOL0     C 8163   1.512   7.586  11.268  0.5904 -0.0967 -0.7430
   61MOL0     C 8164   1.657   7.611  11.304  0.3922  0.0301  0.6047
   61MOL0     C 8165   1.773   7.601  11.335 -0.7071  0.3179  0.0072
   61MOL0     C 8166   1.735   7.962  10.795 -0.1928  0.4874  0.0504
   61MOL0     C 8167   1.771   8.048  10.697 -0.4876 -0.2702 -0.1819
   61MOL0     H 8168   1.760   8.478  10.427 -1.9576 -2.9989  1.7904
   61MOL0     H 8169   1.866   8.617  10.244  0.3307  0.8035  1.8710
   61MOL0     H 8170   2.158   8.746  10.195  0.7896 -0.2705  2.5887
   61MOL0     H 8171   2.251   8.604  10.251  0.4253 -1.8887 -2.2807
   61MOL0     H 8172   2.309   8.565  10.000 -1.1013  0.2545  0.3648
   61MOL0     H 8173   2.263   8.737   9.984 -0.3823 -0.2252 -0.0321
   61MOL0     H 8174   2.409   8.810  10.125  2.2587  0.4420 -1.5699
   61MOL0     H 8175   2.461   8.635  10.173  0.0933 -4.2125 -3.2529
   61MOL0     H 8176   2.532   8.601   9.955  0.7630 -0.7004  1.7466
   61MOL0     H 8177   2.520   8.777   9.913 -0.0183  0.2442 -1.3306
   61MOL0     H 8178   2.663   8.812  10.139  3.9962  0.0414  2.3291
   61MOL0     H 8179   2.706   8.647  10.123  2.6767 -1.4051 -1.4411
   61MOL0     H 8180   2.801   8.684   9.902 -0.5880  1.9575 -2.4843
   61MOL0     H 8181   2.783   8.859   9.929 -1.5676 -1.1995 -2.0543
   61MOL0     H 8182   2.935   8.663  10.115 -1.7988 -2.1433 -1.4765
   61MOL0     H 8183   3.016   8.745   9.975 -0.1336  2.4578  0.2737
   61MOL0     H 8184   3.034   8.864  10.210  3.1814  1.3301 -2.0716
   61MOL0     H 8185   2.873   8.929  10.166 -0.0517 -2.8664  3.6761
   61MOL0     H 8186   3.241   8.913  10.060 -1.0277 -2.6833 -2.3880
   61MOL0     H 8187   3.375   9.067   9.880 -0.7572  0.1411  0.4615
   61MOL0     H 8188   3.275   9.182   9.793  0.1493  4.1687  1.2536
   61MOL0     H 8189   3.310   9.262  10.070 -0.8195  3.7014 -0.1413
   61MOL0     H 8190   3.323   9.358   9.916  0.6510  1.6166  1.8628
   61MOL0     H 8191   3.550   9.255   9.878  0.7218  0.1601 -0.0426
   61MOL0     H 8192   3.539   9.161  10.031  1.1233 -0.2187 -1.0411
   61MOL0     H 8193   3.558   9.453   9.969 -1.6635  0.9108  1.8020
   61MOL0     H 8194   3.680   9.341  10.035 -0.3142 -1.7292 -3.1657
   61MOL0     H 8195   3.440   9.559  10.369 -0.0875  2.1898  0.0927
   61MOL0     H 8196   3.481   9.856  10.480  0.5737  0.7263 -1.2577
   61MOL0     H 8197   3.404   9.700  10.505 -0.2460  0.7330 -0.7298
   61MOL0     H 8198   3.529   9.744  10.611  0.4417  0.7170 -0.2318
   61MOL0     H 8199   3.949   9.836  10.720  2.3273  0.3274 -1.7045
   61MOL0     H 8200   4.056  10.010  10.870  1.6719 -2.4287 -2.1521
   61MOL0     H 8201   3.940  10.450  10.804 -2.4176 -1.0284 -0.5752
   61MOL0     H 8202   3.816  10.385  10.913 -0.2100  0.2187 -1.7395
   61MOL0     H 8203   3.970  10.398  11.096  1.4513 -1.5941 -0.6762
   61MOL0     H 8204   4.087  10.468  10.980 -0.0387  0.0592  1.0069
   61MOL0     H 8205   3.903  10.659  10.953  0.1526  0.0733 -0.6684
   61MOL0     H 8206   3.993  10.650  11.113  2.1835 -0.9142 -2.1206
   61MOL0     H 8207   3.723  10.547  11.052 -0.0640 -1.3021  0.1510
   61MOL0     H 8208   3.810  10.530  11.210  0.7436  1.4775  0.2833
   61MOL0     H 8209   3.808  10.789  11.237 -1.0801  1.7073 -0.3280
   61MOL0     H 8210   3.647  10.715  11.223  2.4990 -0.4385  4.7918
   61MOL0     H 8211   3.648  10.905  11.086  1.9026 -0.0563  2.8327
   61MOL0     H 8212   3.808  10.874  11.019 -0.3183  0.8850  0.8802
   61MOL0     H 8213   3.542  10.783  10.937 -0.7644  1.0080 -0.5462
   61MOL0     H 8214   3.697  10.706  10.869  0.4319  1.8321 -0.6129
   61MOL0     H 8215   3.598  10.871  10.730  0.0834 -0.5046 -0.0623
   61MOL0     H 8216   3.764  10.898  10.762 -1.6178 -0.0438 -1.1809
   61MOL0     H 8217   3.821  10.311  10.679  0.2078  0.0396 -3.1102
   61MOL0     H 8218   3.699  10.126  10.542  2.4640  1.8629 -2.2316
   61MOL0     H 8219   3.895   9.669  10.230  0.0007 -0.8966  1.2227
   61MOL0     H 8220   3.797   9.514  10.135  1.5841 -1.0469  2.9633
   61MOL0     H 8221   2.156   8.304  10.169 -0.2893 -0.0105 -0.6146
   61MOL0     H 8222   2.054   8.166  10.329  0.2216 -0.7550 -3.1296
   61MOL0     H 8223   1.462   8.141  10.590 -3.2065  0.2309  2.9032
   61MOL0     H 8224   1.407   7.949  10.735 -0.2743  0.4831  0.7014
   61MOL0     H 8225   1.421   7.949  10.992  0.8996 -0.0589  1.9219
   61MOL0     H 8226   1.366   7.787  10.947 -1.2123 -1.0356  2.2731
   61MOL0     H 8227   1.406   7.842  11.184  1.6500  1.5980  0.8940
   61MOL0     H 8228   1.585   7.847  11.151  1.6259 -1.8944 -0.6039
   61MOL0     H 8229   1.558   7.601  11.053 -2.5636 -0.5275 -1.5442
   61MOL0     H 8230   1.393   7.614  11.099 -0.1327  1.2916 -0.3609
   61MOL0     H 8231   1.498   7.478  11.266  0.0989 -0.0307 -0.7713
   61MOL0     H 8232   1.432   7.620  11.334  1.3437  3.9320 -1.6149
   61MOL0     H 8233   1.879   7.593  11.351 -0.7075  2.6691  1.5927
   61MOL0     H 8234   1.812   7.916  10.857  0.0630 -0.3135 -0.8429
   61MOL0     H 8235   1.878   8.060  10.682 -0.2295  0.0647  1.7578
   62MOL0     O 8236  10.741   4.112   6.875 -0.5696  0.2612 -0.1892
   62MOL0     C 8237  10.848   4.047   6.874  1.0845  0.2825 -0.0792
   62MOL0     O 8238  10.861   3.919   6.931 -0.4365  0.0593  0.2111
   62MOL0     C 8239  10.749   3.869   6.995  0.3508 -0.4918  0.3248
   62MOL0     C 8240  10.658   3.937   7.084 -0.1916 -0.2310  0.5241
   62MOL0     C 8241  10.536   3.885   7.127 -0.5290  0.1145 -0.0240
   62MOL0     C 8242  10.503   3.747   7.102  0.3830  0.2688 -0.0896
   62MOL0     O 8243  10.386   3.706   7.149 -0.5418 -0.6745 -0.6186
   62MOL0     C 8244  10.317   3.585   7.101  0.2263 -0.8092  0.0719
   62MOL0     C 8245  10.164   3.610   7.110 -0.1829  0.9842 -0.3581
   62MOL0     C 8246  10.135   3.623   7.274 -0.4120 -0.0570 -0.7539
   62MOL0     C 8247   9.995   3.656   7.297 -0.6835 -0.4959 -0.8556
   62MOL0     C 8248   9.893   3.543   7.311  1.0688 -0.5257  0.0971
   62MOL0     C 8249   9.753   3.588   7.308  0.7496  0.8120  0.3867
   62MOL0     C 8250   9.655   3.462   7.312 -0.5722 -0.4442 -0.0801
   62MOL0     C 8251   9.662   3.379   7.439  0.0756 -0.5790 -0.4202
   62MOL0     N 8252   9.659   3.465   7.560  0.3487  0.2212 -0.3827
   62MOL0     C 8253   9.563   3.565   7.588 -0.2980  0.6211 -1.2735
   62MOL0     C 8254   9.590   3.607   7.718  0.2610 -0.8201  0.0535
   62MOL0     C 8255   9.533   3.710   7.801  0.5355 -0.2024  0.7466
   62MOL0     C 8256   9.401   3.767   7.741 -0.4028  0.1729  0.8297
   62MOL0     C 8257   9.306   3.824   7.844  0.0989 -0.5556  0.6163
   62MOL0     C 8258   9.155   3.819   7.797 -0.3971 -1.2261  0.3974
   62MOL0     O 8259   9.122   3.686   7.741  0.2071 -0.6080 -0.2217
   62MOL0     C 8260   8.995   3.655   7.705 -0.1758 -0.5902 -0.4650
   62MOL0     C 8261   8.892   3.745   7.689  0.4732  0.7719  0.1382
   62MOL0     C 8262   8.764   3.696   7.649  0.0725  0.3985  0.2658
   62MOL0     C 8263   8.652   3.796   7.635  0.4082  0.1767  0.6642
   62MOL0     C 8264   8.743   3.559   7.620  0.5820  0.2482  0.6595
   62MOL0     C 8265   8.610   3.496   7.594 -0.2524  0.4898 -0.9507
   62MOL0     O 8266   8.527   3.566   7.512 -0.6078 -0.1359  0.6907
   62MOL0     C 8267   8.410   3.496   7.481  0.2822 -0.1857 -0.0837
   62MOL0     C 8268   8.289   3.530   7.544  0.1197  0.6261 -0.5082
   62MOL0     C 8269   8.173   3.460   7.503 -0.1956 -0.1131 -0.6468
   62MOL0     C 8270   8.177   3.361   7.403  0.7111  0.7498  0.4219
   62MOL0     O 8271   8.070   3.295   7.350  0.1138  0.5797 -0.6278
   62MOL0     C 8272   7.955   3.378   7.334 -0.4221  0.2623  0.2363
   62MOL0     C 8273   7.904   3.311   7.205 -0.5277 -0.4677 -0.1440
   62MOL0     C 8274   7.821   3.414   7.133  1.5753  0.1745  0.3496
   62MOL0     C 8275   7.732   3.338   7.029 -0.2321 -0.0616  1.3820
   62MOL0     C 8276   7.649   3.437   6.939  0.1158 -0.0552  0.3785
   62MOL0     C 8277   7.599   3.383   6.800 -0.2440 -0.2083  0.2845
   62MOL0     C 8278   7.532   3.479   6.700  0.8155  0.0353 -0.4228
   62MOL0     C 8279   7.388   3.504   6.741 -0.1905 -0.3117 -0.3329
   62MOL0    Cl 8280   7.317   3.580   6.596 -0.0720 -0.1865  0.0939
   62MOL0     C 8281   8.302   3.331   7.347  0.0566 -0.5170  0.8792
   62MOL0     C 8282   8.418   3.396   7.382 -0.1587  0.2027  0.1925
   62MOL0     O 8283   8.591   3.387   7.653 -0.8830  0.2023  1.0384
   62MOL0     C 8284   8.841   3.474   7.646 -0.5321 -0.9528  0.0562
   62MOL0     C 8285   8.973   3.520   7.691  0.2201 -0.6381  0.7767
   62MOL0     N 8286   9.689   3.521   7.774  0.1790 -0.5591  0.3478
   62MOL0     N 8287   9.731   3.440   7.678  0.6396  0.2409 -1.0021
   62MOL0     C 8288  10.591   3.678   7.013 -0.2689  0.5627 -1.2155
   62MOL0     C 8289  10.709   3.736   6.963  0.1170 -0.5005  1.1738
   62MOL0     C 8290  10.964   4.091   6.785 -0.2750  0.9034 -0.1840
   62MOL0     C 8291  11.068   4.009   6.756  0.0011  0.7813  0.3533
   62MOL0     C 8292  11.165   4.057   6.670  1.0156  0.1021  0.2329
   62MOL0     C 8293  11.162   4.185   6.621 -0.4673  0.8753 -0.4819
   62MOL0     O 8294  11.261   4.232   6.534 -0.0651  0.4105  0.3197
   62MOL0     C 8295  11.283   4.374   6.513 -0.3819 -0.2373  0.3597
   62MOL0     C 8296  11.429   4.402   6.481 -0.0423  0.2396 -0.1822
   62MOL0     C 8297  11.503   4.306   6.391  0.1143  0.1953 -0.3553
   62MOL0     C 8298  11.549   4.372   6.263 -0.7866 -0.4211 -0.2265
   62MOL0     C 8299  11.653   4.481   6.284  0.1979  0.8333  0.5586
   62MOL0     C 8300  11.725   4.574   6.307  0.0851  0.7879 -0.4506
   62MOL0     C 8301  11.055   4.271   6.652 -0.2247 -0.7408 -0.7013
   62MOL0     C 8302  10.957   4.228   6.737  0.1221  1.0100 -0.0391
   62MOL0     H 8303  10.683   4.040   7.108 -0.8093  0.3699 -1.2627
   62MOL0     H 8304  10.471   3.957   7.177 -0.1827  0.9913 -0.7962
   62MOL0     H 8305  10.343   3.556   6.999  1.0659 -0.0500  0.0551
   62MOL0     H 8306  10.347   3.512   7.177 -3.0632  1.3405  3.8329
   62MOL0     H 8307  10.157   3.699   7.048  3.0850 -1.3044 -4.5085
   62MOL0     H 8308  10.123   3.520   7.064 -1.7657  2.3964 -1.8325
   62MOL0     H 8309  10.163   3.533   7.329 -0.2569  1.0064  0.9579
   62MOL0     H 8310  10.209   3.695   7.313  2.2445 -1.8244 -2.1847
   62MOL0     H 8311   9.987   3.719   7.386 -2.5899  0.1887 -1.4419
   62MOL0     H 8312   9.972   3.720   7.211 -3.3693  1.0471  0.8644
   62MOL0     H 8313   9.915   3.460   7.244 -0.3109 -1.5460  0.8490
   62MOL0     H 8314   9.899   3.510   7.415 -0.8163  1.9210  1.0789
   62MOL0     H 8315   9.729   3.659   7.387  0.0466  0.6109  0.3565
   62MOL0     H 8316   9.739   3.630   7.208 -0.5891 -2.6293 -1.0056
   62MOL0     H 8317   9.551   3.496   7.309 -1.4787 -3.0392 -0.8191
   62MOL0     H 8318   9.668   3.406   7.219  1.9040 -0.0387 -0.0435
   62MOL0     H 8319   9.762   3.334   7.443  0.4390  0.0664 -1.6187
   62MOL0     H 8320   9.583   3.304   7.442  0.4700 -0.9864  2.1606
   62MOL0     H 8321   9.492   3.606   7.517 -0.0194 -0.5686 -2.2742
   62MOL0     H 8322   9.511   3.666   7.899  1.0664  2.2853  2.0867
   62MOL0     H 8323   9.592   3.802   7.798 -1.2693  0.9866 -0.0153
   62MOL0     H 8324   9.344   3.682   7.703 -0.3494  1.1510 -1.6400
   62MOL0     H 8325   9.428   3.831   7.656  2.9042  2.5422  3.3898
   62MOL0     H 8326   9.345   3.921   7.877 -2.0577  0.4262  0.4237
   62MOL0     H 8327   9.311   3.765   7.936  0.5220 -0.0810  0.9005
   62MOL0     H 8328   9.155   3.901   7.725  2.7165  1.8462  3.4874
   62MOL0     H 8329   9.088   3.842   7.880 -1.0800 -0.7584 -0.2721
   62MOL0     H 8330   8.908   3.852   7.691  3.4490  0.5072 -2.6633
   62MOL0     H 8331   8.632   3.818   7.530 -1.2643 -2.8283  0.2247
   62MOL0     H 8332   8.559   3.750   7.670  1.5642 -2.5761  0.4430
   62MOL0     H 8333   8.669   3.891   7.686  1.4275  0.5626 -0.3628
   62MOL0     H 8334   8.292   3.600   7.627 -4.4613 -1.7840  2.0429
   62MOL0     H 8335   8.076   3.487   7.543 -0.4365 -0.8787 -0.7171
   62MOL0     H 8336   7.891   3.369   7.422 -2.2285  0.2332 -1.0102
   62MOL0     H 8337   7.973   3.485   7.320 -2.6856  0.3728 -3.3561
   62MOL0     H 8338   8.000   3.298   7.154  0.8044 -1.5085  2.5019
   62MOL0     H 8339   7.859   3.214   7.227 -4.0666  1.0300 -0.0285
   62MOL0     H 8340   7.879   3.497   7.091 -1.2212  1.8329 -0.5245
   62MOL0     H 8341   7.750   3.460   7.202 -0.2763  1.2162 -2.0913
   62MOL0     H 8342   7.805   3.287   6.966  2.4398  3.1680  1.5376
   62MOL0     H 8343   7.665   3.268   7.079 -0.7859 -1.2613 -0.8981
   62MOL0     H 8344   7.709   3.527   6.926 -0.0369  0.6446  3.5989
   62MOL0     H 8345   7.568   3.460   7.009 -0.5618  1.2356 -0.7898
   62MOL0     H 8346   7.685   3.338   6.749 -1.3343 -1.1226 -0.8052
   62MOL0     H 8347   7.534   3.298   6.822  2.8075 -2.6275  0.6945
   62MOL0     H 8348   7.522   3.429   6.603 -1.6526 -3.4762  1.3902
   62MOL0     H 8349   7.591   3.567   6.676  2.0089 -0.6834 -0.1672
   62MOL0     H 8350   7.387   3.578   6.823  2.6287  0.2599 -0.6981
   62MOL0     H 8351   7.335   3.415   6.773 -1.6307  0.3139 -0.9075
   62MOL0     H 8352   8.311   3.263   7.263 -0.2234 -0.4092  0.7620
   62MOL0     H 8353   8.505   3.374   7.321  2.7589  0.7095  3.8438
   62MOL0     H 8354   8.820   3.369   7.627 -0.7144 -0.7691 -0.7962
   62MOL0     H 8355   9.054   3.447   7.696  0.6099 -0.2116  0.7537
   62MOL0     H 8356  10.572   3.571   7.006 -2.9853  0.8996 -0.2602
   62MOL0     H 8357  10.777   3.682   6.898 -0.0457  1.5758 -0.8706
   62MOL0     H 8358  11.097   3.909   6.784  1.2576  1.0230  0.0128
   62MOL0     H 8359  11.246   3.991   6.641  1.3833 -0.6819  2.7499
   62MOL0     H 8360  11.228   4.403   6.423  1.3804  3.4339  0.2745
   62MOL0     H 8361  11.264   4.442   6.596 -0.7827  1.3381 -0.9693
   62MOL0     H 8362  11.479   4.404   6.579 -0.4619 -0.0432  0.0402
   62MOL0     H 8363  11.435   4.504   6.441  1.7406 -0.5072 -1.9595
   62MOL0     H 8364  11.448   4.216   6.364  0.5656 -0.1972  0.0197
   62MOL0     H 8365  11.591   4.261   6.439 -0.5251  2.1411  3.0177
   62MOL0     H 8366  11.471   4.402   6.192 -0.5761  0.6611 -0.0227
   62MOL0     H 8367  11.600   4.297   6.201  0.7998 -1.8533  2.6293
   62MOL0     H 8368  11.784   4.663   6.309  0.5788  0.4467  0.8181
   62MOL0     H 8369  11.048   4.371   6.610 -0.4305 -0.6806 -0.5289
   62MOL0     H 8370  10.868   4.287   6.756  0.2509  0.7668  1.4365
   63MOL0     O 8371   9.943   4.232   8.055 -0.5287  0.2186  0.4211
   63MOL0     C 8372  10.037   4.235   8.139 -0.3177  0.2317 -0.3396
   63MOL0     O 8373  10.034   4.177   8.270  0.2560 -0.5891 -0.5714
   63MOL0     C 8374   9.922   4.189   8.344 -0.4283 -0.2068 -0.8159
   63MOL0     C 8375   9.881   4.080   8.422 -0.1339 -0.7182  0.6441
   63MOL0     C 8376   9.760   4.081   8.495 -1.1067  0.2815 -0.1456
   63MOL0     C 8377   9.667   4.185   8.472  0.4280 -0.2055 -1.0388
   63MOL0     O 8378   9.548   4.207   8.544 -0.1131 -0.2675 -0.2038
   63MOL0     C 8379   9.505   4.115   8.635  1.1639  0.6176 -0.2582
   63MOL0     C 8380   9.371   4.150   8.695 -0.2758  0.1439  0.6333
   63MOL0     C 8381   9.312   4.029   8.754  0.3538 -0.2378 -0.5637
   63MOL0     C 8382   9.189   4.068   8.837  0.6130 -0.4011 -0.4528
   63MOL0     C 8383   9.113   3.940   8.881 -0.6832 -0.9891 -0.4629
   63MOL0     C 8384   8.994   3.967   8.975  0.0638 -0.2168 -0.4374
   63MOL0     C 8385   8.894   3.863   8.979  0.8007 -0.8435  0.2233
   63MOL0     C 8386   8.958   3.735   9.034  0.5197 -0.0336  0.5001
   63MOL0     N 8387   8.848   3.649   9.083 -0.4247 -0.4648  0.0502
   63MOL0     C 8388   8.786   3.547   9.005  0.7302  0.3972  0.0710
   63MOL0     C 8389   8.692   3.493   9.092 -0.3182 -0.9713 -0.3834
   63MOL0     C 8390   8.615   3.365   9.074  0.3981 -0.2108  0.3711
   63MOL0     C 8391   8.505   3.386   8.965  0.3200  0.6590 -0.4087
   63MOL0     C 8392   8.430   3.251   8.947 -0.2210 -0.5267 -0.1755
   63MOL0     C 8393   8.319   3.259   8.843 -0.4147 -0.5672  0.3792
   63MOL0     O 8394   8.374   3.263   8.708  0.6823 -0.1641  0.7991
   63MOL0     C 8395   8.291   3.293   8.601 -0.0013  0.5578  0.0415
   63MOL0     C 8396   8.346   3.359   8.488  0.0356  0.2075  0.3900
   63MOL0     C 8397   8.260   3.377   8.375  0.4307 -1.2656 -0.4687
   63MOL0     C 8398   8.314   3.443   8.251  0.2994 -0.0856 -0.0619
   63MOL0     C 8399   8.124   3.346   8.381  0.0173  0.2932 -0.1755
   63MOL0     C 8400   8.032   3.379   8.274 -0.3562  0.6802  0.5889
   63MOL0     O 8401   8.080   3.330   8.161  0.8874 -0.3578 -0.1386
   63MOL0     C 8402   8.009   3.360   8.050 -0.7843 -0.3171 -0.2860
   63MOL0     C 8403   7.884   3.304   8.034  0.4968 -1.1707 -0.0286
   63MOL0     C 8404   7.798   3.345   7.929 -0.5811  0.0855 -0.4838
   63MOL0     C 8405   7.846   3.429   7.827 -0.1395 -0.1803  0.4719
   63MOL0     O 8406   7.782   3.466   7.710 -0.5590 -0.1748 -0.0946
   63MOL0     C 8407   7.666   3.394   7.661  1.0980  1.0244 -0.1869
   63MOL0     C 8408   7.618   3.443   7.526  0.2961  0.6690  0.2983
   63MOL0     C 8409   7.532   3.348   7.440 -0.2527  0.5338  0.6406
   63MOL0     C 8410   7.461   3.430   7.332 -0.8392 -0.3074 -0.4648
   63MOL0     C 8411   7.383   3.338   7.240  0.1425 -0.0649  0.2082
   63MOL0     C 8412   7.289   3.411   7.140 -0.5408  0.2671 -0.1866
   63MOL0     C 8413   7.166   3.459   7.220  0.7998  0.6314  0.3579
   63MOL0     C 8414   7.056   3.496   7.127 -0.7312  0.3111 -0.0521
   63MOL0    Cl 8415   6.969   3.336   7.113 -0.5161 -0.2656  0.2617
   63MOL0     C 8416   7.973   3.488   7.846  0.3013 -0.2606  0.4881
   63MOL0     C 8417   8.048   3.460   7.961 -0.3679  1.0760  0.0951
   63MOL0     O 8418   7.932   3.447   8.295 -0.2827 -0.2679 -0.3318
   63MOL0     C 8419   8.073   3.285   8.492 -0.5761  0.6412 -0.0339
   63MOL0     C 8420   8.157   3.257   8.601 -0.8157  0.5803  0.3876
   63MOL0     N 8421   8.706   3.554   9.220 -0.1267 -0.6963 -1.1437
   63MOL0     N 8422   8.795   3.652   9.209  0.6991 -0.0573 -0.2361
   63MOL0     C 8423   9.696   4.293   8.391 -0.1958  0.4407 -0.2356
   63MOL0     C 8424   9.823   4.296   8.329  0.3656 -0.0668  0.3719
   63MOL0     C 8425  10.167   4.286   8.095 -0.2346 -0.8171 -0.6685
   63MOL0     C 8426  10.288   4.236   8.130  0.4261  0.0243 -0.1470
   63MOL0     C 8427  10.405   4.292   8.101  0.0898 -0.0421  0.0173
   63MOL0     C 8428  10.403   4.392   8.003 -0.5166  0.5205 -0.1775
   63MOL0     O 8429  10.510   4.452   7.953  0.6062 -0.4388 -0.1395
   63MOL0     C 8430  10.636   4.443   8.017 -0.0643 -0.5817 -0.1238
   63MOL0     C 8431  10.732   4.527   7.934  0.0901 -0.7056 -0.1548
   63MOL0     C 8432  10.840   4.427   7.891  0.4590 -1.0641 -0.3071
   63MOL0     C 8433  10.963   4.495   7.823 -0.3330 -0.7395 -0.4813
   63MOL0     C 8434  11.031   4.602   7.908  0.4692 -0.4122 -0.7015
   63MOL0     C 8435  11.078   4.686   7.978 -0.6089  0.2265  0.0391
   63MOL0     C 8436  10.289   4.455   7.976  0.5890  1.0576 -0.5886
   63MOL0     C 8437  10.171   4.405   8.032  0.6124 -0.4319  0.1428
   63MOL0     H 8438   9.956   4.001   8.423  0.2322 -0.3838  0.0212
   63MOL0     H 8439   9.744   3.991   8.553 -0.4132 -1.3686 -2.3655
   63MOL0     H 8440   9.495   4.022   8.578  3.2597  0.1567  0.0421
   63MOL0     H 8441   9.580   4.097   8.714  1.3821 -0.8958 -0.7684
   63MOL0     H 8442   9.381   4.228   8.772 -1.7950 -1.0989  2.1575
   63MOL0     H 8443   9.308   4.185   8.613 -0.4323 -0.5189  0.4659
   63MOL0     H 8444   9.291   3.965   8.667  0.7791 -0.8025 -0.2542
   63MOL0     H 8445   9.380   3.979   8.823 -0.2083  1.5474  1.3676
   63MOL0     H 8446   9.217   4.128   8.924 -1.8005  1.7999 -1.0693
   63MOL0     H 8447   9.120   4.125   8.774 -0.2100  0.6542  1.3375
   63MOL0     H 8448   9.068   3.897   8.792 -1.5543 -0.2844 -0.3818
   63MOL0     H 8449   9.181   3.875   8.937  0.4822 -0.0380 -0.7170
   63MOL0     H 8450   9.009   4.000   9.078  1.3317 -1.3239 -0.2373
   63MOL0     H 8451   8.952   4.052   8.921 -1.0858 -0.0650  0.6676
   63MOL0     H 8452   8.815   3.905   9.042  2.4406  0.1938  1.6820
   63MOL0     H 8453   8.862   3.845   8.876  1.0021 -1.4264  0.2562
   63MOL0     H 8454   9.022   3.768   9.117  0.1965 -1.0465  1.1721
   63MOL0     H 8455   9.025   3.687   8.962  3.1411  0.4458  2.4532
   63MOL0     H 8456   8.808   3.509   8.906  3.3559 -3.5602  1.9191
   63MOL0     H 8457   8.687   3.295   9.031 -0.5521  0.3613 -2.3369
   63MOL0     H 8458   8.571   3.333   9.169  2.3663  1.7270  2.0469
   63MOL0     H 8459   8.561   3.412   8.875  0.8284  0.9267 -0.0180
   63MOL0     H 8460   8.437   3.460   9.009  0.7103 -0.8078  2.9774
   63MOL0     H 8461   8.391   3.208   9.040 -2.3758  1.0727 -0.2720
   63MOL0     H 8462   8.499   3.176   8.907 -1.3163 -1.3658 -0.5442
   63MOL0     H 8463   8.253   3.345   8.853 -5.5138 -3.6535 -2.5720
   63MOL0     H 8464   8.247   3.177   8.853 -2.0080  0.7397  0.1419
   63MOL0     H 8465   8.452   3.381   8.482 -0.3093  1.7866 -0.6371
   63MOL0     H 8466   8.250   3.522   8.210 -1.9154  0.1331  3.4078
   63MOL0     H 8467   8.414   3.480   8.277  0.1884 -0.7068  1.3461
   63MOL0     H 8468   8.328   3.359   8.183 -0.6122 -1.0803  0.9246
   63MOL0     H 8469   7.851   3.225   8.100  0.4663  1.5791  3.5633
   63MOL0     H 8470   7.696   3.309   7.921 -1.2216  1.8741 -0.9243
   63MOL0     H 8471   7.704   3.292   7.655 -0.3692  0.0538  3.8245
   63MOL0     H 8472   7.586   3.396   7.735  2.0303  4.6134  0.9566
   63MOL0     H 8473   7.573   3.542   7.541  0.7454  1.2906 -2.1151
   63MOL0     H 8474   7.709   3.470   7.472  0.4673 -1.3983 -0.5538
   63MOL0     H 8475   7.465   3.295   7.508 -1.0142 -2.5993 -2.2597
   63MOL0     H 8476   7.591   3.271   7.391 -2.1491  0.3563 -1.5388
   63MOL0     H 8477   7.405   3.512   7.378  1.9574  0.7929  1.2094
   63MOL0     H 8478   7.539   3.487   7.281  0.2906 -0.4526  1.0346
   63MOL0     H 8479   7.323   3.272   7.303 -1.3756  1.9669  0.9927
   63MOL0     H 8480   7.455   3.268   7.197  0.1053 -0.4529  0.7709
   63MOL0     H 8481   7.337   3.501   7.099 -0.8405  1.0059  1.0404
   63MOL0     H 8482   7.252   3.342   7.063 -2.3262  0.6723  0.2604
   63MOL0     H 8483   7.191   3.545   7.284 -1.0333  1.6177 -0.1832
   63MOL0     H 8484   7.121   3.384   7.286  2.2477  0.1803  0.8823
   63MOL0     H 8485   7.097   3.533   7.032  2.5346  0.3633  1.2557
   63MOL0     H 8486   6.988   3.563   7.182 -0.7824 -0.9328  1.4615
   63MOL0     H 8487   8.009   3.552   7.767  3.0410  0.6394  2.3340
   63MOL0     H 8488   8.144   3.506   7.980 -0.9129  2.2864  0.0363
   63MOL0     H 8489   7.969   3.262   8.511 -0.1873 -0.5462  0.7253
   63MOL0     H 8490   8.118   3.207   8.689  0.9584 -1.5280  0.0431
   63MOL0     H 8491   9.622   4.361   8.352 -1.8632 -1.4499 -0.5629
   63MOL0     H 8492   9.838   4.376   8.257 -0.6239 -0.4892 -0.3214
   63MOL0     H 8493  10.277   4.149   8.194  1.0781 -0.9048 -1.2565
   63MOL0     H 8494  10.492   4.241   8.142  0.6497 -0.1524 -1.2734
   63MOL0     H 8495  10.610   4.487   8.114 -1.1194 -1.3562 -0.0412
   63MOL0     H 8496  10.663   4.338   8.031 -0.7757 -1.4400 -4.0867
   63MOL0     H 8497  10.771   4.606   7.998  2.2292 -2.4860  0.8572
   63MOL0     H 8498  10.690   4.575   7.845 -1.3407  1.3475  1.5136
   63MOL0     H 8499  10.795   4.345   7.833 -2.5846 -1.0296  1.7484
   63MOL0     H 8500  10.875   4.387   7.986 -0.8651  0.6089  0.9564
   63MOL0     H 8501  10.944   4.534   7.723  2.4502 -1.4025 -1.3554
   63MOL0     H 8502  11.042   4.422   7.802 -1.3890 -2.1573  0.3202
   63MOL0     H 8503  11.112   4.759   8.048  0.7538 -0.3710  0.0245
   63MOL0     H 8504  10.296   4.525   7.893 -1.8195  2.5894  0.3965
   63MOL0     H 8505  10.080   4.452   7.995  0.3037  0.2809  1.7605
   64MOL0     O 8506   2.338   6.608   3.565 -0.3728  0.6228  0.7634
   64MOL0     C 8507   2.411   6.652   3.656  0.2398 -0.1585 -0.8784
   64MOL0     O 8508   2.534   6.706   3.650  0.2300  0.1499 -0.0326
   64MOL0     C 8509   2.593   6.728   3.529  1.5321  0.2660  0.0234
   64MOL0     C 8510   2.606   6.630   3.430 -0.5926  0.6877  0.2576
   64MOL0     C 8511   2.665   6.656   3.301 -0.1063 -1.1094 -0.6262
   64MOL0     C 8512   2.712   6.790   3.276 -0.4162  0.0955  0.0584
   64MOL0     O 8513   2.769   6.803   3.148 -0.1282 -0.3173 -0.4011
   64MOL0     C 8514   2.862   6.914   3.122  0.8392  0.3679 -0.5486
   64MOL0     C 8515   2.919   6.931   2.979 -0.4979 -0.9142 -1.4080
   64MOL0     C 8516   3.059   6.872   2.972 -1.0787  0.6537 -0.2313
   64MOL0     C 8517   3.117   6.845   2.829 -0.7593  0.4297  0.5484
   64MOL0     C 8518   3.156   6.971   2.753 -0.7623  1.0295 -0.0993
   64MOL0     C 8519   3.224   6.941   2.613  0.4118  0.0101 -0.3068
   64MOL0     C 8520   3.273   7.066   2.533  0.0365 -1.1483 -0.4876
   64MOL0     C 8521   3.359   7.027   2.427  0.1951  0.3127  0.9573
   64MOL0     N 8522   3.492   6.971   2.460 -0.5297  0.2407 -0.8187
   64MOL0     C 8523   3.588   7.044   2.521  0.0898  0.2979  1.0840
   64MOL0     C 8524   3.689   6.952   2.538 -0.2772 -0.1715 -0.1189
   64MOL0     C 8525   3.818   6.986   2.609  1.1963  0.0441 -0.3770
   64MOL0     C 8526   3.926   6.923   2.526 -0.5319 -0.2329  0.3221
   64MOL0     C 8527   3.931   6.988   2.390  0.6336  0.2302  0.6851
   64MOL0     C 8528   4.046   6.934   2.307 -0.2096  0.5449  0.3356
   64MOL0     O 8529   4.041   6.980   2.177 -0.8300  0.4952 -0.0147
   64MOL0     C 8530   4.151   6.970   2.095 -0.6560  0.7349 -0.5057
   64MOL0     C 8531   4.278   6.917   2.134 -0.3154  0.6020 -0.1333
   64MOL0     C 8532   4.384   6.895   2.050 -0.8431  0.4690 -0.5523
   64MOL0     C 8533   4.504   6.818   2.117  0.1915 -0.6408  0.4159
   64MOL0     C 8534   4.362   6.911   1.913 -0.2716 -0.4042 -0.0803
   64MOL0     C 8535   4.471   6.900   1.819 -0.4117  0.9843 -0.1448
   64MOL0     O 8536   4.438   6.872   1.691  0.4202 -0.7777  0.7530
   64MOL0     C 8537   4.531   6.868   1.592 -0.1227  0.4862  0.1467
   64MOL0     C 8538   4.488   6.908   1.472 -0.2976  0.0049  0.0923
   64MOL0     C 8539   4.568   6.914   1.349 -0.2699 -0.0500  0.5341
   64MOL0     C 8540   4.700   6.862   1.359 -0.4270 -0.2474 -0.3488
   64MOL0     O 8541   4.797   6.883   1.271 -0.2776 -0.1105  0.1780
   64MOL0     C 8542   4.754   6.933   1.140 -0.8879  0.3706  0.4738
   64MOL0     C 8543   4.869   6.939   1.036  0.2096 -0.6243  0.6827
   64MOL0     C 8544   4.997   7.015   1.083  0.2566 -0.0265  0.2590
   64MOL0     C 8545   5.087   6.941   1.187 -0.3759 -0.5696 -0.0690
   64MOL0     C 8546   5.226   7.009   1.201 -0.4179  0.4751  0.3888
   64MOL0     C 8547   5.299   6.941   1.321 -0.0489  0.3290  1.1598
   64MOL0     C 8548   5.314   6.794   1.317  0.1891 -0.2009 -0.6424
   64MOL0     C 8549   5.397   6.737   1.438  0.1171  0.1725 -0.6340
   64MOL0    Cl 8550   5.339   6.778   1.599  0.3830  0.3436 -0.3497
   64MOL0     C 8551   4.743   6.813   1.489 -0.5700 -0.4915 -0.3350
   64MOL0     C 8552   4.664   6.827   1.604  0.0849 -0.0974 -0.0016
   64MOL0     O 8553   4.581   6.920   1.866 -0.1663  0.0867 -1.7495
   64MOL0     C 8554   4.238   6.959   1.868 -1.0114 -0.8554 -0.3038
   64MOL0     C 8555   4.144   6.996   1.959 -0.1268  0.7248 -0.0907
   64MOL0     N 8556   3.653   6.831   2.485  0.0422 -1.2203  0.7211
   64MOL0     N 8557   3.543   6.847   2.433  0.2678 -0.4326 -0.2064
   64MOL0     C 8558   2.716   6.882   3.378 -0.6504  0.4974  0.1207
   64MOL0     C 8559   2.661   6.849   3.504  0.6026  0.6535  0.3351
   64MOL0     C 8560   2.346   6.667   3.790  0.4307  0.2129 -1.0693
   64MOL0     C 8561   2.211   6.630   3.803  0.1667 -0.8887 -0.9396
   64MOL0     C 8562   2.150   6.647   3.929 -0.3136 -0.5584 -0.0322
   64MOL0     C 8563   2.217   6.723   4.031 -0.5542  0.5450  0.6315
   64MOL0     O 8564   2.157   6.765   4.149  0.3570  0.9170 -0.1250
   64MOL0     C 8565   2.028   6.720   4.173  0.8026 -0.0727 -0.8114
   64MOL0     C 8566   1.958   6.808   4.289 -0.1597  0.5595  0.5266
   64MOL0     C 8567   1.850   6.732   4.364  0.0433  0.7896  0.3276
   64MOL0     C 8568   1.757   6.832   4.436 -0.0439 -0.6427  1.0813
   64MOL0     C 8569   1.631   6.797   4.483 -0.4733  0.4025  1.1213
   64MOL0     C 8570   1.523   6.753   4.518  0.7530  0.4138 -0.0343
   64MOL0     C 8571   2.347   6.759   4.015 -0.6586 -0.6935 -0.2493
   64MOL0     C 8572   2.417   6.734   3.898  0.1461  0.6721 -0.1863
   64MOL0     H 8573   2.591   6.523   3.440  3.5503 -0.4888 -3.2206
   64MOL0     H 8574   2.671   6.569   3.237  1.9354 -1.7034  0.2971
   64MOL0     H 8575   2.807   7.000   3.160 -1.1907 -1.1929  0.2328
   64MOL0     H 8576   2.947   6.907   3.191 -0.1113 -1.1025  0.5431
   64MOL0     H 8577   2.856   6.877   2.908 -0.5940 -2.7599 -0.0112
   64MOL0     H 8578   2.915   7.039   2.964  2.1153 -0.5826 -0.3038
   64MOL0     H 8579   3.130   6.940   3.019 -2.1434  1.0587  0.8071
   64MOL0     H 8580   3.061   6.772   3.016  0.7574  0.6332 -0.2661
   64MOL0     H 8581   3.196   6.770   2.841 -2.7045 -2.1280 -1.2251
   64MOL0     H 8582   3.040   6.804   2.762 -0.6368  1.4671 -0.2487
   64MOL0     H 8583   3.062   7.022   2.728 -1.6363  0.0191  1.0150
   64MOL0     H 8584   3.214   7.046   2.807  0.1959  0.1544  0.1169
   64MOL0     H 8585   3.311   6.875   2.627  2.3100  1.8123 -2.6642
   64MOL0     H 8586   3.156   6.879   2.554  0.8329  0.6832 -1.5297
   64MOL0     H 8587   3.189   7.121   2.490  0.0969  0.6881  1.5762
   64MOL0     H 8588   3.323   7.123   2.612 -0.1133 -2.6382  0.7555
   64MOL0     H 8589   3.372   7.116   2.365 -2.3024  1.4547  1.9206
   64MOL0     H 8590   3.306   6.961   2.357  3.1707 -0.4700 -0.7207
   64MOL0     H 8591   3.590   7.149   2.552  1.9123  0.2952  1.1166
   64MOL0     H 8592   3.822   7.095   2.603 -0.2862  0.0676 -1.4941
   64MOL0     H 8593   3.822   6.965   2.716 -0.8519  2.4545  0.2776
   64MOL0     H 8594   3.919   6.815   2.511  1.5653 -0.2133 -1.2104
   64MOL0     H 8595   4.028   6.940   2.561 -0.3206 -2.1700  0.7730
   64MOL0     H 8596   3.959   7.094   2.396  3.1063  0.0710 -3.8680
   64MOL0     H 8597   3.840   6.979   2.330  2.1145  0.4974 -1.7429
   64MOL0     H 8598   4.042   6.825   2.316  5.1971  0.0569 -0.1754
   64MOL0     H 8599   4.135   6.972   2.359  0.5588  1.4982 -1.6087
   64MOL0     H 8600   4.294   6.900   2.240 -2.6566 -0.2696  0.1397
   64MOL0     H 8601   4.541   6.732   2.061  1.0218 -0.3534  0.5173
   64MOL0     H 8602   4.593   6.878   2.137  0.9263 -2.5780  3.7451
   64MOL0     H 8603   4.468   6.773   2.209  0.4319  0.3721  1.0231
   64MOL0     H 8604   4.390   6.952   1.475  0.2284  1.2714 -0.4613
   64MOL0     H 8605   4.532   6.960   1.257 -0.3916  2.4807  1.7864
   64MOL0     H 8606   4.668   6.888   1.090  1.0874 -0.0248 -2.8644
   64MOL0     H 8607   4.732   7.037   1.169 -2.1138  0.3276 -0.2558
   64MOL0     H 8608   4.899   6.844   0.992  2.4039  0.4156 -0.1901
   64MOL0     H 8609   4.834   7.001   0.953  1.1185 -0.0453  0.7198
   64MOL0     H 8610   4.979   7.115   1.125 -0.4735 -0.3532  0.7487
   64MOL0     H 8611   5.054   7.037   0.992 -0.0636  3.5691  0.7500
   64MOL0     H 8612   5.032   6.937   1.282 -0.6902 -1.3600 -0.2738
   64MOL0     H 8613   5.103   6.836   1.160  0.7737 -0.0230 -1.6441
   64MOL0     H 8614   5.202   7.114   1.220 -4.2255 -0.4875  1.7766
   64MOL0     H 8615   5.287   6.992   1.111  4.5016 -1.1621  3.6362
   64MOL0     H 8616   5.399   6.986   1.323  0.6147 -0.9392 -0.6596
   64MOL0     H 8617   5.244   6.969   1.412 -2.5314 -3.2253  0.9575
   64MOL0     H 8618   5.353   6.764   1.219 -0.5931  2.2800 -1.7944
   64MOL0     H 8619   5.213   6.755   1.331  0.0013  1.1097  2.7772
   64MOL0     H 8620   5.495   6.786   1.436  0.1526  0.3456  2.0963
   64MOL0     H 8621   5.405   6.629   1.423  0.4836  0.2798 -1.2334
   64MOL0     H 8622   4.842   6.775   1.511 -1.5510 -1.9226  2.1078
   64MOL0     H 8623   4.704   6.795   1.700  1.1691  0.7457 -0.1654
   64MOL0     H 8624   4.230   6.983   1.762  2.5508  0.9796 -0.3236
   64MOL0     H 8625   4.055   7.054   1.937 -1.0448  0.3748  2.3422
   64MOL0     H 8626   2.744   6.987   3.377  0.5069  0.1915 -0.9040
   64MOL0     H 8627   2.676   6.915   3.588  3.4098 -0.6531  0.9935
   64MOL0     H 8628   2.160   6.577   3.723 -1.8427  1.5288 -1.3762
   64MOL0     H 8629   2.046   6.617   3.941  0.3410 -3.1276 -0.1628
   64MOL0     H 8630   1.963   6.721   4.085 -0.3887 -2.8102 -0.0637
   64MOL0     H 8631   2.026   6.618   4.212  0.0957  1.6056  4.2866
   64MOL0     H 8632   1.909   6.892   4.238 -2.2297  0.1758  1.7648
   64MOL0     H 8633   2.039   6.835   4.357  0.6949 -1.5963  0.4496
   64MOL0     H 8634   1.896   6.664   4.435  0.4909 -1.1161 -1.6755
   64MOL0     H 8635   1.789   6.677   4.291 -1.0709  2.0243  0.2771
   64MOL0     H 8636   1.754   6.919   4.370 -0.8131 -1.1529  0.4222
   64MOL0     H 8637   1.811   6.860   4.527  0.5519  0.8622  0.3050
   64MOL0     H 8638   1.424   6.727   4.550  1.0642  3.6564  4.4046
   64MOL0     H 8639   2.403   6.813   4.091 -2.2092 -2.4788  2.3265
   64MOL0     H 8640   2.517   6.776   3.891  1.7312 -2.4926  1.5504
   65MOL0     O 8641   4.876   5.962   2.880  0.0093 -0.6855  0.4545
   65MOL0     C 8642   4.908   5.853   2.832  0.1974 -0.4145 -0.3218
   65MOL0     O 8643   4.836   5.773   2.754  0.0303 -0.0904  0.3106
   65MOL0     C 8644   4.710   5.822   2.704 -0.3298  0.6014 -0.3366
   65MOL0     C 8645   4.616   5.889   2.783 -0.3808  0.3330 -0.7001
   65MOL0     C 8646   4.492   5.917   2.726  0.7238  0.1820  0.3296
   65MOL0     C 8647   4.458   5.878   2.592 -0.0409  0.1231  0.4276
   65MOL0     O 8648   4.337   5.917   2.548  0.6974 -0.5589 -0.0266
   65MOL0     C 8649   4.255   5.798   2.529  0.1007 -0.2546 -0.8346
   65MOL0     C 8650   4.106   5.821   2.534  0.4579  1.2835 -0.3018
   65MOL0     C 8651   4.068   5.939   2.628  0.3860 -0.5464  0.0548
   65MOL0     C 8652   3.915   5.954   2.606 -1.1092  0.2341 -0.2129
   65MOL0     C 8653   3.859   6.081   2.671 -0.3676 -0.4736  0.5174
   65MOL0     C 8654   3.864   6.068   2.822 -0.0876 -0.1382 -0.3044
   65MOL0     C 8655   3.769   6.171   2.880 -0.2666 -1.0723 -0.4216
   65MOL0     C 8656   3.642   6.105   2.915 -0.0942  0.2316 -0.6301
   65MOL0     N 8657   3.545   6.180   2.991 -0.3901 -0.1532 -0.7542
   65MOL0     C 8658   3.457   6.269   2.950  1.0738  0.1771  0.1476
   65MOL0     C 8659   3.380   6.289   3.060  1.2516 -0.0199 -0.1508
   65MOL0     C 8660   3.253   6.363   3.052  0.2420  0.6884  0.6301
   65MOL0     C 8661   3.217   6.405   3.192 -0.3467 -0.3894 -0.5913
   65MOL0     C 8662   3.105   6.511   3.197 -0.2849  0.4525 -0.3612
   65MOL0     C 8663   3.027   6.497   3.329 -0.0470 -1.1967  0.5601
   65MOL0     O 8664   3.115   6.474   3.438 -0.0576 -0.4659 -0.4972
   65MOL0     C 8665   3.057   6.466   3.561  0.2122 -0.3814  0.5980
   65MOL0     C 8666   3.137   6.443   3.670  0.1622 -0.0345  0.6124
   65MOL0     C 8667   3.079   6.439   3.802  0.0668  0.1699  0.5858
   65MOL0     C 8668   3.178   6.397   3.907  0.2553 -0.4305 -0.2349
   65MOL0     C 8669   2.937   6.464   3.829  0.3317 -0.2746  0.4317
   65MOL0     C 8670   2.878   6.446   3.960  0.3162  0.6132 -1.0466
   65MOL0     O 8671   2.834   6.562   4.022 -0.5729  0.3111 -0.1327
   65MOL0     C 8672   2.778   6.547   4.148 -0.0177  0.8575  0.7414
   65MOL0     C 8673   2.641   6.532   4.152  0.7180 -0.9431  0.1552
   65MOL0     C 8674   2.574   6.535   4.272 -0.2326  0.7405  0.4391
   65MOL0     C 8675   2.641   6.555   4.393 -1.0752  0.9756  0.4278
   65MOL0     O 8676   2.581   6.566   4.522 -0.5476 -1.0581  0.0449
   65MOL0     C 8677   2.441   6.602   4.529 -0.4998 -0.0797 -0.6394
   65MOL0     C 8678   2.389   6.581   4.668  0.1468 -0.6132  0.2029
   65MOL0     C 8679   2.250   6.531   4.676  0.8525  0.3110 -0.0800
   65MOL0     C 8680   2.229   6.493   4.827 -0.2163  0.0142 -0.4424
   65MOL0     C 8681   2.073   6.497   4.840 -0.5424 -0.3078 -0.3771
   65MOL0     C 8682   2.007   6.473   4.979  0.6266  0.0417 -0.7003
   65MOL0     C 8683   2.028   6.325   5.006 -0.2540  0.0142 -0.3260
   65MOL0     C 8684   1.931   6.274   5.111 -0.0429 -0.1802 -0.3822
   65MOL0    Cl 8685   1.771   6.244   5.054  0.0378  0.5764 -0.0687
   65MOL0     C 8686   2.781   6.560   4.384 -0.5043  0.4077  0.2403
   65MOL0     C 8687   2.858   6.552   4.265  0.2690 -0.5241 -0.1908
   65MOL0     O 8688   2.887   6.333   4.014 -0.6273 -0.5718 -0.2222
   65MOL0     C 8689   2.863   6.492   3.712 -0.5657  0.8944 -0.5025
   65MOL0     C 8690   2.917   6.478   3.585  0.2499  0.2770  0.2778
   65MOL0     N 8691   3.435   6.226   3.169  0.8142  0.9521  0.5779
   65MOL0     N 8692   3.539   6.165   3.134 -0.2499 -0.1617 -0.3159
   65MOL0     C 8693   4.553   5.794   2.520 -0.3370 -0.7194  0.3552
   65MOL0     C 8694   4.682   5.777   2.570 -0.0172  0.6673  0.1447
   65MOL0     C 8695   5.047   5.814   2.846  0.4934  0.9214 -0.0286
   65MOL0     C 8696   5.141   5.912   2.860 -1.0209  0.3598  0.1867
   65MOL0     C 8697   5.278   5.878   2.874 -0.4824 -0.0011 -0.1630
   65MOL0     C 8698   5.319   5.746   2.895 -0.4921  0.8570 -0.5135
   65MOL0     O 8699   5.447   5.722   2.928  0.8788 -0.9534  0.6564
   65MOL0     C 8700   5.538   5.704   2.814 -0.6485  0.1706  0.6239
   65MOL0     C 8701   5.628   5.821   2.788  0.6389 -0.0319  0.0826
   65MOL0     C 8702   5.713   5.804   2.666  0.7752  0.7309  0.3467
   65MOL0     C 8703   5.838   5.893   2.661  0.5622 -0.1346  0.2813
   65MOL0     C 8704   5.809   6.037   2.638 -0.7832  0.5617  0.4644
   65MOL0     C 8705   5.805   6.155   2.618  0.0976 -0.2635 -0.1449
   65MOL0     C 8706   5.227   5.650   2.876 -0.4019  0.3761  1.0418
   65MOL0     C 8707   5.094   5.684   2.854 -0.3911  0.3551  1.0908
   65MOL0     H 8708   4.631   5.915   2.887 -2.3813  0.0740 -0.2999
   65MOL0     H 8709   4.437   5.990   2.785  4.4842  2.3566  1.4699
   65MOL0     H 8710   4.276   5.761   2.428  0.0455 -1.0952 -0.5496
   65MOL0     H 8711   4.279   5.729   2.610 -1.9202  0.4623  0.4507
   65MOL0     H 8712   4.064   5.831   2.434 -1.3989 -1.0727  0.1653
   65MOL0     H 8713   4.053   5.734   2.574  0.1758  1.5265 -0.1489
   65MOL0     H 8714   4.087   5.925   2.735  0.2575 -1.4915 -0.0394
   65MOL0     H 8715   4.104   6.033   2.584 -1.2697 -0.3720 -1.0439
   65MOL0     H 8716   3.895   5.962   2.499 -3.7081  2.6579  0.3101
   65MOL0     H 8717   3.854   5.874   2.648 -2.0657  0.6290 -0.7947
   65MOL0     H 8718   3.922   6.164   2.637 -1.0758  0.8067  2.1738
   65MOL0     H 8719   3.756   6.090   2.635  0.0133  0.9533 -0.3151
   65MOL0     H 8720   3.852   5.966   2.860 -3.4093 -0.0775 -0.8834
   65MOL0     H 8721   3.963   6.092   2.863 -1.0229  0.0434  1.9601
   65MOL0     H 8722   3.816   6.214   2.969 -0.8477  1.1323 -1.1270
   65MOL0     H 8723   3.755   6.254   2.810  0.6242 -0.7048 -0.1812
   65MOL0     H 8724   3.645   6.010   2.968 -1.6608  0.1198 -0.6969
   65MOL0     H 8725   3.597   6.069   2.822 -2.6669 -3.0065  1.6482
   65MOL0     H 8726   3.432   6.309   2.853  2.3009 -0.7042 -0.5588
   65MOL0     H 8727   3.268   6.458   2.998  1.6736  0.6303  0.8794
   65MOL0     H 8728   3.174   6.301   3.010  0.0897  0.7108  0.8843
   65MOL0     H 8729   3.303   6.452   3.241 -1.1551  0.9716 -0.4245
   65MOL0     H 8730   3.184   6.309   3.234  0.4965 -2.3511 -4.0588
   65MOL0     H 8731   3.034   6.507   3.114  1.0539  0.8022 -1.5519
   65MOL0     H 8732   3.151   6.611   3.202  1.9116 -0.5639  1.4914
   65MOL0     H 8733   2.960   6.411   3.330 -1.6092 -0.0916  3.0524
   65MOL0     H 8734   2.961   6.585   3.330 -0.4828 -1.4785 -0.9219
   65MOL0     H 8735   3.244   6.434   3.654  0.3211  2.9476 -0.5515
   65MOL0     H 8736   3.187   6.469   3.989 -2.9422  0.7042 -0.7553
   65MOL0     H 8737   3.141   6.305   3.953  1.1430  0.4224  2.3548
   65MOL0     H 8738   3.276   6.372   3.865  0.7489  1.7178 -0.4929
   65MOL0     H 8739   2.593   6.516   4.055  0.4528 -1.5297  0.3747
   65MOL0     H 8740   2.466   6.520   4.263  0.3261 -3.3939 -1.7084
   65MOL0     H 8741   2.424   6.701   4.485 -0.6291  0.2784  0.1965
   65MOL0     H 8742   2.389   6.534   4.461  0.7697 -1.1324 -0.5990
   65MOL0     H 8743   2.454   6.508   4.716 -1.5731 -1.8948  0.6671
   65MOL0     H 8744   2.404   6.671   4.728 -0.8591 -1.2583  1.4734
   65MOL0     H 8745   2.222   6.445   4.615 -2.6899  0.0342  1.6737
   65MOL0     H 8746   2.192   6.618   4.643  0.4094  0.4092  0.9247
   65MOL0     H 8747   2.268   6.393   4.850  0.6360  0.4493  0.0804
   65MOL0     H 8748   2.267   6.569   4.896  0.3673  0.6657 -1.4495
   65MOL0     H 8749   2.041   6.425   4.763 -1.4950 -0.7769  0.4339
   65MOL0     H 8750   2.043   6.593   4.797  1.2903  0.7996  0.7051
   65MOL0     H 8751   2.042   6.541   5.057 -1.9971 -1.0561  1.5690
   65MOL0     H 8752   1.898   6.482   4.973  0.3708 -1.9307  0.2007
   65MOL0     H 8753   2.128   6.310   5.046  0.5694 -1.1191 -2.6025
   65MOL0     H 8754   2.034   6.256   4.921 -2.0760  0.3453 -0.7796
   65MOL0     H 8755   1.920   6.330   5.205 -0.8248 -2.6451  1.0700
   65MOL0     H 8756   1.975   6.182   5.149 -0.5090 -0.3707 -0.2983
   65MOL0     H 8757   2.834   6.568   4.478 -0.7050 -4.0484  0.9130
   65MOL0     H 8758   2.966   6.556   4.277  0.0504  0.0893  2.2112
   65MOL0     H 8759   2.757   6.516   3.724 -0.6925 -0.0204  0.3565
   65MOL0     H 8760   2.851   6.488   3.499  0.4495 -0.6448  0.0045
   65MOL0     H 8761   4.519   5.754   2.425  0.0646  0.7391 -0.4274
   65MOL0     H 8762   4.757   5.727   2.509  0.9437  0.1310  1.7049
   65MOL0     H 8763   5.122   6.018   2.869 -1.2455  0.1115  3.7713
   65MOL0     H 8764   5.363   5.945   2.881 -1.5985  1.5564 -0.9822
   65MOL0     H 8765   5.596   5.616   2.844 -1.4179 -0.5524  0.0760
   65MOL0     H 8766   5.488   5.668   2.723  2.0924  0.5988 -1.1629
   65MOL0     H 8767   5.682   5.831   2.882 -1.1455  0.5256  1.1010
   65MOL0     H 8768   5.564   5.908   2.772 -1.7150 -1.3277  1.6811
   65MOL0     H 8769   5.657   5.827   2.574  2.3182 -0.2805 -0.9060
   65MOL0     H 8770   5.756   5.704   2.657 -0.7034  0.2117 -2.2851
   65MOL0     H 8771   5.919   5.875   2.589  2.4412  4.6942  0.7722
   65MOL0     H 8772   5.882   5.878   2.760 -3.4802 -1.8873  2.0242
   65MOL0     H 8773   5.818   6.257   2.591 -0.2520  0.3472  1.8079
   65MOL0     H 8774   5.262   5.547   2.872 -1.0417  0.1948 -0.9608
   65MOL0     H 8775   5.019   5.606   2.845 -2.1967  1.9882  1.3261
   66MOL0     O 8776   5.512  10.666   1.727 -0.0059  0.3420  0.6710
   66MOL0     C 8777   5.452  10.594   1.653  0.4894 -0.4093  0.7583
   66MOL0     O 8778   5.408  10.465   1.674  0.1834 -0.0935  0.2438
   66MOL0     C 8779   5.399  10.425   1.804 -0.0450  0.3577  0.5917
   66MOL0     C 8780   5.285  10.350   1.835 -0.7681  0.8833 -0.0354
   66MOL0     C 8781   5.267  10.298   1.970 -0.0154 -1.1865  0.0546
   66MOL0     C 8782   5.358  10.305   2.072  0.0295  0.1362  0.0224
   66MOL0     O 8783   5.356  10.240   2.193 -0.1333 -0.4089  0.6558
   66MOL0     C 8784   5.267  10.129   2.211  0.7000 -0.3183 -0.7846
   66MOL0     C 8785   5.266  10.083   2.354  0.2295  0.8262 -1.4352
   66MOL0     C 8786   5.155   9.974   2.393 -0.2998 -0.1322 -0.2138
   66MOL0     C 8787   5.172   9.842   2.325  1.0331 -0.2996 -0.2252
   66MOL0     C 8788   5.102   9.718   2.391  1.1896 -0.1235 -0.2294
   66MOL0     C 8789   5.168   9.661   2.523 -0.0485 -0.5993  0.1247
   66MOL0     C 8790   5.308   9.722   2.567  1.0343  0.0296 -0.2484
   66MOL0     C 8791   5.361   9.631   2.691  0.3323  1.3098  0.2391
   66MOL0     N 8792   5.509   9.619   2.682 -0.0398  0.0545  0.1166
   66MOL0     C 8793   5.602   9.723   2.691  1.1276 -0.4713  0.0567
   66MOL0     C 8794   5.717   9.663   2.694 -0.4218 -0.0887 -0.5880
   66MOL0     C 8795   5.848   9.740   2.713  0.8127  0.3540  0.5575
   66MOL0     C 8796   5.885   9.739   2.863  0.6807  1.0879  0.2264
   66MOL0     C 8797   5.821   9.855   2.928 -0.1551  0.0484  0.0159
   66MOL0     C 8798   5.847   9.852   3.077 -0.6359  0.0233  0.6708
   66MOL0     O 8799   5.754   9.932   3.150  0.2399  0.6740  0.2210
   66MOL0     C 8800   5.769   9.918   3.285  0.5472  0.0005 -0.6953
   66MOL0     C 8801   5.645   9.921   3.357 -0.3329 -0.1420 -0.5913
   66MOL0     C 8802   5.632   9.897   3.494  0.5093  0.2087 -0.7056
   66MOL0     C 8803   5.495   9.914   3.569 -0.0591  0.1856 -0.0010
   66MOL0     C 8804   5.740   9.840   3.563 -0.8525 -0.9891  0.2127
   66MOL0     C 8805   5.749   9.818   3.704  0.2877  0.6027 -0.7476
   66MOL0     O 8806   5.855   9.773   3.756 -0.0653  0.1609  0.1144
   66MOL0     C 8807   5.878   9.756   3.887  0.3895 -0.3274 -0.8395
   66MOL0     C 8808   5.977   9.824   3.944 -0.7486 -0.6617  0.4686
   66MOL0     C 8809   6.018   9.808   4.071 -0.2621  0.2450 -0.1844
   66MOL0     C 8810   5.978   9.696   4.140 -0.0180  0.3270 -0.2169
   66MOL0     O 8811   6.033   9.646   4.253 -0.1172  0.4119  0.2299
   66MOL0     C 8812   6.176   9.643   4.263 -0.7363  0.5604 -0.2394
   66MOL0     C 8813   6.241   9.541   4.164  0.2097  0.8001  0.0428
   66MOL0     C 8814   6.200   9.396   4.206 -0.6814 -0.0044 -0.0336
   66MOL0     C 8815   6.196   9.291   4.089 -0.1008  0.4442  0.0237
   66MOL0     C 8816   6.141   9.159   4.131 -0.6434  0.4770  0.0202
   66MOL0     C 8817   6.161   9.058   4.016  0.3149  1.4326  0.0284
   66MOL0     C 8818   6.074   8.928   4.022 -0.3228  0.5499 -0.2947
   66MOL0     C 8819   6.014   8.884   3.887 -0.0587 -0.1903  0.2721
   66MOL0    Cl 8820   5.930   9.027   3.798  0.4246 -0.3564 -0.4740
   66MOL0     C 8821   5.871   9.616   4.084  0.6031  0.7171  0.0851
   66MOL0     C 8822   5.830   9.647   3.956 -0.3124  0.0019  0.0793
   66MOL0     O 8823   5.650   9.847   3.770 -0.0916 -0.4260 -0.0553
   66MOL0     C 8824   5.861   9.830   3.496 -0.0318 -0.1646 -0.0868
   66MOL0     C 8825   5.883   9.868   3.359 -0.3255  0.6207 -0.3440
   66MOL0     N 8826   5.709   9.521   2.682 -0.2706 -0.0466 -0.1076
   66MOL0     N 8827   5.574   9.500   2.660 -0.0985 -0.3171  0.0561
   66MOL0     C 8828   5.471  10.382   2.042  0.5525  0.5233  0.5582
   66MOL0     C 8829   5.492  10.437   1.913 -0.2713  0.0131 -0.4851
   66MOL0     C 8830   5.423  10.660   1.532 -0.8422  0.2732 -0.5403
   66MOL0     C 8831   5.408  10.806   1.530 -1.0433 -0.4845  0.3575
   66MOL0     C 8832   5.383  10.871   1.411 -0.4932 -0.5570  0.9719
   66MOL0     C 8833   5.376  10.808   1.291 -0.0055  0.6166 -0.1822
   66MOL0     O 8834   5.364  10.884   1.176 -0.0072  0.2446 -0.4795
   66MOL0     C 8835   5.225  10.889   1.143 -0.7658 -0.0122  0.1525
   66MOL0     C 8836   5.195  10.924   0.995  0.6142  0.3549  1.1687
   66MOL0     C 8837   5.247  11.069   0.958  0.4952  0.4304  0.3637
   66MOL0     C 8838   5.196  11.173   1.058  0.3797 -0.1681 -0.2249
   66MOL0     C 8839   5.194  11.308   0.994 -0.5730 -0.4883  0.5531
   66MOL0     C 8840   5.205  11.414   0.938 -0.1444  0.7270 -0.1708
   66MOL0     C 8841   5.394  10.665   1.283  0.4815  0.0664 -1.3234
   66MOL0     C 8842   5.419  10.593   1.407  0.5940 -0.2493  0.3413
   66MOL0     H 8843   5.215  10.340   1.753 -0.8977 -0.7024  0.2323
   66MOL0     H 8844   5.173  10.244   1.978 -3.3146  3.7360 -0.4074
   66MOL0     H 8845   5.163  10.162   2.200  1.1386  1.0238 -1.1790
   66MOL0     H 8846   5.289  10.041   2.150 -1.2512 -0.9003 -0.7445
   66MOL0     H 8847   5.361  10.040   2.388  0.7536  1.4917 -2.0173
   66MOL0     H 8848   5.238  10.160   2.426 -3.8192 -1.2889 -0.4051
   66MOL0     H 8849   5.157   9.978   2.502 -1.7715  1.9146 -0.1915
   66MOL0     H 8850   5.057  10.012   2.362 -0.9324 -0.4946  1.2647
   66MOL0     H 8851   5.128   9.856   2.226  0.9142  2.7837  0.1758
   66MOL0     H 8852   5.280   9.824   2.324  1.1382 -1.0040  3.8492
   66MOL0     H 8853   5.000   9.743   2.421  1.3361 -2.3288  2.6142
   66MOL0     H 8854   5.096   9.642   2.313 -1.0543 -0.9401  0.6662
   66MOL0     H 8855   5.099   9.660   2.608 -0.9496  1.7252 -0.4814
   66MOL0     H 8856   5.185   9.556   2.500 -1.3871  0.1062 -5.3908
   66MOL0     H 8857   5.373   9.714   2.479 -0.4838  0.2207 -1.4298
   66MOL0     H 8858   5.300   9.827   2.596 -0.9381 -0.0424 -0.4111
   66MOL0     H 8859   5.317   9.530   2.687  0.6071  1.1791  0.5081
   66MOL0     H 8860   5.329   9.691   2.777 -0.2639  2.4256 -0.7418
   66MOL0     H 8861   5.579   9.829   2.692  0.9581 -0.3804 -3.1141
   66MOL0     H 8862   5.925   9.676   2.669 -0.3054 -1.6605  1.4148
   66MOL0     H 8863   5.846   9.835   2.657 -1.5227 -0.2105 -0.4653
   66MOL0     H 8864   5.991   9.758   2.879  0.5459 -0.1923  3.2966
   66MOL0     H 8865   5.867   9.646   2.917 -1.2830  1.7470  0.7742
   66MOL0     H 8866   5.716   9.857   2.897  0.2159  1.8385 -1.3105
   66MOL0     H 8867   5.862   9.949   2.888 -1.7950  1.7994  2.1721
   66MOL0     H 8868   5.946   9.894   3.096 -0.8895  0.9498  0.0128
   66MOL0     H 8869   5.851   9.750   3.116 -0.6842 -0.7546 -1.2333
   66MOL0     H 8870   5.558   9.955   3.302 -0.3791  3.4589  1.4613
   66MOL0     H 8871   5.493  10.006   3.627 -1.7018  1.9924 -2.6846
   66MOL0     H 8872   5.420   9.916   3.490  0.8893  1.4411 -0.9116
   66MOL0     H 8873   5.456   9.835   3.633 -4.2928  0.0657 -2.3893
   66MOL0     H 8874   6.020   9.903   3.885  3.4895 -1.8997  1.5651
   66MOL0     H 8875   6.089   9.868   4.127  0.9687 -2.4071  1.2832
   66MOL0     H 8876   6.223   9.739   4.238  0.8157  0.1488  0.9492
   66MOL0     H 8877   6.200   9.622   4.368 -1.8351  0.0996 -0.0706
   66MOL0     H 8878   6.214   9.556   4.060  2.4248 -0.7485 -0.8383
   66MOL0     H 8879   6.351   9.546   4.165  0.3432  0.2179  3.8191
   66MOL0     H 8880   6.096   9.395   4.240 -0.4923  0.0605  0.5611
   66MOL0     H 8881   6.263   9.365   4.290  1.3471 -0.2208 -1.5578
   66MOL0     H 8882   6.157   9.325   3.993 -1.3907 -3.0145 -0.8193
   66MOL0     H 8883   6.301   9.270   4.065  0.1669 -0.7918  2.0844
   66MOL0     H 8884   6.036   9.155   4.162 -0.6094 -1.1754 -0.0014
   66MOL0     H 8885   6.201   9.123   4.215 -1.4676  1.7790  1.2110
   66MOL0     H 8886   6.145   9.102   3.918  0.1040 -0.5736 -0.8919
   66MOL0     H 8887   6.266   9.030   4.015 -0.2808 -1.0498 -0.3828
   66MOL0     H 8888   6.001   8.941   4.102  0.2071  1.1192  0.1074
   66MOL0     H 8889   6.135   8.845   4.060 -1.1436  0.5668  1.1040
   66MOL0     H 8890   5.945   8.799   3.894 -2.8477  1.5208 -3.0547
   66MOL0     H 8891   6.097   8.865   3.819 -1.0341  0.0351 -1.0107
   66MOL0     H 8892   5.831   9.536   4.145 -1.5061  2.2361  0.7867
   66MOL0     H 8893   5.748   9.584   3.922 -0.9509  1.2364 -0.7933
   66MOL0     H 8894   5.949   9.803   3.553 -1.6574 -2.2542  1.5853
   66MOL0     H 8895   5.976   9.849   3.306 -1.5816 -0.2593 -2.3297
   66MOL0     H 8896   5.552  10.385   2.114  0.1850 -3.5185  1.3871
   66MOL0     H 8897   5.587  10.485   1.892 -1.3101  1.0242 -3.3214
   66MOL0     H 8898   5.419  10.867   1.619  0.3770 -1.4905  0.9032
   66MOL0     H 8899   5.367  10.979   1.412 -1.0701 -0.6382  1.2820
   66MOL0     H 8900   5.175  10.795   1.167 -2.8733  1.0021 -0.0381
   66MOL0     H 8901   5.175  10.965   1.204  0.3882  1.8930 -1.1591
   66MOL0     H 8902   5.089  10.926   0.967  0.8977  0.2907  0.0639
   66MOL0     H 8903   5.235  10.845   0.930  1.1052 -0.1916  2.1114
   66MOL0     H 8904   5.220  11.097   0.855  3.8491  0.7103 -0.5650
   66MOL0     H 8905   5.356  11.079   0.967  0.3186  1.4704  1.6249
   66MOL0     H 8906   5.279  11.188   1.128  1.8882  0.8540 -2.1632
   66MOL0     H 8907   5.099  11.149   1.104  0.2776  2.1585  0.9226
   66MOL0     H 8908   5.215  11.515   0.905  3.0858  0.6989  0.4631
   66MOL0     H 8909   5.387  10.606   1.192 -0.8280 -2.4242  0.2739
   66MOL0     H 8910   5.427  10.485   1.407 -2.8107 -0.6208 -1.7606
   67MOL0     O 8911   4.587   1.682   5.382  0.3378  0.9578  0.3849
   67MOL0     C 8912   4.638   1.600   5.315  0.1844  1.8511  0.4441
   67MOL0     O 8913   4.699   1.487   5.356  0.1277 -0.0202 -0.3435
   67MOL0     C 8914   4.729   1.458   5.490  0.0429 -0.3171  0.2892
   67MOL0     C 8915   4.639   1.479   5.595 -0.6248 -0.7918  1.5278
   67MOL0     C 8916   4.682   1.445   5.729 -0.3427  0.5069 -0.6136
   67MOL0     C 8917   4.808   1.393   5.764 -0.2225  0.2303 -1.1546
   67MOL0     O 8918   4.862   1.348   5.885  0.1948 -0.2124 -0.3799
   67MOL0     C 8919   4.832   1.416   6.005  0.6729  0.2556 -0.0166
   67MOL0     C 8920   4.950   1.407   6.104 -0.2458 -0.5128 -1.0900
   67MOL0     C 8921   4.927   1.503   6.221  0.9151  0.0181  0.5113
   67MOL0     C 8922   5.035   1.509   6.333  0.0246 -0.2899 -1.0246
   67MOL0     C 8923   5.169   1.571   6.301 -0.1870 -0.0468 -0.6785
   67MOL0     C 8924   5.277   1.558   6.416  0.0393  0.6153 -0.4323
   67MOL0     C 8925   5.286   1.679   6.510  0.4601  0.3605 -0.0038
   67MOL0     C 8926   5.359   1.793   6.452 -0.6234  0.4984 -0.5420
   67MOL0     N 8927   5.403   1.879   6.552  0.1328  0.1248 -0.2989
   67MOL0     C 8928   5.534   1.902   6.594 -0.2169  0.9239  0.4461
   67MOL0     C 8929   5.535   2.019   6.652  0.7757 -0.4239 -0.2041
   67MOL0     C 8930   5.655   2.093   6.702  0.0368 -0.0623 -0.4266
   67MOL0     C 8931   5.730   2.001   6.807 -0.4571 -0.4025 -0.3084
   67MOL0     C 8932   5.828   2.085   6.890 -0.3131 -0.3156 -0.8919
   67MOL0     C 8933   5.926   2.162   6.799 -0.2896  0.0696 -0.5310
   67MOL0     O 8934   6.038   2.215   6.872  0.1001 -0.4497 -0.2294
   67MOL0     C 8935   6.018   2.343   6.919 -0.4461  0.9343 -0.7380
   67MOL0     C 8936   5.971   2.351   7.048  0.2287  0.1782  0.2700
   67MOL0     C 8937   5.925   2.481   7.104 -0.0153 -0.0033 -0.5819
   67MOL0     C 8938   5.857   2.484   7.240 -0.1753  0.0772  0.2029
   67MOL0     C 8939   5.950   2.594   7.024 -0.6732  0.7475 -0.6110
   67MOL0     C 8940   5.921   2.727   7.068  0.7881 -0.2099  0.5356
   67MOL0     O 8941   5.842   2.803   6.983 -0.3016 -0.4141  0.0710
   67MOL0     C 8942   5.830   2.946   6.986  0.6718  0.0150 -1.2599
   67MOL0     C 8943   5.915   3.026   6.911  0.3851 -0.0716  0.2903
   67MOL0     C 8944   5.891   3.161   6.899  0.4541 -0.2064  0.5091
   67MOL0     C 8945   5.789   3.225   6.968 -0.5689 -1.1371 -0.1503
   67MOL0     O 8946   5.755   3.359   6.959  0.2139  0.3072 -0.7073
   67MOL0     C 8947   5.785   3.432   6.839 -0.5435  0.2745  0.5727
   67MOL0     C 8948   5.711   3.564   6.841  0.1086 -0.4592 -0.4349
   67MOL0     C 8949   5.725   3.633   6.982 -0.3062 -0.0885  0.0557
   67MOL0     C 8950   5.857   3.684   7.032 -0.7898 -0.8231  0.2157
   67MOL0     C 8951   5.847   3.759   7.173  0.4745 -0.8963  0.5185
   67MOL0     C 8952   5.949   3.869   7.180 -0.4618 -0.3099  0.7283
   67MOL0     C 8953   6.092   3.814   7.174  0.3977 -1.2892  0.0101
   67MOL0     C 8954   6.123   3.720   7.302 -0.1159  0.2476  1.0135
   67MOL0    Cl 8955   6.092   3.789   7.463 -0.6140 -0.0214 -0.0225
   67MOL0     C 8956   5.709   3.146   7.043  0.3554 -1.1121  0.0161
   67MOL0     C 8957   5.727   3.010   7.063 -0.2587 -0.3464  0.5227
   67MOL0     O 8958   5.971   2.771   7.164  0.0209  0.3784  0.4167
   67MOL0     C 8959   6.008   2.587   6.896  0.5190  0.5860 -0.8055
   67MOL0     C 8960   6.032   2.460   6.836  0.9522 -0.2508  0.0466
   67MOL0     N 8961   5.405   2.070   6.658 -0.7313  0.2866 -0.1931
   67MOL0     N 8962   5.334   1.978   6.601  0.7613 -0.8047 -0.0781
   67MOL0     C 8963   4.886   1.367   5.656 -0.0270 -0.7518 -0.0368
   67MOL0     C 8964   4.847   1.392   5.528  0.6606  0.3128  0.3111
   67MOL0     C 8965   4.638   1.607   5.168  0.7592 -1.4174 -0.0685
   67MOL0     C 8966   4.644   1.734   5.108 -0.4167 -0.4346 -0.0891
   67MOL0     C 8967   4.654   1.746   4.975  0.5171 -0.0140  0.4370
   67MOL0     C 8968   4.643   1.629   4.891  0.2790 -0.0469  0.1791
   67MOL0     O 8969   4.640   1.635   4.753  0.0305  0.0415 -0.7342
   67MOL0     C 8970   4.560   1.733   4.680  0.3021  0.1043  0.4224
   67MOL0     C 8971   4.447   1.671   4.599 -0.0270  0.7114 -0.2170
   67MOL0     C 8972   4.348   1.585   4.680 -0.0071  0.6397  1.0730
   67MOL0     C 8973   4.296   1.655   4.804 -0.2065 -0.3130  0.2498
   67MOL0     C 8974   4.284   1.565   4.916  1.1139  0.6519  0.6929
   67MOL0     C 8975   4.260   1.489   5.009  0.2836  0.1239 -0.0987
   67MOL0     C 8976   4.644   1.504   4.953  0.3636 -0.8648  0.6982
   67MOL0     C 8977   4.638   1.491   5.090 -0.2375  0.5335 -0.4775
   67MOL0     H 8978   4.544   1.526   5.572  0.3171  1.5322  2.1153
   67MOL0     H 8979   4.626   1.479   5.815  1.0571 -0.1436  0.5941
   67MOL0     H 8980   4.816   1.522   5.984  1.3844  0.5642  0.9412
   67MOL0     H 8981   4.740   1.375   6.049 -0.3733  1.6619 -0.7796
   67MOL0     H 8982   4.954   1.302   6.136  0.0564 -0.4714 -0.9862
   67MOL0     H 8983   5.044   1.433   6.055 -0.2310  2.2252  0.2325
   67MOL0     H 8984   4.921   1.605   6.181 -0.2531 -0.4840 -0.6911
   67MOL0     H 8985   4.829   1.483   6.265 -0.4123  2.6450 -0.9676
   67MOL0     H 8986   4.991   1.561   6.418 -1.0235  0.9570 -2.2718
   67MOL0     H 8987   5.048   1.403   6.358  2.6362  0.1191 -0.3732
   67MOL0     H 8988   5.213   1.518   6.216 -1.7386 -1.1250 -0.8512
   67MOL0     H 8989   5.150   1.673   6.265 -3.4327  0.0322  0.9365
   67MOL0     H 8990   5.248   1.465   6.467  1.4250  0.2744 -0.2374
   67MOL0     H 8991   5.374   1.545   6.367 -0.4234  2.6078 -1.9828
   67MOL0     H 8992   5.189   1.711   6.549  0.9860  2.4875 -0.2829
   67MOL0     H 8993   5.342   1.639   6.594 -1.1686 -1.0228  0.4811
   67MOL0     H 8994   5.298   1.852   6.383 -0.1486  0.7514 -0.7506
   67MOL0     H 8995   5.436   1.752   6.386  0.3761  0.3675  0.6862
   67MOL0     H 8996   5.623   1.842   6.582 -1.6100 -0.9839 -1.1180
   67MOL0     H 8997   5.726   2.111   6.621 -0.7726  1.5826 -0.8155
   67MOL0     H 8998   5.626   2.188   6.748  1.7678 -0.2313  1.1494
   67MOL0     H 8999   5.796   1.925   6.765  1.2112 -0.1963  1.7476
   67MOL0     H 9000   5.656   1.955   6.873 -1.6277  1.5643 -0.1651
   67MOL0     H 9001   5.880   2.026   6.966 -0.9432  0.9587  0.5829
   67MOL0     H 9002   5.778   2.165   6.946  0.6617  0.3726 -0.9760
   67MOL0     H 9003   5.874   2.240   6.741 -2.4101 -1.6989 -1.1485
   67MOL0     H 9004   5.959   2.103   6.713 -4.3004 -0.9397 -1.5838
   67MOL0     H 9005   5.955   2.256   7.097 -2.3908  1.0278  1.2248
   67MOL0     H 9006   5.752   2.513   7.234  0.0244  0.5376 -3.7946
   67MOL0     H 9007   5.853   2.391   7.298  1.4491  0.3836  0.8660
   67MOL0     H 9008   5.914   2.562   7.292 -0.0390  1.2666 -1.6364
   67MOL0     H 9009   6.004   3.002   6.854  1.8576  0.1910  2.3920
   67MOL0     H 9010   5.958   3.224   6.840  1.2028  1.6033  3.0992
   67MOL0     H 9011   5.893   3.450   6.835 -0.3696 -0.2335  2.2903
   67MOL0     H 9012   5.759   3.377   6.748 -2.3166 -0.5630  1.5324
   67MOL0     H 9013   5.752   3.631   6.765 -1.9308  0.1900 -1.0291
   67MOL0     H 9014   5.602   3.550   6.833 -0.0867  0.4511  0.3855
   67MOL0     H 9015   5.683   3.561   7.053  1.1588 -1.7659 -0.7205
   67MOL0     H 9016   5.670   3.728   6.983  0.9676  0.6849 -0.0991
   67MOL0     H 9017   5.931   3.603   7.041  1.6101  1.3049  0.8983
   67MOL0     H 9018   5.910   3.749   6.962  1.2088 -0.4285  1.9812
   67MOL0     H 9019   5.853   3.691   7.258  2.2842  0.0861  1.2153
   67MOL0     H 9020   5.753   3.816   7.171  1.4476  0.7921 -1.1185
   67MOL0     H 9021   5.909   3.928   7.097 -1.5283  2.8942  3.3115
   67MOL0     H 9022   5.926   3.934   7.265 -2.5566 -1.0288  0.7601
   67MOL0     H 9023   6.166   3.894   7.187  0.6690 -1.3349 -1.1494
   67MOL0     H 9024   6.115   3.757   7.083 -1.4954 -0.6353 -0.9233
   67MOL0     H 9025   6.227   3.690   7.289  0.7873  3.9936 -2.1195
   67MOL0     H 9026   6.066   3.628   7.283 -1.3805  1.4810 -1.7150
   67MOL0     H 9027   5.623   3.195   7.089 -0.7236  0.4986 -3.3940
   67MOL0     H 9028   5.663   2.937   7.111  1.4236 -3.3871 -1.4543
   67MOL0     H 9029   6.034   2.678   6.842 -1.3131  1.4550 -0.3356
   67MOL0     H 9030   6.080   2.456   6.739  0.6405  2.3259 -0.2779
   67MOL0     H 9031   4.980   1.314   5.666  0.5029  0.5109  2.8473
   67MOL0     H 9032   4.919   1.374   5.448 -1.5365  0.2342 -1.7882
   67MOL0     H 9033   4.661   1.818   5.174 -3.1555  0.1813 -0.0526
   67MOL0     H 9034   4.665   1.848   4.941  3.2433  0.5652  2.6335
   67MOL0     H 9035   4.522   1.815   4.741  1.4549  1.1838 -0.2744
   67MOL0     H 9036   4.631   1.774   4.608 -2.2204  0.3071 -2.1277
   67MOL0     H 9037   4.490   1.604   4.524 -1.2443 -1.3518  0.8315
   67MOL0     H 9038   4.391   1.745   4.541 -1.9786 -0.3385  0.2221
   67MOL0     H 9039   4.391   1.486   4.691 -0.1710  0.4587  0.2150
   67MOL0     H 9040   4.265   1.559   4.613  0.0746 -0.1069  1.2523
   67MOL0     H 9041   4.200   1.701   4.779  0.6058 -0.2149 -3.2139
   67MOL0     H 9042   4.347   1.739   4.852  1.2539 -0.3510 -1.1535
   67MOL0     H 9043   4.223   1.440   5.097 -3.7392  3.6027  0.4986
   67MOL0     H 9044   4.659   1.405   4.911  2.5469 -1.6618  3.0559
   67MOL0     H 9045   4.634   1.397   5.144  1.2362  1.4286  1.2717
   68MOL0     O 9046   2.777   8.932   0.085  0.1454  0.4382 -0.5252
   68MOL0     C 9047   2.667   8.986   0.104 -0.3374  0.3917  0.1012
   68MOL0     O 9048   2.643   9.117   0.102  0.0169 -0.5544 -0.1087
   68MOL0     C 9049   2.724   9.190   0.021  0.4151  0.0100  1.1105
   68MOL0     C 9050   2.663   9.259  -0.085  0.0056 -0.2514 -0.3646
   68MOL0     C 9051   2.743   9.341  -0.169  0.5401  0.2063  0.0454
   68MOL0     C 9052   2.877   9.361  -0.151 -1.1495  0.5422 -0.6609
   68MOL0     O 9053   2.953   9.444  -0.228  0.7018 -0.5713 -0.0836
   68MOL0     C 9054   3.085   9.389  -0.263  0.0287 -0.2829 -0.5794
   68MOL0     C 9055   3.132   9.437  -0.399 -0.0286 -0.8328 -0.0349
   68MOL0     C 9056   3.149   9.591  -0.407  0.2597  0.7928  0.1997
   68MOL0     C 9057   3.241   9.641  -0.530  1.0537 -0.1510 -0.5589
   68MOL0     C 9058   3.229   9.800  -0.530 -0.1158  0.5194 -0.3526
   68MOL0     C 9059   3.355   9.867  -0.590  0.2608  0.2910 -0.0740
   68MOL0     C 9060   3.353  10.023  -0.605  1.3613 -0.1375 -0.4069
   68MOL0     C 9061   3.489  10.069  -0.653  0.0846  0.7076 -0.5950
   68MOL0     N 9062   3.494  10.209  -0.704  0.0442 -0.2479 -1.0702
   68MOL0     C 9063   3.446  10.253  -0.825 -0.1263  0.7407  0.2817
   68MOL0     C 9064   3.459  10.390  -0.820  0.1866  0.4152  1.5445
   68MOL0     C 9065   3.410  10.494  -0.921 -0.1872  0.4578 -0.1857
   68MOL0     C 9066   3.261  10.494  -0.930  0.2594  0.0272 -0.2970
   68MOL0     C 9067   3.177  10.541  -0.806  0.2461 -0.3614 -0.6515
   68MOL0     C 9068   3.165  10.453  -0.682  0.0795  1.0893 -0.5278
   68MOL0     O 9069   3.125  10.315  -0.705 -0.9532 -0.6927 -0.1418
   68MOL0     C 9070   3.089  10.242  -0.592  0.0480 -0.1774 -0.3886
   68MOL0     C 9071   3.016  10.126  -0.610  0.2836  0.4723 -0.1373
   68MOL0     C 9072   2.960  10.054  -0.503 -0.0249 -0.5265  0.6838
   68MOL0     C 9073   2.873   9.930  -0.529 -0.6572 -0.2637  0.2839
   68MOL0     C 9074   2.985  10.091  -0.367  0.1358  0.1081 -0.9083
   68MOL0     C 9075   2.907  10.030  -0.261 -0.7441 -0.2177 -0.2320
   68MOL0     O 9076   2.966   9.949  -0.178  0.2963 -1.3623 -0.3324
   68MOL0     C 9077   2.886   9.889  -0.082  0.5220  0.0456 -0.6783
   68MOL0     C 9078   2.880   9.750  -0.080  0.6478 -0.1731  0.7057
   68MOL0     C 9079   2.806   9.682   0.015 -0.2817  0.2014  0.4064
   68MOL0     C 9080   2.740   9.752   0.118  0.6035  0.5091  0.5984
   68MOL0     O 9081   2.652   9.691   0.208 -0.7297  0.1073  0.6668
   68MOL0     C 9082   2.617   9.556   0.182  0.2040 -0.0194 -0.7658
   68MOL0     C 9083   2.512   9.502   0.282 -0.1478  0.7887  0.5548
   68MOL0     C 9084   2.389   9.593   0.278 -0.3881 -0.0616  0.2974
   68MOL0     C 9085   2.286   9.541   0.376 -0.1585 -0.1757  0.2461
   68MOL0     C 9086   2.165   9.638   0.395  0.2158  0.5763 -0.0711
   68MOL0     C 9087   2.113   9.700   0.268  0.9485  0.6987 -0.1615
   68MOL0     C 9088   2.028   9.605   0.176 -0.4000  0.0351  0.1418
   68MOL0     C 9089   1.934   9.684   0.093 -1.0788  0.8988  0.2042
   68MOL0    Cl 9090   1.780   9.682   0.176  0.1259 -0.0388 -0.2088
   68MOL0     C 9091   2.751   9.891   0.121 -0.1343  0.1709 -0.9616
   68MOL0     C 9092   2.832   9.957   0.027 -0.7748 -1.2517 -0.2185
   68MOL0     O 9093   2.796  10.077  -0.246 -0.0992 -0.1299  1.0534
   68MOL0     C 9094   3.073  10.209  -0.350  0.5291  0.0010 -0.0827
   68MOL0     C 9095   3.130  10.275  -0.459  0.0398  0.7400  0.0773
   68MOL0     N 9096   3.518  10.426  -0.712  0.1265  0.2474 -0.7554
   68MOL0     N 9097   3.536  10.325  -0.643  1.0986  0.6178 -0.0433
   68MOL0     C 9098   2.934   9.300  -0.036 -0.2999  0.1903  0.1571
   68MOL0     C 9099   2.857   9.209   0.044 -0.0926 -0.9460 -0.3279
   68MOL0     C 9100   2.555   8.890   0.151 -0.1069  0.0675 -0.5860
   68MOL0     C 9101   2.421   8.935   0.159 -0.9539 -0.6481 -0.5095
   68MOL0     C 9102   2.315   8.848   0.211  0.4377 -0.1838  0.2798
   68MOL0     C 9103   2.348   8.721   0.253  0.1189 -0.2125 -0.7661
   68MOL0     O 9104   2.261   8.620   0.274 -0.4267  0.9229 -0.3507
   68MOL0     C 9105   2.133   8.626   0.208 -1.1310 -0.0691 -0.2373
   68MOL0     C 9106   2.067   8.489   0.240  0.2160 -1.0013 -0.2104
   68MOL0     C 9107   1.931   8.453   0.166  0.2327  0.0842  0.2746
   68MOL0     C 9108   1.871   8.326   0.225  0.6780  0.0560 -0.0164
   68MOL0     C 9109   1.925   8.206   0.166  0.0057 -0.0589  1.1236
   68MOL0     C 9110   1.985   8.115   0.119  0.1410 -0.2008  0.3439
   68MOL0     C 9111   2.482   8.679   0.252  0.3779  0.1948  0.0511
   68MOL0     C 9112   2.581   8.763   0.207 -0.3130 -0.2069  0.2163
   68MOL0     H 9113   2.557   9.256  -0.106  0.2609  1.6616 -2.2541
   68MOL0     H 9114   2.693   9.395  -0.249 -0.1470 -1.5267 -0.7439
   68MOL0     H 9115   3.154   9.427  -0.186 -0.8640 -0.6192  0.4068
   68MOL0     H 9116   3.083   9.280  -0.256 -2.4191 -0.3224 -1.2968
   68MOL0     H 9117   3.233   9.396  -0.414 -1.4146 -4.3260 -0.7766
   68MOL0     H 9118   3.073   9.395  -0.481  0.6348 -2.8706  0.4722
   68MOL0     H 9119   3.049   9.635  -0.410 -0.8567 -1.2915  2.9776
   68MOL0     H 9120   3.203   9.617  -0.315  0.3014  1.7353 -0.0736
   68MOL0     H 9121   3.341   9.610  -0.498 -0.6466 -3.2949  2.2029
   68MOL0     H 9122   3.209   9.606  -0.629 -1.3015 -2.2125  0.8235
   68MOL0     H 9123   3.145   9.841  -0.587  0.0961  0.7619 -0.4894
   68MOL0     H 9124   3.222   9.837  -0.427  2.7403  1.1300 -0.3080
   68MOL0     H 9125   3.438   9.844  -0.521 -0.5186  1.0966  1.1713
   68MOL0     H 9126   3.367   9.824  -0.690 -1.5467 -3.2109  1.0465
   68MOL0     H 9127   3.277  10.034  -0.683  0.1636 -1.3628  0.5349
   68MOL0     H 9128   3.326  10.075  -0.513  2.9190 -0.5670  0.3302
   68MOL0     H 9129   3.518  10.004  -0.737 -0.6047 -0.2426 -0.1166
   68MOL0     H 9130   3.561  10.063  -0.572 -0.5618  2.2043  0.1244
   68MOL0     H 9131   3.415  10.179  -0.898  2.1849 -0.3335  0.3060
   68MOL0     H 9132   3.440  10.591  -0.881 -0.7996  0.5229  0.1324
   68MOL0     H 9133   3.468  10.483  -1.013 -1.3371  1.7581 -1.1104
   68MOL0     H 9134   3.224  10.395  -0.958  2.2985 -0.5102 -1.2141
   68MOL0     H 9135   3.223  10.551  -1.016  0.0229  1.7158  0.8725
   68MOL0     H 9136   3.077  10.560  -0.846 -0.3056  2.9668  1.8266
   68MOL0     H 9137   3.220  10.637  -0.775 -0.3521 -0.4508  0.5070
   68MOL0     H 9138   3.098  10.498  -0.608 -1.0463 -0.2944 -0.6740
   68MOL0     H 9139   3.259  10.453  -0.626 -0.9234  2.3285  1.2582
   68MOL0     H 9140   2.997  10.089  -0.711  1.1048 -0.1393 -0.0746
   68MOL0     H 9141   2.923   9.849  -0.475  0.6816  0.8245  0.7449
   68MOL0     H 9142   2.773   9.951  -0.490 -0.5432  0.2260  0.3236
   68MOL0     H 9143   2.869   9.902  -0.634 -1.8424 -1.0097  0.5066
   68MOL0     H 9144   2.942   9.706  -0.158  0.2398 -0.4781  0.5504
   68MOL0     H 9145   2.806   9.577  -0.013 -2.9198  0.8078 -2.3169
   68MOL0     H 9146   2.580   9.544   0.079  2.7277  4.1757 -2.4388
   68MOL0     H 9147   2.702   9.492   0.207 -1.5997 -2.0127  0.5500
   68MOL0     H 9148   2.485   9.400   0.254 -4.4767  1.7541  0.5363
   68MOL0     H 9149   2.552   9.494   0.384  1.2318 -2.5490 -0.1322
   68MOL0     H 9150   2.346   9.576   0.178 -2.1852  0.7978  0.8666
   68MOL0     H 9151   2.422   9.697   0.287  0.3886 -0.3713  1.1559
   68MOL0     H 9152   2.241   9.450   0.336  0.8565 -0.6069  0.0308
   68MOL0     H 9153   2.348   9.521   0.464  0.7193  1.5965  0.0634
   68MOL0     H 9154   2.198   9.718   0.463  1.3595  0.4452 -0.4521
   68MOL0     H 9155   2.075   9.590   0.436 -1.0069 -0.4721 -3.6503
   68MOL0     H 9156   2.049   9.779   0.309  0.7133 -0.5364  2.0115
   68MOL0     H 9157   2.194   9.742   0.208  1.1525 -0.0562 -0.4250
   68MOL0     H 9158   1.976   9.530   0.236 -0.0395 -1.5731 -1.4579
   68MOL0     H 9159   2.100   9.558   0.107  1.3389 -0.0911  1.9275
   68MOL0     H 9160   1.941   9.632  -0.002  1.7153 -0.7140  1.1552
   68MOL0     H 9161   1.965   9.787   0.073 -0.4010  0.8831  1.0734
   68MOL0     H 9162   2.691   9.940   0.196 -3.0049  1.4780 -3.8728
   68MOL0     H 9163   2.832  10.063   0.048 -0.3650 -1.2357 -0.2938
   68MOL0     H 9164   3.095  10.235  -0.247 -0.5145  0.2624  0.0908
   68MOL0     H 9165   3.190  10.361  -0.431 -1.6468  2.2613 -0.7324
   68MOL0     H 9166   3.033   9.327  -0.002 -0.4602 -1.4870  2.1432
   68MOL0     H 9167   2.903   9.162   0.131  2.0255  1.6431  0.1320
   68MOL0     H 9168   2.396   9.032   0.117 -1.0187 -0.7814 -0.7812
   68MOL0     H 9169   2.214   8.888   0.215  0.7798  0.9417 -1.5185
   68MOL0     H 9170   2.070   8.712   0.236  0.5117  1.2809 -0.5593
   68MOL0     H 9171   2.145   8.640   0.100  0.4822  3.0768  0.2122
   68MOL0     H 9172   2.042   8.498   0.346 -0.1040 -1.1735 -0.2697
   68MOL0     H 9173   2.141   8.410   0.222  1.7436 -0.0099  1.4539
   68MOL0     H 9174   1.943   8.443   0.058  0.6009 -1.7671  0.4554
   68MOL0     H 9175   1.866   8.537   0.191  1.1757  1.2627 -1.1153
   68MOL0     H 9176   1.762   8.327   0.219  0.5610  1.9806  1.2301
   68MOL0     H 9177   1.881   8.317   0.333  0.9894  1.2842  0.0753
   68MOL0     H 9178   2.047   8.034   0.085 -1.4054 -2.2579  2.1001
   68MOL0     H 9179   2.509   8.585   0.297  0.6485  1.3035  2.3525
   68MOL0     H 9180   2.688   8.743   0.210 -0.2103  0.2301 -0.3584
   69MOL0     O 9181   6.447   2.335   0.849 -0.4105 -0.2707 -0.4219
   69MOL0     C 9182   6.524   2.242   0.805 -0.2926 -0.3648  0.0443
   69MOL0     O 9183   6.542   2.120   0.872 -0.5948  0.3641  0.1260
   69MOL0     C 9184   6.484   2.106   0.997 -0.3697  0.3609  0.2051
   69MOL0     C 9185   6.560   2.084   1.114  0.6388 -0.2435  0.4162
   69MOL0     C 9186   6.493   2.078   1.242 -1.6341  0.3074  0.8034
   69MOL0     C 9187   6.362   2.051   1.253 -0.2562 -1.0327 -0.9015
   69MOL0     O 9188   6.294   2.021   1.367  0.5265  0.4001  0.5728
   69MOL0     C 9189   6.309   2.074   1.495  0.8369  0.2057  0.4007
   69MOL0     C 9190   6.189   2.163   1.533  1.4180 -0.9784  0.8725
   69MOL0     C 9191   6.178   2.176   1.681 -0.4763  0.6938 -0.5789
   69MOL0     C 9192   6.070   2.282   1.738 -0.3532 -0.9307  0.1826
   69MOL0     C 9193   6.058   2.280   1.892 -0.1785 -0.7992 -0.1842
   69MOL0     C 9194   6.019   2.413   1.952 -0.1791  1.2367  0.8721
   69MOL0     C 9195   5.989   2.428   2.102  0.0161  0.6154  0.2804
   69MOL0     C 9196   6.112   2.375   2.193  0.6573 -0.3530  0.9049
   69MOL0     N 9197   6.209   2.485   2.222  0.2209  0.4099 -0.1278
   69MOL0     C 9198   6.182   2.589   2.304 -0.3616 -1.3521  0.3423
   69MOL0     C 9199   6.291   2.665   2.292  1.0116  0.5644 -0.0137
   69MOL0     C 9200   6.306   2.791   2.374  0.0562  0.2586  0.1566
   69MOL0     C 9201   6.408   2.906   2.309  0.9362 -0.0597 -0.1541
   69MOL0     C 9202   6.470   2.997   2.417 -0.3691 -0.1086 -0.4500
   69MOL0     C 9203   6.610   2.943   2.454  0.0671 -0.3772 -0.2831
   69MOL0     O 9204   6.605   2.862   2.570 -0.5357  0.2217  0.5612
   69MOL0     C 9205   6.728   2.855   2.627  0.6003  0.6880 -0.0238
   69MOL0     C 9206   6.755   2.943   2.732 -0.4579  0.7161  1.1448
   69MOL0     C 9207   6.884   2.944   2.798  0.6895  0.6790 -0.6350
   69MOL0     C 9208   6.900   3.049   2.902  0.1601  0.8921  0.1472
   69MOL0     C 9209   6.983   2.854   2.751 -0.6337 -0.4524  0.4478
   69MOL0     C 9210   7.114   2.840   2.812  0.8520 -0.1445 -0.2564
   69MOL0     O 9211   7.162   2.950   2.872 -0.2062  0.0697  0.2929
   69MOL0     C 9212   7.289   2.953   2.921 -0.5429  0.6161 -0.1702
   69MOL0     C 9213   7.350   2.848   3.002  0.3097  0.6331 -0.1797
   69MOL0     C 9214   7.488   2.866   3.043 -0.3568 -0.6211  0.2199
   69MOL0     C 9215   7.559   2.977   3.012 -0.1850  0.1674 -0.2065
   69MOL0     O 9216   7.685   3.002   3.046  0.0200 -0.2892 -0.6567
   69MOL0     C 9217   7.792   2.915   3.014 -0.3113 -0.0583  0.6559
   69MOL0     C 9218   7.924   2.982   3.058 -0.2546 -0.1948  0.2970
   69MOL0     C 9219   7.921   3.045   3.195  0.0614 -0.0194  0.3999
   69MOL0     C 9220   8.056   3.054   3.263  0.2924  0.7146 -0.4162
   69MOL0     C 9221   8.050   3.098   3.408  0.4208  0.1539 -0.2446
   69MOL0     C 9222   8.175   3.181   3.440 -0.0367 -0.1051  0.3544
   69MOL0     C 9223   8.157   3.245   3.585  0.7920  0.0190 -0.0579
   69MOL0     C 9224   8.230   3.376   3.609 -0.4676  0.1531 -0.9082
   69MOL0    Cl 9225   8.162   3.508   3.500 -0.8333  0.0838 -0.1968
   69MOL0     C 9226   7.503   3.077   2.933  0.2593  0.8605  0.4707
   69MOL0     C 9227   7.376   3.061   2.888  0.6401 -0.2227  0.3911
   69MOL0     O 9228   7.181   2.745   2.774  0.1552 -0.1581 -0.6216
   69MOL0     C 9229   6.955   2.771   2.637  0.1413  0.2989  0.0303
   69MOL0     C 9230   6.828   2.767   2.583  0.4236 -0.0596 -0.4420
   69MOL0     N 9231   6.387   2.597   2.209  0.2731  0.0941  0.3638
   69MOL0     N 9232   6.340   2.491   2.173  0.4144  0.5565 -0.2653
   69MOL0     C 9233   6.292   2.036   1.131 -0.1626  0.5511  0.0269
   69MOL0     C 9234   6.351   2.072   1.010 -0.9582 -0.1443 -0.0416
   69MOL0     C 9235   6.614   2.280   0.701  0.4854  0.3695  0.8098
   69MOL0     C 9236   6.719   2.195   0.673 -0.2156  0.7885 -0.1188
   69MOL0     C 9237   6.815   2.233   0.579 -0.1379 -0.2557  0.1001
   69MOL0     C 9238   6.806   2.361   0.527 -0.6456  0.7265 -0.2419
   69MOL0     O 9239   6.916   2.401   0.447 -0.1768  0.7334 -0.2710
   69MOL0     C 9240   6.912   2.345   0.312 -0.6020 -0.1926  0.4896
   69MOL0     C 9241   7.026   2.394   0.219  0.5702 -0.1298 -0.1245
   69MOL0     C 9242   7.006   2.539   0.169  0.5648 -0.1372 -0.1961
   69MOL0     C 9243   7.132   2.613   0.117  0.0822 -0.6431 -0.6004
   69MOL0     C 9244   7.148   2.620  -0.030  0.1586 -0.0278 -0.0632
   69MOL0     C 9245   7.152   2.616  -0.153  0.0361  0.7194 -0.4373
   69MOL0     C 9246   6.699   2.437   0.532  0.0106  0.4536 -0.5573
   69MOL0     C 9247   6.601   2.394   0.621  0.4795  0.7433  1.0190
   69MOL0     H 9248   6.668   2.083   1.114  0.7205  1.9565 -0.7249
   69MOL0     H 9249   6.555   2.088   1.331 -0.4660 -2.6923  0.4328
   69MOL0     H 9250   6.307   1.987   1.561 -2.3866  1.4756  2.2494
   69MOL0     H 9251   6.406   2.124   1.503 -0.4805  2.8826  0.8739
   69MOL0     H 9252   6.197   2.260   1.481 -0.8888  0.5598  3.1623
   69MOL0     H 9253   6.096   2.122   1.493  0.3176  0.1742  2.1271
   69MOL0     H 9254   6.159   2.083   1.736  0.4103 -0.5073 -2.2454
   69MOL0     H 9255   6.275   2.218   1.711 -1.8453  3.4198  0.4114
   69MOL0     H 9256   6.108   2.381   1.711  1.1532 -1.9095 -1.4827
   69MOL0     H 9257   5.981   2.287   1.676 -0.5088  1.3568  0.5131
   69MOL0     H 9258   5.978   2.213   1.926 -1.2908  2.5367  4.9590
   69MOL0     H 9259   6.150   2.243   1.938  2.5002  3.6250 -1.3303
   69MOL0     H 9260   6.093   2.488   1.923 -0.4263  0.5111 -2.0098
   69MOL0     H 9261   5.924   2.432   1.900 -0.0462  1.6848  0.7851
   69MOL0     H 9262   5.960   2.531   2.123  1.5969  1.5328 -1.7098
   69MOL0     H 9263   5.905   2.365   2.132  0.0496  0.2044 -0.4682
   69MOL0     H 9264   6.167   2.291   2.151  0.7556 -0.0947  0.5121
   69MOL0     H 9265   6.067   2.351   2.289  0.0250 -0.6664  0.5383
   69MOL0     H 9266   6.099   2.612   2.370  0.6816  1.1458  0.8803
   69MOL0     H 9267   6.204   2.828   2.383  0.4689  1.9353 -1.4150
   69MOL0     H 9268   6.347   2.771   2.474  1.8049  0.6296 -0.4512
   69MOL0     H 9269   6.347   2.958   2.234  0.2631 -0.6778 -0.0488
   69MOL0     H 9270   6.489   2.872   2.244  0.1556 -0.4998 -0.9251
   69MOL0     H 9271   6.404   3.013   2.503 -2.4226  0.3514 -2.0571
   69MOL0     H 9272   6.477   3.096   2.371  0.7251 -1.0258 -2.3670
   69MOL0     H 9273   6.674   3.030   2.473 -2.4960  1.4056  0.9781
   69MOL0     H 9274   6.662   2.892   2.373 -0.1972  0.1378 -0.7829
   69MOL0     H 9275   6.678   3.016   2.754 -4.9742 -3.2952  0.5434
   69MOL0     H 9276   6.806   3.073   2.953  0.7330  2.2558  0.6318
   69MOL0     H 9277   6.960   3.018   2.988 -0.6066  0.1274  0.4186
   69MOL0     H 9278   6.939   3.142   2.859  3.9598  0.1704  1.6275
   69MOL0     H 9279   7.305   2.750   3.017  2.5491 -0.6710 -1.4309
   69MOL0     H 9280   7.539   2.781   3.088  1.6609  1.1636  1.4411
   69MOL0     H 9281   7.787   2.823   3.072 -2.0568 -0.1743  0.3744
   69MOL0     H 9282   7.775   2.901   2.906 -2.0218 -1.0035  1.0046
   69MOL0     H 9283   8.000   2.903   3.061 -0.3571 -0.3143 -0.1606
   69MOL0     H 9284   7.963   3.054   2.985 -1.6028 -0.0144 -0.2648
   69MOL0     H 9285   7.854   2.992   3.263 -1.8854  1.3914 -0.3282
   69MOL0     H 9286   7.871   3.142   3.200 -0.0907 -0.1426  3.6162
   69MOL0     H 9287   8.089   2.950   3.268 -3.6063 -0.6658  0.3053
   69MOL0     H 9288   8.117   3.116   3.196  1.8898  0.5662  0.8293
   69MOL0     H 9289   8.038   3.002   3.461 -1.2233 -0.5559 -1.7825
   69MOL0     H 9290   7.966   3.162   3.435  0.4161 -1.5265  4.7819
   69MOL0     H 9291   8.262   3.116   3.429 -0.0165 -0.9531  4.1625
   69MOL0     H 9292   8.187   3.255   3.360  0.0808 -1.6693 -1.1190
   69MOL0     H 9293   8.175   3.176   3.668 -2.3979 -0.3878  0.4265
   69MOL0     H 9294   8.052   3.272   3.595 -0.2257 -1.0890 -4.9967
   69MOL0     H 9295   8.335   3.356   3.586 -0.8716 -0.5727 -2.2003
   69MOL0     H 9296   8.226   3.414   3.711 -0.0095  0.3297 -0.9515
   69MOL0     H 9297   7.569   3.159   2.907  2.6681 -1.5762 -1.8322
   69MOL0     H 9298   7.331   3.127   2.815 -0.1270 -1.2134 -0.0610
   69MOL0     H 9299   7.030   2.704   2.598  1.1732  0.2289  2.0088
   69MOL0     H 9300   6.819   2.701   2.498  0.0773  0.5868 -0.9192
   69MOL0     H 9301   6.184   2.021   1.135 -0.3774  2.1765  1.3469
   69MOL0     H 9302   6.292   2.064   0.920 -1.5610  1.1049  0.2218
   69MOL0     H 9303   6.726   2.097   0.719  0.3738  0.2604 -1.2822
   69MOL0     H 9304   6.905   2.172   0.568 -0.0837 -0.5566  1.8269
   69MOL0     H 9305   6.930   2.237   0.321  1.1885 -0.1104 -1.3609
   69MOL0     H 9306   6.818   2.372   0.265  0.7897  2.2007 -1.1547
   69MOL0     H 9307   7.030   2.332   0.129  2.1472  1.2457 -1.0567
   69MOL0     H 9308   7.120   2.394   0.275  1.3083 -1.2646 -1.3276
   69MOL0     H 9309   6.983   2.598   0.258  1.7748  2.5433 -1.5371
   69MOL0     H 9310   6.935   2.541   0.086  2.2547 -1.7685 -1.7618
   69MOL0     H 9311   7.221   2.568   0.162 -0.0780 -2.5592 -2.0997
   69MOL0     H 9312   7.127   2.717   0.152  1.4469 -1.6948  3.1573
   69MOL0     H 9313   7.168   2.615  -0.259  0.4186  0.2279 -0.3737
   69MOL0     H 9314   6.695   2.527   0.473 -2.5918  1.5605  1.1238
   69MOL0     H 9315   6.506   2.447   0.626  0.4953  1.1173 -1.4309
   70MOL0     O 9316  11.195   4.457  11.173 -0.0853 -0.7960  0.6122
   70MOL0     C 9317  11.237   4.476  11.058  0.8360 -0.2790  0.6717
   70MOL0     O 9318  11.199   4.408  10.948 -0.2740 -0.4951 -0.6159
   70MOL0     C 9319  11.112   4.307  10.964  0.5416  0.1994  0.3157
   70MOL0     C 9320  11.164   4.179  10.977 -0.1021 -0.0165 -0.2518
   70MOL0     C 9321  11.076   4.066  10.976  0.3252 -0.5604 -0.3450
   70MOL0     C 9322  10.935   4.086  10.961 -0.4275  0.3717 -0.1887
   70MOL0     O 9323  10.865   3.968  10.946  0.0191  0.0195  0.1740
   70MOL0     C 9324  10.727   3.983  10.961  0.4455 -0.1627  0.1533
   70MOL0     C 9325  10.660   3.844  10.956 -0.4324 -0.6894 -0.7255
   70MOL0     C 9326  10.503   3.862  10.938 -0.9007 -0.8038 -0.3793
   70MOL0     C 9327  10.439   3.725  10.959  0.4968  0.0882  0.2173
   70MOL0     C 9328  10.284   3.738  10.939 -0.8362 -0.0711  0.0466
   70MOL0     C 9329  10.222   3.613  10.995 -0.2104  0.0366  2.0065
   70MOL0     C 9330  10.075   3.620  10.944  0.0851  0.2387 -0.7805
   70MOL0     C 9331   9.999   3.495  10.991  1.4511 -0.5945  0.3614
   70MOL0     N 9332   9.904   3.437  10.895  0.1901  0.2507  0.7976
   70MOL0     C 9333   9.775   3.480  10.892 -0.4209  0.0096 -0.6125
   70MOL0     C 9334   9.719   3.412  10.784 -0.1211 -0.4935 -1.4944
   70MOL0     C 9335   9.584   3.436  10.720 -0.2918 -0.7412  0.0434
   70MOL0     C 9336   9.449   3.385  10.790 -0.4117 -0.6051  0.0355
   70MOL0     C 9337   9.327   3.361  10.706 -0.3662 -0.5772 -0.2283
   70MOL0     C 9338   9.298   3.491  10.637 -0.0397 -0.3375  0.6546
   70MOL0     O 9339   9.181   3.489  10.551  0.7610  0.5511 -0.3208
   70MOL0     C 9340   9.059   3.477  10.615  0.0070 -0.3514 -0.3733
   70MOL0     C 9341   8.952   3.451  10.528  0.0105 -0.0622 -1.1685
   70MOL0     C 9342   8.825   3.443  10.582  0.2735  0.5083  0.1385
   70MOL0     C 9343   8.721   3.434  10.482  1.0440 -0.3897 -0.1245
   70MOL0     C 9344   8.799   3.449  10.719  0.4038 -0.8159  0.4079
   70MOL0     C 9345   8.667   3.450  10.793 -1.2562  0.2713 -0.4573
   70MOL0     O 9346   8.553   3.456  10.725  0.5264  0.0896  0.1294
   70MOL0     C 9347   8.428   3.444  10.788  0.2641  0.0919 -0.4886
   70MOL0     C 9348   8.321   3.464  10.710 -0.2496 -0.8158 -0.4603
   70MOL0     C 9349   8.194   3.461  10.758 -0.1831  0.8067 -0.3097
   70MOL0     C 9350   8.171   3.422  10.888 -0.5589  0.2510  0.0546
   70MOL0     O 9351   8.048   3.404  10.934 -0.4976  0.2292 -0.0345
   70MOL0     C 9352   7.947   3.498  10.904  0.1850 -0.1579 -0.7938
   70MOL0     C 9353   7.844   3.448  10.797 -0.0018  0.5451  0.5552
   70MOL0     C 9354   7.739   3.546  10.780  0.5046  0.2814 -0.1577
   70MOL0     C 9355   7.656   3.517  10.654  0.6010 -0.7432  0.4668
   70MOL0     C 9356   7.562   3.636  10.608 -0.1012  0.3271  1.2582
   70MOL0     C 9357   7.450   3.666  10.707 -0.7352  0.8531 -0.8326
   70MOL0     C 9358   7.357   3.783  10.674  0.1248  0.3989  0.1743
   70MOL0     C 9359   7.245   3.775  10.776  0.4799  0.3178  0.0205
   70MOL0    Cl 9360   7.101   3.869  10.730  0.1669  0.1245  0.0784
   70MOL0     C 9361   8.278   3.404  10.975  0.7888  0.1739 -0.2621
   70MOL0     C 9362   8.406   3.414  10.929 -0.2545 -0.6302 -1.4469
   70MOL0     O 9363   8.685   3.444  10.916  0.4574 -0.8211 -0.4613
   70MOL0     C 9364   8.919   3.476  10.802 -0.2556 -0.1334 -0.9856
   70MOL0     C 9365   9.032   3.494  10.753 -0.4009  1.2238 -0.5127
   70MOL0     N 9366   9.826   3.340  10.729 -0.9054 -0.0312  0.2739
   70MOL0     N 9367   9.929   3.352  10.793  0.2778 -1.0823 -0.6961
   70MOL0     C 9368  10.886   4.221  10.953  0.2285  0.9515 -0.2109
   70MOL0     C 9369  10.974   4.330  10.971  0.3055 -0.9286  0.5375
   70MOL0     C 9370  11.338   4.586  11.045 -0.4541  0.6790 -0.1629
   70MOL0     C 9371  11.366   4.669  11.160  0.6435 -0.0417  0.4531
   70MOL0     C 9372  11.458   4.773  11.147 -0.4538 -0.8983 -0.1096
   70MOL0     C 9373  11.506   4.810  11.018  0.1476 -0.4331 -0.2782
   70MOL0     O 9374  11.586   4.920  10.983  0.0299  0.0314 -0.0902
   70MOL0     C 9375  11.647   5.006  11.079 -0.2261 -0.0126 -0.2284
   70MOL0     C 9376  11.769   4.947  11.157 -0.1142  0.1795  0.0792
   70MOL0     C 9377  11.866   4.871  11.079 -0.7863 -0.0038 -0.2163
   70MOL0     C 9378  11.905   4.941  10.948  0.0187 -0.6780  0.3208
   70MOL0     C 9379  11.974   5.068  10.975 -0.6783 -0.0206 -0.1572
   70MOL0     C 9380  12.017   5.179  11.008  0.5337 -0.2281 -0.3701
   70MOL0     C 9381  11.477   4.730  10.905  0.3581  0.9211  0.0651
   70MOL0     C 9382  11.395   4.619  10.917 -0.0637 -0.2433 -0.1286
   70MOL0     H 9383  11.266   4.152  10.999 -0.2657 -0.8092 -0.4342
   70MOL0     H 9384  11.107   3.962  10.974  0.2320 -0.6049 -2.5558
   70MOL0     H 9385  10.699   4.019  11.060 -1.1957  0.8270 -0.6276
   70MOL0     H 9386  10.697   4.045  10.876  2.1281  3.1998  1.8219
   70MOL0     H 9387  10.702   3.783  10.875 -3.0664 -2.3842 -0.9251
   70MOL0     H 9388  10.689   3.813  11.057  1.9304  3.7789  0.1982
   70MOL0     H 9389  10.472   3.934  11.013  0.8791 -0.1020 -0.2638
   70MOL0     H 9390  10.472   3.896  10.838  0.0070  2.6195  0.3828
   70MOL0     H 9391  10.473   3.649  10.888 -0.4891 -0.7212  0.5847
   70MOL0     H 9392  10.459   3.676  11.054 -2.6059  0.7500  1.3172
   70MOL0     H 9393  10.237   3.828  10.978 -0.8333 -1.3007  3.1803
   70MOL0     H 9394  10.265   3.729  10.831 -2.1240 -0.3416  0.2853
   70MOL0     H 9395  10.272   3.518  10.973 -0.3015  0.3995  0.1283
   70MOL0     H 9396  10.231   3.609  11.104  0.7259 -0.3439  1.9270
   70MOL0     H 9397  10.038   3.717  10.978  2.2973  1.9948 -3.0504
   70MOL0     H 9398  10.067   3.620  10.835  1.7202  0.3300 -0.9203
   70MOL0     H 9399   9.955   3.531  11.084  3.9783  2.0120  0.7078
   70MOL0     H 9400  10.071   3.413  10.995 -0.2101 -2.1662 -0.4893
   70MOL0     H 9401   9.731   3.560  10.951  0.4961 -0.4000  0.6621
   70MOL0     H 9402   9.587   3.541  10.691 -0.1806 -0.6430  0.4129
   70MOL0     H 9403   9.581   3.378  10.627 -1.8728 -0.7674  0.0738
   70MOL0     H 9404   9.438   3.454  10.874  1.0795  2.0331 -1.8094
   70MOL0     H 9405   9.476   3.290  10.838  1.4482 -0.2990 -0.3108
   70MOL0     H 9406   9.247   3.326  10.772  1.1179  0.6675  2.4304
   70MOL0     H 9407   9.364   3.296  10.627  1.1821 -2.9432  2.2335
   70MOL0     H 9408   9.385   3.511  10.574  1.3113  2.4155  3.1544
   70MOL0     H 9409   9.294   3.579  10.702  1.3682  0.8742 -0.8013
   70MOL0     H 9410   8.967   3.438  10.422 -3.0072 -3.9822 -1.3165
   70MOL0     H 9411   8.752   3.391  10.386  0.6709 -1.7447  0.3247
   70MOL0     H 9412   8.649   3.362  10.524  0.0713 -0.2405 -1.4735
   70MOL0     H 9413   8.667   3.526  10.461 -0.6772 -1.5951 -1.3268
   70MOL0     H 9414   8.346   3.496  10.610 -1.2352 -0.7542 -0.6913
   70MOL0     H 9415   8.112   3.488  10.692 -0.8273 -2.0757 -0.8334
   70MOL0     H 9416   7.899   3.520  10.999 -2.4436 -2.0433 -1.5869
   70MOL0     H 9417   7.980   3.593  10.860 -1.6006  1.6301  1.5035
   70MOL0     H 9418   7.903   3.434  10.706  1.8798 -2.5112  2.0892
   70MOL0     H 9419   7.795   3.358  10.834 -0.1106  0.5432  0.4053
   70MOL0     H 9420   7.767   3.652  10.787 -1.9875  1.0148 -0.3993
   70MOL0     H 9421   7.661   3.548  10.856 -3.1183  4.8415 -3.3565
   70MOL0     H 9422   7.717   3.482  10.569 -1.0197 -0.2762 -0.9536
   70MOL0     H 9423   7.590   3.430  10.660  0.3639 -0.5173  1.1253
   70MOL0     H 9424   7.515   3.602  10.515 -3.5951 -0.4183  3.0889
   70MOL0     H 9425   7.621   3.728  10.610  3.5360 -1.8379  1.5698
   70MOL0     H 9426   7.396   3.575  10.731 -3.7836  2.4835 -1.0597
   70MOL0     H 9427   7.496   3.704  10.799 -1.0790  5.4679 -2.2920
   70MOL0     H 9428   7.316   3.771  10.573  1.3075  2.6102 -0.6538
   70MOL0     H 9429   7.402   3.882  10.689 -1.5699  1.4378 -1.1356
   70MOL0     H 9430   7.274   3.809  10.876  0.7859 -0.1078  0.0766
   70MOL0     H 9431   7.218   3.671  10.796 -3.1856  0.9417 -0.8683
   70MOL0     H 9432   8.261   3.372  11.078 -2.0800 -2.7866 -1.4691
   70MOL0     H 9433   8.488   3.397  10.998  0.5656 -3.4256 -2.9616
   70MOL0     H 9434   8.912   3.482  10.910  1.7774 -0.6779 -0.7969
   70MOL0     H 9435   9.108   3.518  10.827 -0.2923  2.3602 -0.9641
   70MOL0     H 9436  10.779   4.237  10.950 -0.2075 -1.4119  0.1100
   70MOL0     H 9437  10.928   4.429  10.972 -0.5391 -1.2757 -0.8940
   70MOL0     H 9438  11.324   4.639  11.256  1.4475 -2.8791  0.0108
   70MOL0     H 9439  11.505   4.828  11.228  0.9093 -1.9564 -0.1510
   70MOL0     H 9440  11.689   5.087  11.018 -2.3247  0.1520 -1.5608
   70MOL0     H 9441  11.579   5.039  11.157  0.1466 -2.5972  1.3061
   70MOL0     H 9442  11.736   4.881  11.238  2.0039  0.3914  1.1714
   70MOL0     H 9443  11.808   5.028  11.219 -0.9973 -0.9067  2.1857
   70MOL0     H 9444  11.828   4.772  11.055 -0.4530 -0.0600 -0.5254
   70MOL0     H 9445  11.962   4.861  11.131  0.3651 -1.6233 -2.4744
   70MOL0     H 9446  11.812   4.938  10.892 -0.8116  0.8006  1.5512
   70MOL0     H 9447  11.974   4.875  10.893  0.1593 -1.5590  1.5110
   70MOL0     H 9448  12.069   5.266  11.042  1.7475 -1.3993  0.8752
   70MOL0     H 9449  11.513   4.759  10.807 -0.3620 -1.3643 -0.9336
   70MOL0     H 9450  11.368   4.560  10.830 -2.2886 -3.2539  2.3680
   71MOL0     O 9451   1.117  10.057   0.340  0.0757 -0.9283 -0.0813
   71MOL0     C 9452   1.038   9.980   0.292  0.1196  0.1815 -0.1210
   71MOL0     O 9453   1.046   9.932   0.165 -0.2260 -0.0111 -0.0822
   71MOL0     C 9454   1.094  10.011   0.068 -0.4143 -0.2930 -0.2290
   71MOL0     C 9455   1.163   9.941  -0.029  0.4606 -0.6203 -0.2855
   71MOL0     C 9456   1.235  10.017  -0.123  0.0495  0.6191  0.1153
   71MOL0     C 9457   1.220  10.156  -0.140 -0.4191  0.4171  0.5151
   71MOL0     O 9458   1.280  10.221  -0.241  0.0197 -1.0733  0.3965
   71MOL0     C 9459   1.332  10.354  -0.197 -0.3834 -0.1394 -0.5885
   71MOL0     C 9460   1.465  10.375  -0.268  0.1655  0.5837 -0.0043
   71MOL0     C 9461   1.530  10.503  -0.215 -0.5245  0.2221  0.0470
   71MOL0     C 9462   1.657  10.555  -0.288 -0.1445 -0.5320 -0.1205
   71MOL0     C 9463   1.713  10.679  -0.229 -0.3672  0.1081 -0.2034
   71MOL0     C 9464   1.819  10.732  -0.315 -0.2191  0.0898 -0.6371
   71MOL0     C 9465   1.956  10.691  -0.273 -0.8329 -0.4752  0.6787
   71MOL0     C 9466   2.018  10.598  -0.374 -0.0777 -0.3191 -0.6422
   71MOL0     N 9467   2.157  10.569  -0.331 -0.8341  0.7873  0.5281
   71MOL0     C 9468   2.214  10.459  -0.266 -0.0543 -0.1580  0.8566
   71MOL0     C 9469   2.347  10.481  -0.272  0.5257  0.2359  1.0068
   71MOL0     C 9470   2.454  10.385  -0.236  0.6263 -0.1706 -0.2558
   71MOL0     C 9471   2.538  10.443  -0.128 -0.7492 -0.4323 -0.8403
   71MOL0     C 9472   2.576  10.327  -0.038 -0.1108 -0.2433 -0.5608
   71MOL0     C 9473   2.663  10.366   0.086  0.3837  0.9161  0.0183
   71MOL0     O 9474   2.803  10.322   0.064  0.6327 -0.7423  0.0508
   71MOL0     C 9475   2.875  10.407  -0.020 -0.2015  0.1679 -0.0223
   71MOL0     C 9476   2.953  10.507   0.039  0.3604 -0.1961 -0.1179
   71MOL0     C 9477   3.041  10.588  -0.022  0.5179 -1.1302 -0.3043
   71MOL0     C 9478   3.124  10.687   0.065  0.5504  0.0426 -0.3119
   71MOL0     C 9479   3.036  10.587  -0.167  0.3708 -1.0020  0.4595
   71MOL0     C 9480   3.095  10.690  -0.254 -0.2706  0.6366 -0.2670
   71MOL0     O 9481   3.076  10.666  -0.388 -0.1238  0.1274 -0.8167
   71MOL0     C 9482   3.091  10.765  -0.479 -0.1880  0.5839 -0.1528
   71MOL0     C 9483   3.221  10.812  -0.510  0.1239 -0.1754 -0.8793
   71MOL0     C 9484   3.219  10.927  -0.591  0.0812  0.4377  0.1377
   71MOL0     C 9485   3.108  10.990  -0.640  0.2167  0.4287 -0.3811
   71MOL0     O 9486   3.113  11.089  -0.736 -0.9839 -0.0712 -0.6415
   71MOL0     C 9487   3.031  11.213  -0.706 -0.1916  0.7229  0.2132
   71MOL0     C 9488   2.910  11.254  -0.801  0.1198 -0.5744 -0.8847
   71MOL0     C 9489   2.859  11.401  -0.776  0.0121 -0.1580 -0.7152
   71MOL0     C 9490   2.898  11.500  -0.892  0.5515  0.7239  0.3943
   71MOL0     C 9491   2.829  11.631  -0.880 -0.4048 -0.3008  0.9552
   71MOL0     C 9492   2.672  11.621  -0.869  0.2262  0.2123 -0.8083
   71MOL0     C 9493   2.619  11.765  -0.858 -0.7484  0.7921  0.1725
   71MOL0     C 9494   2.473  11.753  -0.860 -0.1680 -0.4959  0.2894
   71MOL0    Cl 9495   2.389  11.906  -0.851  0.1212  0.6481  0.2231
   71MOL0     C 9496   2.982  10.935  -0.608 -0.4990  1.0882  0.3790
   71MOL0     C 9497   2.976  10.818  -0.527  0.0711  0.2824 -0.1993
   71MOL0     O 9498   3.162  10.783  -0.209 -0.8673  0.7420  0.4613
   71MOL0     C 9499   2.961  10.488  -0.228 -0.0158 -0.3248 -0.6782
   71MOL0     C 9500   2.888  10.398  -0.157  1.1253 -0.3061  0.0394
   71MOL0     N 9501   2.364  10.595  -0.340 -0.1298 -0.2930  0.8207
   71MOL0     N 9502   2.258  10.645  -0.381  0.0845 -0.3197  0.6963
   71MOL0     C 9503   1.131  10.221  -0.058 -0.0093  0.2388 -0.2190
   71MOL0     C 9504   1.071  10.154   0.047  0.0308 -0.7317  0.2116
   71MOL0     C 9505   0.977   9.890   0.402  0.3255 -0.1149 -0.8459
   71MOL0     C 9506   0.925   9.762   0.364 -0.4519  1.1055  0.1730
   71MOL0     C 9507   0.882   9.671   0.457 -0.2070  0.6081  0.3955
   71MOL0     C 9508   0.874   9.707   0.588 -0.0417  0.4170  0.0889
   71MOL0     O 9509   0.824   9.620   0.684  0.2139  0.0169  0.0131
   71MOL0     C 9510   0.690   9.644   0.724 -0.3402 -0.3233 -1.1021
   71MOL0     C 9511   0.583   9.588   0.631  0.9569 -0.1531  0.2907
   71MOL0     C 9512   0.603   9.430   0.626 -0.5664 -0.5054  0.2144
   71MOL0     C 9513   0.508   9.378   0.509  0.4701  0.0623 -0.7370
   71MOL0     C 9514   0.376   9.337   0.567  0.1847 -0.7147 -0.2411
   71MOL0     C 9515   0.265   9.300   0.597 -0.9717 -0.1343  0.3346
   71MOL0     C 9516   0.920   9.834   0.634 -0.1067 -0.9015 -0.3635
   71MOL0     C 9517   0.984   9.920   0.540 -0.6384  0.2589  0.5605
   71MOL0     H 9518   1.172   9.834  -0.013  3.8665 -0.4099 -0.2035
   71MOL0     H 9519   1.315   9.968  -0.178  0.5775 -2.0240  2.9983
   71MOL0     H 9520   1.268  10.433  -0.236 -1.6449 -1.6297 -1.6386
   71MOL0     H 9521   1.336  10.358  -0.087 -0.0039  3.1346 -0.6186
   71MOL0     H 9522   1.534  10.298  -0.235  1.0099  1.1746 -0.3714
   71MOL0     H 9523   1.464  10.373  -0.377 -0.2125 -3.7333 -0.0886
   71MOL0     H 9524   1.450  10.576  -0.201 -1.5308 -0.7958 -0.3157
   71MOL0     H 9525   1.564  10.474  -0.115 -0.3473 -2.4100 -0.6929
   71MOL0     H 9526   1.728  10.473  -0.298  4.2567  2.8885 -0.1006
   71MOL0     H 9527   1.610  10.586  -0.382 -2.3125 -0.2053  1.0082
   71MOL0     H 9528   1.631  10.749  -0.210 -1.5070 -1.2743  0.0899
   71MOL0     H 9529   1.758  10.658  -0.131  2.7687  1.4701 -1.2050
   71MOL0     H 9530   1.799  10.739  -0.422 -0.9414  2.0448 -0.4169
   71MOL0     H 9531   1.819  10.840  -0.296  1.9731  0.0852 -0.3573
   71MOL0     H 9532   2.019  10.781  -0.267  3.9129 -3.4775  1.2898
   71MOL0     H 9533   1.952  10.642  -0.175  1.8199 -2.3182 -0.0123
   71MOL0     H 9534   2.016  10.651  -0.470 -2.7992  1.8301  0.4454
   71MOL0     H 9535   1.957  10.508  -0.383 -0.6524  0.1648 -1.8716
   71MOL0     H 9536   2.166  10.368  -0.230  0.9376 -1.7471 -1.6213
   71MOL0     H 9537   2.392  10.304  -0.195 -1.8582  2.4366  1.4989
   71MOL0     H 9538   2.513  10.346  -0.320 -0.6290 -0.9379 -0.8199
   71MOL0     H 9539   2.490  10.522  -0.069  1.0796 -0.6937  1.1203
   71MOL0     H 9540   2.621  10.486  -0.184  0.7651 -2.6773 -0.4792
   71MOL0     H 9541   2.619  10.253  -0.105 -1.2840  1.4635 -3.4169
   71MOL0     H 9542   2.483  10.286   0.004  1.3756 -0.7170  2.4854
   71MOL0     H 9543   2.624  10.313   0.174 -1.7463  0.7740 -0.9500
   71MOL0     H 9544   2.661  10.473   0.108  3.5002  0.6533  2.2715
   71MOL0     H 9545   2.945  10.508   0.147 -2.4473  1.9954 -0.2304
   71MOL0     H 9546   3.083  10.676   0.167 -3.2835 -1.0035 -1.7734
   71MOL0     H 9547   3.231  10.667   0.063  0.3971 -0.7410 -1.2205
   71MOL0     H 9548   3.108  10.785   0.019  0.0360 -1.3332 -3.2863
   71MOL0     H 9549   3.314  10.788  -0.458  0.4177 -2.3580 -2.2695
   71MOL0     H 9550   3.315  10.963  -0.626  0.6973 -0.7552  0.5331
   71MOL0     H 9551   2.993  11.209  -0.603 -0.4211  1.7232  0.1740
   71MOL0     H 9552   3.094  11.302  -0.713 -0.5297  0.8343 -2.9269
   71MOL0     H 9553   2.940  11.240  -0.905  1.7386 -1.9776 -0.2796
   71MOL0     H 9554   2.830  11.187  -0.767  0.2527  0.2126  1.1484
   71MOL0     H 9555   2.886  11.439  -0.677 -3.5483  1.3320 -0.1418
   71MOL0     H 9556   2.750  11.400  -0.765  0.0675  1.8311  0.4702
   71MOL0     H 9557   3.006  11.517  -0.888  0.6696  0.0642  0.1113
   71MOL0     H 9558   2.868  11.454  -0.987 -0.2536 -2.7409  2.1497
   71MOL0     H 9559   2.857  11.686  -0.970 -2.4320 -1.5605 -0.5255
   71MOL0     H 9560   2.860  11.688  -0.792  1.3207  1.1332 -0.5148
   71MOL0     H 9561   2.632  11.565  -0.954 -1.8722  1.8110 -0.9854
   71MOL0     H 9562   2.638  11.564  -0.782 -0.4663  1.0088 -0.5361
   71MOL0     H 9563   2.646  11.827  -0.944 -1.6251  0.4323 -0.3712
   71MOL0     H 9564   2.667  11.804  -0.768 -0.7630  0.8358  0.1608
   71MOL0     H 9565   2.445  11.692  -0.773 -1.0450 -1.2444 -0.4917
   71MOL0     H 9566   2.431  11.709  -0.951 -1.2244  0.6658  0.1840
   71MOL0     H 9567   2.893  10.987  -0.644 -1.4740 -0.7364 -0.0103
   71MOL0     H 9568   2.891  10.762  -0.490  0.8282  0.0785  1.3014
   71MOL0     H 9569   2.962  10.490  -0.336 -1.1732  1.2361 -0.6931
   71MOL0     H 9570   2.831  10.323  -0.210 -0.1183  2.5940 -3.1297
   71MOL0     H 9571   1.103  10.325  -0.069 -1.6542 -0.2469 -0.9934
   71MOL0     H 9572   1.007  10.202   0.119 -1.9987 -1.3146 -1.1167
   71MOL0     H 9573   0.926   9.730   0.261  0.3549  2.8016 -0.3980
   71MOL0     H 9574   0.848   9.574   0.421  0.4303  1.1747 -1.8741
   71MOL0     H 9575   0.676   9.587   0.817  0.3331 -0.7304 -1.2400
   71MOL0     H 9576   0.681   9.748   0.755 -0.4812 -0.5466 -0.3709
   71MOL0     H 9577   0.604   9.637   0.535  0.6046  3.2744  1.8238
   71MOL0     H 9578   0.486   9.620   0.668  1.1404  4.3582 -2.3512
   71MOL0     H 9579   0.576   9.384   0.721  0.5200  0.0815  0.8272
   71MOL0     H 9580   0.707   9.410   0.599 -0.4521  0.7652 -0.4112
   71MOL0     H 9581   0.547   9.281   0.476  0.4414 -0.7174  1.3709
   71MOL0     H 9582   0.511   9.449   0.425  2.2902  0.3867 -0.4551
   71MOL0     H 9583   0.171   9.268   0.637 -0.4349 -2.1455  0.1023
   71MOL0     H 9584   0.898   9.865   0.736 -1.2159  0.3857 -0.9553
   71MOL0     H 9585   1.018  10.018   0.573  2.1026 -0.6362  0.6678
   72MOL0     O 9586  10.598  10.138   6.167  0.1751 -0.2413 -0.1014
   72MOL0     C 9587  10.654  10.206   6.083  0.0217 -0.5905 -0.0383
   72MOL0     O 9588  10.622  10.333   6.047  0.8088 -0.3399 -0.0988
   72MOL0     C 9589  10.512  10.394   6.104  0.4386 -0.3001  0.0632
   72MOL0     C 9590  10.530  10.526   6.142 -0.6474  0.4674  0.9110
   72MOL0     C 9591  10.424  10.591   6.204 -0.8195 -0.3349  0.5005
   72MOL0     C 9592  10.304  10.527   6.211  0.6307 -0.8356 -1.0610
   72MOL0     O 9593  10.199  10.594   6.278  0.1283  0.0208  0.7000
   72MOL0     C 9594  10.065  10.547   6.256 -0.4433  0.6749  0.2050
   72MOL0     C 9595   9.967  10.629   6.344 -0.2880  0.0692  0.2468
   72MOL0     C 9596   9.982  10.575   6.492  0.3578 -0.0982  0.2957
   72MOL0     C 9597   9.897  10.634   6.611 -0.0583  0.7204  0.3880
   72MOL0     C 9598   9.747  10.583   6.576 -0.0725  0.5738  0.4916
   72MOL0     C 9599   9.658  10.648   6.679  0.0022  0.9686 -0.1140
   72MOL0     C 9600   9.658  10.578   6.816 -0.5203  0.7565 -0.4547
   72MOL0     C 9601   9.564  10.634   6.922  0.8073 -0.2325 -0.6181
   72MOL0     N 9602   9.590  10.770   6.959 -0.1118 -0.3296  0.5738
   72MOL0     C 9603   9.517  10.883   6.939  0.3327  0.3717 -0.1788
   72MOL0     C 9604   9.576  10.976   7.017 -0.3556  0.6870  0.9333
   72MOL0     C 9605   9.526  11.113   7.045  0.4437 -0.8229  0.9186
   72MOL0     C 9606   9.379  11.139   7.014 -0.9404 -0.9388  0.0911
   72MOL0     C 9607   9.346  11.292   7.043 -0.2509 -0.4723  0.2733
   72MOL0     C 9608   9.198  11.333   7.025 -0.2117 -0.5249 -0.2523
   72MOL0     O 9609   9.150  11.303   6.896  0.0287 -0.0013 -0.6803
   72MOL0     C 9610   9.049  11.382   6.851 -0.5514  0.5496  0.8167
   72MOL0     C 9611   9.023  11.363   6.716  0.4657  0.3971  0.1720
   72MOL0     C 9612   8.921  11.428   6.648 -0.2213  0.0882 -0.2288
   72MOL0     C 9613   8.895  11.365   6.509  0.3116  0.1919 -0.4565
   72MOL0     C 9614   8.834  11.512   6.715 -0.5247  0.4305 -0.6103
   72MOL0     C 9615   8.714  11.570   6.644  0.0236 -0.6757 -0.0143
   72MOL0     O 9616   8.716  11.599   6.502  0.0640  0.9299  0.2966
   72MOL0     C 9617   8.601  11.574   6.426  0.5826 -0.4703 -0.5438
   72MOL0     C 9618   8.597  11.478   6.326 -0.2001 -0.4873 -0.2112
   72MOL0     C 9619   8.486  11.451   6.249 -0.0499 -0.4277 -0.6179
   72MOL0     C 9620   8.364  11.517   6.273  0.1591  0.6926  0.0270
   72MOL0     O 9621   8.255  11.475   6.199 -0.3786  0.1081  0.2861
   72MOL0     C 9622   8.142  11.564   6.188 -0.1123 -0.7718 -0.2630
   72MOL0     C 9623   8.144  11.697   6.110 -0.0117 -0.0920 -0.0658
   72MOL0     C 9624   8.015  11.779   6.118  0.0419 -0.9392 -0.1298
   72MOL0     C 9625   7.887  11.710   6.061 -0.1689  0.4463 -0.1768
   72MOL0     C 9626   7.773  11.817   6.042 -1.0312 -0.6391  0.7829
   72MOL0     C 9627   7.640  11.757   6.012  0.5362 -0.0413 -0.9396
   72MOL0     C 9628   7.597  11.631   6.095  0.3468  0.0755  0.0654
   72MOL0     C 9629   7.596  11.660   6.247 -0.5444 -0.0253 -0.5709
   72MOL0    Cl 9630   7.476  11.797   6.279 -0.0273 -0.1452 -0.1523
   72MOL0     C 9631   8.367  11.616   6.375  0.3029 -0.5952 -0.7703
   72MOL0     C 9632   8.482  11.642   6.457 -0.5962 -0.1639 -0.4323
   72MOL0     O 9633   8.621  11.605   6.721  0.1379 -0.1134  0.9157
   72MOL0     C 9634   8.856  11.526   6.852  0.3797 -0.4898  0.0651
   72MOL0     C 9635   8.963  11.471   6.919 -0.5297  0.4868  0.7430
   72MOL0     N 9636   9.689  10.932   7.064 -0.1197  0.1231  0.4870
   72MOL0     N 9637   9.689  10.811   7.045  0.3732  0.5460  0.6909
   72MOL0     C 9638  10.282  10.393   6.168 -0.4572 -0.7217 -0.3187
   72MOL0     C 9639  10.387  10.325   6.106 -0.2839 -0.3919 -0.5494
   72MOL0     C 9640  10.775  10.137   6.014 -0.9023 -0.3490  0.2696
   72MOL0     C 9641  10.833  10.020   6.069  0.7832  0.0107  0.0394
   72MOL0     C 9642  10.958   9.985   6.030 -0.7796  0.3563  0.1407
   72MOL0     C 9643  11.032  10.045   5.926  0.4128  1.4521 -0.5498
   72MOL0     O 9644  11.155   9.999   5.894  0.3991 -0.1368  0.3448
   72MOL0     C 9645  11.200  10.039   5.767  0.1076 -0.0865 -0.3874
   72MOL0     C 9646  11.312   9.957   5.722 -0.5865  0.1640  0.6159
   72MOL0     C 9647  11.332   9.957   5.570 -0.6030  0.0124  0.4810
   72MOL0     C 9648  11.477   9.934   5.528 -0.3797 -0.8374  0.5478
   72MOL0     C 9649  11.497   9.967   5.381 -0.1918  0.5984  0.2100
   72MOL0     C 9650  11.519   9.968   5.262 -0.0150  0.2253 -0.5889
   72MOL0     C 9651  10.961  10.149   5.859  0.0937 -0.2534 -0.0147
   72MOL0     C 9652  10.836  10.195   5.899  0.4836 -0.6230  0.1236
   72MOL0     H 9653  10.628  10.570   6.126  1.0620 -3.1708  0.2154
   72MOL0     H 9654  10.445  10.692   6.237 -0.5030 -0.5615  1.0001
   72MOL0     H 9655  10.038  10.555   6.150 -0.9900 -1.8910  0.1030
   72MOL0     H 9656  10.046  10.447   6.294 -0.8312  1.0819  1.1237
   72MOL0     H 9657   9.992  10.734   6.329 -1.4999  0.2791 -0.4282
   72MOL0     H 9658   9.871  10.604   6.297  0.4690 -2.0163 -0.3050
   72MOL0     H 9659   9.968  10.466   6.487  2.3083 -0.5106  2.1956
   72MOL0     H 9660  10.083  10.600   6.527 -1.0436  2.7257  2.6261
   72MOL0     H 9661   9.935  10.589   6.703  0.9117 -3.6983 -1.8770
   72MOL0     H 9662   9.898  10.743   6.605 -2.0591  0.8076  0.9545
   72MOL0     H 9663   9.715  10.615   6.476  0.3976 -0.9653 -0.1696
   72MOL0     H 9664   9.734  10.475   6.572 -0.6538  0.6503 -3.1994
   72MOL0     H 9665   9.690  10.752   6.695  1.1721  0.3408  1.9519
   72MOL0     H 9666   9.551  10.658   6.655 -0.8154  0.3826  2.8277
   72MOL0     H 9667   9.622  10.479   6.786 -1.5975  1.5649 -2.0079
   72MOL0     H 9668   9.759  10.575   6.856 -0.4427  1.3836 -0.6064
   72MOL0     H 9669   9.575  10.572   7.011  3.1717 -0.3975 -0.9564
   72MOL0     H 9670   9.465  10.625   6.875 -0.1814  0.5934  1.2047
   72MOL0     H 9671   9.419  10.883   6.893  1.6462 -1.3225 -3.3019
   72MOL0     H 9672   9.533  11.130   7.153  1.1065 -1.3844  0.9734
   72MOL0     H 9673   9.584  11.195   7.001  0.2915 -1.3521 -0.3306
   72MOL0     H 9674   9.326  11.073   7.082 -2.5814  0.3404  0.1098
   72MOL0     H 9675   9.366  11.114   6.908 -1.8898 -2.5295  0.5534
   72MOL0     H 9676   9.402  11.358   6.977 -2.6994  1.6654  0.1636
   72MOL0     H 9677   9.347  11.320   7.149 -4.7153  1.4756  0.0371
   72MOL0     H 9678   9.190  11.437   7.057  0.6903 -1.0402  1.8195
   72MOL0     H 9679   9.140  11.281   7.102 -1.3829  2.5868  1.1291
   72MOL0     H 9680   9.092  11.295   6.666 -0.8346  0.5670 -1.9839
   72MOL0     H 9681   8.973  11.296   6.474  1.8100  2.4297 -1.8264
   72MOL0     H 9682   8.803  11.307   6.521  2.1830 -2.9722 -0.1864
   72MOL0     H 9683   8.883  11.442   6.432 -0.3752 -0.1850 -0.7273
   72MOL0     H 9684   8.696  11.439   6.305  0.6254  1.5285 -0.3736
   72MOL0     H 9685   8.499  11.383   6.166  0.7986 -1.8126  0.6083
   72MOL0     H 9686   8.070  11.499   6.136 -0.1437 -0.7183 -0.2866
   72MOL0     H 9687   8.106  11.592   6.288 -0.7514 -0.4746 -0.5707
   72MOL0     H 9688   8.230  11.750   6.152 -1.7537  1.2198  2.1140
   72MOL0     H 9689   8.160  11.686   6.003  1.2205  1.9059 -0.1421
   72MOL0     H 9690   8.017  11.859   6.044 -3.8362 -0.9571 -0.4606
   72MOL0     H 9691   8.015  11.814   6.222 -0.1907  0.8958 -0.7137
   72MOL0     H 9692   7.899  11.657   5.967 -4.4134 -0.8425 -0.2075
   72MOL0     H 9693   7.859  11.628   6.127 -0.4396  2.1020  1.9012
   72MOL0     H 9694   7.784  11.889   5.960  0.8318  0.4956  1.9586
   72MOL0     H 9695   7.771  11.884   6.128 -1.2975  0.2300  0.1158
   72MOL0     H 9696   7.575  11.843   6.022 -1.1027 -0.9818 -2.7740
   72MOL0     H 9697   7.639  11.729   5.906  1.4587 -0.2318 -0.9099
   72MOL0     H 9698   7.665  11.549   6.074  0.1477 -0.1673  0.3674
   72MOL0     H 9699   7.501  11.589   6.064  0.0670  0.5939  0.2032
   72MOL0     H 9700   7.693  11.688   6.291 -1.8982 -0.7987  3.2516
   72MOL0     H 9701   7.567  11.572   6.304  0.2214 -0.3755 -0.7124
   72MOL0     H 9702   8.281  11.676   6.406  0.2229  0.8737 -3.5368
   72MOL0     H 9703   8.475  11.700   6.548  2.6802  0.6900 -0.5995
   72MOL0     H 9704   8.781  11.579   6.910 -0.5733  0.0588 -1.5721
   72MOL0     H 9705   8.967  11.467   7.027 -1.0612  0.8259  0.7785
   72MOL0     H 9706  10.186  10.342   6.166  0.6790 -3.1617  1.5586
   72MOL0     H 9707  10.372  10.227   6.062  1.3257 -2.0446  2.2832
   72MOL0     H 9708  10.790   9.968   6.154 -0.6037  0.4857 -0.3411
   72MOL0     H 9709  10.997   9.898   6.081 -0.9614 -0.8574 -1.6637
   72MOL0     H 9710  11.118  10.023   5.696  0.9529 -2.7417 -0.8958
   72MOL0     H 9711  11.223  10.145   5.774 -0.5781  0.3065 -3.0088
   72MOL0     H 9712  11.278   9.859   5.759  0.6062 -0.0118  1.2858
   72MOL0     H 9713  11.399   9.991   5.779 -1.0657  0.4864  1.1664
   72MOL0     H 9714  11.311  10.060   5.540  2.6019  1.0628  1.4882
   72MOL0     H 9715  11.279   9.881   5.510  1.5191  0.4579 -2.1677
   72MOL0     H 9716  11.497   9.827   5.540  1.0112 -0.5491  1.0736
   72MOL0     H 9717  11.542   9.991   5.595 -2.6473 -1.5911  3.6211
   72MOL0     H 9718  11.540   9.950   5.158 -0.2145  1.5013 -0.8703
   72MOL0     H 9719  11.005  10.216   5.786  0.3548  0.4237  0.7533
   72MOL0     H 9720  10.799  10.281   5.844 -0.7149 -1.5498 -0.5758
   73MOL0     O 9721   0.444   8.098   0.767  0.1824 -0.1175 -0.3349
   73MOL0     C 9722   0.526   8.165   0.834 -0.1965 -0.0304  0.7045
   73MOL0     O 9723   0.627   8.244   0.780 -0.0131 -0.0545 -0.2788
   73MOL0     C 9724   0.616   8.296   0.652  0.2051  0.6840  0.5091
   73MOL0     C 9725   0.574   8.237   0.536 -0.6976 -0.2492  0.0107
   73MOL0     C 9726   0.581   8.291   0.409  0.3800 -0.7779  0.4213
   73MOL0     C 9727   0.649   8.410   0.392  0.2828  0.0060 -0.2711
   73MOL0     O 9728   0.680   8.459   0.270 -0.2483 -0.3184 -0.1800
   73MOL0     C 9729   0.763   8.576   0.262  1.0854  0.3109  0.0911
   73MOL0     C 9730   0.697   8.723   0.267  0.6871 -0.1534 -0.0129
   73MOL0     C 9731   0.584   8.723   0.161 -0.4113 -0.7491  0.1748
   73MOL0     C 9732   0.520   8.867   0.157  0.0849  0.9915 -0.5600
   73MOL0     C 9733   0.465   8.919   0.290 -0.3993 -0.1599  0.4011
   73MOL0     C 9734   0.330   8.869   0.331 -1.2691  0.0419 -1.1114
   73MOL0     C 9735   0.281   8.928   0.476 -0.1089  0.5757  0.5209
   73MOL0     C 9736   0.226   8.822   0.571  0.2067  0.1820 -0.2232
   73MOL0     N 9737   0.174   8.891   0.694 -0.1155  0.1632  0.0536
   73MOL0     C 9738   0.069   8.983   0.702  0.4753  0.0790 -0.4969
   73MOL0     C 9739   0.063   9.032   0.830 -0.1957 -0.8942 -0.1436
   73MOL0     C 9740  -0.033   9.137   0.876 -0.3497  0.7333  0.2501
   73MOL0     C 9741  -0.110   9.120   1.018  0.1744  0.2083 -0.4134
   73MOL0     C 9742  -0.028   9.176   1.131  0.4534  0.4727 -0.1272
   73MOL0     C 9743  -0.061   9.119   1.268  0.3568 -0.1490  0.2384
   73MOL0     O 9744  -0.187   9.163   1.319  0.8465 -0.5341 -0.3246
   73MOL0     C 9745  -0.211   9.139   1.452  0.2797 -0.2985 -0.2065
   73MOL0     C 9746  -0.123   9.085   1.545 -0.5674  0.3384  0.5014
   73MOL0     C 9747  -0.148   9.089   1.683 -0.0636  0.4778 -0.2712
   73MOL0     C 9748  -0.036   9.046   1.776 -0.3939 -0.2484  0.3239
   73MOL0     C 9749  -0.277   9.142   1.723  0.5389 -0.0305 -0.0973
   73MOL0     C 9750  -0.324   9.152   1.862 -1.1841 -1.1899 -0.4925
   73MOL0     O 9751  -0.438   9.226   1.891  0.0587 -0.5688  1.0012
   73MOL0     C 9752  -0.468   9.269   2.022 -0.3295 -0.9015  0.8525
   73MOL0     C 9753  -0.361   9.330   2.103 -0.0888  0.4084  1.0359
   73MOL0     C 9754  -0.389   9.387   2.227 -0.4720  0.1219 -0.2517
   73MOL0     C 9755  -0.519   9.382   2.283  0.2959  1.0769 -0.4794
   73MOL0     O 9756  -0.556   9.429   2.412 -0.4480  0.5597  0.4179
   73MOL0     C 9757  -0.497   9.558   2.445 -0.2604  0.2820  0.0659
   73MOL0     C 9758  -0.600   9.666   2.460 -0.2692 -1.2196  0.0213
   73MOL0     C 9759  -0.659   9.701   2.328  0.4541  0.2819  0.3283
   73MOL0     C 9760  -0.561   9.746   2.219 -0.5107 -0.5478  0.0776
   73MOL0     C 9761  -0.623   9.766   2.080  0.0436 -0.4207 -0.8792
   73MOL0     C 9762  -0.647   9.627   2.017 -1.2361 -0.0910 -0.4504
   73MOL0     C 9763  -0.746   9.645   1.897 -1.5058 -0.1885  0.0895
   73MOL0     C 9764  -0.781   9.508   1.840 -0.2171 -0.5112  0.4306
   73MOL0    Cl 9765  -0.891   9.419   1.948  0.1707  0.2669 -0.1912
   73MOL0     C 9766  -0.617   9.316   2.206  0.0848  0.3228 -0.1024
   73MOL0     C 9767  -0.593   9.270   2.081 -0.4900  0.4421  0.0722
   73MOL0     O 9768  -0.264   9.085   1.945 -0.3392  0.0805 -0.6410
   73MOL0     C 9769  -0.369   9.175   1.626  1.2314 -0.8279 -0.1043
   73MOL0     C 9770  -0.336   9.168   1.496  0.0090 -0.7893 -0.0573
   73MOL0     N 9771   0.156   8.970   0.901 -0.3137  0.8143 -0.5444
   73MOL0     N 9772   0.222   8.886   0.823 -0.5796 -0.4193 -1.1472
   73MOL0     C 9773   0.691   8.470   0.509 -1.3015 -0.2906 -0.1658
   73MOL0     C 9774   0.680   8.417   0.637  0.2753  0.6939  0.3374
   73MOL0     C 9775   0.525   8.157   0.983 -0.3769 -0.6026  0.0805
   73MOL0     C 9776   0.432   8.070   1.053 -0.1148  0.5617 -0.0176
   73MOL0     C 9777   0.421   8.076   1.198  0.4536  0.4404  0.7344
   73MOL0     C 9778   0.494   8.163   1.275  0.5027  0.1218  0.5275
   73MOL0     O 9779   0.478   8.150   1.407  0.0097 -0.1154  0.4666
   73MOL0     C 9780   0.594   8.075   1.457  0.2519 -0.3786 -0.5942
   73MOL0     C 9781   0.584   8.088   1.613  0.2095  0.3548 -0.4675
   73MOL0     C 9782   0.697   8.007   1.666  0.4237 -0.3947 -0.4009
   73MOL0     C 9783   0.660   7.853   1.685 -0.0963 -1.2825  0.1924
   73MOL0     C 9784   0.767   7.780   1.749 -0.5456  0.4301  0.3853
   73MOL0     C 9785   0.860   7.727   1.803 -0.9019  0.5076 -0.2918
   73MOL0     C 9786   0.585   8.249   1.202  1.0999  0.0245 -0.1104
   73MOL0     C 9787   0.604   8.241   1.064  0.1326 -0.7115 -0.0096
   73MOL0     H 9788   0.526   8.141   0.549 -1.2692 -0.1344 -1.1239
   73MOL0     H 9789   0.544   8.252   0.315  1.2934  2.1680 -1.3157
   73MOL0     H 9790   0.852   8.562   0.323  0.4615 -1.9653  0.5639
   73MOL0     H 9791   0.795   8.568   0.157  0.7224  0.4482 -0.0333
   73MOL0     H 9792   0.660   8.749   0.367  2.0207 -0.4881  0.5889
   73MOL0     H 9793   0.770   8.802   0.247  0.6509  0.0481  0.6075
   73MOL0     H 9794   0.636   8.709   0.065 -2.6844  0.7926 -1.3867
   73MOL0     H 9795   0.517   8.641   0.186 -0.0916  0.0348  4.2882
   73MOL0     H 9796   0.583   8.947   0.117 -0.6645  1.5653 -0.6082
   73MOL0     H 9797   0.438   8.851   0.086 -0.0610 -0.2196 -0.1527
   73MOL0     H 9798   0.535   8.898   0.372  1.3195  2.6346 -0.2354
   73MOL0     H 9799   0.462   9.027   0.275 -2.2601 -0.1899  0.2758
   73MOL0     H 9800   0.256   8.890   0.254 -3.5869  1.1023  1.2437
   73MOL0     H 9801   0.337   8.760   0.341  2.6427  0.2107 -0.2420
   73MOL0     H 9802   0.373   8.971   0.519  1.1181  0.0210 -1.4272
   73MOL0     H 9803   0.208   9.009   0.472 -2.7787 -1.6820  0.6766
   73MOL0     H 9804   0.306   8.750   0.592  0.8521  0.8687 -0.3045
   73MOL0     H 9805   0.140   8.775   0.523  0.8209 -0.3570 -0.8237
   73MOL0     H 9806   0.000   9.010   0.622  0.8143 -0.6591 -1.0591
   73MOL0     H 9807   0.038   9.220   0.878  1.2988 -0.6043  0.0163
   73MOL0     H 9808  -0.092   9.157   0.787 -0.8711 -1.0310  0.1569
   73MOL0     H 9809  -0.127   9.014   1.040 -0.2416  0.7437  2.2293
   73MOL0     H 9810  -0.209   9.167   1.013 -0.4915 -1.1643 -0.4875
   73MOL0     H 9811  -0.032   9.285   1.122 -2.0713  0.2785 -2.9052
   73MOL0     H 9812   0.076   9.157   1.105  0.0024  2.6880 -4.4049
   73MOL0     H 9813   0.022   9.156   1.328  0.5835 -0.2546 -0.0084
   73MOL0     H 9814  -0.052   9.010   1.277 -0.1906 -0.0465  3.1331
   73MOL0     H 9815  -0.029   9.054   1.502 -0.2549  1.1226  0.6066
   73MOL0     H 9816  -0.016   9.121   1.853  2.6690 -1.7440  1.1530
   73MOL0     H 9817  -0.054   8.947   1.817 -0.2371 -0.3011  0.2677
   73MOL0     H 9818   0.048   9.038   1.706 -2.4444 -0.3332 -2.3212
   73MOL0     H 9819  -0.261   9.318   2.063 -1.2517 -0.6123 -1.8190
   73MOL0     H 9820  -0.318   9.431   2.296 -1.4923  1.4928 -0.0134
   73MOL0     H 9821  -0.458   9.559   2.547 -2.2353 -1.5555  0.9242
   73MOL0     H 9822  -0.418   9.587   2.376  0.8845  0.6621  1.4790
   73MOL0     H 9823  -0.676   9.626   2.528 -0.4970 -0.3105  0.3129
   73MOL0     H 9824  -0.549   9.751   2.506  2.0729 -2.5195 -0.0323
   73MOL0     H 9825  -0.734   9.779   2.343  0.8561  1.2264 -2.0304
   73MOL0     H 9826  -0.715   9.615   2.291  0.5479  0.3875 -0.0646
   73MOL0     H 9827  -0.497   9.826   2.257  1.7385 -3.0530  1.9014
   73MOL0     H 9828  -0.476   9.678   2.210 -0.5722 -0.5006 -1.0313
   73MOL0     H 9829  -0.555   9.814   2.009  0.1222 -0.3729 -0.7721
   73MOL0     H 9830  -0.719   9.818   2.084  2.3128  4.2701 -0.1216
   73MOL0     H 9831  -0.551   9.596   1.975 -3.0031 -2.3307 -3.1488
   73MOL0     H 9832  -0.691   9.559   2.091 -0.6711  0.7141  0.6687
   73MOL0     H 9833  -0.690   9.702   1.822 -2.7182 -0.8719 -1.3830
   73MOL0     H 9834  -0.840   9.700   1.908 -2.5761 -1.6887 -1.0583
   73MOL0     H 9835  -0.691   9.447   1.839  1.2331  1.5152  1.2070
   73MOL0     H 9836  -0.830   9.505   1.742 -0.6201  2.2464  0.4526
   73MOL0     H 9837  -0.712   9.320   2.257 -0.4624 -0.7029 -1.0117
   73MOL0     H 9838  -0.679   9.243   2.020 -2.4180 -0.3795  2.9600
   73MOL0     H 9839  -0.470   9.212   1.643  1.9666  0.5512  1.6515
   73MOL0     H 9840  -0.416   9.207   1.433 -1.0150  1.9540  2.6801
   73MOL0     H 9841   0.740   8.567   0.517 -0.3173 -0.9361  3.8793
   73MOL0     H 9842   0.706   8.464   0.731  0.7922  1.9066 -0.3774
   73MOL0     H 9843   0.372   7.998   0.999  0.9376 -0.1482 -0.2708
   73MOL0     H 9844   0.342   8.013   1.238  2.1108 -0.3396  2.9787
   73MOL0     H 9845   0.611   7.970   1.432  3.2581 -0.6279  1.9796
   73MOL0     H 9846   0.687   8.127   1.431  0.1003 -0.1658 -0.7212
   73MOL0     H 9847   0.496   8.034   1.650  0.7164  0.5430  1.0934
   73MOL0     H 9848   0.577   8.194   1.639  1.2033  0.4648 -0.6005
   73MOL0     H 9849   0.728   8.045   1.763 -1.8564  1.9909 -0.4775
   73MOL0     H 9850   0.785   8.035   1.608  0.0147  0.1038 -0.8015
   73MOL0     H 9851   0.657   7.797   1.591  0.9237  0.5497 -0.9842
   73MOL0     H 9852   0.576   7.849   1.755  0.4651 -0.6057  0.9233
   73MOL0     H 9853   0.954   7.690   1.841 -0.5799  1.7726  0.1958
   73MOL0     H 9854   0.636   8.313   1.273  0.1075 -1.5620  2.1789
   73MOL0     H 9855   0.677   8.309   1.022  0.3739 -1.3655 -0.6868
   74MOL0     O 9856   0.866   9.054   1.297  0.9891  0.5256  0.4470
   74MOL0     C 9857   0.911   8.979   1.206  0.4904  0.0924 -0.3300
   74MOL0     O 9858   0.906   8.846   1.195 -0.2776  0.3831 -0.1422
   74MOL0     C 9859   0.869   8.760   1.296  0.5549  1.1267 -0.0545
   74MOL0     C 9860   0.877   8.622   1.273 -0.2433  0.0367  0.7998
   74MOL0     C 9861   0.840   8.519   1.365  0.2695 -0.1231 -0.8967
   74MOL0     C 9862   0.786   8.560   1.495  0.5814 -0.3951 -0.5403
   74MOL0     O 9863   0.754   8.464   1.579  0.4067 -0.2032  0.1177
   74MOL0     C 9864   0.775   8.510   1.713  0.3882 -0.3083  0.5238
   74MOL0     C 9865   0.798   8.379   1.795  1.2615 -0.2412  0.1699
   74MOL0     C 9866   0.835   8.410   1.945  0.6300  0.4468 -0.9909
   74MOL0     C 9867   0.874   8.288   2.031 -0.5594  0.1233  0.4720
   74MOL0     C 9868   0.748   8.221   2.073 -0.7494 -0.1947  0.3984
   74MOL0     C 9869   0.765   8.099   2.160 -0.4084 -0.3023 -0.9093
   74MOL0     C 9870   0.795   7.969   2.078  0.1524  0.0548 -0.0160
   74MOL0     C 9871   0.847   7.858   2.174  0.0668 -0.3361  0.3422
   74MOL0     N 9872   0.984   7.872   2.229  0.3888 -0.1802  0.4990
   74MOL0     C 9873   1.092   7.889   2.148  0.6322  0.3115 -0.2753
   74MOL0     C 9874   1.186   7.940   2.236  0.5526 -0.1351  0.4634
   74MOL0     C 9875   1.321   7.977   2.188  0.0487  0.1493  0.2142
   74MOL0     C 9876   1.424   7.861   2.190 -0.6069  0.3293 -0.4645
   74MOL0     C 9877   1.557   7.902   2.124  0.2026 -0.0085 -0.6818
   74MOL0     C 9878   1.640   8.024   2.181  0.8270 -0.1070 -0.5560
   74MOL0     O 9879   1.750   8.035   2.093 -0.3041  0.4517 -0.7919
   74MOL0     C 9880   1.835   8.140   2.107  0.2264 -0.2307 -1.4594
   74MOL0     C 9881   1.868   8.192   1.985  0.6175 -0.1442 -0.7339
   74MOL0     C 9882   1.946   8.299   1.969 -0.0790 -0.5237 -0.2775
   74MOL0     C 9883   1.979   8.349   1.837 -0.2664 -0.6131  0.2874
   74MOL0     C 9884   1.993   8.361   2.087  0.4221 -0.1788 -0.1697
   74MOL0     C 9885   2.067   8.484   2.086  0.5639  0.2632 -0.3022
   74MOL0     O 9886   2.044   8.559   2.200 -0.5091 -0.6978 -0.1301
   74MOL0     C 9887   2.091   8.686   2.206 -0.0562  0.5143  0.5178
   74MOL0     C 9888   2.022   8.786   2.139 -0.2048 -0.2474 -0.3050
   74MOL0     C 9889   2.069   8.919   2.150  0.3866 -0.0089 -0.3040
   74MOL0     C 9890   2.161   8.959   2.239 -0.3619 -0.2157 -0.8248
   74MOL0     O 9891   2.209   9.090   2.249  0.1515  0.4196  0.5878
   74MOL0     C 9892   2.135   9.207   2.209 -0.8271  0.3323 -0.0016
   74MOL0     C 9893   2.032   9.242   2.321  0.1539  0.5924  0.4388
   74MOL0     C 9894   1.972   9.370   2.273  0.3722  0.4481  0.0029
   74MOL0     C 9895   1.862   9.364   2.166  1.1464  0.5217 -0.2025
   74MOL0     C 9896   1.719   9.299   2.208  0.3943 -0.1355  0.3560
   74MOL0     C 9897   1.633   9.290   2.092  0.5685 -0.2596  0.1565
   74MOL0     C 9898   1.489   9.244   2.113 -0.2834  0.1897  0.4150
   74MOL0     C 9899   1.424   9.236   1.970 -0.0438 -0.8317  0.3498
   74MOL0    Cl 9900   1.514   9.113   1.872  0.2467 -0.2095 -0.0325
   74MOL0     C 9901   2.231   8.852   2.307 -0.3338  0.1474  0.4137
   74MOL0     C 9902   2.199   8.720   2.285  0.2642  0.1066 -0.6354
   74MOL0     O 9903   2.158   8.509   2.004 -0.4104  0.2551  0.0678
   74MOL0     C 9904   1.964   8.303   2.219  0.5030 -1.0342  0.8628
   74MOL0     C 9905   1.879   8.192   2.230  0.2073 -0.2525  0.2925
   74MOL0     N 9906   1.136   7.965   2.363 -0.2594  0.1956  0.0331
   74MOL0     N 9907   1.017   7.917   2.354  0.0267 -1.4421 -0.1562
   74MOL0     C 9908   0.774   8.695   1.518 -1.3497 -0.0275 -0.1669
   74MOL0     C 9909   0.822   8.796   1.425  0.6375 -0.0908  0.1704
   74MOL0     C 9910   0.987   9.037   1.098  0.5816 -0.0253  1.2636
   74MOL0     C 9911   1.015   8.969   0.974  0.3321 -0.0276  0.6086
   74MOL0     C 9912   1.085   9.037   0.877 -0.3552 -0.3998  0.6485
   74MOL0     C 9913   1.137   9.163   0.906  0.3190  0.6170 -1.0334
   74MOL0     O 9914   1.229   9.223   0.830  0.1647 -0.2455  0.3524
   74MOL0     C 9915   1.292   9.155   0.712  0.4088 -0.1966 -0.2221
   74MOL0     C 9916   1.439   9.209   0.683 -0.9778  0.0096 -0.9492
   74MOL0     C 9917   1.515   9.117   0.590 -0.5656 -0.0020 -0.6478
   74MOL0     C 9918   1.472   9.105   0.447 -0.2976  0.1076 -0.4971
   74MOL0     C 9919   1.519   9.225   0.372 -0.0450 -1.1562  0.1413
   74MOL0     C 9920   1.576   9.324   0.333 -0.6679 -0.3865  0.3891
   74MOL0     C 9921   1.107   9.228   1.024 -1.0093 -1.0282  0.1217
   74MOL0     C 9922   1.019   9.173   1.111 -0.4127 -0.2633  0.1619
   74MOL0     H 9923   0.924   8.587   1.181  0.0508 -2.0192  1.7007
   74MOL0     H 9924   0.857   8.415   1.337 -2.3165 -0.2237 -2.3775
   74MOL0     H 9925   0.861   8.576   1.724  1.0094 -0.8805 -0.7185
   74MOL0     H 9926   0.683   8.561   1.742 -0.4311 -2.3705  1.8235
   74MOL0     H 9927   0.707   8.319   1.793  0.8971  0.3155 -0.9891
   74MOL0     H 9928   0.888   8.332   1.752  1.7298  0.6963  0.0912
   74MOL0     H 9929   0.915   8.484   1.953  2.4123 -1.0192 -3.6112
   74MOL0     H 9930   0.746   8.442   1.999 -1.8534 -3.4923 -2.3229
   74MOL0     H 9931   0.950   8.226   1.982  2.5403  3.4020  0.6153
   74MOL0     H 9932   0.926   8.332   2.118  0.7903  1.5975 -1.0006
   74MOL0     H 9933   0.688   8.296   2.125 -2.0671  0.1126 -1.4580
   74MOL0     H 9934   0.688   8.187   1.988 -1.1447  1.4788 -0.0305
   74MOL0     H 9935   0.845   8.124   2.231 -3.0929  2.3644  1.4304
   74MOL0     H 9936   0.674   8.078   2.216 -1.1495 -0.3839 -2.1072
   74MOL0     H 9937   0.709   7.940   2.017  0.0085 -2.6478  1.3261
   74MOL0     H 9938   0.869   7.991   2.000 -0.1346 -0.0502 -0.3166
   74MOL0     H 9939   0.862   7.766   2.117 -2.8547 -1.4744  1.1926
   74MOL0     H 9940   0.775   7.827   2.251  0.8200 -0.0521  1.1740
   74MOL0     H 9941   1.089   7.871   2.041 -4.5791 -1.8354 -0.0503
   74MOL0     H 9942   1.306   8.011   2.085 -3.0794 -2.8064 -0.4774
   74MOL0     H 9943   1.366   8.054   2.250  0.4322 -0.5912  0.8757
   74MOL0     H 9944   1.379   7.766   2.160 -0.1598 -0.6988  1.8994
   74MOL0     H 9945   1.446   7.837   2.295  2.0517 -0.7396 -1.1842
   74MOL0     H 9946   1.537   7.908   2.016  2.5414 -0.8662 -1.2362
   74MOL0     H 9947   1.617   7.811   2.137 -1.1507 -0.5444  2.8822
   74MOL0     H 9948   1.669   8.005   2.285  1.2518  1.7706 -0.2936
   74MOL0     H 9949   1.586   8.117   2.197 -0.0408 -0.8677  1.2820
   74MOL0     H 9950   1.820   8.142   1.902 -1.3451 -2.0526  1.4284
   74MOL0     H 9951   2.078   8.311   1.809  0.4803 -0.2378  2.2624
   74MOL0     H 9952   1.905   8.331   1.758  0.6779  1.3960 -1.1418
   74MOL0     H 9953   1.989   8.458   1.835  2.2793 -0.7818 -0.9498
   74MOL0     H 9954   1.941   8.758   2.073 -1.1462 -1.4345  1.2768
   74MOL0     H 9955   2.012   8.985   2.085 -0.7675 -2.4255 -1.9036
   74MOL0     H 9956   2.205   9.291   2.205  0.6612 -0.8520 -3.8532
   74MOL0     H 9957   2.094   9.197   2.108 -0.3736 -0.5366 -0.1095
   74MOL0     H 9958   1.961   9.159   2.325  0.9921 -0.6834 -4.3821
   74MOL0     H 9959   2.090   9.266   2.410  2.4332  3.2221 -1.5865
   74MOL0     H 9960   2.059   9.425   2.234  1.3253  0.0824  1.5299
   74MOL0     H 9961   1.943   9.430   2.360 -0.3841 -0.2141  0.2168
   74MOL0     H 9962   1.838   9.468   2.143  0.0646  1.0950  3.0302
   74MOL0     H 9963   1.897   9.324   2.071  0.5788  1.4559 -0.8179
   74MOL0     H 9964   1.679   9.367   2.285 -4.0718 -2.7216  0.6381
   74MOL0     H 9965   1.741   9.199   2.246 -0.6811 -0.3101  0.5609
   74MOL0     H 9966   1.637   9.396   2.065 -1.0702  0.1563  1.3652
   74MOL0     H 9967   1.679   9.217   2.025 -1.2396 -0.6571 -0.7233
   74MOL0     H 9968   1.433   9.303   2.187 -0.0447 -2.5425  2.9547
   74MOL0     H 9969   1.499   9.146   2.160 -3.1672 -0.8401 -0.8548
   74MOL0     H 9970   1.439   9.335   1.926  0.8970  1.2453  4.7898
   74MOL0     H 9971   1.320   9.207   1.985 -0.5906  0.5135 -0.6826
   74MOL0     H 9972   2.311   8.880   2.374 -1.5809  0.7102  1.7421
   74MOL0     H 9973   2.257   8.641   2.332 -0.1455  1.2750  2.0025
   74MOL0     H 9974   2.020   8.340   2.304 -2.5539  0.3168  2.4622
   74MOL0     H 9975   1.861   8.148   2.327 -1.4985  2.2209  1.1909
   74MOL0     H 9976   0.746   8.737   1.615  2.6470  0.2144  1.0706
   74MOL0     H 9977   0.815   8.899   1.457 -0.9760 -0.4674  1.1571
   74MOL0     H 9978   0.984   8.867   0.958 -3.1624  1.1501 -1.1430
   74MOL0     H 9979   1.105   8.993   0.780 -2.9752  0.6084 -0.4562
   74MOL0     H 9980   1.306   9.051   0.741 -0.3169 -0.1660  0.2746
   74MOL0     H 9981   1.230   9.153   0.622  0.4413 -1.6175 -0.2298
   74MOL0     H 9982   1.476   9.215   0.786 -2.5681 -0.2532 -0.3249
   74MOL0     H 9983   1.442   9.303   0.628  0.4279 -0.5558 -1.8821
   74MOL0     H 9984   1.505   9.015   0.628 -2.2412 -0.3652 -1.9208
   74MOL0     H 9985   1.622   9.140   0.585 -1.0433  2.4002 -0.6744
   74MOL0     H 9986   1.363   9.109   0.442 -0.2796  2.2297 -0.3334
   74MOL0     H 9987   1.515   9.023   0.390  1.2736  1.6080 -1.5353
   74MOL0     H 9988   1.636   9.404   0.293  0.4811 -1.7549 -0.7826
   74MOL0     H 9989   1.140   9.331   1.039 -1.3644 -1.0538  1.2228
   74MOL0     H 9990   0.984   9.227   1.199  1.9604  1.0446  0.3861
   75MOL0     O 9991  10.659   5.597   0.669 -1.3474  0.3018 -0.2030
   75MOL0     C 9992  10.563   5.661   0.635 -0.0198 -0.0376  0.1355
   75MOL0     O 9993  10.553   5.796   0.626  0.0552 -0.2286  0.2523
   75MOL0     C 9994  10.649   5.882   0.670  0.0622 -0.1778 -0.6503
   75MOL0     C 9995  10.731   5.861   0.787  0.8924  0.4264  0.0967
   75MOL0     C 9996  10.823   5.961   0.819  0.1331  0.1187 -1.1013
   75MOL0     C 9997  10.828   6.088   0.752 -0.1072  1.1060 -0.5438
   75MOL0     O 9998  10.913   6.190   0.790  0.4683 -0.0865  0.3488
   75MOL0     C 9999  10.890   6.326   0.758  0.5115  0.2752  0.2456
   75MOL0     C10000  10.975   6.379   0.650  0.4198  0.3261 -0.3357
   75MOL0     C10001  11.064   6.485   0.697  0.3672 -0.3840  1.3677
   75MOL0     C10002  11.167   6.526   0.592 -0.8425 -0.7365  0.7523
   75MOL0     C10003  11.249   6.638   0.644  0.1883  1.0336  0.1587
   75MOL0     C10004  11.374   6.662   0.553 -0.1873  0.7147  0.4066
   75MOL0     C10005  11.466   6.761   0.610 -0.3690  0.3470 -0.7061
   75MOL0     C10006  11.600   6.777   0.542  0.6505 -0.2552 -0.0373
   75MOL0     N10007  11.598   6.796   0.394  0.6330  0.2519  0.4045
   75MOL0     C10008  11.588   6.700   0.301 -0.0962 -0.7506  0.8165
   75MOL0     C10009  11.571   6.769   0.182  0.2792  0.9441  0.2819
   75MOL0     C10010  11.531   6.715   0.052 -0.8575 -0.3425 -0.5531
   75MOL0     C10011  11.610   6.769  -0.061  0.1035 -0.2049  1.0187
   75MOL0     C10012  11.581   6.685  -0.190  1.6270  0.4394  0.1380
   75MOL0     C10013  11.683   6.709  -0.307  0.2219  0.2977  0.0304
   75MOL0     O10014  11.661   6.846  -0.340  0.3427 -0.6438 -0.1677
   75MOL0     C10015  11.736   6.918  -0.436  0.4656  0.1341  0.9250
   75MOL0     C10016  11.843   6.860  -0.501 -0.3499 -0.0269  0.5045
   75MOL0     C10017  11.913   6.943  -0.598 -0.3219  0.0641 -0.2295
   75MOL0     C10018  12.019   6.875  -0.674 -0.4706  0.9838  0.3954
   75MOL0     C10019  11.883   7.083  -0.607  0.5936 -0.7041  0.2505
   75MOL0     C10020  11.964   7.177  -0.683  0.6347 -0.3742  0.4421
   75MOL0     O10021  11.900   7.291  -0.721 -0.0750  0.2605 -0.2701
   75MOL0     C10022  11.959   7.389  -0.786  0.4601 -0.1988  0.4221
   75MOL0     C10023  12.048   7.475  -0.715  0.3968  0.1773  0.5599
   75MOL0     C10024  12.119   7.576  -0.790 -0.7133  0.3312 -1.6018
   75MOL0     C10025  12.110   7.576  -0.930  0.6581 -0.3278 -0.5514
   75MOL0     O10026  12.183   7.665  -0.997 -1.0553  0.3342 -0.8327
   75MOL0     C10027  12.306   7.609  -1.057  0.5546 -0.7090 -0.4452
   75MOL0     C10028  12.367   7.729  -1.133 -0.3165  0.7214  0.9576
   75MOL0     C10029  12.480   7.694  -1.234 -0.8258  0.3285 -0.0488
   75MOL0     C10030  12.573   7.573  -1.201 -0.0369  0.2748 -0.3928
   75MOL0     C10031  12.705   7.575  -1.289 -0.0187 -0.3838 -0.6567
   75MOL0     C10032  12.679   7.588  -1.441  0.5074 -0.7468 -0.3731
   75MOL0     C10033  12.811   7.545  -1.512 -0.7140 -0.1073  0.0393
   75MOL0     C10034  12.935   7.644  -1.498  0.2039 -0.2044 -1.0662
   75MOL0    Cl10035  13.085   7.556  -1.544 -0.0358 -0.4339  0.1414
   75MOL0     C10036  12.022   7.490  -0.995 -0.6705  0.4038 -0.0270
   75MOL0     C10037  11.947   7.401  -0.927 -0.2066  0.5222  0.4655
   75MOL0     O10038  12.074   7.140  -0.728  0.3221 -0.0448  0.0034
   75MOL0     C10039  11.770   7.129  -0.541  0.6646  0.5653  0.1342
   75MOL0     C10040  11.692   7.043  -0.467  1.5459 -0.4298 -0.0720
   75MOL0     N10041  11.597   6.902   0.203  0.0961 -0.1690  0.1762
   75MOL0     N10042  11.606   6.916   0.335 -0.0523  0.3541  0.0275
   75MOL0     C10043  10.753   6.098   0.632 -0.3432  0.5837  0.3007
   75MOL0     C10044  10.661   5.999   0.601 -0.5164  0.1769 -0.5367
   75MOL0     C10045  10.437   5.579   0.610  0.9611  0.3733  0.2280
   75MOL0     C10046  10.336   5.638   0.542  0.7581 -0.6831  0.6463
   75MOL0     C10047  10.207   5.578   0.538  0.0261 -0.9768 -0.0830
   75MOL0     C10048  10.170   5.462   0.604  0.0933  0.5243 -0.4834
   75MOL0     O10049  10.048   5.406   0.616 -0.4956  0.0126  0.1318
   75MOL0     C10050   9.968   5.402   0.494  0.2321  0.1182 -0.1566
   75MOL0     C10051  10.029   5.320   0.376 -0.5820  0.5509 -0.1779
   75MOL0     C10052   9.993   5.171   0.412  0.5438 -0.3504 -1.2628
   75MOL0     C10053   9.982   5.104   0.272  0.3311 -0.2090  0.4576
   75MOL0     C10054  10.113   5.047   0.226 -0.5449  0.0632  0.7664
   75MOL0     C10055  10.223   5.014   0.186  0.8508 -0.6762 -0.1666
   75MOL0     C10056  10.274   5.411   0.681  0.3692  1.2936  0.1500
   75MOL0     C10057  10.404   5.465   0.682  0.4040  0.0642  0.9330
   75MOL0     H10058  10.726   5.769   0.844  1.7051  2.0343  2.9660
   75MOL0     H10059  10.890   5.934   0.901  1.8706  1.9178 -1.8537
   75MOL0     H10060  10.784   6.342   0.734 -0.7109 -0.8135  4.1264
   75MOL0     H10061  10.896   6.395   0.842 -1.9416 -1.5295  2.0572
   75MOL0     H10062  11.033   6.299   0.604 -0.0921  0.1603 -0.7118
   75MOL0     H10063  10.910   6.410   0.567 -0.5783 -3.2263 -1.0474
   75MOL0     H10064  10.996   6.567   0.722  0.9265  0.6926 -0.4470
   75MOL0     H10065  11.118   6.454   0.786 -1.3528  0.7980  2.8973
   75MOL0     H10066  11.235   6.442   0.572  1.2551  1.2694 -1.2531
   75MOL0     H10067  11.119   6.559   0.499 -1.1444 -0.4054  1.0256
   75MOL0     H10068  11.181   6.724   0.643 -3.0784 -1.4106 -0.4101
   75MOL0     H10069  11.274   6.628   0.750 -1.7299  3.2468  0.9168
   75MOL0     H10070  11.428   6.569   0.531 -1.0985  0.2112  0.2314
   75MOL0     H10071  11.329   6.700   0.460 -2.5614 -1.2097  0.6797
   75MOL0     H10072  11.414   6.855   0.629  1.5254  0.6870  4.4885
   75MOL0     H10073  11.499   6.728   0.709  0.7716 -1.3092 -1.5764
   75MOL0     H10074  11.655   6.683   0.554  1.6442  0.6212  3.1768
   75MOL0     H10075  11.659   6.860   0.580  0.9899 -1.3775  2.0216
   75MOL0     H10076  11.579   6.593   0.316 -0.8882 -1.0149 -1.2134
   75MOL0     H10077  11.540   6.606   0.052 -2.0525 -0.4520 -0.1637
   75MOL0     H10078  11.425   6.738   0.037 -1.1595 -1.9926 -1.1614
   75MOL0     H10079  11.718   6.766  -0.047  0.4302 -0.8772 -1.3153
   75MOL0     H10080  11.589   6.876  -0.075  0.2355 -0.3869 -0.7935
   75MOL0     H10081  11.473   6.695  -0.203  1.3956  1.4866  2.4585
   75MOL0     H10082  11.590   6.580  -0.161  2.5322  1.3885  3.7077
   75MOL0     H10083  11.660   6.650  -0.396 -0.1916  2.7077 -1.5464
   75MOL0     H10084  11.788   6.695  -0.278  0.1722 -0.3533 -0.0891
   75MOL0     H10085  11.876   6.761  -0.470  0.4912 -0.9637 -2.9266
   75MOL0     H10086  12.023   6.769  -0.649  0.8100  0.9326  0.0512
   75MOL0     H10087  12.001   6.891  -0.781 -2.0640 -0.5943  0.3846
   75MOL0     H10088  12.118   6.915  -0.649 -0.2565  0.7362 -0.0596
   75MOL0     H10089  12.068   7.457  -0.610 -0.5968 -2.0089  0.4314
   75MOL0     H10090  12.184   7.643  -0.735 -0.5694 -1.3336  0.3755
   75MOL0     H10091  12.375   7.585  -0.976  1.0154 -1.2712 -0.9957
   75MOL0     H10092  12.282   7.524  -1.122 -2.3252 -1.0686  0.9313
   75MOL0     H10093  12.298   7.796  -1.186  2.5281  3.3117  0.1993
   75MOL0     H10094  12.422   7.795  -1.065 -0.3985 -0.8775  2.6472
   75MOL0     H10095  12.541   7.784  -1.243  0.3749 -0.5728 -1.3206
   75MOL0     H10096  12.434   7.675  -1.331 -0.1094 -1.8448 -0.0376
   75MOL0     H10097  12.608   7.582  -1.098 -0.1927  1.3774 -0.4197
   75MOL0     H10098  12.521   7.478  -1.214 -1.7787  0.9772  1.0324
   75MOL0     H10099  12.755   7.479  -1.275  0.4809 -0.0276  0.0633
   75MOL0     H10100  12.775   7.648  -1.247 -2.5329  1.6290  0.2642
   75MOL0     H10101  12.595   7.525  -1.470 -1.1945  1.0000  0.5014
   75MOL0     H10102  12.649   7.688  -1.474 -0.6548 -1.4691 -1.6059
   75MOL0     H10103  12.796   7.547  -1.620  0.8167  2.3224 -0.2138
   75MOL0     H10104  12.841   7.442  -1.492 -2.6650 -1.2284 -2.2631
   75MOL0     H10105  12.952   7.679  -1.395  1.8840 -0.7410 -1.1247
   75MOL0     H10106  12.910   7.723  -1.569 -1.0996  1.0715  0.6996
   75MOL0     H10107  12.022   7.482  -1.103  3.7097  0.5080 -0.2177
   75MOL0     H10108  11.877   7.335  -0.977 -1.3763  4.6637 -4.0733
   75MOL0     H10109  11.737   7.232  -0.553 -1.5414 -0.2454 -1.5245
   75MOL0     H10110  11.598   7.070  -0.420  0.2690  1.3615 -3.3301
   75MOL0     H10111  10.773   6.182   0.566 -1.5836  0.3818 -0.3440
   75MOL0     H10112  10.599   6.013   0.513  1.4943  6.1900 -1.4296
   75MOL0     H10113  10.349   5.730   0.487 -3.6699 -0.0946  0.2684
   75MOL0     H10114  10.137   5.618   0.465  2.4348 -0.7429 -2.4256
   75MOL0     H10115   9.865   5.368   0.511 -0.1296 -0.2297 -2.5927
   75MOL0     H10116   9.962   5.506   0.462  0.0639  0.8939  2.2685
   75MOL0     H10117  10.137   5.337   0.376 -0.1213 -1.9156 -0.0176
   75MOL0     H10118   9.982   5.357   0.285 -1.6997  3.1155  1.3430
   75MOL0     H10119   9.895   5.181   0.460  2.2318  1.0386  2.2406
   75MOL0     H10120  10.062   5.132   0.488 -3.0820  1.7273  3.6482
   75MOL0     H10121   9.948   5.179   0.200  2.1042  0.2314  0.0354
   75MOL0     H10122   9.916   5.017   0.271  1.4931 -1.1180 -0.1467
   75MOL0     H10123  10.326   4.988   0.170  0.8316 -1.7895  1.3316
   75MOL0     H10124  10.238   5.326   0.738  1.5445  1.4574  1.1857
   75MOL0     H10125  10.465   5.419   0.759 -0.9382 -1.2468  1.2694
   76MOL0     O10126   0.236  10.155  11.175 -0.1646  0.0949  0.0733
   76MOL0     C10127   0.323  10.067  11.152  0.1293 -0.5663 -0.0379
   76MOL0     O10128   0.448  10.081  11.093 -0.1276  0.4431  0.0483
   76MOL0     C10129   0.475  10.213  11.054 -0.2407  0.5841  0.4903
   76MOL0     C10130   0.462  10.317  11.137  0.0988 -0.1484 -0.3856
   76MOL0     C10131   0.492  10.443  11.090  0.5192  0.3711  0.8173
   76MOL0     C10132   0.544  10.468  10.961 -0.3375 -1.0006 -0.7260
   76MOL0     O10133   0.583  10.592  10.910  0.0714 -0.0496  0.0819
   76MOL0     C10134   0.620  10.690  11.011 -0.1912  0.6867  0.3312
   76MOL0     C10135   0.685  10.818  10.953 -0.7610 -0.3858 -0.6772
   76MOL0     C10136   0.794  10.880  11.053  0.3222  0.5370 -0.4864
   76MOL0     C10137   0.835  11.025  11.026 -0.6540  0.0474 -0.6094
   76MOL0     C10138   0.915  11.042  10.901 -0.0972 -0.3739  0.3098
   76MOL0     C10139   1.069  11.013  10.911 -0.7538  0.0147  0.6344
   76MOL0     C10140   1.159  11.071  10.787  0.4389  0.3762 -0.1655
   76MOL0     C10141   1.185  10.962  10.696 -0.2361 -0.0268 -0.0252
   76MOL0     N10142   1.071  10.921  10.614 -0.7223  0.0728 -0.2916
   76MOL0     C10143   1.017  10.802  10.620  0.0909 -0.3227  0.7113
   76MOL0     C10144   0.896  10.812  10.551 -0.3539 -0.1248  0.4685
   76MOL0     C10145   0.794  10.710  10.498  0.9385 -0.4376  0.1405
   76MOL0     C10146   0.873  10.610  10.413 -0.4858  0.2886  0.2688
   76MOL0     C10147   0.781  10.508  10.336  0.6615 -0.6443 -0.0650
   76MOL0     C10148   0.688  10.426  10.424 -0.1270 -0.0997  0.8047
   76MOL0     O10149   0.772  10.327  10.486  0.2622  0.2539  0.4920
   76MOL0     C10150   0.727  10.198  10.521  0.4848  0.4809 -0.3904
   76MOL0     C10151   0.815  10.118  10.586 -0.1830  0.0921 -1.1797
   76MOL0     C10152   0.789   9.986  10.626  0.8453  0.7135 -0.6346
   76MOL0     C10153   0.896   9.898  10.682 -0.4476  0.6323 -0.6565
   76MOL0     C10154   0.660   9.934  10.609 -1.2428 -0.4082  0.0048
   76MOL0     C10155   0.620   9.792  10.642 -0.4078 -0.8419 -0.2591
   76MOL0     O10156   0.488   9.777  10.621  0.7904  0.6248 -0.0989
   76MOL0     C10157   0.421   9.658  10.652  0.1380  0.2607  0.3567
   76MOL0     C10158   0.456   9.537  10.595  0.1837 -0.0892  0.3764
   76MOL0     C10159   0.393   9.421  10.614 -0.0770  0.5300  1.1268
   76MOL0     C10160   0.279   9.409  10.702 -0.6621  0.3419  0.3262
   76MOL0     O10161   0.206   9.291  10.719 -0.5062 -0.2268 -0.0638
   76MOL0     C10162   0.267   9.168  10.669 -0.3458  0.2706  0.3194
   76MOL0     C10163   0.220   9.050  10.738 -0.0918  0.2084  0.1662
   76MOL0     C10164   0.075   9.053  10.773  0.1396  0.3179 -0.1555
   76MOL0     C10165   0.028   8.922  10.839  0.3250  0.6463  0.1008
   76MOL0     C10166  -0.109   8.945  10.899  0.0972  0.8416 -0.3764
   76MOL0     C10167  -0.194   8.821  10.909 -0.3297  0.1198 -0.5253
   76MOL0     C10168  -0.333   8.842  10.993 -0.3432  0.7357 -0.9234
   76MOL0     C10169  -0.388   8.699  11.018  0.3989  0.2636  0.2718
   76MOL0    Cl10170  -0.293   8.610  11.137 -0.4714 -0.4351 -0.1506
   76MOL0     C10171   0.238   9.530  10.746  0.0930 -0.2889 -0.7013
   76MOL0     C10172   0.301   9.653  10.719  0.4465  0.8515 -0.1492
   76MOL0     O10173   0.694   9.706  10.690  0.6877  0.1873 -0.6249
   76MOL0     C10174   0.569  10.017  10.547 -0.0349 -1.1162 -0.9232
   76MOL0     C10175   0.597  10.148  10.508 -0.1536 -0.3782 -0.2673
   76MOL0     N10176   0.903  10.948  10.498  0.3350 -0.5057 -0.2081
   76MOL0     N10177   1.009  11.006  10.527 -0.5863 -0.1192 -0.0875
   76MOL0     C10178   0.573  10.354  10.885 -0.4214  0.0156 -0.8345
   76MOL0     C10179   0.533  10.228  10.933 -0.3678  0.8924 -0.2030
   76MOL0     C10180   0.287   9.924  11.182  0.0391  0.0850  0.9920
   76MOL0     C10181   0.361   9.822  11.117 -0.0341  0.0553 -0.5827
   76MOL0     C10182   0.310   9.691  11.124  0.2761  1.2643 -0.7899
   76MOL0     C10183   0.197   9.662  11.187  0.1050  0.2894  0.3732
   76MOL0     O10184   0.149   9.535  11.201  0.7511  0.9532  0.0997
   76MOL0     C10185   0.203   9.423  11.121  0.2546 -0.4147 -0.3807
   76MOL0     C10186   0.085   9.329  11.083  0.6366 -0.2197  0.7105
   76MOL0     C10187   0.026   9.264  11.211  0.0831 -0.3008 -0.2503
   76MOL0     C10188  -0.129   9.286  11.201 -0.0419  0.2840  0.1714
   76MOL0     C10189  -0.196   9.198  11.293 -0.0834  0.6168  0.0524
   76MOL0     C10190  -0.267   9.122  11.349 -0.0008  0.4009 -0.5188
   76MOL0     C10191   0.119   9.760  11.251 -0.6092 -0.9658  0.5274
   76MOL0     C10192   0.167   9.893  11.251 -0.5821  1.2274 -0.1165
   76MOL0     H10193   0.437  10.282  11.236 -2.0796 -0.0236 -0.8402
   76MOL0     H10194   0.479  10.518  11.167 -0.3302 -1.3964  2.4857
   76MOL0     H10195   0.523  10.722  11.050 -1.0187 -1.3107  0.0580
   76MOL0     H10196   0.672  10.646  11.096  2.6937  2.1899 -0.5202
   76MOL0     H10197   0.728  10.809  10.852 -0.1706  2.0423 -0.7047
   76MOL0     H10198   0.607  10.894  10.940 -2.1897 -1.5073  1.0273
   76MOL0     H10199   0.762  10.881  11.157 -0.9390 -2.0516 -0.7545
   76MOL0     H10200   0.882  10.815  11.050 -0.1583 -0.0992 -1.7194
   76MOL0     H10201   0.747  11.089  11.040 -2.6197 -3.0499  2.9520
   76MOL0     H10202   0.893  11.076  11.104 -2.9813  2.4344 -0.2875
   76MOL0     H10203   0.870  10.977  10.827 -0.3079  0.8940 -0.7079
   76MOL0     H10204   0.902  11.145  10.866  0.8764  0.3925  2.0252
   76MOL0     H10205   1.116  11.057  10.999  1.2152 -2.2507  0.8232
   76MOL0     H10206   1.092  10.906  10.916 -0.1816 -0.0287 -1.6276
   76MOL0     H10207   1.121  11.157  10.731  2.5742  0.2629 -1.9342
   76MOL0     H10208   1.255  11.103  10.831  0.9642 -0.3622 -0.7448
   76MOL0     H10209   1.222  10.876  10.753 -2.9748 -2.2549 -1.3935
   76MOL0     H10210   1.262  11.002  10.628  0.0282 -0.4898 -0.0023
   76MOL0     H10211   1.058  10.711  10.662  0.5644  0.2267  1.4500
   76MOL0     H10212   0.749  10.668  10.589 -1.3934  2.6101  0.6011
   76MOL0     H10213   0.706  10.747  10.444  2.1725 -1.9116 -3.1161
   76MOL0     H10214   0.944  10.549  10.470  1.6231 -0.4293 -2.8388
   76MOL0     H10215   0.938  10.667  10.345 -1.6533  1.3672  0.0194
   76MOL0     H10216   0.840  10.456  10.260 -1.0052 -1.7191 -0.6749
   76MOL0     H10217   0.713  10.567  10.274 -1.8145 -1.0120  2.1226
   76MOL0     H10218   0.615  10.377  10.359  0.3609  1.5329 -1.0768
   76MOL0     H10219   0.638  10.483  10.503  2.4935  2.3624  0.8686
   76MOL0     H10220   0.914  10.161  10.598  0.0808  0.5448 -4.0598
   76MOL0     H10221   0.912   9.808  10.622 -2.6676 -1.5904  1.8447
   76MOL0     H10222   0.996   9.942  10.683  0.4043 -1.2434 -0.2798
   76MOL0     H10223   0.872   9.870  10.785  0.5381  1.3116 -0.2291
   76MOL0     H10224   0.530   9.534  10.516 -0.7175 -1.1502 -0.4666
   76MOL0     H10225   0.429   9.341  10.550  0.9663  1.5485  0.3994
   76MOL0     H10226   0.249   9.172  10.562  0.1521  2.0188  0.2635
   76MOL0     H10227   0.376   9.160  10.678 -0.2752 -3.3801 -1.7101
   76MOL0     H10228   0.246   8.961  10.681  1.8469  0.1722  1.0214
   76MOL0     H10229   0.272   9.048  10.834 -1.1784  1.4170  0.8237
   76MOL0     H10230   0.016   9.081  10.685  1.6276 -0.1929 -1.3489
   76MOL0     H10231   0.067   9.131  10.849 -0.5915 -0.4178  0.5487
   76MOL0     H10232   0.021   8.854  10.753  0.4599  4.0732 -2.8624
   76MOL0     H10233   0.106   8.895  10.910  0.3907  1.1574  0.2215
   76MOL0     H10234  -0.163   9.007  10.827  3.3049  2.6325 -1.4304
   76MOL0     H10235  -0.102   8.992  10.998  1.8391  4.0299 -1.8273
   76MOL0     H10236  -0.215   8.779  10.810  1.5676 -1.9564 -0.1368
   76MOL0     H10237  -0.139   8.741  10.959 -0.6030 -0.4259 -1.0787
   76MOL0     H10238  -0.417   8.888  10.941 -2.3080 -1.3380  0.2268
   76MOL0     H10239  -0.297   8.904  11.076  0.1791  0.5963 -1.0446
   76MOL0     H10240  -0.399   8.640  10.926 -0.7022  0.4216  0.2860
   76MOL0     H10241  -0.487   8.707  11.064  1.7740 -0.2995  3.6170
   76MOL0     H10242   0.149   9.529  10.808 -0.9358  3.3558 -1.8392
   76MOL0     H10243   0.263   9.744  10.764 -1.5502 -0.6934  1.4847
   76MOL0     H10244   0.466   9.984  10.537 -0.6353 -1.3000  3.5028
   76MOL0     H10245   0.530  10.211  10.451 -0.9811 -1.2812 -0.3258
   76MOL0     H10246   0.611  10.369  10.784  0.6602 -2.3369 -0.8491
   76MOL0     H10247   0.564  10.142  10.874  0.2037  1.3050 -0.5169
   76MOL0     H10248   0.459   9.835  11.074  0.9502 -2.1242  0.8558
   76MOL0     H10249   0.375   9.614  11.083 -0.8740 -1.7395  2.4490
   76MOL0     H10250   0.243   9.473  11.033 -1.6592 -0.2125 -1.1902
   76MOL0     H10251   0.272   9.370  11.187 -1.6064  0.8380  2.8277
   76MOL0     H10252   0.116   9.242  11.025  1.1275 -0.9048  1.9561
   76MOL0     H10253   0.014   9.387  11.023  0.8107 -2.5147 -1.8862
   76MOL0     H10254   0.057   9.326  11.296  0.4297  2.2739 -2.1521
   76MOL0     H10255   0.057   9.160  11.222  1.6102  0.3545  2.9952
   76MOL0     H10256  -0.172   9.249  11.108 -0.5808  0.4479  0.3508
   76MOL0     H10257  -0.155   9.390  11.223 -1.6465 -0.1037  0.2594
   76MOL0     H10258  -0.339   9.054  11.391 -0.2953 -0.2004 -1.9441
   76MOL0     H10259   0.033   9.726  11.309 -1.5390 -1.6851 -1.1904
   76MOL0     H10260   0.103   9.966  11.300  1.2224  1.1234  2.6525
   77MOL0     O10261   7.512   9.028   6.483 -0.3678  0.0256  0.2381
   77MOL0     C10262   7.635   9.021   6.512 -0.8971  0.0051  0.5568
   77MOL0     O10263   7.734   9.032   6.429 -0.3799 -0.2322 -0.1533
   77MOL0     C10264   7.705   9.059   6.298 -0.1793  0.6253 -0.3365
   77MOL0     C10265   7.703   9.182   6.222 -0.5803 -0.0137 -0.7444
   77MOL0     C10266   7.669   9.179   6.083 -0.4589 -0.4428 -0.2984
   77MOL0     C10267   7.626   9.061   6.026  0.5894  0.1976 -0.3853
   77MOL0     O10268   7.572   9.042   5.896  0.1467 -0.4845  0.4074
   77MOL0     C10269   7.542   9.155   5.812 -0.0404  0.0654  0.8457
   77MOL0     C10270   7.475   9.099   5.682 -1.1377  0.5199  0.4931
   77MOL0     C10271   7.551   8.986   5.612  0.1785 -0.7206 -0.1146
   77MOL0     C10272   7.519   8.960   5.467 -0.1502  0.2934 -0.1384
   77MOL0     C10273   7.588   9.056   5.375  0.2618  0.0332  0.8007
   77MOL0     C10274   7.558   9.033   5.228  0.2613  0.6123 -0.1501
   77MOL0     C10275   7.421   9.087   5.183 -0.9463 -0.0443 -0.2796
   77MOL0     C10276   7.452   9.233   5.157 -0.0484  0.2203 -0.9437
   77MOL0     N10277   7.358   9.285   5.062 -0.6569 -0.3192 -0.6696
   77MOL0     C10278   7.243   9.364   5.089 -0.0370 -0.2867 -0.1173
   77MOL0     C10279   7.190   9.391   4.971  1.1825 -0.5425 -0.1368
   77MOL0     C10280   7.051   9.449   4.933 -0.4758 -0.2319  0.0178
   77MOL0     C10281   6.953   9.426   5.043  0.8800  0.5658 -0.5444
   77MOL0     C10282   6.811   9.451   4.975  0.5330 -0.8665  0.0125
   77MOL0     C10283   6.799   9.603   4.930  0.7155  0.3845 -0.8560
   77MOL0     O10284   6.844   9.699   5.030  0.4284 -0.0523 -1.4954
   77MOL0     C10285   6.807   9.832   5.021 -0.5471  0.1539 -0.4525
   77MOL0     C10286   6.754   9.886   4.905  0.2417  0.1755  0.6528
   77MOL0     C10287   6.722  10.019   4.885 -0.9841 -0.0270  0.6995
   77MOL0     C10288   6.682  10.067   4.750 -0.6272 -0.1818  0.2074
   77MOL0     C10289   6.734  10.110   4.998 -0.1797  0.2505  0.4655
   77MOL0     C10290   6.682  10.250   5.007 -0.5380 -0.8696 -0.6146
   77MOL0     O10291   6.701  10.304   5.123 -0.3770  0.2843  0.3641
   77MOL0     C10292   6.726  10.436   5.140  0.7073  0.9146  0.7296
   77MOL0     C10293   6.640  10.535   5.094  0.2804  0.2673 -0.3027
   77MOL0     C10294   6.663  10.671   5.118 -0.9964  0.7408  0.4214
   77MOL0     C10295   6.775  10.707   5.195  0.7835 -0.2674  0.0943
   77MOL0     O10296   6.807  10.840   5.219  0.2736 -0.2060  0.1287
   77MOL0     C10297   6.758  10.941   5.143  0.0978  0.3621 -0.5879
   77MOL0     C10298   6.800  11.077   5.205 -0.4085 -0.6611  0.1118
   77MOL0     C10299   6.808  11.196   5.104 -0.4706 -0.7583 -0.4231
   77MOL0     C10300   6.924  11.168   5.011 -0.2981  0.5114 -0.2007
   77MOL0     C10301   6.970  11.287   4.933 -0.2522  0.6173 -0.7484
   77MOL0     C10302   7.060  11.366   5.041  0.6857  0.0263 -2.0674
   77MOL0     C10303   7.054  11.520   5.022 -0.5237 -0.2054  0.2855
   77MOL0     C10304   6.948  11.590   5.103 -0.4173  0.6106 -0.2781
   77MOL0    Cl10305   6.961  11.553   5.280 -0.0407 -0.5039 -0.3683
   77MOL0     C10306   6.867  10.607   5.238  0.2757 -0.6639  0.6451
   77MOL0     C10307   6.834  10.475   5.214 -0.0500 -0.0395  0.8739
   77MOL0     O10308   6.643  10.311   4.907 -0.6920  0.0645 -1.0107
   77MOL0     C10309   6.807  10.060   5.109 -0.9850  0.1432  0.2965
   77MOL0     C10310   6.846   9.924   5.119 -0.7907  0.7919 -0.0900
   77MOL0     N10311   7.266   9.333   4.878 -0.4369  0.3503 -0.1119
   77MOL0     N10312   7.374   9.272   4.929 -0.6534  0.2409 -0.0348
   77MOL0     C10313   7.633   8.938   6.100 -0.5476 -0.7992  0.0437
   77MOL0     C10314   7.680   8.937   6.234  0.7407 -0.3790  0.0552
   77MOL0     C10315   7.662   9.002   6.657  0.2044 -0.5678  1.0193
   77MOL0     C10316   7.792   8.958   6.695  0.5596 -0.1373 -0.7215
   77MOL0     C10317   7.823   8.945   6.832 -0.0079 -0.5609  0.4715
   77MOL0     C10318   7.740   8.994   6.933 -0.3463  0.3425 -0.4406
   77MOL0     O10319   7.793   9.001   7.062  0.1649 -0.5957 -0.2510
   77MOL0     C10320   7.765   9.124   7.134  0.6052  0.0997 -0.3563
   77MOL0     C10321   7.809   9.253   7.060 -0.7561 -0.3671  0.5751
   77MOL0     C10322   7.956   9.257   7.026  0.2273 -0.2722  0.2771
   77MOL0     C10323   8.038   9.301   7.149 -0.3109 -0.1371  0.5500
   77MOL0     C10324   8.032   9.437   7.184  0.5262 -0.3575 -0.5778
   77MOL0     C10325   8.039   9.543   7.241  0.3794 -0.0202  0.9342
   77MOL0     C10326   7.612   9.033   6.891 -0.6508 -0.1969 -0.7934
   77MOL0     C10327   7.569   9.038   6.760  0.0399  0.6809  0.5587
   77MOL0     H10328   7.736   9.271   6.275 -0.3784  0.1204 -1.0923
   77MOL0     H10329   7.673   9.277   6.036 -2.2000 -0.0643  0.2586
   77MOL0     H10330   7.466   9.217   5.860 -2.0053 -0.9765 -0.7224
   77MOL0     H10331   7.632   9.209   5.781  0.0047 -0.3438  0.2345
   77MOL0     H10332   7.369   9.071   5.691 -1.9357  1.9472 -3.0113
   77MOL0     H10333   7.490   9.182   5.612  0.2675 -1.2037 -1.3618
   77MOL0     H10334   7.659   8.985   5.631  0.5802 -3.0228 -1.9766
   77MOL0     H10335   7.512   8.893   5.656 -1.1701  0.4785  1.3461
   77MOL0     H10336   7.548   8.857   5.442  2.3504  1.2801 -1.7771
   77MOL0     H10337   7.411   8.965   5.449 -0.4664 -1.6698  0.9721
   77MOL0     H10338   7.551   9.156   5.397 -1.2783 -0.0251 -1.1568
   77MOL0     H10339   7.696   9.049   5.391  0.6196  3.5564  0.5298
   77MOL0     H10340   7.636   9.091   5.178  0.7615  0.0459 -0.0370
   77MOL0     H10341   7.568   8.928   5.199 -0.5628 -0.6208  3.4776
   77MOL0     H10342   7.404   9.045   5.083  3.4539  1.6577 -2.0382
   77MOL0     H10343   7.345   9.077   5.261  0.8376 -0.3914  1.4908
   77MOL0     H10344   7.546   9.248   5.104 -0.1493  2.6965 -0.5497
   77MOL0     H10345   7.463   9.290   5.250 -1.5139 -1.6589  0.4724
   77MOL0     H10346   7.213   9.394   5.189 -0.3166 -0.5281 -0.1274
   77MOL0     H10347   7.053   9.558   4.923  0.4127 -0.2645 -0.2354
   77MOL0     H10348   7.021   9.407   4.837  1.3438 -0.2868 -0.5682
   77MOL0     H10349   6.964   9.481   5.136 -2.8997 -3.3343  2.6329
   77MOL0     H10350   6.955   9.321   5.074 -1.0006 -0.3819 -3.1908
   77MOL0     H10351   6.742   9.452   5.060  0.2040  1.1205 -0.2407
   77MOL0     H10352   6.777   9.390   4.891 -0.1466  1.2283 -1.3131
   77MOL0     H10353   6.695   9.618   4.898  1.3548  1.4551 -2.5189
   77MOL0     H10354   6.861   9.621   4.842  2.5536 -0.3803  0.2209
   77MOL0     H10355   6.742   9.815   4.823  3.3767 -1.0292  1.0769
   77MOL0     H10356   6.576  10.093   4.742 -0.7706 -0.7632  0.1655
   77MOL0     H10357   6.744  10.151   4.719  0.3342 -1.4359 -1.4536
   77MOL0     H10358   6.700   9.991   4.673 -1.5481 -0.7746  0.5587
   77MOL0     H10359   6.553  10.516   5.032 -0.4037  1.0032  0.3956
   77MOL0     H10360   6.584  10.740   5.090 -2.6218 -0.5588  1.6704
   77MOL0     H10361   6.797  10.923   5.043 -3.3289 -3.5208 -1.5139
   77MOL0     H10362   6.648  10.934   5.146  0.0342  1.4043 -0.2887
   77MOL0     H10363   6.741  11.101   5.294 -0.8858  3.6827 -1.1656
   77MOL0     H10364   6.899  11.071   5.251 -1.1547  2.0443  2.2825
   77MOL0     H10365   6.809  11.289   5.162 -3.6085  0.4930 -2.1295
   77MOL0     H10366   6.714  11.209   5.050 -1.5088 -3.2005  0.6048
   77MOL0     H10367   7.008  11.118   5.059  0.2942 -0.1824 -1.8726
   77MOL0     H10368   6.878  11.097   4.941  0.7069 -1.1449  0.7405
   77MOL0     H10369   6.886  11.349   4.899  1.6640  2.2993 -2.6713
   77MOL0     H10370   7.031  11.256   4.848 -0.5002  1.5710 -1.2817
   77MOL0     H10371   7.028  11.339   5.141 -0.7394  2.1495 -1.8846
   77MOL0     H10372   7.166  11.343   5.026  0.4299 -1.3601 -1.8805
   77MOL0     H10373   7.027  11.546   4.920  0.3593  1.3837  0.4227
   77MOL0     H10374   7.150  11.565   5.047 -0.6055 -0.6933  1.5949
   77MOL0     H10375   6.856  11.553   5.057  0.2637  0.9514 -1.9685
   77MOL0     H10376   6.939  11.698   5.086  2.2961  0.8165 -0.8177
   77MOL0     H10377   6.943  10.625   5.314 -1.4324 -2.5350  2.9414
   77MOL0     H10378   6.899  10.395   5.250  1.5524 -0.1554 -1.9143
   77MOL0     H10379   6.830  10.119   5.198  1.6971 -1.8798  1.1026
   77MOL0     H10380   6.894   9.893   5.212  0.7792  1.3303 -0.6833
   77MOL0     H10381   7.612   8.847   6.045  3.6607 -0.5451 -2.4372
   77MOL0     H10382   7.695   8.843   6.285  1.5758 -0.9655 -1.2015
   77MOL0     H10383   7.867   8.933   6.621 -0.3132 -2.8879 -0.7766
   77MOL0     H10384   7.923   8.906   6.849 -0.4401 -2.3930 -0.8942
   77MOL0     H10385   7.659   9.131   7.157  0.2959 -1.5140 -1.1564
   77MOL0     H10386   7.821   9.127   7.228 -0.5877  0.3902  0.3543
   77MOL0     H10387   7.786   9.349   7.109  2.4808  0.3561  0.8882
   77MOL0     H10388   7.755   9.247   6.966 -0.4457 -0.2175  0.3873
   77MOL0     H10389   7.980   9.332   6.949 -2.4240  1.8854  1.3863
   77MOL0     H10390   7.988   9.159   6.989  0.0572  0.5221 -2.2054
   77MOL0     H10391   8.146   9.285   7.141 -0.3160  0.2977 -0.5220
   77MOL0     H10392   7.999   9.235   7.228 -1.3620  2.6264  2.5280
   77MOL0     H10393   8.061   9.639   7.285 -0.6092 -0.3671  2.2568
   77MOL0     H10394   7.541   9.060   6.969 -1.9815 -2.2614 -1.2018
   77MOL0     H10395   7.465   9.044   6.731 -0.1385 -0.4046  0.9223
   78MOL0     O10396   3.764   4.923   0.409 -0.4710 -0.5038  1.4000
   78MOL0     C10397   3.650   4.962   0.421  0.3742 -0.1553  0.4271
   78MOL0     O10398   3.599   5.066   0.354  1.0116 -0.2303  0.5667
   78MOL0     C10399   3.676   5.177   0.356 -0.1748  0.1444 -0.1231
   78MOL0     C10400   3.713   5.239   0.474  0.1260 -1.1595 -0.6013
   78MOL0     C10401   3.787   5.359   0.458  0.3567  0.5830  0.4756
   78MOL0     C10402   3.835   5.404   0.334  0.5165 -0.5828 -0.9945
   78MOL0     O10403   3.913   5.514   0.301 -0.1323 -0.3219 -1.0314
   78MOL0     C10404   3.966   5.590   0.414  0.1218  0.9996  0.1623
   78MOL0     C10405   4.025   5.723   0.363  0.4813 -0.1033  0.7734
   78MOL0     C10406   4.151   5.702   0.277 -0.5434  0.5384 -0.3492
   78MOL0     C10407   4.237   5.826   0.303 -0.4512  0.3151 -0.8064
   78MOL0     C10408   4.345   5.807   0.420 -0.7836  0.3128  0.0760
   78MOL0     C10409   4.431   5.930   0.455  0.0003 -0.2633  0.8254
   78MOL0     C10410   4.545   5.968   0.360 -0.5974  0.6837 -0.1086
   78MOL0     C10411   4.698   5.925   0.401  1.0374  0.0156  0.1744
   78MOL0     N10412   4.730   5.788   0.367  0.1530  0.3070  0.0481
   78MOL0     C10413   4.776   5.745   0.251 -0.2709 -0.3441  0.1048
   78MOL0     C10414   4.773   5.613   0.251  0.1511  0.0869  0.1692
   78MOL0     C10415   4.802   5.521   0.133 -1.1918 -0.5728 -0.3775
   78MOL0     C10416   4.683   5.433   0.095  0.8362  1.1260  0.0914
   78MOL0     C10417   4.674   5.399  -0.055  0.0028  0.8115  1.6432
   78MOL0     C10418   4.545   5.350  -0.103  0.7442  0.1922  0.9906
   78MOL0     O10419   4.557   5.335  -0.246 -0.4975  0.5783 -0.7971
   78MOL0     C10420   4.456   5.258  -0.306  1.2963  0.6421 -0.5323
   78MOL0     C10421   4.470   5.224  -0.439  0.2206 -0.5967  0.9003
   78MOL0     C10422   4.365   5.157  -0.507  0.1467 -0.0275  0.6136
   78MOL0     C10423   4.385   5.125  -0.655  0.3763  0.1194 -0.6770
   78MOL0     C10424   4.237   5.142  -0.445  0.0005 -0.3447  0.4444
   78MOL0     C10425   4.128   5.061  -0.506  0.4392  0.4019 -0.0295
   78MOL0     O10426   4.019   5.049  -0.422 -0.5642 -0.9736 -0.2922
   78MOL0     C10427   3.950   4.939  -0.439 -0.2475  0.1459  0.6691
   78MOL0     C10428   3.808   4.939  -0.435  0.0675  0.3066 -0.3275
   78MOL0     C10429   3.732   4.819  -0.442 -0.1514 -0.2247  0.0028
   78MOL0     C10430   3.789   4.691  -0.447  0.0904 -0.5687  0.0946
   78MOL0     O10431   3.703   4.579  -0.445  0.2056 -0.1816  0.0363
   78MOL0     C10432   3.765   4.466  -0.376 -0.9094 -0.2075 -0.6209
   78MOL0     C10433   3.661   4.352  -0.348  0.2202  0.8070  0.5705
   78MOL0     C10434   3.717   4.226  -0.283  0.4757 -1.1102  0.5834
   78MOL0     C10435   3.633   4.190  -0.156 -0.4986 -0.8168 -0.8430
   78MOL0     C10436   3.697   4.076  -0.083 -0.2276 -0.3712 -0.3699
   78MOL0     C10437   3.622   4.020   0.041 -0.2015 -0.2344  0.1002
   78MOL0     C10438   3.703   3.915   0.112 -0.9053  0.4423 -0.0440
   78MOL0     C10439   3.608   3.813   0.183 -0.3052  0.3853 -0.6232
   78MOL0    Cl10440   3.710   3.709   0.294  0.0340  0.6485 -0.1683
   78MOL0     C10441   3.928   4.691  -0.444 -0.1565 -0.4540  0.0850
   78MOL0     C10442   4.008   4.807  -0.438  1.1876  0.3094  0.3469
   78MOL0     O10443   4.146   5.000  -0.605 -0.4254  0.9008 -0.0746
   78MOL0     C10444   4.220   5.197  -0.326  1.2033 -0.4987 -0.2471
   78MOL0     C10445   4.325   5.246  -0.251  0.3031  0.7759  0.3139
   78MOL0     N10446   4.733   5.567   0.378 -0.1659 -0.6162  0.9021
   78MOL0     N10447   4.716   5.672   0.446  1.3294  0.1400 -0.2496
   78MOL0     C10448   3.802   5.336   0.230  0.3523  0.5646 -0.7010
   78MOL0     C10449   3.720   5.226   0.237 -0.7962  0.8524  0.2346
   78MOL0     C10450   3.563   4.897   0.522 -0.0459  0.1603  0.4264
   78MOL0     C10451   3.437   4.945   0.551  0.1122 -0.2394 -0.5033
   78MOL0     C10452   3.354   4.880   0.647  0.5261  0.0623  0.4973
   78MOL0     C10453   3.388   4.757   0.699  0.0746 -0.2336 -0.4075
   78MOL0     O10454   3.301   4.701   0.791 -0.6533  0.3247  0.7766
   78MOL0     C10455   3.342   4.614   0.892  0.2358 -0.6664  0.2230
   78MOL0     C10456   3.237   4.607   1.000 -0.1511  1.1215 -0.1211
   78MOL0     C10457   3.226   4.725   1.103 -0.6330  0.1513 -0.0779
   78MOL0     C10458   3.172   4.855   1.032  0.5422 -0.2385 -0.3763
   78MOL0     C10459   3.191   4.970   1.119 -0.4367 -0.2855 -0.5059
   78MOL0     C10460   3.205   5.078   1.171 -0.5838 -0.2797 -0.3227
   78MOL0     C10461   3.525   4.717   0.681  0.2312 -0.2494 -1.2980
   78MOL0     C10462   3.610   4.781   0.592  0.2027 -0.0571  0.7341
   78MOL0     H10463   3.666   5.208   0.567  2.9753 -2.0116  0.6825
   78MOL0     H10464   3.806   5.415   0.549  0.2843  2.7045 -0.7257
   78MOL0     H10465   3.879   5.622   0.471  0.6232  1.9662  0.4130
   78MOL0     H10466   4.041   5.535   0.472  0.3696 -0.7238 -1.6808
   78MOL0     H10467   3.953   5.767   0.294  0.7859 -1.4885 -0.4949
   78MOL0     H10468   4.043   5.793   0.445 -0.9237  0.6649  0.4499
   78MOL0     H10469   4.204   5.609   0.304  1.5615  1.4573 -1.0750
   78MOL0     H10470   4.127   5.692   0.171  2.2053 -1.6002 -0.9137
   78MOL0     H10471   4.300   5.842   0.215  2.3381  3.9971  1.5665
   78MOL0     H10472   4.173   5.912   0.327  1.3117  0.4638  4.7224
   78MOL0     H10473   4.286   5.793   0.511 -2.3213 -1.2838 -1.1140
   78MOL0     H10474   4.404   5.716   0.409 -1.3329 -0.5248  3.2927
   78MOL0     H10475   4.363   6.015   0.461  0.6912  0.2144  2.4192
   78MOL0     H10476   4.471   5.920   0.557 -0.8513  1.3187  1.3504
   78MOL0     H10477   4.509   5.928   0.265 -2.6093  1.6315  0.1948
   78MOL0     H10478   4.549   6.077   0.355  0.4582  0.6550 -0.1994
   78MOL0     H10479   4.702   5.950   0.508 -4.0271 -0.8227  0.7915
   78MOL0     H10480   4.764   5.983   0.335  0.4287 -1.2494 -1.6047
   78MOL0     H10481   4.803   5.813   0.171  3.9108 -0.2164  1.4260
   78MOL0     H10482   4.818   5.592   0.052  1.0606 -2.0199 -1.2865
   78MOL0     H10483   4.884   5.451   0.152  0.2910  1.1983  0.0100
   78MOL0     H10484   4.589   5.472   0.135  0.5184  0.2548  0.2130
   78MOL0     H10485   4.683   5.336   0.146  0.6561  0.2331 -1.5388
   78MOL0     H10486   4.746   5.318  -0.071  0.7184  2.1122 -3.8887
   78MOL0     H10487   4.704   5.480  -0.122  0.0226  0.2992  1.0156
   78MOL0     H10488   4.461   5.419  -0.098  1.0220  0.5719  0.4402
   78MOL0     H10489   4.510   5.253  -0.065 -3.0476  1.6508  1.6450
   78MOL0     H10490   4.553   5.258  -0.499 -2.2539  4.0930 -0.3813
   78MOL0     H10491   4.423   5.022  -0.662 -1.8843 -0.8378  0.4204
   78MOL0     H10492   4.289   5.140  -0.704  0.6882  0.1054 -1.3101
   78MOL0     H10493   4.460   5.186  -0.708  0.3276 -0.8558 -1.9275
   78MOL0     H10494   3.752   5.032  -0.420 -0.5002  0.2775 -2.0054
   78MOL0     H10495   3.624   4.829  -0.451 -0.2244 -1.8131 -1.8244
   78MOL0     H10496   3.851   4.428  -0.432 -1.5493 -1.8324 -0.5740
   78MOL0     H10497   3.800   4.512  -0.284  1.6939 -0.8816 -1.2072
   78MOL0     H10498   3.574   4.390  -0.293 -0.1435  0.1399  0.4694
   78MOL0     H10499   3.627   4.310  -0.443 -1.4793 -1.0801  1.9090
   78MOL0     H10500   3.821   4.247  -0.259  0.7591 -3.2201  1.3561
   78MOL0     H10501   3.710   4.143  -0.355 -4.9812 -0.0727 -0.5617
   78MOL0     H10502   3.640   4.277  -0.090  0.8112  1.0574 -3.2896
   78MOL0     H10503   3.531   4.173  -0.192 -0.2139 -0.1146 -2.0271
   78MOL0     H10504   3.800   4.099  -0.054 -0.8583  2.0322  0.1944
   78MOL0     H10505   3.704   3.995  -0.156 -1.9406 -0.9937  0.0911
   78MOL0     H10506   3.603   4.106   0.106  1.9718 -0.4138  1.0699
   78MOL0     H10507   3.526   3.979   0.009 -2.2490  1.7707  3.1446
   78MOL0     H10508   3.771   3.953   0.188 -0.3614 -0.5928  0.0139
   78MOL0     H10509   3.760   3.851   0.043  0.4250  0.4747  0.9864
   78MOL0     H10510   3.535   3.760   0.121 -2.8512  1.5937  1.1864
   78MOL0     H10511   3.545   3.866   0.254  2.0867 -0.5228  2.4101
   78MOL0     H10512   3.990   4.601  -0.440  1.7565  0.5971 -2.7608
   78MOL0     H10513   4.111   4.799  -0.405  1.5016 -0.6467 -0.7979
   78MOL0     H10514   4.126   5.187  -0.272  0.8977  1.8163 -0.2237
   78MOL0     H10515   4.308   5.268  -0.146 -2.2590 -1.0871  0.3884
   78MOL0     H10516   3.838   5.358   0.129 -0.4060  1.0168 -0.8762
   78MOL0     H10517   3.701   5.161   0.152 -1.4852  0.6388  0.5445
   78MOL0     H10518   3.403   5.028   0.490  2.0842 -0.9731 -2.7545
   78MOL0     H10519   3.257   4.926   0.661 -0.7249 -2.7454  1.9598
   78MOL0     H10520   3.358   4.521   0.838 -3.7616 -1.0984 -0.4974
   78MOL0     H10521   3.438   4.647   0.932 -0.6361  2.3591  0.0773
   78MOL0     H10522   3.258   4.513   1.052 -0.4039  1.0083 -0.2245
   78MOL0     H10523   3.142   4.600   0.947  0.6086 -0.7962 -1.3312
   78MOL0     H10524   3.324   4.758   1.140  0.8569  0.2486 -3.6715
   78MOL0     H10525   3.158   4.702   1.185 -3.1410  1.7341 -1.5863
   78MOL0     H10526   3.064   4.835   1.025  0.5905  0.1218 -3.6369
   78MOL0     H10527   3.207   4.872   0.929 -2.9245 -1.8824 -2.0117
   78MOL0     H10528   3.217   5.176   1.214 -2.6944 -0.5076  0.9078
   78MOL0     H10529   3.556   4.631   0.740  2.1172  1.2912  0.1002
   78MOL0     H10530   3.709   4.742   0.569  0.0104  0.5577 -1.2504
   79MOL0     O10531   3.472   4.237   0.960  0.9163  0.3353  0.0769
   79MOL0     C10532   3.462   4.133   0.889  0.9983 -0.4119 -0.1343
   79MOL0     O10533   3.346   4.069   0.863  0.7014  0.0963  0.1843
   79MOL0     C10534   3.227   4.108   0.921  0.1045 -0.1207  0.1636
   79MOL0     C10535   3.184   4.241   0.919 -0.3180  0.0559  0.6200
   79MOL0     C10536   3.051   4.270   0.964 -0.1164  0.0296 -0.5541
   79MOL0     C10537   2.960   4.172   0.988 -0.4476 -0.0445  0.2018
   79MOL0     O10538   2.834   4.208   1.031  0.4578 -0.3430  0.0307
   79MOL0     C10539   2.768   4.115   1.121  0.4401  0.1218  0.5147
   79MOL0     C10540   2.654   4.186   1.189  0.0375 -0.9728  0.2859
   79MOL0     C10541   2.587   4.101   1.301 -0.6569  0.0167  0.3302
   79MOL0     C10542   2.455   4.169   1.348  0.3122  0.1666 -0.4564
   79MOL0     C10543   2.408   4.096   1.481  0.4673  0.8542 -0.0596
   79MOL0     C10544   2.287   4.169   1.535  0.1446  0.2980 -0.5656
   79MOL0     C10545   2.229   4.093   1.653  0.3101 -0.2227 -0.6752
   79MOL0     C10546   2.191   3.951   1.637  0.7562  0.8418 -0.4346
   79MOL0     N10547   2.123   3.899   1.757 -1.4738 -0.3627 -0.0455
   79MOL0     C10548   1.991   3.897   1.786  0.1300 -0.2900 -0.4829
   79MOL0     C10549   1.982   3.821   1.906  0.0998  0.0710 -0.6060
   79MOL0     C10550   1.852   3.794   1.968  0.3110  0.0039  0.2860
   79MOL0     C10551   1.782   3.669   1.937  0.2274  0.3864 -0.0300
   79MOL0     C10552   1.670   3.660   2.043 -0.7633  0.2280  0.0691
   79MOL0     C10553   1.575   3.554   2.016 -0.3296 -0.0862 -0.6048
   79MOL0     O10554   1.458   3.558   2.103 -0.8301  1.0749  0.2267
   79MOL0     C10555   1.351   3.628   2.049  0.9444 -0.2527 -0.1928
   79MOL0     C10556   1.360   3.715   1.941 -0.2094  0.0051 -0.0632
   79MOL0     C10557   1.241   3.771   1.892 -0.5186  0.1286 -0.0652
   79MOL0     C10558   1.261   3.839   1.754 -0.5486  0.4204 -0.2697
   79MOL0     C10559   1.119   3.750   1.956 -0.2146 -0.0800  0.6263
   79MOL0     C10560   0.994   3.814   1.916 -0.6383 -0.3923 -0.0333
   79MOL0     O10561   0.986   3.879   1.796 -0.0382 -0.1019  0.5521
   79MOL0     C10562   0.860   3.903   1.748  0.6684  0.3090 -0.2497
   79MOL0     C10563   0.805   3.813   1.653  0.4066  0.4907 -1.3156
   79MOL0     C10564   0.682   3.849   1.608  0.9018  0.4514 -0.5538
   79MOL0     C10565   0.612   3.969   1.649 -0.1643 -0.2834 -0.7851
   79MOL0     O10566   0.483   3.998   1.595  0.3417  0.4697  1.0272
   79MOL0     C10567   0.372   4.030   1.684  0.8904 -0.2237  0.0108
   79MOL0     C10568   0.276   3.912   1.700 -0.4796 -0.7644  0.1462
   79MOL0     C10569   0.180   3.926   1.813  0.5732  0.5900  0.0586
   79MOL0     C10570   0.083   3.805   1.802  1.1450  0.2809 -0.3194
   79MOL0     C10571  -0.064   3.859   1.804  0.1100  0.1032  0.0792
   79MOL0     C10572  -0.168   3.747   1.819  0.1870  0.4340 -0.4019
   79MOL0     C10573  -0.306   3.789   1.771  0.7344 -0.7722 -0.9683
   79MOL0     C10574  -0.422   3.689   1.796  0.4717  0.6804 -0.1543
   79MOL0    Cl10575  -0.431   3.641   1.963 -0.2474  0.7320 -0.2364
   79MOL0     C10576   0.673   4.061   1.730  0.0356  0.1735 -0.2253
   79MOL0     C10577   0.803   4.028   1.779 -0.6825 -0.2779 -0.5330
   79MOL0     O10578   0.899   3.796   1.984 -0.2732  0.9844 -1.4397
   79MOL0     C10579   1.119   3.678   2.076  0.3814 -0.5553  0.6178
   79MOL0     C10580   1.232   3.617   2.124 -0.8402 -1.1855 -0.6817
   79MOL0     N10581   2.114   3.787   1.946  0.7625  0.2599 -0.1013
   79MOL0     N10582   2.193   3.835   1.854  0.2760 -0.1005 -0.2573
   79MOL0     C10583   3.005   4.041   0.985  0.2010  0.3455 -0.2904
   79MOL0     C10584   3.137   4.012   0.962  0.5287  0.3999  0.5235
   79MOL0     C10585   3.583   4.080   0.838  0.3413  0.0773  1.1126
   79MOL0     C10586   3.604   3.938   0.837  0.1503  0.1615  0.1352
   79MOL0     C10587   3.734   3.892   0.791  0.4948  0.6478 -0.3229
   79MOL0     C10588   3.816   3.969   0.715 -1.0133 -0.3583  0.0791
   79MOL0     O10589   3.924   3.918   0.636  0.7424  0.4800 -0.2666
   79MOL0     C10590   4.016   4.008   0.579  0.2941  0.0552  1.1926
   79MOL0     C10591   4.120   3.931   0.498  0.4224 -0.7428 -0.0869
   79MOL0     C10592   4.054   3.859   0.380 -0.2478 -0.2225  1.3973
   79MOL0     C10593   4.166   3.796   0.293  0.4249  0.0645 -0.1603
   79MOL0     C10594   4.228   3.886   0.187 -0.3261  0.0133 -0.4171
   79MOL0     C10595   4.275   3.956   0.102  0.7878 -0.5754  0.5819
   79MOL0     C10596   3.785   4.106   0.719 -0.2178 -0.3257 -0.0126
   79MOL0     C10597   3.682   4.168   0.786  0.3691  1.4786 -0.6154
   79MOL0     H10598   3.236   4.334   0.898 -0.5594  0.7048  2.6765
   79MOL0     H10599   3.025   4.373   0.985 -2.8351 -0.4101 -1.3438
   79MOL0     H10600   2.732   4.024   1.073  0.6797  1.6873 -2.8921
   79MOL0     H10601   2.834   4.083   1.202 -1.7511 -3.3912  1.0945
   79MOL0     H10602   2.690   4.281   1.230 -1.9627  0.0718 -0.2577
   79MOL0     H10603   2.580   4.217   1.115  1.3499 -1.4630 -1.2907
   79MOL0     H10604   2.571   3.995   1.278 -1.8744  0.1915  0.3009
   79MOL0     H10605   2.652   4.101   1.389  0.3013 -2.7479 -0.2861
   79MOL0     H10606   2.469   4.275   1.368 -0.4489  0.0266  0.9170
   79MOL0     H10607   2.385   4.163   1.264 -1.3456  1.7075  0.7484
   79MOL0     H10608   2.377   3.994   1.461  0.5407  0.4678  1.6089
   79MOL0     H10609   2.493   4.104   1.550 -0.7033  0.6133  1.4688
   79MOL0     H10610   2.316   4.269   1.568  0.4947 -0.3979  1.4282
   79MOL0     H10611   2.216   4.180   1.453  1.0612  0.7328 -1.3127
   79MOL0     H10612   2.297   4.104   1.739 -0.5915 -0.6087  0.1001
   79MOL0     H10613   2.134   4.143   1.673 -0.1514 -1.5288  0.5437
   79MOL0     H10614   2.280   3.890   1.616  0.9892  0.5718  1.1928
   79MOL0     H10615   2.116   3.947   1.558 -0.8481 -0.1911  1.0806
   79MOL0     H10616   1.912   3.941   1.726 -0.5332 -0.4055  0.2839
   79MOL0     H10617   1.883   3.792   2.072 -0.4480  2.4269  0.6132
   79MOL0     H10618   1.786   3.880   1.960  0.2561  0.1586  2.0989
   79MOL0     H10619   1.844   3.579   1.946  1.8227  0.9934 -3.4044
   79MOL0     H10620   1.743   3.660   1.835  0.1538  1.6236 -0.1282
   79MOL0     H10621   1.617   3.755   2.037 -0.3234  0.4653 -0.1509
   79MOL0     H10622   1.708   3.663   2.145  0.0611  0.9529 -0.2431
   79MOL0     H10623   1.625   3.457   2.025  1.1595  0.0781 -4.8048
   79MOL0     H10624   1.555   3.546   1.909  3.1848  3.7826 -1.8072
   79MOL0     H10625   1.452   3.738   1.887 -0.0487  0.3876  0.3678
   79MOL0     H10626   1.196   3.783   1.686 -2.2688  1.9438  0.0493
   79MOL0     H10627   1.217   3.939   1.757 -2.2132 -0.2861  0.4203
   79MOL0     H10628   1.366   3.843   1.725 -0.5207 -3.7146 -1.4147
   79MOL0     H10629   0.865   3.731   1.614  1.4340 -0.9663  2.8386
   79MOL0     H10630   0.635   3.792   1.528  3.7561 -0.5345 -1.6640
   79MOL0     H10631   0.418   4.061   1.778 -0.3183  4.4041 -0.6957
   79MOL0     H10632   0.313   4.109   1.638  0.2927 -0.5598  0.1762
   79MOL0     H10633   0.228   3.903   1.602 -0.0842 -2.6889  0.0949
   79MOL0     H10634   0.324   3.817   1.725  0.0895  0.1680  2.9618
   79MOL0     H10635   0.126   4.021   1.821 -0.8615 -0.3876  4.3242
   79MOL0     H10636   0.239   3.920   1.905  3.2914 -0.6599 -1.6246
   79MOL0     H10637   0.087   3.746   1.710 -1.0387  0.8436 -0.8466
   79MOL0     H10638   0.095   3.732   1.883  1.2316 -0.6601 -1.1644
   79MOL0     H10639  -0.093   3.902   1.707 -0.1912 -0.7776 -0.2344
   79MOL0     H10640  -0.086   3.938   1.876 -2.8349 -0.0289 -0.5331
   79MOL0     H10641  -0.135   3.670   1.749  1.6467 -0.9064  1.6261
   79MOL0     H10642  -0.158   3.698   1.917  1.9522  0.4011 -0.5576
   79MOL0     H10643  -0.319   3.815   1.666 -0.7639  0.2949 -0.5543
   79MOL0     H10644  -0.333   3.876   1.831  1.0761 -0.4146 -1.3257
   79MOL0     H10645  -0.421   3.606   1.724 -3.3913  0.2830  0.0205
   79MOL0     H10646  -0.520   3.735   1.781  0.1335 -0.3754 -1.3085
   79MOL0     H10647   0.615   4.150   1.755  1.4102  1.4113 -1.3001
   79MOL0     H10648   0.846   4.110   1.835  0.0122  1.2926 -3.1559
   79MOL0     H10649   1.031   3.671   2.139  0.8087 -2.3535  1.0594
   79MOL0     H10650   1.224   3.565   2.219 -1.0616 -0.1968 -0.1442
   79MOL0     H10651   2.944   3.953   1.002  2.1050 -0.4034  3.4664
   79MOL0     H10652   3.165   3.908   0.947 -0.1825 -0.0247  1.9492
   79MOL0     H10653   3.530   3.869   0.877 -0.2706 -0.8089 -2.1626
   79MOL0     H10654   3.744   3.786   0.813  2.2358  0.6822 -0.8525
   79MOL0     H10655   3.979   4.096   0.525  2.5666  2.2359  2.9449
   79MOL0     H10656   4.071   4.064   0.656 -0.8573  0.8275  1.4734
   79MOL0     H10657   4.161   3.853   0.562  2.0588 -0.9350 -1.2996
   79MOL0     H10658   4.196   3.999   0.459 -1.2608 -0.1692 -2.5739
   79MOL0     H10659   3.996   3.924   0.314  1.9067  1.5015  1.0865
   79MOL0     H10660   3.986   3.781   0.417  0.4374 -0.2346  2.6993
   79MOL0     H10661   4.122   3.710   0.240  1.6731 -0.4202 -0.4486
   79MOL0     H10662   4.248   3.750   0.348  3.1758  1.0865 -3.1074
   79MOL0     H10663   4.304   4.019   0.020 -1.8551  0.5259  0.3997
   79MOL0     H10664   3.851   4.178   0.673  1.2922 -1.2472  0.6554
   79MOL0     H10665   3.671   4.272   0.813 -1.7301  1.4572 -1.2570
   80MOL0     O10666   0.169   4.540   8.999  0.4928 -0.1688  0.1218
   80MOL0     C10667   0.124   4.541   9.112  0.3303  0.3185 -0.8170
   80MOL0     O10668   0.189   4.518   9.235 -0.2500 -0.8747  0.5286
   80MOL0     C10669   0.320   4.473   9.233  0.0707 -0.2176 -0.1972
   80MOL0     C10670   0.363   4.365   9.159 -0.0494  0.4529 -0.4147
   80MOL0     C10671   0.489   4.310   9.162  0.1868 -1.0405 -1.2087
   80MOL0     C10672   0.577   4.368   9.250 -0.5235 -0.1415  0.1570
   80MOL0     O10673   0.719   4.348   9.249 -0.3055  0.1946 -0.1486
   80MOL0     C10674   0.784   4.347   9.124  0.5774 -0.2485 -1.1790
   80MOL0     C10675   0.931   4.290   9.132  0.7521 -0.2388 -0.0912
   80MOL0     C10676   0.995   4.271   8.993 -0.5144  0.5250 -0.4740
   80MOL0     C10677   1.146   4.289   8.987  0.4357 -0.0454 -0.5354
   80MOL0     C10678   1.206   4.260   8.854  0.4556  0.0088 -1.1505
   80MOL0     C10679   1.228   4.116   8.825 -0.4161 -0.1281  0.2267
   80MOL0     C10680   1.318   4.054   8.929  0.3800  0.2252 -0.0746
   80MOL0     C10681   1.351   3.915   8.885  0.1023  0.0137 -0.1477
   80MOL0     N10682   1.415   3.832   8.991  0.2659 -0.5037  0.2607
   80MOL0     C10683   1.353   3.726   9.046  0.0119 -0.5725  0.3386
   80MOL0     C10684   1.442   3.664   9.114 -0.1739  1.6600 -0.6883
   80MOL0     C10685   1.390   3.551   9.213 -0.1086  0.1478  0.3292
   80MOL0     C10686   1.374   3.601   9.355 -0.1857 -0.2707  0.4001
   80MOL0     C10687   1.312   3.501   9.446 -1.0603  0.5909 -0.8008
   80MOL0     C10688   1.417   3.398   9.511  0.6834 -0.0383 -0.8314
   80MOL0     O10689   1.347   3.317   9.603 -0.5670 -0.3264 -0.5244
   80MOL0     C10690   1.411   3.245   9.705  0.6051 -0.6866 -0.4568
   80MOL0     C10691   1.443   3.110   9.690  0.1082 -0.3982  0.5942
   80MOL0     C10692   1.510   3.034   9.785  0.2288  0.3203  0.2950
   80MOL0     C10693   1.517   2.888   9.747  0.1659  0.4742 -0.1558
   80MOL0     C10694   1.557   3.092   9.899 -0.5889 -0.0853  0.2779
   80MOL0     C10695   1.643   3.029  10.004  0.5300  0.5561 -0.4502
   80MOL0     O10696   1.643   3.086  10.131 -0.1136 -0.1097  0.2670
   80MOL0     C10697   1.699   3.025  10.240  1.2013  0.1276  0.7489
   80MOL0     C10698   1.735   2.890  10.242 -0.1465 -0.8659 -0.3988
   80MOL0     C10699   1.787   2.834  10.358  0.3353 -0.2813  0.0558
   80MOL0     C10700   1.812   2.906  10.474  0.3801  0.0741  0.4462
   80MOL0     O10701   1.880   2.851  10.591  0.3762  0.1603  0.0499
   80MOL0     C10702   1.932   2.941  10.687 -0.6709 -0.3229  0.0341
   80MOL0     C10703   1.821   2.974  10.786  0.3849  1.8172 -0.5516
   80MOL0     C10704   1.825   2.872  10.902  0.0705 -1.0709  0.1850
   80MOL0     C10705   1.749   2.919  11.025 -0.2372 -0.0905 -0.1488
   80MOL0     C10706   1.767   2.838  11.148  0.6219  1.0860  0.5383
   80MOL0     C10707   1.686   2.705  11.128 -0.6937 -0.2987 -0.0050
   80MOL0     C10708   1.717   2.616  11.250  0.2483  0.4854 -1.6949
   80MOL0     C10709   1.633   2.488  11.261  0.6998  0.1215 -0.3324
   80MOL0    Cl10710   1.636   2.399  11.113  0.0115 -0.6414 -0.1680
   80MOL0     C10711   1.774   3.042  10.463 -0.0806  0.3957  0.3561
   80MOL0     C10712   1.715   3.098  10.356  0.7034 -0.6952 -0.0029
   80MOL0     O10713   1.712   2.935   9.965 -0.2195 -0.2119 -1.2288
   80MOL0     C10714   1.533   3.231   9.919  1.0616 -0.0030  0.0859
   80MOL0     C10715   1.458   3.306   9.826 -0.3040  0.7706 -0.3858
   80MOL0     N10716   1.568   3.731   9.104  0.4260 -0.1320  0.2435
   80MOL0     N10717   1.548   3.824   9.023 -0.1634 -0.2309  0.2955
   80MOL0     C10718   0.539   4.474   9.324 -0.9699 -0.6197  0.7601
   80MOL0     C10719   0.408   4.523   9.340  0.2060  0.2519 -0.2831
   80MOL0     C10720  -0.021   4.532   9.127 -0.1194 -0.1275  0.5562
   80MOL0     C10721  -0.101   4.607   9.035  0.0093  0.5302  0.1205
   80MOL0     C10722  -0.239   4.591   9.041  0.2516  0.1703  0.1034
   80MOL0     C10723  -0.303   4.502   9.122 -0.5353  0.4438  0.4248
   80MOL0     O10724  -0.440   4.476   9.134 -0.0954  0.4046 -0.0554
   80MOL0     C10725  -0.533   4.580   9.093  0.0795 -0.9375  0.1009
   80MOL0     C10726  -0.662   4.577   9.176  0.0283  0.2409 -0.3749
   80MOL0     C10727  -0.762   4.676   9.121 -0.2449  0.9614  0.0324
   80MOL0     C10728  -0.863   4.722   9.219 -0.6095 -0.6542  0.8425
   80MOL0     C10729  -0.953   4.827   9.163  0.3860  0.1002  0.1329
   80MOL0     C10730  -1.022   4.909   9.110 -0.3184 -0.2612 -0.1392
   80MOL0     C10731  -0.226   4.428   9.210 -0.7328  0.6538  0.3055
   80MOL0     C10732  -0.088   4.441   9.213  0.3466 -0.6441 -0.0370
   80MOL0     H10733   0.291   4.319   9.092 -1.0316 -0.6289  1.3029
   80MOL0     H10734   0.526   4.239   9.088  0.5175  2.2898 -4.5165
   80MOL0     H10735   0.732   4.278   9.056 -2.8758  0.3587  0.6149
   80MOL0     H10736   0.774   4.445   9.077 -5.6784  0.0838  0.0291
   80MOL0     H10737   0.994   4.356   9.192  1.1619 -1.2381  0.6177
   80MOL0     H10738   0.937   4.195   9.187  0.5914  1.1785  2.5097
   80MOL0     H10739   0.973   4.166   8.971 -1.1409  0.2570  1.2886
   80MOL0     H10740   0.947   4.343   8.925  2.4360  3.9896  0.7700
   80MOL0     H10741   1.145   4.395   9.011 -2.8764  0.0223 -0.6491
   80MOL0     H10742   1.185   4.231   9.072 -2.0483 -1.8246 -0.5158
   80MOL0     H10743   1.139   4.299   8.776 -3.0261 -2.3778  0.3939
   80MOL0     H10744   1.308   4.299   8.862  0.7037 -0.4184 -2.1468
   80MOL0     H10745   1.132   4.064   8.823  0.1803 -1.6237  3.5942
   80MOL0     H10746   1.282   4.112   8.730  1.7097 -0.8419  1.3972
   80MOL0     H10747   1.407   4.116   8.946  2.4629 -2.9591  1.8315
   80MOL0     H10748   1.259   4.037   9.019 -0.0761 -2.3433 -0.7530
   80MOL0     H10749   1.420   3.936   8.802  1.2724  0.6308  0.9433
   80MOL0     H10750   1.259   3.867   8.851  0.7362  0.6513 -3.0671
   80MOL0     H10751   1.247   3.700   9.048  0.1247 -1.0718 -0.1003
   80MOL0     H10752   1.297   3.516   9.168 -0.4398  1.0052  0.3179
   80MOL0     H10753   1.472   3.479   9.221 -0.6710 -0.3890  1.4612
   80MOL0     H10754   1.314   3.692   9.350  2.5992  1.8195  1.8639
   80MOL0     H10755   1.477   3.617   9.387  0.4889  2.6493 -2.6307
   80MOL0     H10756   1.236   3.444   9.392 -3.9702  1.7520  1.7110
   80MOL0     H10757   1.260   3.545   9.533  1.5758 -1.1113  1.8197
   80MOL0     H10758   1.488   3.460   9.566  1.0478 -0.6118 -0.6524
   80MOL0     H10759   1.476   3.339   9.440  2.8986  0.0891  0.8013
   80MOL0     H10760   1.418   3.062   9.595 -1.4948 -2.3519  1.8931
   80MOL0     H10761   1.602   2.879   9.678  0.6216  0.9821  0.3239
   80MOL0     H10762   1.543   2.817   9.826  1.3897  2.3996  1.2813
   80MOL0     H10763   1.425   2.857   9.696 -1.6428  1.9564  2.0211
   80MOL0     H10764   1.721   2.814  10.166  0.2134  0.3107 -1.6936
   80MOL0     H10765   1.797   2.727  10.371  0.8958 -0.3660 -1.0171
   80MOL0     H10766   2.008   2.895  10.751 -1.5613  0.5524  1.7895
   80MOL0     H10767   1.973   3.027  10.633  0.2195 -1.6704 -1.5340
   80MOL0     H10768   1.830   3.072  10.834 -0.2789  1.4397  0.3847
   80MOL0     H10769   1.720   2.975  10.743 -0.7102  0.8862  1.8231
   80MOL0     H10770   1.927   2.848  10.934  0.6257 -2.8985 -2.6203
   80MOL0     H10771   1.779   2.776  10.879 -1.4871  0.0949 -1.8456
   80MOL0     H10772   1.765   3.026  11.042 -3.0547  0.2058  1.0570
   80MOL0     H10773   1.641   2.922  11.008 -0.1065  1.0620 -0.8753
   80MOL0     H10774   1.723   2.896  11.230 -1.2404 -0.6679  0.8644
   80MOL0     H10775   1.871   2.816  11.171  0.5262  0.0126  0.0030
   80MOL0     H10776   1.579   2.725  11.124 -0.6498  0.0767  0.5165
   80MOL0     H10777   1.721   2.654  11.037  2.9030  3.3663 -0.9789
   80MOL0     H10778   1.702   2.675  11.341 -1.2646 -2.7715  0.3357
   80MOL0     H10779   1.822   2.587  11.247 -0.4017 -3.3776  2.4516
   80MOL0     H10780   1.526   2.510  11.275  0.8607  0.3555  0.6628
   80MOL0     H10781   1.666   2.427  11.346 -2.6831 -0.1282  0.9815
   80MOL0     H10782   1.782   3.103  10.552 -1.7851 -0.4307  1.1106
   80MOL0     H10783   1.701   3.204  10.372  6.1777  0.1507  1.3697
   80MOL0     H10784   1.571   3.302   9.993 -0.7505  1.6390 -0.4670
   80MOL0     H10785   1.428   3.410   9.840  1.6543  1.5177 -1.4092
   80MOL0     H10786   0.617   4.521   9.384 -2.5909  1.2479  1.5229
   80MOL0     H10787   0.360   4.604   9.394 -1.1712  1.3645 -2.9346
   80MOL0     H10788  -0.057   4.680   8.967  1.6576  1.6918  2.2750
   80MOL0     H10789  -0.304   4.638   8.968  0.8027 -0.7836 -1.0479
   80MOL0     H10790  -0.484   4.677   9.101 -0.2939 -0.6251 -1.2542
   80MOL0     H10791  -0.560   4.575   8.988  3.0679  0.5093 -0.8398
   80MOL0     H10792  -0.645   4.585   9.284  2.2471 -1.8504 -0.4851
   80MOL0     H10793  -0.699   4.476   9.158  1.3159 -0.3445  0.1153
   80MOL0     H10794  -0.813   4.621   9.041  2.0531 -0.0429 -0.8135
   80MOL0     H10795  -0.711   4.762   9.077  1.3448  2.0692  3.6758
   80MOL0     H10796  -0.812   4.771   9.303  2.9362 -0.0307 -1.4758
   80MOL0     H10797  -0.910   4.630   9.256 -0.7579 -0.3056  1.5418
   80MOL0     H10798  -1.090   4.976   9.061 -0.9203  0.2777  1.3938
   80MOL0     H10799  -0.274   4.351   9.270 -0.3104 -0.7789 -1.1129
   80MOL0     H10800  -0.034   4.376   9.282 -0.1534 -0.3411  0.6534
   81MOL0     O10801   9.109   9.649   6.378 -0.3784  0.8631 -0.6628
   81MOL0     C10802   9.008   9.712   6.381 -0.4413  0.3705 -0.3185
   81MOL0     O10803   8.928   9.737   6.278 -0.5480 -0.3042  0.4836
   81MOL0     C10804   8.961   9.751   6.145 -0.2132  0.2449 -0.8961
   81MOL0     C10805   9.098   9.761   6.091 -0.0673  0.0063  0.0072
   81MOL0     C10806   9.117   9.803   5.961 -0.3313 -0.0622 -0.9228
   81MOL0     C10807   9.004   9.843   5.883  0.6841  0.1792  0.2066
   81MOL0     O10808   9.012   9.896   5.753  0.2179 -0.3139 -0.2583
   81MOL0     C10809   9.009   9.809   5.641  0.1934 -0.0721 -0.1281
   81MOL0     C10810   9.005   9.895   5.520 -0.4016  0.2707  0.1784
   81MOL0     C10811   9.003   9.817   5.394  0.3783  0.4578 -0.4599
   81MOL0     C10812   9.069   9.885   5.277  0.0687  0.2585  0.7731
   81MOL0     C10813   9.016   9.837   5.135  0.9206  0.5193 -0.9019
   81MOL0     C10814   9.058   9.930   5.027 -0.2345  0.0212  0.5123
   81MOL0     C10815   9.058   9.874   4.885 -0.2724  0.0239  0.3799
   81MOL0     C10816   9.046   9.979   4.778  0.2130 -0.0948  0.6026
   81MOL0     N10817   9.168  10.060   4.764  0.2807  0.3183 -0.0503
   81MOL0     C10818   9.166  10.195   4.773  0.8153 -0.1673 -0.4677
   81MOL0     C10819   9.297  10.236   4.793  0.3254 -0.0054 -1.1988
   81MOL0     C10820   9.346  10.372   4.830  0.1279  1.0133 -0.7382
   81MOL0     C10821   9.295  10.478   4.746  0.1983 -0.1712 -0.8881
   81MOL0     C10822   9.351  10.606   4.802 -0.3905 -0.7848  0.5183
   81MOL0     C10823   9.324  10.725   4.712  0.3355  0.0025 -0.4929
   81MOL0     O10824   9.379  10.711   4.581  0.1539 -0.6491  0.6225
   81MOL0     C10825   9.327  10.793   4.487 -0.1092 -0.8887  0.2243
   81MOL0     C10826   9.322  10.749   4.355  0.0775 -0.4601  0.8686
   81MOL0     C10827   9.269  10.825   4.245  0.9577 -0.1307 -0.5845
   81MOL0     C10828   9.274  10.769   4.104 -0.1921  0.3867  0.4104
   81MOL0     C10829   9.199  10.946   4.269 -0.4982  0.6482 -1.0535
   81MOL0     C10830   9.131  11.044   4.177 -0.1243  0.0159 -0.4762
   81MOL0     O10831   9.206  11.070   4.064 -0.3253 -0.8006  0.6190
   81MOL0     C10832   9.165  11.146   3.957  0.0928  0.3458 -0.0221
   81MOL0     C10833   9.273  11.205   3.888  0.8809 -0.3046  0.7324
   81MOL0     C10834   9.243  11.284   3.780 -0.8407 -0.4042  0.2927
   81MOL0     C10835   9.111  11.292   3.724  0.1950 -0.1108 -0.4245
   81MOL0     O10836   9.082  11.349   3.600 -0.1741  0.4709 -0.5021
   81MOL0     C10837   9.194  11.386   3.506  0.2329 -0.6920 -1.0050
   81MOL0     C10838   9.146  11.473   3.387  0.5575  0.0989  0.0662
   81MOL0     C10839   9.028  11.396   3.318 -0.0152 -0.3760  0.6786
   81MOL0     C10840   8.940  11.481   3.221 -0.9450  0.2868 -0.2784
   81MOL0     C10841   8.854  11.577   3.302  0.3543 -0.2071 -0.4218
   81MOL0     C10842   8.798  11.687   3.213  1.6057  0.4069 -0.0599
   81MOL0     C10843   8.753  11.818   3.278 -0.3171  0.5402  0.7185
   81MOL0     C10844   8.674  11.905   3.178  0.2208  0.2229  0.0629
   81MOL0    Cl10845   8.503  11.857   3.167  0.3970  0.0606 -0.1671
   81MOL0     C10846   9.004  11.243   3.805 -0.7503 -0.3190 -0.2184
   81MOL0     C10847   9.035  11.164   3.917  0.6079  0.3447  0.5654
   81MOL0     O10848   9.030  11.100   4.216  0.4737  0.3627  0.3498
   81MOL0     C10849   9.208  10.993   4.406 -0.2898 -0.5527  0.4014
   81MOL0     C10850   9.268  10.927   4.510  0.3298 -0.7057  0.1572
   81MOL0     N10851   9.375  10.121   4.775  0.7870  0.4251 -0.0174
   81MOL0     N10852   9.294  10.020   4.755 -0.1684  1.6432  0.1836
   81MOL0     C10853   8.873   9.838   5.934 -0.3725  1.4385 -0.2303
   81MOL0     C10854   8.851   9.793   6.066 -0.1253 -0.5862 -0.0549
   81MOL0     C10855   8.947   9.745   6.511  0.6897 -0.3715 -0.3593
   81MOL0     C10856   8.811   9.784   6.510  0.9040  1.6359  0.2459
   81MOL0     C10857   8.755   9.821   6.630 -0.7767  0.2929  0.0909
   81MOL0     C10858   8.832   9.841   6.742  0.0482 -0.5515 -0.1747
   81MOL0     O10859   8.777   9.875   6.861  0.2134  0.5570  0.0630
   81MOL0     C10860   8.654   9.939   6.859  0.2708 -1.0130  0.9948
   81MOL0     C10861   8.624   9.973   6.994  0.1593 -0.5707 -0.9098
   81MOL0     C10862   8.490  10.049   7.009  0.5266  0.0786 -1.1589
   81MOL0     C10863   8.434  10.033   7.152 -0.9131  0.0728 -0.5594
   81MOL0     C10864   8.412   9.890   7.182 -0.3737  0.1460 -0.2560
   81MOL0     C10865   8.394   9.773   7.206  0.7584 -0.3453 -0.1287
   81MOL0     C10866   8.961   9.796   6.741 -0.7571 -0.4466  0.5210
   81MOL0     C10867   9.023   9.759   6.625 -0.3205  0.3457  0.3253
   81MOL0     H10868   9.192   9.748   6.144  0.5631  3.7448  0.0623
   81MOL0     H10869   9.216   9.812   5.919  0.7304  1.5212  1.6844
   81MOL0     H10870   9.108   9.763   5.630  0.9360  1.6342 -0.9982
   81MOL0     H10871   8.939   9.726   5.646  2.9042 -2.4897  0.4028
   81MOL0     H10872   8.919   9.962   5.518 -0.6035  0.0428 -2.4562
   81MOL0     H10873   9.087   9.967   5.510 -1.2937  1.1194 -1.2861
   81MOL0     H10874   9.066   9.728   5.404  1.6271  1.2942 -0.5759
   81MOL0     H10875   8.901   9.792   5.364  0.4231  2.0526 -2.1656
   81MOL0     H10876   9.059   9.994   5.288  1.7460  0.4043  0.9991
   81MOL0     H10877   9.178   9.879   5.284  0.0568  1.9232  3.7690
   81MOL0     H10878   9.044   9.732   5.121 -3.6882 -1.5704  2.5957
   81MOL0     H10879   8.908   9.826   5.145  1.2595 -1.5598  1.2287
   81MOL0     H10880   8.994  10.019   5.029  0.6515  0.6564  1.5449
   81MOL0     H10881   9.161   9.965   5.033  0.2325 -1.5297  2.4391
   81MOL0     H10882   9.146   9.810   4.874 -1.9924 -2.0950 -2.9449
   81MOL0     H10883   8.974   9.808   4.858  0.7750 -0.7076 -1.2847
   81MOL0     H10884   8.952  10.032   4.795  1.1190  1.8136 -0.0669
   81MOL0     H10885   9.037   9.934   4.678  1.9988  0.6367  0.0747
   81MOL0     H10886   9.076  10.254   4.762  1.0794  0.1161 -1.1199
   81MOL0     H10887   9.320  10.392   4.934 -1.0629  1.8949 -1.1852
   81MOL0     H10888   9.456  10.367   4.828  0.1465  0.8507  0.1861
   81MOL0     H10889   9.186  10.485   4.754  0.3829  0.9722  1.4579
   81MOL0     H10890   9.319  10.461   4.641 -0.6434 -1.3832 -0.9010
   81MOL0     H10891   9.459  10.591   4.800 -0.6709 -3.2141  0.3081
   81MOL0     H10892   9.317  10.620   4.905 -0.4667  0.6156  0.3234
   81MOL0     H10893   9.349  10.813   4.771 -1.7647 -0.2222  0.8411
   81MOL0     H10894   9.217  10.718   4.694  0.3691 -1.5829 -0.2472
   81MOL0     H10895   9.367  10.652   4.337  1.0794  0.1079  0.1835
   81MOL0     H10896   9.282  10.660   4.096 -0.1499  0.3617  0.8020
   81MOL0     H10897   9.180  10.797   4.055  1.2646  1.2444 -2.0602
   81MOL0     H10898   9.361  10.809   4.051  0.8871 -2.1173  0.1497
   81MOL0     H10899   9.375  11.190   3.922  1.3532 -0.7130 -0.7909
   81MOL0     H10900   9.328  11.316   3.720 -0.2412  0.2388  1.4621
   81MOL0     H10901   9.263  11.455   3.555 -0.4052  1.0951 -2.5079
   81MOL0     H10902   9.248  11.296   3.475  3.4926  0.8330 -0.1783
   81MOL0     H10903   9.115  11.570   3.428  0.2234 -0.2374  0.6167
   81MOL0     H10904   9.231  11.492   3.321  0.3738  1.4370  0.1870
   81MOL0     H10905   8.963  11.335   3.382 -1.9607  0.5299 -0.3317
   81MOL0     H10906   9.078  11.322   3.255 -0.0536  0.9678 -1.0012
   81MOL0     H10907   8.981  11.523   3.129 -1.8708  0.6681 -0.5284
   81MOL0     H10908   8.874  11.408   3.173 -2.0656  0.3973  1.0222
   81MOL0     H10909   8.895  11.634   3.386 -2.3790 -0.2392  1.0375
   81MOL0     H10910   8.771  11.525   3.351 -0.4547  0.6126 -0.8838
   81MOL0     H10911   8.857  11.702   3.122 -1.0008  0.4571 -1.8518
   81MOL0     H10912   8.704  11.634   3.191  0.6214  2.2649 -0.4874
   81MOL0     H10913   8.832  11.866   3.336 -0.2215  3.7482 -1.7570
   81MOL0     H10914   8.672  11.794   3.348 -1.8156 -0.7554 -1.3267
   81MOL0     H10915   8.725  11.897   3.081  4.2679  0.7902  1.9311
   81MOL0     H10916   8.680  12.010   3.207 -0.3546  1.0183 -2.4645
   81MOL0     H10917   8.904  11.269   3.771 -0.5232  2.2472  0.8140
   81MOL0     H10918   8.962  11.097   3.962  1.2373  0.3572  1.6280
   81MOL0     H10919   9.172  11.094   4.417 -0.5264 -0.7611  1.6896
   81MOL0     H10920   9.289  10.969   4.607  0.5452  1.1677 -0.6634
   81MOL0     H10921   8.793   9.869   5.868 -0.3005 -0.5927 -1.3756
   81MOL0     H10922   8.749   9.792   6.102  0.1239  0.7826  0.7836
   81MOL0     H10923   8.756   9.792   6.417  1.2831  3.2753  0.1435
   81MOL0     H10924   8.647   9.822   6.642 -0.7659 -1.0518  0.4841
   81MOL0     H10925   8.656  10.031   6.800 -0.4237 -1.9775 -0.5978
   81MOL0     H10926   8.579   9.871   6.816  1.3106 -0.8560 -1.2287
   81MOL0     H10927   8.702  10.039   7.032  0.4560 -1.8841  0.9112
   81MOL0     H10928   8.625   9.877   7.047 -1.9397  0.9615  2.2150
   81MOL0     H10929   8.413  10.012   6.940 -3.8960  3.6806  1.2908
   81MOL0     H10930   8.499  10.155   6.986 -0.2477  1.2053  2.8196
   81MOL0     H10931   8.348  10.100   7.160 -0.0888  1.2642 -1.4481
   81MOL0     H10932   8.507  10.076   7.221 -1.4602  0.9896 -0.5474
   81MOL0     H10933   8.369   9.670   7.191 -3.3246  0.5588 -0.6802
   81MOL0     H10934   9.008   9.810   6.838  0.5293 -0.3753 -0.0973
   81MOL0     H10935   9.124   9.719   6.622 -1.5105 -2.9919 -3.0130
   82MOL0     O10936   3.566   0.668   5.013  0.1695  0.4993 -0.7909
   82MOL0     C10937   3.467   0.687   4.951  0.0537 -0.0373  0.5490
   82MOL0     O10938   3.471   0.711   4.811  0.6169  0.3535  0.2857
   82MOL0     C10939   3.589   0.738   4.749  0.4105 -0.0933 -0.1979
   82MOL0     C10940   3.632   0.866   4.718  0.1332  1.2099 -0.9120
   82MOL0     C10941   3.763   0.890   4.673 -0.1174  0.1318 -0.2347
   82MOL0     C10942   3.854   0.787   4.657  0.3167 -0.1845 -0.7169
   82MOL0     O10943   3.982   0.829   4.616 -0.3319 -0.3753 -0.6110
   82MOL0     C10944   4.048   0.735   4.544  0.4197  0.2633  0.7330
   82MOL0     C10945   4.188   0.766   4.509 -0.4055 -0.0418  0.2170
   82MOL0     C10946   4.243   0.632   4.444 -0.2100  0.4342  0.3681
   82MOL0     C10947   4.228   0.621   4.292 -0.2617  0.5556  0.3281
   82MOL0     C10948   4.245   0.476   4.238 -0.2381  0.9673  0.8556
   82MOL0     C10949   4.166   0.361   4.304 -0.7208  0.0361 -0.0595
   82MOL0     C10950   4.014   0.378   4.343 -0.2957  0.0387 -0.1917
   82MOL0     C10951   3.925   0.404   4.212  0.0008  1.0198 -0.6212
   82MOL0     N10952   3.787   0.450   4.254 -0.9014  0.4326  0.4924
   82MOL0     C10953   3.751   0.563   4.330 -0.4369  0.6383 -0.4781
   82MOL0     C10954   3.617   0.554   4.331 -0.0536 -0.8493 -0.1707
   82MOL0     C10955   3.531   0.655   4.395 -0.1655 -0.0847 -0.7901
   82MOL0     C10956   3.386   0.669   4.333  0.2063  0.3444  0.2961
   82MOL0     C10957   3.297   0.747   4.421 -0.2890  0.1553  0.7091
   82MOL0     C10958   3.253   0.670   4.544 -0.9007  1.3032 -0.5065
   82MOL0     O10959   3.115   0.698   4.573  0.7381 -0.1859  0.4285
   82MOL0     C10960   3.074   0.823   4.615 -0.3630 -0.1808  0.3529
   82MOL0     C10961   3.163   0.925   4.645 -0.0386  0.7030 -0.0070
   82MOL0     C10962   3.122   1.056   4.683 -0.9848 -0.0129  0.3531
   82MOL0     C10963   3.239   1.156   4.710 -0.2396 -0.7432  0.1704
   82MOL0     C10964   2.992   1.077   4.710  0.0975 -0.2740  0.2515
   82MOL0     C10965   2.941   1.214   4.747 -0.4013  0.3158  1.3475
   82MOL0     O10966   2.859   1.218   4.851 -0.6499  0.0258  0.0061
   82MOL0     C10967   2.833   1.343   4.905  0.2534  0.5820  0.0913
   82MOL0     C10968   2.782   1.452   4.831  0.5975 -0.2803  0.8779
   82MOL0     C10969   2.729   1.564   4.905  0.7465  0.5259  0.4680
   82MOL0     C10970   2.722   1.567   5.047  0.6404 -0.6244  0.5005
   82MOL0     O10971   2.654   1.672   5.112 -0.1564 -0.6904 -0.4148
   82MOL0     C10972   2.577   1.630   5.223  0.6211  0.3291 -0.4046
   82MOL0     C10973   2.643   1.685   5.349 -0.2855 -0.3125 -0.3439
   82MOL0     C10974   2.649   1.578   5.463 -0.8419  0.8642 -0.0386
   82MOL0     C10975   2.734   1.637   5.573  0.1479 -0.1191 -0.4071
   82MOL0     C10976   2.707   1.539   5.695 -0.0914 -0.2883 -0.1180
   82MOL0     C10977   2.724   1.620   5.818  0.6188  0.5323 -0.2375
   82MOL0     C10978   2.729   1.538   5.947 -1.0784 -0.1824  0.1159
   82MOL0     C10979   2.760   1.638   6.065 -0.2494  0.6207  0.2154
   82MOL0    Cl10980   2.940   1.670   6.075  0.2941 -0.1235  0.3873
   82MOL0     C10981   2.787   1.467   5.110 -0.8607 -0.4507 -0.4132
   82MOL0     C10982   2.849   1.362   5.046  0.7826  0.8189 -0.3865
   82MOL0     O10983   2.968   1.307   4.671 -0.4029 -0.6388 -0.8079
   82MOL0     C10984   2.904   0.971   4.674  0.3234  0.4265 -0.9622
   82MOL0     C10985   2.940   0.846   4.625 -0.4500  1.0749 -0.5629
   82MOL0     N10986   3.576   0.442   4.261  0.4020  0.0168 -0.1421
   82MOL0     N10987   3.676   0.381   4.207 -0.0857 -0.4221 -0.5446
   82MOL0     C10988   3.816   0.660   4.683  0.8018  0.9589  0.3807
   82MOL0     C10989   3.683   0.640   4.739 -0.6789 -0.2845 -0.4140
   82MOL0     C10990   3.329   0.677   5.013  0.1759  0.0828  0.4055
   82MOL0     C10991   3.296   0.598   5.129  0.7038  0.3296  0.8879
   82MOL0     C10992   3.170   0.592   5.169  1.7437  0.4052  0.4348
   82MOL0     C10993   3.062   0.664   5.099 -0.1328  0.4932  0.6246
   82MOL0     O10994   2.939   0.687   5.156 -0.3851  0.2027  0.5664
   82MOL0     C10995   2.861   0.563   5.155  0.2488 -0.3826  0.1597
   82MOL0     C10996   2.823   0.509   5.288 -1.1956 -0.1798 -0.2158
   82MOL0     C10997   2.748   0.609   5.380 -0.1651  0.3828 -1.9090
   82MOL0     C10998   2.742   0.526   5.514  0.5101  0.2992 -0.3084
   82MOL0     C10999   2.643   0.416   5.509 -0.4262 -0.0342  0.5709
   82MOL0     C11000   2.578   0.313   5.500 -0.9317 -0.0034  0.1587
   82MOL0     C11001   3.098   0.740   4.988  0.0626  0.3658  0.2353
   82MOL0     C11002   3.226   0.750   4.949 -0.3601 -0.2629 -0.2240
   82MOL0     H11003   3.573   0.955   4.737 -2.1994 -0.5284  0.5217
   82MOL0     H11004   3.794   0.993   4.662 -3.1668  1.5803  2.6730
   82MOL0     H11005   4.043   0.638   4.594  1.4675 -1.4482 -2.2292
   82MOL0     H11006   4.000   0.716   4.448  3.7228 -2.2590 -0.6526
   82MOL0     H11007   4.196   0.851   4.441 -0.4042 -1.1814 -1.2709
   82MOL0     H11008   4.247   0.787   4.599  3.4016  0.1318 -2.1077
   82MOL0     H11009   4.350   0.623   4.465 -0.3040 -1.1661  0.2883
   82MOL0     H11010   4.210   0.548   4.505  1.6583  1.0791  2.4045
   82MOL0     H11011   4.127   0.650   4.261  0.7573  1.9925 -1.9284
   82MOL0     H11012   4.293   0.698   4.249  0.3729  0.1302  0.5035
   82MOL0     H11013   4.212   0.482   4.134 -0.5324 -4.3497  0.3969
   82MOL0     H11014   4.349   0.442   4.249 -0.5916 -0.1768  0.7307
   82MOL0     H11015   4.178   0.271   4.243  3.0735  0.6544 -0.4612
   82MOL0     H11016   4.211   0.351   4.403 -0.5191  2.1825  0.1264
   82MOL0     H11017   3.979   0.286   4.392 -1.1185  0.1200 -0.6108
   82MOL0     H11018   3.999   0.463   4.410 -3.2886 -1.0781  0.7638
   82MOL0     H11019   3.925   0.315   4.148 -2.9452  1.9603 -2.1173
   82MOL0     H11020   3.965   0.492   4.161 -0.6052  2.1580  0.7958
   82MOL0     H11021   3.821   0.634   4.374 -1.0404  0.5494  0.6710
   82MOL0     H11022   3.515   0.625   4.499 -1.1782  0.1293 -0.8691
   82MOL0     H11023   3.582   0.751   4.396 -0.7732  0.2522  0.5207
   82MOL0     H11024   3.348   0.568   4.315  2.0437 -0.2801 -0.3368
   82MOL0     H11025   3.389   0.722   4.237  1.5367 -1.9530 -1.0440
   82MOL0     H11026   3.212   0.769   4.356  1.2530 -0.0436 -1.5120
   82MOL0     H11027   3.354   0.836   4.450  3.1237 -1.4706 -0.4663
   82MOL0     H11028   3.323   0.701   4.622 -2.5892  2.1379  0.7653
   82MOL0     H11029   3.261   0.562   4.532 -1.2776  0.8700  2.3484
   82MOL0     H11030   3.270   0.908   4.648 -0.4005 -1.9647  0.8788
   82MOL0     H11031   3.333   1.103   4.730  0.3364 -0.2493 -1.1185
   82MOL0     H11032   3.246   1.221   4.623 -1.4650 -0.0349  0.5729
   82MOL0     H11033   3.229   1.206   4.807 -0.0997 -3.0686  1.4745
   82MOL0     H11034   2.755   1.443   4.726 -3.4963  1.2976  1.6121
   82MOL0     H11035   2.658   1.636   4.865  0.0015  0.5948  1.8705
   82MOL0     H11036   2.478   1.676   5.214  0.6879  0.8074  1.0739
   82MOL0     H11037   2.556   1.523   5.231  2.1408  0.0917  0.6815
   82MOL0     H11038   2.742   1.724   5.324 -1.6724  1.3249 -3.9742
   82MOL0     H11039   2.586   1.763   5.400  1.0118 -0.4311  1.3663
   82MOL0     H11040   2.701   1.486   5.433 -5.3564 -1.6574 -1.0256
   82MOL0     H11041   2.549   1.546   5.494 -0.4206 -0.2309  0.2530
   82MOL0     H11042   2.840   1.631   5.547  0.4996 -2.3357  1.2426
   82MOL0     H11043   2.695   1.738   5.589 -2.9642 -1.0431 -1.2815
   82MOL0     H11044   2.786   1.464   5.706 -1.7580 -2.0657  0.2116
   82MOL0     H11045   2.612   1.486   5.684  1.4819 -2.8868 -2.5289
   82MOL0     H11046   2.802   1.697   5.811 -2.4008  3.7129 -2.0182
   82MOL0     H11047   2.632   1.678   5.828 -0.2924 -0.8916 -0.0380
   82MOL0     H11048   2.813   1.468   5.933  0.7111  2.1338 -1.6423
   82MOL0     H11049   2.631   1.494   5.964 -1.2447 -0.5331 -1.5617
   82MOL0     H11050   2.728   1.591   6.158  0.6311 -1.1993 -0.3524
   82MOL0     H11051   2.717   1.739   6.059  1.1128  1.2277  0.3180
   82MOL0     H11052   2.787   1.455   5.218 -0.1216 -2.1717 -0.5731
   82MOL0     H11053   2.907   1.288   5.101  1.3816 -1.4177 -3.7071
   82MOL0     H11054   2.797   0.980   4.689  0.4970  0.7489  0.1854
   82MOL0     H11055   2.865   0.771   4.601  1.1195 -1.6277  2.2657
   82MOL0     H11056   3.868   0.568   4.661  1.7865  1.6813 -0.4507
   82MOL0     H11057   3.651   0.545   4.780  1.1089 -0.4229  0.7316
   82MOL0     H11058   3.367   0.534   5.179  0.7982 -2.6391 -2.5968
   82MOL0     H11059   3.129   0.535   5.251 -1.2176 -0.2959 -1.3435
   82MOL0     H11060   2.761   0.575   5.112  0.6003  2.0961 -0.1078
   82MOL0     H11061   2.916   0.494   5.090  2.6310  3.7427 -2.6621
   82MOL0     H11062   2.920   0.480   5.330 -1.2763 -1.7867 -1.0719
   82MOL0     H11063   2.755   0.423   5.277 -1.1316 -0.3605  0.7214
   82MOL0     H11064   2.652   0.646   5.341 -0.4555 -1.1600 -2.7448
   82MOL0     H11065   2.809   0.696   5.403 -0.2812  0.0891 -0.3888
   82MOL0     H11066   2.707   0.588   5.597  1.0092 -0.1427  0.2340
   82MOL0     H11067   2.840   0.486   5.539  0.7667  0.2085 -1.4183
   82MOL0     H11068   2.517   0.226   5.491 -2.5588  1.1662 -0.5662
   82MOL0     H11069   3.024   0.791   4.926  1.1894  1.6429 -0.1273
   82MOL0     H11070   3.253   0.826   4.877 -6.1258  1.5139 -0.9360
   83MOL0     O11071   1.670   5.268   6.731 -0.0135 -0.3892 -0.0575
   83MOL0     C11072   1.664   5.389   6.733  0.4768  0.1114  0.3477
   83MOL0     O11073   1.596   5.467   6.643  0.0850  0.0568  0.3409
   83MOL0     C11074   1.495   5.405   6.565  0.3682  0.5402  0.5462
   83MOL0     C11075   1.508   5.410   6.423  1.3179 -0.3381  0.2181
   83MOL0     C11076   1.408   5.343   6.347  0.5724 -1.1621 -0.1320
   83MOL0     C11077   1.293   5.280   6.404  0.3344 -0.4727 -0.1864
   83MOL0     O11078   1.192   5.218   6.331  0.7727 -0.1673 -0.9588
   83MOL0     C11079   1.145   5.301   6.227 -0.0309  0.0942 -0.9457
   83MOL0     C11080   0.998   5.278   6.221  0.9739 -0.2774 -0.5172
   83MOL0     C11081   0.934   5.306   6.362 -0.8870  0.3832 -0.3013
   83MOL0     C11082   0.793   5.353   6.340  0.2492 -0.9755  0.4352
   83MOL0     C11083   0.697   5.257   6.266 -0.2674  0.9592  0.2904
   83MOL0     C11084   0.556   5.314   6.279 -0.1558  0.0363  0.4476
   83MOL0     C11085   0.451   5.227   6.214  0.5408  0.9244 -0.9830
   83MOL0     C11086   0.438   5.093   6.302  0.2102  0.0760  0.3078
   83MOL0     N11087   0.308   5.035   6.282 -0.0174  0.1747  0.1769
   83MOL0     C11088   0.185   5.072   6.320 -0.0464  0.4846 -0.0651
   83MOL0     C11089   0.098   4.977   6.279  0.6094  0.1977  0.4420
   83MOL0     C11090  -0.046   5.009   6.294 -0.2382 -0.2297 -0.0735
   83MOL0     C11091  -0.094   5.123   6.214 -0.2733  0.9146  1.1050
   83MOL0     C11092  -0.235   5.172   6.259 -0.5992  0.0635  0.1654
   83MOL0     C11093  -0.355   5.103   6.208  0.1156 -0.7536  0.7006
   83MOL0     O11094  -0.373   4.991   6.291  0.3646 -0.4535 -0.0306
   83MOL0     C11095  -0.480   4.996   6.376  0.1080  0.9620  0.7662
   83MOL0     C11096  -0.462   5.052   6.497 -0.0788  0.2811  0.6419
   83MOL0     C11097  -0.570   5.064   6.590 -0.9135 -0.0182 -0.0294
   83MOL0     C11098  -0.534   5.140   6.722  0.2718  0.2476 -0.0817
   83MOL0     C11099  -0.694   5.006   6.554 -0.2281  0.3423 -0.1104
   83MOL0     C11100  -0.806   4.986   6.648  0.0028  0.5362 -0.3185
   83MOL0     O11101  -0.819   5.066   6.761 -1.1175 -0.3393  0.0182
   83MOL0     C11102  -0.903   5.021   6.856  0.9959  0.3710 -0.1762
   83MOL0     C11103  -1.008   5.111   6.871  0.1325  0.3754  0.4166
   83MOL0     C11104  -1.117   5.075   6.957  0.4340  0.2901  0.3851
   83MOL0     C11105  -1.108   4.970   7.053 -1.2902  1.4600  0.6542
   83MOL0     O11106  -1.190   4.945   7.160 -0.0100 -0.2079  0.0489
   83MOL0     C11107  -1.311   5.024   7.157 -0.7625  0.2391 -0.0108
   83MOL0     C11108  -1.386   4.981   7.274  0.6410  0.2879  0.3885
   83MOL0     C11109  -1.517   5.044   7.253  0.0637  0.1720 -1.7006
   83MOL0     C11110  -1.623   4.988   7.359 -0.4622 -0.2178  0.7981
   83MOL0     C11111  -1.648   5.076   7.470 -0.0020 -0.2394 -0.0289
   83MOL0     C11112  -1.534   5.120   7.563 -0.6093  0.7225 -0.3036
   83MOL0     C11113  -1.578   5.236   7.655  0.2118 -0.2456 -0.8116
   83MOL0     C11114  -1.472   5.281   7.745 -0.3070  0.5719 -0.7762
   83MOL0    Cl11115  -1.451   5.153   7.874 -0.2081 -0.0194  0.7322
   83MOL0     C11116  -1.002   4.883   7.019 -0.2869  1.0325  0.0094
   83MOL0     C11117  -0.897   4.901   6.928  0.3130  0.0734  0.2217
   83MOL0     O11118  -0.886   4.894   6.617 -0.2660 -0.0531 -0.5020
   83MOL0     C11119  -0.711   4.956   6.428  0.4230  0.3531  0.3703
   83MOL0     C11120  -0.606   4.951   6.338 -0.0902  0.0468 -0.6244
   83MOL0     N11121   0.183   4.873   6.220 -0.0207 -0.8032 -0.6649
   83MOL0     N11122   0.301   4.908   6.229 -0.8159 -0.5406  0.0084
   83MOL0     C11123   1.286   5.268   6.546 -0.6405 -0.9275  0.2555
   83MOL0     C11124   1.381   5.336   6.621 -0.3225 -1.2040 -0.1712
   83MOL0     C11125   1.744   5.455   6.832 -0.4323  0.4479  0.2370
   83MOL0     C11126   1.850   5.387   6.901 -0.1843 -0.0867  0.0593
   83MOL0     C11127   1.929   5.450   6.998  0.1380  0.6400 -0.0786
   83MOL0     C11128   1.912   5.583   7.032  0.3965  0.0102 -0.4768
   83MOL0     O11129   1.986   5.649   7.133 -0.4188 -0.0784  0.2519
   83MOL0     C11130   2.037   5.579   7.250 -0.9371  0.3263  0.0132
   83MOL0     C11131   2.064   5.681   7.361  0.8272 -0.1334  0.3610
   83MOL0     C11132   2.133   5.613   7.486 -1.1203  0.2874 -0.6925
   83MOL0     C11133   2.101   5.676   7.628  0.4603 -0.7853 -0.1362
   83MOL0     C11134   2.134   5.820   7.634  0.5539  1.0596  0.0191
   83MOL0     C11135   2.136   5.943   7.660 -0.0145  0.5602 -0.7637
   83MOL0     C11136   1.799   5.650   6.969  0.2491  0.4464 -0.0355
   83MOL0     C11137   1.717   5.586   6.877 -0.1943 -0.7338 -0.7399
   83MOL0     H11138   1.596   5.450   6.373  0.8369 -0.1099 -0.4652
   83MOL0     H11139   1.427   5.344   6.240  4.7716 -0.8382  0.4543
   83MOL0     H11140   1.168   5.408   6.238  2.2138 -0.2644 -1.7028
   83MOL0     H11141   1.191   5.264   6.135 -1.2709 -1.5134 -0.9596
   83MOL0     H11142   0.965   5.344   6.140  0.1791  0.6118  0.4971
   83MOL0     H11143   0.964   5.179   6.190  2.0897 -1.6205  2.1609
   83MOL0     H11144   0.941   5.216   6.425  1.7706  0.5276 -0.2522
   83MOL0     H11145   0.984   5.388   6.413 -1.8791 -0.7199  2.6691
   83MOL0     H11146   0.760   5.372   6.443 -0.2285 -0.3318  0.1699
   83MOL0     H11147   0.811   5.447   6.288  0.7339 -0.6081  1.2378
   83MOL0     H11148   0.735   5.260   6.164  0.8817 -2.3498  0.5253
   83MOL0     H11149   0.699   5.152   6.297  0.6952 -0.7457 -4.6470
   83MOL0     H11150   0.532   5.337   6.383 -2.1348  0.2024 -0.0070
   83MOL0     H11151   0.540   5.406   6.223 -2.0085  0.2835  1.3090
   83MOL0     H11152   0.358   5.283   6.228 -0.0087 -0.4321  1.2821
   83MOL0     H11153   0.486   5.203   6.113  2.3621 -0.0536 -0.1624
   83MOL0     H11154   0.454   5.106   6.409  1.6893  1.8706 -0.0741
   83MOL0     H11155   0.515   5.020   6.275  0.1922  0.2890 -0.3510
   83MOL0     H11156   0.148   5.165   6.362 -1.4098 -0.1719  0.2327
   83MOL0     H11157  -0.091   4.916   6.258 -1.4745 -0.2824  1.5348
   83MOL0     H11158  -0.057   5.019   6.402  0.3391  1.1429 -0.1207
   83MOL0     H11159  -0.086   5.092   6.109 -3.0903  0.0188  1.0819
   83MOL0     H11160  -0.032   5.213   6.218 -1.9373  2.2967 -1.4720
   83MOL0     H11161  -0.247   5.277   6.231  0.4462  0.4409  1.0910
   83MOL0     H11162  -0.239   5.169   6.368 -2.3795 -2.7524  0.1116
   83MOL0     H11163  -0.345   5.076   6.102 -1.1203 -1.1170  0.6686
   83MOL0     H11164  -0.441   5.171   6.200  1.6473  1.1129 -3.7971
   83MOL0     H11165  -0.365   5.099   6.513  2.0206 -2.5502 -2.4510
   83MOL0     H11166  -0.563   5.245   6.709 -3.8216 -0.7304 -0.1025
   83MOL0     H11167  -0.590   5.106   6.809 -1.1542  0.5850 -0.8389
   83MOL0     H11168  -0.428   5.129   6.747 -0.3679 -1.3020  2.2620
   83MOL0     H11169  -1.015   5.205   6.817  1.5203  0.6203  0.6228
   83MOL0     H11170  -1.198   5.146   6.971 -0.3884 -0.6832  0.7026
   83MOL0     H11171  -1.290   5.132   7.160  0.9412 -0.0406 -0.6081
   83MOL0     H11172  -1.363   5.003   7.063  2.9576  0.9058 -2.4682
   83MOL0     H11173  -1.390   4.872   7.278  0.6676  0.2383 -0.6069
   83MOL0     H11174  -1.330   5.015   7.362  2.1920  2.8705 -1.4609
   83MOL0     H11175  -1.563   5.039   7.154 -2.0149  1.1268 -0.8470
   83MOL0     H11176  -1.507   5.153   7.259  1.9181  0.0403 -1.8072
   83MOL0     H11177  -1.719   4.970   7.310  0.1529  1.1487 -1.0647
   83MOL0     H11178  -1.590   4.892   7.400  0.8440 -1.1649 -2.1857
   83MOL0     H11179  -1.724   5.042   7.540  0.4610  1.7047  1.5055
   83MOL0     H11180  -1.687   5.168   7.426  1.2955 -0.2738 -1.3550
   83MOL0     H11181  -1.493   5.032   7.612  2.8053  1.9307 -0.6457
   83MOL0     H11182  -1.448   5.156   7.504  2.4724 -1.8837  2.1975
   83MOL0     H11183  -1.663   5.216   7.720  0.9634 -1.4202 -0.1623
   83MOL0     H11184  -1.608   5.312   7.581 -0.5685  0.0601 -0.1967
   83MOL0     H11185  -1.480   5.369   7.809  0.1565 -0.8973  1.3906
   83MOL0     H11186  -1.380   5.290   7.686  0.6468  0.2843  0.6131
   83MOL0     H11187  -1.011   4.793   7.080  1.1899 -0.0230 -1.2584
   83MOL0     H11188  -0.817   4.829   6.919 -0.3128 -0.9950  2.3770
   83MOL0     H11189  -0.808   4.917   6.399  0.2155  0.6514  0.6468
   83MOL0     H11190  -0.618   4.894   6.246 -2.8413  0.9374 -0.9287
   83MOL0     H11191   1.206   5.214   6.597  0.2295 -1.7449  0.7777
   83MOL0     H11192   1.362   5.342   6.727 -0.5094 -1.1933 -0.2058
   83MOL0     H11193   1.867   5.283   6.875  2.0743  0.9079 -2.9958
   83MOL0     H11194   2.012   5.392   7.037 -0.2378  1.0106  1.3358
   83MOL0     H11195   1.969   5.498   7.276  1.2773 -1.3461  0.8684
   83MOL0     H11196   2.128   5.528   7.218 -2.9219 -1.5650 -3.0556
   83MOL0     H11197   1.970   5.724   7.396  2.3215  2.8668  1.0791
   83MOL0     H11198   2.131   5.755   7.316 -1.1343  2.4511  1.3927
   83MOL0     H11199   2.241   5.612   7.468 -0.6143  2.8290  1.5692
   83MOL0     H11200   2.104   5.508   7.497  1.6342 -0.2871  3.1965
   83MOL0     H11201   2.169   5.633   7.702 -1.0330 -1.4752  0.8668
   83MOL0     H11202   1.998   5.652   7.656  0.0764 -1.3790 -1.9640
   83MOL0     H11203   2.141   6.048   7.682  0.1954  0.9450 -2.5184
   83MOL0     H11204   1.787   5.754   7.000  3.8332  1.4131 -1.3380
   83MOL0     H11205   1.639   5.643   6.828 -1.7316 -2.3764 -0.3087
   84MOL0     O11206   5.871   4.002   9.067  0.9870  0.1464  1.2229
   84MOL0     C11207   5.748   3.983   9.071  0.3925 -0.0424  0.4313
   84MOL0     O11208   5.679   3.878   9.012  0.3664 -0.8704  0.8146
   84MOL0     C11209   5.742   3.785   8.942 -0.6483  1.0264 -0.8797
   84MOL0     C11210   5.739   3.654   8.989  0.2541 -0.0363 -0.6331
   84MOL0     C11211   5.822   3.551   8.938  0.8185  0.6692  0.8878
   84MOL0     C11212   5.904   3.580   8.831 -0.2002  0.3932  0.4751
   84MOL0     O11213   5.978   3.476   8.770 -0.0091  0.3330  0.4904
   84MOL0     C11214   6.079   3.421   8.854  0.4883  0.1505 -0.1400
   84MOL0     C11215   6.143   3.292   8.793  0.8654  0.4988  0.2377
   84MOL0     C11216   6.046   3.165   8.805  0.2190 -1.0215 -0.1647
   84MOL0     C11217   6.051   3.108   8.953  0.9717 -0.7638 -0.0912
   84MOL0     C11218   5.936   3.011   8.993 -0.2590 -0.2044  0.2892
   84MOL0     C11219   5.952   2.876   8.915 -0.8015 -0.3677  0.3788
   84MOL0     C11220   5.839   2.768   8.922  0.2474  0.3783 -0.8770
   84MOL0     C11221   5.724   2.809   8.829  0.2067  1.1482 -0.0535
   84MOL0     N11222   5.601   2.747   8.884  0.1430 -1.0490  0.7509
   84MOL0     C11223   5.535   2.795   8.995 -0.1434 -0.9473 -0.6216
   84MOL0     C11224   5.412   2.738   8.986  1.1336  0.9054 -0.3310
   84MOL0     C11225   5.287   2.774   9.064  0.5128 -0.4891 -0.6721
   84MOL0     C11226   5.252   2.922   9.042  0.3242  0.1390  0.3252
   84MOL0     C11227   5.117   2.947   9.098  0.6690  0.5788  0.4654
   84MOL0     C11228   5.071   3.100   9.062 -0.4405 -0.5937  0.5435
   84MOL0     O11229   5.063   3.121   8.915  0.3974 -0.9786  0.1994
   84MOL0     C11230   5.014   3.248   8.884  0.5029  0.9473  1.2384
   84MOL0     C11231   4.977   3.262   8.749 -0.0777 -1.0087 -0.7336
   84MOL0     C11232   4.918   3.384   8.702 -0.8482  0.6311  1.0458
   84MOL0     C11233   4.907   3.386   8.547  0.1953 -0.2555 -0.5793
   84MOL0     C11234   4.896   3.493   8.784  0.7444  1.1305 -0.6514
   84MOL0     C11235   4.859   3.621   8.737 -0.2324 -0.5457  0.2922
   84MOL0     O11236   4.906   3.660   8.613  0.6125  0.6063  0.0389
   84MOL0     C11237   4.935   3.793   8.580 -1.0549 -0.7862 -0.3848
   84MOL0     C11238   4.842   3.873   8.521 -0.5451  0.9261 -0.2616
   84MOL0     C11239   4.870   4.001   8.481 -0.3715  0.2001  0.4138
   84MOL0     C11240   4.993   4.061   8.514 -0.0142 -1.2609 -0.1823
   84MOL0     O11241   5.016   4.193   8.479  0.1045 -0.4606  0.4542
   84MOL0     C11242   5.143   4.244   8.511  0.2536 -0.6052  0.1962
   84MOL0     C11243   5.173   4.378   8.438  0.5301  0.0070  0.1144
   84MOL0     C11244   5.125   4.506   8.511 -0.1441  0.3293 -0.5389
   84MOL0     C11245   5.206   4.633   8.458 -0.4147  0.3118 -0.6645
   84MOL0     C11246   5.342   4.630   8.537  0.6135  0.3627 -0.8567
   84MOL0     C11247   5.464   4.726   8.499 -0.2915  0.0167  0.3971
   84MOL0     C11248   5.490   4.745   8.345 -0.4623  0.1231 -0.6061
   84MOL0     C11249   5.585   4.853   8.296  0.0305  0.3484  0.1989
   84MOL0    Cl11250   5.738   4.813   8.373  0.3277 -0.6768 -0.1415
   84MOL0     C11251   5.090   3.981   8.567  1.0050  0.3009  0.4366
   84MOL0     C11252   5.063   3.845   8.597 -0.6962  0.3278  0.4055
   84MOL0     O11253   4.814   3.699   8.821  0.4218 -0.4248  0.7706
   84MOL0     C11254   4.939   3.478   8.918  0.3116  0.5746  0.1230
   84MOL0     C11255   5.012   3.364   8.959 -0.2615  0.0644  0.0615
   84MOL0     N11256   5.411   2.648   8.884  0.3055 -0.1221 -0.2934
   84MOL0     N11257   5.522   2.657   8.817  0.0779 -0.5061 -0.3325
   84MOL0     C11258   5.912   3.710   8.788  0.0473 -0.1415 -0.3856
   84MOL0     C11259   5.835   3.814   8.843 -0.6727 -0.4892 -0.3095
   84MOL0     C11260   5.661   4.083   9.133  0.0385 -0.2163  0.2382
   84MOL0     C11261   5.528   4.043   9.161  0.6694  0.5539  0.0331
   84MOL0     C11262   5.436   4.128   9.216  0.2670 -0.5884 -0.1739
   84MOL0     C11263   5.468   4.256   9.260 -0.3957 -0.1328 -0.1549
   84MOL0     O11264   5.390   4.337   9.336  0.1201 -0.5903  0.3225
   84MOL0     C11265   5.261   4.275   9.386  0.2231 -0.6044  0.3924
   84MOL0     C11266   5.173   4.382   9.424  0.5785  0.5394 -0.4057
   84MOL0     C11267   5.040   4.312   9.479 -0.6494  0.4876  0.0587
   84MOL0     C11268   4.929   4.414   9.501 -0.5259 -0.6820 -0.5559
   84MOL0     C11269   4.863   4.453   9.376 -0.1912  0.6283  0.0935
   84MOL0     C11270   4.817   4.497   9.269  0.3905 -0.1804  0.6722
   84MOL0     C11271   5.598   4.297   9.230 -0.9584 -0.5790  0.0296
   84MOL0     C11272   5.691   4.214   9.173 -0.9871 -1.0360 -0.4864
   84MOL0     H11273   5.667   3.635   9.068 -1.2566  2.6259 -1.2385
   84MOL0     H11274   5.812   3.454   8.986 -1.7047  0.1649 -0.4855
   84MOL0     H11275   6.152   3.500   8.876 -0.1570  0.6755  0.1450
   84MOL0     H11276   6.035   3.388   8.949  2.1178 -0.6526  0.3908
   84MOL0     H11277   6.175   3.319   8.692  1.6213 -0.5399  0.1767
   84MOL0     H11278   6.237   3.268   8.844 -0.4104  0.5296  2.7543
   84MOL0     H11279   5.947   3.182   8.763  0.3801 -0.5559 -0.3707
   84MOL0     H11280   6.095   3.091   8.740  0.1268 -0.8684 -0.4132
   84MOL0     H11281   6.150   3.061   8.960  1.5318  0.4200  0.2427
   84MOL0     H11282   6.053   3.186   9.031  2.3920  0.8329 -1.6424
   84MOL0     H11283   5.930   2.998   9.101 -0.1526  1.1770  0.4828
   84MOL0     H11284   5.839   3.055   8.968  0.0762  1.4199  1.6852
   84MOL0     H11285   5.963   2.893   8.807  2.4573 -0.9243  0.5228
   84MOL0     H11286   6.039   2.825   8.958 -1.4929 -0.4066  1.7730
   84MOL0     H11287   5.873   2.667   8.897  1.7449  0.8773 -0.9237
   84MOL0     H11288   5.806   2.756   9.026  1.3145 -0.3518 -0.6098
   84MOL0     H11289   5.756   2.777   8.730 -2.4485  2.5738 -1.4694
   84MOL0     H11290   5.716   2.918   8.827  0.0418  1.3462  3.7821
   84MOL0     H11291   5.553   2.886   9.052  3.4585 -2.4712  1.0134
   84MOL0     H11292   5.212   2.705   9.027 -0.5386 -0.4346  1.2066
   84MOL0     H11293   5.308   2.745   9.168 -1.5888  0.9859  0.2596
   84MOL0     H11294   5.237   2.929   8.934 -1.6148 -0.6506  0.5025
   84MOL0     H11295   5.324   2.996   9.079  4.3548 -3.0025 -0.3870
   84MOL0     H11296   5.107   2.945   9.207 -0.8550 -1.7405  0.3603
   84MOL0     H11297   5.048   2.870   9.062  0.9039  1.0737 -1.1131
   84MOL0     H11298   5.141   3.175   9.102 -0.5400 -0.5496  0.6348
   84MOL0     H11299   4.970   3.117   9.099 -0.7421  0.7243 -0.7722
   84MOL0     H11300   5.002   3.184   8.678  1.1964 -0.9723 -0.3545
   84MOL0     H11301   4.983   3.450   8.503 -2.2464 -0.3412 -5.7649
   84MOL0     H11302   4.920   3.293   8.490 -2.3891 -0.1413 -1.4900
   84MOL0     H11303   4.806   3.424   8.525 -0.4880 -1.8207 -0.3050
   84MOL0     H11304   4.747   3.822   8.516  0.9856 -2.1300 -1.1203
   84MOL0     H11305   4.804   4.070   8.428  2.2953  2.3607 -0.3078
   84MOL0     H11306   5.156   4.261   8.618  0.5230  0.5640 -0.0137
   84MOL0     H11307   5.227   4.180   8.481  1.0458  1.3891 -2.2054
   84MOL0     H11308   5.282   4.372   8.425  0.6207  0.5019  0.6289
   84MOL0     H11309   5.138   4.366   8.335  2.6858 -1.0225 -0.5508
   84MOL0     H11310   5.138   4.492   8.618  1.8866  2.8682 -0.3581
   84MOL0     H11311   5.017   4.525   8.517  0.1521  1.6611  1.2036
   84MOL0     H11312   5.200   4.637   8.349 -4.6268  1.0539 -0.5736
   84MOL0     H11313   5.144   4.720   8.484 -2.9920 -0.9235 -2.2382
   84MOL0     H11314   5.378   4.527   8.542 -4.3893 -1.6536 -0.1815
   84MOL0     H11315   5.325   4.639   8.645  0.4559 -3.7886 -0.3524
   84MOL0     H11316   5.449   4.827   8.539  1.7559  0.2676  0.6454
   84MOL0     H11317   5.555   4.700   8.554  0.7243  1.8784 -0.3068
   84MOL0     H11318   5.394   4.756   8.295 -0.2092 -3.4633 -2.1229
   84MOL0     H11319   5.532   4.646   8.326 -3.4378 -1.0077 -1.7916
   84MOL0     H11320   5.538   4.945   8.333 -3.2063 -1.4748  0.9912
   84MOL0     H11321   5.607   4.876   8.191  1.9844 -1.7771  0.0545
   84MOL0     H11322   5.194   4.009   8.584  2.0763 -1.4172 -2.5213
   84MOL0     H11323   5.145   3.782   8.631 -2.2367 -1.0603  1.7372
   84MOL0     H11324   4.935   3.562   8.987  0.4996  1.2338 -0.6507
   84MOL0     H11325   5.061   3.380   9.055  1.4086  3.8705 -1.2031
   84MOL0     H11326   5.987   3.739   8.715  0.6621  0.1463  0.3476
   84MOL0     H11327   5.859   3.916   8.814 -0.8382 -0.0398  1.0393
   84MOL0     H11328   5.489   3.948   9.124 -1.3312  1.1066  0.6207
   84MOL0     H11329   5.336   4.086   9.227  0.4640 -1.1273 -0.3883
   84MOL0     H11330   5.211   4.222   9.305 -0.2072 -0.7182  0.7307
   84MOL0     H11331   5.281   4.203   9.466  0.8804 -0.6973  0.1471
   84MOL0     H11332   5.148   4.440   9.335 -1.9356 -1.6496 -1.2736
   84MOL0     H11333   5.215   4.442   9.506 -0.1853 -0.2105  0.5591
   84MOL0     H11334   5.060   4.265   9.576 -2.6448  0.7569  0.6530
   84MOL0     H11335   5.001   4.236   9.411 -0.5996 -0.9219  1.5246
   84MOL0     H11336   4.972   4.505   9.545 -2.7440  0.1241  0.0720
   84MOL0     H11337   4.856   4.364   9.566  2.1282 -0.7658  2.6278
   84MOL0     H11338   4.765   4.535   9.183  1.9575 -0.4508 -0.4361
   84MOL0     H11339   5.632   4.394   9.265 -0.8489 -1.9029  4.1756
   84MOL0     H11340   5.788   4.256   9.151 -1.0968  0.7859  2.0707
   85MOL0     O11341   6.077   1.107   1.542 -0.2837  0.1642 -0.5478
   85MOL0     C11342   6.100   1.010   1.470  0.3358  0.2563 -0.2957
   85MOL0     O11343   6.127   0.890   1.520  0.2054  0.3867  0.1151
   85MOL0     C11344   6.114   0.866   1.654 -0.0289  0.2446  1.0329
   85MOL0     C11345   6.004   0.895   1.728 -0.2248 -0.0651 -0.3980
   85MOL0     C11346   5.996   0.852   1.865 -1.1061  0.1995  0.0334
   85MOL0     C11347   6.092   0.785   1.926 -0.1773 -1.2798  0.2301
   85MOL0     O11348   6.077   0.717   2.046  0.1064 -0.1941  0.2633
   85MOL0     C11349   5.947   0.696   2.102  0.5975  1.0367 -0.0297
   85MOL0     C11350   5.947   0.569   2.189  0.2325  0.0555 -0.3090
   85MOL0     C11351   5.838   0.565   2.297 -0.6068  0.1454  0.4639
   85MOL0     C11352   5.789   0.421   2.322 -0.0981 -0.7446 -0.2887
   85MOL0     C11353   5.688   0.415   2.441 -0.4645  0.6532  0.4470
   85MOL0     C11354   5.620   0.275   2.464 -0.6563 -0.5392  0.0413
   85MOL0     C11355   5.552   0.261   2.599  0.5790  1.0614 -0.4720
   85MOL0     C11356   5.645   0.214   2.721  0.7586 -0.2216  0.4639
   85MOL0     N11357   5.564   0.126   2.812 -0.1445 -1.0649  0.4225
   85MOL0     C11358   5.509   0.001   2.781  0.5960 -0.1029 -0.6729
   85MOL0     C11359   5.438  -0.026   2.897 -0.1581 -0.1371 -0.0082
   85MOL0     C11360   5.341  -0.140   2.904 -0.1928 -0.4359 -0.5294
   85MOL0     C11361   5.195  -0.098   2.936  0.1213 -0.0777  0.7053
   85MOL0     C11362   5.092  -0.206   2.912  0.5783  1.1075 -0.8354
   85MOL0     C11363   5.096  -0.309   3.026 -0.0158  0.7551 -0.2695
   85MOL0     O11364   4.990  -0.405   3.033 -1.3764 -0.9564 -0.8669
   85MOL0     C11365   5.008  -0.509   3.125 -0.7500 -0.2612 -0.3477
   85MOL0     C11366   4.989  -0.635   3.076  0.1415  0.2010  0.2826
   85MOL0     C11367   5.023  -0.750   3.148 -0.0293  0.3810 -0.1388
   85MOL0     C11368   5.037  -0.884   3.073  0.1252 -1.2836 -0.2971
   85MOL0     C11369   5.042  -0.745   3.289  0.0444  0.4240 -0.3746
   85MOL0     C11370   5.064  -0.862   3.378  0.6550 -0.6724  0.3088
   85MOL0     O11371   5.127  -0.835   3.490 -0.4535 -0.1987  0.0370
   85MOL0     C11372   5.175  -0.935   3.563 -0.3825 -0.2856 -0.0803
   85MOL0     C11373   5.178  -0.909   3.707  0.7700 -0.2048  0.5743
   85MOL0     C11374   5.231  -1.009   3.794  0.3924 -1.2221  0.7361
   85MOL0     C11375   5.302  -1.119   3.738  0.4479 -0.0821 -0.6094
   85MOL0     O11376   5.359  -1.216   3.821  0.3756 -0.2737  0.0618
   85MOL0     C11377   5.394  -1.198   3.963 -0.4755  0.6326  0.5079
   85MOL0     C11378   5.498  -1.091   3.980 -0.5664 -0.3966 -0.4374
   85MOL0     C11379   5.651  -1.140   3.947 -0.9232  0.5309 -0.4650
   85MOL0     C11380   5.671  -1.149   3.798  0.2295 -0.8597  0.5384
   85MOL0     C11381   5.809  -1.201   3.755  1.5700 -0.5241 -0.3273
   85MOL0     C11382   5.922  -1.093   3.759  0.4467  0.3709 -0.9762
   85MOL0     C11383   6.054  -1.136   3.699 -0.5070 -0.1321  0.2098
   85MOL0     C11384   6.126  -1.265   3.751  0.6763 -0.1222  0.0401
   85MOL0    Cl11385   6.197  -1.231   3.919 -0.2642  0.4465  0.1661
   85MOL0     C11386   5.298  -1.146   3.607  0.1455  0.3571 -0.4716
   85MOL0     C11387   5.242  -1.059   3.515 -0.0612  0.1178  0.1400
   85MOL0     O11388   5.000  -0.959   3.355  0.0061  0.4032  0.4482
   85MOL0     C11389   5.057  -0.611   3.338 -0.0729  1.0543  0.2745
   85MOL0     C11390   5.051  -0.493   3.263  0.6453 -0.2829  0.6175
   85MOL0     N11391   5.463   0.074   2.991  0.3548 -0.5692  0.1622
   85MOL0     N11392   5.531   0.164   2.935  0.1044 -0.7203 -0.6106
   85MOL0     C11393   6.208   0.756   1.854  0.3413  0.6299 -0.5677
   85MOL0     C11394   6.218   0.795   1.718 -0.6813 -0.4477 -0.7308
   85MOL0     C11395   6.086   1.022   1.320  0.2716  0.1382 -0.5319
   85MOL0     C11396   6.108   1.147   1.256 -0.2351 -0.4317  0.0635
   85MOL0     C11397   6.103   1.162   1.118 -0.0229  0.6879 -0.3645
   85MOL0     C11398   6.071   1.042   1.037  0.2786  0.2210  0.6002
   85MOL0     O11399   6.057   1.038   0.900  0.5431  0.1634 -0.4455
   85MOL0     C11400   6.024   1.157   0.837 -1.0394  0.1369  0.0310
   85MOL0     C11401   5.889   1.216   0.878  0.1791  0.0196 -0.2751
   85MOL0     C11402   5.772   1.143   0.818  0.5300 -0.5206  0.2002
   85MOL0     C11403   5.643   1.183   0.894  0.1212  0.1672  0.5200
   85MOL0     C11404   5.572   1.279   0.809 -0.5458  0.8129 -0.5037
   85MOL0     C11405   5.506   1.364   0.756 -0.7016  0.2990  0.2919
   85MOL0     C11406   6.058   0.914   1.108  0.3557  0.0262  0.0146
   85MOL0     C11407   6.068   0.905   1.246 -1.1298  0.6867 -0.1482
   85MOL0     H11408   5.916   0.937   1.679  0.3868  2.0859  0.2201
   85MOL0     H11409   5.901   0.871   1.913  0.7869  2.2183  3.3453
   85MOL0     H11410   5.928   0.786   2.160  1.1895 -0.4159  2.5697
   85MOL0     H11411   5.871   0.684   2.025  2.2232 -1.2245 -1.4157
   85MOL0     H11412   5.932   0.482   2.125 -0.6753 -1.4517  1.8378
   85MOL0     H11413   6.040   0.558   2.246 -1.0644  0.2869  2.0018
   85MOL0     H11414   5.872   0.615   2.388 -0.4412  0.2110  0.3668
   85MOL0     H11415   5.756   0.634   2.275  0.6749  1.6454  0.2414
   85MOL0     H11416   5.731   0.395   2.234  0.6389  4.0458 -2.5340
   85MOL0     H11417   5.866   0.347   2.344  2.7278  2.1050  0.2329
   85MOL0     H11418   5.740   0.439   2.534  2.0909  2.4061 -1.3125
   85MOL0     H11419   5.610   0.489   2.420 -0.7875 -0.2043 -1.6852
   85MOL0     H11420   5.541   0.259   2.390 -0.9722  0.0559  0.2414
   85MOL0     H11421   5.707   0.208   2.465  0.7635  1.2211 -1.0487
   85MOL0     H11422   5.493   0.351   2.622  1.3781  0.9617  2.2390
   85MOL0     H11423   5.479   0.183   2.575 -0.3295  2.0025 -0.9097
   85MOL0     H11424   5.698   0.299   2.766  0.7144 -0.2859  0.6391
   85MOL0     H11425   5.720   0.142   2.686 -0.8646 -1.2381 -1.1146
   85MOL0     H11426   5.508  -0.057   2.689  2.7121 -0.9442 -0.2129
   85MOL0     H11427   5.344  -0.203   2.815  1.7123  1.5048 -1.9217
   85MOL0     H11428   5.375  -0.195   2.992 -0.1784  1.4577  0.7149
   85MOL0     H11429   5.177  -0.015   2.867 -0.1865  2.1870  3.3199
   85MOL0     H11430   5.179  -0.065   3.040 -0.8379  1.3774  0.1277
   85MOL0     H11431   5.116  -0.250   2.815  4.3353  2.6174 -0.7846
   85MOL0     H11432   4.991  -0.164   2.913  0.7329  1.5902 -2.3527
   85MOL0     H11433   5.100  -0.262   3.125  0.7573 -1.2908  0.7183
   85MOL0     H11434   5.188  -0.368   3.024 -1.0062 -0.9557  1.0517
   85MOL0     H11435   4.956  -0.634   2.973 -2.4134  1.1394  1.0296
   85MOL0     H11436   5.140  -0.920   3.084  1.6970  2.2975 -1.6461
   85MOL0     H11437   4.955  -0.949   3.106 -2.1276  1.0892 -0.8748
   85MOL0     H11438   5.016  -0.864   2.967 -0.6196  2.6172  0.4156
   85MOL0     H11439   5.150  -0.815   3.753 -0.9248  0.8911 -2.3940
   85MOL0     H11440   5.216  -0.999   3.901  1.6034  1.1009  0.7707
   85MOL0     H11441   5.309  -1.162   4.021 -0.6885 -0.1999  0.7266
   85MOL0     H11442   5.422  -1.294   4.007  0.5890  1.2370  1.1761
   85MOL0     H11443   5.471  -1.009   3.913 -1.6056 -1.1153 -0.9192
   85MOL0     H11444   5.509  -1.042   4.078  0.7681 -1.8390  0.1859
   85MOL0     H11445   5.651  -1.243   3.985 -1.7285  1.3335  1.8713
   85MOL0     H11446   5.738  -1.096   3.995 -0.2003 -0.4293 -0.8575
   85MOL0     H11447   5.594  -1.213   3.753 -0.7748  0.8643 -0.2735
   85MOL0     H11448   5.640  -1.054   3.755  0.3745 -1.1490 -0.2423
   85MOL0     H11449   5.798  -1.228   3.649 -2.0064  1.2618 -0.5417
   85MOL0     H11450   5.834  -1.295   3.805  3.2661  1.1966  2.3003
   85MOL0     H11451   5.879  -1.007   3.707 -2.9458 -2.1922 -2.8949
   85MOL0     H11452   5.941  -1.058   3.861  1.5856  0.7780 -1.3136
   85MOL0     H11453   6.127  -1.056   3.714 -0.4290 -0.3964  1.2538
   85MOL0     H11454   6.036  -1.148   3.591 -0.4098  0.3628  0.1325
   85MOL0     H11455   6.205  -1.276   3.676 -1.3874  4.1778 -3.2699
   85MOL0     H11456   6.068  -1.357   3.753  0.4910 -0.0129  2.2490
   85MOL0     H11457   5.351  -1.236   3.576  0.6999  0.2584  0.6943
   85MOL0     H11458   5.245  -1.093   3.412  1.1939 -0.9209  0.5015
   85MOL0     H11459   5.069  -0.598   3.445 -0.6742  1.3238  0.3149
   85MOL0     H11460   5.058  -0.393   3.305 -0.5472 -0.4715  1.3238
   85MOL0     H11461   6.288   0.694   1.894 -0.5512 -0.3249 -0.2227
   85MOL0     H11462   6.305   0.761   1.662 -1.2887  2.8255 -4.0957
   85MOL0     H11463   6.121   1.243   1.305  1.5592 -0.0659 -1.0553
   85MOL0     H11464   6.114   1.264   1.085 -0.3092  0.6290 -0.6484
   85MOL0     H11465   6.111   1.222   0.850  1.8305 -3.2010 -0.8801
   85MOL0     H11466   6.030   1.142   0.729  1.7089 -2.1623  0.3893
   85MOL0     H11467   5.884   1.323   0.853 -3.1175  0.1663  0.5415
   85MOL0     H11468   5.877   1.236   0.985  0.1916  2.4246 -0.6654
   85MOL0     H11469   5.800   1.038   0.825 -2.6414 -1.4321  0.8733
   85MOL0     H11470   5.768   1.154   0.710  1.4146  3.5729  0.4228
   85MOL0     H11471   5.654   1.226   0.994  1.2200  1.0146  0.0584
   85MOL0     H11472   5.583   1.092   0.898  2.5027 -1.4896  0.2452
   85MOL0     H11473   5.446   1.445   0.719  2.1027  1.3545 -2.4140
   85MOL0     H11474   6.038   0.825   1.049  2.1400 -0.5929  0.2809
   85MOL0     H11475   6.049   0.810   1.295 -1.8629  0.4223 -0.9217
   86MOL0     O11476   2.124  10.554   8.714  0.6824  0.0716 -0.0749
   86MOL0     C11477   2.241  10.554   8.734  0.3668 -0.2241  0.4468
   86MOL0     O11478   2.312  10.653   8.807  0.2295 -0.0844  0.8457
   86MOL0     C11479   2.244  10.753   8.880 -0.1676 -0.3624  0.1105
   86MOL0     C11480   2.255  10.757   9.021  0.3174  0.0717  0.7515
   86MOL0     C11481   2.186  10.856   9.096 -0.3271 -0.6202 -0.1619
   86MOL0     C11482   2.098  10.950   9.035 -0.0682  0.4698 -0.5170
   86MOL0     O11483   2.034  11.049   9.111 -0.2325  0.2307 -0.3607
   86MOL0     C11484   1.956  10.994   9.218  0.1216  0.2347 -0.0094
   86MOL0     C11485   1.808  11.045   9.218  0.9849  0.5476  0.9774
   86MOL0     C11486   1.689  10.944   9.192 -0.2891 -1.3487 -0.2595
   86MOL0     C11487   1.552  11.029   9.199  0.3003 -0.0576 -0.0587
   86MOL0     C11488   1.433  10.967   9.122  0.3658  0.1547  0.3732
   86MOL0     C11489   1.417  11.023   8.980 -0.1337  0.4256  0.0560
   86MOL0     C11490   1.302  10.947   8.900 -0.2144 -0.8550 -1.1355
   86MOL0     C11491   1.272  10.996   8.756 -0.2136  0.3212  0.3409
   86MOL0     N11492   1.149  10.930   8.707  0.4029  0.7868  0.0814
   86MOL0     C11493   1.148  10.814   8.626 -0.5241 -0.3711 -0.5666
   86MOL0     C11494   1.016  10.781   8.605  1.0647  0.1111 -0.0857
   86MOL0     C11495   0.964  10.657   8.537 -0.4365 -0.3651  0.5769
   86MOL0     C11496   1.033  10.636   8.402 -0.1275 -0.1151  0.1440
   86MOL0     C11497   0.975  10.737   8.307  0.6047 -0.3532  0.1396
   86MOL0     C11498   1.025  10.719   8.172  0.7204 -0.8636  0.3095
   86MOL0     O11499   0.933  10.798   8.095 -1.0699 -0.1047  0.4184
   86MOL0     C11500   0.978  10.812   7.969  0.2186  0.0102 -0.2115
   86MOL0     C11501   1.032  10.934   7.934 -1.3619 -0.0298 -1.0596
   86MOL0     C11502   1.099  10.952   7.821  0.9070  0.3584  0.7676
   86MOL0     C11503   1.188  11.080   7.816  0.7645  0.7717 -0.1727
   86MOL0     C11504   1.088  10.862   7.708 -0.1979  0.6225 -0.7746
   86MOL0     C11505   1.141  10.889   7.577 -0.4831  0.4642  1.1246
   86MOL0     O11506   1.195  11.003   7.540  0.3192  0.0874 -0.4130
   86MOL0     C11507   1.315  11.011   7.481  0.2457 -0.1806  0.9436
   86MOL0     C11508   1.386  10.911   7.420 -0.0017 -0.1969  0.4988
   86MOL0     C11509   1.525  10.925   7.393 -0.3104 -0.0433 -0.7830
   86MOL0     C11510   1.589  11.051   7.410  0.9570 -1.0326 -1.0994
   86MOL0     O11511   1.729  11.070   7.390  0.0200  0.0616  0.4297
   86MOL0     C11512   1.754  11.190   7.318 -0.4804 -0.3674 -0.1782
   86MOL0     C11513   1.903  11.185   7.268 -0.5369 -1.2042 -0.6218
   86MOL0     C11514   1.918  11.282   7.149 -0.0352 -0.5184  0.4618
   86MOL0     C11515   1.870  11.428   7.166 -0.2441  0.6976  0.0701
   86MOL0     C11516   1.900  11.507   7.038 -0.5358 -0.4868 -0.9322
   86MOL0     C11517   1.843  11.656   7.029 -0.4973  0.5208  0.1152
   86MOL0     C11518   1.900  11.737   6.909 -0.6663 -0.5417  0.3290
   86MOL0     C11519   1.861  11.889   6.936  0.7151  0.1545  1.2090
   86MOL0    Cl11520   1.952  11.984   7.059 -0.1633  0.2050 -0.4113
   86MOL0     C11521   1.513  11.152   7.464 -0.6894 -0.2382 -0.5043
   86MOL0     C11522   1.379  11.133   7.494 -0.0111  0.1860 -0.1250
   86MOL0     O11523   1.130  10.787   7.506 -0.2068  0.1581  0.3953
   86MOL0     C11524   1.028  10.735   7.739  0.9497  0.0129 -0.9524
   86MOL0     C11525   0.978  10.715   7.868  0.3872 -0.1606 -1.0574
   86MOL0     N11526   0.942  10.884   8.656  0.0488  0.0185 -0.1367
   86MOL0     N11527   1.022  10.969   8.723  0.0395  0.0289  1.1730
   86MOL0     C11528   2.096  10.948   8.892  1.2824 -0.3847  0.3360
   86MOL0     C11529   2.174  10.854   8.814  0.0271  0.2079 -0.4286
   86MOL0     C11530   2.313  10.424   8.714  0.1735  0.6614  0.2378
   86MOL0     C11531   2.444  10.412   8.761 -0.7922  0.8560 -0.0058
   86MOL0     C11532   2.521  10.290   8.745 -0.0240 -0.3363  0.6840
   86MOL0     C11533   2.464  10.181   8.676  0.9565  0.5554  0.7482
   86MOL0     O11534   2.529  10.063   8.677  0.4165  0.5457 -0.5105
   86MOL0     C11535   2.455   9.950   8.741  0.1020 -0.0469  0.4902
   86MOL0     C11536   2.522   9.892   8.868  0.1595 -0.3965  0.2000
   86MOL0     C11537   2.640   9.793   8.836  0.1373 -1.1912  0.5508
   86MOL0     C11538   2.767   9.878   8.807 -1.1928  0.0366  0.3330
   86MOL0     C11539   2.886   9.795   8.762 -0.5667  0.1071  0.3682
   86MOL0     C11540   2.982   9.730   8.713  0.0389 -0.9921  0.2467
   86MOL0     C11541   2.343  10.209   8.607 -0.5203  0.0641  0.3779
   86MOL0     C11542   2.267  10.318   8.630 -0.3531 -0.1102 -0.3834
   86MOL0     H11543   2.313  10.684   9.077 -1.9698  0.6608  4.1796
   86MOL0     H11544   2.201  10.847   9.203 -4.0951  0.4248  0.6148
   86MOL0     H11545   1.945  10.886   9.204 -2.0009  0.5942 -1.5144
   86MOL0     H11546   2.003  11.010   9.315  2.2195  0.8716 -1.0716
   86MOL0     H11547   1.798  11.099   9.312  1.3340  2.7133 -0.1492
   86MOL0     H11548   1.809  11.112   9.131  1.6742  1.7038  1.8386
   86MOL0     H11549   1.705  10.888   9.099  2.3528 -0.7579 -0.2430
   86MOL0     H11550   1.698  10.864   9.266  2.4001  0.8609  2.0274
   86MOL0     H11551   1.520  11.023   9.303 -2.0730 -3.5597 -0.8295
   86MOL0     H11552   1.571  11.131   9.166  0.7411 -0.8077 -2.3216
   86MOL0     H11553   1.458  10.862   9.104  0.5119  0.4076 -1.0738
   86MOL0     H11554   1.340  10.967   9.179  1.0179 -0.3688  1.4696
   86MOL0     H11555   1.394  11.130   8.983 -2.2656  0.1972 -2.9949
   86MOL0     H11556   1.510  11.008   8.923 -1.0060 -1.5899 -0.9690
   86MOL0     H11557   1.331  10.843   8.886  0.4287 -1.1183  1.6026
   86MOL0     H11558   1.205  10.954   8.952  0.6049 -2.0734  0.6574
   86MOL0     H11559   1.360  10.968   8.697  1.2816  1.4302  1.9339
   86MOL0     H11560   1.255  11.103   8.747  2.2267  0.6426 -1.2942
   86MOL0     H11561   1.239  10.764   8.591  0.7872  0.6001  1.2988
   86MOL0     H11562   0.975  10.573   8.605  0.5361 -0.5050  0.2600
   86MOL0     H11563   0.857  10.657   8.514  0.1173  0.0077 -2.4399
   86MOL0     H11564   1.002  10.537   8.368 -3.0228  0.2592  1.4107
   86MOL0     H11565   1.140  10.656   8.416 -0.0168  4.7214 -4.4223
   86MOL0     H11566   1.006  10.839   8.335  0.2873 -0.3680  0.5586
   86MOL0     H11567   0.867  10.720   8.306  0.5017  0.1429 -2.2273
   86MOL0     H11568   1.026  10.616   8.135  2.3019 -0.6788 -0.2441
   86MOL0     H11569   1.127  10.757   8.161  1.3375 -1.0432  4.0808
   86MOL0     H11570   1.030  11.010   8.012 -0.8874  0.2277 -1.2947
   86MOL0     H11571   1.150  11.138   7.732 -0.7687 -2.4646 -1.9065
   86MOL0     H11572   1.194  11.132   7.912 -2.1818  3.0309 -1.0466
   86MOL0     H11573   1.290  11.044   7.802  0.7848  0.0546  1.4899
   86MOL0     H11574   1.336  10.815   7.421 -3.4744  1.4459 -0.0351
   86MOL0     H11575   1.587  10.845   7.355 -0.6123  0.2612 -1.9521
   86MOL0     H11576   1.684  11.209   7.236 -0.2242  2.8070  0.1936
   86MOL0     H11577   1.728  11.280   7.374 -1.6999  1.2432 -3.0860
   86MOL0     H11578   1.972  11.201   7.352  1.0793 -3.6548 -1.3759
   86MOL0     H11579   1.932  11.091   7.220  3.7016 -0.6443  0.4454
   86MOL0     H11580   1.857  11.240   7.069 -2.6849 -1.5573  2.8531
   86MOL0     H11581   2.025  11.294   7.130 -0.5138  2.3858 -0.8354
   86MOL0     H11582   1.761  11.427   7.169 -0.3347 -2.0315  3.9729
   86MOL0     H11583   1.921  11.473   7.252 -2.7405 -1.9774  3.2380
   86MOL0     H11584   1.862  11.443   6.958 -2.1414 -3.2205  1.7638
   86MOL0     H11585   2.008  11.518   7.025 -0.5135 -1.8417 -2.2102
   86MOL0     H11586   1.734  11.647   7.025 -0.5042  0.8516 -0.7725
   86MOL0     H11587   1.869  11.696   7.127  0.6397 -0.7721  0.3660
   86MOL0     H11588   1.851  11.705   6.817  2.3211 -0.0277 -1.5885
   86MOL0     H11589   2.007  11.714   6.899 -0.7691 -1.0444  0.3428
   86MOL0     H11590   1.752  11.880   6.945  0.7890 -1.0512  1.1308
   86MOL0     H11591   1.892  11.945   6.847  3.4072 -0.0754  1.9124
   86MOL0     H11592   1.556  11.251   7.473 -2.5750  0.5262  0.8063
   86MOL0     H11593   1.320  11.212   7.539  0.4533  1.3438 -1.4736
   86MOL0     H11594   1.036  10.652   7.670  2.1710 -0.2398 -0.5156
   86MOL0     H11595   0.927  10.623   7.894  1.3588 -0.2879  0.6117
   86MOL0     H11596   2.033  11.015   8.835 -0.9866 -2.1374  0.6629
   86MOL0     H11597   2.180  10.852   8.706 -1.2858  1.1109 -0.5396
   86MOL0     H11598   2.497  10.486   8.821  1.6046 -0.6154 -0.1496
   86MOL0     H11599   2.618  10.273   8.792  1.3428  0.3818 -1.6889
   86MOL0     H11600   2.354   9.985   8.766  0.2855  0.6500  0.2804
   86MOL0     H11601   2.442   9.868   8.670  1.0493 -1.9942  2.4527
   86MOL0     H11602   2.448   9.835   8.925  0.1093  0.3399  0.8911
   86MOL0     H11603   2.554   9.970   8.938  2.7682 -2.9723  2.1954
   86MOL0     H11604   2.621   9.720   8.757  1.0305 -0.4891 -0.3390
   86MOL0     H11605   2.660   9.732   8.925  1.3064 -2.6163 -0.6276
   86MOL0     H11606   2.784   9.931   8.901 -0.9200  1.7412 -0.6298
   86MOL0     H11607   2.756   9.955   8.730 -0.1570  2.1797  2.2267
   86MOL0     H11608   3.056   9.676   8.657 -1.5041 -0.7446 -2.2028
   86MOL0     H11609   2.310  10.130   8.540  1.5798 -0.2986 -0.3212
   86MOL0     H11610   2.195  10.354   8.557  0.0083 -0.7606 -1.0810
   87MOL0     O11611   5.485   7.989   5.014 -0.1492  1.4537  0.1709
   87MOL0     C11612   5.484   7.950   5.135 -0.3744  0.0394 -0.4885
   87MOL0     O11613   5.407   8.002   5.234  0.5101 -0.6080  0.5390
   87MOL0     C11614   5.290   8.055   5.201  0.1479  0.6021  0.6138
   87MOL0     C11615   5.198   7.985   5.130 -0.2122 -0.5600 -0.4700
   87MOL0     C11616   5.068   8.022   5.099  0.2293  0.8578 -0.0321
   87MOL0     C11617   5.029   8.137   5.164  1.0065 -0.1655 -0.0472
   87MOL0     O11618   4.911   8.211   5.155  0.4721  0.2348 -0.1803
   87MOL0     C11619   4.783   8.152   5.119 -0.8476  0.3177 -0.1656
   87MOL0     C11620   4.704   8.247   5.037  0.3187  0.7535  1.1181
   87MOL0     C11621   4.752   8.242   4.888  0.0293  0.2554 -0.5807
   87MOL0     C11622   4.669   8.150   4.791  0.7097 -0.2475  0.0341
   87MOL0     C11623   4.608   8.229   4.678 -0.5131 -0.7516 -0.2068
   87MOL0     C11624   4.493   8.323   4.727 -0.4411  0.0556  1.1565
   87MOL0     C11625   4.464   8.448   4.644 -0.0484 -0.7168  0.1172
   87MOL0     C11626   4.429   8.420   4.497 -0.0965 -0.0780 -0.1091
   87MOL0     N11627   4.349   8.520   4.441 -0.0677  0.2163  0.4515
   87MOL0     C11628   4.384   8.640   4.391  0.4394 -0.5857  0.2241
   87MOL0     C11629   4.278   8.716   4.392  0.5925 -0.3482  0.6654
   87MOL0     C11630   4.266   8.861   4.335 -0.7144 -0.0145 -0.0901
   87MOL0     C11631   4.120   8.912   4.362  0.7779 -0.4315  1.1929
   87MOL0     C11632   4.105   8.958   4.508 -0.4814 -0.5195  0.4319
   87MOL0     C11633   3.972   8.990   4.556  1.3198 -0.3385 -0.8242
   87MOL0     O11634   3.910   9.089   4.465  0.1990 -0.3008 -0.3676
   87MOL0     C11635   3.794   9.148   4.512  0.1934  0.3623 -1.4102
   87MOL0     C11636   3.690   9.087   4.586  0.2132 -0.0163 -0.1453
   87MOL0     C11637   3.578   9.153   4.629  0.0184  0.3230  0.9351
   87MOL0     C11638   3.488   9.061   4.708 -0.3238  0.0872 -0.6695
   87MOL0     C11639   3.547   9.284   4.587  0.2352  0.0850 -0.2826
   87MOL0     C11640   3.423   9.359   4.628  0.3104 -0.3340  0.5671
   87MOL0     O11641   3.321   9.294   4.702  0.3711 -0.0867  0.1756
   87MOL0     C11642   3.223   9.374   4.757  0.0932  0.5607 -0.0849
   87MOL0     C11643   3.237   9.506   4.821 -0.6736  0.7836  0.1957
   87MOL0     C11644   3.124   9.577   4.861  0.5203 -0.0666  0.4258
   87MOL0     C11645   2.992   9.523   4.850 -0.1692  0.1047  0.2675
   87MOL0     O11646   2.888   9.586   4.908  0.0617 -0.9525  0.0653
   87MOL0     C11647   2.894   9.636   5.040  0.9155 -0.7787 -0.1201
   87MOL0     C11648   2.791   9.753   5.043  1.1823 -0.6876 -0.0781
   87MOL0     C11649   2.781   9.820   5.176 -0.3737  0.8956 -0.1554
   87MOL0     C11650   2.665   9.922   5.168 -0.2079  0.0443  0.7406
   87MOL0     C11651   2.650   9.985   5.309  0.0385 -0.1406 -0.4786
   87MOL0     C11652   2.524  10.074   5.315  0.2240 -0.5069  0.1482
   87MOL0     C11653   2.472  10.102   5.456  0.3515 -0.3004 -0.0319
   87MOL0     C11654   2.317  10.128   5.468 -0.9252  0.0694 -0.0590
   87MOL0    Cl11655   2.223   9.980   5.464 -0.7301 -0.1345 -0.0134
   87MOL0     C11656   2.978   9.399   4.787  0.8905 -0.1580 -0.0847
   87MOL0     C11657   3.092   9.332   4.732 -0.3130 -0.6264 -0.4714
   87MOL0     O11658   3.420   9.481   4.603 -0.0563 -0.1240  0.7125
   87MOL0     C11659   3.648   9.347   4.513  0.5204  0.2743 -0.3222
   87MOL0     C11660   3.770   9.282   4.483 -1.1091 -0.3631 -0.2410
   87MOL0     N11661   4.173   8.647   4.439  0.5452  0.3340 -0.2344
   87MOL0     N11662   4.220   8.525   4.472 -0.0205  0.1671 -0.3733
   87MOL0     C11663   5.115   8.217   5.241  0.4099  0.1627  0.5339
   87MOL0     C11664   5.250   8.168   5.260 -0.5789 -0.7448 -0.0952
   87MOL0     C11665   5.597   7.854   5.166 -0.0597  0.3394 -0.1103
   87MOL0     C11666   5.650   7.765   5.076 -0.2687  0.3645  0.0172
   87MOL0     C11667   5.763   7.689   5.103  0.0315  1.0306 -0.0821
   87MOL0     C11668   5.822   7.681   5.230  0.2582 -0.4442 -0.1546
   87MOL0     O11669   5.933   7.607   5.237 -0.6811 -0.5264  0.0940
   87MOL0     C11670   6.028   7.644   5.336 -0.5726  0.0132  0.9797
   87MOL0     C11671   6.170   7.599   5.292 -0.7227 -0.0058  0.0592
   87MOL0     C11672   6.239   7.691   5.193  0.6771  0.0236  0.6610
   87MOL0     C11673   6.341   7.621   5.096 -0.4325 -0.1283  0.1093
   87MOL0     C11674   6.452   7.547   5.164 -0.1966 -0.2527 -0.4934
   87MOL0     C11675   6.538   7.474   5.216 -0.4231 -0.1314  0.2708
   87MOL0     C11676   5.757   7.751   5.329  0.1584  0.0145  0.6427
   87MOL0     C11677   5.650   7.844   5.297 -0.1237  0.8229 -0.9130
   87MOL0     H11678   5.237   7.901   5.074  1.4520 -0.6548  0.7586
   87MOL0     H11679   5.015   7.959   5.028  2.8872 -0.2973 -1.1205
   87MOL0     H11680   4.793   8.056   5.068  1.0332 -0.1814  1.0240
   87MOL0     H11681   4.725   8.130   5.209  0.5212  0.0587  0.6835
   87MOL0     H11682   4.597   8.223   5.033  0.2349  1.0737 -2.6295
   87MOL0     H11683   4.714   8.348   5.078 -0.5674  1.0916  0.5332
   87MOL0     H11684   4.744   8.344   4.850 -1.0758  0.5928  0.4981
   87MOL0     H11685   4.858   8.216   4.887 -0.3257 -1.2577 -0.6148
   87MOL0     H11686   4.747   8.084   4.754  0.1862 -0.8553 -0.0067
   87MOL0     H11687   4.593   8.086   4.837 -0.1319 -1.4168 -2.7953
   87MOL0     H11688   4.679   8.296   4.630 -1.3647 -1.1565 -2.1417
   87MOL0     H11689   4.568   8.165   4.599 -2.1362 -1.6775  1.2864
   87MOL0     H11690   4.402   8.263   4.732 -1.4410  1.4620  0.5662
   87MOL0     H11691   4.496   8.364   4.829  1.5947  2.5936  0.1996
   87MOL0     H11692   4.369   8.486   4.684  0.0891 -0.2996  0.0527
   87MOL0     H11693   4.542   8.524   4.648  1.2150 -1.9271 -0.5449
   87MOL0     H11694   4.369   8.328   4.496 -0.7699  0.3228  1.3416
   87MOL0     H11695   4.517   8.422   4.432 -0.9831  0.3895 -1.3449
   87MOL0     H11696   4.482   8.672   4.356  0.6096  0.5199  1.6479
   87MOL0     H11697   4.337   8.922   4.391  1.7914 -0.8981 -2.0995
   87MOL0     H11698   4.285   8.872   4.228 -0.1924 -0.0689 -0.0085
   87MOL0     H11699   4.036   8.848   4.331  0.4462  1.2320 -1.6871
   87MOL0     H11700   4.092   8.999   4.302  0.4367  0.5369  2.7071
   87MOL0     H11701   4.168   9.047   4.522 -1.8981  0.3795  1.2612
   87MOL0     H11702   4.162   8.891   4.574  4.3044  0.4922 -2.1843
   87MOL0     H11703   3.966   9.044   4.651 -0.4220  0.2860 -1.2568
   87MOL0     H11704   3.908   8.902   4.563  0.1620  0.5550  0.5228
   87MOL0     H11705   3.709   8.983   4.611 -0.2346 -0.2749 -0.8791
   87MOL0     H11706   3.493   9.093   4.812 -1.4079  2.2162 -1.2076
   87MOL0     H11707   3.387   9.076   4.668 -0.1228 -0.1671 -1.2898
   87MOL0     H11708   3.517   8.957   4.693  1.3358  0.2822  0.9827
   87MOL0     H11709   3.336   9.550   4.810 -1.6073  2.3012 -4.1075
   87MOL0     H11710   3.145   9.679   4.894  0.4909  0.0229  0.1703
   87MOL0     H11711   2.879   9.564   5.120  2.6519 -0.5880  0.4094
   87MOL0     H11712   2.990   9.684   5.063  0.9530 -2.0581  2.7437
   87MOL0     H11713   2.823   9.835   4.979  1.0050  2.2613  3.3005
   87MOL0     H11714   2.688   9.724   5.019 -0.0867  3.8240 -1.0344
   87MOL0     H11715   2.878   9.862   5.205  0.4698 -0.1702 -1.2908
   87MOL0     H11716   2.748   9.759   5.260 -0.4363  1.1846  0.0328
   87MOL0     H11717   2.684   9.989   5.084  2.2709  1.1498  2.0556
   87MOL0     H11718   2.568   9.875   5.149 -0.9914  1.4351  1.1241
   87MOL0     H11719   2.745  10.032   5.337  0.1136 -1.5564  1.9023
   87MOL0     H11720   2.638   9.901   5.378 -1.3784 -0.9603 -1.6661
   87MOL0     H11721   2.529  10.164   5.253  1.3909 -1.9531 -1.9494
   87MOL0     H11722   2.450  10.004   5.274  1.9638 -1.8345 -0.8347
   87MOL0     H11723   2.522  10.194   5.488 -2.0371  0.8827  0.6013
   87MOL0     H11724   2.493  10.020   5.525  0.8364  0.6754  1.0106
   87MOL0     H11725   2.266  10.196   5.399  0.1621 -0.3391 -1.3164
   87MOL0     H11726   2.305  10.172   5.567  3.3609  0.3169  0.5670
   87MOL0     H11727   2.884   9.364   4.745  1.8585 -0.7742 -1.8479
   87MOL0     H11728   3.065   9.252   4.663  0.0931 -0.9521 -0.2549
   87MOL0     H11729   3.637   9.449   4.478 -1.4346  0.6164  1.1291
   87MOL0     H11730   3.849   9.335   4.430 -2.3473  1.9502  0.1168
   87MOL0     H11731   5.078   8.310   5.283 -3.2421 -0.7915 -0.1717
   87MOL0     H11732   5.307   8.231   5.327 -1.9480  2.2612 -1.5296
   87MOL0     H11733   5.594   7.758   4.983 -1.4604 -1.8315  0.8474
   87MOL0     H11734   5.805   7.633   5.020  2.6393  1.9194  0.5198
   87MOL0     H11735   6.040   7.752   5.347  3.4553  0.0716 -1.7752
   87MOL0     H11736   6.000   7.599   5.432  1.6805 -1.2761  1.1098
   87MOL0     H11737   6.156   7.504   5.239 -3.0624  0.1708  0.2948
   87MOL0     H11738   6.228   7.590   5.385  1.3669 -1.6175 -1.3065
   87MOL0     H11739   6.272   7.785   5.236 -3.0343  2.5776 -1.4918
   87MOL0     H11740   6.162   7.730   5.126  1.2663  0.1858  0.0725
   87MOL0     H11741   6.386   7.695   5.029  0.0739  3.3535  3.8530
   87MOL0     H11742   6.276   7.550   5.044  0.5467 -1.8019  1.0655
   87MOL0     H11743   6.619   7.417   5.258  0.9186  1.4024 -0.1220
   87MOL0     H11744   5.782   7.742   5.434  3.3147  1.2642  0.0954
   87MOL0     H11745   5.618   7.903   5.382  1.8551 -0.1436  0.5830
   88MOL0     O11746   1.890   0.159  11.079 -0.8072  0.4675 -0.0547
   88MOL0     C11747   1.991   0.154  11.021 -0.6117  0.1451 -0.1048
   88MOL0     O11748   2.011   0.191  10.892  0.8071  0.3969  0.0368
   88MOL0     C11749   1.926   0.249  10.803  0.0632  1.0629  0.7884
   88MOL0     C11750   1.958   0.237  10.670  0.7841 -0.1591 -0.5364
   88MOL0     C11751   1.898   0.304  10.567  0.3563  0.0155 -1.1328
   88MOL0     C11752   1.793   0.389  10.591  0.3933 -1.3291 -0.2233
   88MOL0     O11753   1.748   0.451  10.476 -0.4067  0.3851  0.6060
   88MOL0     C11754   1.672   0.572  10.500 -0.1116 -0.2733 -0.2944
   88MOL0     C11755   1.517   0.563  10.515 -0.8067 -0.3561 -0.1760
   88MOL0     C11756   1.445   0.683  10.569 -0.9488 -0.0726  0.9107
   88MOL0     C11757   1.310   0.638  10.631 -0.5310 -0.5097  0.4564
   88MOL0     C11758   1.205   0.749  10.649  0.3820  0.2977 -0.5731
   88MOL0     C11759   1.261   0.871  10.727  0.2627 -0.7646  0.2616
   88MOL0     C11760   1.164   0.993  10.730 -0.3527 -0.1324  0.1168
   88MOL0     C11761   1.201   1.101  10.821 -0.9692  0.4103 -0.9167
   88MOL0     N11762   1.330   1.171  10.799  0.2711 -0.3839 -0.0316
   88MOL0     C11763   1.410   1.153  10.684  1.0784 -0.8407  0.6938
   88MOL0     C11764   1.530   1.202  10.713 -0.9917  1.3634  0.3092
   88MOL0     C11765   1.659   1.201  10.627 -0.1172  0.0043 -0.3279
   88MOL0     C11766   1.793   1.223  10.699 -0.3416 -0.5448 -1.0083
   88MOL0     C11767   1.918   1.209  10.608 -1.2136 -0.4829 -0.2073
   88MOL0     C11768   1.947   1.066  10.591 -0.4573  0.3763 -0.0391
   88MOL0     O11769   2.053   1.045  10.493 -0.1416 -0.0730 -0.9727
   88MOL0     C11770   2.088   0.915  10.466  0.6144 -0.2812  0.6951
   88MOL0     C11771   2.215   0.898  10.417 -0.2000 -0.2441  0.8317
   88MOL0     C11772   2.265   0.776  10.363 -0.6008 -0.0259  0.4533
   88MOL0     C11773   2.409   0.777  10.309  0.0546 -0.5519  0.3748
   88MOL0     C11774   2.179   0.668  10.360 -0.4068 -0.3216  0.0689
   88MOL0     C11775   2.215   0.540  10.301  0.4844  0.3036 -0.0045
   88MOL0     O11776   2.326   0.526  10.216  0.8302 -0.2644  0.1297
   88MOL0     C11777   2.396   0.412  10.211  0.2164 -0.1722 -0.0345
   88MOL0     C11778   2.337   0.288  10.187  0.0723  0.3643 -0.5356
   88MOL0     C11779   2.421   0.172  10.156  0.6787  1.1237 -0.5737
   88MOL0     C11780   2.561   0.181  10.167 -0.0424 -0.5488  0.0751
   88MOL0     O11781   2.628   0.069  10.129 -0.7225  0.3477 -0.2283
   88MOL0     C11782   2.769   0.085  10.110  0.9220  0.2048  0.7585
   88MOL0     C11783   2.820  -0.032  10.038  0.1841  0.9289 -0.8368
   88MOL0     C11784   2.839  -0.142  10.144 -0.3335  0.1799 -0.8690
   88MOL0     C11785   2.860  -0.284  10.086  0.0835 -0.3027  0.6002
   88MOL0     C11786   2.878  -0.399  10.178  0.6857 -0.0812 -0.9218
   88MOL0     C11787   3.008  -0.395  10.250  0.0689 -0.5492  0.2686
   88MOL0     C11788   3.015  -0.509  10.353  0.9212  0.7603  0.7826
   88MOL0     C11789   3.130  -0.491  10.448  0.2565 -0.2444  0.1215
   88MOL0    Cl11790   3.275  -0.498  10.349  0.2874 -0.2766 -0.2947
   88MOL0     C11791   2.614   0.306  10.206 -0.0473 -1.1965  0.2211
   88MOL0     C11792   2.535   0.417  10.228 -0.0250  0.4869  0.4189
   88MOL0     O11793   2.145   0.449  10.342  0.3448 -0.6365  0.1530
   88MOL0     C11794   2.054   0.690  10.409  0.4399  0.0697 -0.7211
   88MOL0     C11795   2.000   0.812  10.459  0.0157 -0.0567  0.6072
   88MOL0     N11796   1.531   1.251  10.841  0.2222 -0.6540  0.3062
   88MOL0     N11797   1.414   1.234  10.888  0.9729 -0.5712  0.2605
   88MOL0     C11798   1.752   0.404  10.729  0.4828  0.5006  0.0274
   88MOL0     C11799   1.821   0.338  10.834 -0.1693  0.0583 -0.2224
   88MOL0     C11800   2.101   0.115  11.107 -0.0256  0.7919  0.7810
   88MOL0     C11801   2.239   0.116  11.059  0.5228 -0.1034 -0.1863
   88MOL0     C11802   2.344   0.078  11.147 -0.1656  0.3749 -0.1695
   88MOL0     C11803   2.311   0.044  11.281  0.0321 -0.5479  0.3281
   88MOL0     O11804   2.404   0.012  11.383  0.4069  0.0684  0.7368
   88MOL0     C11805   2.531  -0.046  11.348 -0.2488  0.9763  0.8685
   88MOL0     C11806   2.624  -0.026  11.465 -0.8883 -0.0863 -0.4491
   88MOL0     C11807   2.618   0.100  11.546 -0.5900 -1.7038  0.0895
   88MOL0     C11808   2.677   0.223  11.469  0.1909 -0.4013  0.5056
   88MOL0     C11809   2.570   0.318  11.428 -0.3172 -0.0816  0.3209
   88MOL0     C11810   2.461   0.382  11.405 -0.2873 -0.2775 -0.1418
   88MOL0     C11811   2.180   0.044  11.326  0.2898 -0.3310  0.7971
   88MOL0     C11812   2.078   0.080  11.239  0.8312 -0.0840  0.4612
   88MOL0     H11813   2.046   0.185  10.633 -1.9902 -3.6143 -3.0077
   88MOL0     H11814   1.936   0.300  10.465 -2.4840 -1.1226 -2.2434
   88MOL0     H11815   1.722   0.629  10.579  0.0592  0.2485 -0.7714
   88MOL0     H11816   1.679   0.627  10.406  0.3195 -2.2615 -1.5053
   88MOL0     H11817   1.483   0.542  10.413  0.5188  0.5590 -0.8435
   88MOL0     H11818   1.499   0.482  10.587  1.0943 -0.7942 -0.1227
   88MOL0     H11819   1.506   0.740  10.640  1.4181  0.7907 -1.6480
   88MOL0     H11820   1.437   0.747  10.481 -0.5343  0.2249  1.0817
   88MOL0     H11821   1.268   0.550  10.581  1.6601 -1.7427  0.6308
   88MOL0     H11822   1.337   0.601  10.730 -0.8445 -3.2208 -0.3903
   88MOL0     H11823   1.161   0.777  10.553 -1.4104 -0.1413  0.0828
   88MOL0     H11824   1.124   0.711  10.710  1.1298 -1.2590 -0.4905
   88MOL0     H11825   1.279   0.836  10.828 -0.2455 -1.8712 -0.0184
   88MOL0     H11826   1.358   0.895  10.682  1.3054 -2.7681  1.3156
   88MOL0     H11827   1.144   1.027  10.629 -1.4148  1.7953  0.9179
   88MOL0     H11828   1.069   0.955  10.771 -0.0754 -0.3387  0.5843
   88MOL0     H11829   1.197   1.058  10.922  0.6085 -0.8626 -1.3497
   88MOL0     H11830   1.126   1.180  10.815  0.4796  1.7465 -1.8472
   88MOL0     H11831   1.379   1.113  10.588 -0.2771  0.0725  0.7272
   88MOL0     H11832   1.662   1.101  10.584  2.0921 -0.9535  1.8071
   88MOL0     H11833   1.648   1.268  10.541  0.5483  1.5100  0.7122
   88MOL0     H11834   1.797   1.154  10.785 -3.1404  2.9654  2.3081
   88MOL0     H11835   1.795   1.324  10.741  1.2980 -0.0906 -2.1124
   88MOL0     H11836   2.008   1.260  10.643 -1.3670  1.7927 -2.7757
   88MOL0     H11837   1.907   1.255  10.510  1.2730  1.1824  0.2052
   88MOL0     H11838   1.856   1.009  10.571 -0.3764 -0.0911  0.8466
   88MOL0     H11839   1.981   1.021  10.685 -3.2200 -0.9065  0.4724
   88MOL0     H11840   2.274   0.989  10.411  3.5723 -2.5542 -0.8834
   88MOL0     H11841   2.470   0.692  10.342  4.0408  2.0184  0.3664
   88MOL0     H11842   2.399   0.770  10.200  0.1246  0.7963  0.2733
   88MOL0     H11843   2.469   0.866  10.330 -0.5030  0.0945 -0.7286
   88MOL0     H11844   2.231   0.268  10.171  0.4118 -0.9162 -1.3522
   88MOL0     H11845   2.364   0.085  10.126  0.5206  0.6463  1.0459
   88MOL0     H11846   2.780   0.172  10.044  0.9620 -0.5300 -0.2129
   88MOL0     H11847   2.828   0.105  10.200 -1.3521  0.7881  2.1943
   88MOL0     H11848   2.756  -0.071   9.958 -0.0534  0.1048 -0.2535
   88MOL0     H11849   2.918  -0.012   9.994 -0.7394  0.6520 -3.1665
   88MOL0     H11850   2.750  -0.140  10.208  0.1041  0.5411 -0.2623
   88MOL0     H11851   2.913  -0.114  10.219 -2.0256  0.5709  0.7260
   88MOL0     H11852   2.773  -0.305  10.023  2.0003 -1.8866 -1.6804
   88MOL0     H11853   2.941  -0.268  10.013 -1.4864  3.0443 -0.6452
   88MOL0     H11854   2.867  -0.495  10.125  0.6560 -0.9381  0.5955
   88MOL0     H11855   2.799  -0.397  10.253 -0.1197  1.0615 -1.7661
   88MOL0     H11856   3.095  -0.394  10.183 -1.2707 -0.4577 -1.5356
   88MOL0     H11857   3.024  -0.305  10.311  2.2504 -1.5605  1.2700
   88MOL0     H11858   3.034  -0.598  10.292 -2.2771 -1.2278  2.4108
   88MOL0     H11859   2.922  -0.519  10.409  0.0179 -3.9422 -1.0666
   88MOL0     H11860   3.133  -0.578  10.513 -1.9421  0.6473  1.5542
   88MOL0     H11861   3.127  -0.397  10.505  3.5469  1.1065 -1.6505
   88MOL0     H11862   2.720   0.326  10.223 -0.1976  0.2725 -0.4255
   88MOL0     H11863   2.585   0.510  10.252  0.0763 -0.2774  3.5649
   88MOL0     H11864   1.981   0.609  10.407 -0.7860  1.0853  0.6334
   88MOL0     H11865   1.895   0.823  10.485 -0.5212  3.0883 -2.2284
   88MOL0     H11866   1.673   0.468  10.766  1.0770 -0.1856  2.6307
   88MOL0     H11867   1.805   0.357  10.940 -0.4764 -1.8296  0.1114
   88MOL0     H11868   2.270   0.148  10.960  2.7358  0.4689  0.6337
   88MOL0     H11869   2.444   0.091  11.108  0.1490  0.4496  0.6390
   88MOL0     H11870   2.520  -0.153  11.330  1.3755  0.6936  1.3669
   88MOL0     H11871   2.575   0.007  11.263 -0.0471 -0.2133  0.1990
   88MOL0     H11872   2.727  -0.048  11.437 -0.5522 -0.1860  0.8178
   88MOL0     H11873   2.611  -0.103  11.541 -2.3694  1.2799  0.7364
   88MOL0     H11874   2.682   0.074  11.631  2.8715  0.2048 -1.7328
   88MOL0     H11875   2.521   0.132  11.584  0.6165 -0.1176  2.0086
   88MOL0     H11876   2.722   0.186  11.376 -1.1795  0.1257 -0.4194
   88MOL0     H11877   2.764   0.269  11.515 -0.5393  0.7201  0.8050
   88MOL0     H11878   2.383   0.455  11.402  0.0120  0.2959  2.8627
   88MOL0     H11879   2.166   0.036  11.434  2.6128 -1.1108  1.0954
   88MOL0     H11880   1.977   0.081  11.279  0.7134 -0.2406  0.1656
   89MOL0     O11881   4.337   4.564   2.291 -0.2187 -0.3101  0.3800
   89MOL0     C11882   4.274   4.634   2.203 -1.2672 -0.1813 -0.6357
   89MOL0     O11883   4.157   4.704   2.224  0.0045  0.3014 -0.6188
   89MOL0     C11884   4.100   4.697   2.351  0.4037  0.4591  0.0012
   89MOL0     C11885   4.105   4.808   2.428  0.2411 -0.3151  0.7469
   89MOL0     C11886   4.055   4.806   2.556 -0.1475 -0.2720  0.4368
   89MOL0     C11887   4.009   4.685   2.612 -0.4001 -0.8428  0.3492
   89MOL0     O11888   3.962   4.694   2.744  0.2277 -0.0574 -0.7888
   89MOL0     C11889   3.970   4.572   2.828  0.4912  0.6763 -0.1538
   89MOL0     C11890   4.103   4.562   2.910 -0.3424 -1.1112  0.4903
   89MOL0     C11891   4.105   4.473   3.039 -0.0240 -0.8931  0.0616
   89MOL0     C11892   4.256   4.445   3.083 -0.0920 -1.1830  0.8096
   89MOL0     C11893   4.265   4.373   3.221  0.7279 -0.0899 -1.0085
   89MOL0     C11894   4.390   4.284   3.245  0.0887  0.0870 -1.3282
   89MOL0     C11895   4.455   4.322   3.382 -0.0334 -0.7512  1.0645
   89MOL0     C11896   4.601   4.270   3.389 -1.0898 -0.1320 -0.7991
   89MOL0     N11897   4.599   4.123   3.403  0.0263 -0.0901 -0.1830
   89MOL0     C11898   4.631   4.078   3.522  0.6185  0.0253  0.0874
   89MOL0     C11899   4.620   3.942   3.497 -0.4576 -0.0894  0.8544
   89MOL0     C11900   4.649   3.831   3.592 -0.0477  0.5396  0.3931
   89MOL0     C11901   4.677   3.878   3.733 -0.6621  0.0915  0.3160
   89MOL0     C11902   4.655   3.779   3.843 -1.0070  0.7191 -0.0633
   89MOL0     C11903   4.756   3.660   3.850 -0.8046 -0.1830 -0.1594
   89MOL0     O11904   4.879   3.717   3.886  0.3785  0.1452  0.2425
   89MOL0     C11905   4.989   3.641   3.915  0.3681 -0.0134  0.3019
   89MOL0     C11906   4.995   3.508   3.968  0.5233 -0.0396  0.3316
   89MOL0     C11907   5.108   3.452   4.014 -0.0943  0.5455 -0.0174
   89MOL0     C11908   5.090   3.320   4.068  0.4017 -0.6310 -0.5807
   89MOL0     C11909   5.237   3.522   3.993  0.9769  0.0967 -0.0976
   89MOL0     C11910   5.373   3.459   4.023 -0.4156  0.0169 -0.3108
   89MOL0     O11911   5.479   3.504   3.944 -0.3572  0.0018  0.3413
   89MOL0     C11912   5.597   3.435   3.920 -1.2014  0.5944 -0.3710
   89MOL0     C11913   5.704   3.493   3.854 -0.7369 -0.2923  0.3113
   89MOL0     C11914   5.816   3.421   3.797  0.2969 -0.8150  0.2396
   89MOL0     C11915   5.824   3.283   3.817 -0.2670 -0.0244 -0.9410
   89MOL0     O11916   5.930   3.222   3.761 -1.3287 -0.0865 -0.0253
   89MOL0     C11917   6.005   3.129   3.853  0.5576  0.1167  0.6214
   89MOL0     C11918   6.141   3.087   3.787  0.3814 -0.4482  0.3749
   89MOL0     C11919   6.126   2.994   3.669 -0.5981  0.5489  0.5166
   89MOL0     C11920   6.100   3.064   3.534  0.3793  0.2412  0.4825
   89MOL0     C11921   6.080   2.984   3.404 -0.6440  0.3988 -0.4536
   89MOL0     C11922   6.211   2.953   3.342 -0.7892  0.3026  0.0811
   89MOL0     C11923   6.208   2.890   3.203 -0.6300  0.5922 -1.0123
   89MOL0     C11924   6.347   2.853   3.150 -1.0796 -0.0212  0.2803
   89MOL0    Cl11925   6.416   2.695   3.213 -0.0670  0.1259  0.1739
   89MOL0     C11926   5.726   3.222   3.894  0.5047 -0.0777 -0.3155
   89MOL0     C11927   5.617   3.294   3.939  0.1460 -0.3963  0.1538
   89MOL0     O11928   5.381   3.376   4.112  0.9003 -0.5473  0.4303
   89MOL0     C11929   5.234   3.643   3.927 -0.8492 -0.1104 -0.4891
   89MOL0     C11930   5.111   3.704   3.898 -0.4722 -0.0422  0.1632
   89MOL0     N11931   4.594   3.916   3.362 -0.1050  0.2931  0.0154
   89MOL0     N11932   4.571   4.028   3.312  0.5200  0.1572  0.7477
   89MOL0     C11933   4.014   4.570   2.532  0.1416  0.1890  0.6874
   89MOL0     C11934   4.051   4.575   2.398  0.4881 -0.2262  0.2860
   89MOL0     C11935   4.315   4.629   2.065  0.1272 -0.6279 -0.3179
   89MOL0     C11936   4.221   4.657   1.966 -0.7936  0.2398 -0.3358
   89MOL0     C11937   4.263   4.660   1.828 -0.2725  0.7767 -1.2549
   89MOL0     C11938   4.389   4.621   1.789  0.2964 -0.5947 -0.3979
   89MOL0     O11939   4.433   4.602   1.662 -0.3761  0.0684  0.2141
   89MOL0     C11940   4.350   4.632   1.550  0.8726 -1.2927 -0.8034
   89MOL0     C11941   4.439   4.641   1.429 -0.6660  0.1603 -0.2975
   89MOL0     C11942   4.542   4.525   1.406 -0.7645  0.4312 -1.6852
   89MOL0     C11943   4.660   4.546   1.315  0.9245 -1.2260  0.3249
   89MOL0     C11944   4.614   4.615   1.189 -1.1719  0.1981 -0.3366
   89MOL0     C11945   4.582   4.659   1.078 -0.8141  0.3409  0.3061
   89MOL0     C11946   4.483   4.589   1.891 -0.5437 -0.1630 -0.0232
   89MOL0     C11947   4.446   4.594   2.024 -0.4054 -0.9499  0.9939
   89MOL0     H11948   4.136   4.899   2.378  1.7806 -1.5868 -0.7369
   89MOL0     H11949   4.042   4.894   2.619 -0.6361  1.1129 -1.5091
   89MOL0     H11950   3.878   4.573   2.887  0.9904  2.7149  0.6852
   89MOL0     H11951   3.969   4.479   2.770 -0.7788  2.2605 -2.8603
   89MOL0     H11952   4.176   4.527   2.836 -0.8941 -0.2339 -0.4985
   89MOL0     H11953   4.123   4.665   2.941 -1.4644  0.3199 -3.0096
   89MOL0     H11954   4.037   4.530   3.102  1.0119 -0.6327  0.9687
   89MOL0     H11955   4.064   4.373   3.021 -0.1877 -0.5774 -1.5135
   89MOL0     H11956   4.283   4.365   3.013 -2.2900 -3.1717  2.0725
   89MOL0     H11957   4.328   4.527   3.088  0.3001 -1.5007  0.4753
   89MOL0     H11958   4.259   4.449   3.299 -1.8116 -3.8600  2.9694
   89MOL0     H11959   4.181   4.303   3.226  2.8036 -2.8357 -2.0702
   89MOL0     H11960   4.364   4.180   3.264 -3.3586  1.4888  3.6912
   89MOL0     H11961   4.467   4.292   3.167  2.4532  0.1760  0.8657
   89MOL0     H11962   4.459   4.431   3.385  1.3906 -0.7988  1.1907
   89MOL0     H11963   4.391   4.276   3.458 -0.8800 -0.4907  0.5374
   89MOL0     H11964   4.659   4.321   3.467  0.9271 -0.3931 -2.0427
   89MOL0     H11965   4.637   4.282   3.286  1.3989 -2.8676 -0.3730
   89MOL0     H11966   4.639   4.144   3.607 -0.3431 -0.6865  0.7549
   89MOL0     H11967   4.560   3.768   3.603 -0.3896  1.0203  0.4284
   89MOL0     H11968   4.738   3.781   3.554  0.4647  0.9577  1.0244
   89MOL0     H11969   4.626   3.972   3.754 -1.2922  0.2299 -1.6577
   89MOL0     H11970   4.783   3.908   3.738 -0.9707  1.2196  0.4489
   89MOL0     H11971   4.556   3.733   3.832 -1.3399  1.2151  0.7475
   89MOL0     H11972   4.665   3.838   3.935 -0.1941 -0.0310  0.3413
   89MOL0     H11973   4.743   3.605   3.756 -5.2093 -0.1275  0.1953
   89MOL0     H11974   4.736   3.585   3.927  1.4804  0.4079  1.0963
   89MOL0     H11975   4.897   3.461   3.970  0.1367  0.7563  0.7703
   89MOL0     H11976   5.166   3.242   4.054 -0.9951 -2.2559  0.4267
   89MOL0     H11977   5.090   3.340   4.175 -0.1405 -0.8644 -0.5333
   89MOL0     H11978   4.997   3.277   4.030  0.1485  1.0596 -2.0111
   89MOL0     H11979   5.706   3.601   3.842  3.3395 -0.1647  0.8117
   89MOL0     H11980   5.894   3.485   3.757  0.7860 -1.1721  0.6067
   89MOL0     H11981   6.027   3.159   3.956  0.8290  0.0002  0.5992
   89MOL0     H11982   5.938   3.043   3.842 -0.1542  0.8763 -1.4918
   89MOL0     H11983   6.194   3.178   3.757  0.7082 -0.7141  0.1328
   89MOL0     H11984   6.203   3.031   3.857 -0.3327 -0.3076  1.1394
   89MOL0     H11985   6.047   2.922   3.694 -0.4204  0.1586 -0.0241
   89MOL0     H11986   6.217   2.935   3.655 -1.6893 -1.2989  0.8316
   89MOL0     H11987   6.008   3.119   3.557 -0.6789 -1.7260  1.2278
   89MOL0     H11988   6.175   3.142   3.520  1.9440 -1.1859  0.6865
   89MOL0     H11989   6.030   3.055   3.338 -1.5392 -0.9184 -1.2330
   89MOL0     H11990   6.018   2.897   3.424 -1.0815  0.7807 -0.1092
   89MOL0     H11991   6.263   3.048   3.328 -2.2429  0.9393 -1.3322
   89MOL0     H11992   6.265   2.883   3.406  0.3447  1.1877  0.1238
   89MOL0     H11993   6.157   2.960   3.137 -0.2319  1.4448 -0.4349
   89MOL0     H11994   6.154   2.794   3.203  5.0706 -3.1315 -2.6381
   89MOL0     H11995   6.427   2.925   3.169  0.2701 -1.3734 -0.0941
   89MOL0     H11996   6.340   2.852   3.041  1.4944 -0.8378  0.0728
   89MOL0     H11997   5.751   3.120   3.922  3.0124 -0.7037 -4.1306
   89MOL0     H11998   5.555   3.229   3.999 -0.1558 -0.9851 -0.7720
   89MOL0     H11999   5.326   3.699   3.920 -0.7829 -0.0434  0.7206
   89MOL0     H12000   5.123   3.808   3.868  0.0805  0.0645  0.7269
   89MOL0     H12001   3.984   4.475   2.574  3.2436 -0.8744  0.7393
   89MOL0     H12002   4.044   4.483   2.340  0.6300 -1.2026  1.7319
   89MOL0     H12003   4.116   4.674   1.987 -1.3803 -1.3900 -1.7577
   89MOL0     H12004   4.187   4.694   1.759 -2.1950 -2.2668 -0.8422
   89MOL0     H12005   4.278   4.552   1.532 -1.5186  0.8761 -1.4680
   89MOL0     H12006   4.298   4.728   1.564  2.8563 -0.4423  1.2469
   89MOL0     H12007   4.493   4.736   1.438  0.2965 -0.2823 -1.2787
   89MOL0     H12008   4.373   4.646   1.342  0.1099 -2.7071 -1.1270
   89MOL0     H12009   4.478   4.440   1.379 -0.8146 -0.4517  0.9872
   89MOL0     H12010   4.587   4.503   1.502  1.7465 -1.1966 -3.1314
   89MOL0     H12011   4.704   4.450   1.286 -0.6861 -2.0904  0.6270
   89MOL0     H12012   4.732   4.603   1.374  0.0859  4.7117 -3.4713
   89MOL0     H12013   4.575   4.702   0.980  2.3890 -2.9075 -1.6105
   89MOL0     H12014   4.579   4.547   1.863 -0.9128 -0.9595 -0.1296
   89MOL0     H12015   4.524   4.565   2.094  3.5099 -1.5890 -3.1619
   90MOL0     O12016   9.968   2.224  10.917  0.3605  0.0486  0.4409
   90MOL0     C12017  10.016   2.336  10.908  1.1415  1.2316 -1.0690
   90MOL0     O12018   9.948   2.447  10.878  0.6681 -0.7101 -0.0773
   90MOL0     C12019   9.813   2.430  10.888  0.0444 -0.0348  1.1495
   90MOL0     C12020   9.746   2.444  11.013 -0.7181 -0.1079  0.3792
   90MOL0     C12021   9.620   2.427  11.042  0.0868  0.7000  0.4002
   90MOL0     C12022   9.531   2.386  10.934  0.0391  0.2046  0.1908
   90MOL0     O12023   9.391   2.381  10.948  0.6401  0.0497 -0.8531
   90MOL0     C12024   9.327   2.402  11.076  0.2829  0.4380 -0.1356
   90MOL0     C12025   9.176   2.387  11.081  0.0590  1.2499 -0.0375
   90MOL0     C12026   9.124   2.246  11.023  0.3540  0.1191  0.8591
   90MOL0     C12027   8.994   2.210  11.089  0.3856  0.4599 -0.3457
   90MOL0     C12028   8.915   2.101  11.009  0.7368 -0.7747 -0.2611
   90MOL0     C12029   8.782   2.064  11.080 -0.9470  0.7339  0.5773
   90MOL0     C12030   8.690   2.180  11.113 -0.0170 -0.1653 -0.6055
   90MOL0     C12031   8.649   2.263  10.985 -0.4674 -0.6100 -0.2537
   90MOL0     N12032   8.581   2.170  10.895  0.2816 -0.6436  0.2071
   90MOL0     C12033   8.460   2.118  10.923 -0.0321 -0.1281  0.8505
   90MOL0     C12034   8.428   2.046  10.810 -0.3696 -0.3635  1.2510
   90MOL0     C12035   8.306   1.949  10.807 -0.3430  0.7263  0.7370
   90MOL0     C12036   8.212   1.993  10.701  0.0945 -0.8154 -0.2088
   90MOL0     C12037   8.110   1.874  10.667  0.1885  0.4438 -0.0376
   90MOL0     C12038   8.062   1.797  10.788 -0.2267  0.0845 -0.6793
   90MOL0     O12039   7.956   1.877  10.850  0.1726 -0.2500 -0.6124
   90MOL0     C12040   7.850   1.796  10.884  0.0971 -0.0471  0.6518
   90MOL0     C12041   7.853   1.700  10.988 -0.0367  1.0579  0.7026
   90MOL0     C12042   7.753   1.620  11.012 -0.1156  0.8654 -0.0559
   90MOL0     C12043   7.776   1.517  11.123 -0.3237 -0.2373 -0.7502
   90MOL0     C12044   7.626   1.622  10.938 -1.4183  0.4964 -0.0174
   90MOL0     C12045   7.518   1.528  10.956  0.0651  1.0501  0.3558
   90MOL0     O12046   7.504   1.481  11.079 -0.5709 -1.1851 -0.3161
   90MOL0     C12047   7.376   1.431  11.128 -0.3278 -0.2262 -0.1304
   90MOL0     C12048   7.384   1.348  11.242 -0.1409 -0.2571  0.7246
   90MOL0     C12049   7.270   1.326  11.312 -0.3541 -0.5302 -0.3493
   90MOL0     C12050   7.143   1.356  11.258  0.3889  0.2054 -0.5080
   90MOL0     O12051   7.028   1.321  11.331 -0.2345 -0.5217  1.2615
   90MOL0     C12052   6.900   1.306  11.265  0.1892  0.1384 -0.2307
   90MOL0     C12053   6.802   1.247  11.368  0.5808 -0.0757  0.0812
   90MOL0     C12054   6.653   1.216  11.317  0.1703  0.6222 -0.6534
   90MOL0     C12055   6.586   1.125  11.432  0.4199 -0.5030  0.4463
   90MOL0     C12056   6.442   1.110  11.385 -0.3237  0.1361  0.4566
   90MOL0     C12057   6.353   1.031  11.485 -0.3663  0.6860  0.0111
   90MOL0     C12058   6.364   0.870  11.474 -0.2832  0.8150 -0.4787
   90MOL0     C12059   6.303   0.818  11.340  0.9403  0.5220  0.0951
   90MOL0    Cl12060   6.289   0.636  11.367 -0.1204 -0.2844  0.1837
   90MOL0     C12061   7.141   1.424  11.134 -0.5207  0.1404  0.1062
   90MOL0     C12062   7.253   1.469  11.075 -0.7414  0.1610  0.2831
   90MOL0     O12063   7.439   1.502  10.864 -0.9740  0.1698  0.2774
   90MOL0     C12064   7.635   1.716  10.822 -0.2810 -0.0094 -0.4343
   90MOL0     C12065   7.743   1.804  10.793  0.7047  0.0338  0.1037
   90MOL0     N12066   8.535   2.058  10.725  0.0525  0.5035  0.4145
   90MOL0     N12067   8.626   2.137  10.773  1.1900  0.2424 -0.3304
   90MOL0     C12068   9.583   2.366  10.807 -1.1274 -0.2120  0.4033
   90MOL0     C12069   9.723   2.396  10.780  0.0996  0.6471  0.6059
   90MOL0     C12070  10.161   2.353  10.936 -0.1835  0.1136 -0.3703
   90MOL0     C12071  10.236   2.425  10.842 -0.0962 -0.2334  0.1593
   90MOL0     C12072  10.371   2.453  10.878 -0.0219 -0.2992  1.0402
   90MOL0     C12073  10.436   2.411  11.000 -0.0051  0.8894  0.5691
   90MOL0     O12074  10.561   2.455  11.027  0.3769 -0.1026 -0.2416
   90MOL0     C12075  10.647   2.385  11.113  0.3537  0.0896  0.1683
   90MOL0     C12076  10.768   2.458  11.135 -0.0064  0.6222 -0.4010
   90MOL0     C12077  10.881   2.383  11.217 -0.4152  1.1283 -0.9089
   90MOL0     C12078  10.957   2.268  11.146 -0.5703  0.9854  0.6393
   90MOL0     C12079  11.045   2.201  11.238 -0.6216  0.5399 -0.4926
   90MOL0     C12080  11.129   2.159  11.326 -0.7308 -0.0247 -0.1667
   90MOL0     C12081  10.361   2.330  11.085  1.0830 -0.1128 -0.5744
   90MOL0     C12082  10.226   2.306  11.054 -0.1253 -0.8953 -0.1077
   90MOL0     H12083   9.802   2.476  11.100 -3.0789  0.7147  1.6721
   90MOL0     H12084   9.589   2.439  11.145 -2.0982 -2.2209  0.2041
   90MOL0     H12085   9.375   2.321  11.132 -0.5237 -0.1873 -0.3341
   90MOL0     H12086   9.351   2.501  11.117  0.9251 -0.2368  1.1866
   90MOL0     H12087   9.151   2.396  11.187  1.0129  0.7514  0.2433
   90MOL0     H12088   9.134   2.474  11.029  2.8831  2.8367  0.1095
   90MOL0     H12089   9.101   2.257  10.917 -3.5962 -1.1121  1.4234
   90MOL0     H12090   9.195   2.163  11.032 -0.9356 -0.9053  1.9514
   90MOL0     H12091   9.014   2.161  11.185  2.3015 -0.1863 -1.0424
   90MOL0     H12092   8.926   2.295  11.102 -2.3198 -1.8719  2.6737
   90MOL0     H12093   8.904   2.130  10.904  0.4789 -1.8862 -0.5532
   90MOL0     H12094   8.978   2.012  11.012 -0.5010 -1.6457  1.0355
   90MOL0     H12095   8.725   1.989  11.023  0.7791  0.8294 -1.3906
   90MOL0     H12096   8.805   2.010  11.173  0.9526 -0.8583 -0.7235
   90MOL0     H12097   8.597   2.143  11.156 -0.3954  1.6964  0.2640
   90MOL0     H12098   8.738   2.248  11.184  0.9514 -0.0581 -1.3458
   90MOL0     H12099   8.730   2.318  10.936  0.8140  0.7753  3.1429
   90MOL0     H12100   8.573   2.339  11.005  0.7604  0.9020 -1.0925
   90MOL0     H12101   8.390   2.116  11.007 -1.8647 -3.4341 -0.5552
   90MOL0     H12102   8.336   1.844  10.802  0.3856  0.9386  0.4953
   90MOL0     H12103   8.256   1.961  10.904  1.8029  1.1481  1.8514
   90MOL0     H12104   8.278   2.022  10.619  1.0277 -0.8885  0.5028
   90MOL0     H12105   8.154   2.084  10.721  0.1018 -0.5288 -1.4049
   90MOL0     H12106   8.168   1.802  10.610 -2.5502 -1.9636  0.0100
   90MOL0     H12107   8.033   1.916  10.601 -0.5468 -0.5483  0.1720
   90MOL0     H12108   8.144   1.765  10.852  0.8330 -1.9989 -2.8974
   90MOL0     H12109   8.027   1.702  10.745 -1.2439  0.5167 -0.8271
   90MOL0     H12110   7.939   1.706  11.054 -1.8111  0.0163  3.2556
   90MOL0     H12111   7.712   1.549  11.206  2.2219  2.4541  0.3672
   90MOL0     H12112   7.744   1.416  11.097 -0.2758 -0.1005 -1.3619
   90MOL0     H12113   7.875   1.532  11.168 -0.9468  1.4916  0.1452
   90MOL0     H12114   7.475   1.306  11.285  1.4640  1.5497 -0.7626
   90MOL0     H12115   7.280   1.268  11.404 -1.6300 -0.3990 -0.1089
   90MOL0     H12116   6.871   1.405  11.228  3.3146  0.9146 -0.8901
   90MOL0     H12117   6.925   1.238  11.183  0.7783 -1.4967  1.2283
   90MOL0     H12118   6.834   1.147  11.400 -0.3490 -0.4184 -0.0309
   90MOL0     H12119   6.796   1.315  11.454  4.0452 -0.0128  0.4138
   90MOL0     H12120   6.646   1.157  11.225  0.6427  1.5376 -1.3059
   90MOL0     H12121   6.602   1.310  11.290 -1.1848 -0.3798 -1.7470
   90MOL0     H12122   6.623   1.025  11.458 -0.7906 -1.2988 -0.7563
   90MOL0     H12123   6.586   1.185  11.524 -4.1794 -0.4487  0.6238
   90MOL0     H12124   6.438   1.058  11.288 -2.4467  0.6551  0.2084
   90MOL0     H12125   6.402   1.212  11.383  1.1032  0.7224 -1.6739
   90MOL0     H12126   6.384   1.062  11.585  0.3058  0.2990 -0.0746
   90MOL0     H12127   6.251   1.065  11.462 -1.3277 -0.9951  1.5334
   90MOL0     H12128   6.304   0.830  11.556  1.0828 -0.1663  0.0682
   90MOL0     H12129   6.460   0.823  11.498 -0.5733  0.2885 -0.3506
   90MOL0     H12130   6.364   0.827  11.250 -0.1219  0.6037 -0.6449
   90MOL0     H12131   6.205   0.858  11.309  0.2143 -3.4851 -3.8972
   90MOL0     H12132   7.049   1.459  11.088 -1.2177 -2.4206 -0.6678
   90MOL0     H12133   7.241   1.526  10.983 -1.9459  0.7185  0.7625
   90MOL0     H12134   7.542   1.718  10.765  0.1613 -0.2540 -1.1796
   90MOL0     H12135   7.737   1.866  10.704 -1.1895  1.4994  1.1825
   90MOL0     H12136   9.524   2.342  10.720 -2.3444 -0.5057  1.2827
   90MOL0     H12137   9.753   2.375  10.678  1.2355  3.0664  0.3747
   90MOL0     H12138  10.206   2.466  10.746  1.3752 -1.8193 -1.0432
   90MOL0     H12139  10.438   2.517  10.822  2.2936 -1.9268  1.7921
   90MOL0     H12140  10.594   2.363  11.206 -1.5047  0.7523 -0.6780
   90MOL0     H12141  10.677   2.295  11.059  2.6843  0.6025  0.5266
   90MOL0     H12142  10.752   2.560  11.172  0.7737  0.9246 -0.8871
   90MOL0     H12143  10.806   2.474  11.034  0.1674 -1.6544 -0.7432
   90MOL0     H12144  10.826   2.331  11.296  1.1741  1.6771  0.6404
   90MOL0     H12145  10.946   2.457  11.266  0.2075 -1.0247  1.8205
   90MOL0     H12146  11.017   2.307  11.064  1.1930 -2.4431  0.1138
   90MOL0     H12147  10.895   2.194  11.095  0.6981  0.4458 -0.1646
   90MOL0     H12148  11.205   2.128  11.394 -0.0950 -1.0273 -1.2882
   90MOL0     H12149  10.400   2.290  11.178 -1.8389  0.9587  1.2184
   90MOL0     H12150  10.165   2.259  11.131 -1.7749  2.4147  0.7895
   91MOL0     O12151   0.063   5.220   1.208 -0.2510 -0.3919  0.1068
   91MOL0     C12152  -0.038   5.286   1.236 -0.2208 -0.1345 -0.3466
   91MOL0     O12153  -0.146   5.292   1.155  0.2212 -0.7153 -0.5787
   91MOL0     C12154  -0.140   5.211   1.038 -0.1800  0.3390 -0.6823
   91MOL0     C12155  -0.121   5.264   0.914 -0.4663 -0.2219  0.2406
   91MOL0     C12156  -0.123   5.174   0.806  0.5460  0.1276 -0.0188
   91MOL0     C12157  -0.141   5.034   0.818  0.8159 -0.2604 -0.3908
   91MOL0     O12158  -0.160   4.935   0.721  0.5678 -0.6941  0.4678
   91MOL0     C12159  -0.061   4.925   0.618 -0.4070  0.5007  0.3028
   91MOL0     C12160  -0.113   4.843   0.500 -0.3288  0.5006  0.0652
   91MOL0     C12161  -0.162   4.700   0.544 -0.9971  0.9083  0.3235
   91MOL0     C12162  -0.300   4.690   0.572 -0.7310  0.5112 -0.1619
   91MOL0     C12163  -0.331   4.533   0.602 -0.0541  0.5242  0.2902
   91MOL0     C12164  -0.476   4.512   0.661 -0.9564 -0.1947  0.2629
   91MOL0     C12165  -0.504   4.574   0.795  0.4688 -0.2509  0.0625
   91MOL0     C12166  -0.462   4.478   0.908  0.8230 -0.3751  0.1487
   91MOL0     N12167  -0.350   4.536   0.985 -0.9647 -0.3338  0.3688
   91MOL0     C12168  -0.361   4.603   1.104  0.1517  0.2464  0.1853
   91MOL0     C12169  -0.230   4.639   1.137  0.4688  0.0052  0.1159
   91MOL0     C12170  -0.197   4.709   1.257 -0.0663  0.1585 -0.3481
   91MOL0     C12171  -0.165   4.625   1.383  0.1351  0.2250 -1.2135
   91MOL0     C12172  -0.041   4.524   1.370  0.0798  0.3215  0.6198
   91MOL0     C12173   0.096   4.569   1.321 -0.1301 -0.7986  0.0070
   91MOL0     O12174   0.126   4.673   1.409 -0.5097  0.4579 -0.4418
   91MOL0     C12175   0.257   4.706   1.426 -0.5367 -0.3260 -0.2503
   91MOL0     C12176   0.282   4.848   1.444  0.6346  0.2706  1.0123
   91MOL0     C12177   0.413   4.894   1.444 -0.6514  0.4240  1.0440
   91MOL0     C12178   0.436   5.042   1.426 -0.0026  0.0078 -0.6137
   91MOL0     C12179   0.522   4.803   1.458 -0.1014  0.2262 -0.5419
   91MOL0     C12180   0.662   4.853   1.485  0.4412 -0.1004  0.0916
   91MOL0     O12181   0.761   4.800   1.408 -0.1838  0.2778 -0.5353
   91MOL0     C12182   0.880   4.863   1.417  0.1911 -0.2318  0.0102
   91MOL0     C12183   0.910   4.965   1.324  0.4608  0.1186  0.8737
   91MOL0     C12184   1.029   5.022   1.326 -0.0875  0.5437 -0.1864
   91MOL0     C12185   1.122   4.995   1.423 -0.5362  0.4314 -0.7688
   91MOL0     O12186   1.252   5.042   1.429  0.4729  0.0303 -0.6501
   91MOL0     C12187   1.284   5.108   1.549  0.5337 -0.1367 -0.0355
   91MOL0     C12188   1.386   5.224   1.527 -0.1597  0.5244 -0.1905
   91MOL0     C12189   1.529   5.166   1.512  0.4846  0.1073 -0.9092
   91MOL0     C12190   1.636   5.272   1.485 -0.6640  0.5102 -0.9635
   91MOL0     C12191   1.781   5.239   1.508 -0.4987 -0.2629  0.4747
   91MOL0     C12192   1.839   5.265   1.652  0.3831 -0.0436 -0.1455
   91MOL0     C12193   1.763   5.175   1.761  0.2328  0.1031 -1.2955
   91MOL0     C12194   1.814   5.190   1.901  0.1143 -0.0564  0.7925
   91MOL0    Cl12195   1.972   5.122   1.918  0.7598  0.1172  0.3124
   91MOL0     C12196   1.096   4.891   1.511  1.2082  0.4023  0.4466
   91MOL0     C12197   0.978   4.820   1.507 -0.2955 -0.0776  0.1301
   91MOL0     O12198   0.681   4.937   1.567 -0.5011  0.6512 -0.0958
   91MOL0     C12199   0.497   4.667   1.442 -0.7975 -0.7070  0.2803
   91MOL0     C12200   0.369   4.611   1.430  0.4110 -0.4129 -0.0135
   91MOL0     N12201  -0.141   4.589   1.038  0.6981 -0.8605 -0.9486
   91MOL0     N12202  -0.217   4.544   0.942 -0.2143  0.1904  0.2442
   91MOL0     C12203  -0.165   4.988   0.945 -0.1274  0.5532  0.3933
   91MOL0     C12204  -0.158   5.075   1.052  1.1590  0.7194  0.8567
   91MOL0     C12205  -0.051   5.357   1.366  0.4575 -0.1182 -0.2429
   91MOL0     C12206  -0.156   5.449   1.382  0.0551  0.1755 -1.1000
   91MOL0     C12207  -0.167   5.529   1.494  0.3220  0.2426  0.1778
   91MOL0     C12208  -0.078   5.513   1.603 -0.2205  1.2154  1.1733
   91MOL0     O12209  -0.086   5.596   1.710  0.2402  0.6250 -0.8870
   91MOL0     C12210   0.002   5.580   1.820 -0.7973  0.1154 -0.1741
   91MOL0     C12211  -0.047   5.684   1.925 -0.4068  0.4005 -0.4786
   91MOL0     C12212   0.051   5.707   2.048  0.3883  0.3469  0.4522
   91MOL0     C12213   0.158   5.819   2.047  0.3970  0.2239 -0.6857
   91MOL0     C12214   0.077   5.943   2.042 -0.4933 -0.6747 -0.2330
   91MOL0     C12215   0.009   6.039   2.059  0.7087 -0.3598 -0.8288
   91MOL0     C12216   0.033   5.419   1.587  0.4531 -1.2308 -0.2458
   91MOL0     C12217   0.038   5.344   1.464 -0.4227 -0.2642  0.1290
   91MOL0     H12218  -0.099   5.370   0.904  0.7503 -0.5005 -0.1184
   91MOL0     H12219  -0.117   5.218   0.707 -3.2993  1.3274  0.1152
   91MOL0     H12220  -0.042   5.024   0.574 -2.9382  0.7680 -0.3108
   91MOL0     H12221   0.032   4.885   0.660 -1.2927 -0.9553  0.9208
   91MOL0     H12222  -0.194   4.899   0.453 -0.1818 -0.4549 -1.4111
   91MOL0     H12223  -0.029   4.831   0.431 -2.1959  1.5804 -2.5428
   91MOL0     H12224  -0.143   4.631   0.461 -1.2798 -0.2825  1.2300
   91MOL0     H12225  -0.111   4.661   0.632  0.0177 -0.0274 -0.6462
   91MOL0     H12226  -0.322   4.750   0.661  3.5224 -1.8605  2.9067
   91MOL0     H12227  -0.364   4.728   0.493  0.5928 -0.4593 -1.7671
   91MOL0     H12228  -0.339   4.472   0.512 -2.5689  1.8323 -0.4615
   91MOL0     H12229  -0.256   4.488   0.668  2.1563  0.5773 -2.0309
   91MOL0     H12230  -0.538   4.572   0.594 -0.0895  0.5309  0.0827
   91MOL0     H12231  -0.509   4.408   0.657  3.1296 -2.1618  5.2765
   91MOL0     H12232  -0.463   4.675   0.796  1.0703 -0.3574 -3.0751
   91MOL0     H12233  -0.612   4.594   0.792  1.1178  4.1888 -0.4061
   91MOL0     H12234  -0.434   4.385   0.859 -1.6495 -1.5813  0.8528
   91MOL0     H12235  -0.545   4.448   0.973  0.1564  1.5056  0.2260
   91MOL0     H12236  -0.452   4.616   1.161 -2.0803  2.8831 -3.5818
   91MOL0     H12237  -0.118   4.781   1.235 -1.0865  1.4368  0.0300
   91MOL0     H12238  -0.285   4.772   1.273  0.4410  1.1212 -1.2348
   91MOL0     H12239  -0.254   4.565   1.405  0.5122  0.1968  0.2871
   91MOL0     H12240  -0.148   4.699   1.461  2.8375  1.1873 -2.5916
   91MOL0     H12241  -0.064   4.447   1.296 -1.3137  0.5061  0.8281
   91MOL0     H12242  -0.029   4.469   1.464  1.3638 -0.4422  0.0360
   91MOL0     H12243   0.076   4.613   1.223 -1.0934 -0.8671  0.1638
   91MOL0     H12244   0.173   4.491   1.320  1.9097  0.9686  2.5749
   91MOL0     H12245   0.198   4.916   1.443  1.1474  0.9739 -1.3040
   91MOL0     H12246   0.476   5.058   1.326  2.0158  0.3513  0.1848
   91MOL0     H12247   0.349   5.105   1.445 -1.9476 -3.0675  1.5343
   91MOL0     H12248   0.503   5.072   1.507 -3.4494 -0.1955  2.5906
   91MOL0     H12249   0.847   5.004   1.244  0.8913  1.3010  1.0927
   91MOL0     H12250   1.054   5.095   1.250 -2.3412  1.1434 -0.4104
   91MOL0     H12251   1.201   5.157   1.601 -0.1654 -2.9568  1.7222
   91MOL0     H12252   1.333   5.037   1.617  1.0083  0.9408  0.7625
   91MOL0     H12253   1.344   5.294   1.454 -2.8745 -1.8781 -1.1380
   91MOL0     H12254   1.393   5.286   1.617  1.6972 -1.4014  1.0846
   91MOL0     H12255   1.547   5.090   1.435  1.4520  2.0778 -2.7499
   91MOL0     H12256   1.548   5.113   1.605  1.8423  1.5635 -0.3060
   91MOL0     H12257   1.629   5.305   1.381  3.7128  3.3160 -0.5967
   91MOL0     H12258   1.608   5.355   1.550 -3.5041 -2.5743  2.1725
   91MOL0     H12259   1.846   5.303   1.448 -2.4682  1.3272 -0.0518
   91MOL0     H12260   1.782   5.134   1.477 -4.1639 -0.3383  0.2494
   91MOL0     H12261   1.946   5.243   1.643  0.4551  0.4167 -0.4370
   91MOL0     H12262   1.827   5.372   1.675  1.3744 -0.1467  0.9819
   91MOL0     H12263   1.766   5.068   1.739 -1.2619  0.1446 -1.7559
   91MOL0     H12264   1.658   5.205   1.754  1.3126  4.6506 -1.4163
   91MOL0     H12265   1.752   5.124   1.962  0.9861 -2.3540 -0.6740
   91MOL0     H12266   1.805   5.293   1.939 -1.8097  0.0314  0.1884
   91MOL0     H12267   1.175   4.862   1.581 -0.5443 -2.5068  1.4155
   91MOL0     H12268   0.952   4.740   1.574 -0.0338  0.7368  1.2268
   91MOL0     H12269   0.586   4.605   1.433 -0.0971 -0.2760  2.9986
   91MOL0     H12270   0.358   4.503   1.424 -0.4164 -0.4471  1.5374
   91MOL0     H12271  -0.186   4.882   0.961 -0.6678  0.5729 -0.1909
   91MOL0     H12272  -0.177   5.020   1.143  0.3767 -1.5445 -0.5881
   91MOL0     H12273  -0.232   5.463   1.305  0.1316  1.9354 -0.8954
   91MOL0     H12274  -0.255   5.592   1.492 -2.9233 -3.8351  0.5599
   91MOL0     H12275  -0.018   5.480   1.859  0.0109 -0.8007 -1.9596
   91MOL0     H12276   0.109   5.595   1.798 -0.2818 -1.3617  1.1368
   91MOL0     H12277  -0.147   5.660   1.960 -0.2095  1.7581  1.1668
   91MOL0     H12278  -0.063   5.784   1.884  0.3768  1.5514  1.8321
   91MOL0     H12279   0.100   5.616   2.084  1.5736  0.8773  0.2349
   91MOL0     H12280  -0.023   5.720   2.127 -0.2567 -4.4378  0.9504
   91MOL0     H12281   0.220   5.814   1.957 -0.6212  0.5139 -1.4232
   91MOL0     H12282   0.211   5.807   2.142  1.7938 -3.5750 -1.7543
   91MOL0     H12283  -0.059   6.111   2.100  0.2412 -2.3043  2.0906
   91MOL0     H12284   0.112   5.406   1.659  2.5097 -2.8826 -2.6347
   91MOL0     H12285   0.131   5.292   1.442 -0.2628  0.7633 -1.8483
   92MOL0     O12286   3.426   4.789   3.148 -0.3914 -0.0719 -0.0780
   92MOL0     C12287   3.399   4.874   3.067  0.2170  0.0355 -0.4743
   92MOL0     O12288   3.318   4.981   3.088  0.1084 -0.3815  0.4343
   92MOL0     C12289   3.262   5.004   3.213 -0.3689  0.5497 -0.4623
   92MOL0     C12290   3.317   5.098   3.302 -0.0034 -0.2871 -0.1254
   92MOL0     C12291   3.246   5.128   3.413  0.3530 -1.1418 -0.5734
   92MOL0     C12292   3.124   5.065   3.446  0.7884 -0.0907 -0.4208
   92MOL0     O12293   3.045   5.106   3.553 -0.9988  0.5173 -0.5554
   92MOL0     C12294   3.120   5.119   3.680 -0.3331  0.1258 -0.0868
   92MOL0     C12295   3.032   5.164   3.795 -0.6951 -0.2633  0.2507
   92MOL0     C12296   3.112   5.190   3.924  0.6607 -0.7817 -0.3832
   92MOL0     C12297   3.043   5.287   4.022 -0.6614  0.1487 -0.8680
   92MOL0     C12298   3.057   5.434   3.987  0.3153  0.4616 -0.2818
   92MOL0     C12299   3.191   5.497   4.029 -0.0154  0.7535  0.6914
   92MOL0     C12300   3.302   5.470   3.932 -0.2327  0.2510 -0.0030
   92MOL0     C12301   3.266   5.497   3.783  0.4564 -0.3732 -0.0743
   92MOL0     N12302   3.384   5.470   3.699  0.7039  0.0402  0.0415
   92MOL0     C12303   3.485   5.559   3.650  0.1673 -0.4463 -0.1891
   92MOL0     C12304   3.567   5.483   3.579 -0.0224 -0.2273  0.1765
   92MOL0     C12305   3.683   5.548   3.489  0.0481  0.1111 -0.3485
   92MOL0     C12306   3.732   5.467   3.367 -0.1463  0.3507  0.8179
   92MOL0     C12307   3.630   5.469   3.256 -0.0104  0.5346  0.9113
   92MOL0     C12308   3.682   5.394   3.133  0.6971 -0.8973  0.4027
   92MOL0     O12309   3.760   5.481   3.043  0.1547  0.2393  0.5140
   92MOL0     C12310   3.816   5.434   2.927  0.6338  0.8747 -0.6372
   92MOL0     C12311   3.797   5.311   2.877 -0.6290  1.0520 -0.2942
   92MOL0     C12312   3.855   5.275   2.757  0.0124 -0.6880  0.8164
   92MOL0     C12313   3.832   5.138   2.697  0.9544 -0.4343 -0.1659
   92MOL0     C12314   3.958   5.361   2.695  0.3286  1.1383 -0.7676
   92MOL0     C12315   4.054   5.314   2.586 -0.0315 -0.4483 -0.7850
   92MOL0     O12316   4.163   5.399   2.555 -0.4640 -0.1781  0.6800
   92MOL0     C12317   4.252   5.380   2.450  0.1704  0.1234  0.2181
   92MOL0     C12318   4.229   5.298   2.338 -0.1872 -0.6048  0.3308
   92MOL0     C12319   4.316   5.298   2.230 -0.1471 -0.8624 -0.2079
   92MOL0     C12320   4.438   5.367   2.234 -0.6549 -0.4871 -1.1203
   92MOL0     O12321   4.541   5.360   2.148 -0.3378 -0.1342  0.0331
   92MOL0     C12322   4.527   5.271   2.027  0.0558 -0.6333 -0.8768
   92MOL0     C12323   4.660   5.248   1.955  0.4765  0.4539 -0.0665
   92MOL0     C12324   4.715   5.380   1.897  0.1557  0.7601 -0.4871
   92MOL0     C12325   4.852   5.362   1.841  0.7935 -0.3793 -0.3840
   92MOL0     C12326   4.863   5.323   1.694  0.6879  0.0116 -0.6738
   92MOL0     C12327   5.000   5.260   1.654 -0.4660 -0.3648  0.3350
   92MOL0     C12328   5.115   5.365   1.672 -0.0958 -0.6141  0.1293
   92MOL0     C12329   5.255   5.327   1.616  0.3844  0.4767 -0.1283
   92MOL0    Cl12330   5.244   5.307   1.433 -0.4845 -0.5347  0.1699
   92MOL0     C12331   4.465   5.440   2.356  0.0942  0.3476  0.1434
   92MOL0     C12332   4.368   5.461   2.453  0.3485  0.1646 -0.6084
   92MOL0     O12333   4.035   5.203   2.541  1.1481 -0.2491 -0.6626
   92MOL0     C12334   3.972   5.489   2.751 -0.1658  0.0493  0.7674
   92MOL0     C12335   3.902   5.522   2.865 -0.4149 -0.1515 -0.5317
   92MOL0     N12336   3.522   5.348   3.579 -0.5640 -0.3117  0.7785
   92MOL0     N12337   3.421   5.348   3.651 -0.7124 -0.6247 -0.2518
   92MOL0     C12338   3.075   4.978   3.368 -0.5958  0.6005  0.0071
   92MOL0     C12339   3.149   4.935   3.263  0.2286  0.1498 -0.4210
   92MOL0     C12340   3.449   4.865   2.927 -0.4365  0.0316 -1.1576
   92MOL0     C12341   3.391   4.940   2.822  0.2917  0.5613  0.1537
   92MOL0     C12342   3.427   4.913   2.690 -0.6459 -0.2285 -1.0490
   92MOL0     C12343   3.524   4.821   2.659 -0.1547  0.0110  0.4340
   92MOL0     O12344   3.562   4.823   2.527 -0.4319 -0.0070  0.6379
   92MOL0     C12345   3.667   4.739   2.482  0.3865  0.1987  0.9211
   92MOL0     C12346   3.649   4.732   2.328 -0.3821 -0.8118 -0.6263
   92MOL0     C12347   3.513   4.671   2.294 -0.2601 -0.6837  0.1907
   92MOL0     C12348   3.486   4.667   2.139  0.3613  0.0922  0.9712
   92MOL0     C12349   3.438   4.796   2.085 -0.0786  0.0526  0.1115
   92MOL0     C12350   3.407   4.905   2.040  0.2919  0.0990  0.6232
   92MOL0     C12351   3.581   4.747   2.768 -1.1928 -1.0327 -0.0724
   92MOL0     C12352   3.554   4.769   2.898 -0.0771 -0.4581 -0.1703
   92MOL0     H12353   3.409   5.139   3.263  0.8223 -1.3795  0.6126
   92MOL0     H12354   3.276   5.215   3.471 -2.9213  0.1802 -0.6640
   92MOL0     H12355   3.152   5.020   3.714  1.7339  0.7398 -0.0505
   92MOL0     H12356   3.204   5.189   3.687 -1.7564  1.9918 -0.9115
   92MOL0     H12357   2.986   5.256   3.757 -1.4138 -0.8442 -0.3163
   92MOL0     H12358   2.951   5.093   3.816 -0.7065  0.4776  3.1754
   92MOL0     H12359   3.111   5.096   3.980  0.4625 -0.1147  0.7620
   92MOL0     H12360   3.217   5.215   3.906  0.1665  0.3803 -1.7887
   92MOL0     H12361   2.938   5.259   4.040 -0.3939  0.4686  1.3880
   92MOL0     H12362   3.090   5.276   4.120 -0.7911  0.7387 -0.7337
   92MOL0     H12363   3.039   5.446   3.880  1.6299 -1.5618 -0.7945
   92MOL0     H12364   2.991   5.500   4.044  0.4707  0.2851  0.1004
   92MOL0     H12365   3.182   5.605   4.038  3.2359  1.0160  1.8903
   92MOL0     H12366   3.219   5.464   4.130  1.4874  1.5666  0.5576
   92MOL0     H12367   3.383   5.535   3.966  1.3347 -0.8108 -1.5980
   92MOL0     H12368   3.347   5.372   3.947  0.8523  0.6679 -0.4937
   92MOL0     H12369   3.225   5.598   3.770 -0.8315 -1.1851 -3.1945
   92MOL0     H12370   3.189   5.428   3.746 -0.1206  1.4280 -2.5414
   92MOL0     H12371   3.500   5.665   3.668  2.4797 -0.8928  0.9303
   92MOL0     H12372   3.653   5.646   3.450  0.1931  0.0847 -0.5288
   92MOL0     H12373   3.769   5.579   3.549 -0.7538  3.6832 -0.8506
   92MOL0     H12374   3.757   5.362   3.380 -3.3167 -0.8886 -1.9074
   92MOL0     H12375   3.818   5.519   3.322 -1.8140  2.0689 -0.5603
   92MOL0     H12376   3.616   5.572   3.223 -0.8039  0.2996  0.4925
   92MOL0     H12377   3.529   5.431   3.275 -0.1278  0.6874  0.6006
   92MOL0     H12378   3.591   5.363   3.080 -0.2817  2.5635 -0.2069
   92MOL0     H12379   3.730   5.300   3.161  0.0849 -1.3364 -0.0124
   92MOL0     H12380   3.731   5.241   2.926  1.2683  0.9877  2.4281
   92MOL0     H12381   3.769   5.085   2.768  1.3410 -0.9191 -0.1779
   92MOL0     H12382   3.767   5.150   2.609  0.7527  1.9463  0.2438
   92MOL0     H12383   3.915   5.069   2.682  0.6098 -0.6301 -1.3169
   92MOL0     H12384   4.141   5.235   2.337 -0.9853  0.4609 -1.7880
   92MOL0     H12385   4.279   5.246   2.142 -4.4064  2.1244 -0.5347
   92MOL0     H12386   4.511   5.169   2.064  0.8753 -0.4972 -0.0875
   92MOL0     H12387   4.454   5.311   1.956 -0.4981  0.3529  0.2026
   92MOL0     H12388   4.728   5.207   2.031 -0.1713  2.4582  1.7012
   92MOL0     H12389   4.631   5.188   1.869  1.6335 -1.1984  0.6347
   92MOL0     H12390   4.716   5.463   1.968  2.6979  0.8085 -0.4960
   92MOL0     H12391   4.656   5.419   1.814  2.1876  3.0756 -0.9695
   92MOL0     H12392   4.902   5.458   1.855  0.4513 -0.1212 -0.8986
   92MOL0     H12393   4.904   5.285   1.898 -0.0122 -1.0786 -0.5524
   92MOL0     H12394   4.843   5.412   1.633 -3.9866 -1.7061 -2.1159
   92MOL0     H12395   4.778   5.257   1.673 -0.6914 -0.0164  3.9320
   92MOL0     H12396   5.025   5.167   1.706  1.2286 -0.2988 -0.2935
   92MOL0     H12397   5.003   5.238   1.547  1.8146  2.0780 -0.2305
   92MOL0     H12398   5.128   5.386   1.779  0.2409  2.3957 -0.4025
   92MOL0     H12399   5.076   5.456   1.625 -0.7830 -2.3063 -2.7780
   92MOL0     H12400   5.300   5.242   1.669  0.7815  0.3466 -0.6631
   92MOL0     H12401   5.324   5.408   1.641  1.7054 -0.5491 -0.3422
   92MOL0     H12402   4.558   5.496   2.365  2.5123 -3.2712 -0.1362
   92MOL0     H12403   4.382   5.514   2.546  0.8537 -1.3365  0.2051
   92MOL0     H12404   4.041   5.562   2.710 -0.6476  1.0132  1.6335
   92MOL0     H12405   3.923   5.618   2.911 -0.9606 -0.5724  0.6537
   92MOL0     H12406   2.976   4.933   3.377  0.6598 -3.3180 -3.0941
   92MOL0     H12407   3.103   4.867   3.191  0.0058 -0.1322 -0.0124
   92MOL0     H12408   3.316   5.016   2.836  0.6564  0.8999  0.2835
   92MOL0     H12409   3.384   4.971   2.609  0.2171  0.9415 -0.6983
   92MOL0     H12410   3.764   4.788   2.495  0.2561  1.3669 -1.7957
   92MOL0     H12411   3.668   4.642   2.532  3.4165  0.6911  2.0571
   92MOL0     H12412   3.729   4.671   2.285  1.3898  0.6328  0.4716
   92MOL0     H12413   3.658   4.835   2.291 -0.1080 -1.1694 -1.5719
   92MOL0     H12414   3.427   4.700   2.355 -1.7790 -3.2471 -0.5936
   92MOL0     H12415   3.528   4.567   2.323 -1.2011 -1.3705 -1.5909
   92MOL0     H12416   3.418   4.588   2.106 -0.2934  0.5901  1.1043
   92MOL0     H12417   3.587   4.645   2.105  0.6517 -0.2510  2.0290
   92MOL0     H12418   3.398   4.999   1.989  0.2678 -0.3552 -0.2232
   92MOL0     H12419   3.657   4.674   2.745  0.6641  1.2390 -1.7421
   92MOL0     H12420   3.608   4.720   2.978  0.6644 -1.3426 -1.1894
   93MOL0     O12421   8.963   2.802   1.300  0.1046  0.1860 -0.6734
   93MOL0     C12422   9.058   2.874   1.270  0.0700  0.2624 -0.0907
   93MOL0     O12423   9.068   2.947   1.155  0.8332 -0.6017 -0.3345
   93MOL0     C12424   8.973   2.957   1.065  1.0394  0.2850 -0.4243
   93MOL0     C12425   8.833   2.954   1.091 -0.4005 -0.2382 -0.0766
   93MOL0     C12426   8.741   2.961   0.986 -0.2584 -0.0197 -0.4695
   93MOL0     C12427   8.796   2.967   0.855  0.0415  0.2524  0.3382
   93MOL0     O12428   8.712   2.964   0.746  0.3026  0.3834  0.3438
   93MOL0     C12429   8.575   2.995   0.765 -0.2938 -0.2725 -0.5738
   93MOL0     C12430   8.521   2.964   0.621  0.1654  0.3993  0.4302
   93MOL0     C12431   8.377   3.012   0.601  0.4083  0.3365 -0.4308
   93MOL0     C12432   8.308   2.981   0.463  0.3824  0.4265 -0.4828
   93MOL0     C12433   8.214   2.860   0.456 -0.8308  0.2435  0.4093
   93MOL0     C12434   8.159   2.848   0.318  0.7699 -0.1647 -0.0294
   93MOL0     C12435   8.266   2.847   0.200  0.7614 -0.6755 -0.2154
   93MOL0     C12436   8.213   2.772   0.075  0.4078 -0.8355 -0.6846
   93MOL0     N12437   8.105   2.844   0.020  0.4799 -0.2443  0.8878
   93MOL0     C12438   8.125   2.962  -0.038 -0.0034 -0.2966  0.5587
   93MOL0     C12439   8.004   2.995  -0.090 -0.0920 -0.0591  0.1071
   93MOL0     C12440   7.962   3.114  -0.169  0.7607 -0.5083 -0.6706
   93MOL0     C12441   7.834   3.183  -0.115  0.3188 -0.7043 -0.1152
   93MOL0     C12442   7.815   3.312  -0.212  0.8004 -0.8158 -0.0888
   93MOL0     C12443   7.744   3.440  -0.152 -0.3747  0.4129 -0.2746
   93MOL0     O12444   7.649   3.489  -0.246  0.7810  0.6239  0.3040
   93MOL0     C12445   7.560   3.590  -0.211 -0.6826  0.3732  0.2702
   93MOL0     C12446   7.529   3.688  -0.308 -0.8799 -0.3367 -0.5470
   93MOL0     C12447   7.437   3.788  -0.275  0.3457  0.2098 -0.0523
   93MOL0     C12448   7.452   3.906  -0.365 -0.5661 -0.5628 -0.4530
   93MOL0     C12449   7.372   3.787  -0.150 -0.4586 -0.4880 -0.4543
   93MOL0     C12450   7.270   3.891  -0.113 -0.2841 -0.5966  0.5464
   93MOL0     O12451   7.197   3.845   0.002  0.3118 -0.6112  0.4194
   93MOL0     C12452   7.083   3.913   0.030 -0.6419 -0.5342  0.1070
   93MOL0     C12453   7.075   4.022   0.119 -0.2611  0.8885  0.3871
   93MOL0     C12454   6.957   4.085   0.134  0.1134 -0.6495 -0.4003
   93MOL0     C12455   6.842   4.034   0.068  0.3465 -0.0203 -0.5935
   93MOL0     O12456   6.729   4.102   0.106 -0.3678  0.5160 -0.0716
   93MOL0     C12457   6.628   4.121   0.009  0.0495 -0.6282  0.0712
   93MOL0     C12458   6.542   4.217   0.075 -1.2124 -0.6599 -0.1201
   93MOL0     C12459   6.408   4.223   0.017  0.3603 -0.4166  0.7155
   93MOL0     C12460   6.317   4.317   0.098 -0.7573  0.6575  0.4508
   93MOL0     C12461   6.192   4.340   0.013  0.7040  0.2682  0.2143
   93MOL0     C12462   6.104   4.223  -0.028 -0.7265  0.2509  0.5330
   93MOL0     C12463   6.056   4.136   0.093  0.0600 -0.0123 -0.1476
   93MOL0     C12464   5.985   4.015   0.036 -0.5519  1.0435  0.3025
   93MOL0    Cl12465   6.111   3.912  -0.036 -0.1126  0.4231 -0.1286
   93MOL0     C12466   6.850   3.922  -0.009  0.7938  0.3546  0.0779
   93MOL0     C12467   6.972   3.860  -0.029  0.1668 -0.1257  0.3898
   93MOL0     O12468   7.264   4.004  -0.166  0.7076 -0.3121 -0.0948
   93MOL0     C12469   7.399   3.687  -0.064 -0.9573  0.7992 -0.2503
   93MOL0     C12470   7.497   3.589  -0.087  0.5589 -0.5065  1.2012
   93MOL0     N12471   7.919   2.886  -0.056 -0.1441  0.3100 -0.1015
   93MOL0     N12472   7.975   2.798   0.013 -0.3699  0.5386  1.0446
   93MOL0     C12473   8.933   2.990   0.830 -0.0522  0.3735 -0.3960
   93MOL0     C12474   9.023   2.976   0.933 -0.1785  0.3744 -0.6706
   93MOL0     C12475   9.182   2.863   1.341  0.2693  0.4425  0.5974
   93MOL0     C12476   9.274   2.970   1.352  0.6474 -0.2007  0.0686
   93MOL0     C12477   9.402   2.954   1.407  0.8723  0.1396  0.2259
   93MOL0     C12478   9.444   2.832   1.465  0.2985  0.2121  0.8589
   93MOL0     O12479   9.571   2.827   1.515  0.8114  0.3995 -0.2109
   93MOL0     C12480   9.569   2.832   1.660 -0.3714 -0.6090 -0.3890
   93MOL0     C12481   9.708   2.887   1.703 -0.1803  0.3856 -0.0767
   93MOL0     C12482   9.776   2.996   1.614 -0.1506 -0.7768  0.1722
   93MOL0     C12483   9.693   3.118   1.639  0.2564 -0.7482 -0.1340
   93MOL0     C12484   9.717   3.222   1.536  0.2909 -0.2595  1.1675
   93MOL0     C12485   9.729   3.303   1.442  0.8994 -0.3438 -0.6144
   93MOL0     C12486   9.350   2.729   1.462 -0.5663 -0.9815 -1.0074
   93MOL0     C12487   9.225   2.743   1.405  0.6859 -0.2753  0.5282
   93MOL0     H12488   8.792   2.955   1.192 -0.7174 -0.3879 -0.2028
   93MOL0     H12489   8.636   2.945   1.009 -0.6600  3.4211  0.7878
   93MOL0     H12490   8.518   2.934   0.836  0.1152 -2.4121 -1.9766
   93MOL0     H12491   8.565   3.103   0.776  0.1546 -0.2049 -0.8146
   93MOL0     H12492   8.578   3.025   0.551 -2.1994  0.8934 -1.1786
   93MOL0     H12493   8.532   2.856   0.606 -0.0453  0.5847 -1.1340
   93MOL0     H12494   8.304   2.994   0.681  1.6724  1.9543  1.1536
   93MOL0     H12495   8.381   3.121   0.597 -1.1503  0.3697 -1.8085
   93MOL0     H12496   8.245   3.066   0.438 -2.2270 -1.1444  0.4165
   93MOL0     H12497   8.392   2.980   0.392  2.3005  0.7074  1.6842
   93MOL0     H12498   8.264   2.766   0.481 -1.0581  0.1514  0.5233
   93MOL0     H12499   8.139   2.876   0.535 -0.9345  1.6904  0.0551
   93MOL0     H12500   8.110   2.750   0.318 -0.5132  0.4523  0.5990
   93MOL0     H12501   8.079   2.921   0.305  0.9419  0.2622  1.1825
   93MOL0     H12502   8.280   2.952   0.173 -3.0961  0.3928  1.2600
   93MOL0     H12503   8.366   2.808   0.223  0.7624 -0.3831  0.3017
   93MOL0     H12504   8.194   2.670   0.108 -1.0973 -1.1625 -2.4134
   93MOL0     H12505   8.299   2.765   0.007  2.6624  2.5952  1.4849
   93MOL0     H12506   8.223   3.009  -0.044  0.6336 -1.7495 -1.4343
   93MOL0     H12507   8.036   3.192  -0.185 -0.6239  0.4473 -2.9547
   93MOL0     H12508   7.930   3.087  -0.270 -1.7599  2.2649 -0.7737
   93MOL0     H12509   7.850   3.207  -0.010 -2.4675 -2.6035  0.8650
   93MOL0     H12510   7.742   3.124  -0.107 -1.0153  1.3775  0.7847
   93MOL0     H12511   7.760   3.267  -0.296 -0.3726  1.5888 -0.7234
   93MOL0     H12512   7.917   3.338  -0.240  0.4110 -0.1653 -0.9674
   93MOL0     H12513   7.819   3.516  -0.131  0.1813 -1.0009  3.6215
   93MOL0     H12514   7.706   3.417  -0.052  0.5392  1.7496  0.4025
   93MOL0     H12515   7.590   3.679  -0.397 -0.0388 -0.5738  0.0391
   93MOL0     H12516   7.353   3.931  -0.405  0.3538  0.2193 -2.3746
   93MOL0     H12517   7.486   3.998  -0.315  0.5957 -1.5335  0.5956
   93MOL0     H12518   7.512   3.883  -0.453  0.4743 -1.0172  0.3531
   93MOL0     H12519   7.168   4.058   0.164  0.3834  0.9729 -0.9604
   93MOL0     H12520   6.957   4.171   0.200  1.4480  1.2294 -2.6732
   93MOL0     H12521   6.670   4.144  -0.090 -0.3067  3.3467  0.6803
   93MOL0     H12522   6.572   4.031  -0.017  0.1149 -0.0730 -2.2372
   93MOL0     H12523   6.529   4.196   0.181 -2.8230  0.9087  0.0293
   93MOL0     H12524   6.585   4.317   0.067  1.7687 -1.8627 -0.5915
   93MOL0     H12525   6.361   4.125   0.013  1.8989 -1.1510 -2.5033
   93MOL0     H12526   6.417   4.262  -0.085 -1.1271  2.8649  1.6946
   93MOL0     H12527   6.293   4.282   0.199 -2.8955  2.3954  0.6270
   93MOL0     H12528   6.366   4.413   0.116 -1.7025  0.9820  1.4258
   93MOL0     H12529   6.229   4.402  -0.070  3.3681  1.8963  2.4513
   93MOL0     H12530   6.116   4.385   0.077 -0.4361 -0.2771 -0.7143
   93MOL0     H12531   6.021   4.265  -0.086 -0.4747  3.0411  2.0287
   93MOL0     H12532   6.164   4.168  -0.102 -0.9110 -0.7541  1.1193
   93MOL0     H12533   5.982   4.194   0.149 -0.5241  1.9417 -2.7552
   93MOL0     H12534   6.135   4.094   0.156  1.1484 -0.4577 -1.7447
   93MOL0     H12535   5.919   4.030  -0.049  1.4604  1.1894 -1.3258
   93MOL0     H12536   5.926   3.958   0.108 -0.4151 -3.3005 -2.7058
   93MOL0     H12537   6.762   3.885  -0.060  2.1290 -0.4476 -1.7714
   93MOL0     H12538   6.987   3.773  -0.092 -2.6803  0.4115 -1.1840
   93MOL0     H12539   7.358   3.679   0.036  1.7865 -0.1960  0.9007
   93MOL0     H12540   7.511   3.518  -0.006  2.4376 -0.6415  0.8002
   93MOL0     H12541   8.972   3.003   0.730 -2.1147  2.4783 -1.0167
   93MOL0     H12542   9.130   2.986   0.916  0.1209 -2.0367 -0.5316
   93MOL0     H12543   9.249   3.069   1.313 -2.8033 -1.0761 -0.2797
   93MOL0     H12544   9.458   3.047   1.404 -0.7483  1.1147 -0.8516
   93MOL0     H12545   9.488   2.888   1.707  1.7695  1.9228  0.5223
   93MOL0     H12546   9.555   2.729   1.695  0.1443 -0.3698  0.5605
   93MOL0     H12547   9.766   2.795   1.701 -1.9739 -0.8537  1.3715
   93MOL0     H12548   9.714   2.920   1.807 -0.5274 -2.5307  0.9538
   93MOL0     H12549   9.777   2.977   1.507  0.3965  1.1199 -0.1904
   93MOL0     H12550   9.878   3.026   1.642 -0.0963  0.0096 -0.8301
   93MOL0     H12551   9.699   3.163   1.738 -0.2182  0.3602 -0.5986
   93MOL0     H12552   9.587   3.093   1.624 -0.8098  3.0884  0.0139
   93MOL0     H12553   9.738   3.391   1.383 -1.3289 -0.9133 -1.9585
   93MOL0     H12554   9.391   2.644   1.516 -1.3653  0.7121  2.5310
   93MOL0     H12555   9.167   2.651   1.406 -1.0267  0.6094 -2.6426
   94MOL0     O12556   0.726   4.620   6.869  0.4664  0.4704 -0.1060
   94MOL0     C12557   0.756   4.509   6.831 -0.1880 -0.9415  0.5847
   94MOL0     O12558   0.674   4.403   6.803 -0.3158 -0.8666  0.2560
   94MOL0     C12559   0.541   4.437   6.819 -0.1632 -1.0754  0.9879
   94MOL0     C12560   0.477   4.436   6.936  0.4431 -0.2343 -0.2031
   94MOL0     C12561   0.347   4.463   6.951 -0.6607 -0.2262 -0.7293
   94MOL0     C12562   0.273   4.498   6.840  0.1576  0.3031 -0.0672
   94MOL0     O12563   0.134   4.518   6.844  0.4340  0.1802  0.1441
   94MOL0     C12564   0.055   4.445   6.936  0.3777 -0.0052 -0.3975
   94MOL0     C12565  -0.091   4.454   6.906 -0.1148  0.6165  0.3689
   94MOL0     C12566  -0.164   4.390   7.017 -1.0451  0.4571  0.0952
   94MOL0     C12567  -0.179   4.237   7.021 -0.9327  0.3201 -0.2773
   94MOL0     C12568  -0.208   4.188   7.160 -0.7129 -0.2058 -0.6163
   94MOL0     C12569  -0.331   4.245   7.223  0.4759 -0.4814 -0.1966
   94MOL0     C12570  -0.465   4.192   7.179 -0.2962  0.4239  0.4208
   94MOL0     C12571  -0.588   4.267   7.237 -1.1386  0.0099  0.0977
   94MOL0     N12572  -0.619   4.235   7.374 -0.1053  0.4703 -0.6720
   94MOL0     C12573  -0.721   4.150   7.412  0.2097 -0.1702 -0.3684
   94MOL0     C12574  -0.709   4.154   7.551  0.1450  0.2224  0.4486
   94MOL0     C12575  -0.820   4.100   7.650 -0.7543 -0.3493  0.3404
   94MOL0     C12576  -0.757   4.065   7.785 -0.1564  0.5666 -0.0029
   94MOL0     C12577  -0.861   4.072   7.903 -1.0344 -0.1559  0.1258
   94MOL0     C12578  -0.972   3.966   7.884  0.4037  0.8044  0.1257
   94MOL0     O12579  -1.039   3.932   8.005  0.3050 -0.1616 -0.3732
   94MOL0     C12580  -1.175   3.909   8.002 -0.1245 -0.2301 -0.6390
   94MOL0     C12581  -1.254   3.883   7.888 -0.8035 -0.4089 -0.8288
   94MOL0     C12582  -1.397   3.866   7.887 -0.7102  0.5977 -0.5374
   94MOL0     C12583  -1.461   3.830   7.758  0.1689  0.4004  0.0879
   94MOL0     C12584  -1.465   3.878   8.018 -0.0257  0.1631 -0.1024
   94MOL0     C12585  -1.613   3.874   8.027  0.5081 -0.7944  0.1684
   94MOL0     O12586  -1.676   3.814   8.128 -0.8081 -0.5638 -0.8475
   94MOL0     C12587  -1.800   3.867   8.164 -0.2582 -0.2852  0.1178
   94MOL0     C12588  -1.897   3.779   8.205 -0.0173  0.1244  0.4114
   94MOL0     C12589  -2.025   3.821   8.255  0.4463 -0.5281  0.4604
   94MOL0     C12590  -2.059   3.958   8.253 -0.4774  0.0659  0.4380
   94MOL0     O12591  -2.179   3.998   8.297 -0.4735 -1.1115  0.1274
   94MOL0     C12592  -2.245   4.058   8.177  0.3897  0.1510 -0.4245
   94MOL0     C12593  -2.375   4.121   8.221  0.4341 -0.4035 -0.3570
   94MOL0     C12594  -2.487   4.095   8.114  0.6414 -0.2313 -0.0461
   94MOL0     C12595  -2.548   3.949   8.137 -0.1290 -0.9671  0.1264
   94MOL0     C12596  -2.666   3.912   8.044  0.3964  0.6006 -0.4418
   94MOL0     C12597  -2.726   3.775   8.083  0.1740  0.5157  0.2086
   94MOL0     C12598  -2.848   3.738   8.001  1.1272 -0.3572  0.1913
   94MOL0     C12599  -2.972   3.830   8.017  1.0362  0.9763 -0.1523
   94MOL0    Cl12600  -3.111   3.748   7.939 -0.2795  0.2648  0.2591
   94MOL0     C12601  -1.962   4.057   8.212  2.0102  0.2729  0.9573
   94MOL0     C12602  -1.834   4.002   8.170 -0.1143  0.0963  0.6242
   94MOL0     O12603  -1.674   3.920   7.936  0.3621 -0.0575 -0.6130
   94MOL0     C12604  -1.379   3.875   8.135  0.5737  0.2879  0.2009
   94MOL0     C12605  -1.245   3.890   8.126 -0.3645  0.5329 -0.1169
   94MOL0     N12606  -0.601   4.232   7.586  0.6235  0.2345 -0.0181
   94MOL0     N12607  -0.549   4.279   7.481  0.0021  0.6612  0.8786
   94MOL0     C12608   0.324   4.490   6.708  1.1532  0.5991 -1.4395
   94MOL0     C12609   0.462   4.463   6.700  0.4104  0.8769 -0.5328
   94MOL0     C12610   0.902   4.482   6.819  0.4239  0.5107  0.0102
   94MOL0     C12611   1.001   4.555   6.884 -0.4370 -0.0912  0.6647
   94MOL0     C12612   1.139   4.536   6.870  0.2340 -0.3285 -0.5940
   94MOL0     C12613   1.189   4.431   6.787  0.1570  0.5761  0.0845
   94MOL0     O12614   1.326   4.419   6.775 -0.5573  0.6295  0.0125
   94MOL0     C12615   1.377   4.293   6.736  0.3347 -0.4258  0.0736
   94MOL0     C12616   1.523   4.282   6.717 -0.4817  0.4992  0.4245
   94MOL0     C12617   1.599   4.328   6.844 -0.4080 -0.4763 -0.6858
   94MOL0     C12618   1.747   4.302   6.840 -0.1255 -0.2584  1.1027
   94MOL0     C12619   1.822   4.374   6.940 -0.0197  0.0761  0.2933
   94MOL0     C12620   1.897   4.420   7.023  1.2051 -0.3831 -0.0825
   94MOL0     C12621   1.097   4.340   6.728 -0.2470  0.0304 -0.4502
   94MOL0     C12622   0.955   4.377   6.743 -0.2950  0.4883 -0.8221
   94MOL0     H12623   0.530   4.407   7.026 -0.0613  1.8603  0.8116
   94MOL0     H12624   0.302   4.441   7.047 -0.5631 -0.7307 -0.7945
   94MOL0     H12625   0.095   4.344   6.948 -0.5182 -0.3926 -0.5617
   94MOL0     H12626   0.074   4.494   7.032  0.2472 -1.0738  0.1886
   94MOL0     H12627  -0.116   4.559   6.891  1.5638  0.9378 -0.4878
   94MOL0     H12628  -0.108   4.414   6.805  0.1712  1.0911  0.1285
   94MOL0     H12629  -0.115   4.409   7.113 -3.9108 -1.1875  2.0522
   94MOL0     H12630  -0.265   4.431   7.030 -1.5237 -1.0649  1.6045
   94MOL0     H12631  -0.266   4.215   6.959 -1.0760  1.8775 -0.6766
   94MOL0     H12632  -0.087   4.193   6.982 -1.2755 -0.6029 -0.0660
   94MOL0     H12633  -0.211   4.079   7.166  1.9720 -0.3304 -0.1294
   94MOL0     H12634  -0.129   4.225   7.227 -1.6787  2.0535 -0.6600
   94MOL0     H12635  -0.332   4.225   7.331 -2.1842 -4.0791 -0.7066
   94MOL0     H12636  -0.316   4.354   7.220  1.9919 -0.6554  0.1640
   94MOL0     H12637  -0.481   4.179   7.071  2.5230 -2.4447  0.1553
   94MOL0     H12638  -0.465   4.088   7.215 -0.0619  0.2867  0.0402
   94MOL0     H12639  -0.684   4.255   7.185 -1.3483 -4.5511  1.1108
   94MOL0     H12640  -0.559   4.372   7.233  1.4125 -0.6657 -2.4910
   94MOL0     H12641  -0.786   4.092   7.348 -1.3765  2.4299 -1.3026
   94MOL0     H12642  -0.873   4.194   7.668 -0.3898 -0.1487  0.3811
   94MOL0     H12643  -0.889   4.024   7.613  0.8067 -1.3694 -0.5557
   94MOL0     H12644  -0.675   4.134   7.806 -0.6195  1.0667  0.2054
   94MOL0     H12645  -0.717   3.964   7.786  0.7985  0.9321 -0.6896
   94MOL0     H12646  -0.891   4.176   7.917  0.1817  0.3548 -0.8552
   94MOL0     H12647  -0.810   4.063   7.999 -3.3443  5.8280  2.3705
   94MOL0     H12648  -0.919   3.881   7.840  0.3745  1.4508 -1.1839
   94MOL0     H12649  -1.042   3.998   7.806  1.6826 -2.7011 -2.7775
   94MOL0     H12650  -1.195   3.876   7.797  2.3800  3.4212  0.6590
   94MOL0     H12651  -1.541   3.757   7.771  1.2050 -0.4477  2.2340
   94MOL0     H12652  -1.515   3.919   7.726 -1.1271  0.0044  1.0989
   94MOL0     H12653  -1.391   3.801   7.679  0.5954  1.2476  0.1491
   94MOL0     H12654  -1.862   3.676   8.205  1.4179  0.5410 -1.8615
   94MOL0     H12655  -2.100   3.746   8.278 -2.1201  0.8152 -2.6467
   94MOL0     H12656  -2.189   4.130   8.117 -1.1929  1.7514 -0.0752
   94MOL0     H12657  -2.263   3.976   8.107  2.1158  0.9154 -1.8475
   94MOL0     H12658  -2.409   4.067   8.310  1.8849 -0.2833  0.2866
   94MOL0     H12659  -2.362   4.229   8.232  0.1807 -0.2203 -1.6826
   94MOL0     H12660  -2.452   4.127   8.015  1.1799 -0.5316  0.0435
   94MOL0     H12661  -2.561   4.172   8.138 -0.9220 -1.8528  0.5295
   94MOL0     H12662  -2.468   3.874   8.130 -0.4377 -1.1882 -1.5814
   94MOL0     H12663  -2.575   3.939   8.242 -1.4167  0.9594  0.0290
   94MOL0     H12664  -2.623   3.904   7.944  0.3814  2.4638 -0.6351
   94MOL0     H12665  -2.744   3.988   8.041 -0.7776 -0.5801 -0.7091
   94MOL0     H12666  -2.651   3.696   8.079 -0.4182 -0.1269  1.2089
   94MOL0     H12667  -2.748   3.784   8.190  2.6557  1.3961  0.7110
   94MOL0     H12668  -2.885   3.645   8.045 -0.0926  0.0416  0.0602
   94MOL0     H12669  -2.821   3.711   7.899 -1.0626 -4.1662  0.3998
   94MOL0     H12670  -2.966   3.929   7.972 -0.7705  1.4477  0.5733
   94MOL0     H12671  -2.996   3.846   8.122 -0.1439 -0.1889 -0.2116
   94MOL0     H12672  -1.970   4.164   8.196 -2.7712  0.0187  0.1903
   94MOL0     H12673  -1.748   4.064   8.145  1.1798 -0.2621  3.6480
   94MOL0     H12674  -1.444   3.862   8.221 -0.9257  2.9635 -0.4035
   94MOL0     H12675  -1.186   3.882   8.216 -1.4814  3.9160  1.0731
   94MOL0     H12676   0.263   4.517   6.622 -3.4537 -2.4819  0.4714
   94MOL0     H12677   0.505   4.451   6.601  1.5924  2.5994 -0.2828
   94MOL0     H12678   0.978   4.636   6.953 -0.6414 -0.1459  0.6627
   94MOL0     H12679   1.215   4.600   6.913  1.2389 -0.2016 -2.4446
   94MOL0     H12680   1.350   4.214   6.806  0.3755  1.1958  1.9897
   94MOL0     H12681   1.335   4.280   6.635 -2.0865  1.6930  0.7100
   94MOL0     H12682   1.550   4.343   6.629 -1.3600 -1.0054 -0.9396
   94MOL0     H12683   1.556   4.180   6.694 -2.3264 -0.0708  0.1701
   94MOL0     H12684   1.541   4.289   6.928 -0.2339 -0.2711 -0.4680
   94MOL0     H12685   1.581   4.435   6.860 -2.6851 -0.9485  0.3338
   94MOL0     H12686   1.788   4.332   6.743 -3.5100  1.6883  0.1235
   94MOL0     H12687   1.767   4.195   6.852  4.5903 -0.1951 -2.7872
   94MOL0     H12688   1.980   4.452   7.082  0.5459  0.6576  0.3023
   94MOL0     H12689   1.119   4.260   6.659  2.7223  0.0594  0.3377
   94MOL0     H12690   0.886   4.319   6.682 -0.2371  1.6561 -2.0572
   95MOL0     O12691  10.947   2.178   3.659  0.8040  0.0325  0.4344
   95MOL0     C12692  11.059   2.124   3.658 -0.7096 -1.0145  0.5472
   95MOL0     O12693  11.096   1.997   3.672 -0.6724 -0.2512  0.1354
   95MOL0     C12694  10.993   1.918   3.720 -0.8998  0.0883  0.7803
   95MOL0     C12695  10.888   1.864   3.633 -0.6679  0.6846 -1.1836
   95MOL0     C12696  10.790   1.772   3.680 -0.4214 -0.3861  0.0534
   95MOL0     C12697  10.795   1.732   3.821  0.4223  0.2925 -0.5760
   95MOL0     O12698  10.695   1.661   3.880  0.2738 -1.1037  0.3058
   95MOL0     C12699  10.620   1.566   3.798 -0.4950  0.9816  1.0909
   95MOL0     C12700  10.586   1.442   3.863  0.5800 -0.1894 -0.8973
   95MOL0     C12701  10.711   1.358   3.914 -0.4090  0.5739 -0.4579
   95MOL0     C12702  10.770   1.416   4.047 -0.3270 -0.4484 -0.0475
   95MOL0     C12703  10.664   1.455   4.151 -0.2741  0.5183 -0.3752
   95MOL0     C12704  10.750   1.488   4.276 -0.2914  0.3899  0.1513
   95MOL0     C12705  10.659   1.527   4.388 -0.3529 -0.6178 -0.0163
   95MOL0     C12706  10.730   1.561   4.524  0.3947  0.2060 -0.1581
   95MOL0     N12707  10.634   1.607   4.627 -0.3277  0.5639  0.2903
   95MOL0     C12708  10.561   1.537   4.721 -0.7712 -0.3093  0.4158
   95MOL0     C12709  10.466   1.621   4.769  0.6065  0.3745 -0.1013
   95MOL0     C12710  10.354   1.570   4.853  0.1684 -0.0170  0.1443
   95MOL0     C12711  10.211   1.637   4.845 -0.9658  0.3144  0.0400
   95MOL0     C12712  10.108   1.528   4.887 -0.8163  0.0454 -0.5384
   95MOL0     C12713  10.148   1.470   5.023  0.7098 -0.6381 -1.1266
   95MOL0     O12714  10.166   1.576   5.119  0.3435 -0.7862 -0.5014
   95MOL0     C12715  10.053   1.638   5.159 -0.2690  0.8715  0.6002
   95MOL0     C12716  10.083   1.766   5.218 -0.3071  0.0578 -0.1235
   95MOL0     C12717   9.982   1.857   5.264  0.3036 -1.4711 -0.4649
   95MOL0     C12718  10.030   1.984   5.321  0.0170  0.3123  1.1497
   95MOL0     C12719   9.846   1.827   5.246  0.0241  0.2488  0.8501
   95MOL0     C12720   9.740   1.918   5.292 -0.2360  0.9563  0.8082
   95MOL0     O12721   9.765   1.999   5.398 -0.9872 -0.6298  0.3846
   95MOL0     C12722   9.663   2.084   5.439  0.6623 -0.1673  0.3556
   95MOL0     C12723   9.683   2.222   5.420  0.6384 -1.1703 -0.4958
   95MOL0     C12724   9.597   2.321   5.475  0.6800 -0.0160  0.0736
   95MOL0     C12725   9.475   2.285   5.531  0.5445  0.4332 -0.1964
   95MOL0     O12726   9.373   2.369   5.585  0.3692  0.6327 -0.0008
   95MOL0     C12727   9.412   2.492   5.632  0.0925 -0.1164 -0.3059
   95MOL0     C12728   9.298   2.545   5.720  0.8482  0.6858  0.1471
   95MOL0     C12729   9.171   2.594   5.644 -0.1753 -0.3311  0.1576
   95MOL0     C12730   9.067   2.647   5.740 -0.4698  0.4153  1.0969
   95MOL0     C12731   8.954   2.720   5.673 -0.3993 -1.2939 -0.4256
   95MOL0     C12732   8.834   2.748   5.770  0.8213 -0.4312 -0.5620
   95MOL0     C12733   8.714   2.819   5.704  0.0785 -0.6992 -0.2059
   95MOL0     C12734   8.610   2.875   5.805  0.3373 -0.5199  0.1060
   95MOL0    Cl12735   8.700   2.993   5.905  0.2209 -0.4809 -0.1845
   95MOL0     C12736   9.438   2.149   5.532 -0.4155 -0.1767  0.6217
   95MOL0     C12737   9.535   2.048   5.487 -0.0961 -0.5656  0.3476
   95MOL0     O12738   9.631   1.918   5.235  0.3229  0.7603  0.0314
   95MOL0     C12739   9.814   1.698   5.189 -0.2039 -0.1340 -0.0679
   95MOL0     C12740   9.921   1.617   5.142  0.0803  0.5324  0.0851
   95MOL0     N12741  10.495   1.745   4.713  0.8778  0.4501  0.1153
   95MOL0     N12742  10.586   1.737   4.626 -1.0833  0.3040 -0.8077
   95MOL0     C12743  10.884   1.791   3.910 -0.3362 -0.3146 -0.7321
   95MOL0     C12744  10.979   1.877   3.851 -0.3494  0.2601  0.2652
   95MOL0     C12745  11.176   2.217   3.628 -0.7993 -0.8672  0.9344
   95MOL0     C12746  11.313   2.175   3.624  0.1587  0.7528 -0.3604
   95MOL0     C12747  11.418   2.261   3.608  0.3436  0.9203 -0.4248
   95MOL0     C12748  11.396   2.397   3.572  0.7105  0.1508  0.8004
   95MOL0     O12749  11.513   2.466   3.548  0.4423 -0.2175 -0.2986
   95MOL0     C12750  11.501   2.613   3.561  0.7329 -0.3620 -0.2357
   95MOL0     C12751  11.641   2.676   3.552 -0.7586  0.7822 -0.8354
   95MOL0     C12752  11.675   2.711   3.411 -0.1697 -0.1815 -0.0035
   95MOL0     C12753  11.750   2.605   3.324  0.8302 -0.3395 -0.0043
   95MOL0     C12754  11.876   2.566   3.384 -0.2925  0.4036 -0.0856
   95MOL0     C12755  11.973   2.505   3.412 -0.2446  0.5758 -0.2610
   95MOL0     C12756  11.268   2.444   3.581  0.3317 -0.1547 -0.7111
   95MOL0     C12757  11.157   2.355   3.604  0.1277 -0.1397 -0.1352
   95MOL0     H12758  10.892   1.886   3.527 -0.7272 -1.1400 -1.5995
   95MOL0     H12759  10.707   1.736   3.620 -0.6819 -0.5518  0.5030
   95MOL0     H12760  10.526   1.616   3.772 -0.0282 -0.1221 -3.7233
   95MOL0     H12761  10.678   1.545   3.707  0.5748 -0.6889  2.1212
   95MOL0     H12762  10.508   1.467   3.935  1.6184  0.8798 -0.0977
   95MOL0     H12763  10.540   1.377   3.788 -0.0788  2.1057 -2.6100
   95MOL0     H12764  10.691   1.250   3.915  0.3086  0.4404  0.0777
   95MOL0     H12765  10.789   1.363   3.838  0.5399  1.5109  0.5479
   95MOL0     H12766  10.834   1.341   4.095 -2.5628  0.1160  4.2773
   95MOL0     H12767  10.833   1.504   4.030  1.9782 -2.3556 -2.1018
   95MOL0     H12768  10.597   1.540   4.137 -1.5107 -0.4066 -0.2467
   95MOL0     H12769  10.602   1.366   4.169  2.0183 -1.2671 -0.8042
   95MOL0     H12770  10.813   1.404   4.306  1.3899  0.9627 -1.5656
   95MOL0     H12771  10.813   1.577   4.267  2.0776 -1.1623  0.6668
   95MOL0     H12772  10.612   1.617   4.348  0.7897 -0.6098 -1.4124
   95MOL0     H12773  10.593   1.441   4.400  0.7448 -1.7373 -1.5206
   95MOL0     H12774  10.806   1.638   4.509  0.3347 -0.0556 -2.0555
   95MOL0     H12775  10.772   1.464   4.554 -0.7191 -0.4937 -0.8034
   95MOL0     H12776  10.557   1.432   4.747 -0.2098 -1.3386 -3.1232
   95MOL0     H12777  10.339   1.465   4.824 -2.4989  0.2119  0.4698
   95MOL0     H12778  10.387   1.566   4.957  3.0747  2.3386 -0.5481
   95MOL0     H12779  10.194   1.669   4.742  1.0761 -1.5521 -0.9579
   95MOL0     H12780  10.214   1.726   4.907  0.7285  1.0306 -1.0009
   95MOL0     H12781  10.106   1.450   4.811 -3.0665  0.0456 -0.5543
   95MOL0     H12782  10.005   1.564   4.880 -1.7245 -2.5755 -2.0748
   95MOL0     H12783  10.237   1.409   5.007  0.5035 -0.4678 -3.3433
   95MOL0     H12784  10.064   1.404   5.046  0.2287  0.2666 -0.2224
   95MOL0     H12785  10.188   1.792   5.227 -0.4613  0.4940  0.4431
   95MOL0     H12786  10.134   1.992   5.287  0.2149 -0.3499  1.5698
   95MOL0     H12787   9.969   2.068   5.287  0.6375  0.8250  1.2846
   95MOL0     H12788  10.022   1.981   5.430  0.3549  0.9072  1.1961
   95MOL0     H12789   9.769   2.269   5.374  0.7345 -1.4362 -0.5899
   95MOL0     H12790   9.618   2.427   5.482 -0.9379  0.3087  0.4490
   95MOL0     H12791   9.506   2.493   5.687  0.8746  2.0771 -1.5407
   95MOL0     H12792   9.428   2.561   5.549 -0.8899 -0.1278 -0.5121
   95MOL0     H12793   9.265   2.468   5.790  2.5799 -1.7089 -1.5038
   95MOL0     H12794   9.347   2.617   5.787 -2.0318  0.0469  3.2400
   95MOL0     H12795   9.126   2.519   5.578  0.9450  1.0860 -2.4026
   95MOL0     H12796   9.199   2.667   5.567 -0.5248  0.4262  0.7417
   95MOL0     H12797   9.027   2.553   5.781 -2.2041 -0.6022 -2.4696
   95MOL0     H12798   9.119   2.698   5.822 -0.5241 -0.1869  1.5162
   95MOL0     H12799   8.915   2.651   5.597  1.4713 -1.7047 -1.0745
   95MOL0     H12800   8.988   2.812   5.626 -0.7720 -2.2449 -2.7050
   95MOL0     H12801   8.788   2.656   5.808 -2.8669  1.9371  1.2744
   95MOL0     H12802   8.864   2.799   5.862 -1.3955  0.2390 -0.1590
   95MOL0     H12803   8.673   2.748   5.632 -0.6760 -2.0467  1.4865
   95MOL0     H12804   8.749   2.911   5.657 -0.4048 -0.0108  0.7601
   95MOL0     H12805   8.575   2.796   5.873 -1.3857 -0.5228 -0.7365
   95MOL0     H12806   8.524   2.924   5.757  0.6200 -1.6278 -1.6268
   95MOL0     H12807   9.338   2.119   5.562 -1.3604  0.6016 -1.5455
   95MOL0     H12808   9.511   1.942   5.486 -1.1675 -0.3366  0.1661
   95MOL0     H12809   9.712   1.661   5.179 -0.2525 -1.4836  3.7606
   95MOL0     H12810   9.896   1.533   5.079 -1.2354 -0.6486  2.0741
   95MOL0     H12811  10.878   1.767   4.015 -1.4964  1.4392 -0.3517
   95MOL0     H12812  11.057   1.921   3.913  0.2084  0.7051 -0.7418
   95MOL0     H12813  11.324   2.070   3.649 -2.8043  0.8966  2.2493
   95MOL0     H12814  11.519   2.222   3.616 -1.0392 -2.9178  0.5168
   95MOL0     H12815  11.440   2.646   3.477 -0.8858  1.8925  1.7028
   95MOL0     H12816  11.455   2.641   3.657  1.5106  1.9074 -0.4634
   95MOL0     H12817  11.710   2.608   3.602 -3.2053 -2.0477 -1.0252
   95MOL0     H12818  11.636   2.768   3.610 -2.4878 -1.9004  3.8024
   95MOL0     H12819  11.734   2.803   3.418 -0.7564  0.0460  3.1829
   95MOL0     H12820  11.585   2.739   3.355 -1.1093  0.6554  1.8446
   95MOL0     H12821  11.774   2.652   3.228  3.8745 -1.8192 -0.0751
   95MOL0     H12822  11.682   2.521   3.306 -0.7139  0.4869  1.7137
   95MOL0     H12823  12.062   2.454   3.440 -0.1728  1.4371  1.2179
   95MOL0     H12824  11.254   2.551   3.575 -0.3078 -0.1124  0.8640
   95MOL0     H12825  11.055   2.387   3.624 -0.4377 -1.3026 -0.9734
   96MOL0     O12826   7.423   0.260   1.488 -0.6444  0.4221 -0.2327
   96MOL0     C12827   7.329   0.307   1.540  0.6300 -0.4723 -0.8910
   96MOL0     O12828   7.268   0.267   1.656  0.5370 -0.2869  0.2220
   96MOL0     C12829   7.309   0.146   1.713 -0.4884  0.2626 -0.3727
   96MOL0     C12830   7.221   0.036   1.724  0.0571 -0.8504 -0.3256
   96MOL0     C12831   7.271  -0.072   1.789  0.3398 -0.4925 -0.0871
   96MOL0     C12832   7.398  -0.089   1.854  0.2566  0.0337  0.2869
   96MOL0     O12833   7.446  -0.206   1.907 -0.6559 -0.0008 -0.4153
   96MOL0     C12834   7.362  -0.315   1.939  0.0386  1.5261 -0.7835
   96MOL0     C12835   7.266  -0.305   2.059 -0.5060 -0.6596  0.7405
   96MOL0     C12836   7.322  -0.201   2.163 -0.7726 -0.2293  0.1042
   96MOL0     C12837   7.451  -0.260   2.237  0.6345  0.5229  0.2647
   96MOL0     C12838   7.485  -0.203   2.374 -0.2880 -0.1751 -0.6551
   96MOL0     C12839   7.528  -0.054   2.367 -1.4313  0.0725 -0.7182
   96MOL0     C12840   7.687  -0.055   2.380 -0.1923 -0.2271  0.2074
   96MOL0     C12841   7.739   0.087   2.377 -0.6858 -0.7187 -0.1024
   96MOL0     N12842   7.715   0.162   2.254  0.1385 -0.3221  0.6525
   96MOL0     C12843   7.655   0.282   2.253  0.0314 -0.3655 -0.3472
   96MOL0     C12844   7.630   0.319   2.122 -0.3097 -0.3315 -0.2755
   96MOL0     C12845   7.554   0.431   2.076  1.2130 -0.0142  0.2977
   96MOL0     C12846   7.402   0.398   2.052  1.2072 -0.0525 -0.2601
   96MOL0     C12847   7.308   0.444   2.158  0.3977 -0.1605  0.3106
   96MOL0     C12848   7.163   0.384   2.125  0.8757  0.3537  0.3322
   96MOL0     O12849   7.107   0.440   2.004  0.6790  0.3644  0.1842
   96MOL0     C12850   7.044   0.557   2.004 -0.3477 -0.6912 -0.2211
   96MOL0     C12851   6.993   0.601   1.882  0.4530  0.3047 -0.3337
   96MOL0     C12852   6.915   0.716   1.865 -0.7399 -0.3011  1.1083
   96MOL0     C12853   6.872   0.748   1.720 -0.1372  0.8636 -0.5736
   96MOL0     C12854   6.887   0.798   1.973 -1.0684 -0.7250 -1.5604
   96MOL0     C12855   6.787   0.903   1.965  0.1636  0.4634 -1.0809
   96MOL0     O12856   6.706   0.902   2.068  0.0098  0.1722  0.2699
   96MOL0     C12857   6.605   0.992   2.054 -0.4216 -0.5293  0.6959
   96MOL0     C12858   6.524   1.005   1.930  0.0141 -0.2919  0.2688
   96MOL0     C12859   6.402   1.077   1.936  0.7351 -0.7837  0.0576
   96MOL0     C12860   6.371   1.151   2.049 -0.1463 -0.9177  0.1435
   96MOL0     O12861   6.254   1.211   2.064 -0.0534 -0.1795  0.7446
   96MOL0     C12862   6.196   1.276   1.950 -1.3290  0.3525  0.6277
   96MOL0     C12863   6.082   1.204   1.883  0.3436  0.0013 -0.0360
   96MOL0     C12864   5.991   1.305   1.813 -0.0143  0.6195 -0.0751
   96MOL0     C12865   5.854   1.245   1.795 -0.6279 -0.0710 -0.1178
   96MOL0     C12866   5.752   1.322   1.708  0.9221  0.4796  0.8972
   96MOL0     C12867   5.802   1.333   1.570 -0.9533 -0.4001 -1.0600
   96MOL0     C12868   5.714   1.421   1.486  0.7273 -0.0973  0.0534
   96MOL0     C12869   5.739   1.570   1.503  0.5300  0.6431  0.4461
   96MOL0    Cl12870   5.905   1.610   1.451 -0.6097 -0.3144 -0.1428
   96MOL0     C12871   6.455   1.153   2.161 -0.0702  0.1767  1.0803
   96MOL0     C12872   6.579   1.078   2.162 -0.3648 -0.0184  0.6333
   96MOL0     O12873   6.815   0.994   1.895  0.8494  0.1419  0.2741
   96MOL0     C12874   6.942   0.753   2.103  0.2013 -0.1608 -0.0521
   96MOL0     C12875   7.018   0.637   2.120 -0.0532  0.1796 -0.1999
   96MOL0     N12876   7.701   0.224   2.044  0.3961  0.1334 -0.4041
   96MOL0     N12877   7.762   0.145   2.124 -0.4370  0.4263 -0.1646
   96MOL0     C12878   7.484   0.023   1.844  0.3292 -0.0681 -0.5163
   96MOL0     C12879   7.439   0.138   1.774 -0.1735 -0.5611  0.4874
   96MOL0     C12880   7.293   0.443   1.493 -0.2011 -1.1189  0.9162
   96MOL0     C12881   7.330   0.483   1.358  0.0930 -0.0878  0.7591
   96MOL0     C12882   7.256   0.585   1.295 -0.5899  1.1957 -0.1289
   96MOL0     C12883   7.153   0.648   1.362 -0.0425 -0.7810 -0.0931
   96MOL0     O12884   7.082   0.746   1.303  0.3708  0.2633 -0.4671
   96MOL0     C12885   7.110   0.806   1.171  0.1748  0.1527  0.5685
   96MOL0     C12886   7.058   0.718   1.054  0.4099 -0.1589 -0.1257
   96MOL0     C12887   6.906   0.687   1.073  0.4005  0.7483 -0.4538
   96MOL0     C12888   6.856   0.624   0.945 -0.0246  0.2848  0.2660
   96MOL0     C12889   6.733   0.549   0.970  0.0026 -0.4135  0.4485
   96MOL0     C12890   6.623   0.494   0.983 -0.0609  0.3890 -0.9901
   96MOL0     C12891   7.126   0.615   1.498  0.6038  0.3814 -0.4695
   96MOL0     C12892   7.186   0.512   1.559 -0.1755  0.3692  0.5204
   96MOL0     H12893   7.116   0.037   1.698 -0.7274  0.8095  2.4922
   96MOL0     H12894   7.210  -0.161   1.790  1.3544 -1.2460 -1.5509
   96MOL0     H12895   7.310  -0.346   1.847  1.8644 -0.9746 -1.0988
   96MOL0     H12896   7.434  -0.396   1.958  0.7610  2.0042 -1.4001
   96MOL0     H12897   7.163  -0.275   2.036  0.6832  2.1570 -1.5991
   96MOL0     H12898   7.270  -0.406   2.101  1.5806 -0.1166  2.0044
   96MOL0     H12899   7.335  -0.098   2.130  1.4020  1.4543  5.1555
   96MOL0     H12900   7.235  -0.188   2.229 -0.7419  1.4489 -0.1335
   96MOL0     H12901   7.432  -0.367   2.247 -1.6338  0.7346 -1.1541
   96MOL0     H12902   7.540  -0.248   2.175  0.3083 -0.3277 -0.3874
   96MOL0     H12903   7.396  -0.210   2.437  0.2294  2.8162  0.5595
   96MOL0     H12904   7.567  -0.251   2.427  0.4337  0.3928 -1.2446
   96MOL0     H12905   7.491   0.005   2.283  0.1060  2.1793 -0.0002
   96MOL0     H12906   7.489  -0.006   2.457  3.0512  2.0321  0.4702
   96MOL0     H12907   7.720  -0.101   2.473  0.2876  0.8258  0.5686
   96MOL0     H12908   7.732  -0.105   2.293  2.5808 -0.6271  1.7759
   96MOL0     H12909   7.846   0.096   2.399 -0.8203  0.9855  0.0501
   96MOL0     H12910   7.691   0.150   2.453  0.6539  1.4389 -0.9374
   96MOL0     H12911   7.615   0.335   2.338 -2.0531 -0.7815 -1.0016
   96MOL0     H12912   7.567   0.510   2.151  0.2617  2.4381 -1.9607
   96MOL0     H12913   7.588   0.479   1.983  1.8833 -0.0618  0.5123
   96MOL0     H12914   7.398   0.291   2.029 -1.8847  0.3770 -2.3186
   96MOL0     H12915   7.371   0.455   1.964  0.6552 -0.5375 -0.3836
   96MOL0     H12916   7.316   0.552   2.147  1.4663 -0.3660 -1.2377
   96MOL0     H12917   7.339   0.408   2.257 -0.0131  1.0696  0.9114
   96MOL0     H12918   7.096   0.406   2.208  3.1789 -3.2661  3.4847
   96MOL0     H12919   7.164   0.275   2.129 -2.3102  0.2523  0.7057
   96MOL0     H12920   7.023   0.533   1.803  1.3946  0.3149 -0.0060
   96MOL0     H12921   6.857   0.657   1.660 -0.0888  0.0226  0.6589
   96MOL0     H12922   6.782   0.808   1.702 -0.6016 -0.2930 -2.4122
   96MOL0     H12923   6.948   0.818   1.684  1.2137  0.4784  1.4064
   96MOL0     H12924   6.534   0.946   1.840 -0.6234  0.1675 -0.1135
   96MOL0     H12925   6.321   1.072   1.864 -0.7363 -0.6152  1.6219
   96MOL0     H12926   6.162   1.368   1.998 -0.5323  0.0984  1.7113
   96MOL0     H12927   6.271   1.311   1.878 -0.6715  0.0169  1.1299
   96MOL0     H12928   6.115   1.125   1.815  0.9517  0.5004 -0.3349
   96MOL0     H12929   6.028   1.161   1.967 -3.0059  0.4238 -1.7730
   96MOL0     H12930   6.044   1.339   1.723  3.4595  1.5734  2.1305
   96MOL0     H12931   5.979   1.399   1.866  2.8704  1.7377 -1.2009
   96MOL0     H12932   5.867   1.142   1.759  1.9806 -1.7950  4.7694
   96MOL0     H12933   5.804   1.245   1.892 -1.0187  2.1052 -0.2740
   96MOL0     H12934   5.733   1.418   1.755 -1.2149  1.4772 -1.7565
   96MOL0     H12935   5.657   1.268   1.711  0.6617  0.9036  0.4605
   96MOL0     H12936   5.905   1.370   1.565 -0.6243 -0.8816  1.1695
   96MOL0     H12937   5.805   1.234   1.522  1.8677 -2.6299  3.0324
   96MOL0     H12938   5.612   1.396   1.513  0.3539 -0.4244 -1.5282
   96MOL0     H12939   5.712   1.411   1.377 -0.7919  1.1596 -0.0663
   96MOL0     H12940   5.704   1.594   1.604 -1.6061 -3.0866  0.7892
   96MOL0     H12941   5.672   1.619   1.431  1.8189  0.3924 -0.9636
   96MOL0     H12942   6.428   1.211   2.249  3.1509  2.1507  0.9728
   96MOL0     H12943   6.641   1.092   2.250  0.0598  0.4105  0.2718
   96MOL0     H12944   6.916   0.822   2.183  1.4283  0.1780  0.0858
   96MOL0     H12945   7.071   0.605   2.209 -3.6322 -0.2876  1.9419
   96MOL0     H12946   7.579   0.034   1.897 -1.1779  2.1124  1.9889
   96MOL0     H12947   7.508   0.221   1.766 -1.5091  0.4179 -4.0630
   96MOL0     H12948   7.405   0.437   1.293 -0.6421  2.4689 -2.1576
   96MOL0     H12949   7.285   0.624   1.198  0.4705  0.5691 -0.0819
   96MOL0     H12950   7.069   0.908   1.170  3.2343  1.4736 -0.7381
   96MOL0     H12951   7.218   0.814   1.155  0.2672 -3.5628 -1.8481
   96MOL0     H12952   7.104   0.619   1.054 -1.0323 -0.8561 -0.8063
   96MOL0     H12953   7.088   0.747   0.953 -0.0371  0.1760 -0.1698
   96MOL0     H12954   6.853   0.782   1.081  0.5452  0.7057  1.4196
   96MOL0     H12955   6.885   0.623   1.159 -3.1018 -2.5475 -3.4097
   96MOL0     H12956   6.922   0.545   0.909 -1.4020 -0.5334 -0.5434
   96MOL0     H12957   6.833   0.699   0.869 -1.7236 -1.2193 -0.7989
   96MOL0     H12958   6.534   0.439   1.002  0.3749 -0.0807 -0.2771
   96MOL0     H12959   7.052   0.673   1.553 -0.7210 -0.9604 -0.7933
   96MOL0     H12960   7.154   0.472   1.655  2.8628 -1.6318  0.8220
   97MOL0     O12961   9.042  10.621   6.075  0.2686  0.3531  0.5046
   97MOL0     C12962   9.074  10.595   5.960  0.2561 -0.3628 -0.6812
   97MOL0     O12963   8.986  10.565   5.862  0.4344  0.0713 -0.3021
   97MOL0     C12964   8.857  10.550   5.902  0.4309  0.2528  0.4820
   97MOL0     C12965   8.798  10.427   5.917  0.7671  0.3223  0.6392
   97MOL0     C12966   8.660  10.408   5.952 -0.2458 -0.0288  0.9215
   97MOL0     C12967   8.576  10.522   5.969 -0.0422  0.2139 -0.4312
   97MOL0     O12968   8.443  10.491   5.996  0.0791 -0.8015  0.0243
   97MOL0     C12969   8.339  10.596   5.987 -0.0043  0.3896  0.0874
   97MOL0     C12970   8.199  10.541   6.003  0.0477 -0.4162  0.5752
   97MOL0     C12971   8.195  10.434   5.896  0.4588  0.1985  0.6217
   97MOL0     C12972   8.051  10.399   5.851  0.2358 -0.6401  0.3091
   97MOL0     C12973   7.973  10.516   5.782  0.5549 -0.7612 -0.9922
   97MOL0     C12974   7.869  10.470   5.687  0.2721 -0.2863 -0.2167
   97MOL0     C12975   7.917  10.436   5.548  0.9842 -0.0708 -0.5816
   97MOL0     C12976   7.832  10.316   5.488 -0.2196 -0.0783  0.0609
   97MOL0     N12977   7.694  10.348   5.477  0.0184 -0.6834 -0.0565
   97MOL0     C12978   7.640  10.451   5.413  0.0350 -0.4517 -0.2861
   97MOL0     C12979   7.508  10.437   5.438  0.7542 -0.1949 -0.4196
   97MOL0     C12980   7.415  10.543   5.399 -0.3336  0.5461 -0.1488
   97MOL0     C12981   7.310  10.591   5.515 -0.7336 -0.2603  1.1756
   97MOL0     C12982   7.379  10.685   5.608  0.2339  0.0766  1.0496
   97MOL0     C12983   7.306  10.731   5.736 -0.3005  0.2154 -1.3523
   97MOL0     O12984   7.276  10.622   5.821  0.4476  0.0492  0.2485
   97MOL0     C12985   7.369  10.571   5.905 -0.1191  1.1240 -0.0576
   97MOL0     C12986   7.382  10.609   6.039 -0.9152 -0.2213  0.1567
   97MOL0     C12987   7.469  10.552   6.135  0.5305 -0.6678  0.1866
   97MOL0     C12988   7.461  10.612   6.275  0.0647 -0.1645 -0.5646
   97MOL0     C12989   7.554  10.454   6.090  0.0609 -0.2232  0.8239
   97MOL0     C12990   7.653  10.395   6.180 -0.9416  0.1124 -0.5120
   97MOL0     O12991   7.721  10.462   6.270 -0.5973  0.1559  0.0178
   97MOL0     C12992   7.841  10.412   6.325 -0.2600  0.4552  0.1966
   97MOL0     C12993   7.941  10.330   6.251  0.5761  0.3043 -1.0880
   97MOL0     C12994   8.067  10.303   6.309 -0.0114 -0.3097 -0.1415
   97MOL0     C12995   8.105  10.352   6.436 -0.6231  0.5985  0.6571
   97MOL0     O12996   8.230  10.312   6.480  0.5748  0.4349 -0.9972
   97MOL0     C12997   8.228  10.253   6.616  0.0879  0.2780  0.3505
   97MOL0     C12998   8.266  10.365   6.713 -0.2906  0.2064 -0.0132
   97MOL0     C12999   8.226  10.315   6.853 -0.2363 -0.1980  0.8742
   97MOL0     C13000   8.253  10.430   6.943 -0.3592 -1.3523  0.2899
   97MOL0     C13001   8.252  10.385   7.090  0.1488  0.1877  1.3473
   97MOL0     C13002   8.248  10.513   7.171 -0.4973 -0.5684 -0.0560
   97MOL0     C13003   8.300  10.478   7.312  0.6651 -0.4072 -0.3958
   97MOL0     C13004   8.287  10.587   7.414 -0.5900  0.0336  0.5159
   97MOL0    Cl13005   8.107  10.625   7.444 -0.6335 -0.1701 -0.0447
   97MOL0     C13006   8.010  10.434   6.505 -0.2067 -0.0815 -0.2232
   97MOL0     C13007   7.880  10.459   6.451 -0.5593  0.3993  0.2006
   97MOL0     O13008   7.663  10.279   6.154 -0.0369  0.4069  0.6291
   97MOL0     C13009   7.552  10.416   5.956  0.4243  0.0693  0.7535
   97MOL0     C13010   7.459  10.464   5.873  0.3169 -0.7949  0.4330
   97MOL0     N13011   7.479  10.320   5.519  0.4667 -0.4261  0.2848
   97MOL0     N13012   7.598  10.270   5.544 -0.3833 -0.1802 -0.2178
   97MOL0     C13013   8.643  10.650   5.977 -0.2395  1.0373  0.1482
   97MOL0     C13014   8.783  10.668   5.932  0.3213  1.1449  0.1046
   97MOL0     C13015   9.218  10.596   5.926  1.5708 -0.1837 -0.1334
   97MOL0     C13016   9.251  10.569   5.796 -0.3987 -0.1707 -0.5029
   97MOL0     C13017   9.380  10.597   5.755 -0.4080 -0.3545  0.7453
   97MOL0     C13018   9.486  10.631   5.844 -0.1347 -0.2929  1.0120
   97MOL0     O13019   9.615  10.659   5.803 -0.0564 -0.3315  1.0723
   97MOL0     C13020   9.658  10.605   5.677  0.3215 -0.1056  0.0842
   97MOL0     C13021   9.814  10.612   5.666  0.2769  1.3163 -0.2254
   97MOL0     C13022   9.867  10.614   5.521 -0.0341  0.1352 -0.8568
   97MOL0     C13023   9.863  10.471   5.459 -0.3023 -0.0112  0.6685
   97MOL0     C13024   9.729  10.410   5.453  0.9141 -0.4097 -0.2417
   97MOL0     C13025   9.624  10.362   5.456 -0.0943  1.3481 -0.2203
   97MOL0     C13026   9.453  10.655   5.973  0.3368  0.1142 -0.0158
   97MOL0     C13027   9.318  10.642   6.022 -0.3776  0.2606  0.4027
   97MOL0     H13028   8.869  10.345   5.910  0.2417 -0.3945  2.7778
   97MOL0     H13029   8.615  10.309   5.952 -1.9645  0.6713  3.1459
   97MOL0     H13030   8.359  10.670   6.065  2.8115 -3.4477  3.4916
   97MOL0     H13031   8.344  10.654   5.894  0.2336  1.7663  0.9317
   97MOL0     H13032   8.179  10.504   6.103  2.1963  0.7519  1.4902
   97MOL0     H13033   8.131  10.623   5.976  1.5804  1.3883  1.9351
   97MOL0     H13034   8.263  10.458   5.815 -0.5688  1.2419  0.0394
   97MOL0     H13035   8.218  10.339   5.946  0.5054 -0.0558  0.1137
   97MOL0     H13036   8.046  10.305   5.794 -0.0291 -1.7884  2.1248
   97MOL0     H13037   7.989  10.376   5.939 -0.2727 -0.4250  0.0144
   97MOL0     H13038   7.932  10.584   5.857  1.6168 -2.6717  1.4966
   97MOL0     H13039   8.047  10.575   5.727  0.6908 -0.7511 -0.8012
   97MOL0     H13040   7.824  10.378   5.727  0.2113 -1.0163 -1.8720
   97MOL0     H13041   7.789  10.545   5.688  0.7229  0.1986 -0.6551
   97MOL0     H13042   7.897  10.525   5.488  0.8261  1.3495  1.4834
   97MOL0     H13043   8.024  10.415   5.537  2.0423  3.1544  2.0923
   97MOL0     H13044   7.848  10.232   5.556  0.2506  0.7025  0.9402
   97MOL0     H13045   7.866  10.290   5.388 -2.1420  1.5512 -1.0799
   97MOL0     H13046   7.677  10.525   5.343 -0.9355 -1.5111 -1.9896
   97MOL0     H13047   7.476  10.624   5.356  1.5614 -1.7041 -1.9728
   97MOL0     H13048   7.351  10.496   5.325 -0.0917  1.0300 -0.6732
   97MOL0     H13049   7.272  10.500   5.562 -2.9430  0.6378  1.2544
   97MOL0     H13050   7.222  10.644   5.478 -1.4659 -2.3876 -0.3561
   97MOL0     H13051   7.400  10.762   5.532  0.5343 -0.8072  0.2118
   97MOL0     H13052   7.469  10.631   5.637 -0.0426 -1.3605 -0.5775
   97MOL0     H13053   7.210  10.774   5.706 -0.1969  1.8312  0.4622
   97MOL0     H13054   7.362  10.803   5.796  1.7059  0.0931 -2.9876
   97MOL0     H13055   7.310  10.678   6.082  0.0033  1.3923 -0.7864
   97MOL0     H13056   7.394  10.697   6.287  0.4172  0.4816 -2.7501
   97MOL0     H13057   7.421  10.534   6.341  1.7230  0.1857  0.9342
   97MOL0     H13058   7.559  10.634   6.319 -0.3265 -2.2554  1.5744
   97MOL0     H13059   7.918  10.288   6.154 -0.1705  0.2352 -0.8907
   97MOL0     H13060   8.138  10.234   6.264 -0.5410  0.1073 -1.6701
   97MOL0     H13061   8.143  10.189   6.640  0.3551 -0.3323 -0.3239
   97MOL0     H13062   8.319  10.193   6.625 -0.4920 -0.2620  4.6958
   97MOL0     H13063   8.375  10.377   6.709 -0.0257 -1.8896 -0.2503
   97MOL0     H13064   8.215  10.459   6.692 -2.7875 -1.1499 -0.3273
   97MOL0     H13065   8.281  10.230   6.893  1.4174 -0.4419 -1.6717
   97MOL0     H13066   8.120  10.289   6.851 -0.4013  0.4911  0.1663
   97MOL0     H13067   8.356  10.462   6.925 -0.3745 -0.9155  0.9182
   97MOL0     H13068   8.184  10.512   6.918 -0.5541 -2.2093 -2.2403
   97MOL0     H13069   8.331  10.316   7.122 -0.3515 -0.3082  1.5150
   97MOL0     H13070   8.156  10.335   7.100  0.0889  0.2866  1.2690
   97MOL0     H13071   8.311  10.588   7.123 -3.2271  0.9007 -1.5769
   97MOL0     H13072   8.147  10.555   7.172 -0.9259 -1.4718 -1.7691
   97MOL0     H13073   8.406  10.452   7.304  0.7742  0.4395 -1.9147
   97MOL0     H13074   8.248  10.390   7.352 -4.8787  1.7785 -1.7925
   97MOL0     H13075   8.345  10.674   7.382 -0.6257  0.5465  1.7978
   97MOL0     H13076   8.332  10.549   7.506 -1.6140  1.1138  1.4890
   97MOL0     H13077   8.038  10.490   6.593  1.0226  1.4135 -1.4947
   97MOL0     H13078   7.812  10.525   6.504 -0.8718  0.6192 -0.4592
   97MOL0     H13079   7.615  10.330   5.930 -0.2204 -0.8854  2.2296
   97MOL0     H13080   7.436  10.425   5.774 -3.0547 -1.2154  1.2613
   97MOL0     H13081   8.585  10.732   6.019 -1.1217  1.3074 -1.5317
   97MOL0     H13082   8.827  10.765   5.954  0.2634  0.2549  5.9935
   97MOL0     H13083   9.177  10.551   5.719  0.2271 -1.1829 -0.8948
   97MOL0     H13084   9.400  10.579   5.649 -0.3111 -0.7241  0.8271
   97MOL0     H13085   9.627  10.500   5.674 -1.2514  0.3651 -1.3520
   97MOL0     H13086   9.611  10.660   5.596 -4.0890 -3.4043  0.0612
   97MOL0     H13087   9.850  10.521   5.717  0.5709  1.5311 -0.0441
   97MOL0     H13088   9.848  10.707   5.709 -1.8165  1.7532  0.5922
   97MOL0     H13089   9.968  10.654   5.531  0.9587 -2.2398 -0.7158
   97MOL0     H13090   9.821  10.692   5.459  1.9870 -0.7799 -3.7427
   97MOL0     H13091   9.932  10.397   5.501  0.2812 -0.6481 -1.3023
   97MOL0     H13092   9.901  10.481   5.357  0.8496 -0.7289  1.0082
   97MOL0     H13093   9.521  10.338   5.467 -0.1698  2.0604  0.7230
   97MOL0     H13094   9.520  10.685   6.053 -0.8349  3.6988 -0.1548
   97MOL0     H13095   9.290  10.660   6.125  1.5846  0.3644  0.9449
   98MOL0     O13096   4.353   0.435   7.227  0.4759  0.3862  0.5520
   98MOL0     C13097   4.253   0.457   7.158  0.4418 -0.6455  0.1719
   98MOL0     O13098   4.245   0.513   7.034 -0.0355 -0.7618  0.7198
   98MOL0     C13099   4.363   0.552   6.967  0.6679  0.3200 -0.7547
   98MOL0     C13100   4.487   0.603   7.023  0.0338 -0.3348  0.1107
   98MOL0     C13101   4.584   0.660   6.941  0.2844  0.5299 -0.5379
   98MOL0     C13102   4.559   0.674   6.811 -0.2105 -0.1458 -0.1412
   98MOL0     O13103   4.655   0.749   6.746  0.3044 -0.0672 -0.2785
   98MOL0     C13104   4.649   0.755   6.603 -0.8939  0.0480  1.0319
   98MOL0     C13105   4.699   0.631   6.531  0.9403  0.1911  0.0762
   98MOL0     C13106   4.843   0.580   6.562  0.4647  0.1722 -0.5262
   98MOL0     C13107   4.859   0.445   6.501 -0.7346 -0.1299 -0.4471
   98MOL0     C13108   5.007   0.402   6.497  0.5885 -0.6232 -0.1300
   98MOL0     C13109   5.047   0.360   6.643 -0.4467 -0.6896 -0.0669
   98MOL0     C13110   5.200   0.329   6.634 -0.0388  0.0901 -0.5090
   98MOL0     C13111   5.259   0.332   6.774 -0.7070  0.2758 -0.8126
   98MOL0     N13112   5.304   0.205   6.821  0.5662  0.6071 -0.1218
   98MOL0     C13113   5.233   0.094   6.854  0.0125 -0.1603  0.2353
   98MOL0     C13114   5.323  -0.004   6.884  0.4682 -0.7010  0.3828
   98MOL0     C13115   5.303  -0.142   6.933 -0.2512 -0.3211  0.6415
   98MOL0     C13116   5.323  -0.167   7.084  0.1659  0.1944  0.0652
   98MOL0     C13117   5.189  -0.138   7.163  0.2748  0.1694  0.0532
   98MOL0     C13118   5.195  -0.211   7.296  0.3713  0.2967  0.0876
   98MOL0     O13119   5.296  -0.153   7.384 -0.2880 -0.3519 -0.2313
   98MOL0     C13120   5.295  -0.021   7.430  0.1451  0.2796 -0.0491
   98MOL0     C13121   5.407   0.034   7.491  0.5027  0.0344 -0.2166
   98MOL0     C13122   5.406   0.175   7.530 -0.1141  0.3269  0.1635
   98MOL0     C13123   5.534   0.215   7.603  0.2638 -0.6770 -0.3951
   98MOL0     C13124   5.290   0.253   7.527 -0.0767 -0.5269 -0.1944
   98MOL0     C13125   5.282   0.394   7.581 -0.1765 -0.2978  1.2220
   98MOL0     O13126   5.156   0.445   7.612 -0.8590 -0.0412 -0.0451
   98MOL0     C13127   5.163   0.563   7.697  1.0064  0.3557 -0.1652
   98MOL0     C13128   5.227   0.683   7.656 -0.3013 -0.6754  0.9175
   98MOL0     C13129   5.208   0.795   7.742 -1.1627 -0.4826  0.5059
   98MOL0     C13130   5.127   0.797   7.853  0.8076  0.6834  0.5461
   98MOL0     O13131   5.105   0.914   7.928  0.3594 -0.4552 -0.0074
   98MOL0     C13132   4.984   0.948   7.998 -0.9988 -0.4996  1.2260
   98MOL0     C13133   4.919   1.080   7.949 -0.6048 -0.1033 -0.0186
   98MOL0     C13134   4.813   1.112   8.053 -0.2555 -0.8217  0.6615
   98MOL0     C13135   4.726   1.228   7.991 -0.0080 -0.4593  0.4005
   98MOL0     C13136   4.590   1.243   8.061 -0.5514  0.0221 -0.1285
   98MOL0     C13137   4.502   1.339   7.976 -0.1468  0.1817  0.3922
   98MOL0     C13138   4.462   1.286   7.835 -0.2392 -0.5155 -0.0865
   98MOL0     C13139   4.370   1.380   7.757  0.4730 -0.3809 -0.3319
   98MOL0    Cl13140   4.207   1.323   7.777 -0.0468 -0.1809  0.2768
   98MOL0     C13141   5.058   0.677   7.882 -0.1984  1.0465 -0.0839
   98MOL0     C13142   5.080   0.560   7.810 -0.0221  0.3481  0.2359
   98MOL0     O13143   5.383   0.465   7.585  0.7175 -0.1553  0.1692
   98MOL0     C13144   5.181   0.194   7.467 -0.0734 -0.2213  0.2188
   98MOL0     C13145   5.187   0.064   7.418  0.4397  0.1864  0.3842
   98MOL0     N13146   5.449   0.045   6.873 -0.1044  0.2886  0.0139
   98MOL0     N13147   5.439   0.168   6.837  0.2306 -0.3597 -0.8340
   98MOL0     C13148   4.437   0.641   6.753  0.3166  0.2236 -0.3700
   98MOL0     C13149   4.343   0.575   6.833 -0.2747 -0.7920  0.1560
   98MOL0     C13150   4.123   0.427   7.217  0.0038 -0.0654  1.3731
   98MOL0     C13151   4.004   0.437   7.136  0.4480 -0.7606  0.0026
   98MOL0     C13152   3.884   0.412   7.206  0.2542  0.1474  0.3098
   98MOL0     C13153   3.876   0.371   7.337  1.1571  0.2102  0.3499
   98MOL0     O13154   3.755   0.350   7.389  0.2424 -0.9302  0.1229
   98MOL0     C13155   3.734   0.329   7.531  0.9185 -0.2428 -0.1328
   98MOL0     C13156   3.578   0.335   7.535 -0.4596  0.1605  0.1571
   98MOL0     C13157   3.506   0.288   7.664 -0.8346  0.2737 -0.0651
   98MOL0     C13158   3.368   0.243   7.646  0.0423 -0.2070  0.3697
   98MOL0     C13159   3.270   0.347   7.656 -0.2907  0.7875  0.1198
   98MOL0     C13160   3.191   0.445   7.663 -0.5524 -0.0439  0.2286
   98MOL0     C13161   3.991   0.351   7.409  0.0093 -0.0093 -0.1570
   98MOL0     C13162   4.114   0.380   7.349  0.8058 -1.0352  0.4582
   98MOL0     H13163   4.515   0.601   7.128  3.4362  2.3640 -0.5690
   98MOL0     H13164   4.674   0.705   6.982  0.1883  2.3346 -2.1888
   98MOL0     H13165   4.549   0.781   6.567 -0.4260 -0.0462 -0.3881
   98MOL0     H13166   4.711   0.842   6.580 -0.2519 -0.5311  0.5081
   98MOL0     H13167   4.631   0.545   6.531  1.4571 -0.2278 -0.2629
   98MOL0     H13168   4.697   0.665   6.427 -0.9156  2.9631  0.9164
   98MOL0     H13169   4.910   0.657   6.522  0.7049  1.8368  2.7229
   98MOL0     H13170   4.846   0.578   6.671 -1.3193 -3.3356 -0.4080
   98MOL0     H13171   4.793   0.373   6.552 -1.9646  1.7100  0.6715
   98MOL0     H13172   4.826   0.456   6.397  1.3515 -2.9340 -1.5432
   98MOL0     H13173   5.018   0.320   6.427 -0.8042 -0.3524 -0.7050
   98MOL0     H13174   5.072   0.480   6.456  0.2127  0.0683  0.5613
   98MOL0     H13175   5.025   0.439   6.716  0.1526  0.2459 -0.8855
   98MOL0     H13176   4.997   0.271   6.683 -0.0104  0.1821  2.6139
   98MOL0     H13177   5.216   0.230   6.589  3.6220 -0.3487  1.3926
   98MOL0     H13178   5.249   0.403   6.570  1.7971  0.1866  0.9257
   98MOL0     H13179   5.184   0.368   6.846 -0.7567 -0.0698 -0.6878
   98MOL0     H13180   5.350   0.393   6.773 -0.1670 -0.4771  0.1151
   98MOL0     H13181   5.126   0.078   6.862 -0.2786 -3.4686 -4.9610
   98MOL0     H13182   5.206  -0.183   6.904 -0.1792  0.9237 -1.6361
   98MOL0     H13183   5.375  -0.198   6.873  0.6829  1.0351  0.4398
   98MOL0     H13184   5.400  -0.103   7.127 -1.7149  2.5441  0.2034
   98MOL0     H13185   5.351  -0.272   7.095  1.6981  0.6711  1.0255
   98MOL0     H13186   5.097  -0.170   7.111  0.5980 -4.4160  1.7978
   98MOL0     H13187   5.180  -0.030   7.172 -2.9485  0.0798 -0.8461
   98MOL0     H13188   5.228  -0.312   7.269 -0.7832 -0.2720  0.7268
   98MOL0     H13189   5.105  -0.214   7.358 -0.0134 -0.5835 -0.4965
   98MOL0     H13190   5.493  -0.030   7.509 -0.4830 -0.9721  1.0997
   98MOL0     H13191   5.568   0.308   7.555  2.1976 -2.2916 -2.3512
   98MOL0     H13192   5.514   0.235   7.709 -0.9010  1.0442 -0.8836
   98MOL0     H13193   5.619   0.148   7.587  1.0207  0.7801 -3.2033
   98MOL0     H13194   5.296   0.696   7.573  0.9026 -0.2752  1.9550
   98MOL0     H13195   5.266   0.883   7.716 -1.7027  0.2109  1.5817
   98MOL0     H13196   4.909   0.868   7.993  0.1356 -1.5252 -0.1699
   98MOL0     H13197   5.011   0.955   8.104  1.1508 -1.6840  0.8065
   98MOL0     H13198   4.994   1.159   7.939 -0.7091  0.2453  1.6382
   98MOL0     H13199   4.879   1.058   7.849 -2.1849 -2.0588  0.9597
   98MOL0     H13200   4.873   1.146   8.138 -0.1005 -0.2827  0.3380
   98MOL0     H13201   4.750   1.026   8.078  0.6871 -1.7374 -0.0498
   98MOL0     H13202   4.787   1.318   7.999  1.4121 -1.3065 -0.5706
   98MOL0     H13203   4.708   1.201   7.886  0.3201 -0.8589  0.4467
   98MOL0     H13204   4.611   1.293   8.156  1.7241  1.7664 -1.4390
   98MOL0     H13205   4.538   1.149   8.081  1.6279 -1.4758 -1.0349
   98MOL0     H13206   4.412   1.365   8.032  1.2486 -0.0771  2.8984
   98MOL0     H13207   4.559   1.432   7.966 -1.4912  0.9036 -1.0468
   98MOL0     H13208   4.411   1.191   7.852 -0.0666 -0.2813  2.0238
   98MOL0     H13209   4.548   1.270   7.769 -0.0593  0.8764 -0.2172
   98MOL0     H13210   4.388   1.367   7.650 -1.0048  0.4050 -0.7014
   98MOL0     H13211   4.380   1.488   7.768  2.5788 -0.5764  0.1403
   98MOL0     H13212   4.982   0.664   7.958 -0.9871 -0.7877 -1.1122
   98MOL0     H13213   5.037   0.467   7.845  0.7478 -1.0177 -2.2040
   98MOL0     H13214   5.094   0.258   7.453  0.4157  0.4254  0.0871
   98MOL0     H13215   5.100   0.027   7.364  0.3837  2.3278 -1.0784
   98MOL0     H13216   4.418   0.647   6.647  1.0142 -0.8391 -0.5730
   98MOL0     H13217   4.245   0.547   6.794 -0.7846  0.7866  0.2341
   98MOL0     H13218   4.008   0.450   7.029  2.3655 -1.0154  0.0009
   98MOL0     H13219   3.791   0.433   7.153 -0.4612  2.0841  2.2049
   98MOL0     H13220   3.789   0.240   7.563  1.6961  0.3505  0.1969
   98MOL0     H13221   3.774   0.416   7.583 -2.8688  1.5896  0.0315
   98MOL0     H13222   3.550   0.271   7.451  2.5939  0.2301 -1.0653
   98MOL0     H13223   3.549   0.440   7.521  0.2445  0.2194 -1.0503
   98MOL0     H13224   3.519   0.367   7.738 -0.5333  2.5049 -2.3449
   98MOL0     H13225   3.555   0.198   7.702 -0.4899 -0.0852 -1.3062
   98MOL0     H13226   3.341   0.170   7.723 -1.1593 -2.8227 -2.3268
   98MOL0     H13227   3.349   0.197   7.549 -0.0385  1.3031 -0.3512
   98MOL0     H13228   3.132   0.534   7.656  0.1064  0.3651 -0.3116
   98MOL0     H13229   3.987   0.320   7.513  1.5728 -2.2064 -0.6993
   98MOL0     H13230   4.195   0.356   7.418  0.8535  1.5953  1.4271
   99MOL0     O13231   4.497   4.335  10.835 -0.1111 -0.3783  0.2337
   99MOL0     C13232   4.433   4.287  10.744 -0.1139 -0.2745 -0.3410
   99MOL0     O13233   4.343   4.192  10.753  0.3425  0.3127  0.0558
   99MOL0     C13234   4.312   4.160  10.880 -0.1711  0.7004  0.8357
   99MOL0     C13235   4.196   4.208  10.937  0.4265  0.4163 -0.1291
   99MOL0     C13236   4.153   4.163  11.064  0.0996 -0.2468  0.9226
   99MOL0     C13237   4.209   4.053  11.121  0.9232  0.4340  0.4107
   99MOL0     O13238   4.147   3.995  11.229  0.4601  0.3794  0.2213
   99MOL0     C13239   4.121   3.851  11.233 -0.6158 -0.3161 -0.1354
   99MOL0     C13240   3.966   3.836  11.224  0.1659 -0.2344 -0.6070
   99MOL0     C13241   3.920   3.892  11.089 -0.1861  0.2570  1.4997
   99MOL0     C13242   3.775   3.842  11.051  0.4111 -0.3288  0.5287
   99MOL0     C13243   3.727   3.899  10.910 -0.1381 -0.5155 -0.2290
   99MOL0     C13244   3.574   3.909  10.919  0.4884 -0.6705  0.1143
   99MOL0     C13245   3.537   4.005  10.807  0.0404  0.4225  0.5058
   99MOL0     C13246   3.390   4.048  10.808 -0.4989 -0.3400 -0.1490
   99MOL0     N13247   3.353   4.150  10.913  1.1461 -0.1504 -0.0240
   99MOL0     C13248   3.359   4.287  10.912  0.6641 -0.1761 -0.0022
   99MOL0     C13249   3.299   4.329  11.027 -0.2641  0.5194 -0.8756
   99MOL0     C13250   3.267   4.469  11.064  0.6800 -0.6056 -0.4771
   99MOL0     C13251   3.134   4.481  11.145  0.8493  0.0717 -0.0225
   99MOL0     C13252   3.080   4.625  11.170 -0.7679  0.7790 -0.4955
   99MOL0     C13253   3.180   4.700  11.257  0.0187 -0.8566 -0.2406
   99MOL0     O13254   3.156   4.847  11.262 -0.1147 -0.6226 -0.1580
   99MOL0     C13255   3.254   4.944  11.234  0.1282  0.0296 -0.1322
   99MOL0     C13256   3.298   4.987  11.104 -0.5155 -0.6057 -0.7276
   99MOL0     C13257   3.399   5.083  11.090 -0.1605 -0.7662 -0.3968
   99MOL0     C13258   3.412   5.133  10.949  0.7826  0.2026  0.6442
   99MOL0     C13259   3.472   5.138  11.199  0.4300 -0.7916 -0.1612
   99MOL0     C13260   3.593   5.224  11.186 -0.6762  0.2986 -0.1906
   99MOL0     O13261   3.664   5.237  11.302  0.4630 -0.2697  0.9554
   99MOL0     C13262   3.742   5.355  11.313 -0.6078 -0.2301  0.5961
   99MOL0     C13263   3.889   5.345  11.315  0.3915  0.3102  0.6051
   99MOL0     C13264   3.968   5.458  11.332 -0.6108  0.6242  0.1567
   99MOL0     C13265   3.909   5.586  11.356 -0.6627  0.3517 -0.0008
   99MOL0     O13266   4.003   5.688  11.372 -0.0910  0.5933 -0.0153
   99MOL0     C13267   3.959   5.813  11.395  0.2824 -0.9742  0.4220
   99MOL0     C13268   4.093   5.888  11.383  0.6638 -0.9562  0.7333
   99MOL0     C13269   4.071   6.042  11.363 -0.8479  0.1743  0.1950
   99MOL0     C13270   4.048   6.102  11.496  0.2209 -0.7352  0.3250
   99MOL0     C13271   3.960   6.233  11.500 -0.1864 -0.2539 -0.9623
   99MOL0     C13272   3.810   6.203  11.481 -0.0957 -0.5741  0.1042
   99MOL0     C13273   3.738   6.166  11.613  0.6397 -0.1713 -0.4911
   99MOL0     C13274   3.584   6.168  11.590  0.5503  1.0589  0.1813
   99MOL0    Cl13275   3.535   6.046  11.463 -0.2944  0.0324 -0.0003
   99MOL0     C13276   3.763   5.594  11.346 -0.1253 -0.3511 -0.5979
   99MOL0     C13277   3.685   5.482  11.339 -0.7970 -0.4693 -1.1903
   99MOL0     O13278   3.622   5.272  11.082 -0.0392 -0.3195  0.5134
   99MOL0     C13279   3.435   5.090  11.329  0.4305  0.0170 -0.5603
   99MOL0     C13280   3.321   5.005  11.342 -0.6338 -0.8447 -0.2844
   99MOL0     N13281   3.258   4.216  11.093  0.6946 -0.5488  0.7997
   99MOL0     N13282   3.290   4.113  11.030  0.3720  0.6205 -0.7286
   99MOL0     C13283   4.330   4.020  11.072 -0.0845  1.1716 -0.0929
   99MOL0     C13284   4.386   4.063  10.948  0.2414  0.3641 -0.0392
   99MOL0     C13285   4.464   4.327  10.612  0.0180  1.1278 -0.6795
   99MOL0     C13286   4.588   4.389  10.589 -0.7452  0.3818  0.1557
   99MOL0     C13287   4.624   4.444  10.468 -0.4115  0.1057 -0.1677
   99MOL0     C13288   4.544   4.418  10.357  1.2201  0.4410 -0.8152
   99MOL0     O13289   4.564   4.488  10.237  0.2099 -0.5262  0.1261
   99MOL0     C13290   4.484   4.464  10.115  0.6420  0.9449 -0.3202
   99MOL0     C13291   4.535   4.564  10.014 -0.0457 -0.0565 -0.3714
   99MOL0     C13292   4.677   4.572  10.001 -0.0030  0.0738 -0.8669
   99MOL0     C13293   4.730   4.477   9.891  0.5461 -0.4013  0.3072
   99MOL0     C13294   4.701   4.520   9.760  0.0254 -0.2639  0.2405
   99MOL0     C13295   4.668   4.582   9.656 -0.4351  0.3576  0.1623
   99MOL0     C13296   4.424   4.339  10.372 -0.8989 -0.6395 -1.4790
   99MOL0     C13297   4.381   4.295  10.499 -0.0180 -0.5586  0.0921
   99MOL0     H13298   4.139   4.290  10.895 -1.6266  0.9690  3.3921
   99MOL0     H13299   4.076   4.207  11.127  0.7998 -0.5950  2.0555
   99MOL0     H13300   4.167   3.804  11.145  2.1534  1.3051  0.3235
   99MOL0     H13301   4.169   3.807  11.321  1.7689 -1.9419 -2.0908
   99MOL0     H13302   3.934   3.738  11.261  1.4016 -0.5068 -0.2035
   99MOL0     H13303   3.915   3.895  11.302  1.6352  1.0409 -0.5616
   99MOL0     H13304   3.927   4.001  11.092 -2.6792  0.6201 -1.0156
   99MOL0     H13305   3.993   3.864  11.013 -2.1409  1.7672 -1.0745
   99MOL0     H13306   3.747   3.736  11.057 -0.7103 -0.1393 -0.7310
   99MOL0     H13307   3.714   3.890  11.129 -1.4817 -3.3286  1.0872
   99MOL0     H13308   3.766   3.999  10.892 -1.9207  0.3622  0.5099
   99MOL0     H13309   3.765   3.840  10.826  0.6658  0.1845 -0.3657
   99MOL0     H13310   3.527   3.813  10.895 -2.0645  0.3016  0.8368
   99MOL0     H13311   3.551   3.951  11.018  1.5887  2.3183 -0.7769
   99MOL0     H13312   3.602   4.092  10.818  1.2852 -0.6054  1.5558
   99MOL0     H13313   3.550   3.971  10.704 -0.3939 -0.9025  0.8614
   99MOL0     H13314   3.325   3.964  10.832  2.1485 -2.4809  0.0961
   99MOL0     H13315   3.374   4.097  10.711 -1.8538  0.4380  0.4439
   99MOL0     H13316   3.379   4.358  10.832 -2.1488  1.8337  0.9244
   99MOL0     H13317   3.338   4.499  11.142  0.7228  0.3289 -0.8660
   99MOL0     H13318   3.285   4.542  10.985 -1.2081 -1.4204 -1.7332
   99MOL0     H13319   3.159   4.428  11.238  1.8049  1.7518  0.7184
   99MOL0     H13320   3.054   4.423  11.099  0.3919  0.6410  0.0399
   99MOL0     H13321   2.991   4.619  11.232  1.1480  2.8342  2.7517
   99MOL0     H13322   3.047   4.669  11.075 -0.4763  1.2937 -0.3591
   99MOL0     H13323   3.282   4.691  11.221  0.6152 -2.2601  1.6682
   99MOL0     H13324   3.167   4.664  11.360  1.3298  1.0749  0.6618
   99MOL0     H13325   3.226   4.947  11.033 -2.2494  0.5248  0.2828
   99MOL0     H13326   3.376   5.236  10.940  0.8428  0.3941  2.2309
   99MOL0     H13327   3.510   5.109  10.909 -0.2398 -0.5798 -1.5291
   99MOL0     H13328   3.342   5.090  10.877  1.4798  1.3611 -0.7640
   99MOL0     H13329   3.943   5.260  11.276  2.7503  2.5876 -1.4402
   99MOL0     H13330   4.075   5.453  11.317 -0.4119  0.7685  1.4307
   99MOL0     H13331   3.886   5.855  11.325  0.4535 -0.2760  0.6541
   99MOL0     H13332   3.920   5.820  11.497 -1.0053 -3.1928  0.1316
   99MOL0     H13333   4.160   5.856  11.464  1.0856  0.6055  1.0467
   99MOL0     H13334   4.143   5.856  11.291  1.2306  2.3750 -0.2357
   99MOL0     H13335   3.985   6.051  11.296 -1.3473 -1.1217  0.6225
   99MOL0     H13336   4.158   6.091  11.319 -1.7685 -0.8088 -3.0230
   99MOL0     H13337   4.029   6.028  11.575 -1.6852  0.4451  1.0329
   99MOL0     H13338   4.148   6.138  11.521  1.0329 -1.9076 -1.0499
   99MOL0     H13339   4.008   6.297  11.425  1.3192 -0.4128 -0.1617
   99MOL0     H13340   3.965   6.281  11.598 -1.3624 -0.8115 -0.6133
   99MOL0     H13341   3.768   6.293  11.436 -0.2036 -0.1958  0.9430
   99MOL0     H13342   3.796   6.124  11.406  1.9207  0.1974 -1.1816
   99MOL0     H13343   3.768   6.231  11.697 -1.9202  0.1339  0.2502
   99MOL0     H13344   3.764   6.065  11.647 -0.6785  0.3708  2.4895
   99MOL0     H13345   3.548   6.266  11.555 -2.8447 -0.2345 -0.2764
   99MOL0     H13346   3.542   6.140  11.687 -0.0582 -2.0408 -0.8744
   99MOL0     H13347   3.718   5.686  11.381 -0.1390  0.4901 -2.6812
   99MOL0     H13348   3.579   5.477  11.359 -0.9361 -1.9256 -2.1381
   99MOL0     H13349   3.479   5.134  11.418  0.5163  0.3444 -0.7605
   99MOL0     H13350   3.284   4.986  11.442  1.5864  2.2633  1.2838
   99MOL0     H13351   4.377   3.945  11.135 -0.7580  2.2437  1.7955
   99MOL0     H13352   4.472   4.023  10.897  1.8443  0.6958  2.2631
   99MOL0     H13353   4.657   4.410  10.671 -0.7019 -0.7438  0.4292
   99MOL0     H13354   4.713   4.506  10.462  1.2308 -2.2481 -3.9567
   99MOL0     H13355   4.499   4.362  10.078  0.7596  0.8070  0.1063
   99MOL0     H13356   4.377   4.472  10.135 -0.0049 -2.2916 -1.8267
   99MOL0     H13357   4.498   4.657  10.057 -1.5262 -0.9372  0.3199
   99MOL0     H13358   4.482   4.555   9.919 -2.9229 -2.0398  1.2371
   99MOL0     H13359   4.727   4.545  10.094 -0.0662 -0.0284 -0.8626
   99MOL0     H13360   4.702   4.676   9.977 -3.8873  1.3521 -0.0675
   99MOL0     H13361   4.695   4.374   9.904 -0.0926 -0.1435  0.6908
   99MOL0     H13362   4.839   4.480   9.902  1.3184 -2.4780 -4.2651
   99MOL0     H13363   4.635   4.624   9.564 -1.3077 -0.6186  0.0140
   99MOL0     H13364   4.351   4.314  10.296 -1.1618 -3.4906 -0.4370
   99MOL0     H13365   4.296   4.227  10.498  0.4134 -1.1551 -2.3481
  100MOL0     O13366  10.942   6.037   9.228  0.3953  0.6154  0.2012
  100MOL0     C13367  10.912   5.921   9.192  0.2490 -0.5924  0.7566
  100MOL0     O13368  11.005   5.823   9.165  0.1287 -0.7072 -0.2179
  100MOL0     C13369  11.132   5.857   9.198 -0.1878 -0.0191 -0.1299
  100MOL0     C13370  11.219   5.928   9.114 -0.4212  0.0506  0.2402
  100MOL0     C13371  11.356   5.933   9.156  0.6550 -0.5469  0.9635
  100MOL0     C13372  11.404   5.872   9.274 -0.6062  0.2041  0.2899
  100MOL0     O13373  11.535   5.895   9.294  0.6843 -0.3425 -0.7981
  100MOL0     C13374  11.588   5.890   9.428  0.8366 -0.0499  0.1862
  100MOL0     C13375  11.735   5.933   9.432 -0.1183 -0.1261  0.4912
  100MOL0     C13376  11.789   5.925   9.572 -0.3408  0.2087  0.2324
  100MOL0     C13377  11.927   5.849   9.591  0.0545  0.5615  0.3706
  100MOL0     C13378  12.036   5.900   9.512 -0.1650  0.3212  0.2734
  100MOL0     C13379  12.185   5.851   9.549  1.0468  0.9208  0.1746
  100MOL0     C13380  12.292   5.946   9.506 -0.2641 -0.1945 -0.1046
  100MOL0     C13381  12.426   5.917   9.569  0.4262 -0.0258 -1.3174
  100MOL0     N13382  12.543   5.938   9.485 -0.6865  0.3254  0.4470
  100MOL0     C13383  12.574   6.052   9.412 -0.1040 -0.2912 -1.0593
  100MOL0     C13384  12.689   6.028   9.348  0.3700  0.8787  0.2310
  100MOL0     C13385  12.752   6.126   9.247  0.2145  0.2002 -0.0988
  100MOL0     C13386  12.736   6.087   9.098 -0.0904  0.6462  0.4036
  100MOL0     C13387  12.826   5.970   9.069 -1.3284  0.0253  0.7694
  100MOL0     C13388  12.815   5.929   8.922  0.2113 -0.2356 -0.7787
  100MOL0     O13389  12.688   5.880   8.900 -0.2411 -0.5023  0.6610
  100MOL0     C13390  12.607   5.917   8.797  0.4175  0.2762 -0.1932
  100MOL0     C13391  12.651   5.965   8.676 -0.8717 -0.0928 -0.6693
  100MOL0     C13392  12.560   6.014   8.573 -0.9244 -0.4405 -0.9141
  100MOL0     C13393  12.627   6.075   8.448  0.3164 -0.3220  0.5225
  100MOL0     C13394  12.422   6.008   8.596 -0.2619 -0.5996  0.9537
  100MOL0     C13395  12.317   6.044   8.495 -0.3613  0.6372 -0.0668
  100MOL0     O13396  12.189   6.048   8.537  0.0774  0.0436  0.5824
  100MOL0     C13397  12.079   6.077   8.463 -0.5487 -0.0298  0.1676
  100MOL0     C13398  11.967   6.011   8.507 -0.4623  0.0685  0.5630
  100MOL0     C13399  11.842   6.041   8.445  0.3097  0.4634 -1.3689
  100MOL0     C13400  11.835   6.110   8.327 -0.3393 -0.5256  0.3399
  100MOL0     O13401  11.717   6.160   8.273  0.0648 -0.0183  0.1771
  100MOL0     C13402  11.597   6.074   8.290 -0.3744 -0.5895  1.2422
  100MOL0     C13403  11.488   6.159   8.356 -0.1299 -1.3431 -0.6586
  100MOL0     C13404  11.363   6.079   8.325  0.1798 -0.0215  0.3614
  100MOL0     C13405  11.238   6.143   8.380  0.1809 -0.3807 -0.1439
  100MOL0     C13406  11.123   6.046   8.385  1.3591 -0.7322  0.4803
  100MOL0     C13407  10.980   6.115   8.379 -1.3216  0.6336 -0.6842
  100MOL0     C13408  10.964   6.218   8.497  0.5956 -1.0493 -0.3576
  100MOL0     C13409  10.823   6.276   8.481 -0.3490  0.3880 -1.5935
  100MOL0    Cl13410  10.795   6.376   8.329  0.1288  0.2323  0.0996
  100MOL0     C13411  11.952   6.154   8.267  0.4962 -0.7469  0.0888
  100MOL0     C13412  12.072   6.144   8.343  0.2307  0.4530  0.6636
  100MOL0     O13413  12.352   6.051   8.375  0.6092 -0.7735  0.0129
  100MOL0     C13414  12.378   5.949   8.714  0.5785  0.1288  1.1746
  100MOL0     C13415  12.462   5.900   8.808 -0.3244  0.1092 -0.4801
  100MOL0     N13416  12.725   5.898   9.380 -0.0003  0.6849  0.5718
  100MOL0     N13417  12.636   5.846   9.451 -0.1457  0.9141  0.2069
  100MOL0     C13418  11.317   5.794   9.351  0.4566  0.4216 -0.0971
  100MOL0     C13419  11.181   5.795   9.312 -0.1030  0.1970 -0.2148
  100MOL0     C13420  10.782   5.907   9.132 -0.8855 -0.2905  0.7149
  100MOL0     C13421  10.723   6.016   9.074  0.3717  0.1323 -0.6747
  100MOL0     C13422  10.592   6.008   9.020  0.2208  0.3245 -0.1043
  100MOL0     C13423  10.535   5.883   9.002  0.8645  0.1608  0.6889
  100MOL0     O13424  10.414   5.890   8.938  0.3764  0.3739  0.2860
  100MOL0     C13425  10.326   5.777   8.943  0.1744  0.9199  0.0707
  100MOL0     C13426  10.218   5.801   9.044 -0.1142  1.1048  0.4754
  100MOL0     C13427  10.123   5.689   9.072  0.7086  0.8352 -0.2158
  100MOL0     C13428  10.022   5.735   9.188  0.0379  1.0298  0.1249
  100MOL0     C13429  10.097   5.773   9.304  0.2141 -1.2278 -0.3142
  100MOL0     C13430  10.157   5.813   9.401 -1.3297  0.0212  0.3761
  100MOL0     C13431  10.604   5.769   9.042  0.6272  0.5252  0.0864
  100MOL0     C13432  10.723   5.780   9.108 -0.8530 -0.7040  0.9483
  100MOL0     H13433  11.188   5.978   9.023 -2.8775 -0.9090  0.4787
  100MOL0     H13434  11.428   5.967   9.082 -0.3677 -0.7825 -0.1878
  100MOL0     H13435  11.527   5.955   9.491 -1.2387 -0.0519 -1.7029
  100MOL0     H13436  11.590   5.786   9.464 -2.4823  0.2355  1.5597
  100MOL0     H13437  11.788   5.871   9.359 -0.9592 -2.2535  1.6102
  100MOL0     H13438  11.748   6.033   9.390 -1.6862  0.1903  0.6964
  100MOL0     H13439  11.797   6.024   9.618 -1.4008  1.0751 -1.3585
  100MOL0     H13440  11.716   5.873   9.635 -0.6742  1.2592  0.7406
  100MOL0     H13441  11.955   5.858   9.697 -3.7863  0.9269  1.4835
  100MOL0     H13442  11.920   5.742   9.567  1.4204 -1.2287  6.2771
  100MOL0     H13443  12.016   5.865   9.410 -2.0443  4.1803 -0.8871
  100MOL0     H13444  12.028   6.009   9.517 -0.3530  0.2347  2.8440
  100MOL0     H13445  12.203   5.838   9.656  0.8575  2.8243  0.4725
  100MOL0     H13446  12.197   5.750   9.507 -2.2119  0.4932  0.0030
  100MOL0     H13447  12.309   5.945   9.398  0.8102 -1.1021  0.0542
  100MOL0     H13448  12.260   6.050   9.515 -2.0296 -0.5140 -1.9920
  100MOL0     H13449  12.421   5.822   9.623  0.1799  1.2553  1.0914
  100MOL0     H13450  12.434   5.980   9.659  1.6551 -1.9435 -0.0002
  100MOL0     H13451  12.507   6.137   9.410  0.1499 -0.0485  0.2095
  100MOL0     H13452  12.723   6.228   9.275  2.3242  0.4718  1.2872
  100MOL0     H13453  12.859   6.132   9.267  0.7876 -1.9264 -2.1416
  100MOL0     H13454  12.752   6.168   9.026 -1.1377  0.7919  0.3246
  100MOL0     H13455  12.630   6.062   9.093 -0.3886  1.4812  1.8883
  100MOL0     H13456  12.811   5.884   9.135 -2.8402 -0.7080 -0.4900
  100MOL0     H13457  12.923   6.017   9.090 -1.8392  1.0582  0.8919
  100MOL0     H13458  12.889   5.856   8.890  0.4602 -0.2805 -0.1145
  100MOL0     H13459  12.837   6.019   8.864  0.9999  0.2059  0.1723
  100MOL0     H13460  12.757   5.985   8.665 -1.3805  1.9564 -2.4066
  100MOL0     H13461  12.582   6.172   8.426  1.0534 -0.0526  0.1366
  100MOL0     H13462  12.733   6.103   8.454 -0.2363  3.0149 -2.4036
  100MOL0     H13463  12.603   6.039   8.348 -0.0875 -1.0743  0.8799
  100MOL0     H13464  11.983   5.943   8.590 -0.2309  0.6079  0.9692
  100MOL0     H13465  11.749   6.028   8.499 -1.3417  2.0274 -3.6479
  100MOL0     H13466  11.554   6.063   8.191 -2.5126  3.6837  1.4845
  100MOL0     H13467  11.612   5.985   8.353 -0.6183 -0.8731  0.9046
  100MOL0     H13468  11.506   6.166   8.463  2.7771  1.1172 -1.1752
  100MOL0     H13469  11.482   6.259   8.312 -0.1882 -0.7180  0.7394
  100MOL0     H13470  11.378   5.975   8.356  2.1379 -0.6112 -2.2180
  100MOL0     H13471  11.350   6.073   8.217  4.7296 -2.6898 -0.3134
  100MOL0     H13472  11.261   6.170   8.484 -3.0987 -1.0879  0.8883
  100MOL0     H13473  11.203   6.237   8.334  1.7845  0.1845 -0.2630
  100MOL0     H13474  11.130   6.011   8.489 -2.4170 -0.2558  1.0417
  100MOL0     H13475  11.127   5.965   8.312  1.5136 -0.7242  0.4793
  100MOL0     H13476  10.966   6.142   8.273  0.8093 -0.3319 -1.2634
  100MOL0     H13477  10.902   6.041   8.400 -1.8060  1.2997 -0.1223
  100MOL0     H13478  11.035   6.301   8.502 -2.1841  1.4969  3.2143
  100MOL0     H13479  10.979   6.174   8.596  1.4146  1.1897  0.5798
  100MOL0     H13480  10.795   6.340   8.565  0.5636 -1.5018  0.2175
  100MOL0     H13481  10.739   6.206   8.479  1.4591 -1.8722 -2.9945
  100MOL0     H13482  11.948   6.215   8.177  1.3078  0.5711  0.8968
  100MOL0     H13483  12.160   6.181   8.292 -0.4269 -2.0184 -2.5757
  100MOL0     H13484  12.275   5.919   8.729  0.8521 -1.6465 -0.1453
  100MOL0     H13485  12.424   5.852   8.898  0.9251 -2.7137 -1.3388
  100MOL0     H13486  11.349   5.750   9.445  0.7389  0.6034 -0.1065
  100MOL0     H13487  11.127   5.745   9.392 -2.1986  4.4020  1.3683
  100MOL0     H13488  10.761   6.118   9.086  0.9062  0.3278 -3.3415
  100MOL0     H13489  10.538   6.092   8.978 -0.5850 -0.8251 -1.4288
  100MOL0     H13490  10.293   5.776   8.839  2.2890  2.5042 -0.6975
  100MOL0     H13491  10.376   5.680   8.954 -1.2003  0.0251 -1.1431
  100MOL0     H13492  10.152   5.880   9.006 -0.5074  0.4242 -0.2913
  100MOL0     H13493  10.271   5.827   9.137  1.4046 -0.7228  0.1820
  100MOL0     H13494  10.177   5.596   9.094  1.3226  0.7902 -1.7643
  100MOL0     H13495  10.061   5.669   8.984 -0.5913  1.1465  0.6127
  100MOL0     H13496   9.957   5.654   9.222 -0.0254  1.8774  2.1105
  100MOL0     H13497   9.976   5.831   9.166  2.6302  2.5882  1.0570
  100MOL0     H13498  10.216   5.847   9.484  1.0868  3.2394 -2.3290
  100MOL0     H13499  10.571   5.667   9.025  2.6268 -0.3779  1.2477
  100MOL0     H13500  10.765   5.684   9.135 -2.6966 -1.2697  2.0132
  101MOL0     O13501   9.989   3.742   0.171  0.0301  0.0662  0.3647
  101MOL0     C13502  10.040   3.746   0.060 -0.5856  0.3949  0.4580
  101MOL0     O13503   9.976   3.744  -0.058 -1.0727 -0.4193  0.2994
  101MOL0     C13504   9.841   3.721  -0.054  0.2666  0.3952  0.3066
  101MOL0     C13505   9.749   3.799   0.019  0.1974 -0.1647 -0.2011
  101MOL0     C13506   9.610   3.780   0.015  0.1220  0.3776  0.8594
  101MOL0     C13507   9.560   3.689  -0.078 -0.1341 -0.1856 -0.0427
  101MOL0     O13508   9.421   3.677  -0.098 -0.5662 -0.8031 -0.5110
  101MOL0     C13509   9.363   3.565  -0.157 -0.5588 -0.0097 -0.2944
  101MOL0     C13510   9.221   3.584  -0.129 -0.2435 -0.4228  0.7169
  101MOL0     C13511   9.128   3.498  -0.207  0.0019 -0.5029 -0.1346
  101MOL0     C13512   9.120   3.345  -0.170 -0.7387 -0.6312 -1.6568
  101MOL0     C13513   9.014   3.296  -0.260 -0.2916  0.5763  0.4072
  101MOL0     C13514   8.977   3.152  -0.214 -0.7772 -0.3908  0.1925
  101MOL0     C13515   8.870   3.092  -0.311 -0.1898 -0.2979 -0.3815
  101MOL0     C13516   8.858   2.946  -0.269  0.7678 -0.6160 -0.1515
  101MOL0     N13517   8.976   2.858  -0.305  1.1128 -0.0325 -0.2556
  101MOL0     C13518   9.050   2.867  -0.424  0.5233  0.4909 -0.4139
  101MOL0     C13519   9.135   2.764  -0.410 -1.2054 -0.0994 -0.5129
  101MOL0     C13520   9.234   2.736  -0.519  0.4325 -1.0529  0.1378
  101MOL0     C13521   9.367   2.787  -0.475 -0.6431  0.1403  0.2498
  101MOL0     C13522   9.467   2.769  -0.591 -0.1768  0.2782 -0.1312
  101MOL0     C13523   9.606   2.816  -0.539 -0.5114  0.2897 -0.8020
  101MOL0     O13524   9.706   2.806  -0.637 -0.3659  0.4140  0.0748
  101MOL0     C13525   9.829   2.843  -0.608 -0.8899  0.1891  0.6072
  101MOL0     C13526   9.895   2.793  -0.496  0.1734 -0.3828 -0.0749
  101MOL0     C13527  10.028   2.840  -0.453  0.0733 -0.3326  0.1733
  101MOL0     C13528  10.083   2.759  -0.347  0.0977  0.2507 -0.0316
  101MOL0     C13529  10.083   2.945  -0.529  0.2374 -1.5588 -0.8553
  101MOL0     C13530  10.230   2.988  -0.523  0.7625 -0.4384  0.7489
  101MOL0     O13531  10.319   2.936  -0.440 -0.5806  1.2364 -0.2167
  101MOL0     C13532  10.458   2.936  -0.448  0.7175  0.4636 -0.4020
  101MOL0     C13533  10.531   3.056  -0.428 -0.3765  0.8115  0.0519
  101MOL0     C13534  10.668   3.038  -0.414 -0.5862 -0.1907 -0.8423
  101MOL0     C13535  10.731   2.910  -0.435  0.3068 -0.1506 -0.5012
  101MOL0     O13536  10.864   2.881  -0.402  0.7112 -0.2929  0.5720
  101MOL0     C13537  10.957   2.994  -0.402  0.5976  0.0398 -0.1061
  101MOL0     C13538  11.096   2.944  -0.444  1.2030 -0.4613 -0.2081
  101MOL0     C13539  11.190   3.045  -0.381  0.1418  0.2116 -0.4196
  101MOL0     C13540  11.328   2.974  -0.389 -0.9646  0.7641  0.9864
  101MOL0     C13541  11.440   3.065  -0.341 -0.2849  0.0664  0.4201
  101MOL0     C13542  11.437   3.071  -0.187  0.2545 -0.5711 -0.6780
  101MOL0     C13543  11.533   2.963  -0.125  0.3085 -0.2218  0.8503
  101MOL0     C13544  11.535   2.975   0.022  0.8128  0.3558  0.6479
  101MOL0    Cl13545  11.372   2.946   0.097  0.5706 -0.2888  0.0327
  101MOL0     C13546  10.659   2.798  -0.464  0.5694  0.1028  0.3864
  101MOL0     C13547  10.520   2.806  -0.459  0.8673  0.0993  0.6339
  101MOL0     O13548  10.259   3.072  -0.602 -0.3191  0.8025 -0.0227
  101MOL0     C13549  10.007   3.003  -0.633  0.1328 -1.5206  0.9228
  101MOL0     C13550   9.886   2.957  -0.669 -0.5478 -0.2340  0.9970
  101MOL0     N13551   9.117   2.698  -0.287 -0.3854  0.0392 -0.2692
  101MOL0     N13552   9.017   2.760  -0.224 -0.7892 -0.0623  0.6048
  101MOL0     C13553   9.647   3.607  -0.154  0.7142  0.0131  0.1805
  101MOL0     C13554   9.781   3.623  -0.135 -1.4509 -0.1960  1.5448
  101MOL0     C13555  10.185   3.725   0.054 -0.3461  0.3279  0.2911
  101MOL0     C13556  10.260   3.724  -0.070 -0.5747  0.2426 -0.4515
  101MOL0     C13557  10.403   3.712  -0.071 -0.3131  0.0726 -0.2086
  101MOL0     C13558  10.474   3.703   0.049 -0.0689  0.2708  0.1985
  101MOL0     O13559  10.610   3.719   0.041  0.0742  0.4088 -0.5661
  101MOL0     C13560  10.667   3.833   0.116  0.0632 -0.0614  0.3628
  101MOL0     C13561  10.798   3.893   0.046 -0.2430  0.5459 -0.0682
  101MOL0     C13562  10.764   3.933  -0.093 -0.0687 -0.4651 -0.7081
  101MOL0     C13563  10.859   4.037  -0.145  0.3427 -0.0270  0.3079
  101MOL0     C13564  10.989   3.979  -0.151 -0.1163  0.1583  0.1942
  101MOL0     C13565  11.092   3.929  -0.185 -0.2631 -0.3707  0.4476
  101MOL0     C13566  10.406   3.694   0.168 -0.2220 -0.4303 -0.4371
  101MOL0     C13567  10.259   3.714   0.173 -0.5747 -0.2881  0.6097
  101MOL0     H13568   9.794   3.870   0.089 -0.2181 -1.4618  1.4546
  101MOL0     H13569   9.536   3.838   0.069 -2.5913 -1.9132 -0.1467
  101MOL0     H13570   9.379   3.576  -0.265 -0.4561 -0.6426 -0.3451
  101MOL0     H13571   9.407   3.475  -0.114  1.3654  1.0928  0.1788
  101MOL0     H13572   9.211   3.562  -0.022 -1.4495  0.0246  0.7086
  101MOL0     H13573   9.182   3.685  -0.142 -1.5683 -1.1139 -1.2595
  101MOL0     H13574   9.024   3.533  -0.208  0.6560  1.6025  0.6143
  101MOL0     H13575   9.171   3.491  -0.307 -0.2158 -0.8166 -0.2087
  101MOL0     H13576   9.212   3.292  -0.199 -0.6328 -1.3907 -0.0470
  101MOL0     H13577   9.107   3.331  -0.063 -0.1040 -0.5870 -1.5723
  101MOL0     H13578   8.923   3.356  -0.265  0.5000  1.7234 -1.9205
  101MOL0     H13579   9.040   3.305  -0.366 -3.1135  3.3902 -0.2064
  101MOL0     H13580   9.072   3.098  -0.213 -0.3441  0.3678  1.5021
  101MOL0     H13581   8.937   3.158  -0.112 -0.4809 -0.7391  0.3322
  101MOL0     H13582   8.776   3.138  -0.282 -0.2447  0.0135 -1.0444
  101MOL0     H13583   8.900   3.101  -0.416 -0.9451 -0.5186 -0.6217
  101MOL0     H13584   8.770   2.897  -0.311  0.3517  1.2029 -1.5244
  101MOL0     H13585   8.847   2.938  -0.160  2.1618  1.8198  0.2490
  101MOL0     H13586   9.031   2.930  -0.510  0.3566  2.2224  0.8394
  101MOL0     H13587   9.249   2.629  -0.536 -3.7246 -1.8467  0.4934
  101MOL0     H13588   9.206   2.778  -0.616 -0.0149  0.9425  1.0948
  101MOL0     H13589   9.396   2.732  -0.384 -1.5954 -2.3251 -0.8429
  101MOL0     H13590   9.358   2.894  -0.453 -1.1301  0.2437 -0.4249
  101MOL0     H13591   9.435   2.824  -0.680  0.3206  0.2190 -0.3522
  101MOL0     H13592   9.480   2.663  -0.617 -0.9586  0.7304 -2.6378
  101MOL0     H13593   9.626   2.751  -0.453  1.7835  1.0367 -0.7118
  101MOL0     H13594   9.606   2.915  -0.492  2.3221 -0.2899  0.6594
  101MOL0     H13595   9.850   2.700  -0.462 -0.2820 -0.4771 -0.9241
  101MOL0     H13596  10.132   2.829  -0.278  0.7534  0.0357 -0.2800
  101MOL0     H13597  10.003   2.701  -0.299 -1.3815 -1.2014 -3.8644
  101MOL0     H13598  10.155   2.683  -0.376 -1.2814 -1.3013  0.4239
  101MOL0     H13599  10.484   3.153  -0.426 -1.8955  0.1015  0.0268
  101MOL0     H13600  10.718   3.129  -0.381 -1.7644  0.3552 -0.4826
  101MOL0     H13601  10.921   3.063  -0.478 -2.0151  1.7347  2.4586
  101MOL0     H13602  10.942   3.032  -0.301 -0.3155  1.5689 -0.7825
  101MOL0     H13603  11.095   2.841  -0.405  0.7743 -0.7979 -1.0893
  101MOL0     H13604  11.111   2.937  -0.552  0.7958 -1.4291 -0.2199
  101MOL0     H13605  11.171   3.059  -0.274 -1.9962 -0.3371 -0.6833
  101MOL0     H13606  11.190   3.141  -0.435 -2.2542  0.4385 -0.1230
  101MOL0     H13607  11.343   2.881  -0.333  2.3789 -1.2398 -2.6564
  101MOL0     H13608  11.330   2.960  -0.498 -0.4143  2.0152  0.8073
  101MOL0     H13609  11.436   3.167  -0.380 -0.5486  0.3207  1.1005
  101MOL0     H13610  11.533   3.019  -0.375  1.1118  1.7082  1.8433
  101MOL0     H13611  11.478   3.166  -0.151  2.5458 -1.4432 -0.7847
  101MOL0     H13612  11.335   3.078  -0.148  1.1990  2.9240  1.7060
  101MOL0     H13613  11.637   2.985  -0.151  0.9636 -2.2378  1.5696
  101MOL0     H13614  11.522   2.864  -0.169 -1.8423  0.7059 -0.9178
  101MOL0     H13615  11.584   3.068   0.051  1.5290  0.7797 -1.6809
  101MOL0     H13616  11.607   2.897   0.049  0.8627  0.7440  1.6634
  101MOL0     H13617  10.713   2.705  -0.476  3.8581  2.1054 -2.3094
  101MOL0     H13618  10.456   2.719  -0.461  2.3934 -1.0515 -0.4556
  101MOL0     H13619  10.027   3.093  -0.691 -2.0926 -1.2757  0.4337
  101MOL0     H13620   9.832   3.002  -0.751 -0.3969  0.7354  1.4100
  101MOL0     H13621   9.620   3.541  -0.237  2.8323  0.0755 -0.6388
  101MOL0     H13622   9.851   3.581  -0.207 -3.2317  1.6735 -1.5330
  101MOL0     H13623  10.218   3.714  -0.170 -1.1451 -2.3831 -0.0176
  101MOL0     H13624  10.464   3.724  -0.160 -0.8901  1.8505 -0.3990
  101MOL0     H13625  10.594   3.914   0.111  0.0360 -0.0142  1.3273
  101MOL0     H13626  10.686   3.820   0.223 -0.7246  3.2478  1.0141
  101MOL0     H13627  10.871   3.813   0.029  0.8340  2.0244 -3.0339
  101MOL0     H13628  10.833   3.973   0.113  0.5809  0.9863 -0.9958
  101MOL0     H13629  10.665   3.980  -0.097 -0.9921 -1.9063  2.1328
  101MOL0     H13630  10.769   3.843  -0.154  2.8199 -2.8096  2.6064
  101MOL0     H13631  10.867   4.123  -0.078  4.8233  0.3546 -0.3706
  101MOL0     H13632  10.823   4.073  -0.242 -4.2603 -0.0567  1.7678
  101MOL0     H13633  11.187   3.882  -0.204  0.3725  1.7189 -2.1431
  101MOL0     H13634  10.456   3.683   0.263 -0.6894 -0.4868 -0.1959
  101MOL0     H13635  10.208   3.722   0.268 -1.7162 -0.7913  0.0593
  102MOL0     O13636   6.693   8.740   4.917  0.6014  0.3105 -0.4618
  102MOL0     C13637   6.656   8.634   4.973  0.0376 -0.4307 -0.0358
  102MOL0     O13638   6.559   8.546   4.919 -0.2998 -0.4025  0.1117
  102MOL0     C13639   6.519   8.539   4.792 -0.4357 -0.9541  0.1489
  102MOL0     C13640   6.483   8.661   4.730 -1.0456 -0.4337  0.0524
  102MOL0     C13641   6.436   8.674   4.600 -1.6357 -0.0535 -0.0829
  102MOL0     C13642   6.444   8.555   4.521 -0.4173 -1.4153  0.3010
  102MOL0     O13643   6.402   8.554   4.383  0.1509  0.4333 -0.6014
  102MOL0     C13644   6.339   8.673   4.324 -0.4222  0.3694  0.2401
  102MOL0     C13645   6.187   8.686   4.331 -0.7387 -0.2747 -0.2536
  102MOL0     C13646   6.114   8.551   4.280  0.2272 -0.5225  0.4311
  102MOL0     C13647   6.093   8.459   4.392 -1.1410 -0.0400 -0.3269
  102MOL0     C13648   5.990   8.350   4.354  0.5058  0.2128 -0.1396
  102MOL0     C13649   5.997   8.228   4.455  0.0214  0.3761 -0.1751
  102MOL0     C13650   5.937   8.246   4.587 -0.8381  0.1751 -0.4449
  102MOL0     C13651   5.948   8.109   4.660  0.0492 -0.1631  0.9482
  102MOL0     N13652   5.934   8.132   4.804 -1.3807 -0.0036 -0.8273
  102MOL0     C13653   5.965   8.033   4.899  0.3040  0.3618  0.1801
  102MOL0     C13654   5.926   8.091   5.013 -0.0757 -0.2875 -0.1872
  102MOL0     C13655   5.959   8.038   5.148  0.0029  0.5918 -0.8569
  102MOL0     C13656   6.120   8.029   5.180 -0.3966 -0.1805  0.0343
  102MOL0     C13657   6.170   8.161   5.235 -0.6406 -1.3169  0.0031
  102MOL0     C13658   6.323   8.159   5.257  0.5911 -0.4629 -0.2720
  102MOL0     O13659   6.406   8.178   5.140 -0.0531  0.1853  0.2232
  102MOL0     C13660   6.499   8.081   5.104 -0.0213  0.1401 -0.5871
  102MOL0     C13661   6.566   8.096   4.986  0.7831 -0.1417 -0.2277
  102MOL0     C13662   6.664   8.006   4.935  0.0987  0.7882 -0.4397
  102MOL0     C13663   6.722   8.050   4.802 -0.1697  0.3662  0.2375
  102MOL0     C13664   6.680   7.883   5.015  0.0140  0.1410 -0.1723
  102MOL0     C13665   6.755   7.771   4.958  0.0679 -0.9099 -0.4535
  102MOL0     O13666   6.776   7.665   5.043  0.4222 -0.2792  0.0100
  102MOL0     C13667   6.856   7.562   4.981  1.3818  0.1234  0.4438
  102MOL0     C13668   6.782   7.484   4.894  0.3039  0.4807 -0.1162
  102MOL0     C13669   6.849   7.392   4.807  0.4316 -0.3069  0.8994
  102MOL0     C13670   6.991   7.371   4.821  0.4675 -0.1335 -0.0166
  102MOL0     O13671   7.060   7.289   4.734  0.6492 -0.2656 -0.0643
  102MOL0     C13672   7.206   7.293   4.729  0.1384  0.0818  0.2483
  102MOL0     C13673   7.244   7.428   4.666  0.0997  0.6328  1.4587
  102MOL0     C13674   7.197   7.454   4.519 -0.0252 -1.0051 -0.3884
  102MOL0     C13675   7.298   7.435   4.402  0.3636 -1.0804  0.1418
  102MOL0     C13676   7.247   7.509   4.276  0.7292 -0.2816 -0.1937
  102MOL0     C13677   7.253   7.661   4.265 -0.1923  0.1672 -0.8030
  102MOL0     C13678   7.399   7.708   4.269  0.7246 -0.3769 -0.0076
  102MOL0     C13679   7.396   7.868   4.260 -0.9352 -0.3416  0.4145
  102MOL0    Cl13680   7.309   7.927   4.114  0.4821 -1.0003  0.4547
  102MOL0     C13681   7.055   7.433   4.927 -0.0016  0.0885 -0.1351
  102MOL0     C13682   6.987   7.528   5.010  0.8832 -0.2800  0.4555
  102MOL0     O13683   6.799   7.776   4.844  0.4978 -0.2177  0.2837
  102MOL0     C13684   6.614   7.868   5.140 -1.0894 -0.4914 -0.7046
  102MOL0     C13685   6.519   7.962   5.180  0.3351  0.0107  0.3735
  102MOL0     N13686   5.881   8.221   4.988  0.1098 -0.2561  0.4105
  102MOL0     N13687   5.879   8.239   4.859 -0.0475  0.5303 -0.0405
  102MOL0     C13688   6.481   8.435   4.578  0.0153  0.0513 -0.8842
  102MOL0     C13689   6.511   8.421   4.714 -0.4787  0.3205  0.2950
  102MOL0     C13690   6.676   8.614   5.117  0.2503  1.5043  1.1552
  102MOL0     C13691   6.572   8.563   5.198 -0.0401  0.0511  0.3313
  102MOL0     C13692   6.590   8.550   5.334 -0.7357 -0.3908  0.6957
  102MOL0     C13693   6.716   8.579   5.397  0.0589 -0.3304 -0.0425
  102MOL0     O13694   6.737   8.544   5.530  0.4405  0.4222  0.2466
  102MOL0     C13695   6.841   8.610   5.604 -0.2209 -1.3609  0.2156
  102MOL0     C13696   6.879   8.551   5.747  0.4984  0.7832 -0.9084
  102MOL0     C13697   6.751   8.568   5.835  0.5287 -1.1657  0.2331
  102MOL0     C13698   6.757   8.468   5.956 -0.9359 -0.2027  0.8992
  102MOL0     C13699   6.623   8.437   5.999  0.9881  0.1203  0.2568
  102MOL0     C13700   6.521   8.415   6.065  0.0924  0.5978 -0.5460
  102MOL0     C13701   6.813   8.647   5.317  0.0153 -0.4113 -1.0022
  102MOL0     C13702   6.797   8.660   5.178  0.3226 -0.4595 -0.1160
  102MOL0     H13703   6.493   8.745   4.797 -0.7609 -2.3267  2.5270
  102MOL0     H13704   6.416   8.774   4.563 -2.6468 -0.8483 -1.8322
  102MOL0     H13705   6.381   8.766   4.364  0.4436 -0.2305  0.7587
  102MOL0     H13706   6.373   8.664   4.221  1.3626 -0.3066  0.8507
  102MOL0     H13707   6.148   8.707   4.431 -0.4905 -0.7577 -0.0498
  102MOL0     H13708   6.161   8.766   4.261 -0.9963 -1.3527 -1.4181
  102MOL0     H13709   6.012   8.567   4.246 -0.4586 -1.2619  2.0391
  102MOL0     H13710   6.171   8.506   4.198  2.0648 -0.5245  1.6294
  102MOL0     H13711   6.190   8.411   4.407 -0.9482 -0.2362 -1.9874
  102MOL0     H13712   6.057   8.515   4.479 -0.9370  2.0907 -1.5351
  102MOL0     H13713   5.892   8.398   4.366  1.6280  2.2422  1.4968
  102MOL0     H13714   6.020   8.321   4.253  2.7792 -1.6388  0.9841
  102MOL0     H13715   5.952   8.147   4.398 -0.8516  1.4788 -1.1052
  102MOL0     H13716   6.102   8.204   4.478  0.1779 -0.1070 -1.3202
  102MOL0     H13717   5.987   8.327   4.641 -0.3746  0.5937 -1.4675
  102MOL0     H13718   5.831   8.271   4.580 -0.8067  0.8599  1.1633
  102MOL0     H13719   6.043   8.059   4.640 -0.1826  0.0336 -0.7706
  102MOL0     H13720   5.864   8.045   4.634  1.7197 -2.2738  0.4301
  102MOL0     H13721   6.006   7.936   4.874 -2.2982 -0.4054 -1.6676
  102MOL0     H13722   5.901   8.084   5.228  0.7896 -0.3445  0.2825
  102MOL0     H13723   5.916   7.937   5.150  1.9532 -0.2707  0.2869
  102MOL0     H13724   6.186   8.000   5.098 -0.4969 -0.3297  0.0078
  102MOL0     H13725   6.138   7.958   5.261  1.2110  0.5296  0.3575
  102MOL0     H13726   6.109   8.190   5.320 -1.1624  0.5056 -0.9457
  102MOL0     H13727   6.158   8.229   5.150  0.4949 -2.7186 -1.3423
  102MOL0     H13728   6.352   8.072   5.317 -0.1820 -0.8561 -0.4428
  102MOL0     H13729   6.344   8.243   5.323 -1.4735 -1.0564  1.2587
  102MOL0     H13730   6.549   8.190   4.935  3.2915 -0.3778 -1.6683
  102MOL0     H13731   6.673   8.142   4.770 -1.3679  0.0273  1.0601
  102MOL0     H13732   6.830   8.069   4.803 -0.3305  1.3551  1.9630
  102MOL0     H13733   6.706   7.977   4.721 -0.2753  3.4394 -2.7632
  102MOL0     H13734   6.676   7.501   4.880 -0.2070 -0.7886  1.8498
  102MOL0     H13735   6.800   7.342   4.724  1.3283  1.5567 -0.8598
  102MOL0     H13736   7.260   7.279   4.823  2.3103 -1.5750 -1.1309
  102MOL0     H13737   7.243   7.221   4.656 -0.0138 -0.7221  0.9539
  102MOL0     H13738   7.210   7.510   4.729 -1.0592  0.8450  0.5903
  102MOL0     H13739   7.353   7.427   4.658 -0.0042 -1.4650 -0.8093
  102MOL0     H13740   7.167   7.559   4.514 -0.4371 -1.1360 -0.6617
  102MOL0     H13741   7.113   7.388   4.493 -2.7801  1.5494  1.4145
  102MOL0     H13742   7.396   7.480   4.424 -0.1535  0.4740 -0.6134
  102MOL0     H13743   7.313   7.329   4.382  0.1481 -0.6475 -2.6283
  102MOL0     H13744   7.142   7.481   4.263 -0.1341  2.5057  0.0343
  102MOL0     H13745   7.296   7.482   4.182  0.1674  3.7349 -1.8162
  102MOL0     H13746   7.190   7.705   4.187 -1.9156  0.7188  0.8123
  102MOL0     H13747   7.206   7.695   4.358 -1.2504 -1.2029 -0.8209
  102MOL0     H13748   7.469   7.662   4.199 -0.9322 -0.6999 -1.5429
  102MOL0     H13749   7.441   7.689   4.368 -1.1236  0.4957  1.0124
  102MOL0     H13750   7.501   7.897   4.255 -1.3650  1.2790  0.2108
  102MOL0     H13751   7.370   7.927   4.348 -0.0006  0.2846  0.2858
  102MOL0     H13752   7.156   7.400   4.949 -0.1394  0.7555  1.7364
  102MOL0     H13753   7.047   7.573   5.088 -2.8026  1.0557  2.7868
  102MOL0     H13754   6.647   7.789   5.207  1.4375  1.0983  0.0704
  102MOL0     H13755   6.478   7.928   5.275 -1.9305  0.8189 -0.2473
  102MOL0     H13756   6.483   8.351   4.509 -1.2377  1.7769 -3.1585
  102MOL0     H13757   6.537   8.322   4.751  0.1925 -0.7197 -2.6838
  102MOL0     H13758   6.471   8.545   5.163  0.1464 -0.5182  0.0752
  102MOL0     H13759   6.515   8.506   5.399  0.1184 -2.4582  0.3524
  102MOL0     H13760   6.939   8.601   5.555  1.1760 -0.2043  2.6377
  102MOL0     H13761   6.811   8.715   5.604 -3.1278 -2.1257  0.2506
  102MOL0     H13762   6.974   8.593   5.782  0.7998 -0.0853 -0.6808
  102MOL0     H13763   6.901   8.445   5.737  0.0995  0.8637 -3.2456
  102MOL0     H13764   6.665   8.543   5.772  1.2922 -0.4021 -1.1702
  102MOL0     H13765   6.745   8.670   5.876  1.1797 -1.2776  0.6194
  102MOL0     H13766   6.807   8.519   6.039 -0.3759 -2.6352  2.1669
  102MOL0     H13767   6.809   8.377   5.923  1.3285  2.2987 -3.3671
  102MOL0     H13768   6.436   8.376   6.117  0.1075 -0.6004 -1.3663
  102MOL0     H13769   6.893   8.694   5.373 -1.6032 -0.1043  1.1614
  102MOL0     H13770   6.871   8.712   5.118  2.4818 -2.2720  0.8073
  103MOL0     O13771  10.169  10.108   6.973  0.8344 -0.3109 -0.3232
  103MOL0     C13772  10.129  10.201   6.903  0.0201 -0.2296 -0.9334
  103MOL0     O13773  10.046  10.187   6.798 -0.9435 -0.0766  0.4741
  103MOL0     C13774   9.996  10.059   6.775 -0.2451  0.4360  0.2953
  103MOL0     C13775   9.941   9.974   6.876 -0.4913 -0.0623  1.2331
  103MOL0     C13776   9.903   9.836   6.838  0.6276  0.0382  0.4307
  103MOL0     C13777   9.913   9.790   6.706 -0.1850 -0.6668 -0.4390
  103MOL0     O13778   9.871   9.663   6.669 -0.0237 -0.6370  0.5879
  103MOL0     C13779   9.911   9.598   6.546  0.7686  0.1928  0.1589
  103MOL0     C13780   9.785   9.546   6.480  1.0444  0.0110 -0.3277
  103MOL0     C13781   9.787   9.505   6.326 -0.1292  0.8584 -0.1030
  103MOL0     C13782   9.748   9.354   6.312  0.0647  0.5719 -0.3566
  103MOL0     C13783   9.746   9.313   6.164 -0.3066 -0.5802  0.3751
  103MOL0     C13784   9.871   9.357   6.084 -0.0314  0.7843  0.3873
  103MOL0     C13785   9.895   9.256   5.971 -1.2033 -0.8936  0.0986
  103MOL0     C13786   9.798   9.262   5.854  0.3248  0.1154  0.4710
  103MOL0     N13787   9.685   9.161   5.853  0.1568 -0.5496  0.4777
  103MOL0     C13788   9.562   9.182   5.908  0.8783 -0.9869 -0.1446
  103MOL0     C13789   9.491   9.069   5.879  0.1367 -0.8116 -0.5868
  103MOL0     C13790   9.357   9.036   5.936  0.6215  0.8325 -0.0955
  103MOL0     C13791   9.373   8.955   6.070  1.1742  0.7422  0.4587
  103MOL0     C13792   9.484   9.009   6.165 -0.6417 -0.1345  0.2124
  103MOL0     C13793   9.505   8.928   6.292 -1.1935  0.1642  0.3701
  103MOL0     O13794   9.607   9.006   6.364  1.4703 -0.0778  0.1343
  103MOL0     C13795   9.666   8.939   6.470  0.5857  0.4851  0.1914
  103MOL0     C13796   9.592   8.853   6.550 -0.0186  0.2872 -0.6383
  103MOL0     C13797   9.651   8.802   6.672  0.2274  0.2512 -0.4094
  103MOL0     C13798   9.566   8.709   6.749  0.2406  0.3566 -0.1206
  103MOL0     C13799   9.776   8.849   6.702 -0.4011 -0.7522 -0.2905
  103MOL0     C13800   9.840   8.813   6.838 -0.2228 -0.5362 -0.3928
  103MOL0     O13801   9.884   8.929   6.904 -1.2026  0.6823  0.1078
  103MOL0     C13802   9.894   8.927   7.044  0.1281  0.0763 -0.3780
  103MOL0     C13803   9.788   8.889   7.125 -1.0709  0.3803 -0.2778
  103MOL0     C13804   9.795   8.917   7.264  0.5414  0.1299 -0.2790
  103MOL0     C13805   9.907   8.973   7.324 -0.0973  0.0293 -0.5857
  103MOL0     O13806   9.909   9.013   7.451  0.2756 -0.6357  0.6100
  103MOL0     C13807   9.831   8.956   7.553 -0.5952 -0.0303 -0.3071
  103MOL0     C13808   9.867   9.005   7.693  0.2942 -0.0230 -0.1011
  103MOL0     C13809  10.016   8.975   7.714  0.2985 -0.0026  0.0600
  103MOL0     C13810  10.068   9.032   7.856 -0.4389 -0.2262  0.3526
  103MOL0     C13811  10.080   9.189   7.880  0.0043  0.1948  0.2459
  103MOL0     C13812  10.163   9.255   7.769 -0.1149  0.1895 -0.2940
  103MOL0     C13813  10.095   9.321   7.650 -0.2916 -0.8061  0.5865
  103MOL0     C13814  10.194   9.377   7.543 -0.2645  0.2966  0.6601
  103MOL0    Cl13815  10.245   9.250   7.411  0.3868  0.0838 -0.5227
  103MOL0     C13816  10.014   8.995   7.248 -0.3164  0.7675  0.0535
  103MOL0     C13817  10.014   8.975   7.108  0.5147  0.3560  0.6791
  103MOL0     O13818   9.845   8.704   6.882  0.6868 -0.7463  0.3264
  103MOL0     C13819   9.855   8.928   6.618 -0.7972  0.3567  0.1365
  103MOL0     C13820   9.796   8.976   6.495 -0.3543  0.2859  0.9661
  103MOL0     N13821   9.582   8.982   5.809  0.5731 -1.3609 -0.4541
  103MOL0     N13822   9.695   9.047   5.792 -0.5296 -0.3285  0.1193
  103MOL0     C13823   9.956   9.886   6.611  0.7935  0.6028  0.4772
  103MOL0     C13824   9.986  10.015   6.642 -0.3395 -0.2136  0.2612
  103MOL0     C13825  10.181  10.339   6.931 -0.1894 -0.0244 -0.5165
  103MOL0     C13826  10.279  10.356   7.027  0.2127 -0.1286  0.2204
  103MOL0     C13827  10.342  10.477   7.047 -0.8057 -0.1062  1.2461
  103MOL0     C13828  10.307  10.587   6.964 -0.0763 -0.0005 -1.0197
  103MOL0     O13829  10.367  10.698   7.009 -0.1973 -0.3255 -0.1433
  103MOL0     C13830  10.313  10.827   6.970 -0.2315  0.7971  0.1056
  103MOL0     C13831  10.401  10.938   7.008  0.0070  0.4571  0.3592
  103MOL0     C13832  10.544  10.937   6.944  0.7037  0.3221  0.4294
  103MOL0     C13833  10.543  11.000   6.799 -1.2827 -0.3268  0.0649
  103MOL0     C13834  10.657  11.092   6.778  0.7698  0.5851 -0.3175
  103MOL0     C13835  10.756  11.163   6.767 -0.0771 -0.2862 -0.7829
  103MOL0     C13836  10.211  10.573   6.865 -0.1033  0.1462 -0.2068
  103MOL0     C13837  10.144  10.450   6.855 -0.8254 -0.4986 -0.0732
  103MOL0     H13838   9.928  10.009   6.978  1.0992  0.1510  1.3825
  103MOL0     H13839   9.864   9.765   6.909  1.0052 -2.3645 -1.6411
  103MOL0     H13840   9.956   9.670   6.478 -3.0559  1.0499 -1.7206
  103MOL0     H13841   9.983   9.519   6.571 -0.4587 -0.9527  0.1753
  103MOL0     H13842   9.729   9.476   6.543  0.2129  0.4572 -0.5623
  103MOL0     H13843   9.719   9.633   6.471  2.0299  0.7463 -0.6420
  103MOL0     H13844   9.723   9.572   6.267 -1.3742  1.0630  1.3987
  103MOL0     H13845   9.888   9.522   6.288  1.4581  0.8625  3.6181
  103MOL0     H13846   9.802   9.285   6.378 -0.9360 -0.6758 -0.8150
  103MOL0     H13847   9.648   9.339   6.353  0.3402 -2.9158 -0.6220
  103MOL0     H13848   9.727   9.205   6.167  0.5364 -0.7418  3.1779
  103MOL0     H13849   9.664   9.372   6.123  1.2280  0.1033 -1.8597
  103MOL0     H13850   9.855   9.461   6.054  0.8076  0.3736 -1.6437
  103MOL0     H13851   9.957   9.350   6.150  0.7589 -0.0857 -0.7035
  103MOL0     H13852   9.990   9.290   5.928 -1.2990  0.5336  0.9282
  103MOL0     H13853   9.917   9.154   6.002  1.1897 -0.3814  0.2919
  103MOL0     H13854   9.855   9.235   5.765 -2.8231 -1.9198 -1.1151
  103MOL0     H13855   9.770   9.365   5.833  0.5479  0.2775  0.9394
  103MOL0     H13856   9.528   9.265   5.968 -0.0066 -0.6390 -1.0977
  103MOL0     H13857   9.302   9.128   5.961 -2.2501 -1.7289  4.3033
  103MOL0     H13858   9.300   8.995   5.853 -0.4724 -0.8273  1.4044
  103MOL0     H13859   9.383   8.847   6.059 -0.3380  0.5540  0.6829
  103MOL0     H13860   9.272   8.948   6.110  0.4764 -0.3212 -1.3624
  103MOL0     H13861   9.462   9.116   6.176 -0.1341  0.0870 -0.7894
  103MOL0     H13862   9.571   8.997   6.099 -0.6388  0.2310  0.1438
  103MOL0     H13863   9.530   8.822   6.280  1.0101  0.1454  3.8253
  103MOL0     H13864   9.409   8.930   6.345 -2.3822 -1.7899 -1.5054
  103MOL0     H13865   9.484   8.848   6.542 -0.0576  2.0103 -1.7318
  103MOL0     H13866   9.554   8.748   6.850  0.9574  1.6576 -0.5100
  103MOL0     H13867   9.466   8.711   6.705 -0.3599 -1.4142  1.0513
  103MOL0     H13868   9.605   8.607   6.752  0.8301  0.5984  2.2569
  103MOL0     H13869   9.696   8.845   7.086 -1.3012  2.4259 -2.2651
  103MOL0     H13870   9.712   8.896   7.330  0.0319  1.2760 -0.5123
  103MOL0     H13871   9.723   8.960   7.537 -0.3585  0.2279 -2.1241
  103MOL0     H13872   9.857   8.850   7.548 -0.7474 -0.1429  0.9897
  103MOL0     H13873   9.852   9.113   7.707 -0.2326  0.0708 -1.2491
  103MOL0     H13874   9.806   8.948   7.763  0.4917  0.6158  0.6071
  103MOL0     H13875  10.082   9.022   7.640  0.1446  1.8215  1.0084
  103MOL0     H13876  10.020   8.866   7.715 -0.9055 -0.0997 -1.6147
  103MOL0     H13877  10.008   9.000   7.941 -0.2677  1.9799  1.3609
  103MOL0     H13878  10.166   8.985   7.867 -0.1477  0.1431 -0.6004
  103MOL0     H13879  10.150   9.190   7.965  1.6087 -1.4549 -0.9817
  103MOL0     H13880   9.987   9.239   7.908  0.5371 -0.0029  2.5890
  103MOL0     H13881  10.222   9.332   7.818 -1.0556  0.6869  0.0667
  103MOL0     H13882  10.237   9.193   7.718 -0.7939  0.3588 -1.5169
  103MOL0     H13883  10.036   9.394   7.706 -0.5112 -1.4458  1.1984
  103MOL0     H13884  10.026   9.254   7.599 -0.6265  1.7530 -2.6152
  103MOL0     H13885  10.284   9.417   7.592 -1.1489  2.0692  0.9065
  103MOL0     H13886  10.151   9.457   7.481 -1.6181 -0.5213  0.5128
  103MOL0     H13887  10.101   9.048   7.284  0.0061  0.2695  0.0102
  103MOL0     H13888  10.098   9.016   7.053  0.1011  0.3808  0.0572
  103MOL0     H13889   9.957   8.942   6.652 -0.3081 -2.7219  0.2129
  103MOL0     H13890   9.840   9.046   6.425  0.4296 -1.7781 -0.7279
  103MOL0     H13891   9.956   9.861   6.506  1.6665  2.2635  0.0432
  103MOL0     H13892   9.993  10.084   6.559  0.9109 -0.6672 -0.0283
  103MOL0     H13893  10.313  10.267   7.079  2.9564  1.2775  1.0481
  103MOL0     H13894  10.407  10.479   7.134  1.1098  0.9275 -0.1304
  103MOL0     H13895  10.300  10.832   6.862 -0.1605  2.5361  0.1579
  103MOL0     H13896  10.217  10.830   7.021 -2.2207 -2.3617 -2.9764
  103MOL0     H13897  10.410  10.935   7.117  2.1269  1.2083  0.2564
  103MOL0     H13898  10.363  11.034   6.972 -0.2145 -0.4069 -1.8690
  103MOL0     H13899  10.583  10.835   6.952 -0.1782 -0.2858 -2.0772
  103MOL0     H13900  10.611  10.992   7.010  1.7121 -0.3873  0.0277
  103MOL0     H13901  10.457  11.063   6.775 -1.3764 -0.1951  0.7272
  103MOL0     H13902  10.557  10.920   6.726  3.0788  1.1368 -1.0047
  103MOL0     H13903  10.851  11.207   6.746  0.5970 -1.4369 -0.1882
  103MOL0     H13904  10.182  10.650   6.793 -0.9200 -0.1673 -0.2276
  103MOL0     H13905  10.072  10.439   6.775 -0.9801  0.6654 -0.1190
  104MOL0     O13906   2.810   3.438   5.604 -0.3522  0.7832 -0.7531
  104MOL0     C13907   2.708   3.447   5.670 -0.0982  0.1593  0.4383
  104MOL0     O13908   2.697   3.411   5.799  0.0070 -0.9072 -0.3232
  104MOL0     C13909   2.803   3.358   5.855  0.8600 -1.2382 -0.1796
  104MOL0     C13910   2.903   3.449   5.901  0.1542 -0.9275 -1.0094
  104MOL0     C13911   3.007   3.403   5.978  0.3411  0.3342 -0.7411
  104MOL0     C13912   3.008   3.275   6.027  0.2163 -0.2395 -0.2482
  104MOL0     O13913   3.110   3.252   6.117 -0.9557 -0.2782  0.0256
  104MOL0     C13914   3.089   3.164   6.231  0.5008 -0.6623 -0.2224
  104MOL0     C13915   3.224   3.153   6.309 -0.0509  0.2327 -0.0021
  104MOL0     C13916   3.318   3.037   6.245  0.1425  0.3673 -0.6442
  104MOL0     C13917   3.446   3.018   6.327 -0.6572 -0.3493  0.1146
  104MOL0     C13918   3.547   2.928   6.259 -1.3581  0.3970  0.3714
  104MOL0     C13919   3.688   2.963   6.318  0.1743 -0.8006  0.7039
  104MOL0     C13920   3.789   2.852   6.260  0.8367 -0.3218  0.0443
  104MOL0     C13921   3.853   2.882   6.127 -1.0353 -0.2001  0.7278
  104MOL0     N13922   3.895   2.756   6.076 -0.1543  0.0725  0.2372
  104MOL0     C13923   3.983   2.663   6.137  0.4073  0.1811  0.4311
  104MOL0     C13924   3.979   2.553   6.062 -0.3907 -0.0188 -0.9881
  104MOL0     C13925   4.081   2.443   6.076  0.5146  0.4668  0.2514
  104MOL0     C13926   4.017   2.305   6.062  0.0882 -0.6456  0.4651
  104MOL0     C13927   4.114   2.198   6.122  0.6353  0.1087 -0.5716
  104MOL0     C13928   4.034   2.064   6.146 -0.7163 -0.3232  0.5522
  104MOL0     O13929   3.931   2.097   6.247  0.6279 -0.0514 -0.1718
  104MOL0     C13930   3.834   2.006   6.258  1.7078  0.0831 -0.8526
  104MOL0     C13931   3.737   2.031   6.354  0.7349  0.1344  0.3558
  104MOL0     C13932   3.637   1.932   6.384  0.0080  0.3997 -0.1033
  104MOL0     C13933   3.544   1.963   6.492 -0.2308  0.2350  0.6899
  104MOL0     C13934   3.636   1.807   6.313 -0.4616  0.0012 -0.5195
  104MOL0     C13935   3.560   1.688   6.367  0.1441  0.4579  0.5484
  104MOL0     O13936   3.522   1.601   6.265 -0.3470  0.2268  0.0017
  104MOL0     C13937   3.423   1.511   6.305  0.4280 -0.3728  0.2798
  104MOL0     C13938   3.443   1.386   6.374  0.0819 -0.2205  0.1547
  104MOL0     C13939   3.339   1.306   6.414 -0.0344  0.4487  0.0378
  104MOL0     C13940   3.209   1.339   6.370  0.2733  0.1711  0.4677
  104MOL0     O13941   3.117   1.246   6.408  0.1735  0.5206 -0.2629
  104MOL0     C13942   2.978   1.289   6.396 -0.2601  0.7985 -0.4306
  104MOL0     C13943   2.933   1.390   6.508 -0.2604 -0.5060  0.3675
  104MOL0     C13944   2.793   1.366   6.573 -0.3364 -0.2785  0.6221
  104MOL0     C13945   2.822   1.259   6.686 -0.1248  0.5741 -0.0347
  104MOL0     C13946   2.694   1.231   6.769 -0.6271 -0.5211  0.0362
  104MOL0     C13947   2.725   1.111   6.861 -0.8050 -0.4978 -0.4094
  104MOL0     C13948   2.593   1.050   6.912 -0.0775 -0.0898  0.0094
  104MOL0     C13949   2.552   0.911   6.859 -0.2112 -0.1828  0.4761
  104MOL0    Cl13950   2.373   0.873   6.853 -0.1724  0.1736  0.2587
  104MOL0     C13951   3.190   1.456   6.298  0.3992 -0.9011 -0.3776
  104MOL0     C13952   3.295   1.542   6.268 -0.3663 -0.5055  0.7410
  104MOL0     O13953   3.530   1.672   6.487 -0.6932 -0.4650 -0.4391
  104MOL0     C13954   3.725   1.787   6.207 -0.3016 -0.4873  0.0517
  104MOL0     C13955   3.819   1.890   6.173 -0.4709  0.4026  0.5825
  104MOL0     N13956   3.886   2.575   5.964 -0.5568 -0.6792 -0.9539
  104MOL0     N13957   3.839   2.699   5.969 -0.2290 -0.5243 -0.8090
  104MOL0     C13958   2.915   3.188   5.980 -0.1491 -0.9920 -0.8629
  104MOL0     C13959   2.816   3.225   5.885 -0.0427 -0.1994 -0.1529
  104MOL0     C13960   2.591   3.502   5.598  0.3380 -0.4852  0.4435
  104MOL0     C13961   2.471   3.524   5.665 -0.9192 -0.9865  0.0134
  104MOL0     C13962   2.353   3.569   5.605  0.1325 -0.0436  0.4801
  104MOL0     C13963   2.349   3.591   5.473 -0.0259  0.0628  0.4002
  104MOL0     O13964   2.239   3.622   5.403 -0.4819  0.6440 -0.1974
  104MOL0     C13965   2.226   3.761   5.400  0.8164 -0.8212  0.0098
  104MOL0     C13966   2.134   3.802   5.288  0.3250 -0.6547  0.4802
  104MOL0     C13967   1.982   3.799   5.331  1.0777 -0.0297  0.5137
  104MOL0     C13968   1.890   3.824   5.211  0.2174  0.2338  0.5439
  104MOL0     C13969   1.893   3.701   5.133  0.3521  0.2289 -1.3123
  104MOL0     C13970   1.896   3.602   5.068 -0.2362  0.6169  0.7182
  104MOL0     C13971   2.466   3.570   5.393 -0.9358 -0.3036 -0.1691
  104MOL0     C13972   2.588   3.532   5.454 -0.6371 -0.7694  0.2426
  104MOL0     H13973   2.896   3.553   5.874  0.6874 -0.6798 -0.2356
  104MOL0     H13974   3.088   3.474   5.994  0.1134  0.4405 -0.0017
  104MOL0     H13975   3.012   3.216   6.289  0.8044 -0.2444 -0.1858
  104MOL0     H13976   3.058   3.063   6.203 -1.1540  0.2217 -1.7526
  104MOL0     H13977   3.275   3.249   6.323  0.0574 -0.1436  2.5485
  104MOL0     H13978   3.206   3.133   6.415  1.1086 -1.2475 -0.0627
  104MOL0     H13979   3.261   2.945   6.261 -3.5035  2.9681  3.6696
  104MOL0     H13980   3.346   3.052   6.140  1.6144  3.5808  0.0695
  104MOL0     H13981   3.491   3.116   6.347 -0.0077 -0.5236 -0.4474
  104MOL0     H13982   3.423   2.967   6.420 -0.1889  1.6206  1.3763
  104MOL0     H13983   3.515   2.824   6.268  1.9739 -0.7973 -0.1603
  104MOL0     H13984   3.547   2.947   6.151  2.3512 -3.7756 -0.6588
  104MOL0     H13985   3.720   3.064   6.292 -0.4304 -0.9471 -0.7134
  104MOL0     H13986   3.688   2.941   6.425 -1.1690 -0.4034  0.7954
  104MOL0     H13987   3.865   2.832   6.337  0.8814 -0.7182 -0.0987
  104MOL0     H13988   3.739   2.754   6.257  1.1615 -0.4810 -0.2224
  104MOL0     H13989   3.946   2.938   6.137 -0.0807 -1.6473  0.3461
  104MOL0     H13990   3.786   2.926   6.054  2.1169  0.2270 -2.1922
  104MOL0     H13991   4.046   2.683   6.223 -0.5278  0.9081  0.9702
  104MOL0     H13992   4.163   2.454   6.004 -0.2930  0.0175 -0.7667
  104MOL0     H13993   4.111   2.445   6.181 -0.3520 -1.3477  0.5847
  104MOL0     H13994   4.016   2.283   5.955  0.1563  0.8490  0.1431
  104MOL0     H13995   3.913   2.305   6.098  0.1015 -1.3777  0.5244
  104MOL0     H13996   4.164   2.237   6.212 -1.0261 -0.5571  0.6824
  104MOL0     H13997   4.197   2.189   6.052  1.2737  2.0608 -0.1515
  104MOL0     H13998   4.095   1.986   6.191 -2.6622 -2.4089 -0.2655
  104MOL0     H13999   3.998   2.030   6.049 -1.6828  0.9052  0.4525
  104MOL0     H14000   3.732   2.127   6.404  2.3920  0.3109  0.2436
  104MOL0     H14001   3.459   1.894   6.490 -1.5480  1.7728 -1.6764
  104MOL0     H14002   3.593   1.948   6.588 -0.9468  0.8994  1.1785
  104MOL0     H14003   3.510   2.065   6.472  2.5927  1.7251  2.7478
  104MOL0     H14004   3.541   1.343   6.394 -0.3898 -0.5325  2.0335
  104MOL0     H14005   3.352   1.211   6.466  0.2855  0.5661  0.1726
  104MOL0     H14006   2.942   1.321   6.298 -0.9020 -2.7433 -1.4757
  104MOL0     H14007   2.921   1.197   6.409  1.5401 -0.3099 -0.0552
  104MOL0     H14008   3.008   1.398   6.587 -1.3248  1.5669  1.2411
  104MOL0     H14009   2.933   1.487   6.458  0.9612 -1.4175 -1.5725
  104MOL0     H14010   2.733   1.317   6.496  1.6341 -0.0015 -1.1846
  104MOL0     H14011   2.758   1.462   6.610 -2.3790 -1.2502  1.3832
  104MOL0     H14012   2.849   1.167   6.632  2.3044  0.1047  1.8320
  104MOL0     H14013   2.905   1.276   6.755  0.7703 -2.0564 -0.3522
  104MOL0     H14014   2.613   1.210   6.699 -0.7009  2.1541 -0.7927
  104MOL0     H14015   2.666   1.318   6.829 -1.5449  1.0795 -2.5679
  104MOL0     H14016   2.780   1.038   6.801  3.1603  0.4337  1.7495
  104MOL0     H14017   2.786   1.133   6.949  1.6999  1.3778 -2.4624
  104MOL0     H14018   2.522   1.132   6.899 -0.5891 -0.2383  1.6648
  104MOL0     H14019   2.599   1.038   7.021 -1.8849  0.9038  0.2641
  104MOL0     H14020   2.611   0.836   6.912  2.5266  1.1992 -0.4516
  104MOL0     H14021   2.592   0.897   6.758 -3.0445 -1.7726 -0.5306
  104MOL0     H14022   3.093   1.475   6.254 -0.2733  2.6314  2.1858
  104MOL0     H14023   3.291   1.625   6.198  3.3218 -0.7307  0.0617
  104MOL0     H14024   3.717   1.702   6.141  3.6787  1.1740 -2.9733
  104MOL0     H14025   3.898   1.873   6.101  0.9741  0.0969  2.1569
  104MOL0     H14026   2.927   3.082   5.999 -1.5645 -0.8916  0.7977
  104MOL0     H14027   2.752   3.151   5.837 -0.7293 -0.0916  0.5726
  104MOL0     H14028   2.473   3.510   5.773  0.9511  1.8385  0.4594
  104MOL0     H14029   2.273   3.602   5.671 -0.2852 -0.1193  0.0243
  104MOL0     H14030   2.184   3.808   5.489 -1.8505  0.8707 -1.9895
  104MOL0     H14031   2.326   3.803   5.385  1.5427 -2.2996  0.5502
  104MOL0     H14032   2.144   3.726   5.210 -1.0404  0.5195 -0.8761
  104MOL0     H14033   2.157   3.904   5.259  2.4601 -0.8942  1.1350
  104MOL0     H14034   1.970   3.872   5.412  3.4879  2.2912 -1.0892
  104MOL0     H14035   1.951   3.698   5.362 -2.4869  0.5973 -0.5198
  104MOL0     H14036   1.936   3.899   5.147 -1.8141 -1.5413 -3.3378
  104MOL0     H14037   1.791   3.868   5.228 -0.9609 -1.3515 -1.6837
  104MOL0     H14038   1.923   3.517   5.009 -2.8390 -0.8675  1.4935
  104MOL0     H14039   2.462   3.595   5.288 -1.2392  2.4945  0.4217
  104MOL0     H14040   2.678   3.518   5.395 -0.3885  2.6364 -0.4012
  105MOL0     O14041   4.036   1.156   0.341 -0.4240  0.0097  0.6619
  105MOL0     C14042   3.960   1.236   0.288  1.2216 -0.0772 -0.6240
  105MOL0     O14043   3.993   1.351   0.221  0.1478  0.3388 -0.4859
  105MOL0     C14044   4.122   1.383   0.200 -0.4706 -0.1226 -0.3275
  105MOL0     C14045   4.222   1.376   0.299 -0.2924 -0.2022  0.6530
  105MOL0     C14046   4.352   1.411   0.264  0.3298 -0.1559 -0.2507
  105MOL0     C14047   4.390   1.439   0.142 -0.4178  0.5353  0.2598
  105MOL0     O14048   4.529   1.461   0.120  0.6355  0.5394  0.2332
  105MOL0     C14049   4.580   1.444  -0.012  0.2229 -0.3631  0.0985
  105MOL0     C14050   4.706   1.376  -0.009 -0.5543  0.4159 -1.3903
  105MOL0     C14051   4.821   1.473   0.027  0.4375 -0.7026  0.7721
  105MOL0     C14052   4.945   1.388  -0.008 -1.4029  0.4964 -0.0325
  105MOL0     C14053   4.994   1.422  -0.149 -0.5069  0.2016  0.2350
  105MOL0     C14054   5.086   1.305  -0.199  0.2800 -0.2089 -0.5396
  105MOL0     C14055   5.200   1.357  -0.298  0.5496 -0.4297 -0.3432
  105MOL0     C14056   5.272   1.234  -0.350 -0.7804  0.8650 -0.2469
  105MOL0     N14057   5.387   1.277  -0.434 -0.5968  0.2563  0.7755
  105MOL0     C14058   5.361   1.336  -0.556  0.0047  0.2320  0.4839
  105MOL0     C14059   5.481   1.384  -0.588  0.1185  0.5659 -0.2931
  105MOL0     C14060   5.505   1.471  -0.696  0.2721 -0.1129  0.3680
  105MOL0     C14061   5.624   1.422  -0.792  0.3423  0.7623 -0.6258
  105MOL0     C14062   5.765   1.433  -0.733 -0.2316  0.1599  0.2132
  105MOL0     C14063   5.873   1.444  -0.848 -0.5098  0.2436  0.7678
  105MOL0     O14064   6.005   1.461  -0.791 -0.0921  0.2138  0.0413
  105MOL0     C14065   6.112   1.421  -0.874  0.3069  0.1208 -0.6550
  105MOL0     C14066   6.101   1.410  -1.013  0.2212  0.0382 -0.2876
  105MOL0     C14067   6.214   1.366  -1.080  0.3332 -0.8958  0.4649
  105MOL0     C14068   6.219   1.373  -1.231 -0.1991 -0.8369 -2.0007
  105MOL0     C14069   6.322   1.316  -1.012 -0.0881 -0.2296 -0.3511
  105MOL0     C14070   6.447   1.259  -1.075 -0.2896 -0.2975  0.1112
  105MOL0     O14071   6.569   1.292  -1.016  0.3699  0.3112 -0.0314
  105MOL0     C14072   6.666   1.311  -1.107  0.1611 -0.2306 -0.8084
  105MOL0     C14073   6.764   1.225  -1.126  0.7238  0.4873  0.3712
  105MOL0     C14074   6.872   1.256  -1.210 -0.0040  0.1665 -0.4818
  105MOL0     C14075   6.885   1.384  -1.269 -0.1417  0.2019 -0.6797
  105MOL0     O14076   7.004   1.415  -1.331  0.1219 -0.0145  0.9061
  105MOL0     C14077   7.021   1.550  -1.361 -0.3405 -0.4829 -0.3564
  105MOL0     C14078   7.154   1.573  -1.423 -0.3410  0.6242 -0.6027
  105MOL0     C14079   7.276   1.541  -1.327 -0.4976 -0.5186  0.6505
  105MOL0     C14080   7.414   1.588  -1.396  0.0706  0.9279  0.2412
  105MOL0     C14081   7.539   1.513  -1.340 -0.0517 -0.5735 -0.6478
  105MOL0     C14082   7.542   1.510  -1.182 -0.2541 -0.3096  0.4949
  105MOL0     C14083   7.539   1.651  -1.126  0.9308  0.1915 -1.4333
  105MOL0     C14084   7.526   1.662  -0.976  0.0843  0.3079 -0.0533
  105MOL0    Cl14085   7.360   1.649  -0.909 -0.1794  0.3419  0.2584
  105MOL0     C14086   6.780   1.478  -1.237 -1.1144  0.2905  0.3594
  105MOL0     C14087   6.676   1.447  -1.159  0.4420  0.5749  0.1130
  105MOL0     O14088   6.434   1.188  -1.176 -0.1410 -0.3253 -0.5387
  105MOL0     C14089   6.330   1.332  -0.868  0.0744 -0.6456 -0.7062
  105MOL0     C14090   6.220   1.390  -0.795 -0.6123 -0.0931  0.2002
  105MOL0     N14091   5.568   1.356  -0.485 -0.0213 -0.8349 -0.0230
  105MOL0     N14092   5.511   1.300  -0.387 -0.2696 -0.1131 -0.3210
  105MOL0     C14093   4.298   1.437   0.042 -0.1483  0.0528 -0.3118
  105MOL0     C14094   4.165   1.424   0.071 -0.2734  0.5061 -0.2625
  105MOL0     C14095   3.818   1.198   0.285 -0.1180  0.5943 -0.7612
  105MOL0     C14096   3.724   1.259   0.201  0.5452 -0.0517 -0.8766
  105MOL0     C14097   3.590   1.227   0.217  0.8738  0.0399  0.6949
  105MOL0     C14098   3.540   1.145   0.318 -0.4183  0.2361 -0.5127
  105MOL0     O14099   3.413   1.124   0.348 -0.8220  0.7080  0.4057
  105MOL0     C14100   3.318   1.201   0.283 -0.7681  0.3807  1.0678
  105MOL0     C14101   3.189   1.200   0.363  0.1081 -0.7671  0.1978
  105MOL0     C14102   3.068   1.229   0.273 -0.0498  0.4009 -0.7433
  105MOL0     C14103   2.956   1.281   0.352  0.0939  0.2179  1.1532
  105MOL0     C14104   2.882   1.162   0.408  0.5039 -0.5446 -0.6245
  105MOL0     C14105   2.834   1.062   0.462 -0.9617 -0.4268 -0.1575
  105MOL0     C14106   3.636   1.090   0.405  0.5502 -0.3009  0.2458
  105MOL0     C14107   3.773   1.104   0.386 -0.1565 -0.4577 -0.4975
  105MOL0     H14108   4.194   1.345   0.399 -1.7621 -0.4572  0.1993
  105MOL0     H14109   4.424   1.403   0.345  1.8452 -1.7343 -1.6794
  105MOL0     H14110   4.511   1.394  -0.080  0.3427  3.3222 -3.1205
  105MOL0     H14111   4.587   1.543  -0.058 -2.4937  1.4032  3.0589
  105MOL0     H14112   4.713   1.290   0.059  2.3584  1.8026  0.2968
  105MOL0     H14113   4.727   1.319  -0.100 -2.5740 -1.0789 -0.9907
  105MOL0     H14114   4.825   1.565  -0.032  1.3721 -1.2806 -0.0952
  105MOL0     H14115   4.803   1.508   0.129  0.4879  0.1012  0.5155
  105MOL0     H14116   5.024   1.405   0.066 -0.6270  1.3230 -1.0106
  105MOL0     H14117   4.921   1.282  -0.009  0.7540 -0.0420 -0.8001
  105MOL0     H14118   4.907   1.427  -0.216 -1.2167  0.9367  1.1643
  105MOL0     H14119   5.045   1.518  -0.158 -2.3911  1.0596 -2.6745
  105MOL0     H14120   5.129   1.263  -0.108 -0.9211 -0.9230 -0.2714
  105MOL0     H14121   5.021   1.223  -0.231 -0.8384  0.4239  0.0572
  105MOL0     H14122   5.151   1.415  -0.377 -1.6191  4.0807  3.8177
  105MOL0     H14123   5.263   1.435  -0.254 -1.7669  2.2757 -1.5372
  105MOL0     H14124   5.200   1.175  -0.406  0.3383  2.5075 -3.7505
  105MOL0     H14125   5.316   1.178  -0.267 -0.4742 -0.4250 -1.2673
  105MOL0     H14126   5.267   1.350  -0.609  0.3712 -0.1827 -0.2929
  105MOL0     H14127   5.413   1.493  -0.751 -0.7035 -1.5600  1.3639
  105MOL0     H14128   5.537   1.565  -0.649 -3.9408  2.0195 -0.5927
  105MOL0     H14129   5.619   1.480  -0.884 -1.5361  3.6007  1.1222
  105MOL0     H14130   5.603   1.316  -0.808 -0.4280  1.1998 -2.7639
  105MOL0     H14131   5.794   1.341  -0.680  0.9589  0.7840  0.6883
  105MOL0     H14132   5.774   1.513  -0.659  0.7687 -1.8426  2.4273
  105MOL0     H14133   5.851   1.536  -0.903 -1.8765  0.3485  1.4455
  105MOL0     H14134   5.857   1.358  -0.913  1.9233  1.3083 -1.4009
  105MOL0     H14135   6.011   1.443  -1.064  0.1901  1.9102  0.8919
  105MOL0     H14136   6.322   1.396  -1.261 -0.4501 -0.4244 -2.5801
  105MOL0     H14137   6.195   1.276  -1.274  1.2576 -0.8925 -2.7604
  105MOL0     H14138   6.152   1.455  -1.257 -0.4187  0.1119  1.2446
  105MOL0     H14139   6.760   1.126  -1.082  0.1595 -0.7734 -2.3087
  105MOL0     H14140   6.948   1.186  -1.242 -1.2502 -1.6283  0.3080
  105MOL0     H14141   6.942   1.581  -1.430  0.1744 -0.9548 -1.1747
  105MOL0     H14142   7.013   1.609  -1.269  0.3756 -1.7877  0.5764
  105MOL0     H14143   7.164   1.512  -1.513 -0.0463 -0.1968 -0.0294
  105MOL0     H14144   7.155   1.675  -1.461 -0.9579  1.0605  0.5119
  105MOL0     H14145   7.274   1.432  -1.328  3.7716 -0.8386 -2.6456
  105MOL0     H14146   7.279   1.579  -1.225 -2.8389 -2.3081  1.4705
  105MOL0     H14147   7.407   1.570  -1.503  1.0545 -2.6015  0.6577
  105MOL0     H14148   7.424   1.696  -1.381 -0.0634  0.8042  1.3095
  105MOL0     H14149   7.624   1.572  -1.376  0.5247  0.2356  1.8421
  105MOL0     H14150   7.554   1.416  -1.386  2.4906 -0.1684 -0.8165
  105MOL0     H14151   7.462   1.456  -1.129 -0.4787 -0.2567  0.2134
  105MOL0     H14152   7.637   1.471  -1.145 -0.0310  1.9073  2.4533
  105MOL0     H14153   7.470   1.720  -1.176 -0.0063  1.7116  1.6946
  105MOL0     H14154   7.645   1.674  -1.142  1.3433 -0.0440  0.7174
  105MOL0     H14155   7.574   1.759  -0.959  3.2802 -1.3148  0.9016
  105MOL0     H14156   7.586   1.588  -0.923 -0.4458  0.9065  1.4445
  105MOL0     H14157   6.783   1.579  -1.277  3.7655 -0.6234 -2.3303
  105MOL0     H14158   6.611   1.533  -1.155 -0.4029  0.2916 -4.0872
  105MOL0     H14159   6.416   1.293  -0.814  0.2049 -1.5092 -1.5074
  105MOL0     H14160   6.219   1.395  -0.686 -1.4974 -1.1393  0.2523
  105MOL0     H14161   4.320   1.458  -0.063  2.7980 -0.6424  0.0792
  105MOL0     H14162   4.087   1.422  -0.004 -1.4418 -0.6312  0.9303
  105MOL0     H14163   3.761   1.329   0.127  1.2831  2.4073  1.6183
  105MOL0     H14164   3.536   1.282   0.141  0.5508 -2.0135 -0.6198
  105MOL0     H14165   3.346   1.306   0.270  0.7613  0.0897  1.7453
  105MOL0     H14166   3.318   1.168   0.178 -0.5393 -0.5590  1.3536
  105MOL0     H14167   3.196   1.269   0.448 -6.2478  0.3956  0.2619
  105MOL0     H14168   3.183   1.103   0.413  2.1500 -0.5873  0.8866
  105MOL0     H14169   3.040   1.136   0.222  1.0648 -0.8233  0.7964
  105MOL0     H14170   3.099   1.301   0.196  0.9900  3.4914  2.2862
  105MOL0     H14171   2.891   1.347   0.294  3.4222  0.7758 -2.3682
  105MOL0     H14172   2.989   1.331   0.444  0.3186 -0.1060  1.2516
  105MOL0     H14173   2.791   0.977   0.510 -0.7937 -0.1742  0.4438
  105MOL0     H14174   3.599   1.027   0.486  2.7716 -3.1351 -0.7827
  105MOL0     H14175   3.849   1.053   0.444 -2.0261 -3.4619 -0.4755
  106MOL0     O14176   7.403   7.173   2.736  0.0075  0.8478  0.3506
  106MOL0     C14177   7.487   7.094   2.686  0.8563 -0.1498 -0.4798
  106MOL0     O14178   7.485   7.044   2.560 -0.7170 -0.3357 -0.4776
  106MOL0     C14179   7.400   7.094   2.461 -0.0164  0.0352 -0.2270
  106MOL0     C14180   7.358   7.001   2.359 -0.9063  0.0595  0.6491
  106MOL0     C14181   7.270   7.045   2.259 -0.6142 -0.3598  0.5031
  106MOL0     C14182   7.238   7.177   2.247  0.5254 -0.1989 -0.6674
  106MOL0     O14183   7.147   7.218   2.146 -0.1498  0.2269 -0.4181
  106MOL0     C14184   7.078   7.345   2.148 -0.3196  0.1288  0.3268
  106MOL0     C14185   6.968   7.350   2.037 -0.2417  0.3485  0.7792
  106MOL0     C14186   6.994   7.295   1.899 -0.2931  0.4401 -0.4434
  106MOL0     C14187   6.939   7.400   1.789 -0.2959  0.1243  0.3178
  106MOL0     C14188   6.783   7.408   1.801  0.3214  0.1941  0.0214
  106MOL0     C14189   6.724   7.511   1.695 -0.3798  0.7390 -0.1224
  106MOL0     C14190   6.658   7.424   1.582  0.1257  0.4223 -0.3573
  106MOL0     C14191   6.587   7.509   1.488 -0.4060 -0.1665  0.6266
  106MOL0     N14192   6.452   7.551   1.527  0.4200 -0.2423  0.2888
  106MOL0     C14193   6.413   7.679   1.565 -0.3888 -0.5518  0.4423
  106MOL0     C14194   6.278   7.691   1.549  0.0649 -0.2881 -0.5780
  106MOL0     C14195   6.185   7.805   1.561  0.4981  0.1566  0.0053
  106MOL0     C14196   6.257   7.937   1.522 -0.2169 -0.2005 -0.5890
  106MOL0     C14197   6.171   8.057   1.575  0.2492  0.0745  0.7620
  106MOL0     C14198   6.258   8.182   1.561 -0.1028 -0.9396 -0.8025
  106MOL0     O14199   6.278   8.205   1.419  0.3796 -0.5035 -0.0510
  106MOL0     C14200   6.202   8.314   1.375  0.5989 -0.1956  0.0802
  106MOL0     C14201   6.245   8.447   1.399 -0.5969  0.5551 -0.3516
  106MOL0     C14202   6.172   8.558   1.354 -0.3928  1.0080 -1.2446
  106MOL0     C14203   6.230   8.691   1.400 -0.0180 -0.3190  0.0206
  106MOL0     C14204   6.057   8.540   1.279 -0.0753 -0.1396 -0.0445
  106MOL0     C14205   5.970   8.649   1.236 -0.0958  0.2116 -0.6277
  106MOL0     O14206   5.955   8.746   1.342  0.8554  0.1420 -0.2775
  106MOL0     C14207   5.865   8.852   1.327  0.0871  0.1840  0.1800
  106MOL0     C14208   5.729   8.824   1.367 -0.9095  0.1608  0.5692
  106MOL0     C14209   5.631   8.930   1.359  0.6658 -0.6380  0.3356
  106MOL0     C14210   5.666   9.059   1.321  0.1873 -0.2804  1.3654
  106MOL0     O14211   5.562   9.147   1.334 -0.7988 -0.4675  0.1531
  106MOL0     C14212   5.577   9.274   1.262  0.3760 -0.4869 -0.2526
  106MOL0     C14213   5.452   9.358   1.294 -0.0958 -0.1834  0.1836
  106MOL0     C14214   5.486   9.505   1.256  0.2342 -0.4377 -0.0574
  106MOL0     C14215   5.369   9.596   1.237  0.6278 -0.4577 -0.8157
  106MOL0     C14216   5.296   9.570   1.097 -0.0538 -0.6205  0.9046
  106MOL0     C14217   5.175   9.665   1.068  0.2260 -0.1093  0.6172
  106MOL0     C14218   5.098   9.620   0.942 -0.3483  0.0773 -0.0104
  106MOL0     C14219   4.951   9.578   0.963 -0.8236 -0.5479 -0.0733
  106MOL0    Cl14220   4.910   9.465   0.824 -0.3572  0.1975  0.2291
  106MOL0     C14221   5.800   9.081   1.265  0.9117  0.3680 -0.3248
  106MOL0     C14222   5.894   8.981   1.269  0.0576 -0.6998 -0.3324
  106MOL0     O14223   5.919   8.652   1.125  0.1201 -0.4583 -0.0443
  106MOL0     C14224   6.015   8.412   1.255  0.8649  0.5587 -0.2244
  106MOL0     C14225   6.079   8.298   1.301 -0.2217  0.2973 -0.0448
  106MOL0     N14226   6.245   7.570   1.500  0.4302  0.0296  0.0484
  106MOL0     N14227   6.341   7.494   1.480 -0.0676  0.6189  0.2360
  106MOL0     C14228   7.280   7.264   2.340  0.4179  0.0030 -0.5348
  106MOL0     C14229   7.360   7.223   2.445 -0.2183  0.2620  0.4824
  106MOL0     C14230   7.600   7.052   2.778  0.1757  0.5113  0.5544
  106MOL0     C14231   7.699   6.970   2.729  0.4652  0.2939 -0.2180
  106MOL0     C14232   7.808   6.951   2.812  0.1934  0.2012  0.2261
  106MOL0     C14233   7.827   7.011   2.940 -0.0394  0.2064  0.1120
  106MOL0     O14234   7.934   6.989   3.031 -0.6449 -0.0243  0.5652
  106MOL0     C14235   8.018   6.881   3.017  0.2166  0.8348  0.5244
  106MOL0     C14236   8.164   6.911   3.057 -0.6473  0.7547 -0.7067
  106MOL0     C14237   8.235   6.980   2.936  0.5151  0.9074  0.8989
  106MOL0     C14238   8.387   7.009   2.966 -0.0471  0.3814 -0.4672
  106MOL0     C14239   8.395   7.144   3.034 -0.1628  0.5588 -1.0575
  106MOL0     C14240   8.391   7.250   3.092  0.0677  0.1853  0.1683
  106MOL0     C14241   7.723   7.086   2.986 -0.6984 -0.3924 -0.2567
  106MOL0     C14242   7.613   7.111   2.904 -0.5979 -0.4412 -0.0400
  106MOL0     H14243   7.381   6.896   2.349  0.3904  0.5238 -2.2661
  106MOL0     H14244   7.225   6.988   2.179  0.0767 -0.4885  0.1957
  106MOL0     H14245   7.039   7.356   2.250  1.6344 -4.1043  1.7982
  106MOL0     H14246   7.155   7.419   2.124  2.9811 -3.6015 -1.7926
  106MOL0     H14247   6.874   7.308   2.075  0.9963 -2.2362  1.1423
  106MOL0     H14248   6.949   7.457   2.024  2.1933  0.8227  0.6894
  106MOL0     H14249   7.099   7.277   1.875  0.2251  1.1957  1.1089
  106MOL0     H14250   6.932   7.206   1.881 -0.8804  0.3369  1.8329
  106MOL0     H14251   6.974   7.501   1.809 -0.5345  0.1088  0.8167
  106MOL0     H14252   6.983   7.363   1.696  1.6770 -0.2703  1.3507
  106MOL0     H14253   6.737   7.308   1.796  1.0139 -0.3473  2.8354
  106MOL0     H14254   6.754   7.441   1.901 -0.3610  2.1578 -0.7842
  106MOL0     H14255   6.648   7.570   1.747 -3.5234 -3.1289  0.1143
  106MOL0     H14256   6.805   7.572   1.655  0.4885 -0.4351 -0.2007
  106MOL0     H14257   6.736   7.370   1.527 -1.4952 -1.4479 -0.9350
  106MOL0     H14258   6.589   7.342   1.602 -2.0603  1.8778 -1.5347
  106MOL0     H14259   6.582   7.462   1.389  2.0135 -0.7999  0.7531
  106MOL0     H14260   6.643   7.602   1.481  1.3169 -1.0490  1.9691
  106MOL0     H14261   6.479   7.757   1.602 -2.3406  1.3863  0.0138
  106MOL0     H14262   6.108   7.786   1.486 -0.6595 -0.7945  1.3793
  106MOL0     H14263   6.132   7.799   1.656 -1.8653  3.3855 -0.9257
  106MOL0     H14264   6.262   7.939   1.413  0.4345 -2.3961 -0.6325
  106MOL0     H14265   6.359   7.945   1.561 -0.9123  0.9877  1.1469
  106MOL0     H14266   6.140   8.036   1.678 -0.4454 -1.8622  0.2034
  106MOL0     H14267   6.082   8.056   1.511 -0.7564 -3.2603  1.9966
  106MOL0     H14268   6.351   8.172   1.618 -2.2098 -0.6015  2.9847
  106MOL0     H14269   6.201   8.264   1.604 -0.5487 -0.5307 -2.1270
  106MOL0     H14270   6.341   8.456   1.450  1.3003 -0.9639 -3.3309
  106MOL0     H14271   6.209   8.757   1.315  1.5100 -2.9452 -2.5759
  106MOL0     H14272   6.174   8.727   1.487 -0.1248  0.3187 -0.3050
  106MOL0     H14273   6.338   8.680   1.418 -0.2548 -5.1048 -0.1274
  106MOL0     H14274   5.718   8.720   1.397  2.2109 -0.5724 -0.4286
  106MOL0     H14275   5.536   8.909   1.406  0.0136  1.5415  0.1314
  106MOL0     H14276   5.669   9.325   1.293 -1.2071  2.8177 -0.5478
  106MOL0     H14277   5.574   9.258   1.154  0.4056  1.0453 -0.5067
  106MOL0     H14278   5.370   9.307   1.243 -0.0233  0.6919 -0.8419
  106MOL0     H14279   5.433   9.358   1.402 -0.8735  0.1137  0.0552
  106MOL0     H14280   5.548   9.502   1.165  1.9348  4.0949  0.7126
  106MOL0     H14281   5.550   9.540   1.337 -0.4530 -0.7319  0.6121
  106MOL0     H14282   5.304   9.583   1.325  2.2602 -1.7373  0.2494
  106MOL0     H14283   5.406   9.699   1.228  0.5192 -0.5962 -4.0348
  106MOL0     H14284   5.267   9.465   1.084  0.4293 -0.7759  1.0557
  106MOL0     H14285   5.375   9.585   1.022 -0.1695 -1.6898  0.5478
  106MOL0     H14286   5.098   9.668   1.146 -1.4942  2.8635 -1.0461
  106MOL0     H14287   5.195   9.772   1.064 -3.1877  0.6370  0.5292
  106MOL0     H14288   5.152   9.531   0.908  1.8250  0.8568  1.2029
  106MOL0     H14289   5.107   9.696   0.863 -1.9194  0.1155 -0.1881
  106MOL0     H14290   4.891   9.668   0.976 -0.4087 -0.0397 -1.5391
  106MOL0     H14291   4.943   9.521   1.056 -1.9391  0.6605  0.5958
  106MOL0     H14292   5.821   9.182   1.231  2.6481  0.1909  0.1337
  106MOL0     H14293   5.999   8.998   1.245  0.6206  0.0796  2.3413
  106MOL0     H14294   5.920   8.394   1.205  0.9621 -2.3243  0.4696
  106MOL0     H14295   6.041   8.200   1.274  2.6315 -0.8554 -0.2399
  106MOL0     H14296   7.256   7.370   2.335  0.7459  0.0359 -1.7088
  106MOL0     H14297   7.401   7.298   2.513 -0.1344 -0.9585  1.8302
  106MOL0     H14298   7.696   6.927   2.629  1.0913 -2.0977  0.7230
  106MOL0     H14299   7.883   6.878   2.785 -2.6495 -2.0714 -2.1644
  106MOL0     H14300   7.982   6.798   3.079 -0.0067  0.1448 -0.5095
  106MOL0     H14301   8.028   6.845   2.914  0.9873  0.7795  0.6075
  106MOL0     H14302   8.216   6.818   3.081 -0.1663  0.9892 -0.8226
  106MOL0     H14303   8.165   6.967   3.151  0.5064 -1.0013  0.3857
  106MOL0     H14304   8.180   7.074   2.923 -1.9569 -0.4842  0.7241
  106MOL0     H14305   8.214   6.926   2.843  2.0321  0.5742  0.7158
  106MOL0     H14306   8.441   7.019   2.872  3.1500  0.4198  1.2211
  106MOL0     H14307   8.437   6.931   3.024  0.1760  0.6205 -0.3348
  106MOL0     H14308   8.401   7.341   3.148  0.9936  0.2840 -0.1411
  106MOL0     H14309   7.726   7.144   3.078  2.7583 -1.7339  0.6189
  106MOL0     H14310   7.554   7.199   2.927 -0.0964  0.7905 -3.0746
  107MOL0     O14311   5.032   8.936   8.732  0.1781 -0.1247 -0.7729
  107MOL0     C14312   5.082   9.038   8.778 -1.5455  0.3340  0.9971
  107MOL0     O14313   5.056   9.085   8.901 -1.0846 -0.6790  0.0479
  107MOL0     C14314   4.962   9.023   8.980  0.1156 -0.3925  0.1091
  107MOL0     C14315   4.987   9.022   9.119 -0.1805 -0.1586  0.8387
  107MOL0     C14316   4.892   8.981   9.212 -0.1054 -1.4174 -0.3547
  107MOL0     C14317   4.762   8.941   9.173 -0.8571 -0.0543  0.4064
  107MOL0     O14318   4.670   8.888   9.260 -0.0796 -0.2749  0.5486
  107MOL0     C14319   4.697   8.763   9.322  0.2167  0.2840  0.8167
  107MOL0     C14320   4.645   8.761   9.463 -0.0316  0.9362 -0.0726
  107MOL0     C14321   4.725   8.650   9.541 -0.3624 -0.3658 -0.6746
  107MOL0     C14322   4.656   8.623   9.683  0.5137 -0.8753  0.0977
  107MOL0     C14323   4.646   8.752   9.768  0.0092 -0.3182 -0.1137
  107MOL0     C14324   4.594   8.717   9.902  1.3276 -0.5463 -1.1264
  107MOL0     C14325   4.557   8.840   9.997 -0.4050  0.4954  0.0208
  107MOL0     C14326   4.508   8.785  10.128  0.9270 -0.2847 -0.7066
  107MOL0     N14327   4.450   8.897  10.208 -0.4593 -0.0187 -1.3286
  107MOL0     C14328   4.317   8.915  10.230 -0.4534  0.4612 -0.3085
  107MOL0     C14329   4.318   9.037  10.284  0.5758 -1.3347  1.1825
  107MOL0     C14330   4.202   9.118  10.334 -0.4992  0.9190 -1.1253
  107MOL0     C14331   4.128   9.165  10.216  1.0846  0.3424  0.5281
  107MOL0     C14332   3.993   9.230  10.256 -1.3739  0.4638  0.1844
  107MOL0     C14333   3.915   9.179  10.378 -0.1685 -0.0510 -0.0124
  107MOL0     O14334   3.873   9.044  10.360  0.0792 -0.8545  0.5934
  107MOL0     C14335   3.740   9.004  10.373  0.1658 -1.5570 -0.2516
  107MOL0     C14336   3.626   9.091  10.362 -0.3815  0.0844  0.4243
  107MOL0     C14337   3.494   9.031  10.359 -0.4929  0.0826  0.1019
  107MOL0     C14338   3.381   9.126  10.331 -0.4311 -0.2508 -0.6213
  107MOL0     C14339   3.483   8.887  10.376 -0.3054  1.1326 -0.3245
  107MOL0     C14340   3.356   8.807  10.361  1.0222 -0.1467  0.3986
  107MOL0     O14341   3.354   8.676  10.401  0.1233  1.0239  0.0790
  107MOL0     C14342   3.224   8.627  10.408 -0.0716  0.9624  0.3056
  107MOL0     C14343   3.121   8.680  10.487  0.7547  0.1856 -0.0427
  107MOL0     C14344   2.988   8.638  10.488 -0.0291 -0.4948 -0.0052
  107MOL0     C14345   2.954   8.524  10.419  0.0330 -0.3479 -0.7625
  107MOL0     O14346   2.836   8.460  10.433 -0.1677  0.2745  0.0425
  107MOL0     C14347   2.730   8.491  10.341  0.6642  0.2433  0.1275
  107MOL0     C14348   2.600   8.422  10.372  0.3472  0.4984  0.3743
  107MOL0     C14349   2.613   8.284  10.308 -0.0364  0.1123 -0.0980
  107MOL0     C14350   2.481   8.198  10.351 -0.5625  0.0437  0.0892
  107MOL0     C14351   2.469   8.061  10.277 -0.0020  0.3526  0.2408
  107MOL0     C14352   2.345   7.995  10.331 -0.4394  0.6454 -0.5251
  107MOL0     C14353   2.331   7.850  10.285 -0.0284 -0.2725 -0.3547
  107MOL0     C14354   2.252   7.760  10.377 -0.1074 -0.4591  0.7280
  107MOL0    Cl14355   2.237   7.584  10.324  0.1448  0.5558 -0.3100
  107MOL0     C14356   3.051   8.458  10.346  0.0477 -0.2829 -0.0123
  107MOL0     C14357   3.182   8.507  10.340 -0.2788 -0.4062  0.0245
  107MOL0     O14358   3.260   8.874  10.312  0.4392  0.1890  0.4040
  107MOL0     C14359   3.594   8.819  10.417 -0.1277 -0.0804  0.5443
  107MOL0     C14360   3.719   8.872  10.409 -0.1491  1.2422 -0.5740
  107MOL0     N14361   4.448   9.088  10.304 -0.5270 -0.1386 -0.1786
  107MOL0     N14362   4.525   9.007  10.244  0.4019  1.2320 -0.2806
  107MOL0     C14363   4.739   8.927   9.033  0.5207 -0.3031 -0.3841
  107MOL0     C14364   4.836   8.976   8.941 -0.3102 -0.3048  0.6334
  107MOL0     C14365   5.168   9.107   8.676  0.1416  0.1775  0.1455
  107MOL0     C14366   5.238   9.222   8.724  0.3425 -0.2544 -0.4937
  107MOL0     C14367   5.299   9.303   8.628 -0.4975 -0.4174 -0.4367
  107MOL0     C14368   5.308   9.271   8.493  0.3317  0.2921 -0.1836
  107MOL0     O14369   5.372   9.347   8.403 -0.3548  0.0044  0.9803
  107MOL0     C14370   5.309   9.360   8.276 -0.0236  0.8883 -0.0147
  107MOL0     C14371   5.358   9.488   8.211 -0.6820  0.4655  0.4161
  107MOL0     C14372   5.247   9.605   8.216  0.0577  0.3542  0.2614
  107MOL0     C14373   5.192   9.638   8.350 -0.1189  0.3120  0.9426
  107MOL0     C14374   5.149   9.779   8.378 -0.0393  0.3525 -0.0926
  107MOL0     C14375   5.115   9.893   8.397  0.0686  0.3961  0.4529
  107MOL0     C14376   5.249   9.149   8.447  0.5595  0.0955  0.1643
  107MOL0     C14377   5.168   9.066   8.542 -0.9346  0.4725  0.6550
  107MOL0     H14378   5.084   9.044   9.162  0.1292  0.1593 -0.0039
  107MOL0     H14379   4.919   8.988   9.317  0.7120 -2.1748 -0.5073
  107MOL0     H14380   4.637   8.684   9.276  2.2465 -0.9456  0.1764
  107MOL0     H14381   4.804   8.740   9.314  0.4008  0.3494  2.6783
  107MOL0     H14382   4.657   8.862   9.503 -1.3177  1.3707 -0.7387
  107MOL0     H14383   4.539   8.734   9.464 -0.3058  1.9438 -0.4252
  107MOL0     H14384   4.746   8.552   9.499  2.5371  0.4057 -1.2424
  107MOL0     H14385   4.823   8.696   9.557 -0.5835  0.2792 -1.1390
  107MOL0     H14386   4.551   8.595   9.673  0.5511 -0.2821 -2.5162
  107MOL0     H14387   4.716   8.544   9.729  1.0645 -1.6814 -1.9070
  107MOL0     H14388   4.749   8.786   9.780  0.7417 -1.9084 -1.4867
  107MOL0     H14389   4.590   8.828   9.712  0.6836 -1.0532 -1.8475
  107MOL0     H14390   4.518   8.638   9.896  1.1393 -0.2736 -2.7379
  107MOL0     H14391   4.679   8.682   9.962 -0.7411  1.5508  3.5740
  107MOL0     H14392   4.641   8.907  10.015 -1.7026  2.4141 -0.6657
  107MOL0     H14393   4.481   8.901   9.947 -1.3345  1.0252  1.9849
  107MOL0     H14394   4.577   8.720  10.183 -1.9667 -2.1164  1.0494
  107MOL0     H14395   4.426   8.714  10.116  0.9605 -1.0304  2.5411
  107MOL0     H14396   4.234   8.852  10.200 -0.7832  1.4659 -1.5689
  107MOL0     H14397   4.145   9.071  10.415 -0.1546  1.6329 -0.4527
  107MOL0     H14398   4.251   9.202  10.385  0.6033 -0.8541  0.8787
  107MOL0     H14399   4.100   9.082  10.152 -0.1416  1.7684 -0.8803
  107MOL0     H14400   4.190   9.228  10.151  0.0312  0.9191  0.0398
  107MOL0     H14401   3.927   9.224  10.169 -0.4318 -1.7148 -0.4578
  107MOL0     H14402   4.009   9.337  10.267 -2.1132  0.6737 -0.7048
  107MOL0     H14403   3.824   9.240  10.381 -1.1708 -1.0548 -3.9575
  107MOL0     H14404   3.980   9.184  10.466 -0.2010  1.7564 -0.0553
  107MOL0     H14405   3.643   9.192  10.329  0.3534 -0.8028 -2.1036
  107MOL0     H14406   3.416   9.228  10.349 -1.9706  0.1602  0.2586
  107MOL0     H14407   3.338   9.113  10.232 -2.5447  2.2089 -0.1365
  107MOL0     H14408   3.302   9.099  10.402  0.1925  1.2393  0.6932
  107MOL0     H14409   3.142   8.772  10.541 -1.5149  1.1150 -0.6314
  107MOL0     H14410   2.927   8.687  10.563 -0.4843 -0.7290 -0.2181
  107MOL0     H14411   2.722   8.601  10.342  3.6003  0.5634 -1.1625
  107MOL0     H14412   2.764   8.471  10.238 -2.7054  0.3333 -1.1337
  107MOL0     H14413   2.574   8.420  10.478 -1.1550 -1.8328  0.0438
  107MOL0     H14414   2.520   8.475  10.320  2.0207  0.9129 -1.9403
  107MOL0     H14415   2.704   8.230  10.337  1.8638  0.4687 -4.5346
  107MOL0     H14416   2.615   8.286  10.199  1.9081 -0.7050 -0.1115
  107MOL0     H14417   2.480   8.186  10.459 -0.8034  0.2238  0.1089
  107MOL0     H14418   2.398   8.267  10.330 -2.0015 -1.4650  0.6470
  107MOL0     H14419   2.559   8.000  10.291 -0.6609 -0.9476 -1.1020
  107MOL0     H14420   2.444   8.075  10.172 -2.0054 -2.6102  0.2279
  107MOL0     H14421   2.356   7.998  10.440  0.8526 -1.9116 -0.4989
  107MOL0     H14422   2.260   8.049  10.290  0.3471  2.1197 -0.2970
  107MOL0     H14423   2.436   7.820  10.292  0.5074  1.6180  0.3571
  107MOL0     H14424   2.287   7.853  10.185  5.2833 -0.3010 -3.0972
  107MOL0     H14425   2.152   7.802  10.392 -0.5909 -1.3877  0.2434
  107MOL0     H14426   2.307   7.750  10.471  1.3423 -1.6291 -0.1964
  107MOL0     H14427   3.009   8.367  10.304  1.2147 -0.9233  0.1636
  107MOL0     H14428   3.274   8.460  10.304  0.7446  0.4239  1.4375
  107MOL0     H14429   3.596   8.714  10.442 -0.7271 -0.0744  0.6372
  107MOL0     H14430   3.808   8.817  10.439 -1.7786 -2.3568 -1.7064
  107MOL0     H14431   4.646   8.893   8.990 -0.2348 -0.6595  1.4536
  107MOL0     H14432   4.814   8.967   8.835 -2.0169 -3.8392  1.1297
  107MOL0     H14433   5.242   9.246   8.829  1.5150  0.2687 -0.6402
  107MOL0     H14434   5.338   9.402   8.653 -1.1812  0.1156 -1.4224
  107MOL0     H14435   5.329   9.263   8.228 -2.9934  0.6616 -1.0508
  107MOL0     H14436   5.200   9.365   8.286 -0.0487  2.8899 -0.8494
  107MOL0     H14437   5.375   9.469   8.105 -2.3346  2.0292 -0.1843
  107MOL0     H14438   5.453   9.518   8.256 -0.3319 -1.7309  1.2853
  107MOL0     H14439   5.163   9.566   8.159  0.2488 -1.3220  1.0840
  107MOL0     H14440   5.295   9.688   8.162  1.2027 -0.5291 -0.1093
  107MOL0     H14441   5.269   9.606   8.420  0.3155 -3.6201 -1.0611
  107MOL0     H14442   5.111   9.565   8.362  1.1997 -1.5084 -0.5854
  107MOL0     H14443   5.092   9.994   8.423  0.2335  0.8085 -0.8840
  107MOL0     H14444   5.255   9.111   8.345  2.5422 -0.9643  0.6255
  107MOL0     H14445   5.097   8.992   8.507  0.0125 -2.4952  4.4175
  108MOL0     O14446  10.056   3.620   8.361  0.1392 -0.2099 -0.6965
  108MOL0     C14447  10.050   3.502   8.390 -0.4124  0.2432  0.2590
  108MOL0     O14448   9.954   3.433   8.479  0.3384 -0.4458  0.4635
  108MOL0     C14449   9.821   3.481   8.497 -0.1612  0.7777 -0.1981
  108MOL0     C14450   9.746   3.402   8.591  0.6125 -0.0496 -0.3882
  108MOL0     C14451   9.615   3.447   8.629  1.3001 -0.0709 -0.4807
  108MOL0     C14452   9.563   3.567   8.585 -0.7591  0.3199 -0.0741
  108MOL0     O14453   9.439   3.592   8.630 -0.4784  0.2236  0.3010
  108MOL0     C14454   9.341   3.655   8.554 -0.0971  0.3995  0.1921
  108MOL0     C14455   9.204   3.656   8.615 -0.0456  0.7745  1.0098
  108MOL0     C14456   9.145   3.504   8.628 -0.2927  0.2780  0.2406
  108MOL0     C14457   9.200   3.439   8.758  0.2105 -0.0930 -0.5372
  108MOL0     C14458   9.159   3.297   8.751  0.2441 -0.1934  0.1349
  108MOL0     C14459   9.228   3.197   8.664  0.4354  1.3868  0.9819
  108MOL0     C14460   9.186   3.189   8.524  0.0991 -0.4218  0.2459
  108MOL0     C14461   9.209   3.057   8.441 -0.3177 -0.3011  0.4846
  108MOL0     N14462   9.108   3.038   8.335 -0.3301  0.5831 -0.4732
  108MOL0     C14463   9.122   3.083   8.206 -0.1807 -1.2220 -0.1234
  108MOL0     C14464   9.011   3.042   8.153  0.6872  0.3917 -0.2943
  108MOL0     C14465   8.985   3.053   8.006  0.4668 -0.0074 -0.6615
  108MOL0     C14466   8.878   3.156   7.980 -0.6534 -0.6981  0.5389
  108MOL0     C14467   8.738   3.119   8.007 -0.4001 -0.0214  0.6709
  108MOL0     C14468   8.640   3.225   7.933  0.6034 -0.0738 -0.7270
  108MOL0     O14469   8.515   3.221   7.997  0.1008 -0.2896  0.6494
  108MOL0     C14470   8.411   3.168   7.928  0.1098 -0.7748  1.0316
  108MOL0     C14471   8.385   3.027   7.935  0.2192  0.2062  0.0162
  108MOL0     C14472   8.267   2.967   7.883  0.2561  0.1692  0.4230
  108MOL0     C14473   8.251   2.820   7.896 -0.0514 -0.0779  0.5537
  108MOL0     C14474   8.174   3.056   7.823  0.5672 -0.2547  0.2387
  108MOL0     C14475   8.047   3.012   7.753  1.1774 -0.1102 -0.8818
  108MOL0     O14476   8.000   3.086   7.645  0.1846  0.2425  0.0356
  108MOL0     C14477   7.864   3.058   7.605 -0.9515  0.5947  1.8779
  108MOL0     C14478   7.841   3.033   7.471 -0.3479 -0.3364 -0.0227
  108MOL0     C14479   7.714   3.001   7.430 -0.2661  0.6219 -0.0749
  108MOL0     C14480   7.596   3.009   7.518  0.4301  0.2948 -0.7418
  108MOL0     O14481   7.461   3.005   7.480 -0.0289  0.9525 -0.1521
  108MOL0     C14482   7.421   2.924   7.367 -0.8817 -0.7769 -0.1098
  108MOL0     C14483   7.273   2.901   7.368 -0.5500 -0.1260  0.6052
  108MOL0     C14484   7.197   3.025   7.322  0.1741 -0.3439  0.3961
  108MOL0     C14485   7.049   2.999   7.279 -0.0887 -0.5082  0.4577
  108MOL0     C14486   6.960   3.005   7.401  0.0473 -0.3118 -0.0633
  108MOL0     C14487   6.807   2.965   7.368  0.3178 -0.4250  0.0164
  108MOL0     C14488   6.716   3.073   7.310  0.2449  0.5325 -0.6052
  108MOL0     C14489   6.571   3.048   7.363  0.2702  0.0054 -0.2778
  108MOL0    Cl14490   6.550   3.091   7.538  0.0967 -0.2719 -0.0334
  108MOL0     C14491   7.623   3.046   7.652 -0.5075  0.5176  0.1383
  108MOL0     C14492   7.756   3.062   7.690 -0.3555  0.2691  0.1756
  108MOL0     O14493   7.997   2.905   7.790 -1.1435  0.1515 -0.1207
  108MOL0     C14494   8.204   3.195   7.806 -0.2331  0.7556 -0.2327
  108MOL0     C14495   8.321   3.248   7.862  0.5147 -0.6323 -0.2211
  108MOL0     N14496   8.930   2.975   8.235 -0.0721 -0.4830  0.3634
  108MOL0     N14497   8.995   2.966   8.348 -0.4224  0.0064  0.5434
  108MOL0     C14498   9.640   3.642   8.491  0.5581  1.1151  0.3712
  108MOL0     C14499   9.765   3.602   8.448 -0.5228  0.2460  0.0577
  108MOL0     C14500  10.161   3.411   8.363 -0.3415  0.0720 -0.6173
  108MOL0     C14501  10.151   3.270   8.348  0.7570  0.1012  0.8316
  108MOL0     C14502  10.258   3.184   8.303 -0.5486  0.6223  0.1590
  108MOL0     C14503  10.384   3.237   8.273  1.4588  0.5139  0.3366
  108MOL0     O14504  10.490   3.166   8.220  0.8224  0.1002  0.3100
  108MOL0     C14505  10.466   3.025   8.191  1.2057 -0.9484 -0.1966
  108MOL0     C14506  10.404   3.010   8.049  0.4103 -0.4454 -0.0584
  108MOL0     C14507  10.517   3.034   7.948 -0.3855  0.3397 -0.8076
  108MOL0     C14508  10.458   3.003   7.805 -0.0015  0.9040 -1.7188
  108MOL0     C14509  10.484   2.851   7.772 -0.5822 -0.6617  0.0953
  108MOL0     C14510  10.515   2.738   7.754 -0.5261  0.4255 -0.4953
  108MOL0     C14511  10.399   3.375   8.286  1.2316 -0.6183  0.4165
  108MOL0     C14512  10.291   3.462   8.333 -0.6021  0.9095 -0.0732
  108MOL0     H14513   9.789   3.310   8.630  3.6409  2.2487  2.1684
  108MOL0     H14514   9.550   3.399   8.700 -1.2059  2.0494 -1.1913
  108MOL0     H14515   9.371   3.759   8.543 -0.1970  0.2238 -2.1993
  108MOL0     H14516   9.329   3.611   8.455 -2.2351  1.6724 -0.1800
  108MOL0     H14517   9.220   3.693   8.716 -4.0807  0.5486  1.9161
  108MOL0     H14518   9.136   3.724   8.563 -1.4994  1.5268  3.7009
  108MOL0     H14519   9.036   3.510   8.629 -0.2656  1.0098 -0.1030
  108MOL0     H14520   9.174   3.440   8.545  0.3110 -1.4545  1.7272
  108MOL0     H14521   9.309   3.436   8.764  0.1347 -2.4180  1.1541
  108MOL0     H14522   9.173   3.478   8.857  2.1260  0.1244 -0.0630
  108MOL0     H14523   9.177   3.255   8.851 -0.4934 -0.6641  0.0805
  108MOL0     H14524   9.052   3.282   8.739  0.6344 -0.9047 -3.2982
  108MOL0     H14525   9.335   3.217   8.670  1.0978  0.8684 -4.3402
  108MOL0     H14526   9.219   3.095   8.702 -2.6202  0.8062 -0.9628
  108MOL0     H14527   9.086   3.227   8.504  0.4857 -0.6944 -2.6938
  108MOL0     H14528   9.247   3.263   8.470 -0.0944 -0.0707  0.5081
  108MOL0     H14529   9.189   2.970   8.505  1.1652 -0.9544  0.0912
  108MOL0     H14530   9.305   3.053   8.389 -0.6655  1.5446 -0.3980
  108MOL0     H14531   9.207   3.133   8.160  0.2683 -0.1768  1.7414
  108MOL0     H14532   9.081   3.082   7.963 -0.9078  1.5577 -2.9091
  108MOL0     H14533   8.959   2.956   7.963  3.3782 -2.1161  1.8954
  108MOL0     H14534   8.901   3.162   7.873  4.0910 -2.5676  1.1845
  108MOL0     H14535   8.893   3.257   8.019 -2.5630 -0.0646 -0.2396
  108MOL0     H14536   8.717   3.110   8.114  1.6895 -4.5753  0.9143
  108MOL0     H14537   8.710   3.022   7.965  0.3095  1.1794 -2.9543
  108MOL0     H14538   8.631   3.213   7.825 -2.6608  2.6555 -0.9299
  108MOL0     H14539   8.684   3.325   7.943 -0.3141  0.3457 -0.8221
  108MOL0     H14540   8.450   2.955   7.983  0.4520 -0.5116 -1.3444
  108MOL0     H14541   8.160   2.790   7.949 -0.9595 -1.4639 -1.6237
  108MOL0     H14542   8.260   2.756   7.807  0.0326  0.7856 -0.0754
  108MOL0     H14543   8.329   2.768   7.952  1.3837 -0.6184 -1.7865
  108MOL0     H14544   7.925   3.057   7.406  0.9938  1.9158  2.3539
  108MOL0     H14545   7.686   3.002   7.325 -2.7423 -3.5453  0.2812
  108MOL0     H14546   7.456   2.977   7.278 -2.3330 -2.0496 -1.4971
  108MOL0     H14547   7.476   2.830   7.370 -1.7244 -1.2735 -0.1798
  108MOL0     H14548   7.253   2.821   7.297 -0.7457  1.8289 -1.6605
  108MOL0     H14549   7.233   2.887   7.469  1.1572  1.1563  1.5143
  108MOL0     H14550   7.239   3.058   7.227 -2.9082  0.1726 -0.9270
  108MOL0     H14551   7.204   3.111   7.389  0.8887  0.5070 -0.7376
  108MOL0     H14552   7.033   3.093   7.225  1.9553  0.8708  2.0961
  108MOL0     H14553   7.040   2.911   7.214  1.2617  0.8035 -1.6606
  108MOL0     H14554   6.949   3.106   7.442 -0.7570 -1.6095  3.3084
  108MOL0     H14555   7.002   2.943   7.481 -1.2448  1.9659  2.5827
  108MOL0     H14556   6.800   2.882   7.298  0.6944  0.8150 -1.5354
  108MOL0     H14557   6.766   2.931   7.464 -0.9508  1.7130  0.2941
  108MOL0     H14558   6.718   3.060   7.202  0.1468  2.3322 -0.8556
  108MOL0     H14559   6.760   3.172   7.327  0.7678  0.0488  0.9909
  108MOL0     H14560   6.539   2.944   7.360  0.7061 -0.1101 -0.9371
  108MOL0     H14561   6.504   3.102   7.295  1.3690  1.2090 -0.4309
  108MOL0     H14562   7.535   3.074   7.708 -1.0726  0.3839 -0.6646
  108MOL0     H14563   7.778   3.109   7.785  0.7306 -1.2177  0.7154
  108MOL0     H14564   8.140   3.263   7.751 -1.6271  1.1723  1.8015
  108MOL0     H14565   8.330   3.356   7.867 -0.7190 -0.5769  2.0418
  108MOL0     H14566   9.603   3.737   8.453  0.9693  1.2579  0.3280
  108MOL0     H14567   9.824   3.668   8.386  1.1606  3.0871  4.1926
  108MOL0     H14568  10.056   3.219   8.359  0.1289  0.5813 -1.7054
  108MOL0     H14569  10.229   3.080   8.292 -2.0874  0.8892  1.4021
  108MOL0     H14570  10.562   2.974   8.194  0.4911 -2.3779 -0.7586
  108MOL0     H14571  10.401   2.980   8.266  2.1014 -2.1020 -0.0848
  108MOL0     H14572  10.326   3.086   8.035  0.1735 -0.6167  0.3342
  108MOL0     H14573  10.367   2.912   8.020  0.8027 -0.6525  0.1371
  108MOL0     H14574  10.597   2.961   7.961 -0.3240  0.6886  1.0347
  108MOL0     H14575  10.559   3.134   7.964  2.3167 -0.9845  1.0106
  108MOL0     H14576  10.510   3.063   7.730  1.0870  1.1020 -0.8461
  108MOL0     H14577  10.353   3.032   7.800  0.0039  1.1110 -0.8800
  108MOL0     H14578  10.540   2.634   7.761 -2.9938 -0.1977 -0.0443
  108MOL0     H14579  10.496   3.421   8.269  1.0538 -0.3508  0.1062
  108MOL0     H14580  10.314   3.567   8.345  1.0883  0.4398  1.2323
  109MOL0     O14581   2.565  11.105   2.353  0.3980 -0.0126 -0.1133
  109MOL0     C14582   2.518  11.029   2.439  0.4925  0.6207 -0.5030
  109MOL0     O14583   2.584  10.941   2.511  0.0590  0.1365 -0.2015
  109MOL0     C14584   2.717  10.945   2.508 -0.0889 -0.7344 -0.0698
  109MOL0     C14585   2.775  10.911   2.384 -0.0686 -0.7516 -0.6057
  109MOL0     C14586   2.913  10.887   2.387  0.3594 -0.0976  0.9287
  109MOL0     C14587   2.987  10.913   2.503 -0.8178 -0.4166  0.3002
  109MOL0     O14588   3.120  10.899   2.484  0.0431  0.2818  0.8291
  109MOL0     C14589   3.176  10.992   2.393 -0.1918  0.1042  0.4608
  109MOL0     C14590   3.321  10.954   2.358 -0.1998  0.4840 -0.0977
  109MOL0     C14591   3.337  10.827   2.269  0.2089  0.0632 -0.4441
  109MOL0     C14592   3.316  10.867   2.127  0.1476  0.4382  0.3268
  109MOL0     C14593   3.302  10.753   2.033 -0.1166 -0.4132  0.3279
  109MOL0     C14594   3.423  10.671   2.028 -0.9135  0.0735 -0.2972
  109MOL0     C14595   3.422  10.548   1.935  0.6173 -0.2790  0.6910
  109MOL0     C14596   3.448  10.576   1.787 -0.2284  0.1027 -0.4254
  109MOL0     N14597   3.585  10.622   1.751  1.4615 -0.3790 -1.0478
  109MOL0     C14598   3.622  10.751   1.731  0.0036 -0.4363 -0.4364
  109MOL0     C14599   3.740  10.747   1.669 -0.8626  0.1612  0.3592
  109MOL0     C14600   3.815  10.860   1.619  0.0620  0.1504  1.2489
  109MOL0     C14601   3.851  10.969   1.720 -0.5452  0.3956  0.2512
  109MOL0     C14602   3.922  10.921   1.849 -0.3409 -0.0685  1.0109
  109MOL0     C14603   4.046  10.829   1.834  0.4559 -0.1772 -0.0864
  109MOL0     O14604   4.094  10.784   1.966 -0.1949  0.3484  0.5768
  109MOL0     C14605   4.019  10.686   2.020 -0.0238 -0.9927  1.0889
  109MOL0     C14606   3.971  10.576   1.938 -0.3527 -0.1582 -0.5752
  109MOL0     C14607   3.876  10.489   1.996 -0.5820  0.1798  1.0633
  109MOL0     C14608   3.867  10.356   1.924 -0.7572  0.3433  0.4473
  109MOL0     C14609   3.829  10.513   2.128  0.0511 -0.6503  0.0281
  109MOL0     C14610   3.747  10.404   2.196 -0.3385 -0.6897 -0.9827
  109MOL0     O14611   3.676  10.310   2.123  0.5530 -0.1451  0.3308
  109MOL0     C14612   3.606  10.213   2.190  0.6910 -0.4222  0.4479
  109MOL0     C14613   3.487  10.235   2.261  0.5668 -0.7832  0.9236
  109MOL0     C14614   3.428  10.128   2.331  0.0517  0.5112 -0.2636
  109MOL0     C14615   3.479   9.998   2.320 -0.1488  0.3601 -0.6082
  109MOL0     O14616   3.433   9.890   2.385  0.3655 -0.2311  0.4722
  109MOL0     C14617   3.356   9.796   2.314  1.0666  0.1774  0.8227
  109MOL0     C14618   3.329   9.656   2.374  0.2892  1.7038 -0.1954
  109MOL0     C14619   3.446   9.554   2.366 -0.5228  0.1359  0.0497
  109MOL0     C14620   3.577   9.598   2.441  0.1190 -0.1088  0.4273
  109MOL0     C14621   3.687   9.489   2.418 -0.4016  0.0556 -0.3543
  109MOL0     C14622   3.764   9.509   2.280  1.0831  0.6693 -0.8866
  109MOL0     C14623   3.866   9.389   2.264 -0.3301 -0.5736 -0.6854
  109MOL0     C14624   3.981   9.426   2.166  0.0557  0.4722 -0.2115
  109MOL0    Cl14625   3.911   9.488   2.009  0.2109 -0.0738 -0.2283
  109MOL0     C14626   3.600   9.987   2.249 -0.6329  0.6806 -0.3104
  109MOL0     C14627   3.660  10.093   2.180  0.4550 -0.5255  0.5481
  109MOL0     O14628   3.758  10.409   2.319  0.2255 -0.1240  0.3837
  109MOL0     C14629   3.874  10.623   2.202 -0.2827  0.1261  0.5406
  109MOL0     C14630   3.973  10.704   2.143  0.3623  0.5709  0.2040
  109MOL0     N14631   3.784  10.612   1.659  1.0933  0.5517  0.7455
  109MOL0     N14632   3.698  10.542   1.721  0.2725 -0.0039  1.1540
  109MOL0     C14633   2.925  10.956   2.623 -0.1687  0.3206  0.0852
  109MOL0     C14634   2.788  10.971   2.625 -0.2865  0.7263 -0.0819
  109MOL0     C14635   2.372  11.041   2.458  0.0836 -0.5946  0.7912
  109MOL0     C14636   2.295  11.137   2.392  0.5295 -0.1110 -0.0945
  109MOL0     C14637   2.158  11.144   2.403  0.9423  0.4809 -0.0788
  109MOL0     C14638   2.094  11.050   2.483 -0.1935 -1.0454  0.6293
  109MOL0     O14639   1.963  11.027   2.499 -0.8084 -0.2743  0.5365
  109MOL0     C14640   1.870  11.040   2.388 -0.3247  0.3519 -0.0618
  109MOL0     C14641   1.725  11.001   2.427 -0.1099  0.8108  0.3394
  109MOL0     C14642   1.644  11.105   2.490 -0.7571  0.3000  0.0368
  109MOL0     C14643   1.521  11.048   2.564 -0.3598  0.4886 -0.2019
  109MOL0     C14644   1.407  10.994   2.479 -0.1500  0.1576  0.1547
  109MOL0     C14645   1.324  10.960   2.402  1.6291  0.0513  0.2599
  109MOL0     C14646   2.172  10.958   2.556  0.0104  0.0163  0.6860
  109MOL0     C14647   2.312  10.961   2.550 -0.0756  0.1112 -1.6989
  109MOL0     H14648   2.703  10.887   2.306 -1.3019  0.4730  0.1049
  109MOL0     H14649   2.966  10.853   2.298 -1.7397 -0.3628 -0.2814
  109MOL0     H14650   3.132  10.991   2.293  0.8147 -2.1624 -0.0235
  109MOL0     H14651   3.175  11.092   2.437 -0.3331  1.2109 -1.9051
  109MOL0     H14652   3.365  11.039   2.304  0.5517 -0.9480 -1.8440
  109MOL0     H14653   3.382  10.937   2.448 -1.5883 -1.3562  0.5722
  109MOL0     H14654   3.436  10.784   2.283 -0.4528 -1.3941 -0.0797
  109MOL0     H14655   3.269  10.746   2.296  2.4967 -1.5515  0.7525
  109MOL0     H14656   3.220  10.920   2.118 -0.2134 -0.4806 -1.7117
  109MOL0     H14657   3.390  10.936   2.085 -2.3746  2.7027 -0.7354
  109MOL0     H14658   3.214  10.693   2.059 -2.1784  1.4094 -1.8948
  109MOL0     H14659   3.285  10.788   1.930 -2.1060  0.5740  0.9388
  109MOL0     H14660   3.509  10.733   2.004  1.2594 -2.2796  0.8748
  109MOL0     H14661   3.439  10.629   2.128  2.3824 -2.4258 -1.6992
  109MOL0     H14662   3.491  10.470   1.968  3.2802  0.8910 -1.7491
  109MOL0     H14663   3.323  10.502   1.940 -0.2190  1.5268  1.8573
  109MOL0     H14664   3.392  10.668   1.767  0.7618  0.9009  0.3215
  109MOL0     H14665   3.413  10.499   1.718  0.6508  2.6770 -4.0844
  109MOL0     H14666   3.571  10.846   1.746  0.9539  0.0335 -0.1048
  109MOL0     H14667   3.908  10.820   1.577  1.0088 -0.4402  3.7619
  109MOL0     H14668   3.757  10.908   1.539 -1.9609 -0.4978  2.2782
  109MOL0     H14669   3.765  11.035   1.729 -1.4294 -0.7633  0.4702
  109MOL0     H14670   3.924  11.027   1.662 -0.3846 -0.3761 -0.3223
  109MOL0     H14671   3.848  10.865   1.906 -1.5735 -2.2941 -2.4840
  109MOL0     H14672   3.937  11.008   1.914  2.3267 -0.1421  0.6307
  109MOL0     H14673   4.119  10.899   1.792  1.5836 -1.3974 -0.2172
  109MOL0     H14674   4.019  10.752   1.762  0.4088  0.9713 -1.3543
  109MOL0     H14675   4.013  10.555   1.840  2.1859  1.2698  0.1008
  109MOL0     H14676   3.765  10.347   1.886 -1.5920  1.6302  2.2576
  109MOL0     H14677   3.941  10.340   1.844 -0.8181  0.0902  0.4405
  109MOL0     H14678   3.896  10.281   1.998  1.6725  1.3255  0.6124
  109MOL0     H14679   3.453  10.337   2.276 -0.2574 -1.2533  2.4535
  109MOL0     H14680   3.346  10.153   2.397 -0.1145  1.1599 -0.7075
  109MOL0     H14681   3.261   9.845   2.288  0.8704 -1.6648 -2.4154
  109MOL0     H14682   3.421   9.781   2.227  0.4669 -1.0449  0.5733
  109MOL0     H14683   3.302   9.680   2.477  1.3409 -0.3155  0.6266
  109MOL0     H14684   3.242   9.609   2.327 -1.2535  1.6721  2.5491
  109MOL0     H14685   3.481   9.519   2.269  3.7275 -0.0859  1.4743
  109MOL0     H14686   3.413   9.458   2.407 -0.5651 -0.6299 -1.6850
  109MOL0     H14687   3.598   9.700   2.406  1.8658 -0.5076  0.2162
  109MOL0     H14688   3.556   9.606   2.548 -0.5987  0.2966  0.2623
  109MOL0     H14689   3.643   9.389   2.423 -1.8100  0.6431 -0.6637
  109MOL0     H14690   3.752   9.494   2.506 -0.9940  1.2928  0.0327
  109MOL0     H14691   3.696   9.525   2.195  0.3095 -0.2932 -0.4719
  109MOL0     H14692   3.834   9.591   2.294  5.4301 -3.0593  2.1944
  109MOL0     H14693   3.802   9.310   2.223  0.0933 -0.4525 -1.6189
  109MOL0     H14694   3.922   9.352   2.351  2.0075 -0.8772 -2.2359
  109MOL0     H14695   4.028   9.331   2.140  1.2568  1.0396 -0.1699
  109MOL0     H14696   4.051   9.489   2.222  4.0703 -2.3545 -1.6038
  109MOL0     H14697   3.636   9.884   2.251 -1.5817  0.2944  2.9447
  109MOL0     H14698   3.752  10.083   2.123  0.9057  2.4484  0.5745
  109MOL0     H14699   3.853  10.644   2.306  1.7792 -2.2036  1.5307
  109MOL0     H14700   4.005  10.800   2.184 -0.2438  1.4604 -1.2972
  109MOL0     H14701   2.980  10.975   2.715  1.1725  2.9259 -1.1339
  109MOL0     H14702   2.736  10.983   2.720 -0.0286  3.7173 -0.2037
  109MOL0     H14703   2.351  11.207   2.332 -0.0382  1.2659  0.9278
  109MOL0     H14704   2.090  11.210   2.350 -0.0703 -0.3676  0.1205
  109MOL0     H14705   1.870  11.134   2.332  0.7121  0.4068  0.0121
  109MOL0     H14706   1.907  10.968   2.315  0.6342 -0.4715  1.2089
  109MOL0     H14707   1.744  10.917   2.494 -0.7612  0.7033  0.3958
  109MOL0     H14708   1.670  10.963   2.340 -0.6701  3.1505 -0.4012
  109MOL0     H14709   1.621  11.175   2.409 -4.6637 -0.4243  0.3480
  109MOL0     H14710   1.711  11.164   2.553  1.2236  0.0814 -1.7426
  109MOL0     H14711   1.493  11.136   2.622  0.4873  2.4280 -2.5802
  109MOL0     H14712   1.545  10.973   2.641  2.1806  0.7218 -0.6578
  109MOL0     H14713   1.250  10.930   2.331  2.6667  0.8595 -1.2172
  109MOL0     H14714   2.122  10.892   2.626 -0.8570  2.3415  2.3912
  109MOL0     H14715   2.360  10.887   2.613 -2.1690  1.5531  1.8371
  110MOL0     O14716   4.497   9.204   0.078  0.3669  0.8056  0.2373
  110MOL0     C14717   4.576   9.115   0.034  0.0572  0.9217  0.2466
  110MOL0     O14718   4.708   9.131   0.021 -0.2458  1.0089  1.0568
  110MOL0     C14719   4.754   9.268   0.025 -0.4516 -0.2315 -0.8997
  110MOL0     C14720   4.703   9.369  -0.050  0.0792  0.2487  0.0342
  110MOL0     C14721   4.763   9.490  -0.060  0.5482  0.2651  0.2202
  110MOL0     C14722   4.870   9.526   0.016  0.7937 -0.4802  0.0243
  110MOL0     O14723   4.914   9.654   0.031 -0.2565  0.0008 -0.6601
  110MOL0     C14724   5.002   9.686  -0.084 -0.0846  0.9156 -0.0497
  110MOL0     C14725   5.053   9.833  -0.062  0.4146  0.5692 -0.5803
  110MOL0     C14726   5.196   9.857  -0.091  0.0086  0.8567 -0.3302
  110MOL0     C14727   5.246   9.994  -0.046 -0.2720  0.3582  0.3401
  110MOL0     C14728   5.401   9.998  -0.065 -0.3413 -0.4150  0.3305
  110MOL0     C14729   5.465  10.113   0.022 -0.0639  0.7670  0.6205
  110MOL0     C14730   5.615  10.126  -0.024 -0.0269  0.0522  0.5723
  110MOL0     C14731   5.720  10.025   0.042 -0.0570 -0.0590  0.5747
  110MOL0     N14732   5.858  10.070   0.005  0.2207  0.5523 -0.0375
  110MOL0     C14733   5.906  10.066  -0.115 -0.4293 -0.4413 -0.3694
  110MOL0     C14734   6.036  10.117  -0.101 -0.6920  0.4509  0.8774
  110MOL0     C14735   6.121  10.141  -0.230  0.7193  0.0843  0.7352
  110MOL0     C14736   6.234  10.050  -0.248 -0.3811 -0.9002 -0.1926
  110MOL0     C14737   6.338  10.117  -0.344  0.8993 -0.5843  0.4084
  110MOL0     C14738   6.476  10.057  -0.336 -0.5872 -1.0495 -0.0483
  110MOL0     O14739   6.478   9.921  -0.385 -0.3891  1.2147 -0.9809
  110MOL0     C14740   6.442   9.892  -0.519  0.0908 -0.5211  0.6589
  110MOL0     C14741   6.388   9.767  -0.539 -0.0803  1.2722  0.2239
  110MOL0     C14742   6.328   9.725  -0.667  1.3587  0.1811  0.4054
  110MOL0     C14743   6.265   9.587  -0.669  0.2320 -0.1390 -0.4693
  110MOL0     C14744   6.345   9.807  -0.780 -0.0721  0.1022  0.2257
  110MOL0     C14745   6.291   9.785  -0.917 -0.2639  0.0396  0.1136
  110MOL0     O14746   6.319   9.880  -1.008  0.1419 -0.1400 -0.0224
  110MOL0     C14747   6.234   9.898  -1.113 -0.2922  0.2449  0.7693
  110MOL0     C14748   6.112   9.834  -1.128 -0.2235  0.0470 -0.1514
  110MOL0     C14749   6.016   9.883  -1.217  0.0002 -0.4112 -0.1978
  110MOL0     C14750   6.041   9.989  -1.299 -0.0818 -0.1357 -0.0335
  110MOL0     O14751   5.967  10.053  -1.396 -0.1870  0.4252 -0.1076
  110MOL0     C14752   5.878   9.965  -1.464  0.3168 -0.3724  0.7050
  110MOL0     C14753   5.824  10.021  -1.594 -0.5823 -0.3700 -0.6719
  110MOL0     C14754   5.718   9.918  -1.637 -0.0565 -1.3512 -0.2361
  110MOL0     C14755   5.591   9.922  -1.545 -0.4506  0.4058 -1.1074
  110MOL0     C14756   5.479   9.848  -1.616  1.0692 -0.3352 -0.3359
  110MOL0     C14757   5.340   9.872  -1.549  0.3351 -0.0425 -0.4836
  110MOL0     C14758   5.247   9.771  -1.594 -0.4039 -0.0269  0.1792
  110MOL0     C14759   5.101   9.809  -1.579  0.8424 -0.2459  0.2429
  110MOL0    Cl14760   5.010   9.661  -1.558  0.2810 -0.0444 -0.1366
  110MOL0     C14761   6.163  10.056  -1.281 -0.2433 -0.0799  0.0795
  110MOL0     C14762   6.264  10.007  -1.191  0.1357 -0.1314  0.1384
  110MOL0     O14763   6.277   9.664  -0.956  0.0314  0.4761 -0.1400
  110MOL0     C14764   6.413   9.934  -0.753  0.9721 -0.7695 -0.1451
  110MOL0     C14765   6.458   9.973  -0.628  0.0298  0.0934 -0.6108
  110MOL0     N14766   6.073  10.118   0.031  0.4220 -0.4062 -0.2529
  110MOL0     N14767   5.958  10.097   0.094  0.8187 -0.5948 -0.0445
  110MOL0     C14768   4.929   9.423   0.084  0.1074 -0.0560  0.6464
  110MOL0     C14769   4.873   9.298   0.094  0.8720 -0.3038  0.0907
  110MOL0     C14770   4.517   8.980   0.007 -1.4292  0.2184  0.4232
  110MOL0     C14771   4.386   8.955   0.029  0.2146 -0.0510  0.0017
  110MOL0     C14772   4.331   8.825   0.004 -0.2296 -0.4199  0.5605
  110MOL0     C14773   4.416   8.735  -0.067  0.4129 -0.8755 -0.1261
  110MOL0     O14774   4.382   8.603  -0.110 -0.4393 -0.7869 -0.3346
  110MOL0     C14775   4.240   8.583  -0.145 -0.8324  0.3201 -0.9253
  110MOL0     C14776   4.146   8.540  -0.035 -0.8416 -0.4140 -0.3872
  110MOL0     C14777   4.209   8.419   0.047 -0.4610  0.2890 -0.0521
  110MOL0     C14778   4.121   8.373   0.170  0.4939 -0.0804 -0.0225
  110MOL0     C14779   3.981   8.336   0.142  0.6880  0.6693  0.5091
  110MOL0     C14780   3.871   8.284   0.120 -0.1657  0.2128  0.7652
  110MOL0     C14781   4.543   8.771  -0.104  0.2003 -0.8466  0.7599
  110MOL0     C14782   4.601   8.894  -0.061  0.2958  0.9611 -0.7924
  110MOL0     H14783   4.607   9.361  -0.101  0.3397  1.8802 -0.7690
  110MOL0     H14784   4.709   9.564  -0.119 -1.1809 -1.1239 -0.0218
  110MOL0     H14785   5.091   9.623  -0.078 -0.8433 -0.0951  1.0461
  110MOL0     H14786   4.948   9.676  -0.179 -0.7400  3.1361  0.0297
  110MOL0     H14787   5.000   9.890  -0.139 -3.7330 -2.9312 -0.7007
  110MOL0     H14788   5.017   9.859   0.038 -1.6758 -0.6146 -0.9540
  110MOL0     H14789   5.256   9.786  -0.033  0.4600  0.1777 -1.5863
  110MOL0     H14790   5.217   9.834  -0.196 -1.7551 -1.4557 -0.2423
  110MOL0     H14791   5.200  10.072  -0.108  1.4218 -1.1736 -3.0843
  110MOL0     H14792   5.217  10.020   0.056  0.7950  1.0416  0.4794
  110MOL0     H14793   5.459   9.910  -0.037 -1.1989 -1.5536 -1.3310
  110MOL0     H14794   5.424  10.013  -0.171 -0.4279 -1.2039  0.1948
  110MOL0     H14795   5.409  10.206   0.009 -0.6084  0.0660 -3.5471
  110MOL0     H14796   5.465  10.089   0.129 -0.5745 -2.6531 -0.0167
  110MOL0     H14797   5.620  10.112  -0.132 -1.1324 -0.5945  0.5856
  110MOL0     H14798   5.653  10.227  -0.007  0.2536 -0.0072  0.2992
  110MOL0     H14799   5.686   9.930  -0.000  0.8953 -0.2959  0.3183
  110MOL0     H14800   5.718  10.019   0.151 -1.4727 -1.4339  0.5138
  110MOL0     H14801   5.864  10.015  -0.201 -3.1300 -4.6697  3.0375
  110MOL0     H14802   6.047  10.122  -0.308 -0.9063 -1.4329  2.5351
  110MOL0     H14803   6.141  10.248  -0.238 -5.0719  1.5562  1.8261
  110MOL0     H14804   6.208   9.949  -0.279 -1.2795 -1.5740  2.4403
  110MOL0     H14805   6.285  10.040  -0.151 -0.7399  1.2958  0.2873
  110MOL0     H14806   6.335  10.224  -0.323 -1.1000 -0.4593 -0.3322
  110MOL0     H14807   6.299  10.120  -0.446  0.8208  3.5442  0.3772
  110MOL0     H14808   6.524  10.063  -0.239  0.5503 -4.4140 -0.2848
  110MOL0     H14809   6.542  10.111  -0.404  0.7407  0.2083  2.1542
  110MOL0     H14810   6.386   9.698  -0.455 -0.6422  1.0825  0.0620
  110MOL0     H14811   6.323   9.516  -0.728 -1.5881 -1.8059 -0.3387
  110MOL0     H14812   6.264   9.541  -0.569  2.0916 -1.8994 -1.1922
  110MOL0     H14813   6.162   9.588  -0.706 -1.5962  3.0240  3.8016
  110MOL0     H14814   6.084   9.748  -1.068 -1.3257 -2.3124 -3.7036
  110MOL0     H14815   5.919   9.835  -1.217 -1.4657  2.2539  1.8162
  110MOL0     H14816   5.918   9.866  -1.487  0.4466 -0.3650  0.8983
  110MOL0     H14817   5.793   9.962  -1.396 -2.0762  1.0947 -1.9873
  110MOL0     H14818   5.788  10.119  -1.560  0.8917 -0.4306  1.2963
  110MOL0     H14819   5.894  10.033  -1.677  1.7784 -0.4144  1.1978
  110MOL0     H14820   5.753   9.815  -1.637 -1.4286 -1.8356 -0.6052
  110MOL0     H14821   5.696   9.929  -1.743 -1.7622 -3.5170 -0.1844
  110MOL0     H14822   5.613   9.873  -1.450  0.8936 -0.2787 -1.7497
  110MOL0     H14823   5.568  10.026  -1.521  1.4464  0.6015 -0.0139
  110MOL0     H14824   5.504   9.741  -1.609  0.6341 -0.4833 -1.0282
  110MOL0     H14825   5.470   9.864  -1.724  0.8274 -1.4290 -0.4882
  110MOL0     H14826   5.337   9.887  -1.441 -1.0065  5.5887 -0.9825
  110MOL0     H14827   5.311   9.971  -1.586  3.5974  0.9620 -0.6477
  110MOL0     H14828   5.273   9.679  -1.540 -1.3849 -0.9589 -0.8723
  110MOL0     H14829   5.252   9.743  -1.700 -3.1034 -2.9129  0.6506
  110MOL0     H14830   5.069   9.869  -1.664 -0.6655  1.9422  2.2238
  110MOL0     H14831   5.085   9.866  -1.487  0.2504  0.1387 -0.0957
  110MOL0     H14832   6.175  10.152  -1.331  0.3824  0.3380  0.9961
  110MOL0     H14833   6.361  10.054  -1.184 -0.0391  0.2586  0.0158
  110MOL0     H14834   6.428   9.999  -0.839 -0.2210 -0.0607  0.1561
  110MOL0     H14835   6.496  10.074  -0.615  1.6537 -0.6143  0.4641
  110MOL0     H14836   5.022   9.449   0.133 -0.3354 -1.4561  2.3277
  110MOL0     H14837   4.911   9.220   0.158  0.1192 -1.3599 -0.7157
  110MOL0     H14838   4.337   9.034   0.085  1.2078  0.2776  0.4255
  110MOL0     H14839   4.235   8.787   0.037  0.4810  0.4851  3.9784
  110MOL0     H14840   4.197   8.669  -0.197 -1.4491 -0.3778 -1.5901
  110MOL0     H14841   4.243   8.501  -0.216  2.7080 -1.4153  0.9343
  110MOL0     H14842   4.055   8.502  -0.082 -0.3690 -4.1160  1.3124
  110MOL0     H14843   4.129   8.621   0.037 -0.2657  0.1513 -0.8855
  110MOL0     H14844   4.310   8.444   0.083 -0.6448  0.7465  0.1508
  110MOL0     H14845   4.225   8.331  -0.015  2.3536  0.4583  0.2990
  110MOL0     H14846   4.123   8.443   0.254 -0.9664 -1.0950  0.8969
  110MOL0     H14847   4.162   8.280   0.212 -2.1954 -0.9443  0.9224
  110MOL0     H14848   3.791   8.218   0.097  1.4104 -0.7718 -2.5203
  110MOL0     H14849   4.602   8.719  -0.179  1.3419  3.0527 -1.2722
  110MOL0     H14850   4.705   8.916  -0.081  0.1905 -0.5967 -3.6837
  111MOL0     O14851   3.626   2.348  10.259 -0.3897  0.4750  0.2487
  111MOL0     C14852   3.577   2.246  10.207 -0.5588 -0.6466 -0.5566
  111MOL0     O14853   3.641   2.127  10.178 -0.3000 -0.1474  0.2815
  111MOL0     C14854   3.755   2.101  10.253  0.4733  0.5529  0.1917
  111MOL0     C14855   3.872   2.071  10.186  0.9665 -0.5820 -0.1296
  111MOL0     C14856   3.984   2.026  10.255 -0.1700 -0.8338 -0.0691
  111MOL0     C14857   3.984   2.000  10.393 -0.1618 -0.1181  0.7759
  111MOL0     O14858   4.099   1.957  10.452 -0.2621  0.2385 -0.6118
  111MOL0     C14859   4.233   2.003  10.426 -0.2780 -0.2510  0.9498
  111MOL0     C14860   4.290   1.885  10.352  0.0545 -0.3805 -0.6436
  111MOL0     C14861   4.453   1.881  10.383 -0.2100 -0.3781  0.6546
  111MOL0     C14862   4.485   1.835  10.521  0.0612 -0.1287  0.7178
  111MOL0     C14863   4.636   1.810  10.548 -0.7435 -0.9902  0.2647
  111MOL0     C14864   4.729   1.927  10.542 -1.0190 -0.4716  0.2760
  111MOL0     C14865   4.867   1.894  10.622  0.0335 -0.1070 -0.3412
  111MOL0     C14866   4.944   1.759  10.579 -0.2005  0.1083 -0.4217
  111MOL0     N14867   5.065   1.725  10.647 -0.7580 -1.0381 -0.7725
  111MOL0     C14868   5.077   1.713  10.788  1.2052 -0.3355  0.0313
  111MOL0     C14869   5.209   1.711  10.807 -0.6877  0.1584 -0.0583
  111MOL0     C14870   5.282   1.693  10.934 -0.0673 -0.1023 -0.3816
  111MOL0     C14871   5.307   1.818  11.009  0.0156  0.2956  0.6798
  111MOL0     C14872   5.351   1.792  11.154  0.1740 -0.6155  0.4595
  111MOL0     C14873   5.473   1.705  11.172  0.1529  1.0477  0.1553
  111MOL0     O14874   5.596   1.761  11.123 -0.1069 -0.3955  0.0489
  111MOL0     C14875   5.705   1.675  11.111 -0.5413 -0.3431 -0.4180
  111MOL0     C14876   5.792   1.724  11.015  0.3080  0.0377 -0.0961
  111MOL0     C14877   5.908   1.656  10.967 -1.4498 -0.1075 -1.0457
  111MOL0     C14878   6.001   1.728  10.872  0.2942 -0.1173 -0.0849
  111MOL0     C14879   5.947   1.541  11.044 -0.3970  0.5644  0.1609
  111MOL0     C14880   6.075   1.470  11.027  0.3449  0.3281  0.2877
  111MOL0     O14881   6.191   1.523  11.070 -1.2924 -0.3357 -0.7630
  111MOL0     C14882   6.317   1.464  11.038  0.6451 -0.8905 -0.9076
  111MOL0     C14883   6.357   1.327  11.060  0.1839 -0.8397 -0.8476
  111MOL0     C14884   6.474   1.281  10.998  0.0012 -0.6815 -0.8254
  111MOL0     C14885   6.556   1.357  10.918 -0.4017 -0.2548 -0.5679
  111MOL0     O14886   6.663   1.284  10.871 -0.7026 -0.3379 -0.3446
  111MOL0     C14887   6.734   1.346  10.766  0.2856  0.5628 -0.5310
  111MOL0     C14888   6.836   1.239  10.710 -0.6072 -0.1837 -0.1051
  111MOL0     C14889   6.936   1.312  10.623  0.1535  0.0954 -0.3089
  111MOL0     C14890   7.058   1.232  10.606 -0.2890 -0.7603 -0.1164
  111MOL0     C14891   7.168   1.318  10.548 -0.5691  0.2020  0.0928
  111MOL0     C14892   7.266   1.227  10.475 -1.2293  0.3830  0.5942
  111MOL0     C14893   7.204   1.171  10.340  0.5517 -0.1150 -0.2016
  111MOL0     C14894   7.301   1.089  10.255 -0.0515  0.5520  0.5776
  111MOL0    Cl14895   7.215   0.993  10.117 -0.6644 -0.3523  0.0449
  111MOL0     C14896   6.520   1.490  10.896  0.0352  0.1362 -0.4144
  111MOL0     C14897   6.402   1.546  10.955  0.3019  1.0269 -0.5435
  111MOL0     O14898   6.066   1.363  10.960  0.2780 -0.0206  0.5117
  111MOL0     C14899   5.860   1.484  11.133  1.0237 -0.0162  0.0502
  111MOL0     C14900   5.737   1.549  11.163  0.1171  0.1906  0.4862
  111MOL0     N14901   5.273   1.734  10.691 -0.1363  0.5070 -0.4382
  111MOL0     N14902   5.192   1.737  10.595  0.2515 -0.9608  0.3770
  111MOL0     C14903   3.865   2.032  10.464  0.6935  0.3108 -0.4231
  111MOL0     C14904   3.752   2.071  10.396 -0.4458 -0.2527 -0.6023
  111MOL0     C14905   3.445   2.267  10.165  0.2628 -0.7096  1.1113
  111MOL0     C14906   3.366   2.155  10.142  0.2961  0.2839  0.1301
  111MOL0     C14907   3.238   2.183  10.096  0.0831  0.1694  1.2055
  111MOL0     C14908   3.195   2.309  10.054 -0.2639 -0.6633  0.2343
  111MOL0     O14909   3.066   2.313  10.011 -0.7013 -0.4940 -0.3365
  111MOL0     C14910   3.001   2.441  10.025 -0.1288  0.2668 -0.1042
  111MOL0     C14911   2.853   2.411  10.001  0.6348 -0.1488 -0.7014
  111MOL0     C14912   2.768   2.528   9.949  0.6046 -0.4525  0.2638
  111MOL0     C14913   2.784   2.651  10.043 -0.8190  0.0546 -0.1571
  111MOL0     C14914   2.763   2.627  10.188 -0.2942 -0.1016  0.8176
  111MOL0     C14915   2.733   2.593  10.296 -0.2675  0.2947 -0.7045
  111MOL0     C14916   3.286   2.413  10.054  0.9229 -0.5776 -0.3682
  111MOL0     C14917   3.405   2.393  10.122 -0.1791 -0.3233  0.1536
  111MOL0     H14918   3.871   2.083  10.078  0.3254 -0.8985 -0.1574
  111MOL0     H14919   4.069   2.013  10.189  1.2927 -2.2450  1.9467
  111MOL0     H14920   4.245   2.094  10.367  2.4972 -0.6489  0.7664
  111MOL0     H14921   4.288   2.022  10.518 -1.2111  1.1762  1.2463
  111MOL0     H14922   4.255   1.786  10.382  1.7638 -0.9319 -0.3221
  111MOL0     H14923   4.265   1.905  10.247  0.2982  0.1980 -0.5994
  111MOL0     H14924   4.502   1.810  10.316 -0.0610 -0.4614  0.8527
  111MOL0     H14925   4.491   1.981  10.361 -0.7237  0.0933  1.8384
  111MOL0     H14926   4.442   1.891  10.604 -1.5227 -3.6996  2.5415
  111MOL0     H14927   4.431   1.740  10.527 -0.5406 -0.0771 -2.2546
  111MOL0     H14928   4.636   1.779  10.653  1.4138 -0.5541  0.4243
  111MOL0     H14929   4.667   1.721  10.492  0.9078 -1.7827  2.3134
  111MOL0     H14930   4.761   1.950  10.440 -0.8985  0.4305  0.4996
  111MOL0     H14931   4.680   2.017  10.582 -1.7505  0.1765 -1.9422
  111MOL0     H14932   4.932   1.978  10.595  0.0100  0.6037  1.6433
  111MOL0     H14933   4.849   1.896  10.730  1.7539 -1.0725 -0.0036
  111MOL0     H14934   4.976   1.774  10.475 -1.1320 -2.0999 -1.0695
  111MOL0     H14935   4.873   1.676  10.583 -0.8306  0.5378 -1.7663
  111MOL0     H14936   4.991   1.711  10.854  0.5249 -2.0891 -0.8534
  111MOL0     H14937   5.237   1.623  11.005  1.1584 -1.3570 -0.7972
  111MOL0     H14938   5.376   1.642  10.913 -1.2608 -2.7185  0.2146
  111MOL0     H14939   5.227   1.893  11.003 -1.5246 -1.0531  2.8868
  111MOL0     H14940   5.394   1.868  10.966  0.1226 -0.2158  0.3030
  111MOL0     H14941   5.262   1.754  11.206 -2.0608  1.2367 -1.7911
  111MOL0     H14942   5.363   1.891  11.198  0.2557 -0.5137  0.2082
  111MOL0     H14943   5.465   1.610  11.119  5.3407  1.1903 -1.4603
  111MOL0     H14944   5.486   1.700  11.281 -0.6206  1.9876  0.2947
  111MOL0     H14945   5.784   1.824  10.974 -1.1083  0.5044  1.2315
  111MOL0     H14946   6.066   1.792  10.932 -0.5229 -1.3448  2.2622
  111MOL0     H14947   6.048   1.659  10.802  1.8654  0.9319 -0.0961
  111MOL0     H14948   5.946   1.790  10.801  3.1870  0.9330 -1.5568
  111MOL0     H14949   6.291   1.259  11.113 -0.6963 -0.8861 -1.9499
  111MOL0     H14950   6.502   1.175  10.998  0.1891 -0.6330 -0.7300
  111MOL0     H14951   6.666   1.365  10.682 -0.3191 -2.2818 -0.7714
  111MOL0     H14952   6.791   1.437  10.791 -0.7928  1.0321  0.3038
  111MOL0     H14953   6.878   1.193  10.800  0.8833  2.3073  0.5688
  111MOL0     H14954   6.784   1.158  10.659  1.1565 -0.0871 -2.1821
  111MOL0     H14955   6.967   1.403  10.674  0.0311 -0.1060  0.1322
  111MOL0     H14956   6.898   1.340  10.524  0.1591  2.3491  0.2795
  111MOL0     H14957   7.081   1.202  10.709 -0.2793 -0.6101 -0.0753
  111MOL0     H14958   7.043   1.137  10.554  2.6958 -1.3560 -0.0575
  111MOL0     H14959   7.223   1.361  10.632  0.5875  0.9705 -1.0279
  111MOL0     H14960   7.124   1.389  10.477  0.9079  0.8325 -0.2237
  111MOL0     H14961   7.359   1.275  10.441 -1.1063  0.2453  0.7368
  111MOL0     H14962   7.297   1.147  10.542 -2.3414 -0.8422 -0.3111
  111MOL0     H14963   7.157   1.247  10.278 -1.5902  2.0854  3.7300
  111MOL0     H14964   7.135   1.092  10.373  1.8536 -0.5389  1.6972
  111MOL0     H14965   7.362   1.011  10.301 -1.7489 -2.6652 -2.1223
  111MOL0     H14966   7.380   1.147  10.207  1.6378 -1.8926  0.2364
  111MOL0     H14967   6.579   1.554  10.830 -0.7843  2.1129  0.6781
  111MOL0     H14968   6.368   1.646  10.926 -1.9879  0.8484  1.2717
  111MOL0     H14969   5.875   1.386  11.178  1.9369  0.7724  1.4915
  111MOL0     H14970   5.670   1.519  11.243 -0.7614  1.0063  0.0691
  111MOL0     H14971   3.879   2.026  10.571  0.2024 -2.1011 -0.4428
  111MOL0     H14972   3.661   2.074  10.456  1.0216  0.1456  1.7316
  111MOL0     H14973   3.405   2.058  10.171  0.2095 -0.7927 -3.0660
  111MOL0     H14974   3.170   2.098  10.097  0.5810 -0.2297  1.4251
  111MOL0     H14975   3.026   2.507  10.108  3.7426  0.2427 -1.0627
  111MOL0     H14976   3.031   2.495   9.935 -0.8368 -3.6259 -2.9257
  111MOL0     H14977   2.811   2.376  10.096  0.3338 -0.0481 -0.7957
  111MOL0     H14978   2.852   2.322   9.938 -0.2762 -0.3346 -0.4364
  111MOL0     H14979   2.664   2.495   9.943 -0.2922  2.3816 -2.1134
  111MOL0     H14980   2.800   2.552   9.848 -0.1586  1.9877  0.5380
  111MOL0     H14981   2.718   2.732  10.009  0.4857  1.9478  1.5954
  111MOL0     H14982   2.884   2.693  10.036 -0.8899  0.4457  1.0105
  111MOL0     H14983   2.704   2.577  10.398  3.8576  1.4182  0.8515
  111MOL0     H14984   3.259   2.505  10.004 -1.9595 -2.0665 -1.8056
  111MOL0     H14985   3.468   2.481  10.132 -1.0211  0.3862 -0.7011
  112MOL0     O14986   6.351   4.898   1.041 -0.0324 -0.4989  0.0188
  112MOL0     C14987   6.288   4.901   1.148  0.0426  1.2988  1.4953
  112MOL0     O14988   6.225   4.789   1.199 -0.5681  0.1898 -0.1758
  112MOL0     C14989   6.242   4.667   1.147  0.0014 -0.0741 -0.6882
  112MOL0     C14990   6.168   4.638   1.032 -1.4899 -0.7303 -0.5034
  112MOL0     C14991   6.178   4.515   0.970  0.6909  0.3552  0.0122
  112MOL0     C14992   6.266   4.415   1.020 -0.1490 -0.3328 -0.1707
  112MOL0     O14993   6.266   4.298   0.950  0.4006  0.4645 -0.5787
  112MOL0     C14994   6.331   4.179   1.000 -0.1973  0.0616  0.8790
  112MOL0     C14995   6.344   4.078   0.886 -0.0908 -0.1606 -0.1443
  112MOL0     C14996   6.206   4.032   0.831  1.0877 -0.1397  0.2427
  112MOL0     C14997   6.123   3.960   0.937  0.0711 -0.4693  0.4433
  112MOL0     C14998   5.998   3.904   0.876  0.5650 -1.1401  0.7049
  112MOL0     C14999   5.896   3.870   0.990 -0.5218 -0.1555  0.4619
  112MOL0     C15000   5.766   3.797   0.952 -0.3075 -0.4063 -0.0882
  112MOL0     C15001   5.670   3.785   1.073  0.7172  0.8148  0.1036
  112MOL0     N15002   5.542   3.729   1.013  0.4178  0.7956 -0.2660
  112MOL0     C15003   5.425   3.715   1.083  0.7854 -0.1506  0.8058
  112MOL0     C15004   5.332   3.691   0.989  0.6988  0.3412 -0.3733
  112MOL0     C15005   5.182   3.688   1.006  0.1683 -0.3685  0.2466
  112MOL0     C15006   5.123   3.829   0.966 -0.6457 -0.7897  0.3612
  112MOL0     C15007   4.993   3.843   0.886 -0.0820  0.9693 -0.0388
  112MOL0     C15008   4.863   3.833   0.972 -1.4718  0.3341 -0.0187
  112MOL0     O15009   4.844   3.959   1.039  0.2252  1.0244  0.3153
  112MOL0     C15010   4.735   3.965   1.131 -0.1865 -0.3470  1.3719
  112MOL0     C15011   4.631   3.874   1.152  0.7751 -0.3037 -0.7871
  112MOL0     C15012   4.537   3.898   1.255  0.4785 -0.8255  0.0785
  112MOL0     C15013   4.429   3.790   1.254  0.1518 -0.3309  1.2347
  112MOL0     C15014   4.541   4.011   1.342  0.1411 -0.1933 -0.0374
  112MOL0     C15015   4.447   4.051   1.455  1.2038  0.2416  0.9338
  112MOL0     O15016   4.471   4.172   1.503 -0.0961  1.0250  0.5696
  112MOL0     C15017   4.394   4.222   1.602  0.0826 -0.6208 -0.5549
  112MOL0     C15018   4.448   4.235   1.731  0.4007 -0.7425 -0.9425
  112MOL0     C15019   4.358   4.264   1.843 -0.2273  0.1090  0.7860
  112MOL0     C15020   4.221   4.290   1.821  0.4599 -0.3363 -0.2706
  112MOL0     O15021   4.129   4.340   1.914  0.0379  0.0451  0.0788
  112MOL0     C15022   4.164   4.310   2.057 -0.0160  0.0612 -0.2459
  112MOL0     C15023   4.150   4.162   2.081 -0.8284 -0.3837  1.9688
  112MOL0     C15024   4.149   4.131   2.232  0.5785 -0.1669 -0.4410
  112MOL0     C15025   4.127   3.982   2.255  1.0537  0.1177 -0.0323
  112MOL0     C15026   4.096   3.953   2.404 -0.8318 -1.1243 -0.4797
  112MOL0     C15027   4.086   3.801   2.435 -0.5546 -0.2264 -0.4204
  112MOL0     C15028   3.953   3.741   2.400  0.1533  0.5791 -0.2977
  112MOL0     C15029   3.943   3.616   2.314 -0.1113  0.1697 -0.1946
  112MOL0    Cl15030   4.042   3.629   2.163 -0.2279  0.0234 -0.0975
  112MOL0     C15031   4.183   4.297   1.687  0.6232  0.1176 -0.5026
  112MOL0     C15032   4.261   4.253   1.580 -0.9551 -0.3412 -0.8007
  112MOL0     O15033   4.342   3.983   1.481 -0.9723  0.5911  0.1694
  112MOL0     C15034   4.648   4.100   1.322 -0.1438  0.3593  0.3967
  112MOL0     C15035   4.746   4.077   1.217  0.8834 -0.4369  0.7251
  112MOL0     N15036   5.396   3.670   0.866 -0.2760  0.0297  0.2412
  112MOL0     N15037   5.522   3.679   0.885  0.0566 -0.1298 -0.0573
  112MOL0     C15038   6.326   4.441   1.145  0.8401  0.0883 -0.1204
  112MOL0     C15039   6.311   4.563   1.205 -0.2419 -0.3982 -0.7455
  112MOL0     C15040   6.265   5.034   1.203  0.0730 -0.4709 -0.3167
  112MOL0     C15041   6.192   5.058   1.321  0.3914 -0.7218  0.1935
  112MOL0     C15042   6.169   5.192   1.363 -0.1113 -0.2358  0.9149
  112MOL0     C15043   6.240   5.297   1.304  0.2771  0.9019 -0.5529
  112MOL0     O15044   6.233   5.431   1.340  0.1716 -0.0781 -0.4161
  112MOL0     C15045   6.142   5.472   1.446 -0.3511 -0.6074  0.4255
  112MOL0     C15046   6.191   5.610   1.481  0.4094  1.3221  0.2060
  112MOL0     C15047   6.166   5.721   1.385  0.9398 -0.6612 -0.5031
  112MOL0     C15048   6.276   5.736   1.280  0.4726 -0.6325 -0.3975
  112MOL0     C15049   6.204   5.756   1.157 -0.0263 -0.4078  0.1557
  112MOL0     C15050   6.141   5.790   1.060  0.5006  0.9038  0.8490
  112MOL0     C15051   6.332   5.271   1.197 -0.2389  0.5499 -0.2343
  112MOL0     C15052   6.337   5.143   1.154 -0.2576  0.6613 -0.3004
  112MOL0     H15053   6.107   4.712   0.981 -1.3405 -0.7882 -0.7657
  112MOL0     H15054   6.137   4.512   0.870  0.6482 -0.1245  0.0444
  112MOL0     H15055   6.434   4.208   1.022  0.3440  1.2587 -2.5892
  112MOL0     H15056   6.275   4.141   1.086  0.0018  1.0860  1.4817
  112MOL0     H15057   6.415   4.115   0.812  0.5502 -2.2910 -0.6596
  112MOL0     H15058   6.394   3.991   0.928 -2.0160 -0.8885  0.7759
  112MOL0     H15059   6.149   4.117   0.793  0.0955  0.6544  3.2424
  112MOL0     H15060   6.220   3.961   0.749 -1.4974  1.0797 -1.3937
  112MOL0     H15061   6.177   3.877   0.982 -2.5826 -1.3497  2.2737
  112MOL0     H15062   6.087   4.025   1.018 -2.3737 -2.8896  1.4789
  112MOL0     H15063   5.953   3.983   0.816  1.4661 -2.2749 -1.5816
  112MOL0     H15064   6.016   3.822   0.806  1.8608  1.7658 -2.6259
  112MOL0     H15065   5.952   3.809   1.062  3.0218  0.9064 -1.2165
  112MOL0     H15066   5.875   3.964   1.042 -0.1930  0.5939 -0.7350
  112MOL0     H15067   5.715   3.857   0.877 -1.5932 -1.3306  0.0069
  112MOL0     H15068   5.785   3.698   0.910 -0.0085 -0.8132  0.9743
  112MOL0     H15069   5.652   3.885   1.115 -3.5625 -0.9830  3.3228
  112MOL0     H15070   5.710   3.726   1.156 -3.2874 -2.7419 -0.1604
  112MOL0     H15071   5.405   3.734   1.188 -3.4037 -0.0131  0.1332
  112MOL0     H15072   5.140   3.609   0.942  1.8167 -0.1628 -1.1361
  112MOL0     H15073   5.167   3.678   1.114 -0.9809 -1.9735 -0.0097
  112MOL0     H15074   5.192   3.869   0.891 -1.2342  0.0072  0.2336
  112MOL0     H15075   5.116   3.893   1.056  0.9424  0.1779 -0.1593
  112MOL0     H15076   4.992   3.771   0.804  1.1972 -3.7553  3.6275
  112MOL0     H15077   4.989   3.940   0.836  0.9318  3.0835  3.6507
  112MOL0     H15078   4.857   3.756   1.049 -0.0613  0.3112  0.0874
  112MOL0     H15079   4.781   3.801   0.907 -2.3687  1.8068  0.3252
  112MOL0     H15080   4.619   3.795   1.079 -0.4680 -4.2109  3.1757
  112MOL0     H15081   4.353   3.803   1.332  1.3823 -0.0237  2.4324
  112MOL0     H15082   4.387   3.805   1.154  0.7287  1.6342  1.2318
  112MOL0     H15083   4.481   3.694   1.253  3.5081  1.2693 -1.6638
  112MOL0     H15084   4.553   4.215   1.751  0.1649 -0.6190  0.5828
  112MOL0     H15085   4.410   4.277   1.938 -1.4271 -0.1737  1.4927
  112MOL0     H15086   4.262   4.354   2.080 -1.7942  2.7979  3.0728
  112MOL0     H15087   4.092   4.367   2.116 -2.5344 -3.3263  0.2152
  112MOL0     H15088   4.067   4.126   2.019  0.6458  1.4286 -1.3324
  112MOL0     H15089   4.238   4.109   2.044  0.0693  2.3200 -0.1371
  112MOL0     H15090   4.068   4.184   2.283  2.3508  1.0984  1.2013
  112MOL0     H15091   4.243   4.160   2.278 -0.6590 -1.5151  3.2717
  112MOL0     H15092   4.039   3.954   2.198  0.1543 -1.5941  2.0463
  112MOL0     H15093   4.214   3.926   2.223  1.6905  0.5724  0.8375
  112MOL0     H15094   4.002   4.002   2.434 -0.9430 -0.7521 -1.3990
  112MOL0     H15095   4.186   3.991   2.453 -0.9546  0.7996 -1.6246
  112MOL0     H15096   4.169   3.759   2.377 -0.8441 -1.2744 -0.1109
  112MOL0     H15097   4.103   3.791   2.543  1.3615 -1.7040 -0.8015
  112MOL0     H15098   3.900   3.817   2.342  0.1182  1.0686  0.3627
  112MOL0     H15099   3.908   3.731   2.499  1.3293 -2.1690  0.0648
  112MOL0     H15100   3.842   3.581   2.293 -0.4635 -1.0481  2.9585
  112MOL0     H15101   3.979   3.532   2.374 -2.2328 -0.6678 -0.0177
  112MOL0     H15102   4.082   4.329   1.665 -0.5386 -0.5160  3.1382
  112MOL0     H15103   4.216   4.262   1.481 -0.6630  0.7994 -0.8390
  112MOL0     H15104   4.656   4.198   1.367  0.6777  1.2993 -1.7041
  112MOL0     H15105   4.818   4.156   1.199 -0.4549  1.4729  3.1785
  112MOL0     H15106   6.389   4.369   1.196 -0.8113 -3.1179 -2.2481
  112MOL0     H15107   6.345   4.599   1.302  0.7951  1.6538 -1.8128
  112MOL0     H15108   6.127   4.980   1.362  1.0089 -2.6128 -2.1889
  112MOL0     H15109   6.097   5.211   1.441  0.5258 -0.7199  1.6411
  112MOL0     H15110   6.036   5.471   1.422 -0.4423 -3.6892  0.5354
  112MOL0     H15111   6.150   5.412   1.537  1.2956  0.7708  1.2564
  112MOL0     H15112   6.295   5.613   1.517 -0.2245  0.6035  2.2554
  112MOL0     H15113   6.130   5.615   1.572  0.0132  0.1362  0.0237
  112MOL0     H15114   6.162   5.812   1.445 -2.6502 -0.4028 -0.8890
  112MOL0     H15115   6.065   5.719   1.342  0.3705 -1.9776  0.7983
  112MOL0     H15116   6.340   5.648   1.267  4.1157  1.8557 -0.8457
  112MOL0     H15117   6.347   5.818   1.301 -0.2842  1.1414 -4.0398
  112MOL0     H15118   6.091   5.819   0.970  1.8745  2.3633  0.4995
  112MOL0     H15119   6.395   5.346   1.150  0.0856  1.0296  0.9278
  112MOL0     H15120   6.404   5.125   1.071 -0.6735 -4.6107  0.1884
  113MOL0     O15121   5.776   1.495   5.581 -0.0455  0.0563 -0.2385
  113MOL0     C15122   5.726   1.596   5.622 -0.5942  0.0446  1.2615
  113MOL0     O15123   5.765   1.660   5.735  0.1440  0.1041 -0.7977
  113MOL0     C15124   5.877   1.621   5.802 -0.0411 -0.2119  0.1733
  113MOL0     C15125   6.000   1.659   5.746  0.1654  0.0388 -0.3274
  113MOL0     C15126   6.122   1.611   5.791 -0.7670  0.1933  0.0548
  113MOL0     C15127   6.127   1.526   5.907 -0.2139 -0.7701  1.1395
  113MOL0     O15128   6.249   1.491   5.941 -0.6599  0.3368  0.0860
  113MOL0     C15129   6.250   1.364   6.004 -0.7473 -0.1854 -0.2816
  113MOL0     C15130   6.399   1.326   5.987  0.9208 -0.8330  0.7330
  113MOL0     C15131   6.497   1.427   6.055  0.0391  0.5918  0.1077
  113MOL0     C15132   6.643   1.379   6.056 -0.1593  0.6641 -0.0858
  113MOL0     C15133   6.750   1.479   6.119 -0.6418 -0.8732  0.1075
  113MOL0     C15134   6.737   1.481   6.273 -0.1940  0.2364  0.3542
  113MOL0     C15135   6.861   1.532   6.338  0.5393 -0.7936  0.7851
  113MOL0     C15136   6.877   1.487   6.479  0.1394  0.3240  0.8279
  113MOL0     N15137   6.985   1.555   6.539 -0.4042 -0.6566 -0.5469
  113MOL0     C15138   7.103   1.511   6.587 -0.5097  0.5221 -0.6853
  113MOL0     C15139   7.173   1.610   6.627  0.3521  0.7153 -0.4083
  113MOL0     C15140   7.310   1.612   6.685 -1.1534 -0.2939 -0.5279
  113MOL0     C15141   7.418   1.657   6.585  0.1345  0.1928 -0.3794
  113MOL0     C15142   7.564   1.643   6.632 -0.7950  0.1642 -0.0178
  113MOL0     C15143   7.594   1.714   6.761 -0.2655  0.1212  0.1857
  113MOL0     O15144   7.561   1.853   6.747  0.7426 -0.1385 -0.6255
  113MOL0     C15145   7.655   1.937   6.692 -0.3132 -0.3778  0.3119
  113MOL0     C15146   7.786   1.917   6.643  0.6560 -0.3691  0.7621
  113MOL0     C15147   7.864   2.023   6.585 -0.3529  1.1218 -0.2492
  113MOL0     C15148   8.001   1.974   6.552  0.0673  0.0731  0.1935
  113MOL0     C15149   7.811   2.148   6.585  0.3466  0.5753 -0.0893
  113MOL0     C15150   7.885   2.273   6.538  0.8594  0.0278  0.5293
  113MOL0     O15151   7.818   2.388   6.530  0.7054 -0.9600  0.0169
  113MOL0     C15152   7.858   2.493   6.452  0.7678 -0.4607 -0.2663
  113MOL0     C15153   7.798   2.517   6.330 -0.0577  0.9555 -0.5411
  113MOL0     C15154   7.836   2.627   6.252 -0.5179 -0.5188 -0.5264
  113MOL0     C15155   7.934   2.717   6.298 -0.2700 -0.8078  0.0901
  113MOL0     O15156   7.963   2.824   6.220 -0.1063 -0.1621 -0.4818
  113MOL0     C15157   8.089   2.818   6.138  0.6194  0.4749 -0.0466
  113MOL0     C15158   8.132   2.961   6.103  0.4616 -0.5810 -0.0372
  113MOL0     C15159   8.201   2.983   5.967  0.0039 -0.4629 -0.1211
  113MOL0     C15160   8.094   3.008   5.852  0.2745  1.2674 -0.2939
  113MOL0     C15161   8.139   3.060   5.717 -0.1956 -0.3344  0.6169
  113MOL0     C15162   8.209   2.944   5.644 -0.5608  0.4884  0.1345
  113MOL0     C15163   8.114   2.845   5.569 -0.0700  0.6056  0.8526
  113MOL0     C15164   8.171   2.768   5.443 -0.5247 -1.0583  0.2759
  113MOL0    Cl15165   8.076   2.611   5.427 -0.0928  0.0624 -0.0799
  113MOL0     C15166   8.000   2.681   6.414  0.5153 -0.5961 -0.4967
  113MOL0     C15167   7.967   2.569   6.488  0.3699  0.4075 -0.7753
  113MOL0     O15168   8.000   2.250   6.498  0.2383  0.0401  0.2090
  113MOL0     C15169   7.681   2.169   6.626  0.3348 -0.0437 -0.0836
  113MOL0     C15170   7.601   2.069   6.680 -1.3703  0.2895 -0.2653
  113MOL0     N15171   7.087   1.721   6.616 -0.2413  0.8102 -0.1473
  113MOL0     N15172   6.983   1.688   6.562  0.0986  0.0092 -0.1852
  113MOL0     C15173   6.003   1.493   5.973 -0.0519 -1.2805 -0.6737
  113MOL0     C15174   5.876   1.535   5.916  0.4412  0.1114 -0.4102
  113MOL0     C15175   5.623   1.655   5.543  0.0360 -0.7295 -0.0982
  113MOL0     C15176   5.558   1.600   5.432  0.0590 -0.1910  0.7419
  113MOL0     C15177   5.479   1.663   5.350  0.0047 -0.1001  0.5637
  113MOL0     C15178   5.453   1.797   5.364 -0.2799  0.3404  0.0697
  113MOL0     O15179   5.352   1.859   5.298 -0.1468 -1.0055 -0.0247
  113MOL0     C15180   5.219   1.822   5.330 -0.7290  0.2718 -0.4462
  113MOL0     C15181   5.132   1.938   5.390 -0.6596  0.3275  0.5891
  113MOL0     C15182   4.985   1.885   5.401  0.6736 -0.5193 -0.0610
  113MOL0     C15183   4.871   1.994   5.408 -0.3354  0.0903  0.0984
  113MOL0     C15184   4.833   2.032   5.268 -0.0123  0.7357  0.3690
  113MOL0     C15185   4.791   2.072   5.161 -0.5826 -0.5266 -0.1189
  113MOL0     C15186   5.521   1.863   5.470 -0.1427 -0.6434 -0.4498
  113MOL0     C15187   5.605   1.796   5.555  0.2158  0.6183  0.1572
  113MOL0     H15188   6.014   1.734   5.670 -0.1007  0.9430  0.4912
  113MOL0     H15189   6.206   1.647   5.734 -0.4970 -0.5380 -0.0247
  113MOL0     H15190   6.213   1.370   6.107  1.3023 -1.7304  0.6309
  113MOL0     H15191   6.201   1.289   5.942 -0.2681  2.3595 -4.0484
  113MOL0     H15192   6.416   1.223   6.019 -0.7928 -1.1839  0.6351
  113MOL0     H15193   6.409   1.324   5.878 -1.3852 -0.8473  0.4643
  113MOL0     H15194   6.503   1.524   6.004 -0.8859 -0.6308 -2.5603
  113MOL0     H15195   6.469   1.454   6.157  0.9782 -2.4910  1.2928
  113MOL0     H15196   6.643   1.280   6.103 -0.6849 -0.4098 -2.2325
  113MOL0     H15197   6.673   1.344   5.957 -2.1664 -1.0201 -0.1776
  113MOL0     H15198   6.852   1.460   6.084 -0.1017  1.2132  0.4329
  113MOL0     H15199   6.734   1.584   6.091 -0.4360 -0.9982 -0.4947
  113MOL0     H15200   6.649   1.539   6.303  0.5765  0.5565  2.1949
  113MOL0     H15201   6.724   1.380   6.313 -0.0300 -0.6497 -1.7118
  113MOL0     H15202   6.935   1.489   6.269 -1.2120  0.0892 -1.7649
  113MOL0     H15203   6.845   1.639   6.325 -3.6741 -1.5159 -2.0504
  113MOL0     H15204   6.890   1.379   6.490  1.2473  0.5459  2.0044
  113MOL0     H15205   6.781   1.507   6.529 -0.5481 -0.5828 -0.0882
  113MOL0     H15206   7.135   1.408   6.585  3.0545  1.5241 -0.8516
  113MOL0     H15207   7.309   1.677   6.773 -0.0994 -0.9632 -0.0014
  113MOL0     H15208   7.345   1.520   6.732 -2.5839  1.3220  4.2916
  113MOL0     H15209   7.404   1.758   6.545  1.2075  0.4524 -0.1257
  113MOL0     H15210   7.417   1.581   6.507  0.4744  0.7200 -0.9093
  113MOL0     H15211   7.633   1.674   6.552 -0.4658 -1.9639 -0.6137
  113MOL0     H15212   7.576   1.535   6.646  0.9222  0.3859  0.4623
  113MOL0     H15213   7.699   1.713   6.790  0.5770  1.2119 -2.5369
  113MOL0     H15214   7.534   1.664   6.837  0.0823  2.4655  2.1399
  113MOL0     H15215   7.831   1.824   6.676  0.2021 -0.7615  0.2965
  113MOL0     H15216   8.021   2.006   6.450 -1.4743  0.7786  0.0904
  113MOL0     H15217   8.074   2.015   6.623  0.6217  1.7222 -1.2695
  113MOL0     H15218   8.005   1.864   6.556  2.8255  0.1304  2.5304
  113MOL0     H15219   7.728   2.447   6.286 -1.2034  2.3654 -1.0674
  113MOL0     H15220   7.779   2.646   6.162  0.6348  0.6763 -1.0376
  113MOL0     H15221   8.167   2.764   6.192 -0.1568 -1.6640 -0.9167
  113MOL0     H15222   8.071   2.761   6.045  5.0172 -0.8182 -0.3039
  113MOL0     H15223   8.053   3.030   6.138 -0.8305 -1.1613 -1.6897
  113MOL0     H15224   8.212   2.980   6.176  0.6992  3.2977 -1.0808
  113MOL0     H15225   8.256   2.890   5.951  1.8097  0.5062  0.2250
  113MOL0     H15226   8.269   3.069   5.959  0.5164 -0.9182 -0.7535
  113MOL0     H15227   8.027   2.924   5.836 -2.3259  2.9537  1.1143
  113MOL0     H15228   8.023   3.081   5.893 -0.5170 -0.6680  1.9670
  113MOL0     H15229   8.201   3.150   5.717 -1.2807  0.5295 -1.9880
  113MOL0     H15230   8.055   3.103   5.660  2.6120  1.7488 -2.3327
  113MOL0     H15231   8.275   2.993   5.572 -1.7790  0.4307 -1.0527
  113MOL0     H15232   8.275   2.889   5.712  1.8948  0.8522 -1.8087
  113MOL0     H15233   8.023   2.896   5.535 -1.3791 -1.6846  0.7806
  113MOL0     H15234   8.084   2.767   5.639  2.1743 -0.5358  0.6229
  113MOL0     H15235   8.276   2.743   5.459 -1.0696 -3.3609  0.6109
  113MOL0     H15236   8.172   2.832   5.354  1.4330 -1.2546  0.1041
  113MOL0     H15237   8.072   2.739   6.470 -0.1510  1.0356 -1.2511
  113MOL0     H15238   8.024   2.545   6.577  3.7213  0.0140 -2.8520
  113MOL0     H15239   7.635   2.268   6.615 -0.9574 -0.3830  1.7657
  113MOL0     H15240   7.500   2.095   6.711 -1.5522 -0.2934 -0.3421
  113MOL0     H15241   6.000   1.443   6.069 -0.0576  2.4434  1.4258
  113MOL0     H15242   5.784   1.503   5.964 -0.3873 -3.4112 -3.8515
  113MOL0     H15243   5.584   1.495   5.421 -1.3944 -0.5118  0.1873
  113MOL0     H15244   5.446   1.601   5.267 -0.2284 -0.6022  1.0193
  113MOL0     H15245   5.171   1.774   5.245 -2.2160  0.6876  0.1318
  113MOL0     H15246   5.217   1.749   5.411  0.2373 -1.6744 -2.0895
  113MOL0     H15247   5.140   2.027   5.327 -1.3946  0.9163  1.3004
  113MOL0     H15248   5.159   1.974   5.490 -0.6556 -1.9304  1.4509
  113MOL0     H15249   4.980   1.848   5.504  0.4652  0.0202  0.1257
  113MOL0     H15250   4.949   1.810   5.331  2.4449 -0.2571 -1.3020
  113MOL0     H15251   4.895   2.078   5.474 -4.7004  1.9204 -0.2837
  113MOL0     H15252   4.780   1.951   5.451 -0.5151  0.9566  0.6106
  113MOL0     H15253   4.743   2.128   5.083 -0.1141  1.5116  0.9707
  113MOL0     H15254   5.510   1.970   5.483 -0.7235 -0.9441  2.1242
  113MOL0     H15255   5.668   1.852   5.623  1.2066  0.3624 -0.5314
  114MOL0     O15256   7.940   3.185   2.221 -0.7333 -0.1333  0.8586
  114MOL0     C15257   7.845   3.229   2.160  0.8832 -0.1271  0.6514
  114MOL0     O15258   7.802   3.357   2.170 -0.4483 -0.3690  0.3239
  114MOL0     C15259   7.843   3.439   2.275 -0.1561  1.2135  0.5544
  114MOL0     C15260   7.878   3.404   2.407  0.3987 -0.5443 -0.3419
  114MOL0     C15261   7.930   3.500   2.503  0.8669 -0.5022 -0.1638
  114MOL0     C15262   7.922   3.634   2.463 -0.7141 -0.9684 -1.0210
  114MOL0     O15263   7.974   3.731   2.546 -0.5040 -0.5701 -0.1548
  114MOL0     C15264   7.902   3.765   2.654 -0.4514 -0.8414  0.1321
  114MOL0     C15265   7.917   3.911   2.702  0.2615 -0.5552  0.1238
  114MOL0     C15266   7.860   3.942   2.837 -0.6171 -0.1341 -0.2707
  114MOL0     C15267   7.720   3.982   2.830  0.5083 -0.3870  0.0348
  114MOL0     C15268   7.670   3.984   2.976  0.9903  0.0277 -0.4658
  114MOL0     C15269   7.708   4.119   3.048  1.1308  0.1281 -0.9939
  114MOL0     C15270   7.634   4.127   3.185 -0.4180  0.1582  0.1041
  114MOL0     C15271   7.721   4.061   3.287 -0.9960  0.0537 -1.1457
  114MOL0     N15272   7.738   4.149   3.411  1.0893  0.3311  0.7279
  114MOL0     C15273   7.834   4.245   3.413 -0.4890 -0.2535 -0.4270
  114MOL0     C15274   7.837   4.285   3.541 -0.7898 -0.0050  0.7958
  114MOL0     C15275   7.924   4.394   3.605 -0.4058 -0.0011 -0.2970
  114MOL0     C15276   7.936   4.518   3.518  0.4639  0.1790 -0.5984
  114MOL0     C15277   7.999   4.626   3.610 -0.5575  0.1273 -1.1970
  114MOL0     C15278   8.019   4.766   3.544  0.0432 -0.5470 -0.3710
  114MOL0     O15279   8.127   4.736   3.445  0.6044  0.0761 -0.8470
  114MOL0     C15280   8.194   4.846   3.395  0.4449 -0.1738  1.1010
  114MOL0     C15281   8.249   4.817   3.268  0.4302 -0.3776  0.0063
  114MOL0     C15282   8.298   4.921   3.185  1.5240 -0.1687 -0.7981
  114MOL0     C15283   8.347   4.887   3.049 -0.1020  0.4895  0.1107
  114MOL0     C15284   8.296   5.057   3.233 -0.7073 -0.2691 -0.2059
  114MOL0     C15285   8.357   5.173   3.148  0.2993 -0.1510  0.0151
  114MOL0     O15286   8.302   5.296   3.172  0.2174 -0.6336 -0.0018
  114MOL0     C15287   8.359   5.400   3.113 -0.5981  0.3490 -0.0586
  114MOL0     C15288   8.339   5.423   2.973 -0.2358  0.3220 -0.6260
  114MOL0     C15289   8.414   5.515   2.894  0.8503  0.6855 -1.2507
  114MOL0     C15290   8.515   5.587   2.958 -0.2175 -0.6621 -0.4337
  114MOL0     O15291   8.578   5.687   2.889 -0.0238  0.4228 -0.8383
  114MOL0     C15292   8.493   5.778   2.812  0.5963  0.5000  0.6180
  114MOL0     C15293   8.562   5.913   2.807  0.0539 -1.2909 -0.7664
  114MOL0     C15294   8.703   5.903   2.749  0.0742 -0.6217 -0.6650
  114MOL0     C15295   8.773   6.033   2.778 -0.3501  0.0519 -0.8214
  114MOL0     C15296   8.921   6.014   2.763 -0.1367 -0.3288  0.5542
  114MOL0     C15297   8.983   6.110   2.656 -0.4977  0.4906 -0.8864
  114MOL0     C15298   9.073   6.039   2.556 -0.8832  0.4030 -0.0046
  114MOL0     C15299   9.001   5.952   2.448  0.4620 -0.7996  0.6946
  114MOL0    Cl15300   9.123   5.857   2.354  0.1251 -0.0621 -0.5393
  114MOL0     C15301   8.538   5.570   3.098 -0.1771 -0.0981  0.5312
  114MOL0     C15302   8.468   5.476   3.174  0.0591 -0.7368  0.5803
  114MOL0     O15303   8.454   5.152   3.081 -0.3297  0.1774 -0.1850
  114MOL0     C15304   8.248   5.080   3.359 -0.3229  0.0819 -0.0302
  114MOL0     C15305   8.197   4.980   3.433 -0.3875 -0.3192  0.2152
  114MOL0     N15306   7.737   4.215   3.614 -0.4457  0.0782  0.0891
  114MOL0     N15307   7.674   4.143   3.528  0.2547 -0.2245  0.0563
  114MOL0     C15308   7.871   3.674   2.344 -0.5032  1.0199  0.5517
  114MOL0     C15309   7.826   3.570   2.248 -1.1522  0.5682 -0.3615
  114MOL0     C15310   7.769   3.141   2.075  0.2648  0.5965  0.2582
  114MOL0     C15311   7.637   3.180   2.027  0.4122 -0.3375 -1.2687
  114MOL0     C15312   7.555   3.091   1.960  0.0783 -0.3372 -0.1921
  114MOL0     C15313   7.617   2.977   1.906  0.5444  0.8879 -0.6481
  114MOL0     O15314   7.568   2.891   1.815 -0.2410  0.0723  0.1424
  114MOL0     C15315   7.453   2.929   1.730 -0.6911 -0.7727  0.1508
  114MOL0     C15316   7.389   2.818   1.643  0.4617  0.7245  1.0053
  114MOL0     C15317   7.467   2.676   1.656  0.4223  0.1948  0.5402
  114MOL0     C15318   7.403   2.569   1.570 -0.4371  0.3873 -0.6134
  114MOL0     C15319   7.469   2.440   1.563 -0.0872  0.0451  0.1798
  114MOL0     C15320   7.508   2.324   1.575 -0.0439 -1.0174  0.8245
  114MOL0     C15321   7.737   2.937   1.954 -0.5352  0.4365 -0.6337
  114MOL0     C15322   7.809   3.008   2.056  0.0420  0.1769  0.0648
  114MOL0     H15323   7.868   3.298   2.428  1.7702 -0.3879  1.2513
  114MOL0     H15324   7.962   3.462   2.600 -1.3868  0.5836  1.1099
  114MOL0     H15325   7.796   3.745   2.633 -1.9895  1.7147  4.2215
  114MOL0     H15326   7.933   3.696   2.733  1.1044 -1.9106 -1.3331
  114MOL0     H15327   8.025   3.911   2.721  0.2654 -1.1407  0.1006
  114MOL0     H15328   7.893   3.987   2.626  0.7813 -0.6042 -0.0944
  114MOL0     H15329   7.863   3.850   2.897  0.1358 -0.0426 -0.1616
  114MOL0     H15330   7.922   4.019   2.883  0.7123 -0.4077 -1.5585
  114MOL0     H15331   7.711   4.070   2.766 -1.4583 -1.5133 -1.3433
  114MOL0     H15332   7.661   3.908   2.775 -0.3986 -0.1013  0.6023
  114MOL0     H15333   7.561   3.978   2.981  0.9217  1.6134  2.6640
  114MOL0     H15334   7.707   3.898   3.032 -1.1677 -2.0209 -2.0113
  114MOL0     H15335   7.815   4.134   3.061  1.1428 -1.3708  1.1199
  114MOL0     H15336   7.663   4.204   2.997 -0.8846 -0.8849 -1.0124
  114MOL0     H15337   7.617   4.233   3.208 -0.0849  0.8411 -2.3940
  114MOL0     H15338   7.538   4.075   3.179 -0.0114 -0.6549  0.5066
  114MOL0     H15339   7.821   4.027   3.256 -0.2401 -1.0067  2.0982
  114MOL0     H15340   7.676   3.969   3.324 -0.9421  0.4301 -0.1223
  114MOL0     H15341   7.890   4.284   3.328 -0.7901  0.2887 -0.3796
  114MOL0     H15342   7.896   4.411   3.710  1.6789 -0.7380  0.4379
  114MOL0     H15343   8.022   4.345   3.613 -1.0084 -1.3686 -0.9734
  114MOL0     H15344   7.836   4.549   3.487  0.1228  0.8479  1.0390
  114MOL0     H15345   7.994   4.499   3.428 -1.5330 -2.5994 -1.4144
  114MOL0     H15346   8.095   4.587   3.646 -2.0204 -2.8191 -0.0786
  114MOL0     H15347   7.937   4.629   3.700 -0.3842  0.2872 -1.0829
  114MOL0     H15348   8.040   4.846   3.615 -0.8093 -2.7463  2.5711
  114MOL0     H15349   7.919   4.788   3.505 -1.6182 -1.5247  2.9611
  114MOL0     H15350   8.241   4.712   3.244 -0.7355 -0.2757 -0.1093
  114MOL0     H15351   8.454   4.865   3.055 -0.1154  0.0579 -0.9927
  114MOL0     H15352   8.302   4.795   3.012 -0.5296  1.7310 -2.7006
  114MOL0     H15353   8.321   4.972   2.986  1.1959  1.6363  1.0533
  114MOL0     H15354   8.264   5.352   2.938  0.9110  0.3029 -3.2683
  114MOL0     H15355   8.399   5.508   2.787  0.1917 -5.1037 -1.0900
  114MOL0     H15356   8.476   5.734   2.713  0.1325 -0.4915  1.1242
  114MOL0     H15357   8.400   5.793   2.867 -0.1843  1.6966 -0.9588
  114MOL0     H15358   8.503   5.974   2.738  3.4887  0.1074 -2.7447
  114MOL0     H15359   8.555   5.962   2.905  0.1448 -1.1054 -0.8527
  114MOL0     H15360   8.721   5.880   2.643  4.0147 -3.3864  0.4002
  114MOL0     H15361   8.758   5.830   2.809  0.8216  1.3734  1.2267
  114MOL0     H15362   8.742   6.120   2.719  0.0525  0.2577 -0.7396
  114MOL0     H15363   8.753   6.059   2.883 -0.3278  1.6069 -1.1744
  114MOL0     H15364   8.958   5.912   2.752 -0.3388 -0.6181  2.2410
  114MOL0     H15365   8.972   6.053   2.852  1.8930  0.0803 -0.7276
  114MOL0     H15366   8.902   6.156   2.599 -2.3866  0.2338  1.4474
  114MOL0     H15367   9.030   6.192   2.711 -1.7550  0.3608  0.4580
  114MOL0     H15368   9.142   5.972   2.607  0.3329 -1.9499 -4.2584
  114MOL0     H15369   9.145   6.106   2.508  1.9439 -2.7821 -0.5943
  114MOL0     H15370   8.934   6.010   2.383  1.8410  0.0031 -0.0516
  114MOL0     H15371   8.928   5.883   2.491  1.5946 -2.2133  0.3881
  114MOL0     H15372   8.620   5.624   3.143  1.8219 -0.6911 -2.1389
  114MOL0     H15373   8.490   5.471   3.280 -0.1640  2.3409  0.8467
  114MOL0     H15374   8.245   5.185   3.385  3.3088 -0.0494  1.4574
  114MOL0     H15375   8.143   5.009   3.522 -0.8515 -1.6392  0.3859
  114MOL0     H15376   7.879   3.781   2.323 -1.8274  1.1117  0.4477
  114MOL0     H15377   7.804   3.595   2.145  1.8000  0.7021 -1.0525
  114MOL0     H15378   7.595   3.268   2.075 -2.3133 -2.2395  0.0923
  114MOL0     H15379   7.452   3.107   1.932 -0.1507 -0.5033  0.5398
  114MOL0     H15380   7.380   2.976   1.797 -0.8435 -1.2518  0.3211
  114MOL0     H15381   7.488   3.006   1.660 -1.1623 -2.0530 -1.5526
  114MOL0     H15382   7.389   2.848   1.538  3.0558 -2.8014 -0.2186
  114MOL0     H15383   7.282   2.818   1.664  0.6204  2.7831  2.0672
  114MOL0     H15384   7.476   2.647   1.761  1.8919 -1.0826  0.0982
  114MOL0     H15385   7.572   2.684   1.628  0.8850 -0.8235  1.9018
  114MOL0     H15386   7.373   2.610   1.474 -1.1033  1.3611 -0.0002
  114MOL0     H15387   7.313   2.552   1.630  0.3370  2.5702  1.2955
  114MOL0     H15388   7.542   2.223   1.585 -0.4460 -1.6788 -2.8619
  114MOL0     H15389   7.785   2.843   1.928  0.7065  1.2321 -1.3010
  114MOL0     H15390   7.906   2.970   2.088 -1.2047 -2.9768  0.3877
  115MOL0     O15391   2.157   2.115   3.619 -0.1142  0.3292  1.1736
  115MOL0     C15392   2.084   2.051   3.697 -0.5069 -0.2810  0.7944
  115MOL0     O15393   1.959   2.015   3.668 -0.0763  0.2686 -0.0546
  115MOL0     C15394   1.911   2.018   3.542  1.1374  0.1511 -0.4258
  115MOL0     C15395   1.834   2.120   3.494 -0.4781  0.4107  0.4732
  115MOL0     C15396   1.779   2.102   3.359 -0.5946  0.6474 -1.2625
  115MOL0     C15397   1.785   1.979   3.291 -0.3958 -0.9796  0.9295
  115MOL0     O15398   1.730   1.984   3.164 -0.2044 -0.2624 -0.1861
  115MOL0     C15399   1.707   1.866   3.095 -1.2240  0.3101  0.9959
  115MOL0     C15400   1.835   1.831   3.015  0.2382  0.2373 -0.2078
  115MOL0     C15401   1.844   1.934   2.895  0.0054  0.1901  0.2238
  115MOL0     C15402   1.986   1.975   2.847 -0.2666  0.3614  0.4912
  115MOL0     C15403   1.999   2.129   2.879 -0.4383  0.2732  0.6106
  115MOL0     C15404   2.135   2.194   2.852 -0.8634 -0.3122  0.0446
  115MOL0     C15405   2.128   2.274   2.723  0.5057 -1.2845 -0.3180
  115MOL0     C15406   2.268   2.306   2.677 -0.6427 -0.3495 -0.8043
  115MOL0     N15407   2.333   2.430   2.739 -0.6758  0.1761 -0.4282
  115MOL0     C15408   2.433   2.429   2.836 -0.9024 -0.0297  0.5660
  115MOL0     C15409   2.474   2.559   2.843  0.4377  0.2799  0.0393
  115MOL0     C15410   2.599   2.585   2.921 -0.3952 -0.3696 -0.9981
  115MOL0     C15411   2.675   2.682   2.835 -0.2366  0.0240  0.2412
  115MOL0     C15412   2.800   2.714   2.912 -0.3365  0.6524  0.1433
  115MOL0     C15413   2.864   2.841   2.866 -0.8257 -1.1004 -0.9400
  115MOL0     O15414   2.780   2.949   2.901  0.4503 -0.7039 -0.0682
  115MOL0     C15415   2.833   3.070   2.935  0.6426 -0.7481 -0.7804
  115MOL0     C15416   2.867   3.102   3.064 -0.3820 -0.6651  0.0681
  115MOL0     C15417   2.925   3.221   3.097 -0.1406 -0.2817  0.2364
  115MOL0     C15418   2.971   3.225   3.237 -0.4038 -0.2627 -0.8779
  115MOL0     C15419   2.949   3.318   2.997  0.1198  0.5533  1.6353
  115MOL0     C15420   3.024   3.444   3.012 -0.3185 -0.2790 -0.3354
  115MOL0     O15421   3.052   3.504   2.889 -0.8323 -0.1111 -0.2223
  115MOL0     C15422   3.109   3.629   2.888  0.3389  0.1273 -0.3622
  115MOL0     C15423   3.094   3.740   2.971  0.5292  0.1414  0.2015
  115MOL0     C15424   3.168   3.855   2.944 -0.6375 -0.7754  0.2881
  115MOL0     C15425   3.246   3.864   2.833 -0.2748 -0.6743  0.0908
  115MOL0     O15426   3.335   3.964   2.815 -0.3620  0.6543 -0.2443
  115MOL0     C15427   3.419   4.007   2.916  0.5009 -0.8259 -0.1424
  115MOL0     C15428   3.365   4.136   2.973 -0.4500 -0.4014  0.4189
  115MOL0     C15429   3.448   4.198   3.083  0.5515  1.7599 -0.5877
  115MOL0     C15430   3.374   4.325   3.140 -0.1121  0.0403 -0.8444
  115MOL0     C15431   3.464   4.389   3.244  0.3888 -0.7362 -0.2123
  115MOL0     C15432   3.411   4.521   3.288 -0.0041 -0.0218 -1.1514
  115MOL0     C15433   3.324   4.505   3.412  0.0945 -1.0408  0.2726
  115MOL0     C15434   3.278   4.642   3.462 -0.1454  0.8627  0.3792
  115MOL0    Cl15435   3.193   4.648   3.630  0.2875  0.1992  0.1831
  115MOL0     C15436   3.261   3.761   2.752  0.5321  0.7989  0.4923
  115MOL0     C15437   3.189   3.644   2.780  0.2743  0.0590  0.4828
  115MOL0     O15438   3.030   3.490   3.121  0.5491  0.6418  0.0332
  115MOL0     C15439   2.907   3.288   2.862  0.7373 -0.1886  0.2444
  115MOL0     C15440   2.841   3.165   2.834 -0.0869  0.0363  0.2804
  115MOL0     N15441   2.403   2.632   2.765 -0.1380 -0.1202  0.1234
  115MOL0     N15442   2.314   2.559   2.700  0.1905 -0.2477  0.5984
  115MOL0     C15443   1.861   1.878   3.352 -0.3801  1.1397  0.4708
  115MOL0     C15444   1.922   1.902   3.471 -0.0258  0.2393 -0.2187
  115MOL0     C15445   2.153   2.024   3.824 -0.3085  0.5644  0.4158
  115MOL0     C15446   2.297   2.036   3.841  0.0745 -0.3267 -0.5799
  115MOL0     C15447   2.360   1.984   3.958 -0.3895  0.1134  0.3280
  115MOL0     C15448   2.278   1.937   4.062  0.5165  1.6438  0.0224
  115MOL0     O15449   2.330   1.882   4.177  0.5778  0.0598 -0.8555
  115MOL0     C15450   2.466   1.877   4.208  1.1196  0.8043  1.0112
  115MOL0     C15451   2.520   2.017   4.233 -0.7116 -0.1777  0.6505
  115MOL0     C15452   2.465   2.043   4.370 -0.1668  0.1987 -0.5646
  115MOL0     C15453   2.449   2.182   4.410 -0.2025 -0.5019 -0.1849
  115MOL0     C15454   2.564   2.270   4.409 -0.3408  1.2030 -0.4939
  115MOL0     C15455   2.670   2.338   4.413  0.2492 -0.4300  0.2313
  115MOL0     C15456   2.136   1.947   4.046 -0.4367 -0.6197 -0.5926
  115MOL0     C15457   2.073   1.985   3.929  0.1276  0.1249 -0.0015
  115MOL0     H15458   1.815   2.211   3.551  1.0126  2.1510 -1.6354
  115MOL0     H15459   1.712   2.173   3.312  0.2641  1.4637 -1.2664
  115MOL0     H15460   1.687   1.780   3.159  1.5457 -2.0690 -1.0516
  115MOL0     H15461   1.620   1.881   3.032 -1.7973  1.6769  2.0381
  115MOL0     H15462   1.925   1.841   3.077 -0.5808  1.2760  0.8436
  115MOL0     H15463   1.838   1.730   2.973  2.9142  1.0804 -2.3347
  115MOL0     H15464   1.796   1.879   2.813  3.1873 -1.6313 -0.5994
  115MOL0     H15465   1.785   2.024   2.914  1.5763  0.6758  3.5318
  115MOL0     H15466   2.061   1.915   2.899  0.0930  0.7970  0.4835
  115MOL0     H15467   2.005   1.961   2.740 -1.8925 -0.7182  0.3090
  115MOL0     H15468   1.918   2.187   2.833 -1.1822 -0.3814  1.0678
  115MOL0     H15469   1.973   2.148   2.984 -0.5565 -1.5057  0.9409
  115MOL0     H15470   2.165   2.261   2.933  1.7198  1.6049 -2.3026
  115MOL0     H15471   2.215   2.119   2.841  0.0100  0.5431  0.4449
  115MOL0     H15472   2.065   2.219   2.652 -1.4625 -0.1896  0.4960
  115MOL0     H15473   2.083   2.373   2.736  0.5268 -1.3224  0.0516
  115MOL0     H15474   2.254   2.338   2.573  1.5009 -1.5804 -1.5174
  115MOL0     H15475   2.340   2.224   2.682 -0.5311 -0.1835  1.0550
  115MOL0     H15476   2.472   2.357   2.907  0.6401  1.9672  1.8690
  115MOL0     H15477   2.573   2.624   3.020  0.2257 -2.0729 -0.1218
  115MOL0     H15478   2.655   2.492   2.931  1.1310  0.6104  0.0268
  115MOL0     H15479   2.612   2.770   2.818  0.9322  0.5182 -1.9211
  115MOL0     H15480   2.703   2.637   2.739 -0.5657  0.6878 -0.1752
  115MOL0     H15481   2.861   2.626   2.889  2.5600  2.0005  2.0834
  115MOL0     H15482   2.784   2.722   3.020 -1.9618  0.8002 -0.0839
  115MOL0     H15483   2.895   2.839   2.761  0.3553  3.1736 -0.8643
  115MOL0     H15484   2.952   2.845   2.930 -1.1943 -2.1119 -0.3478
  115MOL0     H15485   2.855   3.016   3.129 -2.3435  0.1337  0.8209
  115MOL0     H15486   2.982   3.126   3.282 -1.9351  0.8487  2.2173
  115MOL0     H15487   3.071   3.268   3.229  0.7631 -2.6416 -0.1198
  115MOL0     H15488   2.904   3.286   3.299 -1.9533 -3.5206  0.9451
  115MOL0     H15489   3.014   3.737   3.044 -3.6657  3.1291 -3.6841
  115MOL0     H15490   3.155   3.941   3.009 -0.3817  0.2840 -1.0207
  115MOL0     H15491   3.429   3.933   2.996  1.1206  2.0937  2.7011
  115MOL0     H15492   3.521   4.019   2.878  0.9070 -0.6574  0.9533
  115MOL0     H15493   3.384   4.205   2.890 -0.4122 -0.3361  0.4816
  115MOL0     H15494   3.258   4.145   2.994 -0.0750  4.3795  1.6137
  115MOL0     H15495   3.544   4.229   3.040  0.4387  1.4219 -1.0834
  115MOL0     H15496   3.473   4.118   3.154  1.3537  0.5251 -2.2014
  115MOL0     H15497   3.357   4.398   3.060  0.0643  1.1575  0.1189
  115MOL0     H15498   3.279   4.295   3.186 -0.9621  1.6500 -1.4646
  115MOL0     H15499   3.556   4.405   3.187  0.3817  0.2084  0.0384
  115MOL0     H15500   3.485   4.326   3.331  0.9317 -1.7807 -1.0767
  115MOL0     H15501   3.496   4.585   3.312  1.6952 -2.8338  0.9336
  115MOL0     H15502   3.340   4.563   3.216 -1.1317  0.1202  0.0085
  115MOL0     H15503   3.379   4.462   3.496  2.3531 -0.7344 -0.9880
  115MOL0     H15504   3.248   4.431   3.384  0.9182 -1.7697 -0.0803
  115MOL0     H15505   3.229   4.699   3.383 -1.1863  2.3728  2.0438
  115MOL0     H15506   3.373   4.694   3.475  0.0112  1.0989 -1.3609
  115MOL0     H15507   3.328   3.775   2.668  1.9605  2.3938  1.7935
  115MOL0     H15508   3.193   3.555   2.719  1.4072  0.2794  0.2062
  115MOL0     H15509   2.919   3.359   2.781  1.8553  0.8848  1.3033
  115MOL0     H15510   2.799   3.157   2.735  1.3420 -1.2261 -0.2738
  115MOL0     H15511   1.876   1.786   3.296  0.5438  2.4274 -1.4889
  115MOL0     H15512   2.000   1.833   3.502 -0.2153 -0.6655 -1.6695
  115MOL0     H15513   2.363   2.058   3.758 -0.6952 -0.8884 -1.3599
  115MOL0     H15514   2.468   1.991   3.961 -0.5282  3.1030  1.5703
  115MOL0     H15515   2.472   1.805   4.290 -1.8426 -0.4868  0.2204
  115MOL0     H15516   2.517   1.832   4.122  0.7869 -0.8209  1.6299
  115MOL0     H15517   2.484   2.096   4.166  2.3885 -0.9814 -2.1936
  115MOL0     H15518   2.626   2.035   4.217 -0.8899 -0.5391 -1.0981
  115MOL0     H15519   2.515   1.991   4.452 -0.1572  1.0264 -0.0418
  115MOL0     H15520   2.361   2.009   4.374  0.1582 -0.8748 -0.7771
  115MOL0     H15521   2.418   2.182   4.515 -0.9019 -0.2523 -0.3886
  115MOL0     H15522   2.370   2.228   4.351 -2.5519  0.6635  3.4780
  115MOL0     H15523   2.759   2.397   4.412 -0.9574  1.5358  1.1618
  115MOL0     H15524   2.058   1.925   4.119 -0.6202  3.5712  0.7201
  115MOL0     H15525   1.965   1.989   3.919  0.0841  0.6113  0.6168
  116MOL0     O15526   1.427   0.229   0.832 -0.7345  0.3512 -0.5252
  116MOL0     C15527   1.418   0.349   0.813  0.5836 -1.3264  0.2959
  116MOL0     O15528   1.308   0.421   0.763 -0.2127  0.4649 -0.8739
  116MOL0     C15529   1.200   0.358   0.703  0.6186 -0.2199  0.2586
  116MOL0     C15530   1.158   0.221   0.703 -0.1458  0.5227  0.6530
  116MOL0     C15531   1.039   0.174   0.635 -0.3825 -0.4307 -0.5950
  116MOL0     C15532   0.949   0.256   0.569  0.5446 -0.2719  0.1491
  116MOL0     O15533   0.833   0.208   0.509 -0.3982  0.0218 -0.7008
  116MOL0     C15534   0.744   0.294   0.436 -0.5746  0.2143  0.0738
  116MOL0     C15535   0.621   0.220   0.396 -0.4968 -0.2517 -0.1526
  116MOL0     C15536   0.521   0.206   0.504  0.2334 -0.0216 -0.6500
  116MOL0     C15537   0.402   0.127   0.459 -0.1466  0.2714  0.1782
  116MOL0     C15538   0.286   0.161   0.542 -0.0964 -0.0832  0.4761
  116MOL0     C15539   0.284   0.077   0.674 -0.4710 -0.3200 -0.4212
  116MOL0     C15540   0.160   0.112   0.750  0.5179 -0.1816  0.4880
  116MOL0     C15541   0.126   0.044   0.882 -0.1481 -0.4684  0.7836
  116MOL0     N15542   0.215   0.101   0.990  0.0446  0.4276 -0.1594
  116MOL0     C15543   0.181   0.203   1.073  0.2542 -0.1297 -0.8041
  116MOL0     C15544   0.292   0.226   1.146 -0.8207  0.5863 -1.6498
  116MOL0     C15545   0.309   0.320   1.256  0.4713  0.0770  0.1735
  116MOL0     C15546   0.286   0.250   1.388  1.1270  0.4893 -0.8592
  116MOL0     C15547   0.304   0.343   1.506  0.4534 -0.1143 -0.4237
  116MOL0     C15548   0.205   0.464   1.504 -0.3860 -0.0561 -0.2425
  116MOL0     O15549   0.273   0.584   1.457 -0.0949  0.1339 -0.4182
  116MOL0     C15550   0.203   0.702   1.428 -0.1121  0.3666  1.1129
  116MOL0     C15551   0.068   0.718   1.450  0.0097  0.5716 -0.1893
  116MOL0     C15552  -0.010   0.806   1.380  0.3823  0.2203  0.0557
  116MOL0     C15553  -0.158   0.785   1.411  0.3332 -0.3068  0.6484
  116MOL0     C15554   0.050   0.896   1.287 -0.0218 -0.5551  0.5587
  116MOL0     C15555  -0.019   0.999   1.202  0.7123  0.8419  0.4387
  116MOL0     O15556  -0.156   1.004   1.215  0.7293 -0.1505  0.5483
  116MOL0     C15557  -0.232   1.057   1.114 -0.0418 -0.7945 -0.5044
  116MOL0     C15558  -0.221   1.197   1.091  0.8288 -1.0657 -1.2660
  116MOL0     C15559  -0.298   1.258   0.991  0.3182  0.3107 -1.3094
  116MOL0     C15560  -0.399   1.184   0.934  1.1544  0.8126 -0.3262
  116MOL0     O15561  -0.482   1.231   0.844 -0.7851  0.0859  1.1420
  116MOL0     C15562  -0.481   1.370   0.790  0.5385 -0.1491  0.1403
  116MOL0     C15563  -0.599   1.395   0.697  0.0624 -0.3752  0.4355
  116MOL0     C15564  -0.738   1.375   0.765  0.9704  1.0256 -0.8879
  116MOL0     C15565  -0.839   1.442   0.674 -0.1023 -0.4673  0.3714
  116MOL0     C15566  -0.981   1.412   0.719  0.2334  0.4523 -0.3245
  116MOL0     C15567  -1.076   1.508   0.640 -0.0869  1.7626 -0.0187
  116MOL0     C15568  -1.092   1.459   0.486 -0.0362 -0.1740 -0.3137
  116MOL0     C15569  -1.167   1.574   0.413 -0.3981 -0.4309 -0.5174
  116MOL0    Cl15570  -1.347   1.568   0.453  0.0856  0.2744  0.5489
  116MOL0     C15571  -0.429   1.057   0.973 -0.1947  0.0131  1.1725
  116MOL0     C15572  -0.344   0.993   1.064 -0.0129 -0.4621  0.5978
  116MOL0     O15573   0.046   1.072   1.119 -0.3337  1.3634  1.0748
  116MOL0     C15574   0.190   0.896   1.283  0.7088  0.7959  0.8877
  116MOL0     C15575   0.266   0.796   1.348  0.7963 -0.7102  0.5907
  116MOL0     N15576   0.395   0.146   1.104  0.0300  0.4750 -0.7408
  116MOL0     N15577   0.350   0.066   1.011 -0.1407  0.5428  0.6679
  116MOL0     C15578   0.998   0.390   0.557  0.1695  0.5415  0.1467
  116MOL0     C15579   1.110   0.447   0.630 -1.0940 -0.6228 -0.0174
  116MOL0     C15580   1.537   0.434   0.837  0.9834  0.7505  0.0166
  116MOL0     C15581   1.646   0.397   0.922 -0.3136 -0.1476 -0.2148
  116MOL0     C15582   1.753   0.485   0.930 -0.4743  0.8837  0.2983
  116MOL0     C15583   1.758   0.608   0.874 -1.0926  0.2527  0.4684
  116MOL0     O15584   1.857   0.705   0.883  0.6160 -0.2797 -1.3230
  116MOL0     C15585   1.972   0.690   0.972  0.0961  0.0476  0.4991
  116MOL0     C15586   2.046   0.818   0.996 -0.0457  0.0052  0.5418
  116MOL0     C15587   2.082   0.879   0.860  0.3629 -0.4171  0.1817
  116MOL0     C15588   2.147   1.020   0.867  1.5359  0.0172 -0.1958
  116MOL0     C15589   2.284   0.998   0.908 -0.7008 -0.1133  0.3209
  116MOL0     C15590   2.401   0.988   0.938 -0.9994 -0.2595  0.4791
  116MOL0     C15591   1.658   0.639   0.783 -0.0336  0.5026 -0.9318
  116MOL0     C15592   1.552   0.552   0.765  0.1219  0.4239  0.1483
  116MOL0     H15593   1.222   0.152   0.757  2.7918  2.7017  0.1577
  116MOL0     H15594   1.011   0.069   0.630  0.6156 -0.6544 -1.8530
  116MOL0     H15595   0.729   0.379   0.503  0.5885 -0.1098  0.7680
  116MOL0     H15596   0.788   0.329   0.343 -1.2644 -1.2680 -0.8573
  116MOL0     H15597   0.573   0.277   0.317 -1.2302 -0.7355 -0.0749
  116MOL0     H15598   0.658   0.122   0.364  1.0272 -0.5490  2.2157
  116MOL0     H15599   0.569   0.160   0.591  2.4718  3.8741  0.3943
  116MOL0     H15600   0.495   0.307   0.538  2.1909  0.5426 -0.7020
  116MOL0     H15601   0.374   0.159   0.358  1.2923 -1.8473 -0.9708
  116MOL0     H15602   0.428   0.021   0.456  1.7576  0.6537  1.1387
  116MOL0     H15603   0.280   0.267   0.566  0.4721  0.8268 -2.8933
  116MOL0     H15604   0.193   0.133   0.491 -1.0983  3.1157  0.3145
  116MOL0     H15605   0.269  -0.027   0.641 -1.9456 -0.5342  0.8130
  116MOL0     H15606   0.377   0.084   0.731 -1.9637  0.7672  2.0310
  116MOL0     H15607   0.160   0.219   0.774 -1.4691  0.4938 -2.1387
  116MOL0     H15608   0.080   0.094   0.679  3.1894  0.0421 -2.8051
  116MOL0     H15609   0.142  -0.061   0.857 -2.0262 -0.3484 -1.3349
  116MOL0     H15610   0.020   0.061   0.904 -0.7431 -1.4399 -1.0765
  116MOL0     H15611   0.089   0.258   1.090  1.1505  0.9396  0.9080
  116MOL0     H15612   0.409   0.363   1.249 -1.2686  4.4951 -0.2456
  116MOL0     H15613   0.244   0.407   1.248  0.6214  0.0539 -1.9042
  116MOL0     H15614   0.357   0.169   1.410 -1.2943 -1.5674 -0.0111
  116MOL0     H15615   0.192   0.193   1.388  2.3833 -1.7703  1.0473
  116MOL0     H15616   0.408   0.376   1.509  0.0559  1.1754 -0.1484
  116MOL0     H15617   0.270   0.282   1.590  0.1880  1.6407  0.7984
  116MOL0     H15618   0.169   0.489   1.604 -0.9010  2.4828 -0.9962
  116MOL0     H15619   0.121   0.439   1.438  0.0156 -2.1285 -0.0393
  116MOL0     H15620   0.017   0.651   1.518 -0.4822 -0.8171 -1.8560
  116MOL0     H15621  -0.215   0.776   1.318 -0.5749 -0.2721  1.1895
  116MOL0     H15622  -0.182   0.694   1.466  0.2264 -0.6833 -0.0046
  116MOL0     H15623  -0.190   0.872   1.469  1.9872 -0.8533  2.4691
  116MOL0     H15624  -0.137   1.249   1.135  0.2377 -0.5270 -0.7582
  116MOL0     H15625  -0.263   1.356   0.960  1.2515 -0.1505 -1.7865
  116MOL0     H15626  -0.499   1.452   0.860  0.1576 -0.6804  0.6780
  116MOL0     H15627  -0.400   1.386   0.719 -0.9540  1.1575 -1.3476
  116MOL0     H15628  -0.603   1.496   0.655 -1.5198  0.0709  1.5599
  116MOL0     H15629  -0.585   1.323   0.615 -2.6083 -0.0142 -0.4369
  116MOL0     H15630  -0.732   1.421   0.864  2.7899  1.3106 -1.0904
  116MOL0     H15631  -0.756   1.268   0.773 -0.2807  1.2561 -0.3817
  116MOL0     H15632  -0.824   1.550   0.665  1.3934 -0.7436 -0.7975
  116MOL0     H15633  -0.821   1.400   0.575  1.4996  1.6741 -0.3156
  116MOL0     H15634  -0.993   1.422   0.827 -1.7651 -0.2113 -0.4448
  116MOL0     H15635  -1.011   1.308   0.705  1.8521  0.2638 -3.0872
  116MOL0     H15636  -1.171   1.513   0.693  0.4823 -4.3930  2.3434
  116MOL0     H15637  -1.039   1.611   0.644 -0.3978  1.9555 -1.3888
  116MOL0     H15638  -1.135   1.359   0.476 -0.0895  0.0188 -2.2412
  116MOL0     H15639  -0.994   1.444   0.440 -0.1712  2.3427 -1.5763
  116MOL0     H15640  -1.153   1.565   0.305  1.5127 -0.6386 -0.2918
  116MOL0     H15641  -1.129   1.667   0.457 -0.1791 -1.4920  1.6555
  116MOL0     H15642  -0.517   1.005   0.935  1.2401 -1.9056  0.2836
  116MOL0     H15643  -0.356   0.890   1.096 -2.3694  0.5494  3.5247
  116MOL0     H15644   0.249   0.971   1.231  0.7485 -0.2290 -0.6079
  116MOL0     H15645   0.374   0.799   1.336  0.9376  2.3495  1.9190
  116MOL0     H15646   0.939   0.459   0.497 -0.5987 -1.4513 -1.5087
  116MOL0     H15647   1.130   0.553   0.622  1.5221 -1.0358  0.1425
  116MOL0     H15648   1.650   0.295   0.959  2.6637 -0.0790 -0.1254
  116MOL0     H15649   1.847   0.448   0.971 -1.1820 -1.5030 -0.0780
  116MOL0     H15650   1.929   0.654   1.066 -0.4178 -0.2861  0.1471
  116MOL0     H15651   2.046   0.620   0.932 -1.2467  0.2249 -2.5490
  116MOL0     H15652   2.144   0.797   1.039  0.1827 -0.5766 -0.2515
  116MOL0     H15653   1.989   0.893   1.052 -1.1582 -1.3961  1.3613
  116MOL0     H15654   1.985   0.898   0.813  0.9843 -0.7425 -1.2824
  116MOL0     H15655   2.137   0.824   0.783  2.6768  1.7187  0.1951
  116MOL0     H15656   2.105   1.081   0.947  4.1412 -0.1186  1.3589
  116MOL0     H15657   2.133   1.069   0.770  3.9049  1.2819  0.0323
  116MOL0     H15658   2.500   0.971   0.975 -1.1727  0.4262  1.2758
  116MOL0     H15659   1.668   0.727   0.720  1.6693  1.5309  0.6858
  116MOL0     H15660   1.472   0.567   0.693  0.6965 -2.1512 -1.1389
  117MOL0     O15661   2.261   7.582   6.645  0.5674  0.7032  0.2574
  117MOL0     C15662   2.331   7.487   6.597  0.4065  1.2244 -0.5699
  117MOL0     O15663   2.306   7.419   6.488  1.2579  0.5628 -0.1156
  117MOL0     C15664   2.213   7.469   6.404 -0.2064 -0.6205  0.4376
  117MOL0     C15665   2.078   7.510   6.433 -0.4349 -0.7298 -0.3451
  117MOL0     C15666   2.006   7.563   6.318  0.3990  0.1047  0.1105
  117MOL0     C15667   2.048   7.556   6.184  0.9025  0.1724 -0.9172
  117MOL0     O15668   1.961   7.610   6.098 -0.8841  0.0056 -0.1965
  117MOL0     C15669   2.002   7.744   6.056  0.1783  0.3708 -0.1324
  117MOL0     C15670   1.904   7.806   5.947  0.3333  0.0875 -0.0008
  117MOL0     C15671   1.741   7.801   5.975 -0.5559 -0.7508  0.5527
  117MOL0     C15672   1.693   7.834   6.115  0.3768  0.4372 -1.1145
  117MOL0     C15673   1.546   7.869   6.142 -0.2229  0.6908 -0.0645
  117MOL0     C15674   1.525   7.890   6.295 -0.4177 -0.5138  0.3548
  117MOL0     C15675   1.403   7.971   6.320  0.3384 -0.4642 -0.4339
  117MOL0     C15676   1.403   8.000   6.468 -0.5378  0.2413 -0.5817
  117MOL0     N15677   1.297   8.096   6.494 -0.0663 -0.1735  0.9144
  117MOL0     C15678   1.164   8.074   6.474 -0.4532 -0.2937 -0.4430
  117MOL0     C15679   1.104   8.188   6.512  0.0237 -0.4164  0.2782
  117MOL0     C15680   0.962   8.227   6.501  0.2909 -0.2314 -0.2982
  117MOL0     C15681   0.854   8.119   6.506 -0.8971  0.2772 -0.4984
  117MOL0     C15682   0.710   8.177   6.491 -0.0573  0.1723  0.0549
  117MOL0     C15683   0.617   8.063   6.540 -0.8051 -0.5267  0.0324
  117MOL0     O15684   0.621   7.948   6.460 -0.4464 -0.1687  0.0592
  117MOL0     C15685   0.544   7.941   6.350 -0.4172  0.7217 -0.0691
  117MOL0     C15686   0.570   7.993   6.225  0.7068  0.4224 -0.5628
  117MOL0     C15687   0.469   8.024   6.133 -0.3772  0.1069  0.0427
  117MOL0     C15688   0.515   8.086   6.004 -0.6768 -0.3140 -0.6796
  117MOL0     C15689   0.330   7.989   6.164 -0.1549 -0.2950  0.9906
  117MOL0     C15690   0.213   8.027   6.082 -0.5995 -0.6250  0.3130
  117MOL0     O15691   0.091   7.983   6.130 -0.4728 -0.8539 -0.5347
  117MOL0     C15692  -0.023   8.026   6.076  0.6444 -0.2873  0.7606
  117MOL0     C15693  -0.051   8.153   6.025 -0.0579  0.3164 -0.0193
  117MOL0     C15694  -0.180   8.171   5.967  0.3610  0.1566 -0.9915
  117MOL0     C15695  -0.290   8.087   5.982  0.8303  0.5780  0.0259
  117MOL0     O15696  -0.409   8.149   5.955 -1.5099 -0.4121 -0.3729
  117MOL0     C15697  -0.526   8.075   5.994  0.1096 -0.3778  0.5156
  117MOL0     C15698  -0.633   8.174   5.995  0.1358  0.0133  0.3071
  117MOL0     C15699  -0.774   8.099   6.009  0.0561  0.4593  0.4822
  117MOL0     C15700  -0.890   8.192   6.038  0.2919  0.3568 -0.1566
  117MOL0     C15701  -1.024   8.116   6.036 -0.6190 -0.1812  0.2097
  117MOL0     C15702  -1.127   8.197   6.099  0.5105 -0.3578 -0.5335
  117MOL0     C15703  -1.262   8.134   6.109  0.9312  0.0587 -0.2092
  117MOL0     C15704  -1.364   8.225   6.157 -0.1207 -0.7639 -0.0540
  117MOL0    Cl15705  -1.518   8.127   6.188 -0.5406 -0.6100  0.0808
  117MOL0     C15706  -0.262   7.952   6.026  0.4848 -0.5513 -1.2273
  117MOL0     C15707  -0.121   7.924   6.072 -0.0809  0.1798  0.5748
  117MOL0     O15708   0.228   8.074   5.966 -0.1356  0.1543  0.4607
  117MOL0     C15709   0.306   7.933   6.289 -0.3459 -0.3980 -0.0859
  117MOL0     C15710   0.415   7.913   6.379  1.2546  0.3327 -0.4406
  117MOL0     N15711   1.200   8.263   6.570  0.2430  0.3889 -0.1075
  117MOL0     N15712   1.314   8.210   6.563  0.0262 -0.2425  0.7330
  117MOL0     C15713   2.172   7.498   6.155  1.2579  0.5387 -0.0934
  117MOL0     C15714   2.253   7.453   6.269 -1.0195 -0.9303 -0.6100
  117MOL0     C15715   2.419   7.428   6.701 -0.3294  0.5149  0.5150
  117MOL0     C15716   2.536   7.371   6.656 -0.0105  0.0552 -0.4160
  117MOL0     C15717   2.622   7.311   6.743  0.1022  0.0508 -0.4163
  117MOL0     C15718   2.588   7.301   6.880  0.2695 -0.2934  0.2556
  117MOL0     O15719   2.677   7.237   6.953  0.8903  0.0646 -0.2075
  117MOL0     C15720   2.625   7.131   7.037 -0.1700 -0.2406  0.1155
  117MOL0     C15721   2.726   7.090   7.150 -0.8794  0.7494  0.9033
  117MOL0     C15722   2.692   6.946   7.188 -0.3827  0.6203 -0.1014
  117MOL0     C15723   2.740   6.900   7.326  0.4916 -0.8348 -0.2120
  117MOL0     C15724   2.695   6.767   7.362  0.4869  0.5041  0.5069
  117MOL0     C15725   2.631   6.678   7.408 -0.3541  0.5722 -0.2070
  117MOL0     C15726   2.466   7.356   6.928  0.5095 -1.1475  0.3011
  117MOL0     C15727   2.387   7.427   6.834 -0.0295 -0.6217 -0.7414
  117MOL0     H15728   2.045   7.506   6.536  3.2203 -2.1954  0.9582
  117MOL0     H15729   1.905   7.599   6.333  0.6676  1.5943 -1.4077
  117MOL0     H15730   1.986   7.803   6.147  1.3552 -0.7191  0.8135
  117MOL0     H15731   2.109   7.741   6.034  0.6336  0.3164  1.8795
  117MOL0     H15732   1.932   7.911   5.941 -1.4742  0.8605  2.8810
  117MOL0     H15733   1.930   7.739   5.864 -0.4064  0.2904 -0.4040
  117MOL0     H15734   1.692   7.868   5.903 -0.3812 -1.6052 -0.3927
  117MOL0     H15735   1.714   7.695   5.967  3.5034 -2.0927  2.3174
  117MOL0     H15736   1.715   7.743   6.172  0.1260  0.8084 -0.4166
  117MOL0     H15737   1.761   7.908   6.156 -0.8638 -0.8942  3.9608
  117MOL0     H15738   1.506   7.954   6.086 -2.8365 -0.6245 -0.3831
  117MOL0     H15739   1.493   7.777   6.114  1.3280 -0.4143  0.5033
  117MOL0     H15740   1.524   7.794   6.346 -0.5838 -1.6236 -1.6307
  117MOL0     H15741   1.609   7.952   6.328 -2.0006  1.9670  0.0652
  117MOL0     H15742   1.404   8.069   6.273 -0.0484 -0.0496  0.3870
  117MOL0     H15743   1.310   7.914   6.308  1.1265 -1.7702 -0.4919
  117MOL0     H15744   1.495   8.048   6.501 -1.5900  1.6021  0.5034
  117MOL0     H15745   1.393   7.906   6.523  1.7594 -0.2316 -0.8742
  117MOL0     H15746   1.124   7.985   6.426 -1.4988  0.1711 -0.4671
  117MOL0     H15747   0.935   8.290   6.587 -0.3129 -0.1605 -0.5402
  117MOL0     H15748   0.967   8.288   6.411  4.5257 -0.7284 -0.5989
  117MOL0     H15749   0.852   8.075   6.607 -1.2852 -1.7004 -1.3247
  117MOL0     H15750   0.879   8.043   6.432 -0.1905 -1.8867  1.8194
  117MOL0     H15751   0.672   8.211   6.395 -1.9501 -1.3915  0.1697
  117MOL0     H15752   0.710   8.263   6.558 -0.0509  2.4302 -2.6730
  117MOL0     H15753   0.517   8.107   6.527 -0.1526  0.4782 -2.0178
  117MOL0     H15754   0.637   8.036   6.644  1.0719 -0.7567 -0.3696
  117MOL0     H15755   0.671   8.000   6.188  0.1032  2.0485 -1.9887
  117MOL0     H15756   0.462   8.181   5.989 -1.7586 -0.7860 -0.0316
  117MOL0     H15757   0.622   8.105   6.008 -1.1200  2.3718  1.7119
  117MOL0     H15758   0.487   8.016   5.925 -0.6729 -1.3611  0.2182
  117MOL0     H15759   0.017   8.238   6.019  2.1193 -1.4199 -2.0496
  117MOL0     H15760  -0.207   8.268   5.929 -2.2465 -0.4246 -0.7914
  117MOL0     H15761  -0.558   8.011   5.911 -1.4458 -0.6557  1.2960
  117MOL0     H15762  -0.505   8.011   6.080 -2.5393 -0.9260  0.8402
  117MOL0     H15763  -0.617   8.249   6.074  0.8900  0.5306 -0.3147
  117MOL0     H15764  -0.628   8.216   5.894  0.8438 -0.4091  0.1583
  117MOL0     H15765  -0.778   8.024   6.088 -1.3435  1.6251  1.6005
  117MOL0     H15766  -0.797   8.059   5.910 -2.8856  2.4227  0.2228
  117MOL0     H15767  -0.874   8.232   6.138  2.0078 -1.0753  0.1942
  117MOL0     H15768  -0.884   8.273   5.965  0.0795  1.3297  0.8747
  117MOL0     H15769  -1.012   8.028   6.100  0.9777  0.7478  1.2665
  117MOL0     H15770  -1.051   8.086   5.935  3.0544  0.4530 -1.1347
  117MOL0     H15771  -1.088   8.219   6.199  2.2628  2.3383 -1.6528
  117MOL0     H15772  -1.138   8.294   6.049  1.7072 -0.1591 -0.4571
  117MOL0     H15773  -1.278   8.048   6.174 -1.4489 -0.6857 -1.6403
  117MOL0     H15774  -1.306   8.113   6.011 -0.4844  1.3453  0.1110
  117MOL0     H15775  -1.376   8.305   6.083 -0.5242 -0.2922  0.5085
  117MOL0     H15776  -1.325   8.263   6.252  0.6499 -1.3121 -0.1445
  117MOL0     H15777  -0.343   7.880   6.032 -0.8724  1.0557  1.1686
  117MOL0     H15778  -0.097   7.831   6.122 -0.4641  0.5388  1.4564
  117MOL0     H15779   0.203   7.909   6.313  0.3908 -1.2807  2.4203
  117MOL0     H15780   0.386   7.886   6.480 -1.7018  1.4698 -0.8780
  117MOL0     H15781   2.208   7.500   6.053 -0.9044 -1.6125 -0.9823
  117MOL0     H15782   2.351   7.414   6.243 -0.4772 -0.6540  0.9366
  117MOL0     H15783   2.556   7.380   6.550 -0.3717 -1.1068 -0.5907
  117MOL0     H15784   2.710   7.264   6.700 -1.4912 -1.0105 -2.7067
  117MOL0     H15785   2.532   7.158   7.089  0.5110  1.5390  0.4783
  117MOL0     H15786   2.612   7.049   6.967 -2.4020 -1.4718  1.8146
  117MOL0     H15787   2.707   7.152   7.238  1.2068 -0.4423  2.2668
  117MOL0     H15788   2.829   7.106   7.118  0.6939 -2.9220  3.4267
  117MOL0     H15789   2.732   6.894   7.101  0.3600  3.9098 -1.8701
  117MOL0     H15790   2.584   6.928   7.183 -0.1901 -1.2940  1.2858
  117MOL0     H15791   2.715   6.970   7.407 -0.7465 -1.4743 -0.0116
  117MOL0     H15792   2.848   6.892   7.319  0.4392 -2.2154  0.1686
  117MOL0     H15793   2.572   6.592   7.437  3.1406 -1.9628  0.0299
  117MOL0     H15794   2.440   7.375   7.031  0.1606  1.5739 -0.2159
  117MOL0     H15795   2.316   7.494   6.882  0.5167 -0.1407 -0.6014
  118MOL0     O15796  11.022  10.135   7.660  0.2034 -0.2099  0.1215
  118MOL0     C15797  11.077  10.239   7.656 -0.2106 -0.0597  1.1550
  118MOL0     O15798  11.026  10.358   7.671  0.0552 -0.2597  0.3170
  118MOL0     C15799  10.882  10.389   7.664 -0.5053  1.1118 -0.6537
  118MOL0     C15800  10.857  10.523   7.646 -0.8504 -0.7520  0.4112
  118MOL0     C15801  10.728  10.568   7.662  0.2768 -0.8310 -0.2792
  118MOL0     C15802  10.623  10.479   7.692  0.2352  0.4684  0.1996
  118MOL0     O15803  10.500  10.539   7.725 -0.1046 -0.0667  0.2942
  118MOL0     C15804  10.404  10.467   7.806  0.4156 -0.2360  0.0387
  118MOL0     C15805  10.287  10.569   7.816  0.2279  0.2247  0.4002
  118MOL0     C15806  10.226  10.623   7.679  0.1234  0.7703  0.6722
  118MOL0     C15807  10.076  10.656   7.693  0.1091  0.8415  0.1138
  118MOL0     C15808  10.031  10.723   7.568  0.1873 -0.0406 -0.2914
  118MOL0     C15809  10.048  10.649   7.438 -0.4637  0.0977  0.3506
  118MOL0     C15810   9.979  10.725   7.323 -0.8006  0.1002 -0.1290
  118MOL0     C15811  10.001  10.662   7.181  0.1588 -0.6374 -0.5997
  118MOL0     N15812   9.946  10.526   7.158  0.0426  0.2463 -0.1871
  118MOL0     C15813  10.010  10.416   7.212 -0.1852 -0.4603 -0.5354
  118MOL0     C15814   9.934  10.312   7.184  1.2641 -0.0892  0.4556
  118MOL0     C15815   9.946  10.168   7.233 -0.7297 -0.2274 -0.1986
  118MOL0     C15816   9.816  10.099   7.275  0.5309 -0.5469 -0.0130
  118MOL0     C15817   9.839   9.954   7.333 -0.3168 -0.1900 -0.4367
  118MOL0     C15818   9.704   9.871   7.303  0.6034  0.0079  0.0122
  118MOL0     O15819   9.580   9.939   7.352 -0.1959  0.6432 -0.9107
  118MOL0     C15820   9.485   9.850   7.396 -0.1559 -1.5379  0.8099
  118MOL0     C15821   9.394   9.895   7.487 -0.3891  0.2454  0.1727
  118MOL0     C15822   9.293   9.813   7.541 -0.5669 -0.3988  0.2809
  118MOL0     C15823   9.212   9.871   7.659 -0.9125  0.4195 -0.5123
  118MOL0     C15824   9.275   9.676   7.494 -0.2290 -1.0229  0.1582
  118MOL0     C15825   9.179   9.582   7.550 -0.4509 -0.1255 -0.0971
  118MOL0     O15826   9.193   9.452   7.523  1.0852  0.6505 -0.2785
  118MOL0     C15827   9.097   9.367   7.478 -0.7857  0.0697 -1.2869
  118MOL0     C15828   8.966   9.358   7.520  0.3011 -0.2029 -0.7952
  118MOL0     C15829   8.883   9.255   7.473 -0.5991  0.0194  0.4430
  118MOL0     C15830   8.923   9.173   7.364 -0.8177 -0.4124 -0.1875
  118MOL0     O15831   8.835   9.079   7.326  1.6420  0.1454  0.2760
  118MOL0     C15832   8.880   8.956   7.281 -0.2685  0.3543  0.1444
  118MOL0     C15833   8.789   8.838   7.307 -0.8043  0.4246 -0.1310
  118MOL0     C15834   8.794   8.812   7.465  0.2049  0.5455 -0.1629
  118MOL0     C15835   8.705   8.695   7.517 -0.3506  0.4298 -0.2116
  118MOL0     C15836   8.748   8.646   7.658  0.3897 -1.2056  1.0733
  118MOL0     C15837   8.750   8.760   7.769 -0.4528 -0.0914  0.0990
  118MOL0     C15838   8.816   8.699   7.900 -0.0551  0.7134 -0.2287
  118MOL0     C15839   8.972   8.707   7.900 -0.3660  0.2315 -0.0757
  118MOL0    Cl15840   9.031   8.536   7.883 -0.1210 -0.1839 -0.1686
  118MOL0     C15841   9.048   9.189   7.317  0.0394 -0.7123  1.2058
  118MOL0     C15842   9.135   9.291   7.369  0.3643 -0.1658  0.0740
  118MOL0     O15843   9.071   9.625   7.599  0.1421 -0.1603 -0.6065
  118MOL0     C15844   9.359   9.635   7.397 -0.5127  0.0075  0.2068
  118MOL0     C15845   9.454   9.727   7.337 -0.1271  0.3159 -0.8062
  118MOL0     N15846   9.821  10.359   7.111  0.4313  0.0244  0.3329
  118MOL0     N15847   9.827  10.484   7.096  0.1401 -0.1606 -0.0581
  118MOL0     C15848  10.648  10.348   7.702 -0.5713  0.2638  0.0125
  118MOL0     C15849  10.779  10.293   7.693 -0.4338 -0.5029 -0.3503
  118MOL0     C15850  11.222  10.231   7.627 -0.2933 -0.8905 -0.2653
  118MOL0     C15851  11.301  10.348   7.636  0.1124 -0.2374  0.7950
  118MOL0     C15852  11.440  10.332   7.610 -0.9657  0.1155  0.2350
  118MOL0     C15853  11.508  10.215   7.619 -0.2098  0.1688  0.4352
  118MOL0     O15854  11.645  10.210   7.628 -0.2598 -0.0845  0.0513
  118MOL0     C15855  11.715  10.089   7.589  0.3738  0.2806  0.1185
  118MOL0     C15856  11.863  10.107   7.549  0.7194  0.5358  0.5926
  118MOL0     C15857  11.951  10.114   7.674 -0.7161 -0.2622  1.3560
  118MOL0     C15858  12.083  10.187   7.664  0.4229 -0.4498 -0.0789
  118MOL0     C15859  12.169  10.129   7.553  0.1438 -0.3226  0.1250
  118MOL0     C15860  12.235  10.065   7.471  0.3662  0.7771  0.1919
  118MOL0     C15861  11.427  10.102   7.640  0.5408 -0.0787 -0.7844
  118MOL0     C15862  11.286  10.105   7.642  1.0349 -1.0044 -0.5526
  118MOL0     H15863  10.940  10.591   7.639 -0.1509 -1.4799  1.4125
  118MOL0     H15864  10.706  10.674   7.664  3.8855  0.0352 -0.6540
  118MOL0     H15865  10.372  10.374   7.757  1.0961 -0.0486 -0.7832
  118MOL0     H15866  10.446  10.449   7.905 -2.0163  2.6745  1.7379
  118MOL0     H15867  10.209  10.513   7.870  1.5875 -0.7760  1.4065
  118MOL0     H15868  10.314  10.655   7.878  2.3586 -0.4002  0.4115
  118MOL0     H15869  10.278  10.715   7.649  1.0164  0.3276  0.8186
  118MOL0     H15870  10.236  10.549   7.600 -1.4721  2.0608 -0.8054
  118MOL0     H15871  10.016  10.571   7.726  3.2048 -1.1453  0.9598
  118MOL0     H15872  10.057  10.733   7.769  2.9213  1.8999 -0.1546
  118MOL0     H15873   9.922  10.728   7.577 -0.1031  0.2934 -3.2343
  118MOL0     H15874  10.074  10.823   7.566 -0.3728  0.2951  1.6891
  118MOL0     H15875  10.155  10.652   7.413  0.0523  2.4627  2.4535
  118MOL0     H15876  10.021  10.544   7.444  1.9713 -0.5382  1.3884
  118MOL0     H15877   9.871  10.724   7.337 -0.7461  1.4159  0.5117
  118MOL0     H15878  10.003  10.831   7.334 -1.4238  0.2252  0.0474
  118MOL0     H15879  10.109  10.674   7.165 -0.0425  3.7154  0.1930
  118MOL0     H15880   9.943  10.716   7.106  2.3289  1.5454 -0.8143
  118MOL0     H15881  10.107  10.424   7.260  0.0422 -0.5875 -0.9736
  118MOL0     H15882   9.998  10.101   7.164 -3.2242  0.5532 -3.0541
  118MOL0     H15883  10.013  10.164   7.319  2.9778  0.3912 -2.7986
  118MOL0     H15884   9.755  10.093   7.184 -2.0527 -3.9024  1.7084
  118MOL0     H15885   9.769  10.156   7.356  2.1732 -1.1004  1.3837
  118MOL0     H15886   9.849   9.959   7.442  0.3338 -2.6397 -0.3340
  118MOL0     H15887   9.934   9.919   7.293  0.3304  2.8154 -1.7886
  118MOL0     H15888   9.705   9.769   7.344 -2.8572 -0.0039  0.4296
  118MOL0     H15889   9.686   9.859   7.196 -1.2254  2.6207 -0.0734
  118MOL0     H15890   9.401   9.994   7.531  1.4881  0.8284 -1.3004
  118MOL0     H15891   9.114   9.893   7.616 -0.2567 -0.9065 -2.8103
  118MOL0     H15892   9.196   9.788   7.728 -1.0225  0.7637 -0.1157
  118MOL0     H15893   9.269   9.954   7.703  1.8055 -0.7274 -1.6632
  118MOL0     H15894   8.924   9.429   7.590  2.1036 -0.2232  0.3667
  118MOL0     H15895   8.789   9.229   7.521  0.3499 -2.9009  0.8984
  118MOL0     H15896   8.894   8.978   7.174  3.3925 -0.8362  0.2168
  118MOL0     H15897   8.984   8.948   7.316 -0.0378  2.5492  0.1144
  118MOL0     H15898   8.688   8.862   7.273 -1.1357 -0.3734  0.2851
  118MOL0     H15899   8.820   8.747   7.256 -1.4254  0.1153  0.0286
  118MOL0     H15900   8.760   8.900   7.519  0.0213 -0.4260  1.3631
  118MOL0     H15901   8.901   8.807   7.488  0.0950 -0.8596  0.1716
  118MOL0     H15902   8.601   8.727   7.517 -1.1183 -1.8474 -1.4785
  118MOL0     H15903   8.701   8.615   7.442 -2.7884 -0.0768  0.3672
  118MOL0     H15904   8.852   8.616   7.662  0.9280  0.4799  0.7645
  118MOL0     H15905   8.683   8.563   7.686 -3.1541  1.1669  0.6270
  118MOL0     H15906   8.804   8.850   7.735 -2.2419  1.0095  0.0424
  118MOL0     H15907   8.649   8.800   7.777  0.6505  2.8720  0.5030
  118MOL0     H15908   8.789   8.593   7.886  0.8568  0.6918 -2.0960
  118MOL0     H15909   8.762   8.747   7.982 -2.9742  1.5565 -2.4625
  118MOL0     H15910   9.000   8.745   7.999  2.7894 -0.9235 -0.4170
  118MOL0     H15911   9.020   8.766   7.821  1.7294 -0.9253  0.2747
  118MOL0     H15912   9.083   9.127   7.236 -0.7886  1.0255 -0.5669
  118MOL0     H15913   9.226   9.314   7.315  0.5423 -0.5182  0.2206
  118MOL0     H15914   9.352   9.534   7.357  3.8228 -1.4787  2.5414
  118MOL0     H15915   9.512   9.705   7.248 -0.1975 -1.5662 -0.4283
  118MOL0     H15916  10.572  10.274   7.725  0.6874 -1.3163 -0.6888
  118MOL0     H15917  10.784  10.194   7.737 -5.4573 -0.3273  1.2331
  118MOL0     H15918  11.256  10.446   7.625 -0.9688 -0.9591 -2.0762
  118MOL0     H15919  11.500  10.421   7.593  0.2281 -0.5477  0.7967
  118MOL0     H15920  11.720  10.017   7.671  0.2980  0.6185  0.4195
  118MOL0     H15921  11.660  10.043   7.506 -0.9035  1.2483  0.3915
  118MOL0     H15922  11.872  10.199   7.491 -1.6017 -0.1172 -0.9255
  118MOL0     H15923  11.888  10.015   7.495 -2.0681 -1.1073  1.8670
  118MOL0     H15924  11.977  10.013   7.707  0.1887 -0.5291 -0.1015
  118MOL0     H15925  11.888  10.166   7.747 -1.2017 -0.3546  1.0067
  118MOL0     H15926  12.138  10.181   7.758 -1.8492  1.1526  1.4576
  118MOL0     H15927  12.070  10.295   7.650  0.3534 -0.5055 -0.4546
  118MOL0     H15928  12.292   9.996   7.412 -2.9905 -0.4863 -1.8528
  118MOL0     H15929  11.466  10.003   7.660  1.8523 -0.0645 -2.9576
  118MOL0     H15930  11.224  10.018   7.657 -2.2896  1.0931 -1.0301
  119MOL0     O15931   6.755   6.574  11.221  0.6990 -0.3666 -0.3489
  119MOL0     C15932   6.689   6.636  11.134  1.1839  0.1627  0.0333
  119MOL0     O15933   6.566   6.698  11.150 -0.3696 -0.1921  0.7819
  119MOL0     C15934   6.500   6.685  11.263  0.0160  0.1851 -0.5458
  119MOL0     C15935   6.559   6.710  11.391 -0.0074  0.6663  0.1249
  119MOL0     C15936   6.472   6.691  11.503 -0.0987  0.2234 -0.2834
  119MOL0     C15937   6.341   6.665  11.495 -0.5351 -0.2237  0.7186
  119MOL0     O15938   6.245   6.667  11.598  0.4657 -0.8458  0.4893
  119MOL0     C15939   6.280   6.730  11.722 -0.2939  0.7090 -1.2754
  119MOL0     C15940   6.158   6.693  11.811  0.2523 -0.6727 -0.5574
  119MOL0     C15941   6.204   6.679  11.958 -0.6021 -0.0270 -0.4890
  119MOL0     C15942   6.259   6.533  11.983  0.1689 -0.0185  0.4648
  119MOL0     C15943   6.290   6.492  12.123  0.0197 -0.1941  0.5135
  119MOL0     C15944   6.392   6.580  12.188  0.3376  0.4778 -0.5158
  119MOL0     C15945   6.419   6.533  12.341  0.4872 -0.5010  0.2863
  119MOL0     C15946   6.474   6.387  12.361 -0.0053  0.3670  0.3742
  119MOL0     N15947   6.594   6.361  12.280  0.3782 -0.3042 -0.7103
  119MOL0     C15948   6.604   6.252  12.202 -0.7929  0.1496 -0.5402
  119MOL0     C15949   6.737   6.238  12.175 -0.2033 -0.9531 -0.0803
  119MOL0     C15950   6.790   6.146  12.069  0.3965  1.2854 -0.4975
  119MOL0     C15951   6.784   6.002  12.118  0.4718 -0.0877 -0.8968
  119MOL0     C15952   6.841   5.894  12.020  0.3012 -0.2757  0.0336
  119MOL0     C15953   6.870   5.763  12.082 -1.0018 -0.0453 -0.5062
  119MOL0     O15954   6.762   5.704  12.154 -0.0686  0.4474  0.9198
  119MOL0     C15955   6.789   5.599  12.238 -0.3329  0.9398  0.3092
  119MOL0     C15956   6.905   5.527  12.242 -0.0907  0.6338 -0.0955
  119MOL0     C15957   6.924   5.415  12.332 -0.0027 -0.1555  0.6708
  119MOL0     C15958   7.066   5.364  12.342  0.2144  0.1778  0.3803
  119MOL0     C15959   6.808   5.373  12.408 -0.3332  0.1569 -0.2252
  119MOL0     C15960   6.804   5.245  12.495  0.0794 -1.1510  0.2569
  119MOL0     O15961   6.689   5.222  12.560 -0.5549  0.5658  0.9966
  119MOL0     C15962   6.689   5.113  12.642 -0.4515  0.4796 -0.1560
  119MOL0     C15963   6.641   4.983  12.613 -0.0035 -0.1433  0.0604
  119MOL0     C15964   6.635   4.889  12.716  0.1464  0.5683  0.2328
  119MOL0     C15965   6.661   4.935  12.848 -0.3098  0.1948  0.1152
  119MOL0     O15966   6.652   4.839  12.948 -0.2113 -0.1923 -0.9489
  119MOL0     C15967   6.619   4.881  13.084 -0.6912  0.9177  0.7069
  119MOL0     C15968   6.582   4.746  13.148  0.6546 -0.3494 -0.4917
  119MOL0     C15969   6.462   4.683  13.078  0.0803  0.9559 -0.5738
  119MOL0     C15970   6.419   4.552  13.150 -0.5955  0.2338 -0.7579
  119MOL0     C15971   6.284   4.488  13.100  0.1967 -1.2861  0.1272
  119MOL0     C15972   6.259   4.365  13.185 -0.1213 -0.4270 -0.0368
  119MOL0     C15973   6.133   4.284  13.143  0.1304 -0.4405 -0.0160
  119MOL0     C15974   6.100   4.176  13.250  0.0057 -0.4167  0.0083
  119MOL0    Cl15975   6.228   4.048  13.259 -0.3254 -0.1311  0.2475
  119MOL0     C15976   6.696   5.067  12.877 -0.0739 -0.4508  0.4865
  119MOL0     C15977   6.724   5.149  12.774 -0.3981 -0.4282 -0.6488
  119MOL0     O15978   6.910   5.176  12.498  0.2086 -0.0439  0.0458
  119MOL0     C15979   6.688   5.443  12.387 -0.3658 -0.3336  0.8355
  119MOL0     C15980   6.675   5.557  12.300  0.1391  0.7034 -0.7471
  119MOL0     N15981   6.802   6.351  12.241 -0.3058 -0.1948  0.4872
  119MOL0     N15982   6.715   6.420  12.305  0.0674 -0.1492 -0.4810
  119MOL0     C15983   6.286   6.645  11.371  0.2284  0.5244 -0.2675
  119MOL0     C15984   6.363   6.652  11.258  0.3156  0.0842  0.5443
  119MOL0     C15985   6.757   6.637  11.008 -0.6185 -0.4542  1.0384
  119MOL0     C15986   6.701   6.684  10.885  0.2637  0.4847 -0.9182
  119MOL0     C15987   6.757   6.665  10.758  0.1813 -0.1422 -0.3629
  119MOL0     C15988   6.877   6.595  10.753 -0.2384 -1.1793 -0.3601
  119MOL0     O15989   6.918   6.581  10.621  0.1582 -0.5191 -0.4242
  119MOL0     C15990   7.040   6.504  10.592  0.4688 -0.1648 -0.0533
  119MOL0     C15991   7.166   6.580  10.625  0.1173 -0.3567  0.2794
  119MOL0     C15992   7.281   6.491  10.633  0.2448 -0.6127  0.6187
  119MOL0     C15993   7.423   6.561  10.632  0.5529  0.9409 -0.5796
  119MOL0     C15994   7.475   6.554  10.493  0.1976  0.3035 -0.2425
  119MOL0     C15995   7.548   6.557  10.395 -0.1328  0.0562 -0.5341
  119MOL0     C15996   6.951   6.573  10.873  0.3152 -0.0198 -0.5911
  119MOL0     C15997   6.892   6.589  10.997 -0.6634 -0.2503  0.4414
  119MOL0     H15998   6.666   6.718  11.412  0.2295 -1.0536 -0.3156
  119MOL0     H15999   6.531   6.716  11.591 -2.2758  4.0462  0.2848
  119MOL0     H16000   6.369   6.685  11.766 -2.1523  1.7274  4.2181
  119MOL0     H16001   6.284   6.839  11.725 -1.6488  0.7516 -0.3922
  119MOL0     H16002   6.088   6.776  11.807 -2.6736 -2.9038  0.4781
  119MOL0     H16003   6.102   6.607  11.774  2.1426 -1.1402 -2.5336
  119MOL0     H16004   6.283   6.753  11.971 -0.5901 -0.2807  1.0945
  119MOL0     H16005   6.113   6.699  12.016 -1.4316  1.3201 -2.1725
  119MOL0     H16006   6.193   6.459  11.936  0.9932  1.0356 -2.5946
  119MOL0     H16007   6.345   6.531  11.914  1.6784  1.3070  2.2135
  119MOL0     H16008   6.207   6.483  12.195 -1.0310  2.4047 -0.2431
  119MOL0     H16009   6.328   6.390  12.111 -2.9754 -1.2176 -1.4070
  119MOL0     H16010   6.483   6.583  12.128  1.4922  4.3103  1.1735
  119MOL0     H16011   6.342   6.677  12.198  3.2764  1.8824  2.1523
  119MOL0     H16012   6.492   6.597  12.391 -2.2340 -0.1004  4.1457
  119MOL0     H16013   6.332   6.540  12.406  1.0317 -1.8428  1.2083
  119MOL0     H16014   6.398   6.316  12.330  0.0650 -0.0514  1.1618
  119MOL0     H16015   6.497   6.362  12.465  0.4428  4.2111  1.3777
  119MOL0     H16016   6.529   6.184  12.162 -0.5651  1.1005 -2.7240
  119MOL0     H16017   6.725   6.147  11.981  2.0421  0.7317 -1.7691
  119MOL0     H16018   6.888   6.176  12.030  0.5329 -1.5127 -2.6540
  119MOL0     H16019   6.689   5.968  12.158  1.0991  0.7433  1.4992
  119MOL0     H16020   6.853   6.006  12.203  1.5895 -1.8091 -1.6582
  119MOL0     H16021   6.931   5.940  11.978  1.2740 -2.8193 -0.8673
  119MOL0     H16022   6.770   5.879  11.938  0.0201  2.1780 -0.2430
  119MOL0     H16023   6.951   5.776  12.154  0.4020 -3.4943 -1.2668
  119MOL0     H16024   6.907   5.700  12.000 -0.5050  1.0378 -1.1321
  119MOL0     H16025   6.986   5.569  12.183 -1.1486  1.3486 -1.0852
  119MOL0     H16026   7.093   5.361  12.448 -1.0522  0.8499  0.7348
  119MOL0     H16027   7.074   5.267  12.293  0.3330  1.2539 -1.8311
  119MOL0     H16028   7.148   5.426  12.303 -0.5714  2.1131  1.6443
  119MOL0     H16029   6.608   4.950  12.515 -0.3772  1.4485 -0.3839
  119MOL0     H16030   6.593   4.790  12.702 -1.8879  1.6639 -2.1517
  119MOL0     H16031   6.704   4.928  13.134  2.8353 -2.7061 -1.2767
  119MOL0     H16032   6.533   4.949  13.081 -0.8228  0.7408  0.4412
  119MOL0     H16033   6.670   4.681  13.136 -0.1686 -1.5309 -0.2534
  119MOL0     H16034   6.556   4.757  13.254 -0.1631  1.3556 -0.8432
  119MOL0     H16035   6.476   4.656  12.973  1.0672  0.7259 -0.3941
  119MOL0     H16036   6.372   4.742  13.096 -1.5088 -0.5477 -3.0165
  119MOL0     H16037   6.508   4.491  13.136 -0.0174  0.5996  1.0740
  119MOL0     H16038   6.408   4.565  13.259  1.0642 -0.3376 -0.5029
  119MOL0     H16039   6.287   4.467  12.992 -3.8991  0.4624 -0.5195
  119MOL0     H16040   6.195   4.552  13.106  1.5717  0.7974 -0.6372
  119MOL0     H16041   6.354   4.311  13.182  0.4322  0.0710  3.7730
  119MOL0     H16042   6.264   4.398  13.289  4.0027  0.4169 -0.3569
  119MOL0     H16043   6.149   4.233  13.048 -0.8211  0.8422 -0.9001
  119MOL0     H16044   6.051   4.355  13.128 -0.2360 -0.3906  1.8636
  119MOL0     H16045   6.007   4.121  13.231 -0.6800  1.0131 -0.8783
  119MOL0     H16046   6.091   4.227  13.346  3.0222 -1.1218  0.7774
  119MOL0     H16047   6.725   5.104  12.975 -2.3864 -0.9251  1.4111
  119MOL0     H16048   6.778   5.242  12.786  0.0538 -0.7770  0.1043
  119MOL0     H16049   6.603   5.410  12.446  0.3685 -0.9371  1.5863
  119MOL0     H16050   6.579   5.607  12.292 -0.5084 -0.2766  0.5562
  119MOL0     H16051   6.181   6.617  11.367 -0.2427  1.8315  1.6702
  119MOL0     H16052   6.321   6.623  11.162  1.1968 -0.2557  0.2530
  119MOL0     H16053   6.600   6.724  10.894  0.0130 -0.4319  0.8298
  119MOL0     H16054   6.715   6.710  10.669  0.6284  2.9457  0.8592
  119MOL0     H16055   7.034   6.409  10.646 -1.9469 -1.2339 -2.0057
  119MOL0     H16056   7.056   6.477  10.488  0.4813 -1.8182  0.3467
  119MOL0     H16057   7.160   6.648  10.710  0.8172 -1.1798  1.0118
  119MOL0     H16058   7.187   6.646  10.540  0.1831  3.6961  3.1353
  119MOL0     H16059   7.275   6.415  10.554  1.4565  1.0452 -1.1885
  119MOL0     H16060   7.292   6.441  10.729  2.8358  1.4459  1.5185
  119MOL0     H16061   7.484   6.499  10.698 -0.1247  0.5565 -0.2971
  119MOL0     H16062   7.418   6.663  10.670 -3.4648  0.5212  0.5301
  119MOL0     H16063   7.623   6.555  10.319  0.3931  2.0617 -0.1120
  119MOL0     H16064   7.052   6.537  10.861  1.0508  0.7172  2.4522
  119MOL0     H16065   6.944   6.566  11.089 -3.2748 -0.1729  1.9983
  120MOL0     O16066  10.184   0.189  10.257  0.8362  0.1875 -0.1558
  120MOL0     C16067  10.261   0.115  10.315  0.8355  0.7602  0.6261
  120MOL0     O16068  10.394   0.113  10.301  0.1077 -0.1556  0.0695
  120MOL0     C16069  10.455   0.218  10.241 -0.1209  0.7123 -0.5871
  120MOL0     C16070  10.511   0.190  10.119 -0.3793 -0.1288  0.2347
  120MOL0     C16071  10.603   0.278  10.053  0.0738  1.0069  0.4315
  120MOL0     C16072  10.649   0.391  10.121 -0.0314  0.3359 -0.8433
  120MOL0     O16073  10.763   0.462  10.076  0.4667  0.7273  0.0618
  120MOL0     C16074  10.776   0.501   9.937  0.1343  0.2441  0.0074
  120MOL0     C16075  10.900   0.590   9.930  0.2599  0.1579 -0.1261
  120MOL0     C16076  10.914   0.634   9.786 -0.3994 -0.2506 -0.4914
  120MOL0     C16077  11.049   0.676   9.758 -0.9291  0.0018 -0.2177
  120MOL0     C16078  11.062   0.753   9.631 -0.6335  0.0800  1.1345
  120MOL0     C16079  11.026   0.905   9.650  0.8095 -0.2517  0.2002
  120MOL0     C16080  11.057   0.997   9.534 -0.3961  0.2810 -0.2173
  120MOL0     C16081  10.967   1.116   9.539 -0.0665 -0.4829 -0.5864
  120MOL0     N16082  10.999   1.209   9.649  0.2324  0.7699 -0.1717
  120MOL0     C16083  10.934   1.214   9.767 -1.2171 -0.7062 -0.5368
  120MOL0     C16084  10.978   1.321   9.839  0.7784  0.4075 -0.8961
  120MOL0     C16085  10.917   1.366   9.969 -0.1115 -0.1133  0.0414
  120MOL0     C16086  10.922   1.529   9.998  0.5613  0.3284 -0.0066
  120MOL0     C16087  11.062   1.564  10.050 -0.3833 -0.4379 -0.2190
  120MOL0     C16088  11.075   1.708  10.111 -0.0066  1.2681  0.2725
  120MOL0     O16089  11.099   1.798  10.010  0.3044  0.7141  0.7832
  120MOL0     C16090  11.225   1.827   9.970  0.2923  0.9567 -0.1835
  120MOL0     C16091  11.337   1.818  10.049 -0.1675 -0.7992  0.5418
  120MOL0     C16092  11.472   1.859  10.004 -0.2084 -0.0791  0.7632
  120MOL0     C16093  11.584   1.859  10.106 -1.1584  0.8332 -0.6300
  120MOL0     C16094  11.496   1.892   9.868  0.0023 -0.2730  0.5640
  120MOL0     C16095  11.623   1.939   9.801  0.1002  0.6258 -0.3934
  120MOL0     O16096  11.630   1.948   9.669 -0.4600 -0.6240  0.1999
  120MOL0     C16097  11.746   1.985   9.616  0.1145  0.8753  0.1606
  120MOL0     C16098  11.764   2.112   9.558  0.3072  0.8777  0.3080
  120MOL0     C16099  11.885   2.145   9.496 -0.3090 -0.1952 -0.7922
  120MOL0     C16100  11.987   2.041   9.474  0.9965 -0.7474  1.0908
  120MOL0     O16101  12.088   2.044   9.381 -0.0999  0.7724 -0.0123
  120MOL0     C16102  12.067   2.151   9.280 -0.9479  0.5495 -0.0926
  120MOL0     C16103  12.135   2.114   9.144  1.1372  0.5958 -0.0306
  120MOL0     C16104  12.137   2.241   9.053 -0.4243 -1.1836  0.8564
  120MOL0     C16105  12.217   2.203   8.933  0.5376  0.8872 -0.2703
  120MOL0     C16106  12.247   2.335   8.846  0.0252 -1.1814 -0.1418
  120MOL0     C16107  12.287   2.321   8.700  0.9771  1.5718  0.5751
  120MOL0     C16108  12.300   2.445   8.614  0.0108 -0.5001  1.1736
  120MOL0     C16109  12.437   2.517   8.607 -0.6843  0.6415 -0.2043
  120MOL0    Cl16110  12.505   2.553   8.752  0.4973  0.1890  0.0453
  120MOL0     C16111  11.961   1.910   9.523  1.5774 -1.1034  0.3161
  120MOL0     C16112  11.846   1.884   9.598 -0.2698  0.0055 -0.0075
  120MOL0     O16113  11.706   1.982   9.883 -0.1477  0.9143  0.0879
  120MOL0     C16114  11.375   1.900   9.789 -0.1663  0.4420  0.2195
  120MOL0     C16115  11.244   1.865   9.835  0.0380 -0.8359  0.0960
  120MOL0     N16116  11.066   1.381   9.756 -0.7571 -0.6504 -0.6400
  120MOL0     N16117  11.088   1.310   9.646  0.8809  0.3238 -0.2884
  120MOL0     C16118  10.587   0.424  10.245 -0.1363 -0.7980 -0.1266
  120MOL0     C16119  10.494   0.342  10.305  0.2674  1.0812 -0.1471
  120MOL0     C16120  10.212  -0.010  10.382  0.5828 -0.0111  0.5275
  120MOL0     C16121  10.303  -0.084  10.470  0.0292 -0.3858  0.2088
  120MOL0     C16122  10.246  -0.193  10.530  0.0162 -0.3277 -0.3388
  120MOL0     C16123  10.116  -0.235  10.510 -0.2605 -0.3627 -1.0398
  120MOL0     O16124  10.076  -0.332  10.592  0.0260 -0.0426  0.3060
  120MOL0     C16125  10.018  -0.440  10.516 -0.4060  0.3373 -0.3320
  120MOL0     C16126  10.024  -0.569  10.599  0.0033  0.1101  0.3040
  120MOL0     C16127   9.906  -0.593  10.695 -0.5656 -0.8723  0.2317
  120MOL0     C16128   9.908  -0.737  10.740 -0.2734  0.2672 -0.4574
  120MOL0     C16129   9.777  -0.806  10.733 -0.9118 -0.8726 -0.2532
  120MOL0     C16130   9.669  -0.851  10.709  0.9836 -0.5592 -0.2228
  120MOL0     C16131  10.034  -0.178  10.412  0.2210 -0.3647  1.3149
  120MOL0     C16132  10.084  -0.058  10.353 -0.3464 -0.5809  0.2727
  120MOL0     H16133  10.479   0.094  10.077  0.8515 -0.9492  1.1288
  120MOL0     H16134  10.638   0.258   9.952 -0.2080 -1.5402  0.7737
  120MOL0     H16135  10.784   0.411   9.875 -5.0859 -1.5205  1.3732
  120MOL0     H16136  10.687   0.545   9.893  1.1066  1.5190 -0.7408
  120MOL0     H16137  10.886   0.673  10.000 -1.3436  0.7084 -1.0416
  120MOL0     H16138  10.995   0.543   9.958 -0.9446 -2.9686 -0.8436
  120MOL0     H16139  10.890   0.554   9.716  0.8254 -0.4511 -0.7128
  120MOL0     H16140  10.837   0.711   9.782 -0.7176 -0.2070  2.9780
  120MOL0     H16141  11.091   0.732   9.842  1.3586 -3.3658  1.0699
  120MOL0     H16142  11.113   0.588   9.746  0.1117  0.2848  2.5239
  120MOL0     H16143  11.160   0.729   9.588  0.0486  1.4526  1.8960
  120MOL0     H16144  10.995   0.711   9.554 -2.0368  1.3155  1.6275
  120MOL0     H16145  10.918   0.911   9.663  1.0086  1.0916  1.3879
  120MOL0     H16146  11.065   0.953   9.740  0.2816  0.1179  0.2349
  120MOL0     H16147  11.165   1.018   9.534 -0.0053 -1.4116 -1.6876
  120MOL0     H16148  11.044   0.943   9.440  3.1704 -1.3167  0.0183
  120MOL0     H16149  10.860   1.098   9.548 -0.1218 -0.3017 -0.8576
  120MOL0     H16150  10.987   1.177   9.449 -2.2931 -0.9008 -1.4234
  120MOL0     H16151  10.856   1.146   9.799 -0.2792 -1.1456  0.8805
  120MOL0     H16152  10.811   1.339   9.967  0.0079 -0.5743 -1.6623
  120MOL0     H16153  10.957   1.307  10.052  0.6930  0.5517  0.1463
  120MOL0     H16154  10.837   1.545  10.065  0.2389  2.3383 -0.8114
  120MOL0     H16155  10.893   1.576   9.904  0.9064 -1.2199 -0.9178
  120MOL0     H16156  11.133   1.545   9.969 -0.2570  0.3819 -0.3065
  120MOL0     H16157  11.090   1.496  10.131  2.4901  1.0020  0.1456
  120MOL0     H16158  11.154   1.712  10.186 -0.0809 -0.9948  0.5445
  120MOL0     H16159  10.988   1.729  10.174  0.4172  0.8349  1.0157
  120MOL0     H16160  11.326   1.787  10.152  0.0840 -2.8794 -0.0206
  120MOL0     H16161  11.554   1.833  10.208  1.0214  1.3605  0.2012
  120MOL0     H16162  11.654   1.780  10.078 -0.8571  1.1651 -0.8129
  120MOL0     H16163  11.630   1.958  10.115 -2.7436  1.8379 -2.8129
  120MOL0     H16164  11.682   2.182   9.549 -1.2294 -1.0756 -2.2703
  120MOL0     H16165  11.902   2.243   9.453  1.7605 -0.2288 -0.1820
  120MOL0     H16166  11.960   2.163   9.259 -0.6407 -0.7669 -2.8300
  120MOL0     H16167  12.110   2.245   9.316 -3.1236  1.7600 -0.4600
  120MOL0     H16168  12.237   2.081   9.165  1.2068  1.4618  1.1124
  120MOL0     H16169  12.081   2.037   9.088  0.8766  0.2673  0.6593
  120MOL0     H16170  12.182   2.325   9.106  0.2922 -0.4704 -0.8055
  120MOL0     H16171  12.042   2.281   9.017  0.0260  1.0088  1.9325
  120MOL0     H16172  12.313   2.154   8.953 -0.8746 -1.6950  0.5098
  120MOL0     H16173  12.153   2.139   8.871 -0.7874  1.1332  0.8074
  120MOL0     H16174  12.319   2.392   8.905 -2.3405  0.6067  1.1733
  120MOL0     H16175  12.162   2.404   8.843 -0.3090 -1.5805  0.0210
  120MOL0     H16176  12.378   2.262   8.693 -0.2593 -0.2475 -1.1155
  120MOL0     H16177  12.200   2.265   8.666  1.7328 -0.0708  1.2617
  120MOL0     H16178  12.226   2.514   8.655 -0.5034 -0.6256  0.4806
  120MOL0     H16179  12.271   2.410   8.514  2.0359  1.1607 -0.0599
  120MOL0     H16180  12.422   2.610   8.551 -3.0619  1.0313  0.9915
  120MOL0     H16181  12.503   2.452   8.548 -0.8113  0.0528  0.2852
  120MOL0     H16182  12.031   1.838   9.481  2.9281  1.1806 -1.5899
  120MOL0     H16183  11.825   1.786   9.640 -1.3074  0.2924  0.1680
  120MOL0     H16184  11.383   1.920   9.683 -0.7901  0.1090  0.1013
  120MOL0     H16185  11.157   1.864   9.771 -0.3696  2.0345  0.4675
  120MOL0     H16186  10.627   0.512  10.295 -1.5685 -0.3426  0.2664
  120MOL0     H16187  10.463   0.358  10.407  3.2254 -1.5363  1.3498
  120MOL0     H16188  10.397  -0.036  10.493  1.3279 -1.3297 -2.6491
  120MOL0     H16189  10.306  -0.246  10.603  2.7978 -0.2521 -2.3973
  120MOL0     H16190   9.921  -0.400  10.484  0.7936  1.0792 -3.3157
  120MOL0     H16191  10.083  -0.457  10.430  1.0721 -0.4360  0.8860
  120MOL0     H16192  10.118  -0.584  10.653 -0.7486 -0.8580  1.3848
  120MOL0     H16193  10.019  -0.651  10.527 -0.7974  0.3969  0.0185
  120MOL0     H16194   9.815  -0.568  10.640  0.0394  0.3570 -0.2539
  120MOL0     H16195   9.921  -0.516  10.771  0.2506  1.4121 -2.1109
  120MOL0     H16196   9.936  -0.739  10.846 -0.7114  1.7897 -0.2834
  120MOL0     H16197   9.982  -0.798  10.688  1.9411  1.5750  0.9787
  120MOL0     H16198   9.591  -0.915  10.672 -1.2784 -0.0458  3.2498
  120MOL0     H16199   9.939  -0.212  10.372  0.7175 -0.2954  0.0320
  120MOL0     H16200  10.022  -0.003  10.283  0.6855  1.2383  0.7078
  121MOL0     O16201   2.581  11.040   0.936 -0.3145  0.0716  0.0630
  121MOL0     C16202   2.596  11.107   1.033 -0.3834  1.4263  0.1468
  121MOL0     O16203   2.707  11.169   1.063  0.0002 -0.3333  0.0471
  121MOL0     C16204   2.810  11.186   0.979 -0.2798  1.1251  0.9136
  121MOL0     C16205   2.931  11.215   1.041 -0.0506  0.5142 -0.5023
  121MOL0     C16206   3.037  11.253   0.961  0.3313  0.6376  0.0313
  121MOL0     C16207   3.020  11.279   0.828  0.7157 -0.4876 -1.0348
  121MOL0     O16208   3.123  11.325   0.759  0.7044 -0.2268  0.6371
  121MOL0     C16209   3.098  11.427   0.659  0.2797  0.0749  0.1844
  121MOL0     C16210   3.212  11.530   0.653  0.1938  0.7485 -0.1707
  121MOL0     C16211   3.332  11.466   0.582  0.6467 -1.3438 -0.7144
  121MOL0     C16212   3.428  11.587   0.563 -0.1506 -0.3357  0.0224
  121MOL0     C16213   3.578  11.542   0.533  0.0074 -0.9338 -0.4028
  121MOL0     C16214   3.591  11.455   0.407  0.0106  0.3038 -0.7063
  121MOL0     C16215   3.595  11.535   0.278  0.2246  0.2731  0.3469
  121MOL0     C16216   3.475  11.624   0.240 -0.6177  0.5844 -0.2644
  121MOL0     N16217   3.357  11.531   0.226  0.1837 -0.1778 -0.4271
  121MOL0     C16218   3.342  11.437   0.132 -1.0002 -1.0639 -0.2872
  121MOL0     C16219   3.210  11.419   0.128  0.8360  0.1804 -0.2391
  121MOL0     C16220   3.147  11.309   0.046 -0.9981 -0.6018 -0.2244
  121MOL0     C16221   3.229  11.263  -0.071 -0.0720  0.0262  0.3241
  121MOL0     C16222   3.148  11.162  -0.152  0.2846  0.0862 -0.7597
  121MOL0     C16223   3.215  11.108  -0.284 -0.1320  0.7356 -0.2691
  121MOL0     O16224   3.284  11.209  -0.365  0.1835  0.4444  0.5610
  121MOL0     C16225   3.416  11.242  -0.347  0.1294 -0.3213 -0.0916
  121MOL0     C16226   3.504  11.182  -0.260  0.0303  0.8943  0.8421
  121MOL0     C16227   3.634  11.242  -0.227  0.1657  1.1550  0.0259
  121MOL0     C16228   3.718  11.166  -0.116 -0.1830 -0.1141  1.0963
  121MOL0     C16229   3.673  11.353  -0.294  0.8571 -0.1030  0.1337
  121MOL0     C16230   3.792  11.426  -0.272  0.2083 -0.4425 -0.5147
  121MOL0     O16231   3.848  11.471  -0.387 -0.2725  0.4171  0.3196
  121MOL0     C16232   3.957  11.564  -0.386 -0.6578  0.5242 -0.5592
  121MOL0     C16233   3.944  11.664  -0.480 -0.0635 -0.7290 -0.3506
  121MOL0     C16234   4.060  11.737  -0.510  0.0618  0.3200 -0.7855
  121MOL0     C16235   4.188  11.709  -0.454 -0.1338 -0.1832 -0.2056
  121MOL0     O16236   4.292  11.789  -0.495 -0.3764  0.2196  0.7128
  121MOL0     C16237   4.402  11.813  -0.404 -0.0689  0.5767  0.7933
  121MOL0     C16238   4.373  11.895  -0.273 -0.4656 -0.1137  0.8929
  121MOL0     C16239   4.499  11.925  -0.194 -0.2612  1.7977 -0.6583
  121MOL0     C16240   4.498  11.825  -0.076 -0.3190 -0.0840  1.0923
  121MOL0     C16241   4.615  11.859   0.012 -0.1352  0.1753 -0.6357
  121MOL0     C16242   4.600  11.996   0.080  0.0578 -0.3121  0.5300
  121MOL0     C16243   4.453  12.011   0.137  0.1921  0.5932 -0.4423
  121MOL0     C16244   4.448  12.114   0.251  0.4721 -0.1885  0.1908
  121MOL0    Cl16245   4.288  12.117   0.325  0.1084  0.1340  0.2620
  121MOL0     C16246   4.192  11.611  -0.353  0.2377  0.4461  0.0782
  121MOL0     C16247   4.079  11.535  -0.322  0.7514  0.2009  0.6895
  121MOL0     O16248   3.835  11.437  -0.157  0.1103 -0.2265 -0.7337
  121MOL0     C16249   3.589  11.404  -0.397  0.5051 -0.6456  0.1774
  121MOL0     C16250   3.463  11.360  -0.414  0.3058  1.0178 -0.1310
  121MOL0     N16251   3.141  11.498   0.215  1.0861 -0.1235 -0.2863
  121MOL0     N16252   3.234  11.563   0.278 -0.2259  0.2959 -0.2662
  121MOL0     C16253   2.895  11.250   0.761 -0.4443 -0.2373 -0.1583
  121MOL0     C16254   2.793  11.204   0.834  0.3085  0.5689 -0.1543
  121MOL0     C16255   2.479  11.113   1.128  0.7464  0.5880  0.8836
  121MOL0     C16256   2.479  11.178   1.254  0.7296  0.4131  0.3250
  121MOL0     C16257   2.361  11.181   1.331 -0.4178  0.2087 -0.7389
  121MOL0     C16258   2.242  11.118   1.297  0.4187  0.2518 -0.0562
  121MOL0     O16259   2.133  11.140   1.387 -0.1621  0.3679 -0.6557
  121MOL0     C16260   2.037  11.233   1.344 -0.1553 -1.2402 -0.4108
  121MOL0     C16261   1.902  11.164   1.335 -0.4019 -0.3022 -0.1300
  121MOL0     C16262   1.794  11.250   1.279  1.6045  0.1864  0.2733
  121MOL0     C16263   1.740  11.369   1.369  0.4854  0.4004 -0.0906
  121MOL0     C16264   1.668  11.461   1.288  0.7618  0.5014 -0.6965
  121MOL0     C16265   1.596  11.541   1.227  0.2160  0.4936 -0.2846
  121MOL0     C16266   2.238  11.055   1.169  0.2381 -0.1249 -0.8012
  121MOL0     C16267   2.354  11.054   1.086 -0.1716  0.6967 -0.3056
  121MOL0     H16268   2.933  11.213   1.149  0.7889 -1.0895 -0.5186
  121MOL0     H16269   3.136  11.260   1.003  2.4469 -0.7390 -4.1245
  121MOL0     H16270   3.092  11.367   0.568 -3.0329 -1.6113  1.3380
  121MOL0     H16271   2.998  11.469   0.675 -0.3445 -1.4781  0.6096
  121MOL0     H16272   3.172  11.615   0.596 -1.4048  0.1087 -0.0802
  121MOL0     H16273   3.240  11.555   0.756  1.1995 -1.0427  0.0181
  121MOL0     H16274   3.383  11.386   0.636  2.3738  0.6995  0.8931
  121MOL0     H16275   3.296  11.426   0.488 -0.2512 -1.1224 -0.4736
  121MOL0     H16276   3.389  11.668   0.500 -1.9928 -0.0810  1.3984
  121MOL0     H16277   3.429  11.632   0.663  2.1125 -1.8303  0.7307
  121MOL0     H16278   3.646  11.628   0.530  0.4397 -1.2987 -2.4530
  121MOL0     H16279   3.604  11.471   0.612  0.1306 -2.9788 -2.1932
  121MOL0     H16280   3.674  11.386   0.422 -0.6976 -0.4706 -0.2884
  121MOL0     H16281   3.504  11.388   0.406 -1.3202  1.7730  2.4300
  121MOL0     H16282   3.682  11.600   0.268 -0.8726  1.9426  1.1801
  121MOL0     H16283   3.597  11.452   0.206 -1.8548  1.1567 -0.8439
  121MOL0     H16284   3.493  11.668   0.141  1.2462 -0.1825 -0.3094
  121MOL0     H16285   3.466  11.709   0.307  0.0758  2.9883 -3.0039
  121MOL0     H16286   3.412  11.391   0.063  1.6463  1.0300  0.8277
  121MOL0     H16287   3.134  11.219   0.108  0.1951 -1.1864 -0.8009
  121MOL0     H16288   3.044  11.338   0.020 -0.7813 -0.4334 -0.9141
  121MOL0     H16289   3.325  11.219  -0.040  0.2505  0.5359  0.0619
  121MOL0     H16290   3.248  11.347  -0.138  0.7140 -0.5698 -0.2295
  121MOL0     H16291   3.050  11.210  -0.159 -1.3740 -2.8808  0.0807
  121MOL0     H16292   3.124  11.073  -0.092 -0.4172  1.6584  1.4220
  121MOL0     H16293   3.141  11.072  -0.356  2.2630  0.0559 -2.5624
  121MOL0     H16294   3.279  11.024  -0.255 -0.6784  0.7780  1.1354
  121MOL0     H16295   3.482  11.088  -0.211  1.8349  0.0897  0.2130
  121MOL0     H16296   3.716  11.060  -0.146  2.4517 -0.6312  2.4562
  121MOL0     H16297   3.821  11.201  -0.111 -0.1125 -0.4342  2.2723
  121MOL0     H16298   3.681  11.186  -0.015  1.1309  2.3651  1.1461
  121MOL0     H16299   3.845  11.676  -0.523 -1.2379 -0.4267  2.2477
  121MOL0     H16300   4.064  11.826  -0.573 -0.6834  1.3150  0.5141
  121MOL0     H16301   4.450  11.716  -0.387  0.1383  0.0398 -2.2350
  121MOL0     H16302   4.470  11.876  -0.462 -3.2004  1.8415 -1.8594
  121MOL0     H16303   4.343  11.996  -0.302  0.3078  0.0209  0.5431
  121MOL0     H16304   4.293  11.848  -0.215  0.4500  0.6545  2.8838
  121MOL0     H16305   4.493  12.031  -0.169 -0.0156  1.5996  0.2773
  121MOL0     H16306   4.587  11.915  -0.258 -1.2867 -1.8511 -1.7643
  121MOL0     H16307   4.404  11.843  -0.023 -1.0210 -1.6765  0.4569
  121MOL0     H16308   4.503  11.721  -0.111 -1.8899 -0.3032  1.4640
  121MOL0     H16309   4.709  11.853  -0.045 -0.0458  0.1571 -0.4854
  121MOL0     H16310   4.634  11.781   0.086  1.5620  1.7671  0.7186
  121MOL0     H16311   4.671  12.007   0.162  1.2862 -0.7066 -0.4507
  121MOL0     H16312   4.620  12.078   0.010 -0.1695 -1.5605 -1.0770
  121MOL0     H16313   4.428  11.908   0.165  1.9880  0.0008 -0.8844
  121MOL0     H16314   4.384  12.035   0.055 -0.7631 -2.4110 -0.6503
  121MOL0     H16315   4.479  12.208   0.205 -2.7669  1.4270  1.0236
  121MOL0     H16316   4.516  12.077   0.329  0.4041 -0.9731 -0.1147
  121MOL0     H16317   4.279  11.593  -0.291 -2.7858 -2.6891  3.9625
  121MOL0     H16318   4.068  11.449  -0.257 -0.2666 -1.7491 -1.8859
  121MOL0     H16319   3.626  11.483  -0.462 -0.0820 -1.8438 -1.7012
  121MOL0     H16320   3.393  11.409  -0.481 -0.7856  0.6418  0.7073
  121MOL0     H16321   2.891  11.282   0.657 -1.0758 -1.1633 -0.4251
  121MOL0     H16322   2.704  11.190   0.773 -0.4242  1.0306  0.7801
  121MOL0     H16323   2.564  11.226   1.302  1.2585 -0.8517  0.7039
  121MOL0     H16324   2.363  11.241   1.421  0.5531 -2.1526  0.9257
  121MOL0     H16325   2.025  11.325   1.402 -1.6369  0.7206 -3.5252
  121MOL0     H16326   2.069  11.266   1.245  0.4036  0.3979  0.2723
  121MOL0     H16327   1.877  11.134   1.437  1.7486 -1.0605  0.2317
  121MOL0     H16328   1.913  11.069   1.281  1.4689 -0.0095 -0.3072
  121MOL0     H16329   1.704  11.197   1.249 -1.1782  4.2450  0.6290
  121MOL0     H16330   1.826  11.299   1.186 -1.7782  3.3200  0.5609
  121MOL0     H16331   1.824  11.425   1.411 -1.8187  3.6439  0.5395
  121MOL0     H16332   1.670  11.340   1.447  0.3854  0.5049 -0.1419
  121MOL0     H16333   1.548  11.624   1.178 -2.4687 -1.6167 -1.4487
  121MOL0     H16334   2.147  11.013   1.129 -1.4829  2.7107 -0.1394
  121MOL0     H16335   2.352  11.009   0.987  2.4633  0.6596 -0.4256
  122MOL0     O16336   2.924   9.781   0.486  0.4366  0.3839 -1.1345
  122MOL0     C16337   2.891   9.900   0.481  0.5928 -0.7748 -0.1615
  122MOL0     O16338   2.792   9.958   0.557 -0.2563  0.7785 -0.1648
  122MOL0     C16339   2.728   9.864   0.641 -0.7550 -0.3340  0.2844
  122MOL0     C16340   2.769   9.857   0.770 -0.2403  0.4902 -0.4147
  122MOL0     C16341   2.715   9.757   0.850  0.2231 -0.1738 -0.2018
  122MOL0     C16342   2.623   9.661   0.798 -0.2735 -0.4467  0.0545
  122MOL0     O16343   2.596   9.560   0.886 -0.3261  0.3384  0.7740
  122MOL0     C16344   2.558   9.432   0.836  0.3516  0.1622  0.2252
  122MOL0     C16345   2.543   9.351   0.969 -0.1027  0.4208 -1.3882
  122MOL0     C16346   2.541   9.208   0.951 -0.5500 -0.0012  0.4504
  122MOL0     C16347   2.656   9.146   0.876  1.0537  0.2287 -0.6839
  122MOL0     C16348   2.686   9.006   0.916 -0.6124  0.0390  0.6621
  122MOL0     C16349   2.558   8.904   0.904  0.2320  0.1020 -0.0632
  122MOL0     C16350   2.562   8.779   0.990  0.5606  0.1095  0.4924
  122MOL0     C16351   2.564   8.804   1.142  0.8747  0.8702 -0.5124
  122MOL0     N16352   2.438   8.862   1.196 -0.1327  0.1411  0.6670
  122MOL0     C16353   2.325   8.795   1.229  0.5177 -0.3213 -0.5066
  122MOL0     C16354   2.248   8.893   1.294  0.3662 -0.0772  1.0977
  122MOL0     C16355   2.110   8.872   1.361  0.0835 -0.3226 -0.0100
  122MOL0     C16356   1.997   8.869   1.258  0.4556 -0.2385  0.5616
  122MOL0     C16357   1.853   8.842   1.313  0.5538  0.5319 -0.0965
  122MOL0     C16358   1.746   8.831   1.205 -0.1061 -0.5260 -0.0580
  122MOL0     O16359   1.763   8.745   1.087 -0.2977 -0.8154 -0.0375
  122MOL0     C16360   1.697   8.627   1.082 -0.4558  0.2116 -0.1824
  122MOL0     C16361   1.560   8.624   1.117 -0.5394 -0.1194  0.0769
  122MOL0     C16362   1.479   8.511   1.111 -0.0165 -0.4612  0.6744
  122MOL0     C16363   1.349   8.530   1.173  0.1694 -0.5934 -0.0723
  122MOL0     C16364   1.531   8.388   1.068  0.8269 -0.3357  0.1554
  122MOL0     C16365   1.453   8.257   1.066  0.3655 -0.2496 -0.0200
  122MOL0     O16366   1.314   8.253   1.081 -0.1809  0.3351 -0.6636
  122MOL0     C16367   1.280   8.120   1.081 -0.7785 -0.7353  0.2749
  122MOL0     C16368   1.293   8.038   1.194 -0.5899  1.1726  0.7167
  122MOL0     C16369   1.267   7.895   1.185 -0.1041  0.1655 -0.5161
  122MOL0     C16370   1.215   7.836   1.071 -0.0518  0.3123 -0.2212
  122MOL0     O16371   1.180   7.706   1.075 -0.1887 -0.2960  0.1261
  122MOL0     C16372   1.076   7.671   0.984 -0.5978  0.0262 -0.0213
  122MOL0     C16373   1.083   7.520   0.968 -0.7285  0.3015 -1.1003
  122MOL0     C16374   1.037   7.452   1.097 -0.4228 -0.8821 -0.0419
  122MOL0     C16375   1.016   7.295   1.077 -0.4736 -0.0633  0.9564
  122MOL0     C16376   0.873   7.262   1.027 -0.4919 -0.0042 -0.3073
  122MOL0     C16377   0.835   7.114   1.014 -0.2275 -0.1554 -0.1792
  122MOL0     C16378   0.733   7.073   0.906 -0.1245 -0.0225  1.6103
  122MOL0     C16379   0.588   7.079   0.951  0.4164  1.0710 -1.1711
  122MOL0    Cl16380   0.538   7.248   0.998 -0.2539 -0.3254  0.4081
  122MOL0     C16381   1.199   7.929   0.960  0.4546 -0.3695 -0.0900
  122MOL0     C16382   1.235   8.066   0.958 -0.5083 -0.5593 -0.3863
  122MOL0     O16383   1.528   8.155   1.050  0.3851 -0.2089 -0.0225
  122MOL0     C16384   1.666   8.386   1.030 -0.3655  0.6525  0.1490
  122MOL0     C16385   1.750   8.501   1.049  0.0513  0.2906  0.1082
  122MOL0     N16386   2.308   9.014   1.284  0.4297 -0.3146  0.4221
  122MOL0     N16387   2.425   8.992   1.233  0.1249  0.1872 -0.0127
  122MOL0     C16388   2.577   9.680   0.667 -0.2634 -0.4396  1.0314
  122MOL0     C16389   2.634   9.779   0.583 -0.1418  0.0688  0.4245
  122MOL0     C16390   2.983   9.991   0.400  0.1482  0.8861 -0.4232
  122MOL0     C16391   2.938  10.112   0.355  0.2201  0.4054  0.2861
  122MOL0     C16392   3.017  10.203   0.290 -0.5375 -0.3308 -0.0179
  122MOL0     C16393   3.155  10.177   0.263 -0.4829 -0.8040 -0.8644
  122MOL0     O16394   3.215  10.267   0.183 -0.5530 -0.1346  0.3653
  122MOL0     C16395   3.358  10.249   0.184  0.2434 -0.4742  0.3325
  122MOL0     C16396   3.403  10.373   0.117  0.4174 -0.5294  0.3440
  122MOL0     C16397   3.361  10.382  -0.035  0.1016 -0.5346 -0.3680
  122MOL0     C16398   3.441  10.497  -0.103  0.5881  0.5777 -0.1158
  122MOL0     C16399   3.437  10.506  -0.251 -1.5948 -0.7751  0.9928
  122MOL0     C16400   3.428  10.525  -0.378 -0.2752 -0.0192 -0.0808
  122MOL0     C16401   3.193  10.045   0.297 -0.2959 -0.1656 -0.0815
  122MOL0     C16402   3.115   9.957   0.373 -0.0355 -0.0277 -0.7054
  122MOL0     H16403   2.857   9.913   0.801  1.6971 -0.6822 -3.3420
  122MOL0     H16404   2.754   9.753   0.951  0.6990  1.0589 -0.3181
  122MOL0     H16405   2.471   9.432   0.770  0.7262 -2.1538 -0.3602
  122MOL0     H16406   2.642   9.396   0.775  0.8405  0.3554  0.7747
  122MOL0     H16407   2.625   9.378   1.036 -0.5063 -0.2142 -0.6122
  122MOL0     H16408   2.452   9.373   1.026  0.0447 -1.8833 -0.1033
  122MOL0     H16409   2.546   9.163   1.051 -0.3883  0.3257  0.5902
  122MOL0     H16410   2.446   9.174   0.908 -0.5194 -0.6889  0.9170
  122MOL0     H16411   2.624   9.153   0.771 -4.6225  1.6025  0.7759
  122MOL0     H16412   2.742   9.212   0.890  2.1608 -1.2731 -0.1601
  122MOL0     H16413   2.776   8.970   0.865 -0.1965  0.5863  0.9963
  122MOL0     H16414   2.697   9.001   1.025 -4.8110  0.7407  1.2868
  122MOL0     H16415   2.469   8.961   0.933  1.2642  1.9634 -0.4029
  122MOL0     H16416   2.547   8.866   0.802 -1.2630 -0.9438  0.4466
  122MOL0     H16417   2.471   8.722   0.966 -0.9307  2.3877  0.4940
  122MOL0     H16418   2.650   8.723   0.956  2.4691  4.0446 -1.6517
  122MOL0     H16419   2.648   8.857   1.189  1.0278  1.5124 -1.4858
  122MOL0     H16420   2.559   8.707   1.192 -0.8464  2.1544  2.0538
  122MOL0     H16421   2.300   8.690   1.231 -1.1675 -0.1613  5.0644
  122MOL0     H16422   2.104   8.783   1.424 -3.2977  0.0265  0.3587
  122MOL0     H16423   2.098   8.960   1.425 -0.1897  1.5369 -2.4533
  122MOL0     H16424   2.020   8.797   1.179 -0.6329  1.0441 -1.0072
  122MOL0     H16425   1.996   8.964   1.203  1.1113 -2.2127 -3.2485
  122MOL0     H16426   1.826   8.913   1.392 -0.0206  0.0640  0.1428
  122MOL0     H16427   1.841   8.744   1.359 -2.1233 -0.1548 -2.0044
  122MOL0     H16428   1.748   8.930   1.158  1.1635  0.7117  2.4300
  122MOL0     H16429   1.649   8.830   1.255  0.6269 -0.4323  1.4258
  122MOL0     H16430   1.508   8.714   1.148  0.2678  0.7501 -1.0440
  122MOL0     H16431   1.316   8.635   1.176 -0.9187 -0.8849 -1.1160
  122MOL0     H16432   1.270   8.474   1.122 -1.6128  3.4622 -2.2721
  122MOL0     H16433   1.362   8.496   1.276  1.3338 -0.1509 -0.0513
  122MOL0     H16434   1.337   8.064   1.290  4.6037 -1.7076 -0.4982
  122MOL0     H16435   1.287   7.840   1.277 -0.5904 -1.3821 -1.3067
  122MOL0     H16436   0.982   7.706   1.029 -0.5850 -1.2600  1.0492
  122MOL0     H16437   1.077   7.700   0.878  1.3076  0.4294  0.0814
  122MOL0     H16438   1.018   7.496   0.884  0.5654 -0.6862 -1.8548
  122MOL0     H16439   1.184   7.482   0.953  0.9978  2.8688  2.4324
  122MOL0     H16440   0.943   7.494   1.133 -0.2488  1.3390 -1.9487
  122MOL0     H16441   1.110   7.476   1.176  0.5435 -2.3821 -0.4312
  122MOL0     H16442   1.095   7.258   1.011 -1.9803 -3.0467  0.6145
  122MOL0     H16443   1.029   7.233   1.166 -0.4404 -1.6090 -0.0746
  122MOL0     H16444   0.880   7.305   0.926 -1.2762  1.2064  0.1418
  122MOL0     H16445   0.793   7.313   1.081 -0.1409  0.5369 -0.2907
  122MOL0     H16446   0.929   7.057   1.014 -0.5381 -1.0379  4.3329
  122MOL0     H16447   0.797   7.075   1.109  2.5806 -2.8793 -0.0059
  122MOL0     H16448   0.760   6.971   0.877  2.8201  1.5290 -1.8962
  122MOL0     H16449   0.747   7.141   0.822  2.3707  1.5119  3.1118
  122MOL0     H16450   0.570   7.003   1.027  0.4587 -0.2797 -2.4679
  122MOL0     H16451   0.521   7.046   0.871 -0.6186  0.6085 -0.1438
  122MOL0     H16452   1.162   7.895   0.864 -1.0496 -0.5548  0.5269
  122MOL0     H16453   1.246   8.129   0.870  0.1353  0.6402  0.5270
  122MOL0     H16454   1.720   8.296   1.005 -1.3294  0.2554 -0.5698
  122MOL0     H16455   1.853   8.490   1.017 -0.6506  0.0752 -2.2625
  122MOL0     H16456   2.523   9.603   0.612 -1.7652  1.3402 -0.0885
  122MOL0     H16457   2.610   9.791   0.478 -2.9161  0.0483  0.9890
  122MOL0     H16458   2.836  10.143   0.374 -0.5065 -1.6363  0.0631
  122MOL0     H16459   2.971  10.296   0.258 -2.1955 -1.3471 -0.7757
  122MOL0     H16460   3.393  10.234   0.286 -4.8287  0.1899  2.4750
  122MOL0     H16461   3.394  10.169   0.119  1.1757  2.3681 -2.9685
  122MOL0     H16462   3.511  10.380   0.130  0.3358 -0.0124  0.8018
  122MOL0     H16463   3.367  10.458   0.177  0.8796 -0.5099  0.5958
  122MOL0     H16464   3.253  10.399  -0.038  0.1681 -0.1391 -0.5321
  122MOL0     H16465   3.389  10.288  -0.084  0.8272  1.1195 -3.3006
  122MOL0     H16466   3.547  10.489  -0.077 -0.1347 -0.8791  2.7508
  122MOL0     H16467   3.408  10.590  -0.056  1.8284 -0.4371  3.0318
  122MOL0     H16468   3.420  10.549  -0.482  0.2124  0.3707 -0.0359
  122MOL0     H16469   3.297  10.024   0.276  0.0194 -0.0971  1.2836
  122MOL0     H16470   3.153   9.860   0.402  0.9285  0.8647  1.2049
  123MOL0     O16471   1.217   3.474   8.829 -0.2068  0.6501 -0.0730
  123MOL0     C16472   1.238   3.517   8.714 -0.4851 -0.3110 -0.7186
  123MOL0     O16473   1.168   3.616   8.654  0.5047  0.0300  0.1838
  123MOL0     C16474   1.049   3.672   8.698 -0.0952 -0.1196 -0.0415
  123MOL0     C16475   0.963   3.618   8.791  0.5822  0.2118 -0.5047
  123MOL0     C16476   0.855   3.684   8.837  0.4209  1.0533 -0.2894
  123MOL0     C16477   0.824   3.807   8.782 -0.0267  0.1505 -0.2050
  123MOL0     O16478   0.710   3.883   8.804 -0.1486  0.0772 -0.2650
  123MOL0     C16479   0.633   3.872   8.929 -0.0562 -0.3343  0.3649
  123MOL0     C16480   0.689   3.969   9.023  0.5612  0.7291 -0.1538
  123MOL0     C16481   0.660   3.944   9.171 -0.2102  0.2177  0.1049
  123MOL0     C16482   0.511   3.912   9.198 -0.3770 -0.5253  0.2155
  123MOL0     C16483   0.481   3.938   9.360  0.6147  0.8372 -0.5041
  123MOL0     C16484   0.554   3.848   9.461 -0.1889  0.2248  0.4394
  123MOL0     C16485   0.521   3.895   9.604 -0.2956 -0.3078  0.0297
  123MOL0     C16486   0.531   3.771   9.703 -0.2653 -0.4416 -0.0977
  123MOL0     N16487   0.668   3.712   9.683  0.7059 -0.1412  0.3222
  123MOL0     C16488   0.791   3.773   9.707  0.7514  0.4254 -0.1121
  123MOL0     C16489   0.884   3.681   9.690 -0.0783  0.8712 -0.3184
  123MOL0     C16490   1.036   3.695   9.707 -0.3462 -0.2064  0.4435
  123MOL0     C16491   1.103   3.607   9.801 -0.0189 -0.7959 -0.5423
  123MOL0     C16492   1.080   3.669   9.942  0.3321 -0.1268  0.2920
  123MOL0     C16493   1.166   3.608  10.055 -0.5422  0.3619  0.5744
  123MOL0     O16494   1.135   3.461  10.046 -0.2666 -0.0291 -0.1508
  123MOL0     C16495   1.179   3.382  10.155  0.5630  0.5707  0.4105
  123MOL0     C16496   1.206   3.414  10.285  0.3042 -0.2146 -0.0097
  123MOL0     C16497   1.247   3.321  10.385 -0.0893 -0.5705  0.4965
  123MOL0     C16498   1.272   3.384  10.516 -1.0686  0.3791  0.2142
  123MOL0     C16499   1.234   3.186  10.352  0.2870 -0.1755 -0.4553
  123MOL0     C16500   1.267   3.076  10.446  0.5898  0.0412  0.0754
  123MOL0     O16501   1.255   2.952  10.402  0.0499  0.4561  0.7692
  123MOL0     C16502   1.326   2.845  10.466 -0.6081  0.0313  0.2487
  123MOL0     C16503   1.444   2.869  10.545 -0.1400 -0.8883 -0.6864
  123MOL0     C16504   1.516   2.768  10.597 -0.1235  0.0386  0.4904
  123MOL0     C16505   1.464   2.636  10.598  0.2545  0.1327 -0.1141
  123MOL0     O16506   1.527   2.525  10.656  0.2362  0.0712  0.0521
  123MOL0     C16507   1.661   2.537  10.701 -0.1944  0.0912 -0.7230
  123MOL0     C16508   1.726   2.408  10.756  0.2635  0.0291  0.7746
  123MOL0     C16509   1.875   2.447  10.780 -0.0391  0.3683 -0.8595
  123MOL0     C16510   1.945   2.342  10.874 -0.6018 -0.5655  0.4348
  123MOL0     C16511   2.030   2.406  10.981  0.1787  0.2720 -0.3757
  123MOL0     C16512   2.111   2.310  11.059 -1.3735 -0.6701  0.2345
  123MOL0     C16513   2.146   2.375  11.193  0.2417  0.7102  0.9768
  123MOL0     C16514   2.245   2.292  11.275 -0.0616 -0.0440 -0.2992
  123MOL0    Cl16515   2.197   2.124  11.277 -0.4178 -0.2664  0.2092
  123MOL0     C16516   1.355   2.607  10.514 -0.0598  0.4689  0.4254
  123MOL0     C16517   1.289   2.710  10.451 -0.2146 -0.3579 -0.0891
  123MOL0     O16518   1.296   3.103  10.562 -0.5363 -0.7130 -0.2837
  123MOL0     C16519   1.209   3.154  10.216  0.4919 -0.1254  0.1615
  123MOL0     C16520   1.192   3.248  10.117 -0.3679 -0.0370  0.0399
  123MOL0     N16521   0.820   3.560   9.662  0.0146 -0.5779  0.2437
  123MOL0     N16522   0.692   3.581   9.658  0.8987  0.6753 -0.0945
  123MOL0     C16523   0.903   3.864   8.692  0.3091 -0.3846 -0.5146
  123MOL0     C16524   1.019   3.798   8.644  0.9711  0.0313  0.6133
  123MOL0     C16525   1.371   3.478   8.660 -0.0988  0.3340 -0.5564
  123MOL0     C16526   1.465   3.401   8.735 -0.5618  0.0627  0.5363
  123MOL0     C16527   1.592   3.379   8.676  0.0849  0.4088  0.0397
  123MOL0     C16528   1.620   3.422   8.542  0.6096  0.7494  0.4326
  123MOL0     O16529   1.750   3.378   8.499  0.4674 -0.0394 -0.1526
  123MOL0     C16530   1.787   3.403   8.359 -0.6951 -0.1919  0.2048
  123MOL0     C16531   1.923   3.343   8.326  0.0936 -0.0943  0.0855
  123MOL0     C16532   2.046   3.414   8.389  1.3935 -0.1799  1.9454
  123MOL0     C16533   2.161   3.315   8.420 -0.7733 -0.3898 -0.5223
  123MOL0     C16534   2.212   3.243   8.300 -0.6536  0.1784  0.5119
  123MOL0     C16535   2.247   3.178   8.205  0.3185  0.2469 -0.2052
  123MOL0     C16536   1.525   3.495   8.469  0.4256 -0.4790  0.3783
  123MOL0     C16537   1.402   3.527   8.534  0.3583 -0.1059  0.0581
  123MOL0     H16538   0.980   3.523   8.839  2.6402 -0.4242 -2.3223
  123MOL0     H16539   0.794   3.632   8.910  2.6336  0.0080  0.9305
  123MOL0     H16540   0.527   3.894   8.910 -0.4413 -0.5572  2.1239
  123MOL0     H16541   0.638   3.772   8.973  1.2381 -1.1592 -1.5136
  123MOL0     H16542   0.798   3.964   9.018  0.6517  2.5535 -0.9508
  123MOL0     H16543   0.666   4.074   9.002 -1.6077  0.2249 -0.5541
  123MOL0     H16544   0.721   3.859   9.203  3.1285  2.2087 -0.4632
  123MOL0     H16545   0.687   4.036   9.224  0.1642 -1.4203  3.0136
  123MOL0     H16546   0.452   3.990   9.149  0.3296  0.3878  0.7804
  123MOL0     H16547   0.488   3.808   9.174 -1.9607 -0.0543 -0.4363
  123MOL0     H16548   0.510   4.042   9.378 -0.3907  1.2231 -1.0122
  123MOL0     H16549   0.375   3.940   9.386  0.2178  1.5134 -1.9973
  123MOL0     H16550   0.506   3.750   9.454 -1.3541  0.6630  1.9039
  123MOL0     H16551   0.662   3.844   9.441  0.3329  3.1046  2.2282
  123MOL0     H16552   0.593   3.972   9.634 -1.3188 -0.1659  2.2503
  123MOL0     H16553   0.418   3.931   9.607 -0.5447 -0.6870 -2.0968
  123MOL0     H16554   0.462   3.694   9.667 -0.5779 -0.1996 -0.0165
  123MOL0     H16555   0.516   3.796   9.809 -1.5591 -0.6547 -0.2174
  123MOL0     H16556   0.811   3.876   9.736 -1.6050  1.1744 -0.9352
  123MOL0     H16557   1.096   3.690   9.615  1.1718 -2.1024  1.4692
  123MOL0     H16558   1.051   3.800   9.734  2.4678  0.0355 -1.5663
  123MOL0     H16559   1.208   3.596   9.773 -0.4955 -3.1008 -1.7023
  123MOL0     H16560   1.059   3.507   9.801 -0.2465 -0.6982 -0.8434
  123MOL0     H16561   0.971   3.665   9.953  0.4763  0.9135  2.8200
  123MOL0     H16562   1.103   3.776   9.931 -3.0241  0.6012 -0.9256
  123MOL0     H16563   1.139   3.645  10.154 -2.3055  0.1583  0.2084
  123MOL0     H16564   1.271   3.624  10.029 -0.8480 -1.2853 -1.9428
  123MOL0     H16565   1.184   3.517  10.309 -1.7611  0.1513 -2.9295
  123MOL0     H16566   1.192   3.342  10.577 -0.2433 -0.3710  0.8177
  123MOL0     H16567   1.372   3.346  10.541  0.1558  2.8109 -0.5633
  123MOL0     H16568   1.274   3.493  10.529  2.2622  0.6845 -1.6324
  123MOL0     H16569   1.481   2.970  10.559 -1.8616 -0.6115  2.8384
  123MOL0     H16570   1.613   2.798  10.635  2.3399 -4.6871 -1.2258
  123MOL0     H16571   1.724   2.572  10.618 -2.0862 -2.2293 -3.3431
  123MOL0     H16572   1.659   2.613  10.779  1.5779  0.1354 -0.6831
  123MOL0     H16573   1.688   2.377  10.854  1.6821  1.5664  1.8839
  123MOL0     H16574   1.727   2.341  10.670 -3.6534  1.1404 -0.3378
  123MOL0     H16575   1.884   2.548  10.819  0.4776 -0.3084  0.9019
  123MOL0     H16576   1.931   2.455  10.686 -1.2553 -0.3444 -1.6735
  123MOL0     H16577   1.869   2.271  10.908 -1.9075  0.2167 -0.8028
  123MOL0     H16578   2.017   2.285  10.815 -0.5952 -0.4851  0.3652
  123MOL0     H16579   1.954   2.448  11.048 -0.8386 -0.3226 -1.1248
  123MOL0     H16580   2.087   2.488  10.937  1.9836 -1.1633 -0.8437
  123MOL0     H16581   2.054   2.220  11.082 -0.2285 -1.1767  1.2351
  123MOL0     H16582   2.206   2.291  11.007 -1.0889 -2.5429  1.3485
  123MOL0     H16583   2.050   2.373  11.246 -0.4747  0.4248 -0.2944
  123MOL0     H16584   2.184   2.476  11.172  3.2764 -0.4921  0.2119
  123MOL0     H16585   2.240   2.318  11.381  0.0351 -0.1560 -0.2661
  123MOL0     H16586   2.348   2.301  11.239  0.8496 -0.8584  1.9332
  123MOL0     H16587   1.307   2.511  10.500  0.9949 -0.2416  1.4951
  123MOL0     H16588   1.201   2.688  10.391  0.2951  1.6935 -1.7259
  123MOL0     H16589   1.201   3.052  10.181  3.9840 -0.0021 -1.4510
  123MOL0     H16590   1.176   3.227  10.011 -1.6146 -0.5881  0.3175
  123MOL0     H16591   0.885   3.964   8.654  0.5807 -1.0881 -2.6552
  123MOL0     H16592   1.098   3.845   8.586 -0.8099  0.2644 -1.7779
  123MOL0     H16593   1.429   3.358   8.828 -0.8602 -1.5437 -0.2939
  123MOL0     H16594   1.661   3.311   8.725 -0.6707  1.2057  2.3389
  123MOL0     H16595   1.719   3.341   8.300  2.7610 -2.1319 -2.0683
  123MOL0     H16596   1.764   3.509   8.341 -1.7346 -0.4803 -0.2711
  123MOL0     H16597   1.921   3.361   8.218 -4.8775  0.8631  0.0802
  123MOL0     H16598   1.915   3.238   8.355 -0.9648 -0.9511 -2.9146
  123MOL0     H16599   2.017   3.456   8.485 -1.5441  2.6781  0.0018
  123MOL0     H16600   2.080   3.494   8.322 -0.5309 -0.2177  0.8780
  123MOL0     H16601   2.132   3.241   8.495  2.7963 -0.7550  0.6741
  123MOL0     H16602   2.244   3.367   8.469 -0.4533 -1.2864 -0.0971
  123MOL0     H16603   2.257   3.124   8.114 -1.1049  1.1101 -0.9111
  123MOL0     H16604   1.535   3.518   8.363  0.1694  1.6558  0.7764
  123MOL0     H16605   1.332   3.588   8.478 -0.4235  0.6891  1.8424
  124MOL0     O16606   5.825   9.623  10.509  0.2608  0.0089  0.1294
  124MOL0     C16607   5.818   9.553  10.612 -0.4867 -0.5017  0.1752
  124MOL0     O16608   5.728   9.572  10.718 -0.0808 -0.0045  0.2028
  124MOL0     C16609   5.609   9.634  10.684 -0.5589 -0.1925 -0.6610
  124MOL0     C16610   5.596   9.768  10.642 -0.1925  0.4042  0.8570
  124MOL0     C16611   5.475   9.821  10.607 -0.5036  1.1050  0.1669
  124MOL0     C16612   5.361   9.739  10.615 -0.3926 -0.1132  0.8072
  124MOL0     O16613   5.240   9.790  10.567 -0.9994 -0.6170  0.2151
  124MOL0     C16614   5.138   9.690  10.550 -0.3396 -0.7705  0.2243
  124MOL0     C16615   5.020   9.752  10.477  0.9264 -0.6520 -0.3727
  124MOL0     C16616   4.896   9.660  10.489  0.6726  0.5572 -0.7164
  124MOL0     C16617   4.821   9.663  10.633 -0.5928  0.5088 -0.9859
  124MOL0     C16618   4.718   9.545  10.643  0.1784  0.5396 -0.0987
  124MOL0     C16619   4.660   9.553  10.784 -0.4814 -0.3716  1.5622
  124MOL0     C16620   4.747   9.498  10.903 -0.1879 -0.6555  0.3342
  124MOL0     C16621   4.685   9.508  11.042 -0.0357 -0.1308 -0.4453
  124MOL0     N16622   4.560   9.443  11.043 -0.3172  0.9485  0.1883
  124MOL0     C16623   4.551   9.310  11.070 -0.7309  0.6664 -0.1680
  124MOL0     C16624   4.418   9.288  11.083  0.1902 -0.1145 -0.4666
  124MOL0     C16625   4.361   9.159  11.108  0.4903  0.1680 -0.7245
  124MOL0     C16626   4.335   9.089  10.977  0.8600  0.8538 -0.2043
  124MOL0     C16627   4.193   9.127  10.921 -0.4061  0.3670  0.0741
  124MOL0     C16628   4.176   9.056  10.791 -0.1329  0.6509  0.3271
  124MOL0     O16629   4.168   8.905  10.800 -0.5994  0.2634  0.5178
  124MOL0     C16630   4.050   8.848  10.832  0.1267 -1.5198 -0.3445
  124MOL0     C16631   3.931   8.918  10.860  0.0975  0.3147  0.2302
  124MOL0     C16632   3.810   8.849  10.877 -0.2038 -0.5050  0.0158
  124MOL0     C16633   3.687   8.937  10.900  0.2271 -0.0285  0.2362
  124MOL0     C16634   3.807   8.706  10.865  0.5340  0.0546 -0.0259
  124MOL0     C16635   3.672   8.632  10.864  1.7247 -0.7182  0.5687
  124MOL0     O16636   3.656   8.523  10.789 -0.0827  0.0965  0.0378
  124MOL0     C16637   3.533   8.452  10.800  0.4909 -0.1034  0.3759
  124MOL0     C16638   3.503   8.388  10.912  1.3377 -0.4702 -0.8365
  124MOL0     C16639   3.382   8.318  10.926 -1.2121 -0.1333  0.3832
  124MOL0     C16640   3.294   8.315  10.815 -0.0416 -0.7443  0.5976
  124MOL0     O16641   3.183   8.236  10.835  0.4844 -0.3856 -0.2952
  124MOL0     C16642   3.137   8.172  10.709  0.7330  0.3489 -0.8377
  124MOL0     C16643   3.049   8.051  10.739 -0.7402 -0.0796  0.4220
  124MOL0     C16644   3.131   7.941  10.805  0.6820  1.1212  0.0052
  124MOL0     C16645   3.034   7.840  10.864 -0.7489  0.4710 -0.1533
  124MOL0     C16646   3.112   7.719  10.924  0.0524  0.6790  0.0653
  124MOL0     C16647   3.110   7.606  10.822 -0.2012  0.0662  0.8060
  124MOL0     C16648   3.011   7.507  10.858 -0.6888 -0.6747 -0.2330
  124MOL0     C16649   2.976   7.404  10.743  0.2394  0.2140  0.2670
  124MOL0    Cl16650   2.866   7.280  10.816  0.7226  0.0510 -0.1178
  124MOL0     C16651   3.320   8.382  10.686 -0.0532 -0.1007 -0.5947
  124MOL0     C16652   3.447   8.450  10.692  0.1331  0.4966  0.2364
  124MOL0     O16653   3.586   8.674  10.944  0.0054  0.1209 -0.9019
  124MOL0     C16654   3.924   8.642  10.835 -0.8179  0.2975 -0.3632
  124MOL0     C16655   4.041   8.712  10.823  0.5125 -0.1827  0.2552
  124MOL0     N16656   4.351   9.403  11.047  0.8458 -0.5651 -1.0941
  124MOL0     N16657   4.437   9.496  11.021  0.3851 -0.9094  1.2003
  124MOL0     C16658   5.378   9.606  10.661  0.3449 -0.8902  0.2540
  124MOL0     C16659   5.499   9.556  10.701  0.2524 -0.1557 -0.8060
  124MOL0     C16660   5.911   9.442  10.632 -0.2302  0.1541  0.1721
  124MOL0     C16661   5.992   9.404  10.520 -0.0027  0.4782 -0.1277
  124MOL0     C16662   6.079   9.299  10.516  0.1429  0.5311 -0.5745
  124MOL0     C16663   6.097   9.217  10.629 -0.4383 -0.2085 -0.1534
  124MOL0     O16664   6.200   9.125  10.634 -0.0726  0.0576 -0.4451
  124MOL0     C16665   6.216   9.042  10.753 -0.6855  0.5630 -0.6557
  124MOL0     C16666   6.289   8.911  10.707 -0.5091 -0.3289  0.1669
  124MOL0     C16667   6.427   8.940  10.635  0.8653  0.1857 -0.5284
  124MOL0     C16668   6.518   9.033  10.706 -0.2859  0.2921 -0.6640
  124MOL0     C16669   6.533   8.989  10.845  0.1396 -0.3456  0.3181
  124MOL0     C16670   6.535   8.960  10.963 -0.3878 -0.0452 -0.3630
  124MOL0     C16671   6.010   9.250  10.745 -0.0201  0.1113 -0.2407
  124MOL0     C16672   5.915   9.357  10.740 -0.4163  0.3052 -0.6274
  124MOL0     H16673   5.688   9.826  10.635  1.0789 -1.6768 -1.2433
  124MOL0     H16674   5.464   9.922  10.569  0.0860  0.5439 -1.5893
  124MOL0     H16675   5.172   9.595  10.508  3.4538  1.1022 -1.4692
  124MOL0     H16676   5.098   9.672  10.650  1.0738 -0.2060  0.9322
  124MOL0     H16677   4.995   9.849  10.522 -1.0739 -1.0990 -0.4129
  124MOL0     H16678   5.038   9.761  10.369  1.3635 -4.9622 -0.8459
  124MOL0     H16679   4.815   9.683  10.419 -0.9696 -0.3176  0.8401
  124MOL0     H16680   4.942   9.564  10.461  1.1022  1.2844 -2.6998
  124MOL0     H16681   4.889   9.666  10.719 -0.8017 -0.9698 -0.7439
  124MOL0     H16682   4.778   9.763  10.640 -1.3305  0.0826  1.8790
  124MOL0     H16683   4.634   9.558  10.574 -0.1056  1.5335  0.4220
  124MOL0     H16684   4.770   9.449  10.630 -1.5600 -0.3271 -1.0646
  124MOL0     H16685   4.635   9.658  10.801  2.8713  1.4002 -2.5717
  124MOL0     H16686   4.568   9.493  10.778  0.0208 -1.0143 -0.5713
  124MOL0     H16687   4.778   9.397  10.878 -0.3713 -1.0927  1.7861
  124MOL0     H16688   4.835   9.562  10.915 -0.8680  0.7139 -1.5133
  124MOL0     H16689   4.678   9.612  11.075 -0.4654 -0.5354  0.7669
  124MOL0     H16690   4.739   9.460  11.124 -4.3157 -1.0889  2.1076
  124MOL0     H16691   4.633   9.243  11.094  0.9450  2.1825 -1.3898
  124MOL0     H16692   4.437   9.100  11.159  2.4826 -0.0683 -3.7517
  124MOL0     H16693   4.270   9.172  11.168  0.6392 -1.7120 -0.0109
  124MOL0     H16694   4.332   8.984  11.007  1.0574  1.0958  0.6856
  124MOL0     H16695   4.415   9.099  10.904  1.3288 -1.3921 -0.0483
  124MOL0     H16696   4.171   9.234  10.910 -2.1577 -0.0810 -1.1105
  124MOL0     H16697   4.118   9.086  10.989 -0.9948 -1.8816 -1.8187
  124MOL0     H16698   4.258   9.081  10.722  2.8829  0.3372  3.5112
  124MOL0     H16699   4.086   9.090  10.740 -0.4972 -0.3326  0.2928
  124MOL0     H16700   3.930   9.024  10.884 -1.2993  0.7015 -1.4010
  124MOL0     H16701   3.591   8.901  10.862 -1.0845  1.9633  1.5421
  124MOL0     H16702   3.670   8.961  11.005 -1.5120  0.2053 -0.0640
  124MOL0     H16703   3.699   9.032  10.846 -6.3702  0.8345 -0.5551
  124MOL0     H16704   3.567   8.416  10.995  0.0293  3.2786 -0.9421
  124MOL0     H16705   3.356   8.262  11.016  0.4505  1.0953  1.6831
  124MOL0     H16706   3.082   8.248  10.653 -0.5456 -0.6866 -1.0398
  124MOL0     H16707   3.216   8.141  10.641 -0.8828 -0.7207 -2.3344
  124MOL0     H16708   2.968   8.089  10.801  1.3717  1.8349  2.1632
  124MOL0     H16709   3.016   8.016  10.641  1.5844  1.8625 -1.1622
  124MOL0     H16710   3.183   7.992  10.887  1.8220 -1.4266  0.9926
  124MOL0     H16711   3.203   7.892  10.739 -0.4859  0.1059 -0.5554
  124MOL0     H16712   2.964   7.885  10.935 -1.4739  0.5698 -0.9139
  124MOL0     H16713   2.969   7.808  10.782  0.1077 -1.6096 -0.0630
  124MOL0     H16714   3.067   7.675  11.013  0.9654 -0.1406  0.1416
  124MOL0     H16715   3.215   7.751  10.939  1.2359 -2.0949 -1.3628
  124MOL0     H16716   3.089   7.645  10.722 -1.5855 -2.2133  0.1171
  124MOL0     H16717   3.211   7.563  10.815 -0.3635 -0.3331  0.8670
  124MOL0     H16718   2.927   7.568  10.892  0.9162  0.6767  1.4574
  124MOL0     H16719   3.031   7.454  10.951  0.4761 -0.1587 -0.1754
  124MOL0     H16720   3.070   7.364  10.703  0.0823  0.8391 -0.7606
  124MOL0     H16721   2.933   7.455  10.656  0.5579 -1.7271 -1.1060
  124MOL0     H16722   3.257   8.373  10.598  1.4908 -0.0939 -1.7359
  124MOL0     H16723   3.490   8.501  10.606 -1.4942  0.3611 -0.6962
  124MOL0     H16724   3.932   8.534  10.821  2.5999  0.5143 -0.9815
  124MOL0     H16725   4.130   8.654  10.801 -0.9675 -2.9547  1.0963
  124MOL0     H16726   5.296   9.535  10.668 -1.8750  1.2018 -2.2181
  124MOL0     H16727   5.504   9.459  10.749  0.7108 -0.3388 -1.2117
  124MOL0     H16728   6.000   9.466  10.432  0.1934 -0.3648 -0.7135
  124MOL0     H16729   6.136   9.271  10.428  1.1649  0.6236  0.0448
  124MOL0     H16730   6.259   9.103  10.833  0.3542 -1.3431  0.3065
  124MOL0     H16731   6.115   9.017  10.786 -0.8553  0.3033 -1.3430
  124MOL0     H16732   6.217   8.861  10.642  1.5087 -4.6890  0.9218
  124MOL0     H16733   6.297   8.841  10.791  0.2026 -2.7691 -1.8201
  124MOL0     H16734   6.403   8.972  10.533 -0.1031  1.5258  0.0840
  124MOL0     H16735   6.472   8.841  10.627 -2.1715 -1.1747 -3.1715
  124MOL0     H16736   6.475   9.132  10.723  0.4182  0.1924  2.0129
  124MOL0     H16737   6.612   9.026  10.650 -0.3407 -0.6128 -0.6670
  124MOL0     H16738   6.536   8.926  11.065 -0.8353  1.5389  0.1903
  124MOL0     H16739   6.021   9.201  10.841 -1.5163  2.5858  1.2991
  124MOL0     H16740   5.855   9.377  10.827  1.1963 -0.7106  0.7895
  125MOL0     O16741   3.312   3.358   2.411  0.1988 -0.3724 -0.0564
  125MOL0     C16742   3.363   3.398   2.514 -0.2279  0.6341 -0.0681
  125MOL0     O16743   3.329   3.351   2.630  0.8910 -0.7073 -1.2301
  125MOL0     C16744   3.304   3.213   2.646  0.5326  0.9695  0.1799
  125MOL0     C16745   3.363   3.117   2.565 -0.0673  0.5094  0.3361
  125MOL0     C16746   3.324   2.984   2.574 -0.3795  0.4216 -0.1609
  125MOL0     C16747   3.223   2.942   2.662  0.6515  0.4868  0.5146
  125MOL0     O16748   3.173   2.812   2.663  0.0175 -0.5896  0.6553
  125MOL0     C16749   3.217   2.714   2.555  1.1979 -0.0598  0.3720
  125MOL0     C16750   3.130   2.581   2.562 -0.2063  1.2396  0.4279
  125MOL0     C16751   3.146   2.504   2.694 -0.7728  0.2081 -0.5818
  125MOL0     C16752   3.286   2.441   2.693 -0.1312 -0.1112  0.3699
  125MOL0     C16753   3.277   2.342   2.806 -0.3228 -0.0740 -0.3278
  125MOL0     C16754   3.409   2.271   2.812 -0.1851 -0.0207 -0.0579
  125MOL0     C16755   3.419   2.158   2.919  0.2936  0.2563 -0.4807
  125MOL0     C16756   3.333   2.033   2.869  0.9700 -0.1426  0.4749
  125MOL0     N16757   3.376   1.915   2.936 -0.4194  0.0469  0.2978
  125MOL0     C16758   3.424   1.800   2.877  1.2353 -0.6000  0.4538
  125MOL0     C16759   3.413   1.702   2.968 -1.0614 -0.4936 -1.2365
  125MOL0     C16760   3.453   1.561   2.952 -0.6280  0.8274  1.3944
  125MOL0     C16761   3.611   1.535   2.972 -0.0528  0.3270  0.1742
  125MOL0     C16762   3.637   1.543   3.124 -0.0963 -0.1688  0.1831
  125MOL0     C16763   3.654   1.680   3.176 -0.1862 -0.2885 -0.8961
  125MOL0     O16764   3.758   1.686   3.265 -0.1894  0.2017 -0.1975
  125MOL0     C16765   3.797   1.809   3.312 -0.4177  0.7976 -0.5209
  125MOL0     C16766   3.741   1.929   3.281  0.8884  0.6100  0.6815
  125MOL0     C16767   3.783   2.057   3.334 -0.1141 -1.0840  0.6686
  125MOL0     C16768   3.722   2.188   3.271  0.7338  0.5699  0.8463
  125MOL0     C16769   3.889   2.057   3.424 -0.6638  0.4229 -1.1490
  125MOL0     C16770   3.962   2.172   3.476  0.0435  0.4365  0.2786
  125MOL0     O16771   4.032   2.152   3.591 -1.0672 -1.4238 -0.6920
  125MOL0     C16772   4.094   2.261   3.643 -0.2370 -0.8308 -0.0606
  125MOL0     C16773   4.034   2.380   3.684  0.3229 -0.2160  0.0862
  125MOL0     C16774   4.115   2.479   3.754  1.0968 -0.2210  0.3238
  125MOL0     C16775   4.251   2.465   3.768  0.3123 -1.2740  0.6196
  125MOL0     O16776   4.323   2.564   3.826 -0.2926  0.6142 -0.3464
  125MOL0     C16777   4.355   2.671   3.739  0.3354  0.1215 -0.5898
  125MOL0     C16778   4.505   2.664   3.717  0.3743 -0.1438  0.7831
  125MOL0     C16779   4.542   2.743   3.597 -0.2270 -0.9134  1.1913
  125MOL0     C16780   4.667   2.829   3.630  0.4316  0.4509 -0.4595
  125MOL0     C16781   4.729   2.895   3.500 -0.5083 -0.1189 -0.4612
  125MOL0     C16782   4.868   2.956   3.520  0.8248 -0.1700  0.5603
  125MOL0     C16783   4.973   2.849   3.542 -0.2783  0.2561  0.6158
  125MOL0     C16784   5.116   2.896   3.510 -0.0482 -0.3033 -0.2597
  125MOL0    Cl16785   5.235   2.768   3.511  0.9714  0.4232 -0.0851
  125MOL0     C16786   4.309   2.345   3.733 -0.7660 -0.5664  0.9766
  125MOL0     C16787   4.229   2.248   3.678 -0.9585  0.4489  0.3622
  125MOL0     O16788   3.953   2.274   3.416  0.0919  1.1805 -0.4020
  125MOL0     C16789   3.937   1.930   3.475  0.0272  0.5502  0.5754
  125MOL0     C16790   3.893   1.809   3.413 -0.2338  0.3111 -0.4617
  125MOL0     N16791   3.369   1.762   3.083 -1.4578  0.3347 -0.2500
  125MOL0     N16792   3.345   1.891   3.068 -0.3203  0.3903  0.0063
  125MOL0     C16793   3.174   3.039   2.747  0.8062 -0.6294  0.2182
  125MOL0     C16794   3.213   3.176   2.744 -0.8496  0.4016 -0.0083
  125MOL0     C16795   3.447   3.521   2.505  0.3049 -0.3519 -0.1631
  125MOL0     C16796   3.421   3.605   2.397  0.0662 -0.2286 -0.7795
  125MOL0     C16797   3.503   3.727   2.392 -0.1711 -0.4051 -0.5073
  125MOL0     C16798   3.590   3.767   2.504  0.4888  0.3467  0.7089
  125MOL0     O16799   3.663   3.875   2.494 -0.3563  0.3040  0.2340
  125MOL0     C16800   3.717   3.933   2.614 -0.2016 -0.5471  1.1270
  125MOL0     C16801   3.749   4.077   2.576  0.2208  0.4760 -0.3191
  125MOL0     C16802   3.635   4.168   2.612  0.3561  0.2753 -0.3822
  125MOL0     C16803   3.666   4.323   2.609  1.2437  1.0249  0.6444
  125MOL0     C16804   3.543   4.397   2.639 -0.1871 -0.0843 -0.6435
  125MOL0     C16805   3.445   4.448   2.694  0.8543  0.4573  0.0064
  125MOL0     C16806   3.619   3.671   2.597  1.5693  0.6191 -0.4435
  125MOL0     C16807   3.542   3.550   2.600 -0.4052  0.3274 -0.8610
  125MOL0     H16808   3.440   3.143   2.493 -0.5909  2.8592  0.5437
  125MOL0     H16809   3.381   2.909   2.520  1.0910  0.5310  1.1387
  125MOL0     H16810   3.185   2.757   2.460 -3.1111 -0.1559  1.5667
  125MOL0     H16811   3.325   2.700   2.565  2.0440  3.9546 -1.3241
  125MOL0     H16812   3.023   2.601   2.551 -1.1505 -3.4013 -1.4906
  125MOL0     H16813   3.166   2.531   2.471  2.0698  1.2672  1.2641
  125MOL0     H16814   3.137   2.563   2.786  0.9068  0.7902 -0.7575
  125MOL0     H16815   3.065   2.431   2.699 -1.1703  0.7063  3.2882
  125MOL0     H16816   3.303   2.397   2.594 -0.3396  0.9536 -0.1475
  125MOL0     H16817   3.358   2.519   2.720 -1.0431  0.9267 -0.1174
  125MOL0     H16818   3.258   2.392   2.902 -0.9732  0.1279 -0.5530
  125MOL0     H16819   3.194   2.273   2.791 -1.1023  0.9658 -0.9377
  125MOL0     H16820   3.436   2.229   2.715  0.9499 -2.3272  1.1633
  125MOL0     H16821   3.492   2.341   2.819  0.3687 -0.4846 -1.6336
  125MOL0     H16822   3.521   2.123   2.940  1.1519  1.1008 -2.8657
  125MOL0     H16823   3.374   2.186   3.014  0.2348 -0.1680 -0.3834
  125MOL0     H16824   3.348   2.026   2.761  4.1665 -2.2231  0.9203
  125MOL0     H16825   3.225   2.046   2.885  0.5991 -0.8384 -1.2077
  125MOL0     H16826   3.446   1.792   2.771 -1.8975 -3.4729 -0.1663
  125MOL0     H16827   3.397   1.494   3.018 -0.9987  1.1892  1.4497
  125MOL0     H16828   3.444   1.533   2.847  4.4805 -1.1528  1.1875
  125MOL0     H16829   3.675   1.612   2.926  0.8916 -1.1323 -1.0302
  125MOL0     H16830   3.638   1.437   2.933  1.0154  0.1334  1.3277
  125MOL0     H16831   3.735   1.496   3.142  0.1369 -0.1979 -1.1088
  125MOL0     H16832   3.560   1.490   3.181 -0.1014  0.2569  0.5785
  125MOL0     H16833   3.564   1.711   3.230 -0.2418  1.0611 -1.7050
  125MOL0     H16834   3.659   1.749   3.092  3.1577 -1.6848 -1.9868
  125MOL0     H16835   3.669   1.942   3.200  1.3364  4.6121  0.7162
  125MOL0     H16836   3.790   2.237   3.201  3.4857  0.1054  3.0156
  125MOL0     H16837   3.638   2.161   3.207  0.5062 -1.7911  2.0141
  125MOL0     H16838   3.684   2.255   3.349  1.5349  2.8901 -0.6556
  125MOL0     H16839   3.929   2.399   3.663  0.2519  0.1766  0.7580
  125MOL0     H16840   4.073   2.572   3.792 -4.4841 -1.8812 -0.9546
  125MOL0     H16841   4.291   2.662   3.651 -1.5510 -0.5400  0.7792
  125MOL0     H16842   4.329   2.767   3.784  0.3848 -1.2029  2.5268
  125MOL0     H16843   4.550   2.709   3.805  0.5431  1.0129  0.1258
  125MOL0     H16844   4.549   2.563   3.720 -0.0603 -0.3525  0.3177
  125MOL0     H16845   4.458   2.808   3.570  0.9287  1.1043  2.3149
  125MOL0     H16846   4.559   2.676   3.512  1.7944 -3.0558  3.1377
  125MOL0     H16847   4.639   2.910   3.697  0.2242  0.3382 -0.4070
  125MOL0     H16848   4.741   2.764   3.677  0.9650 -0.1294 -2.0284
  125MOL0     H16849   4.660   2.978   3.484 -2.7706 -1.7038  0.4298
  125MOL0     H16850   4.734   2.825   3.416 -1.2384 -2.2089  1.1312
  125MOL0     H16851   4.896   3.005   3.425 -2.3594  1.5977  0.3875
  125MOL0     H16852   4.864   3.037   3.594 -0.7117  0.4717 -0.1806
  125MOL0     H16853   4.945   2.758   3.488 -0.1311  1.0832 -0.9068
  125MOL0     H16854   4.970   2.837   3.651  1.6537  1.4615  0.8509
  125MOL0     H16855   5.145   2.976   3.579 -1.5785  2.4273 -2.5633
  125MOL0     H16856   5.110   2.939   3.410 -1.0348 -0.7834 -0.4214
  125MOL0     H16857   4.414   2.330   3.758 -0.0006  1.6069 -0.6209
  125MOL0     H16858   4.277   2.153   3.652 -3.3054 -0.5238 -0.7430
  125MOL0     H16859   4.016   1.930   3.549  0.5530  1.0644  0.0329
  125MOL0     H16860   3.929   1.712   3.445 -0.8986 -0.6826 -2.5096
  125MOL0     H16861   3.103   3.019   2.826  0.7661  2.4551  1.0984
  125MOL0     H16862   3.166   3.239   2.818 -2.0658 -0.6634  0.1629
  125MOL0     H16863   3.354   3.587   2.314  0.1952  1.2212 -1.2362
  125MOL0     H16864   3.500   3.796   2.308  1.5974  2.4034  1.5541
  125MOL0     H16865   3.648   3.913   2.696  0.9172 -2.2983  1.6911
  125MOL0     H16866   3.806   3.876   2.640  0.6503  1.1382  2.0356
  125MOL0     H16867   3.782   4.080   2.472 -0.2386  0.6522 -0.4611
  125MOL0     H16868   3.835   4.094   2.642 -1.1618 -1.2713  2.0960
  125MOL0     H16869   3.623   4.146   2.718  0.7943 -0.2795 -0.4421
  125MOL0     H16870   3.543   4.145   2.556  0.5180  2.0654 -1.4661
  125MOL0     H16871   3.706   4.339   2.508 -0.7016 -0.9776 -0.5163
  125MOL0     H16872   3.743   4.341   2.684  5.6975  0.3691 -3.2601
  125MOL0     H16873   3.349   4.474   2.734  0.7271 -0.0665  0.0530
  125MOL0     H16874   3.692   3.669   2.677 -0.0809 -0.2430  1.1333
  125MOL0     H16875   3.562   3.482   2.682  1.1749  1.1121 -0.5661
  126MOL0     O16876   5.235  10.651   4.326  0.2999 -0.7056 -0.4465
  126MOL0     C16877   5.175  10.558   4.269 -0.0518  0.4958 -0.4338
  126MOL0     O16878   5.097  10.570   4.154 -0.0741 -0.3471 -0.3558
  126MOL0     C16879   5.094  10.680   4.068  0.0438 -0.7168 -0.0837
  126MOL0     C16880   5.195  10.758   4.042 -0.6123 -0.0859  1.4716
  126MOL0     C16881   5.190  10.875   3.957 -0.5382 -0.6855  0.1347
  126MOL0     C16882   5.071  10.916   3.903 -0.0362  0.5205 -0.1740
  126MOL0     O16883   5.070  11.036   3.829 -0.6845  0.0224  0.4019
  126MOL0     C16884   4.946  11.096   3.774 -0.6168  0.1874  0.2694
  126MOL0     C16885   4.930  11.073   3.622  1.0678 -0.2100  0.0855
  126MOL0     C16886   4.805  11.145   3.571 -0.2663  0.0889  0.6071
  126MOL0     C16887   4.808  11.147   3.420  0.4423  0.0452 -0.3463
  126MOL0     C16888   4.699  11.246   3.366 -0.1093  0.4023 -0.0794
  126MOL0     C16889   4.738  11.303   3.223  0.3964 -0.2583 -0.1160
  126MOL0     C16890   4.621  11.389   3.184 -0.0892  0.1183  0.4326
  126MOL0     C16891   4.639  11.460   3.056 -0.7066  0.4290  0.0601
  126MOL0     N16892   4.734  11.570   3.075 -0.0402  0.3680  0.5909
  126MOL0     C16893   4.838  11.598   2.987  0.7856  0.6243  0.6000
  126MOL0     C16894   4.863  11.731   3.004 -0.6926  0.2757 -0.4038
  126MOL0     C16895   4.968  11.828   2.942 -0.3302 -0.0698 -0.0476
  126MOL0     C16896   5.114  11.774   2.935  0.5683 -0.1384 -0.1338
  126MOL0     C16897   5.188  11.843   2.826 -0.2783  0.1063 -0.3777
  126MOL0     C16898   5.213  11.988   2.851 -0.0540 -0.2398 -0.4894
  126MOL0     O16899   5.286  12.047   2.743  0.1795  0.3330 -0.1256
  126MOL0     C16900   5.425  12.058   2.753 -0.3789 -0.9683  0.7536
  126MOL0     C16901   5.488  12.142   2.656 -0.0559 -0.5181  0.8429
  126MOL0     C16902   5.628  12.157   2.651 -0.0019 -0.1698 -0.1288
  126MOL0     C16903   5.671  12.250   2.549 -0.2201  0.4246  0.7139
  126MOL0     C16904   5.705  12.068   2.730 -0.4449 -1.0058 -0.1683
  126MOL0     C16905   5.854  12.046   2.708 -0.0257  0.0144  0.2279
  126MOL0     O16906   5.910  11.926   2.769  0.4628 -0.7521  0.9565
  126MOL0     C16907   6.042  11.912   2.738 -0.6939  0.7145  0.9867
  126MOL0     C16908   6.086  11.848   2.617 -0.3866 -0.0501 -0.6109
  126MOL0     C16909   6.224  11.820   2.590 -0.3492  0.1073 -0.3532
  126MOL0     C16910   6.327  11.852   2.689  0.8935 -0.4258  0.1625
  126MOL0     O16911   6.452  11.802   2.659  0.3488  0.0888 -0.6423
  126MOL0     C16912   6.553  11.793   2.765  0.6347 -0.4357  0.4647
  126MOL0     C16913   6.691  11.733   2.722 -0.0060 -0.3463  0.7657
  126MOL0     C16914   6.779  11.727   2.846  0.6893 -0.3635 -0.0329
  126MOL0     C16915   6.902  11.640   2.827 -0.2638 -0.0078  0.1977
  126MOL0     C16916   7.005  11.647   2.943 -0.3004  0.6815  0.6174
  126MOL0     C16917   6.936  11.629   3.078  0.1121  0.7300  0.2661
  126MOL0     C16918   7.031  11.591   3.190 -0.1768 -0.8526 -0.7498
  126MOL0     C16919   6.956  11.527   3.310 -0.5258  0.3373  0.3439
  126MOL0    Cl16920   7.059  11.501   3.451 -0.3871  0.2059  0.5028
  126MOL0     C16921   6.281  11.936   2.795  0.1308  1.0284  1.4409
  126MOL0     C16922   6.144  11.974   2.817 -0.2354 -0.2156  0.6786
  126MOL0     O16923   5.924  12.124   2.640  0.2475  0.3028  0.4016
  126MOL0     C16924   5.644  11.985   2.829 -0.0083  0.4277  0.3703
  126MOL0     C16925   5.503  11.978   2.834 -0.5796 -0.3064 -0.0201
  126MOL0     N16926   4.781  11.773   3.106  1.1350  0.7941  0.3093
  126MOL0     N16927   4.690  11.684   3.128 -0.0577 -0.4402 -0.3320
  126MOL0     C16928   4.961  10.832   3.929 -0.3544 -0.2078  0.1710
  126MOL0     C16929   4.972  10.711   4.001  0.4554 -0.2676 -0.8080
  126MOL0     C16930   5.166  10.430   4.336  0.0512 -0.3680  0.3084
  126MOL0     C16931   5.230  10.408   4.459  0.1707 -0.3546 -0.2437
  126MOL0     C16932   5.217  10.275   4.524  0.2620  0.0328  0.3740
  126MOL0     C16933   5.143  10.174   4.466  0.1117  0.1931  0.5600
  126MOL0     O16934   5.128  10.053   4.532  0.6596 -0.6633  1.0545
  126MOL0     C16935   5.171   9.935   4.467  0.6712  0.2275 -0.0536
  126MOL0     C16936   5.314   9.919   4.469 -0.3011  0.5252  0.3110
  126MOL0     C16937   5.349   9.881   4.619  0.0108  0.0198  0.3254
  126MOL0     C16938   5.502   9.879   4.640  0.2065  0.4558  0.2485
  126MOL0     C16939   5.536   9.831   4.773  0.4618  0.4890  0.3402
  126MOL0     C16940   5.540   9.798   4.883 -0.2497 -0.1872  0.3028
  126MOL0     C16941   5.077  10.193   4.343  0.5118 -0.4811 -0.2413
  126MOL0     C16942   5.085  10.321   4.284 -0.0397 -0.5159 -0.3919
  126MOL0     H16943   5.291  10.726   4.082 -1.3179 -2.3417  1.4714
  126MOL0     H16944   5.271  10.932   3.914 -2.7000  1.6729 -1.1311
  126MOL0     H16945   4.855  11.053   3.817 -0.4878 -1.1562 -0.7511
  126MOL0     H16946   4.944  11.204   3.787 -0.6491  0.9316 -4.3455
  126MOL0     H16947   5.022  11.100   3.571  1.9348 -4.1302 -0.7542
  126MOL0     H16948   4.921  10.967   3.599  0.3092 -0.7603  2.5372
  126MOL0     H16949   4.716  11.085   3.592 -0.8641 -1.3585 -4.7126
  126MOL0     H16950   4.795  11.244   3.616 -2.3413 -0.2426  0.9741
  126MOL0     H16951   4.908  11.177   3.386  0.3670 -0.9633 -1.5073
  126MOL0     H16952   4.794  11.046   3.381  0.5513 -1.5484  3.3395
  126MOL0     H16953   4.601  11.199   3.376 -0.0119  0.3392  0.6733
  126MOL0     H16954   4.709  11.325   3.441  3.1337 -1.1960  1.3766
  126MOL0     H16955   4.824  11.364   3.255 -0.8772  1.0365  1.0154
  126MOL0     H16956   4.769  11.227   3.151  0.2758 -1.6603  1.2558
  126MOL0     H16957   4.536  11.321   3.184 -0.2720  0.3312  1.1591
  126MOL0     H16958   4.587  11.456   3.264  1.7524 -1.0155  2.2817
  126MOL0     H16959   4.540  11.499   3.035 -0.0553  1.4214 -1.3213
  126MOL0     H16960   4.672  11.402   2.969 -0.4697  3.8043 -2.2748
  126MOL0     H16961   4.890  11.536   2.915  2.7543  0.2348  2.2594
  126MOL0     H16962   4.944  11.863   2.842 -0.8378 -1.0791 -0.2976
  126MOL0     H16963   4.973  11.918   3.004 -3.2453  1.9092 -2.4276
  126MOL0     H16964   5.103  11.666   2.925  0.8482 -0.1204 -0.6572
  126MOL0     H16965   5.169  11.788   3.029  0.1682  2.0637 -0.1726
  126MOL0     H16966   5.127  11.832   2.736 -2.0499  5.9575 -0.2644
  126MOL0     H16967   5.285  11.794   2.818 -0.2033  0.4399 -1.6453
  126MOL0     H16968   5.260  12.004   2.949 -1.7278  0.1176  0.3018
  126MOL0     H16969   5.123  12.046   2.876 -0.0967 -0.3362 -0.4161
  126MOL0     H16970   5.432  12.198   2.582  2.2337  2.4426  1.1452
  126MOL0     H16971   5.773  12.278   2.576  0.8202 -0.1588 -2.2871
  126MOL0     H16972   5.669  12.194   2.455 -0.8312 -1.5321  1.8286
  126MOL0     H16973   5.601  12.333   2.536  0.5682  0.9377 -0.4015
  126MOL0     H16974   6.005  11.838   2.546 -0.5217  1.5763 -0.7317
  126MOL0     H16975   6.242  11.764   2.499 -0.7556  1.2020 -1.1316
  126MOL0     H16976   6.578  11.893   2.803  1.3628 -0.5524  0.3062
  126MOL0     H16977   6.505  11.743   2.849  0.7875 -2.3640 -0.5451
  126MOL0     H16978   6.686  11.626   2.701  0.9464  0.3148 -4.0576
  126MOL0     H16979   6.741  11.785   2.639 -1.0487 -1.6021 -0.7068
  126MOL0     H16980   6.708  11.695   2.923 -0.5596  1.6449 -0.2972
  126MOL0     H16981   6.807  11.831   2.866  0.4628  0.4188 -3.2311
  126MOL0     H16982   6.873  11.536   2.813 -0.3504 -0.3454  2.5550
  126MOL0     H16983   6.960  11.652   2.735  0.8041  0.0897  0.8627
  126MOL0     H16984   7.058  11.743   2.942  0.1433  0.4670 -1.8516
  126MOL0     H16985   7.073  11.563   2.925  0.8161  1.5001  0.8503
  126MOL0     H16986   6.885  11.724   3.100 -2.6721  0.2261 -3.1546
  126MOL0     H16987   6.857  11.554   3.083  0.2299  0.6759  3.8322
  126MOL0     H16988   7.071  11.685   3.227  0.2332 -0.0516 -3.1152
  126MOL0     H16989   7.100  11.515   3.152 -1.9521 -1.6103 -2.6715
  126MOL0     H16990   6.924  11.429   3.274  3.4196 -0.7678 -0.5979
  126MOL0     H16991   6.872  11.593   3.336  0.1936  0.3248  2.8898
  126MOL0     H16992   6.352  11.978   2.865  0.7502  2.9555 -0.2512
  126MOL0     H16993   6.123  12.055   2.885 -0.5581  1.8740 -1.7429
  126MOL0     H16994   5.700  11.929   2.903  1.2398  1.7324  0.4518
  126MOL0     H16995   5.476  11.899   2.904  1.3535  1.9582  3.5693
  126MOL0     H16996   4.867  10.863   3.885 -0.5755 -0.1924  0.6433
  126MOL0     H16997   4.891  10.640   4.018 -0.8233  0.8862 -1.9334
  126MOL0     H16998   5.286  10.486   4.510  1.1617 -1.1508 -0.0664
  126MOL0     H16999   5.267  10.251   4.617  1.8025 -1.7053 -0.8342
  126MOL0     H17000   5.126   9.850   4.519 -0.8554  1.4742  0.7759
  126MOL0     H17001   5.148   9.927   4.360  0.6981 -0.9367  0.0166
  126MOL0     H17002   5.365  10.012   4.445  0.1018  0.3429  0.4525
  126MOL0     H17003   5.340   9.829   4.412 -2.2976 -1.2280  1.9805
  126MOL0     H17004   5.309   9.784   4.650 -2.4416  0.4925 -1.0672
  126MOL0     H17005   5.311   9.955   4.691  0.4286 -1.3967  2.0896
  126MOL0     H17006   5.537   9.982   4.623  0.1071  0.8586  2.2553
  126MOL0     H17007   5.546   9.812   4.566  1.0521 -2.4002  3.1355
  126MOL0     H17008   5.544   9.773   4.987 -2.0840  1.8645  0.9453
  126MOL0     H17009   5.010  10.117   4.304 -0.1448 -1.6934  2.9204
  126MOL0     H17010   5.022  10.334   4.197 -0.8299 -2.1794 -0.1104
  127MOL0     O17011   5.659   9.905   8.928 -0.6471 -0.0990  0.7955
  127MOL0     C17012   5.733   9.956   9.013 -0.7323 -0.0783 -0.6532
  127MOL0     O17013   5.703  10.000   9.146 -0.0333  0.3075  0.1865
  127MOL0     C17014   5.568  10.004   9.174  0.4024 -0.9730  0.2586
  127MOL0     C17015   5.485  10.128   9.180 -0.1820  0.1428 -1.9057
  127MOL0     C17016   5.347  10.122   9.214 -0.4498 -0.5220  0.0615
  127MOL0     C17017   5.286  10.004   9.237 -0.4059 -0.4169  0.2899
  127MOL0     O17018   5.153  10.005   9.275  0.0531 -0.5023 -0.6899
  127MOL0     C17019   5.072   9.890   9.282  0.1507 -0.0640  0.4337
  127MOL0     C17020   4.952   9.944   9.196 -0.5099  1.1718  0.2464
  127MOL0     C17021   4.988   9.920   9.050 -0.4874 -0.6425  0.4521
  127MOL0     C17022   4.869   9.931   8.959 -0.1103 -0.4741  0.8748
  127MOL0     C17023   4.891   9.856   8.832 -0.4783 -0.6278  0.6446
  127MOL0     C17024   4.772   9.849   8.736  1.3533  0.2832  0.2548
  127MOL0     C17025   4.822   9.797   8.602  0.1878  0.4314  0.1008
  127MOL0     C17026   4.713   9.803   8.490 -0.5581  0.2881 -0.1642
  127MOL0     N17027   4.757   9.705   8.386 -0.0125 -0.8034 -0.1179
  127MOL0     C17028   4.828   9.739   8.272  0.3565  0.3387  0.1654
  127MOL0     C17029   4.811   9.630   8.194 -0.9786 -1.2124 -0.2858
  127MOL0     C17030   4.872   9.617   8.057 -0.5582  0.4208 -0.5288
  127MOL0     C17031   4.793   9.704   7.964 -0.4672  0.6400 -0.1306
  127MOL0     C17032   4.707   9.625   7.865 -0.1462 -0.8256  0.2654
  127MOL0     C17033   4.609   9.714   7.793 -0.1161  0.0244  0.5475
  127MOL0     O17034   4.518   9.641   7.706  0.4160  0.1508 -0.0922
  127MOL0     C17035   4.401   9.594   7.756 -0.2411  0.3918  1.2686
  127MOL0     C17036   4.283   9.648   7.709  0.9666 -0.4201 -0.6334
  127MOL0     C17037   4.157   9.616   7.750 -0.1117  0.0339  0.9200
  127MOL0     C17038   4.038   9.695   7.688 -0.7725 -0.8561  0.6452
  127MOL0     C17039   4.152   9.505   7.840  0.2228  0.1840 -0.0213
  127MOL0     C17040   4.028   9.461   7.908 -0.2362 -0.3997 -0.8467
  127MOL0     O17041   4.044   9.433   8.038  0.0537  0.4465 -0.2145
  127MOL0     C17042   3.938   9.445   8.127  1.0045 -1.4522  0.3872
  127MOL0     C17043   3.863   9.565   8.131  0.2934 -0.3236  0.4696
  127MOL0     C17044   3.766   9.586   8.227  1.5004 -0.5130 -0.2869
  127MOL0     C17045   3.728   9.485   8.315  0.5926 -0.2449 -0.0713
  127MOL0     O17046   3.612   9.508   8.386  1.1662 -0.2046  0.6559
  127MOL0     C17047   3.605   9.445   8.509  0.0358  0.4046 -0.8008
  127MOL0     C17048   3.514   9.523   8.605 -0.3110 -0.8449  0.1686
  127MOL0     C17049   3.585   9.654   8.641  0.6437 -0.5726  0.7349
  127MOL0     C17050   3.527   9.723   8.767  0.8546  0.2320 -0.1895
  127MOL0     C17051   3.612   9.828   8.826  0.1176 -0.0837 -0.2554
  127MOL0     C17052   3.562   9.886   8.960  0.2911 -0.6480  0.5421
  127MOL0     C17053   3.667   9.978   9.027 -0.5552  0.1098  0.4119
  127MOL0     C17054   3.635  10.020   9.166 -0.6138 -0.0926  0.0734
  127MOL0    Cl17055   3.538  10.170   9.147  0.0939 -0.0356  0.0387
  127MOL0     C17056   3.796   9.361   8.324  0.2540 -0.6477  0.4651
  127MOL0     C17057   3.903   9.351   8.225 -0.1878  0.0453 -0.4220
  127MOL0     O17058   3.924   9.448   7.849  0.4525 -0.3170  0.9318
  127MOL0     C17059   4.262   9.429   7.876 -0.5143  0.7605  0.4299
  127MOL0     C17060   4.394   9.482   7.842 -0.5920  0.6448  0.4158
  127MOL0     N17061   4.745   9.533   8.258  0.7771 -0.6403 -0.4588
  127MOL0     N17062   4.711   9.580   8.379 -0.3454  0.1143  0.1669
  127MOL0     C17063   5.366   9.885   9.226  0.1902 -0.7963  1.0056
  127MOL0     C17064   5.502   9.887   9.185 -0.2007 -0.1853 -0.7509
  127MOL0     C17065   5.858  10.004   8.946 -0.0711 -0.1733 -0.7165
  127MOL0     C17066   5.972  10.030   9.028 -0.3710  0.5884  0.4300
  127MOL0     C17067   6.091  10.054   8.968 -0.0753 -1.3971  0.0672
  127MOL0     C17068   6.101  10.069   8.829 -0.9680  0.2791  0.7362
  127MOL0     O17069   6.219  10.091   8.766  1.3941 -0.5642  0.1939
  127MOL0     C17070   6.346  10.078   8.832  0.0457  0.8553  0.3327
  127MOL0     C17071   6.465  10.057   8.731  0.5356  0.1060 -0.1588
  127MOL0     C17072   6.512  10.180   8.645  0.6765 -0.2376 -1.5106
  127MOL0     C17073   6.395  10.219   8.548 -0.0419  0.2694 -0.6177
  127MOL0     C17074   6.460  10.315   8.450 -0.2919 -0.1435 -0.6590
  127MOL0     C17075   6.500  10.422   8.401  1.0235 -0.0459  1.1056
  127MOL0     C17076   5.986  10.065   8.751 -0.5123 -0.5204 -0.0031
  127MOL0     C17077   5.867  10.039   8.811  0.8218  0.3142 -0.3075
  127MOL0     H17078   5.516  10.232   9.173 -1.4929  0.8142  1.0080
  127MOL0     H17079   5.281  10.208   9.212 -2.3112 -1.9216 -0.2512
  127MOL0     H17080   5.117   9.801   9.237  0.9921  0.5049  0.1351
  127MOL0     H17081   5.044   9.865   9.384  2.4817  0.3380  1.2347
  127MOL0     H17082   4.862   9.891   9.226 -1.6992  3.6730  1.4025
  127MOL0     H17083   4.931  10.048   9.223 -1.5661  0.4682  2.3017
  127MOL0     H17084   5.069   9.987   9.017  0.7136 -3.0480 -1.8902
  127MOL0     H17085   5.020   9.816   9.038 -1.1125 -1.0488  2.0214
  127MOL0     H17086   4.780   9.902   9.016  0.7523 -0.0891  2.4784
  127MOL0     H17087   4.849  10.033   8.924  0.6127 -0.4366  0.5572
  127MOL0     H17088   4.967   9.907   8.772 -1.3531  0.3152  0.3118
  127MOL0     H17089   4.926   9.755   8.857  0.2976 -0.3418  0.7276
  127MOL0     H17090   4.701   9.783   8.786  1.3649  0.5912  0.6849
  127MOL0     H17091   4.725   9.948   8.728 -1.6347 -1.0984 -1.2249
  127MOL0     H17092   4.899   9.863   8.560  0.9170 -0.4624 -0.0186
  127MOL0     H17093   4.859   9.695   8.617 -3.0644 -1.0674 -1.2091
  127MOL0     H17094   4.703   9.896   8.434 -0.8505 -0.6973 -1.8298
  127MOL0     H17095   4.610   9.784   8.523  0.0425  0.4025  1.9180
  127MOL0     H17096   4.890   9.828   8.262 -0.0778  1.0625  3.0007
  127MOL0     H17097   4.977   9.646   8.062 -0.2732 -0.7094  0.9996
  127MOL0     H17098   4.869   9.511   8.032  0.3446  0.0688  0.7644
  127MOL0     H17099   4.865   9.768   7.911 -0.8524  0.0890 -1.3464
  127MOL0     H17100   4.737   9.765   8.035  0.4189 -1.4275  2.4857
  127MOL0     H17101   4.643   9.548   7.909  0.9719 -3.6198 -2.6166
  127MOL0     H17102   4.773   9.587   7.786  1.2486  3.4576 -0.9095
  127MOL0     H17103   4.666   9.779   7.726 -1.3280 -0.4380 -1.0031
  127MOL0     H17104   4.552   9.775   7.864 -0.3761  0.2426  0.1572
  127MOL0     H17105   4.296   9.734   7.645 -3.0252  1.9919  1.3497
  127MOL0     H17106   3.957   9.671   7.759  0.2684  0.1700  2.2507
  127MOL0     H17107   4.065   9.801   7.685 -0.0510 -0.9919  1.6102
  127MOL0     H17108   4.018   9.666   7.585  0.4550 -1.0276  0.4417
  127MOL0     H17109   3.891   9.652   8.073  1.0761  1.2310  2.9897
  127MOL0     H17110   3.713   9.681   8.224  2.4418  0.0327 -0.0299
  127MOL0     H17111   3.573   9.342   8.491 -1.5457  1.2010 -3.0591
  127MOL0     H17112   3.701   9.452   8.561  0.5506  1.6239 -1.8534
  127MOL0     H17113   3.418   9.549   8.558 -0.7423 -0.2596  1.3509
  127MOL0     H17114   3.484   9.466   8.693 -0.6623 -3.8347 -1.7157
  127MOL0     H17115   3.588   9.725   8.558 -1.7633 -0.3946  0.7425
  127MOL0     H17116   3.688   9.635   8.672  1.8441  2.2755 -1.0449
  127MOL0     H17117   3.426   9.762   8.755 -1.3251 -4.0866  1.9636
  127MOL0     H17118   3.521   9.641   8.839 -0.5006 -0.0539 -0.6180
  127MOL0     H17119   3.615   9.918   8.763  0.6032 -0.6700 -1.0872
  127MOL0     H17120   3.711   9.784   8.837 -0.4307 -1.3415 -0.2082
  127MOL0     H17121   3.467   9.935   8.935  2.1222  2.8743 -0.1888
  127MOL0     H17122   3.538   9.798   9.020 -0.9776 -0.2544  0.6358
  127MOL0     H17123   3.677  10.070   8.968  0.2536  1.3361  2.3645
  127MOL0     H17124   3.764   9.928   9.022  0.2371  1.6910 -0.7599
  127MOL0     H17125   3.725  10.040   9.225 -1.6110 -0.3559  1.7788
  127MOL0     H17126   3.569   9.949   9.218 -0.5900 -0.2685 -0.1364
  127MOL0     H17127   3.777   9.282   8.395 -0.7908  0.3017  1.2736
  127MOL0     H17128   3.957   9.256   8.230 -3.1445 -1.7155  1.9917
  127MOL0     H17129   4.274   9.346   7.945 -0.2998  1.6786  1.5274
  127MOL0     H17130   4.485   9.424   7.856 -2.4268 -2.3594  0.9057
  127MOL0     H17131   5.330   9.784   9.243  2.2480 -1.5085  1.3979
  127MOL0     H17132   5.561   9.796   9.181 -0.2186 -0.3699  1.6975
  127MOL0     H17133   5.973  10.005   9.134  0.4199 -2.5205 -0.2072
  127MOL0     H17134   6.179  10.068   9.031 -0.6176 -0.2917  0.6025
  127MOL0     H17135   6.367  10.157   8.905  0.2530  1.0039  0.1140
  127MOL0     H17136   6.355   9.996   8.903  1.1405  1.1992  0.6069
  127MOL0     H17137   6.430   9.981   8.662 -0.8007  0.8442 -0.3299
  127MOL0     H17138   6.555  10.028   8.786  1.9997  2.5137 -1.1098
  127MOL0     H17139   6.603  10.159   8.587  1.0992 -1.1596 -0.5461
  127MOL0     H17140   6.544  10.266   8.704  0.0992  0.3760 -2.0690
  127MOL0     H17141   6.311  10.269   8.596 -0.8037 -0.9808 -0.6109
  127MOL0     H17142   6.355  10.127   8.505 -0.2986  0.7968 -1.5289
  127MOL0     H17143   6.528  10.510   8.346 -1.8988  0.8672  0.9116
  127MOL0     H17144   5.989  10.066   8.643 -0.5697 -3.6634 -0.1196
  127MOL0     H17145   5.782  10.041   8.743  1.0526 -2.4540 -0.8227
  128MOL0     O17146   2.637   8.094   2.487 -0.2984  0.4258  0.6666
  128MOL0     C17147   2.707   8.197   2.513  1.0163 -0.4282 -0.1366
  128MOL0     O17148   2.654   8.307   2.577  0.3043 -0.5560 -0.2130
  128MOL0     C17149   2.523   8.345   2.572  0.0924 -1.0768  0.1717
  128MOL0     C17150   2.435   8.316   2.457 -0.0478  0.3493  0.4069
  128MOL0     C17151   2.300   8.351   2.479 -0.3958  0.8293 -0.3695
  128MOL0     C17152   2.245   8.419   2.587  0.5468 -0.5834 -0.7754
  128MOL0     O17153   2.108   8.425   2.579  1.2642 -0.3011 -0.5055
  128MOL0     C17154   2.033   8.499   2.666  0.4138 -0.5568  0.6894
  128MOL0     C17155   1.890   8.474   2.632  0.1243  0.4422  0.3880
  128MOL0     C17156   1.832   8.542   2.511 -0.6811  0.3731  1.4801
  128MOL0     C17157   1.711   8.632   2.543  0.1178  0.0307  0.0831
  128MOL0     C17158   1.632   8.670   2.419  0.3858 -0.1313 -0.3081
  128MOL0     C17159   1.700   8.773   2.331 -1.4897  0.6457 -0.7809
  128MOL0     C17160   1.588   8.837   2.246  0.4674 -0.3442  0.3054
  128MOL0     C17161   1.549   8.740   2.134 -0.0108  0.0924  0.6833
  128MOL0     N17162   1.652   8.704   2.040  0.0963  0.5503  0.3101
  128MOL0     C17163   1.694   8.785   1.935  0.5600  0.1987 -0.8674
  128MOL0     C17164   1.771   8.710   1.863  0.8219  0.3165  0.0671
  128MOL0     C17165   1.828   8.756   1.721 -0.3610 -0.1138 -0.1019
  128MOL0     C17166   1.971   8.812   1.718 -0.1394  0.0038  0.3942
  128MOL0     C17167   2.062   8.712   1.782 -1.2502  0.8175  0.2414
  128MOL0     C17168   2.207   8.773   1.804 -1.0862 -1.5805 -0.2317
  128MOL0     O17169   2.283   8.801   1.680  0.6819 -0.7169 -0.0419
  128MOL0     C17170   2.371   8.707   1.634 -0.0288 -0.5224 -0.4471
  128MOL0     C17171   2.364   8.568   1.651  0.2624  0.4781  0.0784
  128MOL0     C17172   2.474   8.485   1.620 -0.3457 -0.0109  0.3282
  128MOL0     C17173   2.449   8.341   1.643  0.1953  0.4208  1.1739
  128MOL0     C17174   2.590   8.549   1.548 -0.0588  0.3975  0.2586
  128MOL0     C17175   2.714   8.482   1.503 -0.9132 -1.0951  0.6385
  128MOL0     O17176   2.776   8.561   1.400 -0.1203  0.1445  0.3572
  128MOL0     C17177   2.888   8.519   1.323  0.5311 -0.3828  0.7657
  128MOL0     C17178   2.988   8.426   1.358 -1.3573 -0.2853 -0.7477
  128MOL0     C17179   3.089   8.397   1.261 -0.4071  0.4262  0.1900
  128MOL0     C17180   3.084   8.446   1.133 -1.5917  0.1991  0.4956
  128MOL0     O17181   3.173   8.431   1.026 -0.8571 -0.1063 -0.2803
  128MOL0     C17182   3.269   8.330   1.041 -0.2617 -0.1701 -0.7681
  128MOL0     C17183   3.376   8.344   0.936  0.1561 -1.2283  0.2665
  128MOL0     C17184   3.494   8.253   0.940 -0.3696  0.3326 -1.4615
  128MOL0     C17185   3.579   8.250   0.816 -0.3111 -0.3923  0.4438
  128MOL0     C17186   3.689   8.346   0.827  0.4511 -0.3263  0.6926
  128MOL0     C17187   3.782   8.335   0.699  0.5467 -0.1018 -0.5094
  128MOL0     C17188   3.907   8.422   0.707  0.1155 -0.8231  0.0067
  128MOL0     C17189   3.963   8.436   0.561  0.7979 -0.1257 -0.4317
  128MOL0    Cl17190   4.129   8.501   0.590  0.3447 -0.2597 -0.4906
  128MOL0     C17191   2.985   8.534   1.103  0.3335 -0.4740  0.1513
  128MOL0     C17192   2.893   8.586   1.201 -0.6012  0.0535 -0.6782
  128MOL0     O17193   2.758   8.373   1.556  0.1094 -0.0784 -0.1945
  128MOL0     C17194   2.587   8.687   1.521 -0.5918  0.0745  0.8430
  128MOL0     C17195   2.478   8.767   1.572 -0.3014  0.0940 -0.0741
  128MOL0     N17196   1.794   8.589   1.934  0.5350 -0.0852  0.2044
  128MOL0     N17197   1.724   8.586   2.039  0.1616  0.5014 -0.1203
  128MOL0     C17198   2.326   8.466   2.692 -0.2716  0.6325 -0.1501
  128MOL0     C17199   2.467   8.429   2.683 -0.6158  1.0025  0.5887
  128MOL0     C17200   2.849   8.188   2.497 -0.3276  0.5763 -0.1766
  128MOL0     C17201   2.936   8.274   2.568 -0.0002  0.1046  1.4475
  128MOL0     C17202   3.073   8.248   2.584  0.1545 -0.0541  0.4142
  128MOL0     C17203   3.129   8.150   2.503 -0.5371  0.4250 -0.0834
  128MOL0     O17204   3.264   8.123   2.509  0.5018  0.1930 -0.6691
  128MOL0     C17205   3.330   8.155   2.385  0.0658 -0.1858 -0.0966
  128MOL0     C17206   3.395   8.295   2.413 -0.1717 -1.3103  0.6303
  128MOL0     C17207   3.496   8.319   2.297  0.1047 -0.7917  0.5806
  128MOL0     C17208   3.591   8.436   2.333 -0.6646 -0.3789 -0.3918
  128MOL0     C17209   3.676   8.489   2.228  0.1883 -0.5987 -0.5659
  128MOL0     C17210   3.757   8.523   2.146  0.0761 -0.7982  0.0905
  128MOL0     C17211   3.047   8.076   2.421 -0.1174 -1.0341 -0.4018
  128MOL0     C17212   2.910   8.090   2.426  0.3385  0.6640  0.5702
  128MOL0     H17213   2.476   8.274   2.366  1.6899  1.9577  0.3696
  128MOL0     H17214   2.241   8.312   2.397  1.1664 -0.0900 -1.1063
  128MOL0     H17215   2.052   8.468   2.769  2.0327  0.1840  0.6353
  128MOL0     H17216   2.064   8.603   2.659  1.1479 -0.8847 -2.6126
  128MOL0     H17217   1.865   8.368   2.625  1.5706 -0.1917  3.1027
  128MOL0     H17218   1.833   8.519   2.714 -1.2235  0.8120 -0.7348
  128MOL0     H17219   1.902   8.604   2.455 -0.6345 -0.8866  0.0659
  128MOL0     H17220   1.805   8.473   2.430 -2.1699  1.6207  0.8706
  128MOL0     H17221   1.647   8.575   2.612 -4.1126  1.9745 -1.8980
  128MOL0     H17222   1.749   8.717   2.601  0.4724  0.0529 -0.1730
  128MOL0     H17223   1.625   8.582   2.354  0.0696  0.9436 -1.7747
  128MOL0     H17224   1.536   8.713   2.450  0.5805 -1.0000  1.7170
  128MOL0     H17225   1.751   8.850   2.390 -2.3766  1.0888 -0.5654
  128MOL0     H17226   1.764   8.722   2.258 -1.8197 -2.1924  0.7892
  128MOL0     H17227   1.496   8.862   2.301  1.3833  1.8991  0.9251
  128MOL0     H17228   1.614   8.935   2.207 -3.1719  0.9154  0.6045
  128MOL0     H17229   1.472   8.796   2.081 -0.3826  1.0547  2.1734
  128MOL0     H17230   1.505   8.649   2.177 -0.5980 -0.0130 -0.1307
  128MOL0     H17231   1.653   8.885   1.918  2.5541  0.7578 -2.9356
  128MOL0     H17232   1.829   8.668   1.655 -1.4946 -1.1198  1.1495
  128MOL0     H17233   1.753   8.819   1.672 -0.8137 -1.8914 -1.8644
  128MOL0     H17234   1.962   8.902   1.779 -0.0360 -0.2216  0.7490
  128MOL0     H17235   2.014   8.844   1.623 -1.8580 -0.0015 -0.4234
  128MOL0     H17236   2.079   8.624   1.719 -0.9971  3.1091 -3.1769
  128MOL0     H17237   2.023   8.679   1.879 -1.2091 -0.8536 -0.2718
  128MOL0     H17238   2.266   8.710   1.871  0.9692  1.7418  1.3791
  128MOL0     H17239   2.200   8.871   1.853  1.0498 -0.2854 -2.3053
  128MOL0     H17240   2.271   8.524   1.684 -0.0634  0.8089 -0.3942
  128MOL0     H17241   2.532   8.277   1.614 -2.3265 -3.1183  1.0686
  128MOL0     H17242   2.452   8.331   1.752  0.5670  0.3548  1.1587
  128MOL0     H17243   2.353   8.314   1.598  0.5156  0.0116  0.7325
  128MOL0     H17244   2.975   8.374   1.452 -0.9850  1.7394  0.4709
  128MOL0     H17245   3.172   8.337   1.298  2.7368  3.2965 -1.6187
  128MOL0     H17246   3.319   8.335   1.138 -3.5845 -0.0813  1.1092
  128MOL0     H17247   3.217   8.234   1.035  1.7157 -1.2345 -1.6168
  128MOL0     H17248   3.328   8.326   0.839  0.5024  1.3471 -0.4577
  128MOL0     H17249   3.414   8.447   0.937 -0.1090 -1.1279  1.7144
  128MOL0     H17250   3.452   8.152   0.947 -0.0657  0.3235  2.0509
  128MOL0     H17251   3.544   8.266   1.036 -2.5269  0.6027 -0.3162
  128MOL0     H17252   3.628   8.152   0.816  1.4960  0.4539 -1.1758
  128MOL0     H17253   3.523   8.257   0.722  0.2412  2.7419  0.2250
  128MOL0     H17254   3.757   8.317   0.908  1.1825 -2.6901 -0.6640
  128MOL0     H17255   3.655   8.450   0.829  1.3166  0.0395 -1.1899
  128MOL0     H17256   3.816   8.232   0.690 -0.3862 -0.4556 -0.1221
  128MOL0     H17257   3.720   8.354   0.611 -0.5504 -1.6142 -0.1053
  128MOL0     H17258   3.980   8.381   0.778  1.5990  1.3665 -0.1353
  128MOL0     H17259   3.881   8.521   0.746  1.9110 -0.6089  0.7805
  128MOL0     H17260   3.916   8.501   0.487  3.0701  0.0631 -1.7984
  128MOL0     H17261   3.975   8.337   0.517  1.2797 -0.4599  0.4101
  128MOL0     H17262   2.993   8.571   1.002  0.2470 -1.5851 -0.2795
  128MOL0     H17263   2.833   8.673   1.179  0.2719  0.7802 -0.2585
  128MOL0     H17264   2.673   8.741   1.482 -2.3957  1.6637 -1.1816
  128MOL0     H17265   2.474   8.873   1.549  1.5630  0.2472  0.1551
  128MOL0     H17266   2.279   8.521   2.773 -0.3310 -0.6903  0.7554
  128MOL0     H17267   2.537   8.455   2.762  0.4284 -2.9385  1.1817
  128MOL0     H17268   2.897   8.357   2.625  3.7643  3.2760 -0.1118
  128MOL0     H17269   3.136   8.308   2.648  0.8942  2.0139 -2.0864
  128MOL0     H17270   3.402   8.076   2.362 -0.9660 -1.1501 -0.1066
  128MOL0     H17271   3.262   8.140   2.301 -2.1637 -1.5443  1.8357
  128MOL0     H17272   3.439   8.291   2.513  3.3070  3.6196 -0.2947
  128MOL0     H17273   3.326   8.380   2.410  2.1551  0.7156 -3.1491
  128MOL0     H17274   3.442   8.337   2.203  0.9021 -1.5857 -0.0460
  128MOL0     H17275   3.558   8.231   2.276  0.8224  0.3127 -2.4891
  128MOL0     H17276   3.662   8.410   2.413 -1.6458 -0.6126  0.4250
  128MOL0     H17277   3.538   8.526   2.365  1.5065  0.2388  1.8098
  128MOL0     H17278   3.821   8.545   2.063 -0.6892 -0.2798 -0.3845
  128MOL0     H17279   3.086   7.987   2.374  1.7646 -0.5453  0.1222
  128MOL0     H17280   2.848   8.011   2.385  2.5825 -3.7298  4.5490
  129MOL0     O17281   7.988   6.178   1.388 -0.4038  0.1794 -0.7558
  129MOL0     C17282   8.082   6.231   1.455 -0.3020 -0.2423  0.5222
  129MOL0     O17283   8.175   6.162   1.518  0.5013  0.1097 -0.5779
  129MOL0     C17284   8.163   6.026   1.529  0.3913 -0.3474  0.6275
  129MOL0     C17285   8.145   5.944   1.419 -0.0265  0.3275 -0.4006
  129MOL0     C17286   8.163   5.803   1.439  0.9260 -0.8620 -0.3258
  129MOL0     C17287   8.214   5.758   1.563  0.3771  0.7669  0.2143
  129MOL0     O17288   8.229   5.617   1.574  0.1920 -0.7370 -0.9142
  129MOL0     C17289   8.344   5.576   1.651 -0.0930 -0.6671  0.1437
  129MOL0     C17290   8.369   5.440   1.588 -0.6470  0.9463 -0.4278
  129MOL0     C17291   8.440   5.463   1.452 -0.8105 -0.8845  0.6436
  129MOL0     C17292   8.537   5.360   1.396 -0.8322  0.6418 -0.0923
  129MOL0     C17293   8.473   5.215   1.360 -0.6141  0.7758 -1.4739
  129MOL0     C17294   8.581   5.109   1.335 -0.0516  0.1517 -0.0896
  129MOL0     C17295   8.632   5.057   1.462 -0.0396  0.4037 -0.6000
  129MOL0     C17296   8.552   4.933   1.509  0.6764  0.5494 -0.1734
  129MOL0     N17297   8.592   4.816   1.436 -0.7586 -0.7040  0.1751
  129MOL0     C17298   8.524   4.759   1.331 -0.0289 -0.4456 -0.0495
  129MOL0     C17299   8.615   4.689   1.267 -1.1305  0.0180 -0.6868
  129MOL0     C17300   8.595   4.611   1.142  0.0194  0.3923 -0.3659
  129MOL0     C17301   8.472   4.513   1.158 -0.9374 -0.0138 -0.2304
  129MOL0     C17302   8.432   4.450   1.025  0.1575  0.2378  0.5644
  129MOL0     C17303   8.286   4.402   1.032 -0.5932 -0.3295  0.3362
  129MOL0     O17304   8.243   4.311   0.932 -0.1714 -0.3584 -0.4064
  129MOL0     C17305   8.110   4.296   0.903  0.1091  0.2460 -0.4070
  129MOL0     C17306   8.026   4.237   0.997  0.3484  0.5918 -0.1719
  129MOL0     C17307   7.888   4.212   0.975  0.2442 -0.1249  0.2359
  129MOL0     C17308   7.810   4.133   1.074 -0.0871 -0.5463 -0.5161
  129MOL0     C17309   7.824   4.258   0.850 -0.0497  1.0281 -0.3112
  129MOL0     C17310   7.679   4.243   0.808  0.1144 -0.6231  0.4924
  129MOL0     O17311   7.649   4.259   0.674 -0.4847 -0.0206  0.3836
  129MOL0     C17312   7.511   4.257   0.640 -0.1165  0.0444 -0.1203
  129MOL0     C17313   7.430   4.370   0.654 -1.8571 -0.5680 -0.0895
  129MOL0     C17314   7.293   4.371   0.628 -0.0096 -0.6573 -0.3233
  129MOL0     C17315   7.224   4.254   0.585 -0.6823  0.0017 -0.0177
  129MOL0     O17316   7.089   4.266   0.571  0.5158 -0.4591  0.3248
  129MOL0     C17317   7.011   4.170   0.488 -0.1207 -0.6466 -0.6665
  129MOL0     C17318   6.981   4.042   0.567  0.0038  0.5905 -0.0676
  129MOL0     C17319   6.970   3.930   0.470  0.1847 -0.4777 -0.0687
  129MOL0     C17320   6.924   3.801   0.551  0.0509  0.0292 -0.0113
  129MOL0     C17321   6.891   3.684   0.451 -0.0964 -0.3842  0.5800
  129MOL0     C17322   6.752   3.635   0.457 -0.6297 -0.0349  0.3287
  129MOL0     C17323   6.651   3.741   0.417  0.0528 -0.4993  0.4463
  129MOL0     C17324   6.648   3.791   0.279  0.6408 -0.0306  0.8196
  129MOL0    Cl17325   6.682   3.665   0.154 -0.2866 -0.1123 -0.1873
  129MOL0     C17326   7.311   4.140   0.571  0.4804  0.4963 -0.2371
  129MOL0     C17327   7.448   4.134   0.594  0.8505  0.0534  0.1630
  129MOL0     O17328   7.596   4.217   0.895 -0.4539  0.2569 -0.4101
  129MOL0     C17329   7.909   4.317   0.753 -0.7575 -0.6166  0.6280
  129MOL0     C17330   8.051   4.337   0.780 -0.8392 -0.2222 -0.4059
  129MOL0     N17331   8.740   4.700   1.327  0.1207  0.2122 -0.1755
  129MOL0     N17332   8.725   4.781   1.422  0.2767 -0.2362  0.1645
  129MOL0     C17333   8.239   5.842   1.667 -1.1371 -0.4473  0.0967
  129MOL0     C17334   8.211   5.978   1.653 -0.0310  0.9655 -0.7747
  129MOL0     C17335   8.097   6.375   1.453  0.6909  0.3929  0.9636
  129MOL0     C17336   8.226   6.430   1.468  0.8504  0.8164  0.0838
  129MOL0     C17337   8.237   6.568   1.498  0.4544  0.0540 -0.0936
  129MOL0     C17338   8.132   6.655   1.471 -0.0316  0.7626  0.0036
  129MOL0     O17339   8.138   6.787   1.477  0.2266  0.1958  0.1448
  129MOL0     C17340   8.245   6.853   1.550  0.2705  0.0686 -1.0709
  129MOL0     C17341   8.215   7.006   1.548  0.2696 -1.1738  0.5122
  129MOL0     C17342   8.211   7.058   1.391  0.5941 -0.6868 -0.3427
  129MOL0     C17343   8.310   7.172   1.356  0.7111 -0.1529  0.1184
  129MOL0     C17344   8.268   7.295   1.436  0.3630 -0.6371  0.4715
  129MOL0     C17345   8.242   7.398   1.495  0.9144  0.2706  0.2703
  129MOL0     C17346   8.005   6.598   1.429 -0.5034 -0.0078 -0.5855
  129MOL0     C17347   7.984   6.461   1.424  0.7699 -0.8772 -1.0532
  129MOL0     H17348   8.119   5.987   1.323  0.3608 -3.0585 -2.1805
  129MOL0     H17349   8.133   5.740   1.355  3.1622  2.1120 -3.6467
  129MOL0     H17350   8.425   5.649   1.646 -1.7336  1.2527  0.1982
  129MOL0     H17351   8.325   5.569   1.758 -1.6177 -1.2302 -0.1346
  129MOL0     H17352   8.435   5.378   1.648 -1.3701  0.8402  0.2689
  129MOL0     H17353   8.280   5.377   1.578  0.1066 -0.3949  0.9501
  129MOL0     H17354   8.365   5.468   1.372  1.2786 -1.8487 -1.5052
  129MOL0     H17355   8.507   5.549   1.456 -1.0901 -0.6170 -0.1051
  129MOL0     H17356   8.582   5.407   1.307 -0.8761  0.0681 -0.4188
  129MOL0     H17357   8.623   5.351   1.463 -1.8982  0.2040  1.2451
  129MOL0     H17358   8.421   5.177   1.448 -0.0413 -1.4020 -2.0037
  129MOL0     H17359   8.399   5.233   1.282 -3.0409 -1.0774  0.2510
  129MOL0     H17360   8.535   5.032   1.272  0.5491  0.5338 -1.0145
  129MOL0     H17361   8.670   5.147   1.284 -2.1040  0.1986 -3.9701
  129MOL0     H17362   8.736   5.027   1.451 -0.7375 -3.4797  1.4471
  129MOL0     H17363   8.625   5.134   1.541 -0.4484  0.6640 -0.8835
  129MOL0     H17364   8.444   4.953   1.513  0.1100 -2.0556 -0.3160
  129MOL0     H17365   8.560   4.912   1.616  2.4970  1.6448 -0.0540
  129MOL0     H17366   8.416   4.762   1.326 -0.3139 -0.3089  3.5631
  129MOL0     H17367   8.559   4.690   1.075 -4.6561 -0.4785  0.8074
  129MOL0     H17368   8.690   4.565   1.111  1.3420  2.6573  0.1262
  129MOL0     H17369   8.393   4.585   1.182  0.6581  0.7164  3.5088
  129MOL0     H17370   8.489   4.434   1.232 -0.3008  0.8724  0.5844
  129MOL0     H17371   8.499   4.366   1.002 -1.7477 -1.5659  1.2212
  129MOL0     H17372   8.446   4.515   0.939 -0.3319 -0.5586 -0.1378
  129MOL0     H17373   8.215   4.483   1.052 -0.3865 -0.3741  1.2885
  129MOL0     H17374   8.285   4.346   1.126 -1.1452 -1.4857 -0.3357
  129MOL0     H17375   8.064   4.212   1.095  2.1051  1.6770 -0.5228
  129MOL0     H17376   7.878   4.092   1.149 -0.7444  0.3557  0.6141
  129MOL0     H17377   7.741   4.204   1.122  2.6414 -0.0140  3.0402
  129MOL0     H17378   7.759   4.055   1.017  2.3220 -0.3535 -3.1589
  129MOL0     H17379   7.477   4.464   0.682 -1.3408 -0.9685  0.4027
  129MOL0     H17380   7.234   4.462   0.624 -0.7018 -1.1157 -0.7232
  129MOL0     H17381   6.923   4.220   0.446  0.1458  0.6854  0.3182
  129MOL0     H17382   7.072   4.147   0.400 -0.0627  1.8100 -1.3417
  129MOL0     H17383   7.055   4.022   0.646  0.4782  1.3956 -0.2921
  129MOL0     H17384   6.882   4.057   0.611  0.6455 -0.5817  1.9310
  129MOL0     H17385   7.059   3.913   0.408 -2.1860  0.9884 -4.3077
  129MOL0     H17386   6.889   3.956   0.401 -0.2046  4.2587  1.8010
  129MOL0     H17387   7.011   3.771   0.609  1.6470  1.2534 -1.6548
  129MOL0     H17388   6.833   3.837   0.599 -1.9505  1.5329 -4.3573
  129MOL0     H17389   6.948   3.601   0.495 -0.9995 -0.7240  1.1471
  129MOL0     H17390   6.915   3.701   0.346  0.4642 -1.8211  0.4452
  129MOL0     H17391   6.744   3.542   0.400 -1.2633  0.3237 -0.1716
  129MOL0     H17392   6.735   3.612   0.563 -0.2860 -0.2100  0.3500
  129MOL0     H17393   6.653   3.822   0.490  0.8240 -0.7216  0.6831
  129MOL0     H17394   6.560   3.680   0.423  0.1239 -0.5442  1.1293
  129MOL0     H17395   6.721   3.871   0.262  0.2133  0.2321  0.2188
  129MOL0     H17396   6.550   3.837   0.268  0.0103 -0.9903  2.1104
  129MOL0     H17397   7.246   4.059   0.540  4.1089 -1.2674 -4.2641
  129MOL0     H17398   7.504   4.041   0.584  1.1494  0.3017 -0.5369
  129MOL0     H17399   7.875   4.359   0.659  1.2423 -1.7605 -0.6720
  129MOL0     H17400   8.118   4.387   0.711 -0.1117 -2.3595 -1.3335
  129MOL0     H17401   8.269   5.818   1.768  1.8645  2.6150  0.1347
  129MOL0     H17402   8.234   6.044   1.736 -1.8318 -0.7112  1.1542
  129MOL0     H17403   8.309   6.363   1.487 -2.7450 -3.3977  3.1136
  129MOL0     H17404   8.332   6.612   1.527 -0.4167  0.9038  1.6340
  129MOL0     H17405   8.257   6.824   1.655  0.1432 -0.0479 -1.0881
  129MOL0     H17406   8.338   6.831   1.497  0.9530  2.7812 -1.1258
  129MOL0     H17407   8.285   7.063   1.609  2.4590  0.0334 -2.8538
  129MOL0     H17408   8.120   7.034   1.596  1.8087  1.7002  2.1652
  129MOL0     H17409   8.115   7.109   1.378  0.0596 -1.7274 -0.5580
  129MOL0     H17410   8.210   6.975   1.319 -2.0801  1.1079 -2.6264
  129MOL0     H17411   8.315   7.198   1.250  1.2350 -0.0434  0.1672
  129MOL0     H17412   8.415   7.150   1.378  0.7460  1.2996  1.6485
  129MOL0     H17413   8.238   7.479   1.565  2.7820  0.5574  0.1117
  129MOL0     H17414   7.927   6.661   1.389 -2.1758 -1.6521 -0.0458
  129MOL0     H17415   7.886   6.422   1.395 -0.3354 -0.0272  1.2574
  130MOL0     O17416   8.953   2.014   7.268  0.3107 -0.4477  0.2227
  130MOL0     C17417   8.998   2.002   7.381 -1.0173 -0.7117 -0.1243
  130MOL0     O17418   8.923   1.971   7.496 -0.2197 -0.9802  0.1273
  130MOL0     C17419   8.787   1.967   7.487  0.4116  0.7896  0.6129
  130MOL0     C17420   8.716   2.030   7.583  0.3225  0.2182  0.3019
  130MOL0     C17421   8.575   2.027   7.582  0.6500 -0.9031 -0.3219
  130MOL0     C17422   8.502   1.958   7.489 -0.4643 -0.8807  1.2777
  130MOL0     O17423   8.370   1.939   7.474  0.4721  0.4460 -0.1359
  130MOL0     C17424   8.288   2.033   7.544  0.5400  0.1996 -0.3918
  130MOL0     C17425   8.138   2.002   7.537 -0.0846  0.8838 -0.7496
  130MOL0     C17426   8.078   1.953   7.403 -0.8398 -0.8344  0.3000
  130MOL0     C17427   7.939   2.010   7.370  0.2628 -0.4538 -0.0260
  130MOL0     C17428   7.896   1.968   7.242 -1.0144 -0.3681 -0.2297
  130MOL0     C17429   7.749   2.000   7.220  0.3614 -0.1529 -0.3980
  130MOL0     C17430   7.698   1.899   7.112  0.6751  0.1590  0.4812
  130MOL0     C17431   7.555   1.938   7.066  0.4311 -0.3455 -0.0071
  130MOL0     N17432   7.448   1.976   7.166 -0.0924 -0.3829  0.1016
  130MOL0     C17433   7.407   2.109   7.191  0.1434  0.1007  0.8648
  130MOL0     C17434   7.317   2.096   7.293  1.0966 -0.4547  0.1659
  130MOL0     C17435   7.228   2.207   7.351 -0.6483 -0.2762 -0.4332
  130MOL0     C17436   7.237   2.197   7.505  0.2477 -0.0980  0.1943
  130MOL0     C17437   7.376   2.225   7.559 -0.8963 -0.2876  0.1397
  130MOL0     C17438   7.354   2.269   7.700 -0.5553 -0.8567 -0.4310
  130MOL0     O17439   7.472   2.337   7.752 -0.8049 -0.1316  0.5436
  130MOL0     C17440   7.588   2.264   7.786  0.2928  0.0439 -0.4335
  130MOL0     C17441   7.589   2.121   7.799  0.3281 -0.2484  0.1963
  130MOL0     C17442   7.702   2.049   7.843  0.0466 -0.1649  0.2119
  130MOL0     C17443   7.700   1.896   7.841  0.6045  0.4069  0.9404
  130MOL0     C17444   7.812   2.122   7.889  0.2894 -0.2003 -0.4097
  130MOL0     C17445   7.944   2.067   7.930  0.4802 -0.0537 -0.4134
  130MOL0     O17446   8.008   2.136   8.033  0.8944  0.2020 -0.2340
  130MOL0     C17447   8.142   2.111   8.065 -0.5518 -0.9578  1.7236
  130MOL0     C17448   8.232   2.082   7.960 -0.0800 -0.3367  0.0051
  130MOL0     C17449   8.366   2.056   7.990 -0.4211 -0.5813 -0.5254
  130MOL0     C17450   8.404   2.045   8.126 -0.5067  0.6303  0.6632
  130MOL0     O17451   8.524   2.001   8.177  0.6194  0.1798  0.0533
  130MOL0     C17452   8.644   1.995   8.094  0.0937 -0.2209 -0.1240
  130MOL0     C17453   8.749   2.101   8.140 -0.6768 -0.6886  0.3373
  130MOL0     C17454   8.862   2.135   8.039 -0.5132 -0.0665 -0.0259
  130MOL0     C17455   8.962   2.021   8.021  0.4734  0.5833 -0.0401
  130MOL0     C17456   9.074   2.036   7.914  0.6961 -0.3695  0.1938
  130MOL0     C17457   9.205   1.966   7.945 -0.6239  0.2326 -0.0364
  130MOL0     C17458   9.295   2.041   8.049  0.9019  0.4858  0.0830
  130MOL0     C17459   9.402   1.956   8.096  0.3766  0.6624 -0.4639
  130MOL0    Cl17460   9.533   1.953   7.977 -0.0966 -0.2772 -0.6775
  130MOL0     C17461   8.316   2.090   8.226 -0.7867 -0.2294 -0.1810
  130MOL0     C17462   8.184   2.111   8.194  0.3334  1.3681  0.5558
  130MOL0     O17463   7.990   1.972   7.869  0.5847 -1.2304  0.2180
  130MOL0     C17464   7.811   2.261   7.887 -0.4919 -0.2927  0.3458
  130MOL0     C17465   7.699   2.329   7.827 -0.5453 -0.0039 -0.1075
  130MOL0     N17466   7.295   1.962   7.314 -0.0451 -0.1011 -0.2071
  130MOL0     N17467   7.380   1.890   7.240 -0.9634  0.4934 -0.2583
  130MOL0     C17468   8.586   1.894   7.390  0.8422  0.3090 -0.7233
  130MOL0     C17469   8.721   1.908   7.385  0.1555  0.0833  0.3594
  130MOL0     C17470   9.139   2.034   7.388 -0.5384  0.1854  0.3996
  130MOL0     C17471   9.215   2.113   7.292  0.3382 -0.6378 -0.3671
  130MOL0     C17472   9.341   2.159   7.325  0.3335  0.6503  0.6207
  130MOL0     C17473   9.406   2.119   7.438 -0.2465  0.3267  0.0425
  130MOL0     O17474   9.537   2.173   7.456  0.3655  0.2845 -0.4771
  130MOL0     C17475   9.588   2.131   7.582 -1.0255 -0.5970  0.5646
  130MOL0     C17476   9.736   2.168   7.583 -0.1803  0.7562  0.6615
  130MOL0     C17477   9.810   2.124   7.456 -0.5356 -0.5597  0.5610
  130MOL0     C17478   9.959   2.173   7.456  0.4129  0.2688  0.2904
  130MOL0     C17479  10.021   2.134   7.324  0.1864  0.1442 -0.0259
  130MOL0     C17480  10.078   2.101   7.224  0.0408 -1.2028 -0.4083
  130MOL0     C17481   9.333   2.039   7.535 -0.1845  0.1067 -0.2589
  130MOL0     C17482   9.196   2.000   7.513 -0.0149 -0.9783 -0.6554
  130MOL0     H17483   8.776   2.085   7.655  1.8558  0.2207 -0.9413
  130MOL0     H17484   8.524   2.066   7.669  1.9686 -1.5735  0.7750
  130MOL0     H17485   8.314   2.022   7.649 -4.0152 -1.3605  0.8276
  130MOL0     H17486   8.309   2.136   7.515  2.1707 -0.0988 -0.3373
  130MOL0     H17487   8.115   1.917   7.602  1.2636  0.7042 -0.4830
  130MOL0     H17488   8.080   2.089   7.569  0.2171  0.3933  1.3209
  130MOL0     H17489   8.141   1.988   7.321  0.3514 -2.1180  0.6238
  130MOL0     H17490   8.062   1.845   7.402 -0.0812 -1.0033  2.1734
  130MOL0     H17491   7.866   1.980   7.446  4.3132 -2.6599  3.4597
  130MOL0     H17492   7.950   2.119   7.371  2.2836 -0.6059  0.1799
  130MOL0     H17493   7.959   2.013   7.165  1.7106  1.3049  2.7460
  130MOL0     H17494   7.906   1.860   7.255 -0.9056 -0.0342  3.2754
  130MOL0     H17495   7.684   1.990   7.307  0.3554  1.8910 -0.1212
  130MOL0     H17496   7.740   2.104   7.190  0.3470  0.7946  2.5536
  130MOL0     H17497   7.765   1.901   7.026  0.8050 -0.0310  0.5746
  130MOL0     H17498   7.680   1.801   7.157  2.3023 -0.9005 -1.0218
  130MOL0     H17499   7.515   1.853   7.010 -1.8747  0.4065  0.3924
  130MOL0     H17500   7.559   2.026   7.001 -2.5772  0.9447  1.3862
  130MOL0     H17501   7.452   2.197   7.147  0.6949  0.7014  2.5466
  130MOL0     H17502   7.252   2.306   7.310 -2.1066  0.1947 -0.2044
  130MOL0     H17503   7.130   2.182   7.308  0.1920 -1.1126 -1.9647
  130MOL0     H17504   7.211   2.097   7.540 -1.7331  0.8553  1.6289
  130MOL0     H17505   7.165   2.260   7.558  1.8175 -0.0369  2.3896
  130MOL0     H17506   7.438   2.289   7.495  1.4911 -1.2078  1.3774
  130MOL0     H17507   7.427   2.128   7.568 -3.5220 -1.7096  0.7155
  130MOL0     H17508   7.318   2.190   7.767 -1.1541 -0.3679 -0.1684
  130MOL0     H17509   7.275   2.343   7.691  1.0783  0.9512 -0.5669
  130MOL0     H17510   7.504   2.064   7.761  1.1355 -0.5454 -1.2269
  130MOL0     H17511   7.758   1.867   7.752 -2.3618 -0.2525 -0.9245
  130MOL0     H17512   7.739   1.847   7.930 -0.6931 -2.7783 -0.0955
  130MOL0     H17513   7.599   1.859   7.823  0.1756  1.2617  1.5193
  130MOL0     H17514   8.206   2.084   7.855  1.0329  2.4718 -0.2983
  130MOL0     H17515   8.411   2.016   7.900 -0.0444 -3.1996  0.7141
  130MOL0     H17516   8.693   1.900   8.115  1.2236  0.7323  1.8605
  130MOL0     H17517   8.623   1.995   7.986  1.5305 -1.2980 -0.4343
  130MOL0     H17518   8.693   2.192   8.164  1.6359  0.6176  1.0689
  130MOL0     H17519   8.796   2.063   8.232  0.5611  2.9253  1.3445
  130MOL0     H17520   8.914   2.221   8.081 -2.2870  1.0243  0.0487
  130MOL0     H17521   8.822   2.159   7.940  2.0502  0.3719 -1.0417
  130MOL0     H17522   9.003   1.987   8.116 -3.1317  0.1521  1.5130
  130MOL0     H17523   8.899   1.941   7.981  0.2615  1.5833 -1.8518
  130MOL0     H17524   9.105   2.140   7.904 -2.2840  0.5802 -0.0182
  130MOL0     H17525   9.029   2.002   7.820 -0.8070 -0.4196  0.9010
  130MOL0     H17526   9.179   1.863   7.968 -1.0007  0.1825 -0.6641
  130MOL0     H17527   9.265   1.958   7.854 -0.4335  0.7508  0.0351
  130MOL0     H17528   9.236   2.081   8.132  0.5329  2.4617 -1.0431
  130MOL0     H17529   9.346   2.130   8.009  2.3850  0.7571  2.4016
  130MOL0     H17530   9.365   1.859   8.127  2.9443 -0.1780  0.2437
  130MOL0     H17531   9.440   1.996   8.191 -2.4549 -0.7167  1.3764
  130MOL0     H17532   8.361   2.089   8.325  3.6314 -0.3090 -1.9902
  130MOL0     H17533   8.114   2.131   8.275 -3.7016 -0.1459 -2.2014
  130MOL0     H17534   7.893   2.318   7.928 -0.2372 -0.2031 -0.2777
  130MOL0     H17535   7.699   2.437   7.832 -0.2559  0.0450 -0.9591
  130MOL0     H17536   8.535   1.848   7.306 -0.5638  3.0535 -1.4882
  130MOL0     H17537   8.766   1.865   7.296  0.7816  1.4788 -0.0221
  130MOL0     H17538   9.160   2.152   7.206 -1.1657 -1.3975  0.2238
  130MOL0     H17539   9.395   2.220   7.253 -1.5943  0.0699 -1.4238
  130MOL0     H17540   9.533   2.189   7.657 -0.0128  0.7447  0.3099
  130MOL0     H17541   9.568   2.026   7.607 -1.5716 -1.4132 -2.7951
  130MOL0     H17542   9.789   2.116   7.664  1.6589 -0.8930 -1.4873
  130MOL0     H17543   9.748   2.275   7.604  1.9919  0.3315  1.8640
  130MOL0     H17544   9.764   2.167   7.367 -1.0446 -1.0741  0.5705
  130MOL0     H17545   9.813   2.016   7.440  0.7268 -0.0494 -3.8369
  130MOL0     H17546  10.014   2.129   7.540 -0.5700 -2.9133 -0.6012
  130MOL0     H17547   9.953   2.282   7.467 -2.1780  0.1694  0.4079
  130MOL0     H17548  10.125   2.067   7.134 -0.1516 -4.4379  0.5966
  130MOL0     H17549   9.371   2.004   7.631 -1.0982  1.6548  0.7032
  130MOL0     H17550   9.141   1.961   7.597  1.4614  0.6403  1.1505
  131MOL0     O17551   9.606   5.234   0.685 -0.1282 -0.5908 -0.2050
  131MOL0     C17552   9.564   5.228   0.799 -0.1492 -0.4329  1.0720
  131MOL0     O17553   9.423   5.204   0.841 -0.4088 -0.5601 -0.4302
  131MOL0     C17554   9.343   5.148   0.748  0.3700 -0.4942 -0.0241
  131MOL0     C17555   9.358   5.020   0.711  0.1580  0.5002 -0.3481
  131MOL0     C17556   9.257   4.967   0.625 -1.3768  0.5746 -0.7648
  131MOL0     C17557   9.156   5.043   0.577  0.5517 -0.0507 -0.0250
  131MOL0     O17558   9.060   4.996   0.495 -0.4360 -0.1584 -0.2713
  131MOL0     C17559   9.060   4.856   0.448  0.5553 -0.6797 -0.9442
  131MOL0     C17560   8.932   4.823   0.380 -0.0769 -0.1637  0.1500
  131MOL0     C17561   8.885   4.931   0.276 -0.4468  1.2118  0.0306
  131MOL0     C17562   8.754   4.884   0.199 -0.1341  0.3266  0.2199
  131MOL0     C17563   8.700   5.004   0.118 -0.3825  0.6336 -0.0842
  131MOL0     C17564   8.559   4.964   0.066  0.1721  0.0502  0.6123
  131MOL0     C17565   8.515   5.073  -0.042  0.0126 -0.1691 -0.4508
  131MOL0     C17566   8.366   5.082  -0.060  0.5948  0.8412 -0.2769
  131MOL0     N17567   8.327   5.212  -0.105  0.0730 -0.5246 -0.4695
  131MOL0     C17568   8.345   5.265  -0.231 -0.5295 -0.8130  0.1396
  131MOL0     C17569   8.282   5.382  -0.235 -0.0610 -0.2655  0.3905
  131MOL0     C17570   8.281   5.460  -0.363 -0.1924  1.4044  0.2773
  131MOL0     C17571   8.134   5.485  -0.417 -0.1465  0.1654 -0.4138
  131MOL0     C17572   8.070   5.598  -0.339 -0.3701 -0.2016  0.4288
  131MOL0     C17573   7.968   5.676  -0.424 -0.0457  0.4555  0.6455
  131MOL0     O17574   7.878   5.763  -0.351 -0.0042 -1.1260 -0.5957
  131MOL0     C17575   7.771   5.802  -0.424 -0.3306 -0.6294  0.2630
  131MOL0     C17576   7.745   5.783  -0.558  0.7033 -0.4783  0.5713
  131MOL0     C17577   7.626   5.836  -0.619 -0.1595  0.1850 -0.4371
  131MOL0     C17578   7.619   5.824  -0.770  0.2367 -1.3329  0.8966
  131MOL0     C17579   7.550   5.922  -0.541  0.0289 -0.1481  0.0386
  131MOL0     C17580   7.429   5.983  -0.597 -0.5565 -1.0590  0.2423
  131MOL0     O17581   7.371   6.093  -0.523  0.4405  0.3881  0.8915
  131MOL0     C17582   7.237   6.097  -0.538  0.9811 -0.3675 -0.7725
  131MOL0     C17583   7.178   6.225  -0.526  0.9064  0.2435 -0.4258
  131MOL0     C17584   7.039   6.235  -0.539 -0.2763  0.1047  0.1786
  131MOL0     C17585   6.958   6.126  -0.567  0.8292  0.0107  0.1431
  131MOL0     O17586   6.821   6.149  -0.582 -0.5942 -0.6137  0.4209
  131MOL0     C17587   6.739   6.072  -0.496 -0.6679  0.6470 -0.1392
  131MOL0     C17588   6.607   6.144  -0.468 -0.2425  0.4583  0.0708
  131MOL0     C17589   6.532   6.157  -0.602 -0.2203 -0.3338 -0.3943
  131MOL0     C17590   6.417   6.254  -0.601 -0.2706  0.0539  0.6470
  131MOL0     C17591   6.460   6.400  -0.588  0.2424 -0.2004  0.3958
  131MOL0     C17592   6.339   6.491  -0.542 -0.7183  1.1011  0.4458
  131MOL0     C17593   6.208   6.478  -0.622 -0.1229  0.6012 -0.2872
  131MOL0     C17594   6.219   6.492  -0.772  0.6029 -0.0690 -0.3320
  131MOL0    Cl17595   6.273   6.649  -0.829 -0.0399  0.4230  0.2094
  131MOL0     C17596   7.013   6.000  -0.557 -0.6531 -0.4176 -0.2667
  131MOL0     C17597   7.149   5.988  -0.538  0.4418  0.8911  0.2910
  131MOL0     O17598   7.376   5.923  -0.695 -0.5884  0.0931 -0.1171
  131MOL0     C17599   7.581   5.953  -0.408  0.5862  0.8008  0.6607
  131MOL0     C17600   7.687   5.882  -0.349  0.2133 -0.3252  0.3297
  131MOL0     N17601   8.236   5.414  -0.110  0.0831  0.1643 -0.2694
  131MOL0     N17602   8.259   5.312  -0.034 -0.8836  0.3675  0.0478
  131MOL0     C17603   9.142   5.182   0.612 -0.1892  0.1641 -0.0408
  131MOL0     C17604   9.236   5.233   0.707 -0.5120  0.0187 -0.2693
  131MOL0     C17605   9.658   5.259   0.909 -0.4453  1.0348 -0.3228
  131MOL0     C17606   9.799   5.258   0.878 -1.1301  0.7609 -0.3224
  131MOL0     C17607   9.889   5.300   0.972  0.0031 -0.1848 -1.2086
  131MOL0     C17608   9.851   5.328   1.105  0.8524  0.5010  0.0259
  131MOL0     O17609   9.935   5.377   1.196 -0.7108 -0.2163 -0.4355
  131MOL0     C17610  10.069   5.322   1.218  0.7859  0.0186  0.4574
  131MOL0     C17611  10.129   5.376   1.351  0.0209 -0.0027 -0.9175
  131MOL0     C17612  10.156   5.526   1.360  0.2937  1.1057  0.4559
  131MOL0     C17613  10.202   5.579   1.495  0.8918 -0.0404 -0.4922
  131MOL0     C17614  10.343   5.594   1.498 -0.5073 -0.4532  0.2026
  131MOL0     C17615  10.458   5.609   1.494 -1.0038  1.4726 -0.9308
  131MOL0     C17616   9.709   5.329   1.134 -1.4531  1.0108 -0.2441
  131MOL0     C17617   9.617   5.301   1.032 -0.8756 -0.1312 -0.3577
  131MOL0     H17618   9.454   4.979   0.737  0.7028  1.4017 -0.8927
  131MOL0     H17619   9.272   4.866   0.588  0.7867  0.0611  1.2649
  131MOL0     H17620   9.152   4.848   0.388  1.5698  0.4239  0.3904
  131MOL0     H17621   9.058   4.800   0.541 -1.7051 -0.9800 -1.1263
  131MOL0     H17622   8.943   4.731   0.322 -2.1920  0.1591 -0.8302
  131MOL0     H17623   8.852   4.797   0.449 -0.5021 -0.7146 -0.5406
  131MOL0     H17624   8.869   5.028   0.323  5.7899  2.0831  1.3429
  131MOL0     H17625   8.967   4.943   0.204 -0.9359 -0.8469 -0.9330
  131MOL0     H17626   8.774   4.803   0.129  1.6435  1.4261 -0.6378
  131MOL0     H17627   8.682   4.866   0.279  0.4195  2.1145  1.1985
  131MOL0     H17628   8.682   5.099   0.168 -1.7581  0.7168 -0.6864
  131MOL0     H17629   8.774   5.038   0.045 -1.6263  4.0567  0.0523
  131MOL0     H17630   8.565   4.867   0.016  3.0690  1.1648 -1.4504
  131MOL0     H17631   8.484   4.947   0.145 -0.7587  0.6792 -0.1165
  131MOL0     H17632   8.542   5.170   0.001 -0.0455  1.9548 -4.6882
  131MOL0     H17633   8.559   5.060  -0.142  1.0753 -0.9776  0.1033
  131MOL0     H17634   8.325   5.064   0.040  0.0894  0.7131 -0.5037
  131MOL0     H17635   8.334   5.004  -0.130  2.6879 -0.8654  0.5559
  131MOL0     H17636   8.404   5.233  -0.316 -0.2192  1.2071 -0.4431
  131MOL0     H17637   8.339   5.551  -0.345  0.2688  1.0691  0.5260
  131MOL0     H17638   8.319   5.399  -0.445  0.2283 -0.8996  2.0970
  131MOL0     H17639   8.067   5.399  -0.418  0.5619 -0.4333 -2.6231
  131MOL0     H17640   8.143   5.528  -0.518 -0.9931  1.9308  0.2231
  131MOL0     H17641   8.142   5.671  -0.300 -0.8443  1.3806 -1.4671
  131MOL0     H17642   8.015   5.556  -0.255  0.5507  1.0900  1.7407
  131MOL0     H17643   7.910   5.605  -0.483 -2.1982  2.1819  0.5634
  131MOL0     H17644   8.013   5.739  -0.502 -2.1740  1.4537  0.1459
  131MOL0     H17645   7.816   5.743  -0.630 -0.7803 -2.1468 -0.0406
  131MOL0     H17646   7.551   5.748  -0.808 -1.5723  1.0222 -0.9340
  131MOL0     H17647   7.615   5.924  -0.815 -1.8342 -1.0522  1.5893
  131MOL0     H17648   7.717   5.793  -0.809  1.2470  1.2327  1.1888
  131MOL0     H17649   7.228   6.320  -0.508 -0.1754  0.6276  0.6563
  131MOL0     H17650   6.985   6.329  -0.530  1.2964  1.0209  0.4721
  131MOL0     H17651   6.716   5.972  -0.534  4.3663 -1.5082  1.5827
  131MOL0     H17652   6.785   6.050  -0.399 -1.8586 -2.0507 -0.1138
  131MOL0     H17653   6.554   6.081  -0.396  2.8716 -0.8809  1.3975
  131MOL0     H17654   6.625   6.243  -0.424  1.5710  1.3139 -2.3513
  131MOL0     H17655   6.496   6.059  -0.632  3.9011 -2.1678 -0.0322
  131MOL0     H17656   6.600   6.188  -0.683 -1.4125 -0.1727 -1.3593
  131MOL0     H17657   6.358   6.234  -0.691  2.6269  1.2419 -1.6498
  131MOL0     H17658   6.350   6.220  -0.521 -1.6826 -0.6490 -0.7648
  131MOL0     H17659   6.483   6.427  -0.692 -1.4465  2.9418  0.7350
  131MOL0     H17660   6.552   6.410  -0.531  0.7131  0.1323 -0.3960
  131MOL0     H17661   6.311   6.479  -0.437  0.4394  2.2547  0.9090
  131MOL0     H17662   6.372   6.595  -0.543  0.7241  0.7649 -3.5093
  131MOL0     H17663   6.132   6.547  -0.584  1.0868  1.6050  0.3659
  131MOL0     H17664   6.153   6.384  -0.613  0.6832  0.0987 -0.4712
  131MOL0     H17665   6.122   6.470  -0.816  0.6846  0.6079 -0.8716
  131MOL0     H17666   6.286   6.414  -0.808  1.0639  0.0768  0.1807
  131MOL0     H17667   6.955   5.909  -0.573  0.1667 -0.8359 -0.9571
  131MOL0     H17668   7.198   5.893  -0.520 -0.4508  0.3388 -0.1381
  131MOL0     H17669   7.518   6.022  -0.352  2.2216  2.1892  0.8967
  131MOL0     H17670   7.719   5.903  -0.247  0.7736  3.1305 -0.4177
  131MOL0     H17671   9.057   5.243   0.584  0.0803  2.9000  4.2108
  131MOL0     H17672   9.227   5.335   0.743  0.9759 -0.7904  2.8273
  131MOL0     H17673   9.839   5.216   0.787  2.1011 -4.0049  2.8451
  131MOL0     H17674   9.993   5.299   0.941  1.2251  1.6849  2.2512
  131MOL0     H17675  10.052   5.215   1.236  3.0709 -0.8254 -1.6790
  131MOL0     H17676  10.137   5.344   1.135  0.2203  2.8058  0.6416
  131MOL0     H17677  10.216   5.320   1.387 -0.7241 -0.8047 -0.3257
  131MOL0     H17678  10.052   5.360   1.427 -0.5223 -1.1247 -1.6742
  131MOL0     H17679  10.061   5.570   1.330  0.1858  0.8907  0.4842
  131MOL0     H17680  10.234   5.554   1.289 -0.0892  1.3333  0.1254
  131MOL0     H17681  10.158   5.515   1.572  0.4065 -1.3397 -1.7948
  131MOL0     H17682  10.161   5.679   1.507  2.1772  0.4109  0.3735
  131MOL0     H17683  10.559   5.632   1.465 -1.3776  2.9636 -1.1333
  131MOL0     H17684   9.683   5.364   1.234  1.1985  2.1307  0.1270
  131MOL0     H17685   9.516   5.306   1.071 -1.0528 -1.8315 -0.5173
  132MOL0     O17686   3.252   2.194   7.108 -0.5279 -0.0936 -0.2813
  132MOL0     C17687   3.242   2.112   7.018 -0.3208 -0.0074 -0.0756
  132MOL0     O17688   3.140   2.108   6.932 -1.0576  0.8738  0.1671
  132MOL0     C17689   3.059   2.218   6.924  0.9362 -0.1641  0.0021
  132MOL0     C17690   2.925   2.205   6.892 -0.3146 -0.3682  0.9814
  132MOL0     C17691   2.841   2.310   6.862  0.5321 -0.2711 -0.0695
  132MOL0     C17692   2.883   2.441   6.857 -0.3009  0.2821 -0.0699
  132MOL0     O17693   2.803   2.542   6.811  0.1058  0.4183 -0.0635
  132MOL0     C17694   2.815   2.677   6.864  0.3064 -0.2136  0.0949
  132MOL0     C17695   2.831   2.699   7.010 -0.3375  0.7596 -0.3966
  132MOL0     C17696   2.701   2.680   7.074  0.3780  0.4894  0.3464
  132MOL0     C17697   2.724   2.681   7.224  0.0978  0.2562 -0.4838
  132MOL0     C17698   2.589   2.670   7.308  0.7304  1.1269  0.3466
  132MOL0     C17699   2.612   2.645   7.457 -0.1458  0.4764 -0.7370
  132MOL0     C17700   2.711   2.527   7.479 -0.0200 -0.2379  0.6668
  132MOL0     C17701   2.716   2.496   7.635 -0.8335 -0.2630 -0.2361
  132MOL0     N17702   2.599   2.423   7.672 -0.6093 -0.5997 -0.2546
  132MOL0     C17703   2.570   2.298   7.615  0.9402 -0.2466 -0.1145
  132MOL0     C17704   2.468   2.265   7.694 -0.9817  0.3509 -0.1294
  132MOL0     C17705   2.384   2.145   7.674 -0.3615  0.0312  0.2565
  132MOL0     C17706   2.241   2.166   7.722 -0.1001 -1.1410  0.1720
  132MOL0     C17707   2.155   2.046   7.690  0.2134 -0.7960 -0.1891
  132MOL0     C17708   2.026   2.053   7.766  0.4483 -0.0638  0.6989
  132MOL0     O17709   2.026   1.963   7.879  0.8155  0.0822  0.9239
  132MOL0     C17710   1.914   1.945   7.952  0.6722  0.0759 -0.9011
  132MOL0     C17711   1.939   1.848   8.054 -0.0489 -0.6819  0.2651
  132MOL0     C17712   1.835   1.818   8.138  0.5618 -0.2625 -0.4010
  132MOL0     C17713   1.884   1.729   8.252 -0.3997  0.2235  0.4283
  132MOL0     C17714   1.702   1.864   8.118 -0.1838  0.0593 -0.7865
  132MOL0     C17715   1.587   1.835   8.215 -0.9037 -0.3294 -0.8038
  132MOL0     O17716   1.596   1.730   8.292 -0.1558 -0.4645 -0.6434
  132MOL0     C17717   1.508   1.728   8.396 -0.1043 -0.0726 -0.5476
  132MOL0     C17718   1.554   1.777   8.514  0.5808 -1.2728 -0.6574
  132MOL0     C17719   1.470   1.787   8.631  0.4853  0.4483  0.3685
  132MOL0     C17720   1.336   1.747   8.631 -0.7407 -0.5144  0.5604
  132MOL0     O17721   1.274   1.763   8.751  0.4656 -0.5043 -0.4313
  132MOL0     C17722   1.133   1.729   8.748  0.5121  0.3705 -1.1947
  132MOL0     C17723   1.063   1.768   8.889  0.2299  0.5817  1.3420
  132MOL0     C17724   0.907   1.756   8.900 -1.8781 -0.5312 -0.0920
  132MOL0     C17725   0.870   1.702   9.036  1.2801 -0.5628 -0.2114
  132MOL0     C17726   0.735   1.774   9.071  0.4085 -0.5388 -0.1972
  132MOL0     C17727   0.635   1.664   9.116 -0.3148  0.6219 -0.0083
  132MOL0     C17728   0.668   1.611   9.254 -0.3273 -0.0241 -0.0859
  132MOL0     C17729   0.569   1.506   9.309 -0.5903  0.0001  0.6360
  132MOL0    Cl17730   0.409   1.575   9.348  0.1213  0.3642  0.2416
  132MOL0     C17731   1.295   1.696   8.508 -0.0504  0.6216 -0.4080
  132MOL0     C17732   1.380   1.674   8.396 -0.4406 -0.7333 -0.1368
  132MOL0     O17733   1.489   1.918   8.214  1.5121 -0.7787 -0.5603
  132MOL0     C17734   1.674   1.954   8.007 -1.4873 -0.0126  0.5988
  132MOL0     C17735   1.786   1.999   7.930 -0.1564 -0.2891 -0.1198
  132MOL0     N17736   2.439   2.357   7.791  0.7978 -0.4003  0.0730
  132MOL0     N17737   2.517   2.457   7.779 -0.8073  0.4587  0.8710
  132MOL0     C17738   3.023   2.460   6.895  0.6771 -0.0584 -0.3742
  132MOL0     C17739   3.103   2.350   6.915 -0.1657 -0.4469  0.2995
  132MOL0     C17740   3.350   2.023   6.992 -0.5550 -0.0239  0.1705
  132MOL0     C17741   3.352   1.941   6.868  0.4955  0.1715 -0.4639
  132MOL0     C17742   3.471   1.864   6.842  0.2550  0.4776  0.4164
  132MOL0     C17743   3.578   1.862   6.935 -0.2664  0.9173  0.0026
  132MOL0     O17744   3.679   1.782   6.926 -1.0308  0.2697 -0.5842
  132MOL0     C17745   3.690   1.710   6.806  1.0333 -0.9293 -0.3878
  132MOL0     C17746   3.818   1.636   6.799 -0.2875 -0.3516  0.4082
  132MOL0     C17747   3.818   1.494   6.841  0.5483  0.0819 -0.0280
  132MOL0     C17748   3.780   1.482   6.995 -0.0956  0.1604 -0.4746
  132MOL0     C17749   3.830   1.351   7.035  0.5117  0.0613 -0.4949
  132MOL0     C17750   3.887   1.247   7.069  0.3933 -0.5230 -0.6119
  132MOL0     C17751   3.564   1.947   7.050 -0.5004 -0.7125 -0.2036
  132MOL0     C17752   3.457   2.033   7.074 -0.2334  0.6345  0.2790
  132MOL0     H17753   2.878   2.107   6.892  1.2551 -1.1500  0.7555
  132MOL0     H17754   2.736   2.301   6.836  0.6515 -1.9480 -0.1246
  132MOL0     H17755   2.899   2.725   6.812 -0.3115 -1.2201 -1.9478
  132MOL0     H17756   2.732   2.733   6.821  1.4456  1.8900  0.5253
  132MOL0     H17757   2.912   2.637   7.049  2.2459  2.6151 -2.4758
  132MOL0     H17758   2.846   2.807   7.017  0.5119  0.5321  1.8232
  132MOL0     H17759   2.639   2.762   7.038  0.7599  1.2084  1.2863
  132MOL0     H17760   2.658   2.586   7.037  2.1976 -0.2166 -0.1148
  132MOL0     H17761   2.801   2.605   7.243  0.2835  0.4244 -0.5634
  132MOL0     H17762   2.779   2.771   7.253 -0.9802  0.4975  0.9040
  132MOL0     H17763   2.538   2.764   7.288 -3.6542 -1.1321 -0.3927
  132MOL0     H17764   2.529   2.586   7.271 -0.6564  2.1660  0.1874
  132MOL0     H17765   2.645   2.739   7.502 -3.7815  0.4495  2.4999
  132MOL0     H17766   2.520   2.641   7.516 -1.0906  3.2204 -1.8346
  132MOL0     H17767   2.682   2.440   7.420  1.3952 -1.2862  1.4585
  132MOL0     H17768   2.809   2.563   7.445  1.0036  0.4340  3.9782
  132MOL0     H17769   2.711   2.594   7.683  3.3666  0.5761 -1.1511
  132MOL0     H17770   2.805   2.439   7.664  0.5679  0.9185 -2.0133
  132MOL0     H17771   2.618   2.241   7.536 -0.0859 -0.3263 -0.6959
  132MOL0     H17772   2.390   2.128   7.566 -0.1257  0.1015  0.2573
  132MOL0     H17773   2.422   2.066   7.740  1.0334  1.9014  1.7793
  132MOL0     H17774   2.195   2.254   7.676 -0.0841 -1.8124 -1.1863
  132MOL0     H17775   2.243   2.176   7.831 -2.8772 -1.9916  0.3719
  132MOL0     H17776   2.207   1.949   7.696  1.2190 -0.2238  4.2521
  132MOL0     H17777   2.129   2.055   7.585 -0.1335  1.2056  0.0426
  132MOL0     H17778   1.950   2.007   7.702  0.9471  0.0550  0.0032
  132MOL0     H17779   2.003   2.156   7.793  2.0775  0.6956 -0.6493
  132MOL0     H17780   2.038   1.805   8.066  0.1387  0.1324  2.0282
  132MOL0     H17781   1.992   1.739   8.268 -0.7774  2.3155  2.1603
  132MOL0     H17782   1.851   1.768   8.348 -0.2380 -2.2984  1.5745
  132MOL0     H17783   1.862   1.627   8.220  0.7341  0.8310 -2.7054
  132MOL0     H17784   1.657   1.807   8.531  0.1103 -0.8196  1.6494
  132MOL0     H17785   1.511   1.813   8.728 -0.1114 -1.8462  1.3137
  132MOL0     H17786   1.075   1.778   8.669 -2.1561 -2.6501 -1.3102
  132MOL0     H17787   1.107   1.623   8.739 -0.7086  0.5438 -0.0589
  132MOL0     H17788   1.104   1.706   8.970 -1.0452 -2.2099 -0.0238
  132MOL0     H17789   1.083   1.871   8.918  0.3039  0.8209  0.4454
  132MOL0     H17790   0.866   1.699   8.815  1.3315 -1.1360 -1.4099
  132MOL0     H17791   0.875   1.860   8.893 -0.6626 -0.2031 -1.2210
  132MOL0     H17792   0.864   1.594   9.053  0.6915 -0.1512  2.8060
  132MOL0     H17793   0.939   1.740   9.113 -1.4324 -1.4826  2.8958
  132MOL0     H17794   0.686   1.808   8.979 -1.0264 -2.1924 -0.1086
  132MOL0     H17795   0.740   1.857   9.142 -0.1005 -0.5052 -0.1961
  132MOL0     H17796   0.530   1.691   9.131 -0.4766 -0.8562  2.0746
  132MOL0     H17797   0.633   1.577   9.049 -0.9035 -0.2071  1.0281
  132MOL0     H17798   0.658   1.690   9.329 -1.2425  1.5441 -1.7539
  132MOL0     H17799   0.774   1.582   9.251  0.1731  1.6060  0.3000
  132MOL0     H17800   0.611   1.465   9.401  1.6596  1.3994  0.3242
  132MOL0     H17801   0.552   1.422   9.240  2.1506  0.3148 -0.5627
  132MOL0     H17802   1.194   1.658   8.503 -0.3530  1.1514  1.1741
  132MOL0     H17803   1.343   1.636   8.302 -1.8986 -1.0642  0.5389
  132MOL0     H17804   1.575   1.998   7.999 -0.7745  1.4744 -0.7087
  132MOL0     H17805   1.772   2.068   7.848 -3.9474  1.8494  2.0227
  132MOL0     H17806   3.078   2.554   6.883  1.7280 -0.7151 -0.8324
  132MOL0     H17807   3.208   2.379   6.915 -0.5424  1.0024  0.0476
  132MOL0     H17808   3.263   1.942   6.807  1.1768  3.8539 -1.6689
  132MOL0     H17809   3.449   1.806   6.753 -1.2666 -1.8726  2.2040
  132MOL0     H17810   3.610   1.636   6.798  0.8732 -0.5581 -3.0429
  132MOL0     H17811   3.692   1.781   6.723 -0.3898  0.0349  0.3572
  132MOL0     H17812   3.882   1.692   6.868 -3.0080  1.1846  1.8603
  132MOL0     H17813   3.857   1.640   6.697 -0.2840  1.6007  0.4444
  132MOL0     H17814   3.912   1.440   6.823 -0.7082 -1.8067 -1.2857
  132MOL0     H17815   3.745   1.438   6.783  1.4850 -1.6684  0.4037
  132MOL0     H17816   3.673   1.492   7.014  0.0615  1.5086 -0.1933
  132MOL0     H17817   3.832   1.563   7.047 -2.8600 -0.6560  4.1377
  132MOL0     H17818   3.933   1.154   7.096 -0.7814 -0.8477  0.3590
  132MOL0     H17819   3.652   1.947   7.113 -0.3593 -0.9987 -0.3933
  132MOL0     H17820   3.484   2.096   7.158 -1.0228  3.9661 -1.7659
  133MOL0     O17821   5.364   0.062   0.640 -0.0067  0.6567  0.0066
  133MOL0     C17822   5.288  -0.001   0.560 -0.6179 -0.0280 -0.6922
  133MOL0     O17823   5.192   0.060   0.479 -0.9230  0.5334  0.3893
  133MOL0     C17824   5.155   0.187   0.477 -0.4425 -0.5327  0.3483
  133MOL0     C17825   5.227   0.303   0.523  0.1161 -0.2951  0.3558
  133MOL0     C17826   5.168   0.427   0.503 -0.2592 -0.2063  0.8304
  133MOL0     C17827   5.032   0.437   0.472 -0.5216 -0.2568 -0.6910
  133MOL0     O17828   4.972   0.561   0.466 -0.0245  0.1294  0.6007
  133MOL0     C17829   4.954   0.616   0.593 -0.2281  0.6480 -0.7458
  133MOL0     C17830   4.807   0.666   0.620  0.6120 -0.4153 -0.0659
  133MOL0     C17831   4.766   0.775   0.522  0.6013 -0.1195 -0.2153
  133MOL0     C17832   4.647   0.869   0.584  0.2543 -0.0940 -0.7770
  133MOL0     C17833   4.587   0.969   0.487 -0.5538 -0.1274  0.8482
  133MOL0     C17834   4.675   1.064   0.410 -0.4300 -0.2002 -0.8280
  133MOL0     C17835   4.758   1.148   0.507  0.9552  0.1271  0.0362
  133MOL0     C17836   4.866   1.223   0.430  0.5391 -0.0393  0.0778
  133MOL0     N17837   4.955   1.124   0.362 -0.3695  0.3879  0.4480
  133MOL0     C17838   5.039   1.037   0.416 -0.3830  0.4135 -0.6711
  133MOL0     C17839   5.116   0.986   0.316 -0.4792  0.2833  0.8285
  133MOL0     C17840   5.246   0.914   0.340  0.5870  0.7038 -0.3934
  133MOL0     C17841   5.264   0.776   0.260  0.1583  0.0039  0.2141
  133MOL0     C17842   5.384   0.703   0.330  0.0515 -0.3903 -0.0970
  133MOL0     C17843   5.392   0.549   0.277  0.0927 -0.6396  0.2692
  133MOL0     O17844   5.437   0.535   0.145 -0.6452  0.4284  0.1949
  133MOL0     C17845   5.543   0.615   0.104 -0.3994  0.1855 -0.4855
  133MOL0     C17846   5.675   0.600   0.160 -0.3038  0.6586  0.2667
  133MOL0     C17847   5.790   0.655   0.102  0.6702  0.0223  0.1922
  133MOL0     C17848   5.935   0.620   0.158  1.5487 -0.1295  0.8503
  133MOL0     C17849   5.769   0.744  -0.008  0.3045 -0.2087 -0.1841
  133MOL0     C17850   5.883   0.794  -0.089 -0.2746  0.2808 -0.4073
  133MOL0     O17851   5.854   0.804  -0.226 -0.2862 -0.7598 -0.0776
  133MOL0     C17852   5.961   0.852  -0.304  0.0735  0.2198 -0.8906
  133MOL0     C17853   6.050   0.756  -0.347  0.4407 -0.1581  0.1678
  133MOL0     C17854   6.162   0.790  -0.420 -0.0471 -0.6727  0.1199
  133MOL0     C17855   6.208   0.917  -0.426 -0.1722 -0.0786  0.8003
  133MOL0     O17856   6.332   0.942  -0.476  0.5460  0.0086  0.4457
  133MOL0     C17857   6.362   0.880  -0.602 -0.0293 -0.5420 -0.1271
  133MOL0     C17858   6.470   0.966  -0.682  0.8951  0.1692  0.2639
  133MOL0     C17859   6.511   0.905  -0.818  0.3769 -0.2013 -0.6253
  133MOL0     C17860   6.655   0.855  -0.831 -0.1644 -0.4768 -0.1522
  133MOL0     C17861   6.684   0.833  -0.986  1.3129  0.6822  0.2546
  133MOL0     C17862   6.825   0.785  -1.016 -0.0364  0.6095  0.0416
  133MOL0     C17863   6.932   0.889  -0.985  0.5317 -0.1060 -0.1874
  133MOL0     C17864   7.071   0.831  -1.000 -0.1000  0.7638  0.0893
  133MOL0    Cl17865   7.123   0.675  -0.911  0.3022 -0.5945 -0.4232
  133MOL0     C17866   6.122   1.020  -0.378 -0.2887  0.7321  0.2356
  133MOL0     C17867   5.997   0.995  -0.316  0.2813  0.3547 -0.2566
  133MOL0     O17868   5.992   0.821  -0.028 -0.1266  0.3674 -0.1987
  133MOL0     C17869   5.642   0.771  -0.060 -0.4640  0.4752 -0.8089
  133MOL0     C17870   5.533   0.694  -0.009 -0.4937 -0.0091  0.2226
  133MOL0     N17871   5.079   1.050   0.197  0.5190 -0.8026  0.1833
  133MOL0     N17872   4.980   1.132   0.225  0.2983 -0.4023 -0.7519
  133MOL0     C17873   4.967   0.327   0.416  0.0627  0.0310 -0.1426
  133MOL0     C17874   5.027   0.204   0.415 -0.2346 -0.8984  0.4191
  133MOL0     C17875   5.303  -0.143   0.542 -0.3892  0.6120  0.5196
  133MOL0     C17876   5.378  -0.222   0.631 -0.7734  0.2072  0.0483
  133MOL0     C17877   5.395  -0.359   0.615  0.0839  0.1770 -0.6868
  133MOL0     C17878   5.319  -0.420   0.519 -1.2501  0.5613  0.1320
  133MOL0     O17879   5.313  -0.554   0.502  0.4014  1.0176 -0.3847
  133MOL0     C17880   5.427  -0.634   0.545  0.6396  0.1101  0.2909
  133MOL0     C17881   5.397  -0.703   0.677 -0.0905  0.9535 -0.8970
  133MOL0     C17882   5.530  -0.757   0.734 -0.7103 -0.0912 -0.5903
  133MOL0     C17883   5.498  -0.850   0.859  0.4934 -0.1645 -0.4488
  133MOL0     C17884   5.473  -0.986   0.809  0.9496  0.9300  0.1312
  133MOL0     C17885   5.440  -1.100   0.776  0.3522 -0.8691  0.6762
  133MOL0     C17886   5.250  -0.351   0.426 -0.8818 -0.5586  0.6110
  133MOL0     C17887   5.240  -0.209   0.433  0.8888  0.0189  0.7349
  133MOL0     H17888   5.330   0.308   0.558  0.2522  0.7410 -0.1448
  133MOL0     H17889   5.217   0.522   0.520 -3.7020  1.3748  2.9191
  133MOL0     H17890   4.986   0.548   0.672 -1.0953  1.3333  0.2121
  133MOL0     H17891   5.025   0.699   0.603  3.1956 -1.3555 -5.0031
  133MOL0     H17892   4.729   0.590   0.612 -0.7873  0.9732 -0.0127
  133MOL0     H17893   4.799   0.698   0.724 -2.1046  0.5705 -0.5129
  133MOL0     H17894   4.847   0.845   0.498 -0.1876  1.7083  2.0487
  133MOL0     H17895   4.720   0.742   0.428 -1.5556  2.2291 -0.1115
  133MOL0     H17896   4.564   0.804   0.612  1.1523 -0.9971 -0.1471
  133MOL0     H17897   4.685   0.921   0.672 -1.3130  1.9955 -1.2457
  133MOL0     H17898   4.529   0.903   0.422 -1.4467 -1.1792  2.6032
  133MOL0     H17899   4.524   1.029   0.554 -1.9130  1.2293 -1.4953
  133MOL0     H17900   4.739   1.010   0.341  0.9589  0.0228  0.2570
  133MOL0     H17901   4.600   1.126   0.359  0.2382 -1.3820 -3.4319
  133MOL0     H17902   4.698   1.212   0.573  1.0977 -0.3121  0.6054
  133MOL0     H17903   4.817   1.084   0.574  0.6902 -1.1719 -0.9449
  133MOL0     H17904   4.921   1.288   0.498  1.4842 -2.6074  1.9363
  133MOL0     H17905   4.821   1.296   0.362  0.7759  0.1855  0.1619
  133MOL0     H17906   5.051   1.017   0.522  2.8967 -0.8276 -1.1402
  133MOL0     H17907   5.329   0.979   0.311  0.3284  2.3306  2.1712
  133MOL0     H17908   5.254   0.913   0.449  1.5865 -0.4019 -0.4539
  133MOL0     H17909   5.284   0.775   0.153  3.2505  1.0138  0.6655
  133MOL0     H17910   5.173   0.718   0.272  0.8948 -1.2257  0.0276
  133MOL0     H17911   5.359   0.700   0.437  0.2703  1.4078  0.0334
  133MOL0     H17912   5.473   0.764   0.311 -1.6609  1.5431 -2.5071
  133MOL0     H17913   5.290   0.514   0.257  0.5833 -0.3308 -3.4687
  133MOL0     H17914   5.432   0.482   0.354 -0.1856  0.8219  1.7447
  133MOL0     H17915   5.702   0.530   0.239  0.7040  1.0249  0.2703
  133MOL0     H17916   5.977   0.708   0.208  2.4287 -2.2650  4.1765
  133MOL0     H17917   5.930   0.549   0.241  0.2929 -0.4414  0.5273
  133MOL0     H17918   5.999   0.580   0.079  2.5329  0.8430  1.1310
  133MOL0     H17919   6.019   0.655  -0.320  0.0439  0.0004  0.3148
  133MOL0     H17920   6.232   0.710  -0.445  3.3600  2.2204 -0.3385
  133MOL0     H17921   6.391   0.778  -0.575  0.4418 -0.6551 -1.0212
  133MOL0     H17922   6.278   0.880  -0.673 -0.4847 -1.8999  0.3777
  133MOL0     H17923   6.423   1.065  -0.688 -2.5331 -1.1860  1.8952
  133MOL0     H17924   6.559   0.963  -0.620 -0.7907  0.1579  2.8466
  133MOL0     H17925   6.485   0.978  -0.895 -0.2198  0.2334 -0.0253
  133MOL0     H17926   6.446   0.819  -0.836  0.6442 -0.7570  0.8840
  133MOL0     H17927   6.722   0.929  -0.787  0.4378 -0.5649 -0.8946
  133MOL0     H17928   6.652   0.763  -0.772 -2.1421 -0.4059 -0.0713
  133MOL0     H17929   6.664   0.914  -1.056 -0.2221 -2.2422 -2.9472
  133MOL0     H17930   6.603   0.768  -1.020 -0.0633  3.3948 -2.0194
  133MOL0     H17931   6.846   0.691  -0.963  0.9467  0.1773 -1.0588
  133MOL0     H17932   6.833   0.766  -1.123  4.1380 -1.0674  0.4387
  133MOL0     H17933   6.921   0.922  -0.881  0.0300 -0.2151 -0.2066
  133MOL0     H17934   6.926   0.969  -1.059  2.6224 -0.4447 -0.7898
  133MOL0     H17935   7.149   0.904  -0.978 -1.9215  2.9341 -0.3445
  133MOL0     H17936   7.080   0.812  -1.108 -0.0202 -1.5388  0.4477
  133MOL0     H17937   6.158   1.120  -0.399 -1.3959  1.2992  0.9113
  133MOL0     H17938   5.924   1.067  -0.281  1.6495  1.0089  1.4025
  133MOL0     H17939   5.627   0.847  -0.136 -4.3955  0.8747  0.1667
  133MOL0     H17940   5.438   0.699  -0.060 -0.3374  1.4731  0.0486
  133MOL0     H17941   4.870   0.351   0.374  0.2736  0.3879 -0.4308
  133MOL0     H17942   4.971   0.117   0.383 -4.1837  0.9333  1.6488
  133MOL0     H17943   5.427  -0.176   0.716  0.1231 -1.3692  0.4303
  133MOL0     H17944   5.447  -0.411   0.695  1.5468  0.9485 -1.1011
  133MOL0     H17945   5.442  -0.703   0.462 -3.9167 -0.4776 -0.3271
  133MOL0     H17946   5.519  -0.578   0.562  0.3693  0.0971  1.9852
  133MOL0     H17947   5.329  -0.789   0.671  2.0455 -0.9543  0.4094
  133MOL0     H17948   5.346  -0.634   0.744 -1.9038  0.9501 -2.2202
  133MOL0     H17949   5.591  -0.680   0.781 -0.8535 -0.5893  0.4428
  133MOL0     H17950   5.581  -0.814   0.656 -1.4786 -2.6423  0.6301
  133MOL0     H17951   5.399  -0.831   0.901  1.5254  0.8470  1.6702
  133MOL0     H17952   5.570  -0.847   0.941  1.4498 -2.9601 -1.0798
  133MOL0     H17953   5.427  -1.198   0.734  1.3993 -1.5264  1.8220
  133MOL0     H17954   5.198  -0.400   0.345  1.1562 -2.0222  0.0875
  133MOL0     H17955   5.193  -0.147   0.358  2.6465 -0.6647 -0.9980
  134MOL0     O17956   4.939   8.349   0.003 -0.0965  0.3437 -0.1621
  134MOL0     C17957   5.017   8.255   0.009 -0.0263 -0.1814  0.8547
  134MOL0     O17958   5.133   8.259   0.081  0.7867 -0.3215 -0.5374
  134MOL0     C17959   5.164   8.380   0.137 -0.2281  0.3840  0.7076
  134MOL0     C17960   5.107   8.432   0.255  0.4684  0.2040 -0.4830
  134MOL0     C17961   5.146   8.547   0.311 -0.7153  1.1277 -0.1626
  134MOL0     C17962   5.259   8.615   0.264 -1.5834 -0.5605 -0.8800
  134MOL0     O17963   5.319   8.730   0.317 -0.1604  0.3920  0.0215
  134MOL0     C17964   5.319   8.758   0.458  0.2526  0.0345 -0.9100
  134MOL0     C17965   5.374   8.895   0.489  0.6590 -0.3269 -0.1293
  134MOL0     C17966   5.527   8.889   0.475 -0.2401  0.4018  0.3076
  134MOL0     C17967   5.570   9.035   0.484 -0.1368 -0.2466 -0.2732
  134MOL0     C17968   5.720   9.044   0.437  0.4880 -0.7349  0.3489
  134MOL0     C17969   5.771   9.184   0.447 -0.4078 -0.0111 -0.4043
  134MOL0     C17970   5.909   9.204   0.370 -0.2235  0.7652 -0.4867
  134MOL0     C17971   5.937   9.350   0.355  0.5908 -0.3595 -0.1128
  134MOL0     N17972   6.072   9.373   0.315 -0.5431  0.0309  0.5280
  134MOL0     C17973   6.187   9.334   0.385 -0.1002  0.6133  0.6960
  134MOL0     C17974   6.288   9.372   0.307 -1.5274 -0.2461 -1.2342
  134MOL0     C17975   6.430   9.335   0.323 -0.4635  0.5330  0.8889
  134MOL0     C17976   6.474   9.274   0.193  0.3451 -0.0063  0.4704
  134MOL0     C17977   6.404   9.148   0.157 -0.1877  1.3204  0.3984
  134MOL0     C17978   6.422   9.034   0.254  0.6111 -0.7014  0.0812
  134MOL0     O17979   6.415   8.905   0.198  0.2981  0.5172  0.0146
  134MOL0     C17980   6.290   8.845   0.168  0.7572  0.6310  0.2664
  134MOL0     C17981   6.285   8.709   0.143  0.4631  0.4630 -0.0104
  134MOL0     C17982   6.169   8.630   0.127  0.4087 -1.4822  0.1136
  134MOL0     C17983   6.177   8.485   0.129  0.1048 -0.5016  0.4036
  134MOL0     C17984   6.045   8.707   0.107  0.6328 -0.2228 -0.5170
  134MOL0     C17985   5.917   8.643   0.080  0.1033 -0.7195  0.5438
  134MOL0     O17986   5.814   8.738   0.073  0.5615 -0.3367 -0.8853
  134MOL0     C17987   5.718   8.722  -0.020 -0.9783 -0.1599  0.5640
  134MOL0     C17988   5.741   8.651  -0.142  0.5605  0.0490 -0.1004
  134MOL0     C17989   5.636   8.606  -0.222  0.7664  0.2587 -0.6501
  134MOL0     C17990   5.505   8.651  -0.199  0.2223 -0.2215 -0.2220
  134MOL0     O17991   5.393   8.615  -0.276  0.1349 -1.2173 -0.1420
  134MOL0     C17992   5.406   8.502  -0.361 -0.4886  0.0959  0.1157
  134MOL0     C17993   5.252   8.457  -0.376 -0.2565  0.4133  0.4488
  134MOL0     C17994   5.236   8.374  -0.508  0.0308  0.0207 -1.4020
  134MOL0     C17995   5.335   8.265  -0.534  0.2615  0.0709  0.6845
  134MOL0     C17996   5.282   8.176  -0.645 -0.0051 -0.0304 -0.5578
  134MOL0     C17997   5.384   8.070  -0.670 -0.2240 -0.3010  0.1718
  134MOL0     C17998   5.370   8.033  -0.819 -0.4446 -0.5225  0.2308
  134MOL0     C17999   5.432   7.899  -0.855  0.7303 -0.1530  0.5649
  134MOL0    Cl18000   5.322   7.776  -0.805  0.0287  0.6845 -0.2456
  134MOL0     C18001   5.490   8.751  -0.095  0.2115 -0.7951  0.5102
  134MOL0     C18002   5.587   8.776  -0.000  0.2781  0.5510  0.2368
  134MOL0     O18003   5.896   8.519   0.079 -0.0589 -0.3146  0.2718
  134MOL0     C18004   6.049   8.847   0.138  0.4886 -0.2197 -0.1414
  134MOL0     C18005   6.171   8.917   0.163  0.9166 -0.1620  0.7540
  134MOL0     N18006   6.244   9.444   0.188  0.0829  0.4536  0.0032
  134MOL0     N18007   6.109   9.439   0.200  0.4338  0.7265 -0.8365
  134MOL0     C18008   5.322   8.560   0.150 -0.0341 -0.9585  0.7677
  134MOL0     C18009   5.274   8.444   0.083 -0.0105  0.5303  0.2850
  134MOL0     C18010   4.999   8.147  -0.086 -1.0300 -0.1116  0.5114
  134MOL0     C18011   4.897   8.147  -0.184 -0.5144 -0.0110  0.0766
  134MOL0     C18012   4.896   8.058  -0.298  0.4678  0.7392 -0.0664
  134MOL0     C18013   4.982   7.950  -0.310  0.1165  0.0756  0.5291
  134MOL0     O18014   4.971   7.868  -0.424  0.7955  0.4361  0.5395
  134MOL0     C18015   5.099   7.816  -0.471  1.0661  0.2148  0.5079
  134MOL0     C18016   5.075   7.712  -0.587  0.0996  0.1462  0.6839
  134MOL0     C18017   5.016   7.783  -0.711  0.6275 -0.6779  0.4715
  134MOL0     C18018   5.007   7.678  -0.825  0.1711 -0.2283 -0.7429
  134MOL0     C18019   4.905   7.573  -0.790 -0.2257 -0.0215 -0.6642
  134MOL0     C18020   4.814   7.494  -0.765  0.7893  0.1477  0.6778
  134MOL0     C18021   5.079   7.941  -0.208 -0.3818  0.1660 -0.1004
  134MOL0     C18022   5.088   8.032  -0.098 -0.2794  0.0431 -0.0371
  134MOL0     H18023   5.026   8.375   0.299  0.2007  0.7164 -0.3051
  134MOL0     H18024   5.092   8.592   0.394 -0.8582  3.6946 -1.5446
  134MOL0     H18025   5.222   8.744   0.505  0.1393  0.5943 -0.9722
  134MOL0     H18026   5.389   8.683   0.498  0.7310  0.8484 -0.1886
  134MOL0     H18027   5.323   8.970   0.427 -0.6165  0.3292  1.6402
  134MOL0     H18028   5.348   8.923   0.591 -4.3606  3.3655 -1.9515
  134MOL0     H18029   5.579   8.828   0.550 -0.4237 -0.5752 -0.3372
  134MOL0     H18030   5.544   8.863   0.371  2.5890  1.0032  0.5565
  134MOL0     H18031   5.504   9.092   0.417  1.7539 -0.2418 -2.2567
  134MOL0     H18032   5.561   9.085   0.581  0.1982  1.0221 -0.8641
  134MOL0     H18033   5.789   8.979   0.491  1.7444 -0.0625 -0.4212
  134MOL0     H18034   5.719   9.019   0.330 -1.1304  2.1077 -0.4191
  134MOL0     H18035   5.706   9.262   0.406 -0.0379  0.1195 -0.7556
  134MOL0     H18036   5.794   9.210   0.551  0.7757 -2.9714  0.1762
  134MOL0     H18037   5.993   9.151   0.414  1.1618  2.4811 -0.9373
  134MOL0     H18038   5.891   9.168   0.268  1.9795  0.5877 -0.8679
  134MOL0     H18039   5.928   9.397   0.453  1.3237 -0.8705  0.2167
  134MOL0     H18040   5.874   9.403   0.284 -2.9496 -1.2126  2.1106
  134MOL0     H18041   6.182   9.275   0.476  3.4910  2.1882  2.0971
  134MOL0     H18042   6.495   9.423   0.332  1.7754 -1.1949  3.0175
  134MOL0     H18043   6.448   9.261   0.402  1.7378 -0.9808 -0.9059
  134MOL0     H18044   6.582   9.258   0.197  0.5013  1.2468  2.4739
  134MOL0     H18045   6.455   9.350   0.116 -2.3480 -0.5502  0.4957
  134MOL0     H18046   6.461   9.105   0.075 -2.6931 -0.9166 -0.2910
  134MOL0     H18047   6.307   9.168   0.111  1.1153  1.3368 -2.5862
  134MOL0     H18048   6.361   9.046   0.343  1.4562 -0.1691  0.6022
  134MOL0     H18049   6.525   9.037   0.290  0.9468 -5.6036  0.3118
  134MOL0     H18050   6.385   8.670   0.158 -0.0555 -1.3909 -1.0733
  134MOL0     H18051   6.138   8.434   0.041 -0.8802  1.5320 -0.4081
  134MOL0     H18052   6.280   8.447   0.121 -1.3437 -4.4262 -2.5812
  134MOL0     H18053   6.110   8.445   0.205 -1.9809  1.4582 -0.2989
  134MOL0     H18054   5.836   8.615  -0.179 -0.9069 -2.6388 -1.5925
  134MOL0     H18055   5.641   8.538  -0.306 -2.3706  2.3089 -2.6807
  134MOL0     H18056   5.464   8.523  -0.452  2.8833  0.7814  2.2189
  134MOL0     H18057   5.458   8.417  -0.317  0.3818  1.0648  1.0325
  134MOL0     H18058   5.232   8.382  -0.299 -0.9838 -0.7570 -0.8470
  134MOL0     H18059   5.182   8.541  -0.367 -3.1289 -1.3641 -2.8318
  134MOL0     H18060   5.224   8.436  -0.597  1.0324  0.3592 -1.3188
  134MOL0     H18061   5.140   8.322  -0.503 -0.6025  1.1369 -1.5514
  134MOL0     H18062   5.432   8.306  -0.564  0.4718 -1.2944 -0.5921
  134MOL0     H18063   5.359   8.204  -0.446  0.5948  0.8776  1.1691
  134MOL0     H18064   5.270   8.242  -0.732 -2.1198  1.9510  1.1414
  134MOL0     H18065   5.187   8.136  -0.611  1.7718 -1.6821  2.9803
  134MOL0     H18066   5.489   8.099  -0.664 -0.4190  0.7947 -1.2311
  134MOL0     H18067   5.366   7.983  -0.606 -0.7701  1.8385  3.1479
  134MOL0     H18068   5.425   8.109  -0.876 -0.5916 -1.8907 -1.8860
  134MOL0     H18069   5.266   8.023  -0.850 -0.8446 -0.5446  1.5580
  134MOL0     H18070   5.528   7.890  -0.803  0.5009  1.2652  1.2806
  134MOL0     H18071   5.444   7.891  -0.963 -2.7001  0.7699 -0.0050
  134MOL0     H18072   5.392   8.794  -0.075  0.1306 -1.0919  0.7731
  134MOL0     H18073   5.578   8.826   0.095  0.8165 -2.4601  1.9853
  134MOL0     H18074   5.954   8.897   0.153 -0.1205 -0.5248 -2.6027
  134MOL0     H18075   6.159   9.021   0.191 -1.8302  0.5578 -2.4419
  134MOL0     H18076   5.416   8.599   0.113  1.3100 -0.7219  4.1280
  134MOL0     H18077   5.321   8.412  -0.009  1.0078  0.6936  0.7382
  134MOL0     H18078   4.836   8.237  -0.183 -1.7994 -0.8266  2.3854
  134MOL0     H18079   4.827   8.079  -0.379 -0.6770  4.4834  1.6669
  134MOL0     H18080   5.175   7.883  -0.512  1.5000 -2.1961 -3.0095
  134MOL0     H18081   5.144   7.754  -0.394 -2.6663 -4.1700 -0.3935
  134MOL0     H18082   5.007   7.636  -0.547 -0.9312  1.1416  0.8857
  134MOL0     H18083   5.176   7.674  -0.605  0.7591  2.0845  0.0568
  134MOL0     H18084   5.075   7.871  -0.740 -0.2503 -0.5846 -1.1249
  134MOL0     H18085   4.914   7.816  -0.687  0.8172  3.5340 -3.1214
  134MOL0     H18086   5.108   7.641  -0.848  2.4581  4.7856  0.0472
  134MOL0     H18087   4.963   7.734  -0.908 -1.2168 -0.2901 -0.0820
  134MOL0     H18088   4.737   7.424  -0.742 -0.9925  1.2518 -1.4990
  134MOL0     H18089   5.147   7.856  -0.202  0.4441  0.7506 -0.9892
  134MOL0     H18090   5.157   8.034  -0.014 -1.8249  1.8180  1.2611
  135MOL0     O18091   5.132   7.300   0.043  0.1852 -0.0064  0.3860
  135MOL0     C18092   5.176   7.223  -0.044 -0.2649 -0.6254 -0.3430
  135MOL0     O18093   5.114   7.117  -0.097  0.5617  0.2852 -0.0651
  135MOL0     C18094   4.976   7.120  -0.097  0.2886 -1.0203  0.1817
  135MOL0     C18095   4.903   7.006  -0.084  0.8320 -0.5739 -0.7685
  135MOL0     C18096   4.766   7.012  -0.076 -0.1419  0.2189 -0.3379
  135MOL0     C18097   4.692   7.123  -0.086  0.7644  0.1468  0.3836
  135MOL0     O18098   4.555   7.101  -0.068  0.1226 -0.5962  0.3481
  135MOL0     C18099   4.468   7.195  -0.130  0.5917  0.3420 -0.4081
  135MOL0     C18100   4.318   7.162  -0.092  0.3797 -0.4445 -0.7888
  135MOL0     C18101   4.291   7.011  -0.138 -0.3129  0.1534 -0.3746
  135MOL0     C18102   4.160   6.991  -0.209 -1.2148 -0.9775 -0.5411
  135MOL0     C18103   4.131   6.859  -0.266  1.2311  0.3025 -0.2722
  135MOL0     C18104   4.063   6.765  -0.161 -0.2329  0.6803  0.3305
  135MOL0     C18105   4.043   6.628  -0.223 -0.2030  0.7579  0.5051
  135MOL0     C18106   3.930   6.625  -0.326  0.0863  0.7027 -0.2354
  135MOL0     N18107   3.935   6.492  -0.401  0.2124  0.7284  0.5402
  135MOL0     C18108   3.913   6.363  -0.355  0.3403 -1.4250 -0.2421
  135MOL0     C18109   3.943   6.283  -0.460 -0.0409  0.1474  0.4380
  135MOL0     C18110   3.962   6.129  -0.459 -0.5429  0.7417 -0.2421
  135MOL0     C18111   3.844   6.050  -0.503 -0.3416  0.1256  0.0551
  135MOL0     C18112   3.733   6.064  -0.400 -0.0907 -0.0293  0.5975
  135MOL0     C18113   3.605   5.994  -0.453 -0.4472  0.7430 -0.5174
  135MOL0     O18114   3.624   5.862  -0.504 -1.5657 -0.4439 -0.5246
  135MOL0     C18115   3.566   5.751  -0.437  0.8821  0.4031  0.4339
  135MOL0     C18116   3.524   5.761  -0.305  0.1522  0.6194  0.0920
  135MOL0     C18117   3.443   5.663  -0.243  0.4831  0.3369  0.4131
  135MOL0     C18118   3.384   5.695  -0.098  0.1186 -0.2905  0.2460
  135MOL0     C18119   3.408   5.551  -0.324  1.1450 -0.2809 -0.0281
  135MOL0     C18120   3.304   5.451  -0.262 -0.0962  0.1120 -0.0409
  135MOL0     O18121   3.188   5.414  -0.328 -0.4533  0.9701 -0.0184
  135MOL0     C18122   3.097   5.323  -0.270  1.7883 -0.2142 -0.6967
  135MOL0     C18123   3.031   5.336  -0.144 -0.0040 -0.5863 -0.5223
  135MOL0     C18124   2.918   5.256  -0.107 -0.8874 -0.1119  0.5707
  135MOL0     C18125   2.867   5.165  -0.194  0.0398  0.2928 -0.5045
  135MOL0     O18126   2.752   5.088  -0.159 -0.1629 -0.3321  0.1712
  135MOL0     C18127   2.764   4.943  -0.173 -0.0185  0.8209  0.1854
  135MOL0     C18128   2.630   4.878  -0.182  0.2056  0.0312 -0.4683
  135MOL0     C18129   2.568   4.840  -0.046 -0.4912 -0.0054 -0.4006
  135MOL0     C18130   2.436   4.784  -0.051  0.0555  1.0619  0.0874
  135MOL0     C18131   2.343   4.797   0.067 -0.0224  0.8213 -0.4077
  135MOL0     C18132   2.395   4.717   0.191  0.7580  0.6362  0.1171
  135MOL0     C18133   2.306   4.756   0.311  0.6002  0.2185  0.3779
  135MOL0     C18134   2.337   4.667   0.424 -0.7855  0.5427 -0.9552
  135MOL0    Cl18135   2.290   4.733   0.584 -0.5930 -0.3770  0.2003
  135MOL0     C18136   2.925   5.154  -0.324  0.7400 -0.7493  0.2218
  135MOL0     C18137   3.042   5.230  -0.357 -0.1670  0.3715 -0.2693
  135MOL0     O18138   3.335   5.419  -0.142  0.5313  0.0577  0.0273
  135MOL0     C18139   3.458   5.534  -0.454 -0.0260  0.5935  0.4562
  135MOL0     C18140   3.539   5.640  -0.505  0.5419 -0.8486 -0.6414
  135MOL0     N18141   3.975   6.359  -0.575  0.3272 -0.4658 -0.6844
  135MOL0     N18142   3.973   6.483  -0.530  0.2928  0.3545 -0.0800
  135MOL0     C18143   4.763   7.241  -0.120  0.1571 -0.2630 -0.3571
  135MOL0     C18144   4.898   7.239  -0.131 -0.5890  0.2321 -0.2527
  135MOL0     C18145   5.316   7.248  -0.073  0.3506 -0.2825 -0.0504
  135MOL0     C18146   5.386   7.353  -0.015  0.1146  0.5059 -0.3587
  135MOL0     C18147   5.525   7.359  -0.050  0.2750 -0.2411 -0.8553
  135MOL0     C18148   5.587   7.280  -0.133  0.1258 -0.2555 -0.1559
  135MOL0     O18149   5.727   7.300  -0.146 -0.3022 -0.3397  0.2966
  135MOL0     C18150   5.810   7.235  -0.252 -0.5275 -0.3882 -0.9528
  135MOL0     C18151   5.777   7.278  -0.399 -0.8124 -0.3563 -0.9065
  135MOL0     C18152   5.894   7.247  -0.497 -0.2752 -0.3385 -0.2159
  135MOL0     C18153   6.003   7.352  -0.495  0.2948 -0.0913 -0.6138
  135MOL0     C18154   5.967   7.478  -0.567 -0.3628  0.5833 -1.0077
  135MOL0     C18155   5.965   7.578  -0.629 -0.3712 -0.7724  0.3562
  135MOL0     C18156   5.521   7.181  -0.210  0.3909  0.8923 -0.0004
  135MOL0     C18157   5.384   7.169  -0.176  0.0167  1.0821  0.0226
  135MOL0     H18158   4.938   6.903  -0.075  1.3341 -0.2605  2.0152
  135MOL0     H18159   4.716   6.915  -0.074 -0.6068  0.4334 -1.1106
  135MOL0     H18160   4.490   7.297  -0.099 -1.3267  1.3998 -2.3060
  135MOL0     H18161   4.472   7.177  -0.238  3.5425  0.1045 -0.3355
  135MOL0     H18162   4.302   7.171   0.016 -1.0990 -2.3827 -0.7985
  135MOL0     H18163   4.244   7.227  -0.139  1.3163  0.0935 -1.5338
  135MOL0     H18164   4.373   6.973  -0.198 -0.7776 -0.5086 -0.6056
  135MOL0     H18165   4.282   6.957  -0.044 -1.8842 -1.5038 -1.3980
  135MOL0     H18166   4.072   7.022  -0.152 -0.4243  1.4015 -0.4968
  135MOL0     H18167   4.176   7.065  -0.288 -1.5180  1.5305  1.6150
  135MOL0     H18168   4.054   6.879  -0.340  0.0261 -1.4113  0.4490
  135MOL0     H18169   4.213   6.809  -0.319  1.1804  2.1530 -2.2018
  135MOL0     H18170   4.127   6.756  -0.073 -0.0819 -1.7716  0.0254
  135MOL0     H18171   3.967   6.808  -0.132  0.3097  2.4984 -0.4259
  135MOL0     H18172   4.128   6.586  -0.278 -1.9957 -0.4921 -1.4475
  135MOL0     H18173   4.016   6.561  -0.141 -1.9766  1.1403  0.2563
  135MOL0     H18174   3.944   6.698  -0.406 -0.8010  1.8935  0.6733
  135MOL0     H18175   3.829   6.637  -0.285 -0.1712  0.9793 -0.9390
  135MOL0     H18176   3.884   6.330  -0.256 -0.0278 -0.3344  0.0335
  135MOL0     H18177   4.049   6.092  -0.514 -2.2384 -2.7992 -0.8649
  135MOL0     H18178   3.988   6.123  -0.353  1.4203  1.3971 -0.6473
  135MOL0     H18179   3.882   5.947  -0.497 -2.6210 -0.7152  1.4480
  135MOL0     H18180   3.805   6.079  -0.601  1.0363  1.2788 -0.1752
  135MOL0     H18181   3.707   6.168  -0.379  1.5108  0.2858  1.2032
  135MOL0     H18182   3.767   6.019  -0.306  2.2459  1.8309  0.7410
  135MOL0     H18183   3.581   6.058  -0.539  1.6524  0.9624 -0.9987
  135MOL0     H18184   3.516   6.004  -0.392  0.1409 -4.8473  1.7941
  135MOL0     H18185   3.538   5.844  -0.236  2.4806  0.1648  0.2387
  135MOL0     H18186   3.388   5.800  -0.068  1.6747  0.5706 -2.5329
  135MOL0     H18187   3.277   5.676  -0.092  0.2452 -0.5935  2.7049
  135MOL0     H18188   3.452   5.650  -0.025  4.1374  0.5009 -2.6279
  135MOL0     H18189   3.055   5.413  -0.072 -3.1874  0.2463 -0.2023
  135MOL0     H18190   2.884   5.252  -0.004  0.1284 -1.1524  0.8895
  135MOL0     H18191   2.820   4.913  -0.261 -1.1050  0.5882 -0.4449
  135MOL0     H18192   2.812   4.904  -0.083 -3.3475  2.2856  2.8632
  135MOL0     H18193   2.568   4.946  -0.241  1.0175 -0.2667 -1.7083
  135MOL0     H18194   2.659   4.793  -0.245  3.2259  0.7536 -0.2047
  135MOL0     H18195   2.576   4.932   0.013 -2.3738  0.7496 -1.2428
  135MOL0     H18196   2.616   4.757   0.007 -1.1796  0.5016  1.0719
  135MOL0     H18197   2.383   4.808  -0.143  1.5505  3.2644 -0.2978
  135MOL0     H18198   2.464   4.679  -0.061  2.2791  1.3960  1.8095
  135MOL0     H18199   2.250   4.754   0.028 -1.2053  4.6469 -2.2643
  135MOL0     H18200   2.336   4.904   0.088  0.7354  1.2996 -2.3832
  135MOL0     H18201   2.400   4.610   0.172  1.7921  0.6798  0.0801
  135MOL0     H18202   2.492   4.754   0.226 -0.6192  2.7819  2.0037
  135MOL0     H18203   2.203   4.740   0.277  0.4621  3.1916 -0.9017
  135MOL0     H18204   2.311   4.860   0.345  2.8115 -0.3279  1.9320
  135MOL0     H18205   2.445   4.648   0.432 -0.8487  0.3247 -0.6022
  135MOL0     H18206   2.280   4.575   0.412 -1.5797  0.2483  3.4093
  135MOL0     H18207   2.877   5.089  -0.397  0.6976 -0.0546 -0.3809
  135MOL0     H18208   3.096   5.222  -0.451 -1.5812  0.7042 -1.1447
  135MOL0     H18209   3.435   5.447  -0.515 -0.1583 -0.2164  1.6310
  135MOL0     H18210   3.584   5.617  -0.601 -0.0643 -1.8378 -0.7050
  135MOL0     H18211   4.698   7.326  -0.138 -0.6737 -0.7298  0.3639
  135MOL0     H18212   4.958   7.324  -0.162 -2.2004  1.4548 -0.1379
  135MOL0     H18213   5.343   7.410   0.068 -0.9327 -2.1807  1.0525
  135MOL0     H18214   5.581   7.432   0.008 -0.4432 -0.5037  0.2081
  135MOL0     H18215   5.915   7.249  -0.225 -1.0038 -0.4933  1.1632
  135MOL0     H18216   5.801   7.126  -0.252 -2.1590 -0.2903 -0.1218
  135MOL0     H18217   5.747   7.383  -0.399 -0.0126 -0.1246 -1.3758
  135MOL0     H18218   5.688   7.230  -0.439  0.2921 -0.2352 -3.7061
  135MOL0     H18219   5.855   7.228  -0.598 -2.8378 -0.7503  0.7874
  135MOL0     H18220   5.949   7.157  -0.467  2.5211  2.1359  2.8070
  135MOL0     H18221   6.091   7.310  -0.546  0.2201 -0.5283 -0.3823
  135MOL0     H18222   6.022   7.370  -0.389 -0.5028 -1.2407 -0.2555
  135MOL0     H18223   5.972   7.674  -0.675  0.9708 -1.4429 -0.9176
  135MOL0     H18224   5.564   7.107  -0.276  0.6135  0.1499  0.9604
  135MOL0     H18225   5.333   7.098  -0.242  4.6470 -0.3666 -2.4143
  136MOL0     O18226  10.510   6.829   2.977  0.6700  0.6832 -0.0872
  136MOL0     C18227  10.550   6.882   2.872  0.0302  1.0047 -0.0910
  136MOL0     O18228  10.515   6.848   2.742  0.5767  0.3105  0.2252
  136MOL0     C18229  10.408   6.767   2.718 -0.7364 -0.1192  1.2301
  136MOL0     C18230  10.405   6.724   2.581 -0.0489 -0.3884  0.2913
  136MOL0     C18231  10.306   6.650   2.526  0.0430  0.3850 -0.7417
  136MOL0     C18232  10.201   6.600   2.613 -0.7023  0.3845  0.1086
  136MOL0     O18233  10.101   6.529   2.552 -0.1962  0.2836 -0.3232
  136MOL0     C18234   9.973   6.567   2.591  0.1238 -0.3489  0.5775
  136MOL0     C18235   9.877   6.514   2.482  0.1340  0.5386 -0.0326
  136MOL0     C18236   9.729   6.564   2.487  0.7132  0.2480  0.4979
  136MOL0     C18237   9.697   6.677   2.396  0.1300 -0.8592 -0.0533
  136MOL0     C18238   9.545   6.696   2.386  1.2017 -0.1439 -0.5124
  136MOL0     C18239   9.462   6.743   2.509  0.5633 -0.1053 -0.2165
  136MOL0     C18240   9.311   6.712   2.498 -0.2797 -1.0574 -0.4803
  136MOL0     C18241   9.230   6.803   2.410  0.1794 -0.1321 -0.3908
  136MOL0     N18242   9.120   6.876   2.485  0.4438 -1.0825  0.5290
  136MOL0     C18243   9.137   6.972   2.587 -0.0702 -0.1313  0.9105
  136MOL0     C18244   9.014   7.013   2.628 -0.1099 -1.0855 -0.1637
  136MOL0     C18245   8.972   7.125   2.722 -0.3625  0.3191  0.2787
  136MOL0     C18246   8.931   7.057   2.859 -0.1616  0.4483  1.0322
  136MOL0     C18247   8.828   7.132   2.939  1.1691 -0.5042  0.4499
  136MOL0     C18248   8.863   7.274   2.978  1.4800  0.5469  0.1529
  136MOL0     O18249   8.746   7.322   3.058  0.2735  0.3438 -0.5410
  136MOL0     C18250   8.688   7.438   3.017  0.1995 -0.1681 -0.7798
  136MOL0     C18251   8.666   7.538   3.110  0.7643 -0.5865 -0.3964
  136MOL0     C18252   8.603   7.655   3.073  0.0783  1.1774  0.6493
  136MOL0     C18253   8.586   7.764   3.172 -0.4262  0.0490 -0.0428
  136MOL0     C18254   8.558   7.681   2.938  0.7713  1.0714  0.4003
  136MOL0     C18255   8.486   7.800   2.887  1.0070 -0.2167  0.8449
  136MOL0     O18256   8.392   7.784   2.783  0.0910  0.8610 -0.8422
  136MOL0     C18257   8.354   7.903   2.732  0.1110 -0.1242 -0.0105
  136MOL0     C18258   8.442   7.991   2.660  0.0361  0.4036  0.0818
  136MOL0     C18259   8.396   8.111   2.609  0.1937  0.1811 -0.4749
  136MOL0     C18260   8.265   8.153   2.622 -0.0301 -0.6176  0.1206
  136MOL0     O18261   8.230   8.263   2.550  0.5313 -0.0723 -0.4452
  136MOL0     C18262   8.100   8.252   2.483 -0.1179  0.0834  0.2776
  136MOL0     C18263   8.100   8.369   2.385  0.1825 -1.0713  0.5949
  136MOL0     C18264   7.953   8.370   2.331 -0.0314 -0.4839  0.7452
  136MOL0     C18265   7.924   8.284   2.205  0.2858  0.8690  0.5784
  136MOL0     C18266   7.781   8.274   2.152  0.5785 -0.1737  0.1994
  136MOL0     C18267   7.695   8.229   2.268  0.5384 -0.3084  0.0906
  136MOL0     C18268   7.551   8.203   2.210 -0.1234 -0.4606 -0.0732
  136MOL0     C18269   7.464   8.131   2.313  0.3848  0.6442  1.1834
  136MOL0    Cl18270   7.295   8.202   2.293  0.2518 -0.0858 -0.2159
  136MOL0     C18271   8.182   8.071   2.689 -0.9187 -0.6609 -0.3941
  136MOL0     C18272   8.222   7.946   2.736 -0.2294  0.7931 -0.1470
  136MOL0     O18273   8.503   7.909   2.934 -0.7184 -1.0664 -0.1555
  136MOL0     C18274   8.573   7.570   2.851  0.6883 -1.1230 -0.2954
  136MOL0     C18275   8.626   7.447   2.889 -0.5009 -0.7774 -0.4753
  136MOL0     N18276   8.922   6.934   2.550 -0.1150 -0.5949 -0.4678
  136MOL0     N18277   8.985   6.870   2.468 -0.4681  0.6643 -0.0791
  136MOL0     C18278  10.207   6.634   2.750  1.0080 -0.3630  0.4122
  136MOL0     C18279  10.303   6.717   2.801 -1.0895 -0.3216  0.1222
  136MOL0     C18280  10.659   6.983   2.886 -0.1328 -0.6893  0.7308
  136MOL0     C18281  10.719   7.028   2.769  0.0268 -0.6658  0.2376
  136MOL0     C18282  10.825   7.121   2.775 -0.9042 -0.0347  0.3291
  136MOL0     C18283  10.870   7.173   2.898 -0.1515  0.0434  0.2429
  136MOL0     O18284  10.966   7.267   2.920 -0.5428  0.1085 -0.0946
  136MOL0     C18285  11.019   7.338   2.805  0.0839  0.0030 -0.4499
  136MOL0     C18286  10.916   7.443   2.755 -1.5655 -0.7245 -0.1521
  136MOL0     C18287  10.994   7.551   2.675  0.0140  0.4600 -0.2551
  136MOL0     C18288  10.894   7.641   2.603  0.1644  0.0670  0.1998
  136MOL0     C18289  10.978   7.734   2.515 -0.2275  0.5941  0.3675
  136MOL0     C18290  11.038   7.803   2.437 -0.1649 -0.1730  1.2410
  136MOL0     C18291  10.812   7.126   3.014 -0.6471 -0.0392 -0.1277
  136MOL0     C18292  10.708   7.024   3.013 -0.6147  0.0602  0.3591
  136MOL0     H18293  10.488   6.771   2.529 -0.0006  1.2555  1.7687
  136MOL0     H18294  10.296   6.626   2.421 -2.8510  0.0998 -0.4935
  136MOL0     H18295   9.932   6.517   2.680 -1.4990 -0.3259 -0.1144
  136MOL0     H18296   9.970   6.676   2.600  1.2495 -0.2121 -0.4788
  136MOL0     H18297   9.900   6.534   2.377  1.5525  1.6017  0.4422
  136MOL0     H18298   9.885   6.407   2.500 -1.1532  0.5588  0.7637
  136MOL0     H18299   9.660   6.483   2.461 -3.3017  3.9886 -1.8173
  136MOL0     H18300   9.693   6.583   2.588 -1.2983  0.7911 -0.2600
  136MOL0     H18301   9.749   6.769   2.423  1.4089 -1.7369  0.5890
  136MOL0     H18302   9.735   6.652   2.296  0.7946 -1.4606  0.3371
  136MOL0     H18303   9.528   6.767   2.305 -3.3068 -1.3445 -0.9228
  136MOL0     H18304   9.502   6.605   2.342 -1.7741  1.0072 -0.2336
  136MOL0     H18305   9.489   6.690   2.601 -3.8313 -1.7195  0.3593
  136MOL0     H18306   9.473   6.851   2.521  0.9451 -0.2353  0.7117
  136MOL0     H18307   9.292   6.606   2.478 -1.1973 -1.3097  1.5039
  136MOL0     H18308   9.260   6.710   2.595 -0.3432  0.5000 -0.4604
  136MOL0     H18309   9.189   6.745   2.326 -0.6173 -0.6695  0.3631
  136MOL0     H18310   9.295   6.879   2.364  2.1768 -1.9876 -0.8245
  136MOL0     H18311   9.231   7.018   2.617  1.3028 -1.4775 -1.1302
  136MOL0     H18312   9.062   7.186   2.735 -0.8657  1.6806 -2.0948
  136MOL0     H18313   8.897   7.189   2.675 -0.0351  0.1900 -0.4355
  136MOL0     H18314   9.018   7.050   2.925  1.8138 -2.4206 -1.5997
  136MOL0     H18315   8.889   6.956   2.848 -0.8466  0.9169 -1.3137
  136MOL0     H18316   8.819   7.079   3.035  1.0870  4.0552  3.2468
  136MOL0     H18317   8.732   7.126   2.887  1.0139 -0.5767  0.7388
  136MOL0     H18318   8.881   7.316   2.878  0.2493 -2.0444 -1.2667
  136MOL0     H18319   8.948   7.276   3.046 -1.3021 -0.3540  4.0016
  136MOL0     H18320   8.706   7.508   3.206  0.7503 -0.0236 -0.2137
  136MOL0     H18321   8.658   7.844   3.151  2.2251 -1.8112  1.4287
  136MOL0     H18322   8.483   7.802   3.180 -0.3996 -0.2326  2.0702
  136MOL0     H18323   8.602   7.728   3.274 -0.3153 -1.2733 -0.5173
  136MOL0     H18324   8.544   7.962   2.635  0.0580  1.2646 -0.8841
  136MOL0     H18325   8.473   8.160   2.550 -0.9991 -0.9049 -3.0964
  136MOL0     H18326   8.090   8.161   2.423 -0.9366 -0.5790  1.3747
  136MOL0     H18327   8.017   8.245   2.554  1.2548  0.0978  1.9226
  136MOL0     H18328   8.110   8.460   2.444  1.7334 -1.0635  0.3433
  136MOL0     H18329   8.170   8.368   2.301 -1.1845 -0.9965 -0.5911
  136MOL0     H18330   7.940   8.474   2.298  1.6514  0.6212  3.2057
  136MOL0     H18331   7.886   8.356   2.417 -1.4446  0.7330 -0.1092
  136MOL0     H18332   7.993   8.308   2.124  1.2052 -2.2793  0.2693
  136MOL0     H18333   7.953   8.183   2.237 -1.3837  0.7963  1.9840
  136MOL0     H18334   7.777   8.202   2.070 -0.3896  0.7360 -0.5841
  136MOL0     H18335   7.754   8.373   2.113  0.5001 -0.3207 -0.1281
  136MOL0     H18336   7.737   8.142   2.321 -1.6999 -1.9904 -0.7500
  136MOL0     H18337   7.688   8.306   2.345  2.5375  0.2939 -0.2793
  136MOL0     H18338   7.562   8.152   2.114  2.3009  0.1577 -0.1743
  136MOL0     H18339   7.510   8.301   2.183 -0.9685 -0.0825  2.3460
  136MOL0     H18340   7.500   8.152   2.414  1.5841 -0.0074  0.9089
  136MOL0     H18341   7.469   8.023   2.295 -1.6541  0.7674 -0.4507
  136MOL0     H18342   8.077   8.094   2.705 -0.8802 -0.7138 -0.0573
  136MOL0     H18343   8.157   7.868   2.775  3.7095 -1.0783  3.3834
  136MOL0     H18344   8.529   7.575   2.751 -0.2146  3.5670  0.0908
  136MOL0     H18345   8.619   7.370   2.813 -0.7619 -1.9891  0.7184
  136MOL0     H18346  10.121   6.611   2.811  0.6687  0.1915  0.1442
  136MOL0     H18347  10.319   6.743   2.905  2.0947 -0.6564 -0.1861
  136MOL0     H18348  10.681   7.005   2.670  1.2979 -0.2260 -0.3792
  136MOL0     H18349  10.876   7.161   2.688  0.2674 -0.5331  0.7704
  136MOL0     H18350  11.109   7.388   2.842 -0.6102 -0.9592  2.8381
  136MOL0     H18351  11.046   7.269   2.725  1.1131 -0.5303  0.3257
  136MOL0     H18352  10.864   7.496   2.836 -3.4102  1.6961 -2.7372
  136MOL0     H18353  10.838   7.392   2.697  0.0665 -2.5061 -0.8948
  136MOL0     H18354  11.061   7.503   2.604  1.0084  0.9008  0.3665
  136MOL0     H18355  11.054   7.605   2.749  0.1971  0.6943 -0.5729
  136MOL0     H18356  10.839   7.710   2.667  0.5652  0.9373 -0.3811
  136MOL0     H18357  10.835   7.571   2.544  1.7290 -0.6648 -0.5655
  136MOL0     H18358  11.083   7.867   2.363  3.8030 -0.9212  2.7792
  136MOL0     H18359  10.845   7.171   3.107  0.5886 -0.5084 -0.3155
  136MOL0     H18360  10.658   6.998   3.105 -0.6644 -0.6964  0.1235
  137MOL0     O18361   3.339   5.060  10.012 -0.2699  0.2743 -0.0316
  137MOL0     C18362   3.393   5.014  10.110  1.2676  0.6443  0.3335
  137MOL0     O18363   3.347   4.908  10.189 -0.9452  0.1284  0.3536
  137MOL0     C18364   3.244   4.827  10.172  0.0237  0.6514 -0.3815
  137MOL0     C18365   3.256   4.703  10.232 -0.6506 -0.3375 -0.4934
  137MOL0     C18366   3.162   4.604  10.201  0.0894 -0.5430 -0.2163
  137MOL0     C18367   3.039   4.635  10.136  0.0226 -0.1889  0.2596
  137MOL0     O18368   2.944   4.540  10.107 -0.0941  0.0386  0.5923
  137MOL0     C18369   2.909   4.442  10.207 -0.4259  0.3657 -0.4157
  137MOL0     C18370   2.837   4.506  10.328  0.7051 -0.6287 -0.9270
  137MOL0     C18371   2.730   4.419  10.387  0.1160 -0.8761 -0.6013
  137MOL0     C18372   2.694   4.473  10.532 -0.3676  0.0361 -0.5591
  137MOL0     C18373   2.575   4.393  10.589  0.5410 -0.2394  0.9101
  137MOL0     C18374   2.458   4.359  10.487  0.4516  0.5233 -0.4980
  137MOL0     C18375   2.337   4.311  10.574 -1.1065  0.0245 -0.3213
  137MOL0     C18376   2.220   4.284  10.476  0.4813 -0.5918 -0.3388
  137MOL0     N18377   2.095   4.265  10.555 -0.3540  0.6805  0.1937
  137MOL0     C18378   1.994   4.352  10.562  0.2486 -1.0935 -0.0238
  137MOL0     C18379   1.901   4.292  10.642 -0.2170 -0.5187  0.3224
  137MOL0     C18380   1.768   4.347  10.675 -0.6738 -0.4835  0.2051
  137MOL0     C18381   1.665   4.326  10.563  0.0976  0.0331 -0.0954
  137MOL0     C18382   1.635   4.179  10.538 -0.5859  0.1218  0.5995
  137MOL0     C18383   1.564   4.120  10.654  0.0563  0.4733  0.2086
  137MOL0     O18384   1.512   3.984  10.629  0.4659  0.7987 -0.5687
  137MOL0     C18385   1.585   3.871  10.667 -0.2773 -0.5311 -0.6331
  137MOL0     C18386   1.505   3.752  10.689  0.0010  0.4773 -0.0386
  137MOL0     C18387   1.570   3.626  10.726 -0.4520 -0.2652 -0.1947
  137MOL0     C18388   1.482   3.511  10.750  0.3400  0.8958  0.0393
  137MOL0     C18389   1.710   3.636  10.737  0.7417  0.2947  0.0973
  137MOL0     C18390   1.793   3.507  10.739  0.6226 -0.7293 -0.6356
  137MOL0     O18391   1.871   3.497  10.854  0.5712 -0.1300  0.1213
  137MOL0     C18392   1.929   3.377  10.887  0.1102  0.1346 -0.1352
  137MOL0     C18393   1.919   3.321  11.017  0.4992 -0.8949  0.2169
  137MOL0     C18394   1.996   3.220  11.066 -0.2352  0.7370  0.6193
  137MOL0     C18395   2.067   3.141  10.967 -0.3385 -0.5851 -0.7557
  137MOL0     O18396   2.148   3.031  10.996 -0.2316  0.3226 -0.0222
  137MOL0     C18397   2.174   2.990  11.129  0.3054 -0.1971  0.3209
  137MOL0     C18398   2.256   2.854  11.130 -0.4132 -0.5593  0.7656
  137MOL0     C18399   2.283   2.804  11.273 -0.1995  0.4972 -0.6469
  137MOL0     C18400   2.407   2.712  11.281 -0.5799 -0.0969 -0.3193
  137MOL0     C18401   2.459   2.684  11.426 -0.2570  0.2896 -0.4154
  137MOL0     C18402   2.603   2.631  11.414 -0.4154 -0.2780  0.3903
  137MOL0     C18403   2.671   2.598  11.553  0.6139 -0.8950  0.1883
  137MOL0     C18404   2.827   2.577  11.550 -0.2570  0.1268  0.7539
  137MOL0    Cl18405   2.894   2.558  11.716  0.1197  0.1588  0.0115
  137MOL0     C18406   2.069   3.186  10.835 -0.0305  0.0949 -0.0764
  137MOL0     C18407   2.001   3.305  10.792 -0.4905  0.1736 -0.5649
  137MOL0     O18408   1.787   3.422  10.651 -0.0856 -0.3769  0.2593
  137MOL0     C18409   1.784   3.746  10.716 -0.6277 -0.7126 -1.1807
  137MOL0     C18410   1.724   3.866  10.686  0.6274  0.4588 -0.1333
  137MOL0     N18411   1.941   4.168  10.670 -0.0487  0.0870  0.2444
  137MOL0     N18412   2.059   4.154  10.620  0.7102 -0.4493 -0.1402
  137MOL0     C18413   3.033   4.760  10.074 -0.4090  0.7137 -0.7796
  137MOL0     C18414   3.135   4.856  10.089  0.2254 -0.0343 -0.0946
  137MOL0     C18415   3.524   5.060  10.151 -1.1072  0.0077  0.1298
  137MOL0     C18416   3.625   4.970  10.189 -0.7174 -0.4276 -0.3111
  137MOL0     C18417   3.743   5.015  10.244  0.8928  0.6010 -0.3260
  137MOL0     C18418   3.777   5.155  10.254  0.6434  0.1280 -0.1708
  137MOL0     O18419   3.891   5.214  10.311  0.0608 -0.3017 -0.0645
  137MOL0     C18420   3.969   5.131  10.404  0.0949 -0.6416  0.6149
  137MOL0     C18421   4.079   5.200  10.484 -0.0975  0.6479  0.5054
  137MOL0     C18422   4.141   5.315  10.413 -0.2445  0.7607 -0.0467
  137MOL0     C18423   4.236   5.389  10.521 -0.0136 -0.0451  0.5105
  137MOL0     C18424   4.250   5.536  10.502  0.1257 -0.2669  0.0337
  137MOL0     C18425   4.264   5.663  10.498  0.0639 -0.0438  0.3648
  137MOL0     C18426   3.678   5.241  10.219  0.1060  1.0666 -0.1827
  137MOL0     C18427   3.553   5.195  10.161 -1.5443 -0.0785 -0.7303
  137MOL0     H18428   3.351   4.695  10.284  0.9329 -0.3972 -3.2211
  137MOL0     H18429   3.184   4.503  10.233  0.7274 -1.0485 -2.0707
  137MOL0     H18430   2.839   4.373  10.160  0.1552 -0.2034 -0.4531
  137MOL0     H18431   2.994   4.377  10.230 -1.7732 -1.2937  0.0727
  137MOL0     H18432   2.904   4.548  10.403 -3.4943 -0.3673  3.1041
  137MOL0     H18433   2.790   4.598  10.291  1.6994  0.3903  0.2575
  137MOL0     H18434   2.647   4.433  10.317  1.9975  0.8181 -2.6335
  137MOL0     H18435   2.766   4.315  10.386 -1.1045 -1.4201 -4.0827
  137MOL0     H18436   2.781   4.456  10.595 -0.9908  1.1588  0.6451
  137MOL0     H18437   2.682   4.582  10.539  1.0853  0.1787  0.2543
  137MOL0     H18438   2.612   4.300  10.633  1.6511 -1.1186 -1.6911
  137MOL0     H18439   2.529   4.455  10.666 -1.2366 -0.6776  0.2443
  137MOL0     H18440   2.431   4.452  10.436 -1.0490  0.7377  0.6299
  137MOL0     H18441   2.483   4.279  10.416  0.5741 -0.3003  0.4625
  137MOL0     H18442   2.372   4.222  10.628 -1.6549  1.0353  1.8149
  137MOL0     H18443   2.320   4.394  10.643  0.6945  0.0469  0.1607
  137MOL0     H18444   2.233   4.212  10.395  1.4663  1.2541 -1.8858
  137MOL0     H18445   2.203   4.369  10.410 -0.8320 -0.6364 -0.0744
  137MOL0     H18446   1.982   4.449  10.515  0.5970 -0.0692  1.8863
  137MOL0     H18447   1.733   4.298  10.766 -1.6459 -1.0370 -0.4540
  137MOL0     H18448   1.778   4.456  10.684 -1.9822 -0.3931  0.6585
  137MOL0     H18449   1.712   4.369  10.473  0.4793  0.0314  0.1013
  137MOL0     H18450   1.573   4.373  10.597 -0.4356 -2.9057  2.9893
  137MOL0     H18451   1.726   4.126  10.509  0.1737  1.3053  0.7574
  137MOL0     H18452   1.567   4.179  10.452  0.8878  1.1928 -0.6336
  137MOL0     H18453   1.480   4.182  10.687  0.6231  0.8310  1.0072
  137MOL0     H18454   1.631   4.115  10.741 -0.1406  0.7615  0.3806
  137MOL0     H18455   1.396   3.751  10.690 -0.0416 -0.7876  2.0713
  137MOL0     H18456   1.472   3.478  10.854  0.8533  0.6953  0.0298
  137MOL0     H18457   1.379   3.536  10.722  0.4741  0.6670 -0.6715
  137MOL0     H18458   1.512   3.422  10.694 -1.1380 -0.9972  2.0620
  137MOL0     H18459   1.846   3.373  11.078  0.8276 -1.5982  1.2341
  137MOL0     H18460   2.002   3.200  11.172 -0.5288  0.9944  0.6839
  137MOL0     H18461   2.236   3.065  11.179  0.1017  2.7823 -3.4133
  137MOL0     H18462   2.081   2.969  11.182 -0.3633 -3.4582 -1.8405
  137MOL0     H18463   2.204   2.779  11.070 -0.2204 -2.5419  2.9159
  137MOL0     H18464   2.347   2.864  11.070 -2.1618 -1.0565 -2.2113
  137MOL0     H18465   2.189   2.757  11.302 -0.8879  0.9745 -2.0352
  137MOL0     H18466   2.292   2.883  11.348 -1.9948  0.3975 -0.2886
  137MOL0     H18467   2.378   2.619  11.232 -0.7642  0.3555 -1.0824
  137MOL0     H18468   2.485   2.769  11.229  2.5378 -1.1228  2.8436
  137MOL0     H18469   2.387   2.606  11.450  0.0261  0.5209  1.3023
  137MOL0     H18470   2.462   2.760  11.505 -1.3610 -0.1820  0.0979
  137MOL0     H18471   2.617   2.544  11.349 -1.1219 -0.9818  1.1593
  137MOL0     H18472   2.668   2.699  11.358 -1.6751 -1.0041 -2.1456
  137MOL0     H18473   2.624   2.505  11.585 -0.7696  0.6486  3.1355
  137MOL0     H18474   2.641   2.680  11.620 -1.8426 -0.9579 -0.7330
  137MOL0     H18475   2.885   2.652  11.496 -0.6306  0.2149  0.4672
  137MOL0     H18476   2.839   2.478  11.504 -0.6912 -0.5071  1.9523
  137MOL0     H18477   2.123   3.117  10.771  0.6652  1.6449 -1.2280
  137MOL0     H18478   1.995   3.339  10.689 -2.2341  0.9497 -0.2548
  137MOL0     H18479   1.892   3.755  10.725 -0.8668  2.0150 -0.1208
  137MOL0     H18480   1.785   3.955  10.674  0.1500  1.3809  3.3836
  137MOL0     H18481   2.945   4.791  10.019  0.3257  0.1559 -2.2994
  137MOL0     H18482   3.129   4.956  10.047 -2.1292 -0.6913 -1.5337
  137MOL0     H18483   3.616   4.862  10.189 -3.5222 -0.2718  0.8687
  137MOL0     H18484   3.813   4.936  10.269 -0.0164  0.2698  1.2710
  137MOL0     H18485   3.897   5.083  10.471  1.6892 -3.7655  0.2658
  137MOL0     H18486   4.004   5.050  10.339 -2.7957 -1.0116 -0.6213
  137MOL0     H18487   4.162   5.134  10.512  2.4861  2.5183 -2.1251
  137MOL0     H18488   4.039   5.227  10.582 -0.4678 -2.6580  1.3911
  137MOL0     H18489   4.061   5.376  10.371  0.2753  2.6567  1.5710
  137MOL0     H18490   4.212   5.283  10.336 -0.7712  1.5386 -0.8752
  137MOL0     H18491   4.337   5.348  10.507 -0.1375  0.0772 -0.8715
  137MOL0     H18492   4.210   5.374  10.626 -0.3502 -0.6131  0.3531
  137MOL0     H18493   4.277   5.769  10.491  2.9537 -0.3774 -0.6386
  137MOL0     H18494   3.688   5.347  10.239 -0.3263  0.7320  2.1233
  137MOL0     H18495   3.481   5.273  10.139 -1.2258  0.4554  0.0501
  138MOL0     O18496   6.465  10.468   2.915 -0.3672 -0.1331 -0.1882
  138MOL0     C18497   6.515  10.496   3.026 -0.5318  0.2946  0.4603
  138MOL0     O18498   6.456  10.469   3.145 -0.5220  0.3292 -0.4217
  138MOL0     C18499   6.327  10.417   3.152 -0.6757  0.0363 -0.1932
  138MOL0     C18500   6.303  10.326   3.261  0.5680  0.2725  0.0975
  138MOL0     C18501   6.173  10.278   3.275  0.6315  0.1643  0.3429
  138MOL0     C18502   6.069  10.320   3.186 -0.6280  0.4387 -0.7244
  138MOL0     O18503   5.947  10.272   3.209 -0.3553  0.4899  0.3281
  138MOL0     C18504   5.876  10.328   3.309  0.8697 -0.0323 -1.3500
  138MOL0     C18505   5.803  10.460   3.293 -0.4838 -0.5950 -0.3674
  138MOL0     C18506   5.757  10.510   3.441  0.4926 -0.0646 -0.5240
  138MOL0     C18507   5.686  10.638   3.434 -0.0504 -0.5488 -0.1379
  138MOL0     C18508   5.604  10.651   3.562 -0.5165 -0.4294 -0.7978
  138MOL0     C18509   5.525  10.785   3.536 -0.6025 -0.5333 -0.7535
  138MOL0     C18510   5.451  10.833   3.665 -0.1077  0.8055  0.3757
  138MOL0     C18511   5.340  10.938   3.630  0.6346  1.1725  0.6882
  138MOL0     N18512   5.375  11.039   3.536  0.1343  0.7301 -0.2524
  138MOL0     C18513   5.431  11.155   3.574 -0.2069 -0.5065  0.7718
  138MOL0     C18514   5.442  11.222   3.453  0.1800  0.3000 -0.6331
  138MOL0     C18515   5.487  11.363   3.436 -0.2873 -0.7819  0.4507
  138MOL0     C18516   5.594  11.361   3.321  0.2756  0.1848  0.7347
  138MOL0     C18517   5.652  11.510   3.320 -0.2100 -0.1315 -0.4059
  138MOL0     C18518   5.766  11.516   3.217  0.5566  0.9010 -0.4452
  138MOL0     O18519   5.865  11.419   3.238 -0.2726  0.6862 -0.2047
  138MOL0     C18520   5.974  11.431   3.155  0.0412  0.2420  0.4532
  138MOL0     C18521   5.982  11.484   3.026 -0.2284 -0.5458  0.1587
  138MOL0     C18522   6.103  11.492   2.947 -0.3437 -0.4603  0.0639
  138MOL0     C18523   6.114  11.565   2.815  0.1667 -0.3474  0.2395
  138MOL0     C18524   6.226  11.431   3.004  0.2935  0.4158  0.0455
  138MOL0     C18525   6.359  11.423   2.936  0.7640  0.1350 -0.1113
  138MOL0     O18526   6.392  11.307   2.875 -0.0353  0.3920  0.3296
  138MOL0     C18527   6.464  11.314   2.754 -0.0120 -0.2520  0.6519
  138MOL0     C18528   6.437  11.415   2.661 -0.0586  0.1849  0.2138
  138MOL0     C18529   6.498  11.399   2.534  0.5915  0.3052 -0.8250
  138MOL0     C18530   6.581  11.285   2.501  1.0905 -0.2370 -0.2759
  138MOL0     O18531   6.632  11.277   2.371 -0.6416  0.2001 -0.5519
  138MOL0     C18532   6.689  11.166   2.319  0.0476 -0.3031  0.5996
  138MOL0     C18533   6.743  11.201   2.179  0.2646  0.5889  0.7542
  138MOL0     C18534   6.870  11.274   2.203 -1.0634  0.7551 -0.2151
  138MOL0     C18535   6.931  11.338   2.077 -0.4932 -0.0552 -0.1774
  138MOL0     C18536   6.855  11.469   2.047 -0.3781 -0.9413 -0.1144
  138MOL0     C18537   6.855  11.582   2.153 -1.2245 -0.0864  0.2216
  138MOL0     C18538   6.719  11.619   2.191  0.4765  0.9175  0.7125
  138MOL0     C18539   6.715  11.701   2.318  0.0157 -0.2340 -0.8769
  138MOL0    Cl18540   6.849  11.824   2.333 -0.1268  0.3075  0.2953
  138MOL0     C18541   6.605  11.193   2.602  0.1915 -0.0530 -0.6351
  138MOL0     C18542   6.538  11.203   2.721  0.3941 -0.2244 -0.1513
  138MOL0     O18543   6.428  11.528   2.923  0.1137  0.0907 -0.0945
  138MOL0     C18544   6.208  11.359   3.125 -0.4239 -0.2345  0.5226
  138MOL0     C18545   6.093  11.364   3.201  0.2218 -0.0583  0.1950
  138MOL0     N18546   5.383  11.144   3.356  0.6580  0.8685 -1.0382
  138MOL0     N18547   5.339  11.039   3.410  0.1449 -0.0458  0.6991
  138MOL0     C18548   6.096  10.397   3.076 -0.2689 -0.7550 -0.3410
  138MOL0     C18549   6.223  10.444   3.057 -0.8349 -0.7229 -0.0492
  138MOL0     C18550   6.639  10.559   3.035  0.3796 -0.0569  0.5882
  138MOL0     C18551   6.665  10.663   3.133 -0.2010  0.6851  0.2170
  138MOL0     C18552   6.784  10.740   3.124 -0.1949  0.3752 -0.1535
  138MOL0     C18553   6.884  10.725   3.033  1.4005  0.5817 -0.3047
  138MOL0     O18554   6.997  10.793   3.008  0.0531  0.1044 -0.0725
  138MOL0     C18555   7.050  10.879   3.108 -0.5989 -0.4810  0.3929
  138MOL0     C18556   6.993  11.020   3.085 -0.2108 -0.3930 -0.2944
  138MOL0     C18557   6.982  11.061   2.943 -0.0013 -1.2371 -0.6750
  138MOL0     C18558   6.937  11.202   2.912  0.2717  0.1871 -0.3364
  138MOL0     C18559   6.833  11.260   3.003  0.3990  0.1285 -0.3127
  138MOL0     C18560   6.744  11.310   3.074 -0.6580 -0.2534  0.5320
  138MOL0     C18561   6.864  10.615   2.944  0.1392 -0.1209  0.1163
  138MOL0     C18562   6.747  10.532   2.944  0.0867  0.5978  0.3412
  138MOL0     H18563   6.368  10.295   3.342  4.0392  2.0831 -1.7190
  138MOL0     H18564   6.136  10.210   3.350 -0.9115  0.0623 -0.4725
  138MOL0     H18565   5.799  10.255   3.336  0.9092  0.0472 -1.0262
  138MOL0     H18566   5.940  10.336   3.397 -1.9977 -2.2315  1.1835
  138MOL0     H18567   5.870  10.540   3.258 -1.3086  2.2381  3.8131
  138MOL0     H18568   5.717  10.445   3.227 -1.5040 -4.5061  1.6050
  138MOL0     H18569   5.707  10.429   3.493  1.1936 -0.7752 -0.9261
  138MOL0     H18570   5.847  10.534   3.499  1.9511  0.5772 -2.8665
  138MOL0     H18571   5.750  10.726   3.427 -2.6840  1.9389  3.2162
  138MOL0     H18572   5.622  10.640   3.346  0.6389  0.8709 -0.6443
  138MOL0     H18573   5.542  10.561   3.567  0.1413 -0.8634 -0.1795
  138MOL0     H18574   5.669  10.646   3.650 -2.2233 -2.7161  0.4427
  138MOL0     H18575   5.595  10.868   3.520  1.9280 -2.4224  0.0311
  138MOL0     H18576   5.446  10.770   3.462 -0.3540  1.8547 -1.5869
  138MOL0     H18577   5.416  10.749   3.725  4.1851 -0.5070  1.3867
  138MOL0     H18578   5.522  10.892   3.724  1.8647 -0.1704 -0.9132
  138MOL0     H18579   5.298  10.979   3.722  2.3838 -1.5788  2.8826
  138MOL0     H18580   5.267  10.872   3.581  1.6248  0.5799 -0.0347
  138MOL0     H18581   5.471  11.198   3.666 -1.1263  1.2942  0.3748
  138MOL0     H18582   5.409  11.435   3.409  1.6790  2.2423  2.2722
  138MOL0     H18583   5.527  11.399   3.531 -2.1145 -0.2881  1.0896
  138MOL0     H18584   5.550  11.339   3.223  2.6476 -3.7927  0.3665
  138MOL0     H18585   5.673  11.289   3.344  0.7840  0.7251  0.6878
  138MOL0     H18586   5.704  11.543   3.410 -0.8503 -2.9778  1.1449
  138MOL0     H18587   5.570  11.576   3.289 -0.6521 -1.0877 -1.3750
  138MOL0     H18588   5.801  11.619   3.219 -0.9620  1.4566  2.0130
  138MOL0     H18589   5.717  11.491   3.123  0.9019 -0.0676 -0.3821
  138MOL0     H18590   5.884  11.507   2.985 -1.0684 -0.9278  1.8489
  138MOL0     H18591   6.175  11.653   2.840 -0.3891  1.1105 -3.0041
  138MOL0     H18592   6.168  11.499   2.747  3.9882  2.8866 -0.2440
  138MOL0     H18593   6.021  11.595   2.767  0.4247  0.0987  0.0124
  138MOL0     H18594   6.353  11.481   2.675 -1.6286 -1.6214 -0.2626
  138MOL0     H18595   6.473  11.476   2.462 -0.5429  1.1084  0.3909
  138MOL0     H18596   6.777  11.138   2.379  0.2235 -0.6233  0.1930
  138MOL0     H18597   6.623  11.080   2.331  0.5147 -0.8679 -0.6585
  138MOL0     H18598   6.763  11.103   2.135 -2.6375  0.3986 -0.3345
  138MOL0     H18599   6.673  11.247   2.108  0.9155  0.2868 -0.0984
  138MOL0     H18600   6.950  11.207   2.234  0.5312  2.0162 -1.4370
  138MOL0     H18601   6.854  11.348   2.282 -2.1004 -1.2534  1.5448
  138MOL0     H18602   7.031  11.380   2.095 -0.9375  0.4248  1.2963
  138MOL0     H18603   6.942  11.269   1.994  2.4012 -2.6815  2.1558
  138MOL0     H18604   6.751  11.442   2.027 -0.1793 -1.9474  0.1473
  138MOL0     H18605   6.896  11.509   1.954 -1.5621  0.2926 -0.1278
  138MOL0     H18606   6.912  11.544   2.239 -0.2655  1.7497  0.4650
  138MOL0     H18607   6.905  11.674   2.120 -1.7532  0.1934  0.1935
  138MOL0     H18608   6.652  11.533   2.205  0.6691  0.7695  0.7259
  138MOL0     H18609   6.683  11.686   2.113 -2.0124  0.4830  1.4106
  138MOL0     H18610   6.726  11.630   2.401 -3.8800  1.2296  1.1503
  138MOL0     H18611   6.617  11.750   2.320 -0.8393 -1.6472 -3.4919
  138MOL0     H18612   6.664  11.103   2.587 -0.9859 -0.6223 -2.1056
  138MOL0     H18613   6.549  11.132   2.802  1.0034  0.6923  0.5984
  138MOL0     H18614   6.294  11.303   3.161  1.1926  0.9853 -1.2005
  138MOL0     H18615   6.081  11.314   3.296 -1.1317 -0.4064 -0.1269
  138MOL0     H18616   6.007  10.427   3.022 -1.5970 -1.4942  1.3375
  138MOL0     H18617   6.227  10.513   2.973  1.0999  0.7944  1.2118
  138MOL0     H18618   6.586  10.693   3.200 -0.9895 -2.9239  1.1585
  138MOL0     H18619   6.780  10.824   3.191 -5.4397 -0.7035  1.2972
  138MOL0     H18620   7.039  10.842   3.211 -0.3710 -3.0068 -0.4361
  138MOL0     H18621   7.156  10.878   3.084 -1.4606  3.2980 -5.5705
  138MOL0     H18622   7.056  11.100   3.127  0.6954  1.4754 -4.6364
  138MOL0     H18623   6.896  11.018   3.134  1.3759 -0.1474  3.1956
  138MOL0     H18624   6.899  11.008   2.895 -1.3818  2.1866 -2.3653
  138MOL0     H18625   7.070  11.042   2.881  1.9475  1.9370  0.8849
  138MOL0     H18626   6.902  11.207   2.809  1.2847  0.4630 -0.6835
  138MOL0     H18627   7.023  11.267   2.930  0.3944 -0.3791  1.2682
  138MOL0     H18628   6.664  11.358   3.126 -1.4250  0.1151 -0.9130
  138MOL0     H18629   6.939  10.611   2.866  0.3819  0.9251  0.2768
  138MOL0     H18630   6.735  10.455   2.869  3.8406 -1.5428  1.6957
  139MOL0     O18631   6.807   8.267   4.598  0.1486 -0.2461  1.0962
  139MOL0     C18632   6.859   8.380   4.604 -0.4360  0.3267 -0.9682
  139MOL0     O18633   6.919   8.428   4.711 -0.8162 -0.1950 -0.2825
  139MOL0     C18634   6.930   8.349   4.829  0.6323  0.0505 -0.4089
  139MOL0     C18635   7.053   8.298   4.862 -0.4894  0.2630 -1.6383
  139MOL0     C18636   7.069   8.234   4.988  0.0417  0.4237  0.7337
  139MOL0     C18637   6.963   8.218   5.076  0.4057 -0.0529 -0.6923
  139MOL0     O18638   6.991   8.147   5.194  0.4202  0.1201 -0.6674
  139MOL0     C18639   6.880   8.084   5.272  1.0270  0.0687 -0.5123
  139MOL0     C18640   6.879   8.174   5.400  0.3208  0.7586  0.8128
  139MOL0     C18641   6.990   8.128   5.500  0.8056  1.0475  0.3987
  139MOL0     C18642   6.983   8.198   5.630 -0.6677 -0.4096 -0.3845
  139MOL0     C18643   7.026   8.109   5.743 -0.2481  0.4675 -1.1119
  139MOL0     C18644   7.012   8.169   5.875  0.6323  0.1872 -0.4165
  139MOL0     C18645   7.068   8.073   5.985  0.5063 -0.2259  0.3338
  139MOL0     C18646   7.085   8.144   6.121 -0.1219  0.8759  0.4051
  139MOL0     N18647   6.965   8.194   6.180 -0.2953  0.0339 -0.6183
  139MOL0     C18648   6.863   8.120   6.234  0.3377  0.6232  0.7337
  139MOL0     C18649   6.764   8.207   6.261  0.2008 -0.3816  0.5781
  139MOL0     C18650   6.632   8.166   6.321  0.8247  0.2648 -0.5098
  139MOL0     C18651   6.644   8.129   6.464 -0.1877  1.3723 -0.5795
  139MOL0     C18652   6.667   8.249   6.558  0.1862  0.6289 -0.4917
  139MOL0     C18653   6.546   8.329   6.592 -0.1016  0.1789 -1.0283
  139MOL0     O18654   6.443   8.339   6.493 -0.2060  0.0968  0.1793
  139MOL0     C18655   6.362   8.442   6.526 -0.8391 -0.7651 -0.4163
  139MOL0     C18656   6.273   8.432   6.626 -0.5597 -0.2057 -0.7234
  139MOL0     C18657   6.212   8.543   6.685  0.2075 -0.1585  0.8828
  139MOL0     C18658   6.119   8.508   6.794 -1.1370  0.0519 -0.2442
  139MOL0     C18659   6.230   8.673   6.630  0.3023 -0.3162  0.9888
  139MOL0     C18660   6.166   8.792   6.681  0.9103 -0.2082  0.8079
  139MOL0     O18661   6.044   8.772   6.743 -0.5298  0.2539  0.1823
  139MOL0     C18662   5.969   8.878   6.772 -0.1807 -0.3095 -0.5934
  139MOL0     C18663   5.908   8.939   6.673 -0.4942 -0.7652  0.3743
  139MOL0     C18664   5.809   9.042   6.685  0.0737 -0.1143  0.6681
  139MOL0     C18665   5.796   9.098   6.813  1.0018  0.3978  0.1364
  139MOL0     O18666   5.713   9.202   6.845 -0.0958  0.0322  0.6530
  139MOL0     C18667   5.605   9.239   6.768  0.5683 -0.5601  0.0131
  139MOL0     C18668   5.486   9.149   6.807  0.0088  0.4952 -1.0000
  139MOL0     C18669   5.359   9.187   6.716 -0.0548  0.1399 -0.8318
  139MOL0     C18670   5.213   9.150   6.770 -0.7319 -0.0086 -0.3701
  139MOL0     C18671   5.191   8.999   6.794  0.4338 -0.3189 -0.4213
  139MOL0     C18672   5.047   8.978   6.784 -0.1295  0.2732  1.2948
  139MOL0     C18673   4.960   9.053   6.884  0.4251  0.4812  0.5082
  139MOL0     C18674   4.809   9.049   6.836 -0.1606  0.4481 -0.4573
  139MOL0    Cl18675   4.782   9.179   6.717  0.0014  0.0830 -0.3540
  139MOL0     C18676   5.872   9.047   6.924  0.8183  0.3256 -0.7396
  139MOL0     C18677   5.955   8.938   6.898  0.0050 -0.1006 -0.1175
  139MOL0     O18678   6.237   8.888   6.694  0.1493  0.5363  0.2890
  139MOL0     C18679   6.301   8.679   6.512 -0.0766  0.8020  0.2859
  139MOL0     C18680   6.382   8.570   6.464  0.2044 -0.3626  0.7141
  139MOL0     N18681   6.828   8.331   6.254  0.8923 -0.3632  0.0351
  139MOL0     N18682   6.942   8.322   6.203 -0.2495 -1.2750  0.0792
  139MOL0     C18683   6.841   8.272   5.039  0.6230 -0.1103 -0.2275
  139MOL0     C18684   6.817   8.333   4.916 -1.0351 -0.7783 -0.1608
  139MOL0     C18685   6.839   8.471   4.485  0.5883  0.8804  0.3148
  139MOL0     C18686   6.832   8.609   4.505  0.0860  0.1678 -0.2008
  139MOL0     C18687   6.811   8.697   4.395 -0.5504 -0.1297 -0.0814
  139MOL0     C18688   6.783   8.657   4.269 -0.6737  0.5681 -1.8416
  139MOL0     O18689   6.767   8.754   4.173  0.1132  0.4956 -0.7182
  139MOL0     C18690   6.804   8.740   4.027 -0.6950 -0.0142 -0.6804
  139MOL0     C18691   6.963   8.720   4.004  0.9093  0.0842  0.4523
  139MOL0     C18692   6.984   8.690   3.859  0.1646 -0.1403 -0.2811
  139MOL0     C18693   7.131   8.657   3.836 -0.5302 -0.0118 -0.9068
  139MOL0     C18694   7.165   8.593   3.708  0.2167 -0.5715 -0.4423
  139MOL0     C18695   7.180   8.531   3.607 -0.2019 -0.7083  0.2787
  139MOL0     C18696   6.791   8.518   4.250  0.2375  0.5892 -1.2902
  139MOL0     C18697   6.806   8.419   4.359  0.3192 -1.1728  1.6038
  139MOL0     H18698   7.142   8.305   4.800  0.9472  0.2988  0.3229
  139MOL0     H18699   7.167   8.205   5.022 -0.9361 -1.9410  1.7869
  139MOL0     H18700   6.776   8.080   5.238 -0.4690 -0.3917  3.6063
  139MOL0     H18701   6.898   7.980   5.304 -0.1143  0.3805  1.2427
  139MOL0     H18702   6.900   8.277   5.372 -0.2260  0.4381 -0.9383
  139MOL0     H18703   6.773   8.168   5.426 -0.7806 -1.2751 -3.3289
  139MOL0     H18704   6.970   8.023   5.526  2.7425  0.4394 -0.3358
  139MOL0     H18705   7.092   8.142   5.462 -0.0269  1.9799 -1.6179
  139MOL0     H18706   7.045   8.288   5.637 -2.1344  0.4822  3.4754
  139MOL0     H18707   6.880   8.231   5.649 -0.4322  0.7124 -0.9111
  139MOL0     H18708   6.954   8.027   5.753  0.2702  0.2467  1.3076
  139MOL0     H18709   7.125   8.069   5.720  0.2943  0.6924  0.7314
  139MOL0     H18710   7.071   8.261   5.867 -1.4107  1.4569 -1.5845
  139MOL0     H18711   6.905   8.187   5.891  1.0669  2.6023  0.2110
  139MOL0     H18712   7.009   7.982   5.992  0.1694  0.0105  0.6022
  139MOL0     H18713   7.166   8.039   5.951  1.7353  2.5565  0.7893
  139MOL0     H18714   7.162   8.222   6.111  1.8901 -0.9990  0.4554
  139MOL0     H18715   7.119   8.073   6.197  0.6576  1.7619  0.9175
  139MOL0     H18716   6.863   8.012   6.234 -0.1080  0.6169  1.2732
  139MOL0     H18717   6.565   8.252   6.311 -0.7797 -0.7866  0.7935
  139MOL0     H18718   6.598   8.085   6.256 -0.6987  0.0475  0.5166
  139MOL0     H18719   6.723   8.055   6.478 -2.2215 -0.9211 -0.5309
  139MOL0     H18720   6.554   8.073   6.492  0.8701 -0.8059 -1.3105
  139MOL0     H18721   6.733   8.323   6.512  0.4356  0.6879 -0.0403
  139MOL0     H18722   6.702   8.220   6.657  0.4323 -0.3225 -0.8382
  139MOL0     H18723   6.565   8.435   6.612 -0.3766  0.2701 -1.2456
  139MOL0     H18724   6.512   8.273   6.680 -0.0453  0.5075 -0.7974
  139MOL0     H18725   6.260   8.327   6.648 -2.6650  0.0074 -0.6786
  139MOL0     H18726   6.115   8.576   6.879  0.8199 -1.2895  0.9871
  139MOL0     H18727   6.023   8.498   6.741 -1.3154  2.9449 -0.6256
  139MOL0     H18728   6.141   8.410   6.836 -0.1060 -0.1230 -1.1691
  139MOL0     H18729   5.934   8.898   6.576 -2.7219 -1.7159  0.1114
  139MOL0     H18730   5.766   9.088   6.597 -0.6110  1.5732  1.8506
  139MOL0     H18731   5.586   9.346   6.779 -0.9020 -0.9976  2.7950
  139MOL0     H18732   5.627   9.225   6.662 -0.3167  0.5573 -0.3315
  139MOL0     H18733   5.517   9.047   6.785  1.6673  0.7069  0.1963
  139MOL0     H18734   5.473   9.168   6.914 -1.4261 -2.2225 -0.6049
  139MOL0     H18735   5.368   9.139   6.618 -0.4561 -1.3159 -0.1818
  139MOL0     H18736   5.363   9.295   6.701  3.3267  0.4154  1.1165
  139MOL0     H18737   5.199   9.203   6.865  1.4945 -0.9113  0.5281
  139MOL0     H18738   5.130   9.193   6.713 -2.1394  0.4283  1.8619
  139MOL0     H18739   5.231   8.978   6.894 -0.8523 -0.3251  0.1114
  139MOL0     H18740   5.249   8.942   6.720 -0.7371 -2.2396  0.0706
  139MOL0     H18741   5.027   8.995   6.678  2.2181  2.3692  1.0887
  139MOL0     H18742   5.027   8.871   6.794 -1.7053  0.4287  0.2429
  139MOL0     H18743   4.997   9.154   6.900  2.2512 -0.1779  0.6177
  139MOL0     H18744   4.965   9.015   6.987  1.3023 -0.3369  0.1744
  139MOL0     H18745   4.746   9.071   6.923  1.1697  0.1785  0.6085
  139MOL0     H18746   4.786   8.953   6.789 -1.4663  1.4655 -1.9991
  139MOL0     H18747   5.862   9.105   7.015 -1.1497  1.0496 -1.3547
  139MOL0     H18748   6.022   8.902   6.975  0.6820  0.5672 -0.3781
  139MOL0     H18749   6.300   8.773   6.457  0.2818  1.1416  0.8448
  139MOL0     H18750   6.449   8.577   6.379  0.3930 -1.4944  0.7612
  139MOL0     H18751   6.756   8.261   5.105  1.4832  0.2242  0.9639
  139MOL0     H18752   6.719   8.373   4.891 -2.7332 -4.3203  0.2200
  139MOL0     H18753   6.822   8.644   4.608 -1.1313 -0.7721  0.0282
  139MOL0     H18754   6.802   8.805   4.405 -0.9081  0.1513 -2.7674
  139MOL0     H18755   6.749   8.655   3.987 -0.8501 -0.2691  0.0528
  139MOL0     H18756   6.769   8.827   3.972  0.8032  0.2610 -1.2425
  139MOL0     H18757   7.010   8.650   4.075 -0.4169  0.4347  1.7412
  139MOL0     H18758   7.010   8.818   4.015  1.2545  0.1075 -1.0487
  139MOL0     H18759   6.960   8.778   3.798  1.0802  0.8691  0.7845
  139MOL0     H18760   6.922   8.604   3.831  0.1857 -0.5902  1.0006
  139MOL0     H18761   7.171   8.596   3.917 -1.7386  0.5840  0.1885
  139MOL0     H18762   7.180   8.755   3.839 -0.7169  0.1101 -1.5348
  139MOL0     H18763   7.189   8.486   3.510 -1.0531  1.3164 -0.8126
  139MOL0     H18764   6.770   8.491   4.146  0.2698  2.1330 -1.7109
  139MOL0     H18765   6.798   8.316   4.326  1.8118 -0.9163  0.3359
  140MOL0     O18766   0.153   8.986   8.359 -0.4706  0.1986  0.4420
  140MOL0     C18767   0.130   8.892   8.283 -0.1306  0.0682  0.5950
  140MOL0     O18768   0.020   8.875   8.207 -0.4858  0.8101 -0.1812
  140MOL0     C18769  -0.071   8.968   8.174  0.7344  0.4522  0.1873
  140MOL0     C18770  -0.179   8.913   8.095 -0.2751 -0.2706 -0.3793
  140MOL0     C18771  -0.275   8.992   8.037  0.3079 -0.7760  0.4477
  140MOL0     C18772  -0.271   9.138   8.053 -0.0973  0.4394 -0.0553
  140MOL0     O18773  -0.369   9.223   8.014  0.6343 -0.4516 -0.6633
  140MOL0     C18774  -0.500   9.164   7.986  0.1294  0.8323  0.1529
  140MOL0     C18775  -0.612   9.274   7.966 -0.3509 -0.9398  0.0276
  140MOL0     C18776  -0.583   9.363   7.842 -0.4417 -0.3664  0.1455
  140MOL0     C18777  -0.716   9.399   7.764 -0.2414  0.7477  0.9076
  140MOL0     C18778  -0.700   9.498   7.651 -0.4288 -0.6502 -0.2451
  140MOL0     C18779  -0.670   9.645   7.706  0.1397 -0.4844 -0.1475
  140MOL0     C18780  -0.692   9.742   7.587 -0.1158 -0.2465 -0.6910
  140MOL0     C18781  -0.665   9.892   7.622  0.9687  0.1935  0.0875
  140MOL0     N18782  -0.767   9.936   7.710  0.3427 -0.8543 -0.2056
  140MOL0     C18783  -0.754   9.939   7.849 -0.7480  0.5772 -0.1979
  140MOL0     C18784  -0.858  10.010   7.893  0.5021  0.4084 -0.4951
  140MOL0     C18785  -0.889  10.043   8.035 -0.4381 -0.3569  0.1847
  140MOL0     C18786  -0.981  10.155   8.066 -0.4093 -0.4410 -0.1386
  140MOL0     C18787  -0.977  10.198   8.222  0.3801  0.2748  0.3090
  140MOL0     C18788  -1.064  10.320   8.246  0.5889 -0.0644  0.0549
  140MOL0     O18789  -1.189  10.314   8.183  0.3119  0.5718  0.4545
  140MOL0     C18790  -1.282  10.411   8.202  0.3554 -0.2256 -0.6854
  140MOL0     C18791  -1.383  10.444   8.107 -0.2180 -0.2096 -0.3128
  140MOL0     C18792  -1.471  10.550   8.110  0.5333 -0.6213 -0.2713
  140MOL0     C18793  -1.586  10.555   8.004 -0.6509  0.2226 -0.9431
  140MOL0     C18794  -1.465  10.640   8.215 -0.3009 -0.4266  0.4311
  140MOL0     C18795  -1.560  10.752   8.244  1.3426 -0.8802  0.5796
  140MOL0     O18796  -1.544  10.814   8.362 -0.6019 -0.0446  0.4821
  140MOL0     C18797  -1.634  10.913   8.388  0.0579  0.4371 -0.1395
  140MOL0     C18798  -1.606  11.045   8.369 -0.5213 -0.4231 -0.1939
  140MOL0     C18799  -1.673  11.146   8.430  0.4268 -0.2842  0.0205
  140MOL0     C18800  -1.781  11.122   8.523  0.4016 -0.8262  0.4262
  140MOL0     O18801  -1.859  11.214   8.585 -0.6920  0.0565  0.2782
  140MOL0     C18802  -1.863  11.345   8.526  0.3358 -0.8956 -0.0793
  140MOL0     C18803  -1.990  11.413   8.593 -0.7226 -0.1014  0.3299
  140MOL0     C18804  -2.118  11.347   8.550 -0.9690  0.3550  0.0700
  140MOL0     C18805  -2.233  11.410   8.622  0.6440  0.9656  0.2287
  140MOL0     C18806  -2.270  11.545   8.559  0.8588  0.3210  0.6591
  140MOL0     C18807  -2.410  11.585   8.611 -0.6316  0.3128  0.8189
  140MOL0     C18808  -2.518  11.514   8.526  0.0832  0.2627  0.9363
  140MOL0     C18809  -2.656  11.549   8.569  0.0795 -1.0885  0.0412
  140MOL0    Cl18810  -2.680  11.728   8.560  0.0092  0.5068 -0.2649
  140MOL0     C18811  -1.810  10.991   8.546  0.7553 -0.4646  0.8700
  140MOL0     C18812  -1.734  10.884   8.485  0.8899  0.3352  0.8393
  140MOL0     O18813  -1.647  10.780   8.155 -0.6982 -0.1633 -0.5034
  140MOL0     C18814  -1.369  10.607   8.317 -0.3604  0.6141  0.4101
  140MOL0     C18815  -1.277  10.502   8.307  1.2996  0.6248 -1.0700
  140MOL0     N18816  -0.941  10.043   7.789 -0.4721 -1.1726 -0.6235
  140MOL0     N18817  -0.882  10.009   7.674  0.2886  0.3146 -0.2525
  140MOL0     C18818  -0.161   9.189   8.128  0.5940  0.3058 -0.3383
  140MOL0     C18819  -0.057   9.112   8.188 -0.3856  0.4523  0.1371
  140MOL0     C18820   0.230   8.770   8.285  0.4916 -0.4005  0.0392
  140MOL0     C18821   0.199   8.661   8.202 -0.0088  0.5636 -0.2630
  140MOL0     C18822   0.278   8.545   8.217  0.0515  0.7238  0.0102
  140MOL0     C18823   0.398   8.538   8.286  0.1561 -0.5229  0.4017
  140MOL0     O18824   0.479   8.427   8.282  0.6007 -0.1175  0.1841
  140MOL0     C18825   0.626   8.445   8.280  0.0525  0.9832  0.0990
  140MOL0     C18826   0.682   8.538   8.156  0.6457  0.2350 -0.5680
  140MOL0     C18827   0.698   8.464   8.024  0.5406 -0.1564 -0.1853
  140MOL0     C18828   0.788   8.526   7.923  0.1161  0.1413 -0.0398
  140MOL0     C18829   0.717   8.636   7.864  0.3276  0.3032 -0.9787
  140MOL0     C18830   0.645   8.708   7.809  0.1726 -0.2537  0.3872
  140MOL0     C18831   0.430   8.659   8.364  0.1615  0.5652 -0.4406
  140MOL0     C18832   0.347   8.770   8.360 -0.9281  0.4571  0.4541
  140MOL0     H18833  -0.197   8.806   8.108 -0.2727  0.0406  3.6301
  140MOL0     H18834  -0.362   8.958   7.982 -0.3374  2.5984 -0.8542
  140MOL0     H18835  -0.504   9.116   7.888 -1.6106  0.0234  0.5813
  140MOL0     H18836  -0.538   9.104   8.070  2.0735  0.7033  0.9923
  140MOL0     H18837  -0.700   9.213   7.944 -0.1209 -1.1748 -0.2420
  140MOL0     H18838  -0.626   9.336   8.055 -2.0289 -3.2394  1.4432
  140MOL0     H18839  -0.537   9.459   7.870  0.7565 -1.0805  0.6754
  140MOL0     H18840  -0.507   9.326   7.772 -0.2379 -0.6533  0.5134
  140MOL0     H18841  -0.743   9.307   7.712  3.2908 -0.8754  1.6591
  140MOL0     H18842  -0.791   9.436   7.835  0.2266  1.9611  0.7955
  140MOL0     H18843  -0.616   9.471   7.585 -1.5281  0.1200 -2.0328
  140MOL0     H18844  -0.799   9.499   7.605 -1.3984 -0.5615  1.7490
  140MOL0     H18845  -0.739   9.671   7.787 -1.1336 -1.6162 -0.8329
  140MOL0     H18846  -0.569   9.657   7.747 -1.3884  2.1249  3.3766
  140MOL0     H18847  -0.625   9.725   7.502  1.4520 -0.7387  0.6140
  140MOL0     H18848  -0.794   9.729   7.548 -0.6295  1.6348 -0.0713
  140MOL0     H18849  -0.669   9.954   7.531 -0.0249 -0.2652 -0.1954
  140MOL0     H18850  -0.572   9.909   7.677 -0.4006 -0.5491  2.8063
  140MOL0     H18851  -0.675   9.892   7.907 -1.7584 -0.6239  0.2748
  140MOL0     H18852  -0.937   9.959   8.087 -0.8388 -0.3730 -0.2129
  140MOL0     H18853  -0.795  10.062   8.088 -0.7903  1.7787  0.1356
  140MOL0     H18854  -1.082  10.120   8.042 -0.6369  1.5756 -2.5136
  140MOL0     H18855  -0.965  10.243   8.003 -1.1613  0.3605  0.7623
  140MOL0     H18856  -0.876  10.225   8.255 -0.0655  2.7195 -0.1456
  140MOL0     H18857  -1.013  10.112   8.279  0.0368 -0.4503 -0.9582
  140MOL0     H18858  -1.013  10.409   8.208  0.7996  0.7048  1.9838
  140MOL0     H18859  -1.077  10.315   8.355 -4.4429 -1.3287 -0.3446
  140MOL0     H18860  -1.400  10.367   8.032 -1.6099 -0.7964  0.5586
  140MOL0     H18861  -1.585  10.642   7.938 -0.7672  0.2370 -0.9253
  140MOL0     H18862  -1.577  10.461   7.949 -1.3646  1.3483 -3.0490
  140MOL0     H18863  -1.680  10.546   8.058 -0.0706 -1.2818 -0.1117
  140MOL0     H18864  -1.519  11.084   8.317 -0.2204 -0.6590  0.1287
  140MOL0     H18865  -1.643  11.245   8.400 -2.1081  1.1202  1.6926
  140MOL0     H18866  -1.777  11.408   8.551 -1.5544  1.6610  0.4241
  140MOL0     H18867  -1.878  11.355   8.418 -1.2278  2.8518  0.3141
  140MOL0     H18868  -1.979  11.414   8.702 -1.1177  1.0679  0.3713
  140MOL0     H18869  -1.992  11.519   8.565  0.2566  0.5094  2.3854
  140MOL0     H18870  -2.111  11.241   8.577 -1.0197  1.1005  3.5881
  140MOL0     H18871  -2.126  11.350   8.441 -0.3800 -2.1645 -0.1180
  140MOL0     H18872  -2.311  11.334   8.618  1.6866 -0.0563 -1.5382
  140MOL0     H18873  -2.183  11.427   8.718  3.8158  2.6885 -1.5561
  140MOL0     H18874  -2.270  11.543   8.450  1.1593  1.8984  0.6149
  140MOL0     H18875  -2.203  11.626   8.591  0.2871  0.6134  1.1360
  140MOL0     H18876  -2.434  11.552   8.712 -2.8911  0.1109  0.2742
  140MOL0     H18877  -2.424  11.692   8.623 -2.2901  0.1171  0.7887
  140MOL0     H18878  -2.508  11.405   8.537 -0.9118  0.0589 -0.0145
  140MOL0     H18879  -2.511  11.535   8.419  0.9737 -3.8078  0.0038
  140MOL0     H18880  -2.687  11.510   8.666 -2.8924  1.0103  0.0619
  140MOL0     H18881  -2.725  11.505   8.496  0.0610 -0.5346 -0.2834
  140MOL0     H18882  -1.890  10.970   8.616 -1.8162  1.0900 -1.4011
  140MOL0     H18883  -1.786  10.789   8.497  1.9868 -0.1629  1.8801
  140MOL0     H18884  -1.351  10.681   8.394  2.7669  1.0263 -0.5670
  140MOL0     H18885  -1.193  10.501   8.375  1.0687 -1.7614 -0.7459
  140MOL0     H18886  -0.166   9.295   8.148 -1.7254  0.0392  0.8605
  140MOL0     H18887   0.030   9.158   8.232 -0.9207  1.7042 -0.0438
  140MOL0     H18888   0.121   8.667   8.127  1.0699 -0.9703 -1.6088
  140MOL0     H18889   0.245   8.460   8.159 -0.8562  0.7602  0.4474
  140MOL0     H18890   0.652   8.486   8.378  2.2273  1.0200 -0.4429
  140MOL0     H18891   0.676   8.349   8.273  0.6110  1.3722 -1.7906
  140MOL0     H18892   0.775   8.587   8.187 -1.4673  2.7385  2.4611
  140MOL0     H18893   0.605   8.614   8.140  0.1275 -0.0046  0.6957
  140MOL0     H18894   0.599   8.437   7.987  0.4042 -3.5732  2.1938
  140MOL0     H18895   0.733   8.365   8.056 -0.5012  0.0148  1.5959
  140MOL0     H18896   0.820   8.455   7.847 -1.3832  1.4744 -2.0290
  140MOL0     H18897   0.880   8.552   7.976 -0.3749  1.3877  0.2430
  140MOL0     H18898   0.587   8.789   7.770  4.7320  4.5096  2.1713
  140MOL0     H18899   0.524   8.661   8.419  0.1177  0.1515 -0.3463
  140MOL0     H18900   0.374   8.863   8.409 -0.5850  0.6620 -0.1199
  141MOL0     O18901   7.145   7.060   1.494  0.0199 -0.7444 -0.4445
  141MOL0     C18902   7.140   7.012   1.610  0.1007  0.3895  0.3538
  141MOL0     O18903   7.029   6.944   1.659 -0.9291  0.3222 -0.0589
  141MOL0     C18904   6.916   6.954   1.577 -0.6339  0.1288 -0.6761
  141MOL0     C18905   6.825   7.049   1.609  0.2513 -0.6487  0.3369
  141MOL0     C18906   6.689   7.041   1.558  0.7694  0.2183 -0.6695
  141MOL0     C18907   6.654   6.949   1.462 -0.0332 -0.5258  0.3549
  141MOL0     O18908   6.533   6.940   1.399  0.2319 -0.4001 -0.3771
  141MOL0     C18909   6.424   7.036   1.436 -0.9768  0.6835  0.3109
  141MOL0     C18910   6.291   7.027   1.355  0.2998 -0.9070  1.0308
  141MOL0     C18911   6.194   7.147   1.368 -1.9014 -1.0513 -0.0035
  141MOL0     C18912   6.092   7.141   1.255  0.1022  1.1507  0.4061
  141MOL0     C18913   5.980   7.230   1.288 -0.5750 -0.3512 -0.4200
  141MOL0     C18914   5.874   7.240   1.180  0.2696  0.6013 -0.2617
  141MOL0     C18915   5.769   7.132   1.234  1.0050  0.1541  0.4112
  141MOL0     C18916   5.670   7.073   1.133 -0.0309  0.1497 -0.2232
  141MOL0     N18917   5.711   6.926   1.117  0.1026 -0.3050 -0.5878
  141MOL0     C18918   5.838   6.870   1.090  0.2680 -0.1686 -0.0028
  141MOL0     C18919   5.813   6.737   1.118  0.4717  1.0473 -1.1749
  141MOL0     C18920   5.908   6.624   1.088  0.3712  0.1997  0.3474
  141MOL0     C18921   5.953   6.634   0.949  0.6343  0.3861  0.8142
  141MOL0     C18922   5.839   6.658   0.847 -0.2463  0.1623 -0.3515
  141MOL0     C18923   5.912   6.670   0.710 -0.4868  0.4718 -1.2028
  141MOL0     O18924   5.812   6.705   0.616 -0.1637  0.2849 -0.2894
  141MOL0     C18925   5.784   6.608   0.516 -0.7706  0.5723  0.4099
  141MOL0     C18926   5.830   6.619   0.382  1.1455 -0.2452 -0.0397
  141MOL0     C18927   5.801   6.527   0.283  0.1262 -0.2268 -0.4368
  141MOL0     C18928   5.857   6.567   0.144 -0.2507  0.4895 -0.5817
  141MOL0     C18929   5.725   6.415   0.308 -0.3724 -0.1546 -0.5935
  141MOL0     C18930   5.681   6.323   0.201 -0.3775 -0.3175  0.0029
  141MOL0     O18931   5.604   6.210   0.229  0.2663  0.4776 -0.4570
  141MOL0     C18932   5.551   6.129   0.134  0.3245  0.3774  0.4303
  141MOL0     C18933   5.416   6.156   0.092  0.5728  0.0803  0.0572
  141MOL0     C18934   5.358   6.069  -0.005 -0.1396  0.7361 -0.8598
  141MOL0     C18935   5.433   5.970  -0.067 -0.4143  0.6574 -0.0498
  141MOL0     O18936   5.392   5.902  -0.187 -0.2787  0.1305 -0.4198
  141MOL0     C18937   5.251   5.897  -0.210  0.7761 -0.0798  0.3700
  141MOL0     C18938   5.236   5.875  -0.362  0.0919 -0.6319 -0.7759
  141MOL0     C18939   5.291   5.995  -0.441 -0.6652  0.5613 -0.1655
  141MOL0     C18940   5.202   6.110  -0.471  0.1399  0.4539 -0.6312
  141MOL0     C18941   5.251   6.221  -0.564 -0.3212  0.1082  0.0768
  141MOL0     C18942   5.358   6.309  -0.511 -0.6555 -0.7190 -0.2505
  141MOL0     C18943   5.395   6.423  -0.609  1.4624 -0.4572 -0.0925
  141MOL0     C18944   5.509   6.498  -0.561  0.0861 -0.5799  0.2849
  141MOL0    Cl18945   5.666   6.448  -0.623 -0.1195 -0.0107  0.1768
  141MOL0     C18946   5.567   5.943  -0.027  0.6084  0.0767 -0.7128
  141MOL0     C18947   5.624   6.023   0.076 -0.3054 -0.3362 -0.3909
  141MOL0     O18948   5.711   6.344   0.084 -0.0404  0.3783 -0.0756
  141MOL0     C18949   5.686   6.402   0.444  0.3510  0.4033 -0.6913
  141MOL0     C18950   5.700   6.504   0.546 -0.1410  1.0905  0.5819
  141MOL0     N18951   5.690   6.721   1.167  0.5726  0.6291  0.5728
  141MOL0     N18952   5.631   6.830   1.168  0.2604 -0.4303  0.9141
  141MOL0     C18953   6.751   6.860   1.428 -0.5801  0.1459 -0.2790
  141MOL0     C18954   6.876   6.856   1.491  0.2080 -0.3204  0.2584
  141MOL0     C18955   7.262   7.029   1.698 -0.2843  0.3867  0.6179
  141MOL0     C18956   7.259   6.994   1.828  0.1886 -1.1775 -0.4441
  141MOL0     C18957   7.365   7.017   1.909 -0.2225 -0.0456  0.1442
  141MOL0     C18958   7.483   7.085   1.861 -0.1000  0.2253  0.0946
  141MOL0     O18959   7.599   7.101   1.940  0.2045 -0.0249  0.2543
  141MOL0     C18960   7.591   7.057   2.078 -0.1090 -0.4131  0.3485
  141MOL0     C18961   7.727   7.085   2.146 -0.0226 -0.0564 -0.2231
  141MOL0     C18962   7.769   7.227   2.114 -0.2465 -0.2486  0.4155
  141MOL0     C18963   7.906   7.252   2.177  0.0536  0.1355  0.2977
  141MOL0     C18964   7.958   7.387   2.151 -1.1425  0.1909 -0.2387
  141MOL0     C18965   7.977   7.503   2.130  0.3192 -0.0594  0.4912
  141MOL0     C18966   7.483   7.122   1.730 -0.7024 -0.3841 -0.5735
  141MOL0     C18967   7.377   7.107   1.649  0.2826  0.3318  0.1700
  141MOL0     H18968   6.855   7.122   1.683 -2.8782 -0.2582  1.3528
  141MOL0     H18969   6.617   7.116   1.591  1.3243  0.9272 -1.0446
  141MOL0     H18970   6.392   7.024   1.540  1.1643  0.3401  0.9823
  141MOL0     H18971   6.467   7.137   1.428 -0.1196  0.1959 -1.8679
  141MOL0     H18972   6.320   7.023   1.250 -1.9795  1.2458  0.2428
  141MOL0     H18973   6.236   6.934   1.374  0.6126 -1.6420 -1.3436
  141MOL0     H18974   6.140   7.157   1.462  0.7387 -1.6633  1.6920
  141MOL0     H18975   6.242   7.246   1.363 -1.1368 -1.3456  0.9995
  141MOL0     H18976   6.137   7.172   1.160  1.0780  1.4650  0.9533
  141MOL0     H18977   6.062   7.036   1.255 -1.2448  1.5051 -0.9649
  141MOL0     H18978   5.945   7.201   1.387  0.7136  2.3352  0.9469
  141MOL0     H18979   6.019   7.331   1.308 -0.6783 -0.0840 -1.5043
  141MOL0     H18980   5.811   7.330   1.188  0.9290  1.1141 -0.7346
  141MOL0     H18981   5.912   7.229   1.078 -0.8492 -0.7142 -0.5607
  141MOL0     H18982   5.818   7.045   1.280  0.4054 -0.7090 -0.5445
  141MOL0     H18983   5.699   7.177   1.306  0.0887  0.2153 -0.4947
  141MOL0     H18984   5.698   7.126   1.042  0.5210 -0.8725 -0.6680
  141MOL0     H18985   5.569   7.093   1.170  0.3909  0.5798  0.7303
  141MOL0     H18986   5.927   6.928   1.072  1.1196 -1.6374 -0.7256
  141MOL0     H18987   5.999   6.627   1.150 -0.5455 -0.1391  1.7503
  141MOL0     H18988   5.871   6.525   1.118  3.7566 -1.1563  0.5786
  141MOL0     H18989   5.987   6.531   0.933  1.1290  0.6427  0.1463
  141MOL0     H18990   6.035   6.706   0.939 -0.5341  1.4616 -2.3429
  141MOL0     H18991   5.783   6.751   0.865  1.5223  1.8360 -2.9606
  141MOL0     H18992   5.766   6.576   0.842  0.8576 -0.7905 -1.2498
  141MOL0     H18993   5.954   6.573   0.680  2.6385  2.4820 -4.0533
  141MOL0     H18994   5.988   6.749   0.714 -1.8011  1.7666 -1.0789
  141MOL0     H18995   5.875   6.715   0.359 -3.3166  1.8675 -1.1660
  141MOL0     H18996   5.916   6.486   0.100  0.8213  1.1196 -0.3317
  141MOL0     H18997   5.773   6.593   0.078  0.2684 -2.2479 -2.4805
  141MOL0     H18998   5.911   6.662   0.153  0.0135  0.2786  0.0895
  141MOL0     H18999   5.367   6.236   0.148  3.1957  2.3418 -0.6213
  141MOL0     H19000   5.264   6.098  -0.052 -1.6244 -0.6438  1.0924
  141MOL0     H19001   5.200   5.818  -0.155  0.6230 -0.3834 -0.2057
  141MOL0     H19002   5.198   5.992  -0.194  0.3455 -0.0274 -1.2261
  141MOL0     H19003   5.287   5.783  -0.390  1.0519 -0.9054  1.6246
  141MOL0     H19004   5.129   5.857  -0.378 -0.3903 -1.1039  2.2705
  141MOL0     H19005   5.333   5.965  -0.537 -1.0306  2.0390 -0.8219
  141MOL0     H19006   5.376   6.034  -0.384 -1.2033  2.1147 -0.3864
  141MOL0     H19007   5.111   6.061  -0.507  0.9419 -3.2889  1.8704
  141MOL0     H19008   5.174   6.158  -0.377 -1.8451  0.8753 -1.3903
  141MOL0     H19009   5.163   6.275  -0.599 -0.1206  1.0607  0.9555
  141MOL0     H19010   5.293   6.169  -0.650 -1.7330 -1.9527  0.5675
  141MOL0     H19011   5.318   6.350  -0.418 -1.2387 -1.9433  0.0540
  141MOL0     H19012   5.452   6.256  -0.496 -0.7021 -0.7747 -0.1590
  141MOL0     H19013   5.314   6.496  -0.614  1.1123 -0.8949 -4.1652
  141MOL0     H19014   5.412   6.383  -0.709  1.3108 -0.0304 -0.2920
  141MOL0     H19015   5.501   6.510  -0.453  0.0444 -2.8785  0.5850
  141MOL0     H19016   5.490   6.602  -0.589 -1.0233 -0.9270 -0.3146
  141MOL0     H19017   5.631   5.871  -0.077  1.9154  1.0006 -0.4239
  141MOL0     H19018   5.728   6.004   0.102 -0.6093 -1.1024  0.3230
  141MOL0     H19019   5.630   6.316   0.480  0.7876 -0.0734 -1.1477
  141MOL0     H19020   5.663   6.488   0.646  1.4112 -1.5279  0.8351
  141MOL0     H19021   6.705   6.785   1.365 -2.0591 -0.1249  1.0650
  141MOL0     H19022   6.947   6.775   1.480  3.1908  1.4710  3.8654
  141MOL0     H19023   7.170   6.950   1.872  0.5708 -1.4296  0.0885
  141MOL0     H19024   7.366   6.973   2.008 -0.8631 -1.8042 -0.5941
  141MOL0     H19025   7.515   7.114   2.132 -0.1331  1.1633 -1.2493
  141MOL0     H19026   7.579   6.948   2.077 -0.1703 -0.4352 -2.0921
  141MOL0     H19027   7.812   7.019   2.128 -0.6110 -1.1616  0.9521
  141MOL0     H19028   7.697   7.070   2.250  0.0058  2.8899  0.2977
  141MOL0     H19029   7.693   7.297   2.150  0.8782  0.7176  0.9892
  141MOL0     H19030   7.781   7.241   2.006  2.5312  0.4556  0.7356
  141MOL0     H19031   7.978   7.175   2.144 -3.1007 -3.1512  0.4425
  141MOL0     H19032   7.902   7.254   2.286 -1.5106  1.7210  0.2445
  141MOL0     H19033   7.991   7.607   2.108 -1.0146  0.2518  1.0043
  141MOL0     H19034   7.570   7.169   1.685 -1.0219  2.4883  1.4944
  141MOL0     H19035   7.393   7.150   1.551 -0.4751  1.7765  0.6335
  142MOL0     O19036   6.689   6.110  11.334  0.6209 -0.7994 -0.7726
  142MOL0     C19037   6.665   6.119  11.454  0.1109  0.0306  0.1040
  142MOL0     O19038   6.630   6.009  11.533 -0.3855 -0.6381 -0.7431
  142MOL0     C19039   6.703   5.895  11.533 -0.2139 -0.5250  0.0010
  142MOL0     C19040   6.784   5.851  11.435 -0.2220 -0.3774  0.1794
  142MOL0     C19041   6.859   5.731  11.450 -0.2044 -0.0573  0.7630
  142MOL0     C19042   6.834   5.645  11.559  0.0439 -0.6014  0.9675
  142MOL0     O19043   6.889   5.517  11.574 -0.4545 -1.5093  0.9687
  142MOL0     C19044   6.909   5.441  11.454 -0.3647 -0.8479  0.4238
  142MOL0     C19045   6.870   5.304  11.467  0.8647  0.0434  0.2068
  142MOL0     C19046   6.955   5.233  11.578  0.4185  0.5691 -0.2329
  142MOL0     C19047   6.902   5.097  11.603 -0.8964  0.1420  0.1699
  142MOL0     C19048   6.989   5.011  11.703  0.2918  0.4240 -0.2522
  142MOL0     C19049   6.921   4.873  11.713 -0.0732 -0.1294  0.0147
  142MOL0     C19050   6.967   4.799  11.841  0.2806  0.1756  0.4722
  142MOL0     C19051   7.119   4.759  11.831  0.2723 -0.5810 -0.0662
  142MOL0     N19052   7.148   4.648  11.741  0.0613 -0.1230 -0.7742
  142MOL0     C19053   7.182   4.522  11.770 -0.9738  0.2579  0.1050
  142MOL0     C19054   7.238   4.486  11.657  0.6095  0.1767  0.1332
  142MOL0     C19055   7.324   4.352  11.643  0.7897  0.8188  0.1772
  142MOL0     C19056   7.475   4.386  11.623  0.1874  0.1881 -0.0077
  142MOL0     C19057   7.538   4.397  11.765 -0.2478  0.1249  0.2541
  142MOL0     C19058   7.685   4.435  11.745 -0.0662  0.9179  0.9889
  142MOL0     O19059   7.755   4.319  11.681 -0.4418  0.0278  0.1394
  142MOL0     C19060   7.847   4.261  11.756 -0.6076  0.5503 -1.3091
  142MOL0     C19061   7.817   4.148  11.824  0.2850  0.0653  0.0759
  142MOL0     C19062   7.906   4.079  11.913  0.2565 -1.1017 -0.3353
  142MOL0     C19063   7.868   3.968  12.011 -0.0279 -0.1675 -0.1304
  142MOL0     C19064   8.037   4.131  11.921 -0.9605 -0.5957  0.3102
  142MOL0     C19065   8.147   4.073  12.008 -0.1013 -0.1037  0.9109
  142MOL0     O19066   8.147   3.937  12.020  0.1768  0.0692 -0.1133
  142MOL0     C19067   8.172   3.874  12.134 -1.6487 -0.1460  0.4072
  142MOL0     C19068   8.164   3.926  12.265  0.4302  0.1567  0.0870
  142MOL0     C19069   8.211   3.850  12.374 -0.3109  0.1194  0.4178
  142MOL0     C19070   8.261   3.717  12.354  0.1301 -0.0171  0.6579
  142MOL0     O19071   8.282   3.626  12.453 -0.4921  0.1441 -0.3088
  142MOL0     C19072   8.290   3.675  12.591 -0.3071 -0.2715  0.0798
  142MOL0     C19073   8.308   3.559  12.690  0.6800 -0.5108  0.0559
  142MOL0     C19074   8.413   3.466  12.637 -0.5053 -0.8447  1.1025
  142MOL0     C19075   8.471   3.356  12.727 -0.4725  0.0709  0.5700
  142MOL0     C19076   8.374   3.232  12.724 -0.3127  0.7188 -0.0672
  142MOL0     C19077   8.410   3.127  12.831  0.4183 -0.3637  0.1935
  142MOL0     C19078   8.532   3.054  12.798  0.2108  0.1599 -0.0285
  142MOL0     C19079   8.536   2.928  12.882  0.0119  0.0112  0.3740
  142MOL0    Cl19080   8.597   2.961  13.052  0.2054 -0.1263  0.0293
  142MOL0     C19081   8.267   3.670  12.225 -0.7249  0.3744 -0.5486
  142MOL0     C19082   8.231   3.750  12.115  0.2598  0.7328 -0.2735
  142MOL0     O19083   8.235   4.152  12.047  0.4305 -0.4158 -0.1874
  142MOL0     C19084   8.072   4.252  11.859  0.1537 -0.1525 -0.2302
  142MOL0     C19085   7.981   4.308  11.770 -0.1960 -0.3216  0.2492
  142MOL0     N19086   7.220   4.579  11.554 -0.6300  0.6357  0.2181
  142MOL0     N19087   7.156   4.670  11.604 -0.4469 -0.0654 -0.1442
  142MOL0     C19088   6.756   5.695  11.662 -0.1665  0.0480  0.5753
  142MOL0     C19089   6.683   5.814  11.644  0.5938  0.3173  0.3903
  142MOL0     C19090   6.670   6.252  11.513 -1.2167 -0.1461  0.1122
  142MOL0     C19091   6.619   6.264  11.645 -0.5211  0.5833  0.0625
  142MOL0     C19092   6.644   6.380  11.715  0.4181 -1.1791  0.4620
  142MOL0     C19093   6.717   6.488  11.669 -0.1601 -1.0869  0.0896
  142MOL0     O19094   6.738   6.605  11.733  0.2887  0.0365 -0.4581
  142MOL0     C19095   6.681   6.621  11.868 -0.3040 -0.2649  0.7212
  142MOL0     C19096   6.763   6.545  11.977 -0.3396 -0.5077 -0.1741
  142MOL0     C19097   6.912   6.521  11.932  1.0667  0.0120  0.0076
  142MOL0     C19098   6.994   6.642  11.893 -0.2831  0.7961 -0.5015
  142MOL0     C19099   6.994   6.732  12.000 -0.3789 -0.7440  0.1449
  142MOL0     C19100   6.994   6.811  12.095  0.0017  0.4607 -0.5218
  142MOL0     C19101   6.771   6.474  11.541  0.2959 -0.5532  0.4755
  142MOL0     C19102   6.757   6.353  11.467 -0.1096  0.4384 -0.2291
  142MOL0     H19103   6.817   5.911  11.351 -2.3182 -0.7064 -0.9696
  142MOL0     H19104   6.925   5.696  11.371 -0.1386  2.8917 -0.6179
  142MOL0     H19105   6.856   5.481  11.368  2.0685  0.0457 -0.7467
  142MOL0     H19106   7.015   5.443  11.428 -0.4389 -1.3504  0.0717
  142MOL0     H19107   6.764   5.308  11.494  0.9662  3.1690  0.4446
  142MOL0     H19108   6.868   5.243  11.376  0.1179 -2.1284  1.5955
  142MOL0     H19109   7.057   5.224  11.538  0.6560  0.8896  0.2834
  142MOL0     H19110   6.951   5.290  11.671 -2.7550 -0.1935  0.2176
  142MOL0     H19111   6.801   5.103  11.645 -1.1042  1.1695 -0.4209
  142MOL0     H19112   6.897   5.044  11.507  2.0563  1.0409 -0.5862
  142MOL0     H19113   7.088   4.989  11.662  0.4134 -1.4009  0.9083
  142MOL0     H19114   7.001   5.054  11.803  0.5515  0.7399 -0.4180
  142MOL0     H19115   6.814   4.891  11.718 -0.1902  0.7800 -3.2152
  142MOL0     H19116   6.963   4.825  11.624  1.9807 -1.0992  1.4131
  142MOL0     H19117   6.949   4.863  11.929 -2.5600  1.0368 -0.6362
  142MOL0     H19118   6.920   4.703  11.862  0.2209  0.2083  0.4876
  142MOL0     H19119   7.143   4.724  11.932 -0.9075 -2.8952 -0.5196
  142MOL0     H19120   7.170   4.849  11.797  0.9546 -1.6102 -1.8863
  142MOL0     H19121   7.191   4.464  11.861 -0.3095 -1.4403 -0.9855
  142MOL0     H19122   7.308   4.281  11.725 -2.1803  0.8154 -0.2821
  142MOL0     H19123   7.286   4.290  11.561 -0.3322 -0.0272  1.2895
  142MOL0     H19124   7.478   4.486  11.580 -4.8991 -0.3720 -2.3944
  142MOL0     H19125   7.515   4.311  11.554 -3.6913 -2.7572  0.5797
  142MOL0     H19126   7.535   4.305  11.824  3.0914 -1.1686 -1.3412
  142MOL0     H19127   7.499   4.481  11.822  0.6948  0.7264  0.0392
  142MOL0     H19128   7.729   4.457  11.842 -1.1608 -2.1757  2.3245
  142MOL0     H19129   7.699   4.518  11.676 -2.2158 -1.2635 -2.3751
  142MOL0     H19130   7.717   4.106  11.829  0.1296  0.4156 -0.0850
  142MOL0     H19131   7.906   3.871  11.978 -0.6025 -0.4598  0.0599
  142MOL0     H19132   7.909   3.989  12.111 -2.9935  1.1843  0.9106
  142MOL0     H19133   7.760   3.981  12.023 -0.1197  0.1357 -1.2271
  142MOL0     H19134   8.118   4.025  12.271 -1.2924 -0.5077 -1.3176
  142MOL0     H19135   8.191   3.883  12.475 -2.3319  0.1277  0.0468
  142MOL0     H19136   8.377   3.739  12.602 -0.7590  0.1299  1.5724
  142MOL0     H19137   8.193   3.717  12.619 -1.7299 -3.3980  0.3417
  142MOL0     H19138   8.345   3.604  12.783 -0.3636  1.8981 -0.6146
  142MOL0     H19139   8.211   3.515  12.712 -1.4238  4.8306  3.6621
  142MOL0     H19140   8.488   3.544  12.617 -0.3074 -0.3216  3.5233
  142MOL0     H19141   8.393   3.422  12.539 -0.4594  2.1722 -0.3708
  142MOL0     H19142   8.563   3.319  12.681 -2.0289 -2.0465 -1.0827
  142MOL0     H19143   8.488   3.390  12.829  3.8073 -1.0441  0.4088
  142MOL0     H19144   8.372   3.185  12.625  1.0513  0.4389  0.0143
  142MOL0     H19145   8.272   3.266  12.740 -0.6823 -0.6427  0.6582
  142MOL0     H19146   8.423   3.175  12.928  0.1982 -1.7199  0.9156
  142MOL0     H19147   8.332   3.055  12.856  1.0867 -0.9097  0.7254
  142MOL0     H19148   8.620   3.118  12.812  1.2077 -1.4794  1.6575
  142MOL0     H19149   8.534   3.024  12.693  0.5121 -0.0042  0.0246
  142MOL0     H19150   8.608   2.861  12.834  1.2011  0.2513  1.7599
  142MOL0     H19151   8.441   2.876  12.865  0.1274  0.8788 -4.1639
  142MOL0     H19152   8.313   3.577  12.192  0.4251  1.2530 -1.5384
  142MOL0     H19153   8.243   3.714  12.013 -3.2775  0.6776 -0.8218
  142MOL0     H19154   8.171   4.294  11.870  0.0114 -0.5576  4.0608
  142MOL0     H19155   8.017   4.388  11.705  0.8057 -1.7635 -1.0259
  142MOL0     H19156   6.738   5.648  11.757 -2.2121  1.1905  0.8232
  142MOL0     H19157   6.616   5.848  11.723  0.1417  2.0704 -0.6974
  142MOL0     H19158   6.562   6.179  11.681  3.4130 -1.9469  1.0253
  142MOL0     H19159   6.588   6.381  11.808 -1.7447  2.1661 -0.7105
  142MOL0     H19160   6.693   6.727  11.891 -2.6934 -0.0118  0.9709
  142MOL0     H19161   6.573   6.610  11.876 -0.0914 -1.0797  4.7810
  142MOL0     H19162   6.719   6.446  11.988  1.0133 -1.0988 -0.0543
  142MOL0     H19163   6.760   6.601  12.071  1.0429  0.5811 -0.7416
  142MOL0     H19164   6.901   6.441  11.858  0.7444  0.0465  0.0170
  142MOL0     H19165   6.960   6.476  12.019 -0.4058 -0.9413  0.3622
  142MOL0     H19166   6.956   6.697  11.806  3.2915  1.4308 -1.8171
  142MOL0     H19167   7.087   6.607  11.846 -2.1140  0.0328 -3.9539
  142MOL0     H19168   6.995   6.867  12.186  0.6867  0.0803 -0.2894
  142MOL0     H19169   6.818   6.562  11.498 -0.3614  0.5007  1.8406
  142MOL0     H19170   6.802   6.343  11.369 -1.3303  1.6623 -0.9616
  143MOL0     O19171   5.964   9.668   0.474 -0.4136 -0.2125 -0.2405
  143MOL0     C19172   5.976   9.750   0.566  0.1436 -0.4068 -0.5499
  143MOL0     O19173   5.887   9.760   0.675 -0.3396 -0.5111  0.3795
  143MOL0     C19174   5.785   9.668   0.685 -1.0567  0.5143 -0.4412
  143MOL0     C19175   5.791   9.519   0.673  0.0926  0.1007  0.2667
  143MOL0     C19176   5.687   9.438   0.713  0.1627 -0.2027 -0.3713
  143MOL0     C19177   5.571   9.497   0.751 -0.9641 -0.1982  0.3712
  143MOL0     O19178   5.468   9.422   0.788  0.8513 -1.1900  0.3968
  143MOL0     C19179   5.497   9.325   0.887  0.0901 -0.2354 -0.2842
  143MOL0     C19180   5.378   9.244   0.922 -0.6327  0.7894  0.2165
  143MOL0     C19181   5.325   9.153   0.811 -0.2102 -0.6054 -0.6362
  143MOL0     C19182   5.180   9.112   0.836  0.5794  0.3758 -0.1644
  143MOL0     C19183   5.128   9.085   0.697  0.9098 -0.0699 -0.4902
  143MOL0     C19184   4.972   9.075   0.688 -1.0328 -0.4693  1.0235
  143MOL0     C19185   4.947   9.064   0.537 -0.1937  0.2912  0.5800
  143MOL0     C19186   4.951   8.913   0.504 -0.2096 -0.3401  0.3369
  143MOL0     N19187   4.921   8.900   0.362  0.0334  0.3515 -0.3950
  143MOL0     C19188   5.014   8.871   0.272  0.3438 -0.4699 -0.7726
  143MOL0     C19189   4.961   8.874   0.148 -1.2155  0.1960 -0.2548
  143MOL0     C19190   5.033   8.863   0.023  0.3504 -0.5792  0.1749
  143MOL0     C19191   4.987   8.751  -0.057 -0.1791  0.0383 -0.6917
  143MOL0     C19192   5.000   8.766  -0.207  0.7501 -0.3105 -0.5689
  143MOL0     C19193   4.920   8.653  -0.264 -0.5194  0.5120  0.6036
  143MOL0     O19194   4.906   8.659  -0.407  0.2357  0.2756 -0.6637
  143MOL0     C19195   4.856   8.545  -0.459  1.2701 -0.9909  0.2681
  143MOL0     C19196   4.895   8.515  -0.589  0.3753 -0.7659 -0.3461
  143MOL0     C19197   4.862   8.402  -0.659 -0.9488  0.1808  0.4507
  143MOL0     C19198   4.945   8.383  -0.787 -0.0487 -0.3734  0.4190
  143MOL0     C19199   4.784   8.309  -0.601 -0.6096 -0.1926 -0.5054
  143MOL0     C19200   4.755   8.182  -0.654 -0.5341  0.3046  0.2288
  143MOL0     O19201   4.630   8.125  -0.605  0.3802  0.4585 -0.2325
  143MOL0     C19202   4.571   8.018  -0.669 -0.5042  0.3856  0.3932
  143MOL0     C19203   4.568   7.894  -0.607 -0.5710  0.4188  0.0451
  143MOL0     C19204   4.521   7.785  -0.674  0.1303 -0.3283  0.3792
  143MOL0     C19205   4.446   7.806  -0.790  1.4166 -0.5342  0.5451
  143MOL0     O19206   4.392   7.704  -0.868 -0.3259  0.2943  0.1817
  143MOL0     C19207   4.311   7.604  -0.796  0.0912 -0.3897 -0.5639
  143MOL0     C19208   4.196   7.559  -0.882  0.0308  0.2699  0.8909
  143MOL0     C19209   4.225   7.474  -1.005  0.1789  1.0522  0.0234
  143MOL0     C19210   4.125   7.360  -1.012  0.8067 -0.4209 -0.3406
  143MOL0     C19211   4.171   7.242  -1.083  0.2694  0.0724  0.1773
  143MOL0     C19212   4.071   7.132  -1.080 -0.5115 -0.0585 -0.0864
  143MOL0     C19213   4.118   7.017  -1.190  0.3142  0.1618 -0.7733
  143MOL0     C19214   4.081   6.889  -1.134  1.0684  0.2848 -0.0852
  143MOL0    Cl19215   4.134   6.756  -1.258  0.2636  0.7946  0.1732
  143MOL0     C19216   4.445   7.932  -0.844 -0.0686  0.4744 -1.2282
  143MOL0     C19217   4.504   8.039  -0.787 -0.8390  0.2568  0.2122
  143MOL0     O19218   4.828   8.135  -0.742  0.8064 -0.3334  0.5372
  143MOL0     C19219   4.733   8.341  -0.469  0.0280  0.0840  0.5436
  143MOL0     C19220   4.760   8.464  -0.402 -0.7202  0.5006  0.7203
  143MOL0     N19221   4.841   8.915   0.167  0.0630  0.4519  0.4326
  143MOL0     N19222   4.810   8.931   0.288  0.1104 -0.5897  1.1548
  143MOL0     C19223   5.567   9.635   0.768  0.1551 -0.3350  0.1144
  143MOL0     C19224   5.674   9.723   0.738  0.5413  0.3997 -1.6563
  143MOL0     C19225   6.079   9.854   0.549 -0.3394  0.2242  0.8251
  143MOL0     C19226   6.100   9.951   0.641 -0.2905 -0.6843 -0.6111
  143MOL0     C19227   6.203  10.037   0.625  0.2018 -0.2560 -0.0317
  143MOL0     C19228   6.296  10.039   0.514 -0.7059 -0.2006 -0.0022
  143MOL0     O19229   6.399  10.129   0.519  0.0785 -0.5425  0.1725
  143MOL0     C19230   6.438  10.190   0.397  0.6752  0.4245  0.4534
  143MOL0     C19231   6.330  10.264   0.318  0.5247  0.1266  0.9057
  143MOL0     C19232   6.393  10.354   0.205  0.0573  0.1916  0.2106
  143MOL0     C19233   6.476  10.274   0.105  0.9775  0.6780  0.1215
  143MOL0     C19234   6.529  10.363  -0.008 -0.0281  0.1813  0.1444
  143MOL0     C19235   6.555  10.422  -0.108  0.1770 -0.1267  0.2746
  143MOL0     C19236   6.273   9.937   0.426  0.3808 -0.0208 -0.1647
  143MOL0     C19237   6.167   9.841   0.440 -0.4395 -0.3708  0.5673
  143MOL0     H19238   5.892   9.489   0.644 -0.8270  0.6291 -4.2250
  143MOL0     H19239   5.703   9.331   0.697  0.5068  0.0019 -1.4435
  143MOL0     H19240   5.582   9.261   0.861  0.9827  1.7870 -2.6980
  143MOL0     H19241   5.535   9.379   0.974 -0.2108  1.6621 -1.2875
  143MOL0     H19242   5.416   9.187   1.008  0.2020  1.1707  0.1110
  143MOL0     H19243   5.303   9.318   0.950 -0.1137  1.7101 -0.7677
  143MOL0     H19244   5.332   9.213   0.720 -0.2646  4.3444  2.2397
  143MOL0     H19245   5.394   9.069   0.811 -0.1446 -0.5584  0.1307
  143MOL0     H19246   5.176   9.017   0.890  0.0201 -0.0435 -0.9262
  143MOL0     H19247   5.129   9.196   0.883  0.9751  4.0370 -5.4296
  143MOL0     H19248   5.155   9.166   0.629  3.9787  0.4490  1.1754
  143MOL0     H19249   5.177   9.000   0.651  1.9052 -0.0329  0.4615
  143MOL0     H19250   4.939   8.978   0.728 -1.2243 -0.5852  0.5835
  143MOL0     H19251   4.926   9.166   0.727 -0.9233  0.3603 -0.6964
  143MOL0     H19252   4.849   9.100   0.506  0.5129 -1.0896 -3.9812
  143MOL0     H19253   5.014   9.122   0.473 -0.5126  0.5529  0.4814
  143MOL0     H19254   4.867   8.867   0.558 -0.4279 -1.5058 -0.9171
  143MOL0     H19255   5.047   8.866   0.525 -0.2092 -0.8969 -0.7999
  143MOL0     H19256   5.120   8.852   0.288  0.1711  0.5647  2.1088
  143MOL0     H19257   5.025   8.960  -0.027  0.7192  2.0271  4.6382
  143MOL0     H19258   5.138   8.840   0.046 -0.0907 -2.1929  0.6902
  143MOL0     H19259   4.881   8.747  -0.031 -0.9160  0.8288 -3.2387
  143MOL0     H19260   5.039   8.664  -0.016 -0.6250  0.2413  0.3312
  143MOL0     H19261   5.102   8.747  -0.241  0.2422 -2.1135 -1.2469
  143MOL0     H19262   4.961   8.861  -0.244  1.4320 -1.2890 -4.2209
  143MOL0     H19263   4.821   8.638  -0.220 -1.5402 -0.9755 -1.9989
  143MOL0     H19264   4.979   8.563  -0.251  0.2174  0.8071 -0.5644
  143MOL0     H19265   4.968   8.587  -0.626 -1.0331  0.6561 -0.4498
  143MOL0     H19266   5.030   8.315  -0.776 -1.7305 -2.8181 -0.9028
  143MOL0     H19267   4.876   8.342  -0.861  2.3246 -1.9109 -1.1214
  143MOL0     H19268   4.983   8.480  -0.821 -0.7645  0.1398  1.0695
  143MOL0     H19269   4.614   7.879  -0.510 -3.0481 -3.3712  0.8687
  143MOL0     H19270   4.551   7.684  -0.649 -0.6841 -0.5278  0.5677
  143MOL0     H19271   4.383   7.521  -0.796  0.9547  0.3505 -0.1763
  143MOL0     H19272   4.295   7.635  -0.693  1.8876 -0.1742 -0.3128
  143MOL0     H19273   4.124   7.500  -0.823 -2.2686  1.3681 -0.6712
  143MOL0     H19274   4.148   7.645  -0.930  0.5915 -0.6566 -1.4381
  143MOL0     H19275   4.331   7.450  -0.991 -0.3662  0.1782  4.1485
  143MOL0     H19276   4.219   7.537  -1.094  3.6342 -1.6988 -2.4796
  143MOL0     H19277   4.097   7.310  -0.919  4.2488 -2.2848 -0.1392
  143MOL0     H19278   4.029   7.392  -1.053 -1.0830 -3.3469  1.4592
  143MOL0     H19279   4.265   7.211  -1.037  0.7128  1.3798  0.1817
  143MOL0     H19280   4.188   7.261  -1.190 -0.2572 -1.3027 -0.1752
  143MOL0     H19281   4.075   7.088  -0.980  2.7386 -2.4765 -1.1283
  143MOL0     H19282   3.972   7.168  -1.110 -0.6741 -2.4694 -2.8753
  143MOL0     H19283   4.227   7.019  -1.194  0.4450 -0.5102  1.2682
  143MOL0     H19284   4.068   7.031  -1.287 -1.5690 -2.4214 -0.2741
  143MOL0     H19285   3.975   6.885  -1.106  1.7474  0.2481  2.8118
  143MOL0     H19286   4.132   6.869  -1.040 -4.1825 -0.5420  3.0120
  143MOL0     H19287   4.386   7.955  -0.932 -2.0404 -1.8357 -0.6142
  143MOL0     H19288   4.489   8.143  -0.813  1.5670  0.5616 -0.1025
  143MOL0     H19289   4.669   8.271  -0.416 -1.7744  1.4945  0.3400
  143MOL0     H19290   4.716   8.485  -0.305 -0.6773  1.2704  0.5807
  143MOL0     H19291   5.479   9.682   0.811  0.6876  1.6160 -0.7897
  143MOL0     H19292   5.652   9.826   0.763 -0.3896  0.3065 -2.0646
  143MOL0     H19293   6.027   9.966   0.720  1.5792 -1.6041  1.4072
  143MOL0     H19294   6.216  10.110   0.705  0.7912  1.2739 -1.4659
  143MOL0     H19295   6.516  10.262   0.420  1.2923  0.3677 -1.3151
  143MOL0     H19296   6.482  10.115   0.332 -1.3963  0.8864 -1.6310
  143MOL0     H19297   6.274  10.332   0.384 -1.4273 -0.8046  0.3033
  143MOL0     H19298   6.258  10.202   0.263  3.3468 -3.3125  0.7590
  143MOL0     H19299   6.453  10.423   0.265  0.3502 -1.4073  1.8308
  143MOL0     H19300   6.309  10.397   0.148  2.1056  1.9419 -1.6610
  143MOL0     H19301   6.417  10.190   0.068  2.6034  0.5655 -2.5478
  143MOL0     H19302   6.562  10.231   0.158  0.6777 -2.8701 -1.9642
  143MOL0     H19303   6.579  10.496  -0.181  1.0010 -1.6025 -1.0217
  143MOL0     H19304   6.329   9.923   0.333 -2.5183 -0.0779 -2.0368
  143MOL0     H19305   6.146   9.768   0.362 -1.5441  2.3171 -1.8627
  144MOL0     O19306   1.807  10.843  10.760 -0.1371  0.0835 -0.3001
  144MOL0     C19307   1.771  10.964  10.744  1.2105  0.8800 -0.8156
  144MOL0     O19308   1.639  11.005  10.774  0.0048 -0.1495 -0.7412
  144MOL0     C19309   1.550  10.911  10.843 -0.9631  0.1101  0.2971
  144MOL0     C19310   1.483  10.931  10.963 -0.2285 -0.2935  0.7837
  144MOL0     C19311   1.396  10.836  11.004  0.0446  0.2603 -0.3315
  144MOL0     C19312   1.369  10.717  10.934  0.3567  0.2792  0.9331
  144MOL0     O19313   1.277  10.631  10.985  0.9519  0.3899  1.3166
  144MOL0     C19314   1.205  10.536  10.905  0.8800  0.1390  0.2913
  144MOL0     C19315   1.053  10.550  10.936  0.0781 -0.0730  0.1940
  144MOL0     C19316   0.977  10.430  10.898  0.5704  0.0951  0.6788
  144MOL0     C19317   1.007  10.309  10.989  0.3924  0.0461 -0.2908
  144MOL0     C19318   0.891  10.204  10.997  1.0971 -0.7794 -0.4119
  144MOL0     C19319   0.925  10.081  11.078 -0.4563  0.1179  0.1673
  144MOL0     C19320   0.822   9.975  11.069  0.7592 -0.1186 -0.2929
  144MOL0     C19321   0.892   9.848  11.130  0.1827  0.3012 -0.2953
  144MOL0     N19322   0.814   9.724  11.122  0.5819 -0.4245  0.2385
  144MOL0     C19323   0.814   9.635  11.009 -0.4205  0.0076 -0.7465
  144MOL0     C19324   0.700   9.572  11.030 -0.7463 -0.2125  0.6434
  144MOL0     C19325   0.644   9.483  10.928  0.1202 -0.1670  0.3691
  144MOL0     C19326   0.653   9.339  10.982 -0.0171 -0.0336  0.4196
  144MOL0     C19327   0.670   9.238  10.869 -0.7302 -0.5389  0.4647
  144MOL0     C19328   0.623   9.100  10.909  0.5299 -0.0678  0.2064
  144MOL0     O19329   0.608   9.020  10.796 -0.2743  0.3201  0.2049
  144MOL0     C19330   0.551   8.892  10.806  0.4624 -0.3083 -0.6157
  144MOL0     C19331   0.527   8.833  10.934 -0.4294 -0.5200 -0.3120
  144MOL0     C19332   0.495   8.697  10.943 -0.7616 -0.2538  0.1683
  144MOL0     C19333   0.477   8.635  11.077  1.4449  0.1385 -0.0643
  144MOL0     C19334   0.474   8.631  10.821  0.2446 -0.5243  0.2536
  144MOL0     C19335   0.412   8.503  10.820 -1.2633  0.1885  0.3537
  144MOL0     O19336   0.495   8.402  10.849  0.2701  0.4522  0.7093
  144MOL0     C19337   0.433   8.281  10.862  0.0861 -0.2711 -0.6617
  144MOL0     C19338   0.388   8.199  10.756 -0.3049  0.9958  0.2959
  144MOL0     C19339   0.310   8.083  10.777 -0.0853 -0.9745 -0.4758
  144MOL0     C19340   0.275   8.049  10.908  0.1463 -0.2815  0.4451
  144MOL0     O19341   0.185   7.949  10.937 -1.3491  0.3342  0.3934
  144MOL0     C19342   0.102   7.897  10.836  0.1042  0.4403 -0.1327
  144MOL0     C19343   0.016   7.792  10.918 -0.5625  0.1729 -0.1018
  144MOL0     C19344  -0.065   7.699  10.828 -0.4802 -0.2579 -0.2209
  144MOL0     C19345  -0.117   7.580  10.892 -0.0731  0.2317 -0.0240
  144MOL0     C19346  -0.194   7.492  10.791 -0.2265 -0.3830 -0.3531
  144MOL0     C19347  -0.248   7.386  10.885  0.7636 -0.0807 -0.0780
  144MOL0     C19348  -0.145   7.280  10.942  0.6384 -0.3882  0.0941
  144MOL0     C19349  -0.202   7.219  11.066  0.0629  0.3984  0.1590
  144MOL0    Cl19350  -0.351   7.115  11.029 -0.2450 -0.6104 -0.2290
  144MOL0     C19351   0.318   8.128  11.012  0.5039 -0.1269  0.1434
  144MOL0     C19352   0.401   8.243  10.989  0.4598  0.0453  0.7771
  144MOL0     O19353   0.289   8.493  10.790 -0.8762 -0.2078 -0.6875
  144MOL0     C19354   0.506   8.688  10.700  0.4138 -0.2895 -0.0054
  144MOL0     C19355   0.551   8.817  10.693  0.8424 -0.1609 -0.5113
  144MOL0     N19356   0.638   9.607  11.145  0.5505 -0.0338 -0.1086
  144MOL0     N19357   0.713   9.690  11.216  0.2101  0.9477  0.2249
  144MOL0     C19358   1.431  10.699  10.816 -0.5774  0.2305  0.2915
  144MOL0     C19359   1.516  10.796  10.773  0.2799  0.2678  0.1810
  144MOL0     C19360   1.861  11.071  10.693  0.4015  0.2980 -0.4329
  144MOL0     C19361   1.997  11.046  10.663 -0.0038 -0.2600 -0.1218
  144MOL0     C19362   2.077  11.158  10.619 -0.5531  0.4943 -0.4977
  144MOL0     C19363   2.036  11.289  10.613 -0.2120 -0.1983 -0.2589
  144MOL0     O19364   2.110  11.400  10.577 -0.2986  0.1862  0.1800
  144MOL0     C19365   2.249  11.390  10.552  0.7760 -0.0519  0.0752
  144MOL0     C19366   2.287  11.361  10.407 -0.2059  0.6377  0.3112
  144MOL0     C19367   2.450  11.341  10.401 -0.2123  0.3956  0.1281
  144MOL0     C19368   2.499  11.195  10.383  0.3683 -0.7746 -1.0739
  144MOL0     C19369   2.532  11.140  10.515 -0.0213 -0.1484 -1.1889
  144MOL0     C19370   2.531  11.071  10.617  0.4131 -0.0818  0.4965
  144MOL0     C19371   1.907  11.313  10.646  0.6510 -0.0950 -0.5650
  144MOL0     C19372   1.816  11.212  10.686 -0.4082  0.3893 -1.4228
  144MOL0     H19373   1.504  11.020  11.022 -3.9491  0.1976  1.5708
  144MOL0     H19374   1.333  10.856  11.091 -0.5786  0.7482 -0.8895
  144MOL0     H19375   1.221  10.558  10.799  4.5049  1.8644  1.0600
  144MOL0     H19376   1.230  10.432  10.927 -1.2949 -0.3689  0.6286
  144MOL0     H19377   1.052  10.571  11.044 -0.0853 -4.0986  1.1270
  144MOL0     H19378   1.005  10.637  10.889 -1.1832  0.0997  1.7074
  144MOL0     H19379   0.869  10.450  10.901  0.1793 -1.7663  0.7824
  144MOL0     H19380   0.992  10.413  10.791 -0.6184  2.6197  0.0293
  144MOL0     H19381   1.099  10.260  10.955  0.4007  0.6087 -1.0990
  144MOL0     H19382   1.027  10.348  11.090 -0.6022  0.9304 -0.4148
  144MOL0     H19383   0.814  10.259  11.051  2.3341 -1.3857  2.0959
  144MOL0     H19384   0.860  10.187  10.893  1.1461  1.1211 -0.7878
  144MOL0     H19385   1.024  10.040  11.060  0.0310  0.3463  2.0537
  144MOL0     H19386   0.924  10.118  11.182  0.9710  0.7697 -0.0292
  144MOL0     H19387   0.736  10.004  11.130 -0.6574 -0.6093 -1.9768
  144MOL0     H19388   0.787   9.966  10.966 -1.3713  3.4495 -0.0346
  144MOL0     H19389   0.894   9.857  11.239  0.3581 -3.0829  0.1081
  144MOL0     H19390   0.995   9.835  11.094 -0.0161 -0.0322 -0.7455
  144MOL0     H19391   0.873   9.640  10.919  0.8801  2.1501  0.1626
  144MOL0     H19392   0.537   9.499  10.913  0.1210 -0.0001  0.5430
  144MOL0     H19393   0.698   9.494  10.833 -0.5890  0.2166 -0.0010
  144MOL0     H19394   0.560   9.322  11.036 -2.4143 -0.4185 -3.4466
  144MOL0     H19395   0.742   9.332  11.045 -0.9999 -2.2314  1.6673
  144MOL0     H19396   0.771   9.256  10.832 -0.8859  1.7294  0.9809
  144MOL0     H19397   0.598   9.267  10.792  0.3626  1.3040  0.0787
  144MOL0     H19398   0.527   9.110  10.960  1.5091 -0.1404  2.1418
  144MOL0     H19399   0.673   9.047  10.991 -2.3787 -1.2658  1.3860
  144MOL0     H19400   0.525   8.890  11.026 -0.6866 -3.1844  1.4249
  144MOL0     H19401   0.476   8.708  11.159 -0.9674  0.8904 -0.6809
  144MOL0     H19402   0.376   8.594  11.082 -0.4218  4.2583  0.3964
  144MOL0     H19403   0.559   8.563  11.080  3.4711  2.3033 -0.4590
  144MOL0     H19404   0.408   8.238  10.656 -1.7020  0.4501 -0.2226
  144MOL0     H19405   0.271   8.026  10.693  0.0828  0.6977 -1.7515
  144MOL0     H19406   0.033   7.966  10.788 -2.8852 -2.7861 -0.8547
  144MOL0     H19407   0.163   7.850  10.759  2.1755  1.9164  0.5187
  144MOL0     H19408   0.091   7.745  10.982  0.6104  0.9639 -0.8406
  144MOL0     H19409  -0.059   7.845  10.977 -0.8463 -0.9403  0.5528
  144MOL0     H19410   0.015   7.663  10.762  0.5848  0.8305  0.4222
  144MOL0     H19411  -0.131   7.753  10.760  1.8734  1.8826 -0.9579
  144MOL0     H19412  -0.034   7.527  10.938 -1.1739 -1.4709  0.1048
  144MOL0     H19413  -0.186   7.617  10.968 -2.1839 -2.9084 -0.2194
  144MOL0     H19414  -0.133   7.459  10.706 -1.6541 -1.8416 -0.8665
  144MOL0     H19415  -0.278   7.551  10.753 -0.3670 -0.7023 -0.5384
  144MOL0     H19416  -0.302   7.427  10.971 -0.7652 -2.7939  0.3617
  144MOL0     H19417  -0.322   7.326  10.832  1.2856 -0.7805 -0.0292
  144MOL0     H19418  -0.053   7.333  10.970 -0.6212  1.0971  1.6963
  144MOL0     H19419  -0.115   7.207  10.866  1.9688  1.8208 -1.6331
  144MOL0     H19420  -0.216   7.295  11.144  2.2977  1.0518  0.0092
  144MOL0     H19421  -0.128   7.164  11.124 -1.4389 -1.0029  0.8273
  144MOL0     H19422   0.279   8.093  11.107  2.1292 -1.9536  0.1953
  144MOL0     H19423   0.443   8.302  11.070 -1.2765 -0.6081  2.2166
  144MOL0     H19424   0.480   8.630  10.612 -3.9122 -0.1308  0.9411
  144MOL0     H19425   0.563   8.866  10.597  0.6408  0.8334 -0.0460
  144MOL0     H19426   1.413  10.604  10.766 -1.6288  1.0073 -0.8510
  144MOL0     H19427   1.559  10.781  10.674  1.7063 -2.3166  1.1238
  144MOL0     H19428   2.047  10.950  10.672  1.6826  0.7574  2.3904
  144MOL0     H19429   2.176  11.139  10.579 -0.3199  0.8295 -0.0834
  144MOL0     H19430   2.303  11.483  10.573  5.6181 -1.2250 -4.7005
  144MOL0     H19431   2.292  11.321  10.625 -1.2319 -0.2554  1.1254
  144MOL0     H19432   2.242  11.434  10.339 -4.2209 -2.2872 -0.5667
  144MOL0     H19433   2.244  11.264  10.379 -1.9541  0.4871  3.1261
  144MOL0     H19434   2.498  11.394  10.484  4.9069 -0.5490 -1.8804
  144MOL0     H19435   2.486  11.381  10.306  0.2344  0.0453  0.1452
  144MOL0     H19436   2.589  11.192  10.322  2.0907  1.5957  1.1327
  144MOL0     H19437   2.414  11.142  10.339  0.7518  0.4548 -3.4721
  144MOL0     H19438   2.531  10.989  10.685 -0.6958 -2.0591 -1.7578
  144MOL0     H19439   1.872  11.415  10.637 -0.4083 -0.4148 -0.1835
  144MOL0     H19440   1.715  11.232  10.722  0.0130  0.9568 -0.5254
  145MOL0     O19441   0.782   6.468   1.869  0.9676 -0.0555 -0.2313
  145MOL0     C19442   0.772   6.565   1.948 -0.5136  0.1555  0.8723
  145MOL0     O19443   0.879   6.634   1.994 -0.3685 -0.3521  0.1384
  145MOL0     C19444   0.986   6.639   1.908 -0.8577 -0.3059 -0.0738
  145MOL0     C19445   1.004   6.751   1.821 -0.3297  0.1361  0.1837
  145MOL0     C19446   1.102   6.749   1.724 -0.0250 -0.3795 -0.5928
  145MOL0     C19447   1.197   6.638   1.716  0.1659  0.0720 -0.0894
  145MOL0     O19448   1.300   6.658   1.625  0.2632  0.0057  0.0848
  145MOL0     C19449   1.417   6.572   1.619 -0.2082  0.4850  0.9138
  145MOL0     C19450   1.517   6.636   1.521 -0.5541  0.1446  0.4665
  145MOL0     C19451   1.460   6.654   1.383 -0.4344  0.9129  1.0681
  145MOL0     C19452   1.572   6.696   1.281 -0.4596  0.5072 -0.5696
  145MOL0     C19453   1.554   6.667   1.128 -0.1654 -0.7968 -0.4929
  145MOL0     C19454   1.573   6.511   1.096  0.0134 -0.0376  0.1479
  145MOL0     C19455   1.709   6.460   1.133  0.2639 -0.4285 -0.0719
  145MOL0     C19456   1.753   6.344   1.042  0.7078 -0.3955 -0.4768
  145MOL0     N19457   1.779   6.381   0.897  0.6094 -0.3320  0.3194
  145MOL0     C19458   1.844   6.494   0.851  0.3963  0.6184  0.2187
  145MOL0     C19459   1.832   6.491   0.715  0.8354  0.8943 -0.5175
  145MOL0     C19460   1.886   6.590   0.623 -0.5599 -0.2485 -0.0713
  145MOL0     C19461   1.778   6.673   0.554  0.1620 -0.4566  1.0570
  145MOL0     C19462   1.731   6.797   0.637  0.3195  0.0110  0.0671
  145MOL0     C19463   1.610   6.853   0.577  0.1593 -0.2836  0.0546
  145MOL0     O19464   1.540   6.937   0.669 -1.2008 -0.8769 -0.6820
  145MOL0     C19465   1.422   6.889   0.713 -0.4208 -0.3403 -0.6848
  145MOL0     C19466   1.411   6.766   0.777 -0.5292 -0.6068 -0.1895
  145MOL0     C19467   1.288   6.707   0.811 -0.8885  0.1258  0.7900
  145MOL0     C19468   1.299   6.560   0.860  0.1211 -0.1864  0.1436
  145MOL0     C19469   1.169   6.778   0.786  0.6375 -0.2070  0.6112
  145MOL0     C19470   1.041   6.727   0.829  0.1232  0.1843  0.4910
  145MOL0     O19471   1.034   6.634   0.934 -0.1058  0.3337  0.4338
  145MOL0     C19472   0.913   6.630   1.006 -0.6005  0.2849 -0.6232
  145MOL0     C19473   0.865   6.720   1.111 -0.7823  0.0597 -0.1402
  145MOL0     C19474   0.739   6.716   1.171 -0.0389  0.6393 -0.0434
  145MOL0     C19475   0.653   6.601   1.139 -0.2536  1.0763 -0.2094
  145MOL0     O19476   0.529   6.593   1.198 -0.0905 -0.1023  0.0297
  145MOL0     C19477   0.478   6.476   1.250 -0.1656 -0.7781  0.1214
  145MOL0     C19478   0.476   6.486   1.400 -0.4698  0.6406  0.5003
  145MOL0     C19479   0.355   6.561   1.444 -0.2557 -0.6160  0.0104
  145MOL0     C19480   0.367   6.620   1.586  0.0295  0.7028  0.7267
  145MOL0     C19481   0.462   6.739   1.593  0.8695 -0.6849  0.2594
  145MOL0     C19482   0.473   6.822   1.722 -0.5232  0.3165  0.4859
  145MOL0     C19483   0.607   6.898   1.723  0.4744  0.2988  0.0974
  145MOL0     C19484   0.638   6.966   1.857 -0.0292 -0.3047 -0.6089
  145MOL0    Cl19485   0.505   7.061   1.914 -0.0208 -0.1743  0.2555
  145MOL0     C19486   0.693   6.509   1.042 -0.3601 -0.1487 -0.0231
  145MOL0     C19487   0.815   6.531   0.970  0.3910  1.3234  0.3663
  145MOL0     O19488   0.946   6.767   0.753  0.0833  0.1540 -0.0012
  145MOL0     C19489   1.182   6.905   0.721 -0.0256  0.1093  0.3679
  145MOL0     C19490   1.303   6.971   0.695  0.0620  0.5886  0.1445
  145MOL0     N19491   1.751   6.376   0.692 -1.4185 -0.3575  0.1777
  145MOL0     N19492   1.715   6.318   0.801 -0.2809  0.2636 -0.8733
  145MOL0     C19493   1.175   6.532   1.803 -0.6243 -0.8624 -0.8511
  145MOL0     C19494   1.074   6.534   1.894  0.1910 -0.0856  0.4573
  145MOL0     C19495   0.636   6.590   2.009 -0.0395 -0.1946 -0.3327
  145MOL0     C19496   0.624   6.667   2.131 -0.2933  0.2681 -0.5438
  145MOL0     C19497   0.496   6.681   2.187  0.0458 -0.6131 -0.6510
  145MOL0     C19498   0.383   6.626   2.132 -0.0450  0.5046 -0.3570
  145MOL0     O19499   0.274   6.641   2.206  1.1639  0.6021  0.3989
  145MOL0     C19500   0.172   6.536   2.216  0.0166  0.4975 -0.1212
  145MOL0     C19501   0.035   6.600   2.193 -0.4383 -1.3459 -0.1507
  145MOL0     C19502   0.016   6.697   2.071  0.6025  0.5155 -0.8999
  145MOL0     C19503  -0.000   6.840   2.126 -0.0678 -0.7941  0.7403
  145MOL0     C19504  -0.125   6.880   2.195 -0.2987  0.2046  0.5186
  145MOL0     C19505  -0.232   6.909   2.234 -0.2580  1.1299  0.0311
  145MOL0     C19506   0.395   6.537   2.022 -0.3648  0.0095  0.0139
  145MOL0     C19507   0.518   6.526   1.958 -0.0823 -0.1825 -0.1262
  145MOL0     H19508   0.937   6.836   1.819  3.0520  3.3521 -6.6111
  145MOL0     H19509   1.104   6.833   1.655  0.5939 -0.2017 -0.3700
  145MOL0     H19510   1.459   6.570   1.720  1.4881  2.0569  0.2984
  145MOL0     H19511   1.392   6.475   1.575  0.2960  0.2835  1.0598
  145MOL0     H19512   1.547   6.738   1.547  0.0788 -0.1104  0.7333
  145MOL0     H19513   1.612   6.583   1.524 -0.8586 -0.3981  2.6675
  145MOL0     H19514   1.406   6.563   1.354 -0.1776  1.6646 -2.0920
  145MOL0     H19515   1.384   6.732   1.387  0.6466  2.1689 -1.2658
  145MOL0     H19516   1.583   6.800   1.313 -6.0759  1.1885  0.2404
  145MOL0     H19517   1.665   6.645   1.307 -0.7112 -0.1167 -0.8782
  145MOL0     H19518   1.454   6.707   1.108 -0.6246 -0.5453  1.9538
  145MOL0     H19519   1.625   6.736   1.080  1.1406 -1.0250  1.0155
  145MOL0     H19520   1.491   6.446   1.125 -0.5349 -0.3187 -1.8944
  145MOL0     H19521   1.576   6.515   0.986  0.0124 -0.5205  0.1281
  145MOL0     H19522   1.784   6.537   1.111  1.0580 -0.5577  1.9535
  145MOL0     H19523   1.717   6.438   1.240  0.8176 -0.4218 -0.1091
  145MOL0     H19524   1.681   6.264   1.060  0.1518  0.1829 -0.0742
  145MOL0     H19525   1.851   6.310   1.078 -0.6146 -4.8609 -0.5606
  145MOL0     H19526   1.891   6.566   0.917 -0.7953  1.0922  0.5867
  145MOL0     H19527   1.955   6.653   0.679  0.9286  0.4359 -2.5217
  145MOL0     H19528   1.937   6.536   0.542  2.6934  0.3517  1.4165
  145MOL0     H19529   1.692   6.620   0.514 -1.2027  2.9710 -0.9905
  145MOL0     H19530   1.825   6.720   0.467 -1.1905  2.4408  1.7431
  145MOL0     H19531   1.805   6.876   0.653 -0.4516  1.6547 -3.4781
  145MOL0     H19532   1.714   6.776   0.743 -2.1383  3.8304  0.6056
  145MOL0     H19533   1.552   6.771   0.533  0.1251 -0.8517  1.1346
  145MOL0     H19534   1.647   6.927   0.505  1.5684 -0.8467  0.1618
  145MOL0     H19535   1.499   6.706   0.793 -1.2742 -2.3756 -2.2607
  145MOL0     H19536   1.221   6.498   0.814  1.7578 -1.1109 -1.5131
  145MOL0     H19537   1.395   6.516   0.829 -1.3383 -2.4872 -1.4541
  145MOL0     H19538   1.296   6.551   0.969  2.3305 -0.0919  0.2630
  145MOL0     H19539   0.940   6.790   1.147 -1.4855 -0.3732  2.2920
  145MOL0     H19540   0.718   6.786   1.251  3.5812  1.3697  0.4437
  145MOL0     H19541   0.377   6.466   1.212  0.5167  0.3627 -2.1651
  145MOL0     H19542   0.534   6.388   1.217 -0.1476 -0.3704 -0.9611
  145MOL0     H19543   0.483   6.379   1.418  1.7522 -0.1334 -3.8112
  145MOL0     H19544   0.564   6.544   1.430 -1.5234  1.4505  2.1658
  145MOL0     H19545   0.263   6.502   1.433  1.8401 -3.7645 -2.6716
  145MOL0     H19546   0.336   6.639   1.370 -1.5717 -2.2420 -1.4663
  145MOL0     H19547   0.269   6.660   1.616  0.0975  0.4024  1.3758
  145MOL0     H19548   0.393   6.537   1.652  1.1928 -0.8341 -1.5399
  145MOL0     H19549   0.439   6.812   1.515  0.4138 -0.2215  0.8182
  145MOL0     H19550   0.556   6.698   1.556  0.5498 -1.1651 -0.0420
  145MOL0     H19551   0.396   6.899   1.723  0.9164  1.9295 -2.2357
  145MOL0     H19552   0.475   6.755   1.809 -0.6598  0.1087  0.3295
  145MOL0     H19553   0.604   6.967   1.638  0.1019  0.8325  0.5313
  145MOL0     H19554   0.688   6.827   1.704  0.2568  0.4114 -1.3354
  145MOL0     H19555   0.723   7.034   1.847 -0.9768  0.8802 -0.8114
  145MOL0     H19556   0.674   6.893   1.930  1.3542  3.4114  2.8040
  145MOL0     H19557   0.619   6.436   1.011  0.6312 -1.4251  0.5253
  145MOL0     H19558   0.843   6.478   0.880 -1.9548  0.9766 -0.2391
  145MOL0     H19559   1.088   6.952   0.696  0.5453  1.0202 -0.1259
  145MOL0     H19560   1.309   7.071   0.654 -0.4502  0.6240  0.1452
  145MOL0     H19561   1.248   6.451   1.805  1.0340  0.5811  0.6050
  145MOL0     H19562   1.063   6.459   1.971 -0.8286 -0.0922  0.3087
  145MOL0     H19563   0.714   6.714   2.169 -0.4322  1.6647 -1.8468
  145MOL0     H19564   0.487   6.741   2.277  0.1768  0.7800 -1.5343
  145MOL0     H19565   0.195   6.452   2.150 -0.9330  0.1905 -0.0593
  145MOL0     H19566   0.182   6.489   2.314 -0.5037 -0.4702 -0.5160
  145MOL0     H19567   0.002   6.641   2.289  1.8422  0.3863 -0.0180
  145MOL0     H19568  -0.024   6.510   2.175 -4.8017  1.0197  0.9691
  145MOL0     H19569  -0.081   6.686   2.021 -0.1139  0.7060  0.3858
  145MOL0     H19570   0.103   6.685   2.007  0.1582 -3.9403 -1.0410
  145MOL0     H19571   0.001   6.904   2.037 -2.9597  0.7329  1.6484
  145MOL0     H19572   0.083   6.882   2.184 -0.7079  2.0768 -0.2451
  145MOL0     H19573  -0.337   6.918   2.257 -0.1846 -1.0396  1.5872
  145MOL0     H19574   0.315   6.470   1.992 -0.7040  1.1153 -1.6911
  145MOL0     H19575   0.530   6.455   1.876 -0.9060  0.1114 -0.5132
  146MOL0     O19576   6.039   5.694   0.309  0.4567  0.0522 -1.6406
  146MOL0     C19577   6.075   5.595   0.258 -0.3668  1.0566  0.5157
  146MOL0     O19578   6.120   5.581   0.127 -0.2463  0.0601  0.0255
  146MOL0     C19579   6.102   5.686   0.043 -1.0861 -0.3703  0.1439
  146MOL0     C19580   6.194   5.796   0.032  0.4695 -0.2547  0.3117
  146MOL0     C19581   6.178   5.894  -0.057  0.3908 -0.3760  0.7894
  146MOL0     C19582   6.074   5.892  -0.152 -0.4605 -1.0118 -0.3729
  146MOL0     O19583   6.061   5.998  -0.240 -0.0637  0.5228  0.6340
  146MOL0     C19584   5.933   6.065  -0.215 -0.5651  0.1403 -0.3826
  146MOL0     C19585   5.939   6.217  -0.251 -0.5603 -0.4341  0.8267
  146MOL0     C19586   6.054   6.298  -0.192 -0.1543  0.4628  0.8439
  146MOL0     C19587   6.089   6.267  -0.045 -0.3279 -0.3733  0.1460
  146MOL0     C19588   6.202   6.349   0.021  0.2567 -0.4171 -0.6582
  146MOL0     C19589   6.259   6.275   0.150  0.4852 -0.2538 -0.1409
  146MOL0     C19590   6.149   6.213   0.244  0.2743 -0.2459  0.0316
  146MOL0     C19591   6.194   6.185   0.387 -0.3139  0.5300  1.2321
  146MOL0     N19592   6.289   6.073   0.397  0.2366 -0.0129  0.4716
  146MOL0     C19593   6.252   5.940   0.366 -0.9769  0.3308  0.0027
  146MOL0     C19594   6.357   5.866   0.418  0.2188  0.1511 -0.0563
  146MOL0     C19595   6.385   5.715   0.413 -0.9423 -1.0074  0.5556
  146MOL0     C19596   6.309   5.643   0.520  0.0234 -0.1828 -0.1349
  146MOL0     C19597   6.376   5.669   0.657  0.2109  0.1981  1.0660
  146MOL0     C19598   6.307   5.594   0.765 -0.4201  0.1538  0.0386
  146MOL0     O19599   6.320   5.454   0.748 -0.2984 -0.2707  0.2739
  146MOL0     C19600   6.242   5.376   0.817  1.0710  1.1243  0.6995
  146MOL0     C19601   6.136   5.421   0.906 -0.6399 -0.1048  0.2144
  146MOL0     C19602   6.044   5.344   0.970 -0.3899 -0.3339 -0.8629
  146MOL0     C19603   5.944   5.408   1.064 -0.0260  0.2927 -0.5022
  146MOL0     C19604   6.043   5.200   0.948  0.2004  0.2365  0.2992
  146MOL0     C19605   5.939   5.108   0.991  0.3563  0.0914  0.4639
  146MOL0     O19606   5.976   4.984   1.047  0.4032  0.4250  0.7428
  146MOL0     C19607   5.863   4.911   1.077  1.1860  0.0869 -0.1038
  146MOL0     C19608   5.802   4.831   0.985  1.0529 -0.0252  0.3955
  146MOL0     C19609   5.698   4.743   1.031  0.1017  0.0396  0.8925
  146MOL0     C19610   5.651   4.738   1.163  0.6759  0.5281  0.2279
  146MOL0     O19611   5.557   4.639   1.189 -0.6519  0.1571 -0.1531
  146MOL0     C19612   5.472   4.648   1.303  0.6656 -0.1541  0.4254
  146MOL0     C19613   5.455   4.497   1.337 -0.6101  0.2091  0.1398
  146MOL0     C19614   5.368   4.421   1.238  1.0365 -0.0625  0.5360
  146MOL0     C19615   5.225   4.475   1.216 -0.4889 -0.0448 -0.0428
  146MOL0     C19616   5.142   4.422   1.096  0.7108 -0.2466 -0.0147
  146MOL0     C19617   5.009   4.495   1.084  0.9403 -0.6872 -0.7542
  146MOL0     C19618   4.953   4.470   0.942 -0.6401  0.0664  0.3926
  146MOL0     C19619   4.902   4.335   0.934 -0.5967  0.0897  1.3051
  146MOL0    Cl19620   4.825   4.306   0.767 -0.3517  0.0006  0.2812
  146MOL0     C19621   5.714   4.827   1.253  0.1590 -0.3174  0.4056
  146MOL0     C19622   5.814   4.914   1.208  0.3047  0.0544  0.9220
  146MOL0     O19623   5.825   5.148   0.983 -0.4778  0.8421 -0.3406
  146MOL0     C19624   6.136   5.146   0.852  0.1530 -0.2139 -0.0776
  146MOL0     C19625   6.233   5.235   0.790  0.5591  0.1171 -0.3795
  146MOL0     N19626   6.452   5.957   0.471 -0.0202 -0.9080  0.8778
  146MOL0     N19627   6.410   6.079   0.459 -0.1511 -0.1532 -0.2163
  146MOL0     C19628   5.978   5.789  -0.140  0.4450  0.8831 -0.4982
  146MOL0     C19629   5.999   5.686  -0.044  0.6486  0.1556  0.2400
  146MOL0     C19630   6.083   5.463   0.331  0.0981  0.1866  0.6194
  146MOL0     C19631   6.049   5.457   0.460 -0.0375  0.1119  0.0571
  146MOL0     C19632   6.051   5.324   0.522 -0.0661 -0.1599 -0.6872
  146MOL0     C19633   6.106   5.209   0.464  0.2720 -0.0490 -0.1033
  146MOL0     O19634   6.114   5.089   0.532 -0.5588 -0.4390 -0.4422
  146MOL0     C19635   6.229   5.000   0.505  0.0290 -0.3528 -0.4139
  146MOL0     C19636   6.189   4.868   0.580 -0.0866 -0.6554 -0.0561
  146MOL0     C19637   6.262   4.743   0.529 -0.2224 -0.2922 -0.1495
  146MOL0     C19638   6.414   4.732   0.562  0.5040 -0.4621 -1.2273
  146MOL0     C19639   6.501   4.833   0.508  0.3417 -0.5631  0.5952
  146MOL0     C19640   6.573   4.922   0.471 -1.0139 -1.1118  0.3522
  146MOL0     C19641   6.149   5.219   0.322  0.5766  0.2656 -0.0195
  146MOL0     C19642   6.130   5.342   0.261  0.1281 -0.9101 -0.1928
  146MOL0     H19643   6.279   5.803   0.099 -0.8914  1.6043  2.0172
  146MOL0     H19644   6.252   5.974  -0.057 -1.5349  1.5128 -0.5791
  146MOL0     H19645   5.849   6.026  -0.274  1.7096 -1.9972 -2.4494
  146MOL0     H19646   5.914   6.059  -0.107 -0.0893 -0.6354 -0.3349
  146MOL0     H19647   5.941   6.241  -0.358  2.9472  2.5435  1.3976
  146MOL0     H19648   5.855   6.267  -0.202  0.2324 -0.9441  2.8311
  146MOL0     H19649   6.144   6.287  -0.253 -2.1608  0.6635 -2.3428
  146MOL0     H19650   6.038   6.405  -0.210 -4.0216 -0.2205 -0.8063
  146MOL0     H19651   6.002   6.289   0.017 -1.0237 -0.4364 -0.7889
  146MOL0     H19652   6.121   6.162  -0.037  1.9795 -0.0542 -3.1537
  146MOL0     H19653   6.284   6.373  -0.047  1.4135  0.6981  1.0391
  146MOL0     H19654   6.162   6.441   0.066 -1.3758  0.0534 -2.9182
  146MOL0     H19655   6.315   6.188   0.115 -0.0791 -0.4439 -0.5704
  146MOL0     H19656   6.320   6.350   0.203  2.6088 -2.0093  0.0406
  146MOL0     H19657   6.071   6.289   0.232  1.0422  0.5046 -0.3535
  146MOL0     H19658   6.108   6.123   0.199 -1.4431  1.4188 -1.9018
  146MOL0     H19659   6.109   6.171   0.454 -0.8728  0.8150  0.6018
  146MOL0     H19660   6.255   6.274   0.405 -1.5049  1.9651 -1.2717
  146MOL0     H19661   6.158   5.908   0.322 -0.6548 -2.8259  1.3334
  146MOL0     H19662   6.365   5.675   0.313 -0.2944  0.6503 -0.2888
  146MOL0     H19663   6.492   5.711   0.436 -0.1952 -0.3514 -2.4231
  146MOL0     H19664   6.308   5.540   0.483 -0.3518  0.4619 -2.0434
  146MOL0     H19665   6.205   5.678   0.522 -0.0831 -0.3433 -1.6452
  146MOL0     H19666   6.377   5.772   0.694 -2.7799  0.8988 -0.4421
  146MOL0     H19667   6.479   5.632   0.655  1.3849  3.2101 -0.7780
  146MOL0     H19668   6.199   5.615   0.766 -1.2865 -3.3654 -0.9177
  146MOL0     H19669   6.351   5.620   0.861 -1.3879 -3.8236  1.7728
  146MOL0     H19670   6.115   5.526   0.927  1.8011  0.2877  0.9674
  146MOL0     H19671   5.900   5.347   1.143 -0.8516  2.8815  1.1508
  146MOL0     H19672   6.006   5.476   1.123 -0.1666  0.0362 -0.0580
  146MOL0     H19673   5.863   5.461   1.013 -1.4432 -0.5051  0.8501
  146MOL0     H19674   5.827   4.811   0.881  1.1132 -0.2654  0.4565
  146MOL0     H19675   5.660   4.667   0.963 -1.0035  2.0811 -0.8731
  146MOL0     H19676   5.507   4.703   1.391 -1.5264 -1.1948  2.0674
  146MOL0     H19677   5.374   4.690   1.279  1.4771  1.1558 -0.7066
  146MOL0     H19678   5.549   4.442   1.341 -1.0442 -0.5483  0.1702
  146MOL0     H19679   5.403   4.497   1.433 -0.9164  2.1407  0.0183
  146MOL0     H19680   5.352   4.321   1.279  1.0884 -1.6366 -2.9456
  146MOL0     H19681   5.418   4.397   1.144  0.4371 -1.1267  0.4696
  146MOL0     H19682   5.174   4.466   1.312 -1.4009 -0.0010 -0.5141
  146MOL0     H19683   5.224   4.582   1.193 -3.0639 -0.2003 -0.9917
  146MOL0     H19684   5.127   4.315   1.109 -2.6731  0.1235  0.0498
  146MOL0     H19685   5.197   4.429   1.002  1.6981 -1.1242  0.4841
  146MOL0     H19686   4.935   4.463   1.158 -0.8785  0.9534 -1.7669
  146MOL0     H19687   5.032   4.601   1.096  3.5793 -1.1461 -1.2549
  146MOL0     H19688   5.031   4.493   0.869  0.7452  1.5951  2.2506
  146MOL0     H19689   4.878   4.549   0.933  2.2290  2.8110 -1.6093
  146MOL0     H19690   4.832   4.308   1.014 -0.6383 -3.5999  0.2146
  146MOL0     H19691   4.987   4.267   0.940 -0.4296  0.2223  0.4665
  146MOL0     H19692   5.690   4.831   1.359 -0.4101  1.2606  0.2406
  146MOL0     H19693   5.878   4.967   1.277  1.1596 -1.2611  1.1757
  146MOL0     H19694   6.133   5.040   0.828 -1.3298 -0.6600  1.7929
  146MOL0     H19695   6.304   5.181   0.729 -0.0348 -0.6072 -0.4485
  146MOL0     H19696   5.887   5.777  -0.199  0.5871  0.1739 -0.5773
  146MOL0     H19697   5.922   5.611  -0.031  0.9374 -0.3565 -0.9569
  146MOL0     H19698   6.001   5.543   0.505 -3.0750 -1.3584 -0.1243
  146MOL0     H19699   6.017   5.321   0.625 -0.5843  0.0539 -0.8482
  146MOL0     H19700   6.252   4.970   0.403 -0.8420 -1.9820 -0.1632
  146MOL0     H19701   6.316   5.049   0.552  0.2488  0.1671 -1.3481
  146MOL0     H19702   6.083   4.843   0.570  0.1823 -2.4706  1.1358
  146MOL0     H19703   6.218   4.887   0.684 -0.2892  2.4232 -0.4652
  146MOL0     H19704   6.261   4.734   0.420 -1.7616  1.1226 -0.3039
  146MOL0     H19705   6.206   4.662   0.577 -2.4829  0.2573 -1.6745
  146MOL0     H19706   6.448   4.633   0.529 -3.4052 -2.4346  0.0499
  146MOL0     H19707   6.416   4.736   0.671  1.0029  1.5758 -1.2759
  146MOL0     H19708   6.612   5.012   0.427 -2.0508 -0.7239  0.1939
  146MOL0     H19709   6.177   5.130   0.267  0.9688 -0.3136  1.0835
  146MOL0     H19710   6.166   5.344   0.159 -0.1105 -0.4636 -0.2719
  147MOL0     O19711   4.966   8.485   1.298  0.1131  0.4657  0.0965
  147MOL0     C19712   5.043   8.515   1.203 -0.1096  0.1136 -0.2843
  147MOL0     O19713   5.008   8.588   1.095  0.1180 -0.0636  0.6911
  147MOL0     C19714   4.882   8.640   1.062  0.8422 -0.6106  0.4609
  147MOL0     C19715   4.766   8.618   1.137 -0.2460 -1.1458 -0.6784
  147MOL0     C19716   4.645   8.692   1.112  0.1145  1.4053 -0.1384
  147MOL0     C19717   4.636   8.775   1.005  0.8435  0.5155  0.3637
  147MOL0     O19718   4.511   8.823   0.977  0.2876 -0.1701  0.2971
  147MOL0     C19719   4.471   8.931   1.066 -0.0847 -1.6976 -0.0213
  147MOL0     C19720   4.493   9.073   0.998 -0.4168  1.0432  0.9275
  147MOL0     C19721   4.498   9.192   1.090  0.9836  1.0916  0.2518
  147MOL0     C19722   4.609   9.288   1.063  0.7192 -0.3235  0.4077
  147MOL0     C19723   4.617   9.389   1.171  0.6496  0.5969 -0.3322
  147MOL0     C19724   4.504   9.493   1.151 -0.0468  1.1038  0.2894
  147MOL0     C19725   4.472   9.588   1.259 -0.0581 -0.4008 -0.2521
  147MOL0     C19726   4.419   9.515   1.382  0.4886  0.5960 -0.4449
  147MOL0     N19727   4.301   9.433   1.367  0.5484  0.6117 -0.1828
  147MOL0     C19728   4.170   9.485   1.368 -0.5263 -0.2830 -0.7049
  147MOL0     C19729   4.095   9.373   1.330  0.4933 -0.5504 -0.0715
  147MOL0     C19730   3.945   9.359   1.333 -0.1601 -0.1224 -0.5165
  147MOL0     C19731   3.913   9.258   1.452  0.9092  0.4272 -0.0723
  147MOL0     C19732   3.877   9.349   1.572 -0.5652  0.3780  0.5282
  147MOL0     C19733   3.824   9.272   1.697 -0.0847 -0.5354 -0.0675
  147MOL0     O19734   3.682   9.224   1.666  1.2376 -0.5848 -0.1710
  147MOL0     C19735   3.587   9.213   1.771  0.7533 -0.5056  0.4603
  147MOL0     C19736   3.461   9.172   1.725 -0.2912  0.8237 -0.6380
  147MOL0     C19737   3.348   9.179   1.815 -0.9047  0.7353 -1.1234
  147MOL0     C19738   3.219   9.149   1.756 -0.9197  0.4998  0.5232
  147MOL0     C19739   3.365   9.222   1.953 -0.3486 -0.4375 -0.6049
  147MOL0     C19740   3.257   9.256   2.046  0.1306 -0.3710  0.6844
  147MOL0     O19741   3.293   9.302   2.175  0.2022  0.6931 -0.4939
  147MOL0     C19742   3.184   9.318   2.261 -0.4409  0.1782 -0.4199
  147MOL0     C19743   3.088   9.412   2.223  0.0133  0.1939 -0.8691
  147MOL0     C19744   2.975   9.436   2.296 -0.2777  0.5637 -1.2747
  147MOL0     C19745   2.950   9.356   2.412  0.7949 -0.3984  0.5620
  147MOL0     O19746   2.835   9.360   2.486 -0.6564  0.5415  0.2647
  147MOL0     C19747   2.713   9.383   2.410 -0.7654  0.2280  0.4336
  147MOL0     C19748   2.597   9.346   2.496 -1.0277  0.9326 -0.6552
  147MOL0     C19749   2.574   9.447   2.608  0.0588 -0.7501  0.4101
  147MOL0     C19750   2.449   9.417   2.683  0.1587  0.6631  0.4350
  147MOL0     C19751   2.329   9.493   2.607 -0.1551  0.7871 -0.1962
  147MOL0     C19752   2.199   9.485   2.692  0.1590  0.6764  0.3073
  147MOL0     C19753   2.208   9.586   2.813  0.2837  0.0526  0.1063
  147MOL0     C19754   2.064   9.615   2.862  0.0146 -0.4536 -0.1536
  147MOL0    Cl19755   1.970   9.690   2.732  0.1146 -0.4972 -0.2597
  147MOL0     C19756   3.044   9.255   2.446 -0.1635 -0.8733 -0.1001
  147MOL0     C19757   3.154   9.235   2.367  0.3582  0.9424  0.1094
  147MOL0     O19758   3.143   9.228   2.014 -0.2240  0.3024  0.5499
  147MOL0     C19759   3.499   9.243   1.999  0.7095 -0.2157 -0.1456
  147MOL0     C19760   3.605   9.244   1.909 -0.0451 -0.2974  0.6804
  147MOL0     N19761   4.177   9.269   1.299  0.4448  0.3808 -0.8148
  147MOL0     N19762   4.298   9.300   1.326 -0.2798  0.4396  0.5550
  147MOL0     C19763   4.748   8.800   0.929 -0.5103 -0.0196  0.1270
  147MOL0     C19764   4.873   8.730   0.953 -0.5001  0.0289  0.2595
  147MOL0     C19765   5.187   8.479   1.224  0.4644  0.7825  0.3904
  147MOL0     C19766   5.216   8.348   1.268 -0.1817  0.1009  0.0012
  147MOL0     C19767   5.346   8.295   1.251  0.1417  0.2479  0.2730
  147MOL0     C19768   5.457   8.372   1.217  0.8727  0.2921 -0.3107
  147MOL0     O19769   5.589   8.328   1.222  0.5592 -0.1649 -0.1693
  147MOL0     C19770   5.621   8.232   1.318  0.9627 -0.5713 -0.7131
  147MOL0     C19771   5.636   8.099   1.247 -0.0163 -0.2256  0.2929
  147MOL0     C19772   5.674   7.990   1.359 -0.5418  0.2744 -0.6111
  147MOL0     C19773   5.814   8.010   1.430 -0.5626 -0.3725  0.4408
  147MOL0     C19774   5.807   8.042   1.577 -0.1511 -1.1988 -0.2197
  147MOL0     C19775   5.794   8.082   1.691  0.3057 -0.1046  0.8872
  147MOL0     C19776   5.432   8.502   1.178 -0.0372 -0.2436  0.5600
  147MOL0     C19777   5.297   8.559   1.177  0.4433 -0.0718 -0.0498
  147MOL0     H19778   4.769   8.548   1.220  1.2933  0.0254  0.3098
  147MOL0     H19779   4.566   8.681   1.185 -0.6312  0.2769 -1.0841
  147MOL0     H19780   4.365   8.916   1.090 -0.5196 -2.5953 -2.3177
  147MOL0     H19781   4.531   8.920   1.157  1.4016 -2.0023 -1.0035
  147MOL0     H19782   4.592   9.069   0.950  0.1894  3.9826  1.7057
  147MOL0     H19783   4.414   9.079   0.922  1.5743 -0.9473 -1.4742
  147MOL0     H19784   4.399   9.238   1.089 -0.1164 -1.1033 -1.2342
  147MOL0     H19785   4.527   9.150   1.187  1.3796 -1.8023 -0.9985
  147MOL0     H19786   4.702   9.231   1.053 -0.2958 -1.7081 -1.9565
  147MOL0     H19787   4.606   9.322   0.959  2.3758 -2.6644 -0.5124
  147MOL0     H19788   4.599   9.348   1.271  2.3222  2.0573  0.6171
  147MOL0     H19789   4.713   9.441   1.170  0.5191  0.9936  1.9189
  147MOL0     H19790   4.531   9.549   1.061 -1.6863 -0.2410 -1.1005
  147MOL0     H19791   4.412   9.439   1.127  0.1241  1.0405 -0.2354
  147MOL0     H19792   4.566   9.639   1.282  1.3703 -3.0978  0.2141
  147MOL0     H19793   4.399   9.661   1.221 -0.5197  1.2631  3.3624
  147MOL0     H19794   4.395   9.590   1.458  0.3724  0.8766 -0.7564
  147MOL0     H19795   4.500   9.448   1.411 -1.0404 -0.9278  0.4720
  147MOL0     H19796   4.143   9.588   1.391 -1.9759 -0.1751 -2.6285
  147MOL0     H19797   3.900   9.458   1.320  3.2626  1.5597 -0.5976
  147MOL0     H19798   3.927   9.309   1.237  0.0615 -0.1392 -0.5498
  147MOL0     H19799   3.981   9.178   1.483 -0.1989  0.4041  2.5321
  147MOL0     H19800   3.830   9.195   1.418  2.5998 -2.8337  1.3480
  147MOL0     H19801   3.806   9.430   1.552  0.4770  0.6452 -2.6448
  147MOL0     H19802   3.965   9.400   1.613 -0.3629 -1.1584  2.1542
  147MOL0     H19803   3.816   9.343   1.780  1.8552  2.0783 -1.9216
  147MOL0     H19804   3.885   9.182   1.709 -2.1395 -2.5396 -3.1308
  147MOL0     H19805   3.439   9.151   1.621 -1.9593 -1.7787  0.1361
  147MOL0     H19806   3.172   9.246   1.739 -0.9099  0.5069  0.5354
  147MOL0     H19807   3.232   9.108   1.656 -0.8374  3.5107 -0.7776
  147MOL0     H19808   3.162   9.082   1.822 -0.9610 -3.7105 -3.3010
  147MOL0     H19809   3.098   9.453   2.123  0.0015  0.1074 -0.9059
  147MOL0     H19810   2.901   9.506   2.259 -0.9253  0.2201 -0.6656
  147MOL0     H19811   2.727   9.487   2.380  3.0685  0.6170  2.9255
  147MOL0     H19812   2.733   9.315   2.326  0.9426 -0.3293  1.2460
  147MOL0     H19813   2.511   9.322   2.433  1.1110 -0.6012 -3.1948
  147MOL0     H19814   2.610   9.249   2.545 -2.1627  1.4237  0.6957
  147MOL0     H19815   2.565   9.549   2.569 -2.7556 -0.8175  0.6889
  147MOL0     H19816   2.654   9.435   2.682 -0.0791  2.0080  1.1426
  147MOL0     H19817   2.431   9.309   2.678 -1.7665  0.9253  1.0816
  147MOL0     H19818   2.463   9.443   2.788 -0.0716 -0.9404  0.8917
  147MOL0     H19819   2.306   9.457   2.506  0.7999  1.2834 -0.6099
  147MOL0     H19820   2.356   9.598   2.593 -3.3514  1.6411 -0.6769
  147MOL0     H19821   2.127   9.524   2.620  0.0902  3.5270  1.7626
  147MOL0     H19822   2.166   9.385   2.721 -3.8349  0.6698 -3.2627
  147MOL0     H19823   2.254   9.682   2.786 -1.1526  0.8656  0.4480
  147MOL0     H19824   2.266   9.535   2.890  0.3184 -2.0268 -1.2124
  147MOL0     H19825   2.057   9.681   2.949 -2.1725  0.6193 -1.0706
  147MOL0     H19826   2.023   9.517   2.886  0.4740 -0.7118 -0.4141
  147MOL0     H19827   3.037   9.194   2.536  2.8837 -1.3688 -0.0853
  147MOL0     H19828   3.224   9.153   2.381  0.1089  0.3260 -1.9484
  147MOL0     H19829   3.525   9.268   2.101  0.4304 -1.4635  0.2465
  147MOL0     H19830   3.704   9.273   1.942  0.1986  0.2507 -0.5053
  147MOL0     H19831   4.739   8.868   0.845 -3.1341 -0.1530  0.2152
  147MOL0     H19832   4.954   8.747   0.884  0.3597 -2.1854  0.6544
  147MOL0     H19833   5.140   8.276   1.298 -0.7291  0.6815  0.0225
  147MOL0     H19834   5.340   8.188   1.266 -1.3993  0.6063  2.8903
  147MOL0     H19835   5.703   8.253   1.387 -1.0623  0.7641  1.4746
  147MOL0     H19836   5.546   8.227   1.398  2.1044  3.2778  0.8474
  147MOL0     H19837   5.724   8.098   1.181  0.5285  1.8525  0.8933
  147MOL0     H19838   5.549   8.074   1.186 -1.8374 -0.2302  2.7716
  147MOL0     H19839   5.691   7.897   1.305 -0.5114 -0.5309  0.7164
  147MOL0     H19840   5.594   7.969   1.432 -0.1023 -0.3659 -0.2940
  147MOL0     H19841   5.857   8.094   1.374  0.2500 -0.0620  1.4988
  147MOL0     H19842   5.880   7.924   1.418  0.9358  0.7511  0.2962
  147MOL0     H19843   5.775   8.121   1.789  0.1852  2.8539 -0.1920
  147MOL0     H19844   5.517   8.553   1.134 -1.0624 -0.5163 -1.9560
  147MOL0     H19845   5.293   8.664   1.148  3.6830 -0.1057 -0.9537
  148MOL0     O19846   0.737   5.346   5.025  0.5497  0.3334  0.2084
  148MOL0     C19847   0.632   5.362   5.084  0.2878  0.0608 -0.3185
  148MOL0     O19848   0.611   5.467   5.167 -0.2481 -0.1609 -0.0091
  148MOL0     C19849   0.717   5.526   5.226 -0.1050  0.2620 -1.1652
  148MOL0     C19850   0.747   5.488   5.361 -0.0173 -0.5797  0.3088
  148MOL0     C19851   0.862   5.541   5.422 -0.5301  0.1354  0.2490
  148MOL0     C19852   0.943   5.638   5.351  0.3786 -0.3704 -0.5840
  148MOL0     O19853   1.057   5.700   5.396 -0.1620 -0.0191  0.2787
  148MOL0     C19854   1.151   5.640   5.492  0.0533  0.2779  0.8192
  148MOL0     C19855   1.298   5.655   5.430  0.3141  0.7327 -0.3264
  148MOL0     C19856   1.404   5.639   5.547  1.5220 -0.3051  0.0393
  148MOL0     C19857   1.542   5.710   5.508  0.5033 -0.3816 -0.2819
  148MOL0     C19858   1.663   5.656   5.588  0.5368 -0.5733  0.9069
  148MOL0     C19859   1.693   5.508   5.557  0.7160  0.0357  0.3129
  148MOL0     C19860   1.827   5.471   5.623  0.5567  0.0899  0.5248
  148MOL0     C19861   1.887   5.334   5.564 -0.2799  0.1362 -1.6472
  148MOL0     N19862   1.800   5.226   5.564  0.1130  0.4261  0.6306
  148MOL0     C19863   1.705   5.207   5.474 -0.3731 -0.1656  0.7767
  148MOL0     C19864   1.610   5.138   5.536 -0.2767  0.5903  0.4107
  148MOL0     C19865   1.472   5.103   5.482 -0.4214 -0.1361  0.5908
  148MOL0     C19866   1.466   5.036   5.349  0.0861 -0.4114  0.5891
  148MOL0     C19867   1.562   4.927   5.324  0.0556 -0.5501 -0.2713
  148MOL0     C19868   1.582   4.888   5.183 -0.2834  0.9420  0.2113
  148MOL0     O19869   1.462   4.822   5.150 -0.0869 -0.0661 -0.1516
  148MOL0     C19870   1.430   4.799   5.021 -0.2416  0.2087 -0.0521
  148MOL0     C19871   1.295   4.819   4.977 -1.7511  0.8543 -0.1186
  148MOL0     C19872   1.256   4.792   4.847 -0.7548 -0.3641  0.3434
  148MOL0     C19873   1.103   4.781   4.814 -0.5359  0.2770  0.7541
  148MOL0     C19874   1.362   4.767   4.757  0.9207 -0.1139  0.6990
  148MOL0     C19875   1.327   4.763   4.604  0.1673 -0.2483 -0.7111
  148MOL0     O19876   1.433   4.705   4.528 -0.2167 -0.0936 -0.5526
  148MOL0     C19877   1.454   4.756   4.409 -0.2479  0.0254 -0.0489
  148MOL0     C19878   1.552   4.853   4.380  0.1775  0.3227  0.4496
  148MOL0     C19879   1.591   4.893   4.257  0.4219  0.4223  0.4094
  148MOL0     C19880   1.534   4.830   4.144  0.1979 -0.2249 -0.0898
  148MOL0     O19881   1.582   4.860   4.016  0.1172 -0.2751  0.8842
  148MOL0     C19882   1.657   4.750   3.947 -0.6983  0.0463  0.3145
  148MOL0     C19883   1.717   4.758   3.813  0.2150  0.9972 -0.3911
  148MOL0     C19884   1.839   4.865   3.786 -0.2173  0.3081 -0.1014
  148MOL0     C19885   1.904   4.858   3.654 -0.0506  1.1992  0.2102
  148MOL0     C19886   2.045   4.920   3.661  0.6455  0.1394 -0.6503
  148MOL0     C19887   2.115   4.880   3.531 -0.1342 -0.3450 -0.2716
  148MOL0     C19888   2.244   4.963   3.505 -0.4259  0.3695  0.0670
  148MOL0     C19889   2.318   4.908   3.385  0.8478  0.0782  0.1248
  148MOL0    Cl19890   2.407   4.766   3.431  0.1789  0.1753 -0.3396
  148MOL0     C19891   1.426   4.736   4.159 -0.4069  0.0080  0.0097
  148MOL0     C19892   1.390   4.700   4.296 -0.8195 -0.5794  0.3498
  148MOL0     O19893   1.221   4.815   4.563  0.4133  0.2793  0.5121
  148MOL0     C19894   1.492   4.747   4.800 -0.3166  0.1392 -0.7879
  148MOL0     C19895   1.524   4.760   4.925  0.7541  0.3062  0.1991
  148MOL0     N19896   1.649   5.102   5.663 -0.3019 -0.0800 -0.3110
  148MOL0     N19897   1.770   5.155   5.675  0.4415 -0.3338 -0.4484
  148MOL0     C19898   0.900   5.681   5.230 -0.9819  0.3709  0.3801
  148MOL0     C19899   0.796   5.630   5.161 -0.1798 -0.8861 -0.6825
  148MOL0     C19900   0.520   5.276   5.051  0.8861  0.1343 -0.9529
  148MOL0     C19901   0.400   5.280   5.124 -0.1281 -0.8195  0.1365
  148MOL0     C19902   0.289   5.199   5.092  0.7389  0.0964  0.2403
  148MOL0     C19903   0.294   5.132   4.966 -0.2060 -0.7643 -1.6172
  148MOL0     O19904   0.180   5.079   4.920 -0.1795  0.6734 -0.1267
  148MOL0     C19905   0.178   4.978   4.817  0.3613  0.6094 -0.9156
  148MOL0     C19906   0.035   4.900   4.804  0.1700  0.5804 -0.5741
  148MOL0     C19907  -0.091   4.974   4.874  0.0041  0.3958 -0.8868
  148MOL0     C19908  -0.218   4.908   4.831 -0.2713 -0.4300  0.0007
  148MOL0     C19909  -0.319   4.954   4.922 -0.7740 -0.2930 -0.4551
  148MOL0     C19910  -0.418   4.973   4.986 -0.1171 -0.5834 -0.6145
  148MOL0     C19911   0.416   5.131   4.902 -0.4196  0.1805  0.1535
  148MOL0     C19912   0.530   5.190   4.944 -0.7071 -0.7843 -0.0528
  148MOL0     H19913   0.678   5.419   5.407 -2.0537 -0.0955 -1.8490
  148MOL0     H19914   0.883   5.507   5.523  0.1239  0.4004  0.2094
  148MOL0     H19915   1.127   5.704   5.578 -3.9038 -1.9706  1.6271
  148MOL0     H19916   1.142   5.538   5.528 -2.3765 -0.1432 -0.7748
  148MOL0     H19917   1.315   5.583   5.350  0.1336 -2.5665  2.3488
  148MOL0     H19918   1.316   5.757   5.395  4.6601  0.7104  1.2250
  148MOL0     H19919   1.360   5.688   5.634  1.1827 -2.4141  1.1215
  148MOL0     H19920   1.418   5.534   5.574 -0.7965 -0.5786  0.3264
  148MOL0     H19921   1.562   5.694   5.401  2.6450 -1.4369  0.2096
  148MOL0     H19922   1.529   5.816   5.531 -1.5934 -0.9416  1.4333
  148MOL0     H19923   1.748   5.722   5.569  0.1663  0.1723  1.8148
  148MOL0     H19924   1.626   5.666   5.690  0.2809  0.7655  0.6958
  148MOL0     H19925   1.611   5.450   5.601  0.6431  0.4022  0.6627
  148MOL0     H19926   1.711   5.488   5.451  0.3951 -2.2748  0.6514
  148MOL0     H19927   1.902   5.550   5.608 -1.0170  1.6990  0.6912
  148MOL0     H19928   1.814   5.468   5.731 -2.3231  0.0360  0.2626
  148MOL0     H19929   1.971   5.308   5.628 -1.7250  1.6127  1.0461
  148MOL0     H19930   1.928   5.343   5.463  2.3824 -0.0309 -0.6458
  148MOL0     H19931   1.690   5.248   5.374 -0.1136  0.2177  0.8924
  148MOL0     H19932   1.423   5.028   5.545 -1.6034 -0.8954 -1.1504
  148MOL0     H19933   1.402   5.186   5.494  0.7775  0.9040  0.5667
  148MOL0     H19934   1.472   5.118   5.277  0.4352  2.3451  3.5100
  148MOL0     H19935   1.363   5.000   5.338  0.7056 -1.4196 -2.8830
  148MOL0     H19936   1.524   4.838   5.375 -2.6944 -0.7851 -2.4845
  148MOL0     H19937   1.661   4.952   5.363 -0.5270  1.2720  0.1368
  148MOL0     H19938   1.666   4.820   5.170 -1.3753  0.0146 -3.3126
  148MOL0     H19939   1.591   4.980   5.124  1.1939  1.0182  0.5187
  148MOL0     H19940   1.223   4.832   5.057  0.7751 -2.0585  2.9083
  148MOL0     H19941   1.051   4.772   4.910 -1.3672 -1.2452  0.1969
  148MOL0     H19942   1.077   4.873   4.762  2.8977  1.6038  1.0936
  148MOL0     H19943   1.080   4.692   4.756  0.4043  0.7985 -0.4619
  148MOL0     H19944   1.594   4.909   4.462  0.9171  2.5329 -1.3180
  148MOL0     H19945   1.652   4.981   4.237  0.1576  0.4348 -0.3714
  148MOL0     H19946   1.742   4.709   4.003  1.2682 -0.2451 -2.6778
  148MOL0     H19947   1.582   4.671   3.948 -0.0783 -0.5488  0.5585
  148MOL0     H19948   1.751   4.660   3.777 -0.6080  1.6383 -3.1632
  148MOL0     H19949   1.642   4.797   3.744 -0.7755 -0.0637  0.0534
  148MOL0     H19950   1.904   4.849   3.872  1.2715  2.3466 -0.7765
  148MOL0     H19951   1.789   4.960   3.808 -0.9972 -0.1604  0.2049
  148MOL0     H19952   1.915   4.752   3.633 -1.6056  0.3953  2.9178
  148MOL0     H19953   1.852   4.914   3.576  1.6757 -0.5055 -2.3148
  148MOL0     H19954   2.112   4.889   3.741  1.8953  2.7861 -0.5749
  148MOL0     H19955   2.030   5.027   3.681 -0.4561  0.0618 -0.9887
  148MOL0     H19956   2.143   4.776   3.546  3.5693  0.5687  0.1252
  148MOL0     H19957   2.050   4.891   3.444  0.7249  1.5323 -0.7325
  148MOL0     H19958   2.309   4.949   3.593 -1.2212  2.7320  1.1083
  148MOL0     H19959   2.224   5.069   3.494  2.2622  1.3177  2.7610
  148MOL0     H19960   2.398   4.973   3.351  1.0329 -0.1141  0.1889
  148MOL0     H19961   2.241   4.892   3.309  0.5222 -1.0012  0.6493
  148MOL0     H19962   1.380   4.689   4.073 -0.3391 -0.9252  0.4775
  148MOL0     H19963   1.315   4.623   4.311 -0.1419 -2.2288 -3.6124
  148MOL0     H19964   1.570   4.728   4.727 -0.6412  0.3707 -1.2050
  148MOL0     H19965   1.620   4.730   4.966  0.3140 -1.0754  0.2872
  148MOL0     H19966   0.957   5.762   5.185  2.0600 -1.1667  1.1753
  148MOL0     H19967   0.762   5.659   5.062 -3.5937  1.6195  1.0210
  148MOL0     H19968   0.407   5.344   5.211  1.4646 -0.7039 -0.0502
  148MOL0     H19969   0.204   5.198   5.160  2.3097  0.5549  2.3447
  148MOL0     H19970   0.191   5.020   4.716  3.1507  4.1652  0.6770
  148MOL0     H19971   0.258   4.908   4.839  0.8770  1.4051 -0.2042
  148MOL0     H19972   0.049   4.799   4.842  1.2062 -0.1838 -2.8196
  148MOL0     H19973   0.014   4.877   4.699 -2.4724  0.9460 -0.1824
  148MOL0     H19974  -0.102   5.076   4.836  0.0316  1.2939  1.3450
  148MOL0     H19975  -0.080   4.975   4.983  1.5151  2.3983 -0.9884
  148MOL0     H19976  -0.197   4.800   4.833  0.0685 -0.3568  0.5161
  148MOL0     H19977  -0.245   4.951   4.734 -0.5377 -0.8945 -0.1354
  148MOL0     H19978  -0.502   4.992   5.050 -0.3824  0.1651 -1.1633
  148MOL0     H19979   0.428   5.077   4.808  2.1244  1.1133 -0.1507
  148MOL0     H19980   0.623   5.184   4.889 -0.5335 -1.1820  0.2827
  149MOL0     O19981  10.252   3.371   9.971  1.0347 -0.1163 -0.2550
  149MOL0     C19982  10.325   3.446   9.907  0.0653 -1.1298 -0.0668
  149MOL0     O19983  10.308   3.504   9.786 -0.0744  0.4923  0.1975
  149MOL0     C19984  10.195   3.486   9.718  0.0174 -1.0645  0.4586
  149MOL0     C19985  10.119   3.600   9.709  0.8642  0.3548  0.0984
  149MOL0     C19986   9.993   3.591   9.645 -0.2228 -0.0153  1.1333
  149MOL0     C19987   9.953   3.473   9.596 -0.4225 -0.8378  0.3135
  149MOL0     O19988   9.827   3.455   9.551 -0.0718 -0.2675  0.4273
  149MOL0     C19989   9.727   3.490   9.643  0.2671 -0.2837 -1.1007
  149MOL0     C19990   9.605   3.413   9.584  1.1514 -0.2133  0.4710
  149MOL0     C19991   9.586   3.262   9.597  0.7087  1.1250  0.3173
  149MOL0     C19992   9.448   3.215   9.535  0.0217  0.3322  0.0123
  149MOL0     C19993   9.377   3.089   9.594 -1.1900  0.4938 -0.3598
  149MOL0     C19994   9.248   3.047   9.515  0.1923 -0.3062  1.3678
  149MOL0     C19995   9.186   2.909   9.541  0.4648  0.0986  0.3016
  149MOL0     C19996   9.132   2.888   9.688 -0.1180  0.2066 -0.7285
  149MOL0     N19997   9.020   2.974   9.717  0.3745  0.3352 -0.8789
  149MOL0     C19998   8.887   2.976   9.661 -0.0549 -0.3568 -0.6020
  149MOL0     C19999   8.842   3.105   9.673  0.5949  0.0037  0.0832
  149MOL0     C20000   8.713   3.166   9.609 -0.4025  0.5589  0.5726
  149MOL0     C20001   8.671   3.081   9.479  0.6242 -0.7720 -0.3974
  149MOL0     C20002   8.779   3.076   9.373  1.0988 -0.3369  0.5493
  149MOL0     C20003   8.845   3.206   9.332  0.3149 -0.1303 -0.3965
  149MOL0     O20004   8.958   3.172   9.250  0.1157 -0.4973  0.2028
  149MOL0     C20005   9.050   3.259   9.210  0.9439  0.8908 -0.0214
  149MOL0     C20006   9.173   3.220   9.160  0.3589 -0.6042  0.1464
  149MOL0     C20007   9.269   3.312   9.126  0.3350 -0.2656  1.3381
  149MOL0     C20008   9.398   3.254   9.065 -1.0619  0.4061 -0.2352
  149MOL0     C20009   9.250   3.457   9.144 -0.0334 -0.5163  0.0534
  149MOL0     C20010   9.356   3.557   9.100 -0.6635  0.4531 -0.6984
  149MOL0     O20011   9.316   3.693   9.076 -0.1693  0.0437 -0.8693
  149MOL0     C20012   9.425   3.768   9.043  1.5102 -0.0915  0.1726
  149MOL0     C20013   9.510   3.734   8.932 -0.1921 -0.0946 -0.7329
  149MOL0     C20014   9.618   3.824   8.914 -0.1714 -0.2894 -0.3103
  149MOL0     C20015   9.641   3.944   8.995 -0.4753  0.3427 -0.4822
  149MOL0     O20016   9.732   4.043   8.960 -0.4217  0.8801  0.1477
  149MOL0     C20017   9.839   4.011   8.875 -0.1710  0.0730 -0.1466
  149MOL0     C20018   9.912   4.143   8.859 -0.4292  1.1733  0.2690
  149MOL0     C20019  10.027   4.126   8.757  0.5553 -0.3256 -0.6997
  149MOL0     C20020  10.070   4.265   8.708  0.2228 -0.5729  0.0843
  149MOL0     C20021  10.188   4.260   8.617  0.0282  0.0532  0.3352
  149MOL0     C20022  10.214   4.388   8.533  0.0130 -0.1423 -0.3988
  149MOL0     C20023  10.363   4.414   8.504 -0.2830  0.3457  0.9413
  149MOL0     C20024  10.392   4.529   8.414  0.7375 -0.8871 -0.1368
  149MOL0    Cl20025  10.568   4.574   8.389  0.0585 -0.2050  0.0361
  149MOL0     C20026   9.556   3.970   9.097 -0.4058 -0.5302  0.0019
  149MOL0     C20027   9.444   3.883   9.114 -0.3174 -0.2451 -0.1954
  149MOL0     O20028   9.470   3.512   9.119  0.0601 -0.3149  1.1066
  149MOL0     C20029   9.125   3.499   9.199 -0.4169 -0.0159  0.2802
  149MOL0     C20030   9.035   3.401   9.229 -0.3162  0.2969 -0.4677
  149MOL0     N20031   8.943   3.176   9.733 -0.1378  0.2569  0.5750
  149MOL0     N20032   9.046   3.096   9.765  0.8476 -0.2921  0.7533
  149MOL0     C20033  10.036   3.364   9.581 -0.1173 -1.2942 -0.8020
  149MOL0     C20034  10.162   3.373   9.647  0.2494  0.5925  0.0710
  149MOL0     C20035  10.454   3.474   9.979  1.1095  0.4126 -1.2216
  149MOL0     C20036  10.488   3.407  10.102 -0.7250  0.1425  0.0867
  149MOL0     C20037  10.612   3.435  10.163  0.5071 -0.5946  0.4406
  149MOL0     C20038  10.699   3.527  10.111 -0.3423 -0.3388  0.1778
  149MOL0     O20039  10.824   3.544  10.164 -0.1764  0.1136  0.8348
  149MOL0     C20040  10.932   3.595  10.080  0.0327 -0.2342 -0.7809
  149MOL0     C20041  11.050   3.615  10.170  0.3309 -0.1554 -0.6228
  149MOL0     C20042  11.170   3.626  10.079 -0.0937  0.0542  0.6013
  149MOL0     C20043  11.282   3.686  10.161  0.1682 -0.9082 -0.6098
  149MOL0     C20044  11.408   3.685  10.092 -0.0828  0.7561 -0.1913
  149MOL0     C20045  11.514   3.695  10.043  0.0508  0.7324  0.2226
  149MOL0     C20046  10.668   3.594   9.988 -0.4359  0.2253 -0.2756
  149MOL0     C20047  10.544   3.564   9.932 -0.1699 -0.3508 -0.1045
  149MOL0     H20048  10.154   3.686   9.765 -1.6501  0.7231  1.2906
  149MOL0     H20049   9.922   3.673   9.641 -2.1442 -1.5923  0.9665
  149MOL0     H20050   9.738   3.447   9.744 -4.2242  0.7850  0.0709
  149MOL0     H20051   9.720   3.598   9.659  1.7563 -0.4768  1.5687
  149MOL0     H20052   9.521   3.456   9.639 -0.6590 -1.5681 -1.0964
  149MOL0     H20053   9.601   3.430   9.476  0.8320  2.6710  0.8640
  149MOL0     H20054   9.665   3.199   9.555 -2.9182 -2.1502 -2.3739
  149MOL0     H20055   9.584   3.246   9.705 -1.2662 -2.7468 -0.1014
  149MOL0     H20056   9.379   3.299   9.550 -2.0072 -1.0704 -1.0315
  149MOL0     H20057   9.456   3.208   9.426 -1.3822  2.3131 -0.2827
  149MOL0     H20058   9.448   3.008   9.574 -2.5027 -0.7963  0.0070
  149MOL0     H20059   9.371   3.106   9.702  2.7217  1.0013 -0.0772
  149MOL0     H20060   9.179   3.128   9.537  0.1426 -0.0204  0.2352
  149MOL0     H20061   9.276   3.048   9.409 -1.4672 -0.2531  0.9019
  149MOL0     H20062   9.105   2.900   9.469  0.8055  0.6418 -0.1573
  149MOL0     H20063   9.267   2.835   9.535  0.5270  0.1379  0.6112
  149MOL0     H20064   9.206   2.924   9.760  2.1906  0.6481 -3.1972
  149MOL0     H20065   9.092   2.787   9.696  3.6558 -1.5013 -1.3030
  149MOL0     H20066   8.827   2.888   9.641 -0.4456 -1.1260  3.2883
  149MOL0     H20067   8.627   3.161   9.677  0.0767 -1.4354  1.0858
  149MOL0     H20068   8.723   3.274   9.596 -1.0230  0.2593 -3.8056
  149MOL0     H20069   8.587   3.134   9.434  1.8089  1.3998 -0.2149
  149MOL0     H20070   8.643   2.980   9.510  2.7454 -1.3043 -0.0067
  149MOL0     H20071   8.746   3.028   9.280  1.0037 -2.1590  1.4676
  149MOL0     H20072   8.866   3.016   9.403 -0.7177 -2.0214  2.8873
  149MOL0     H20073   8.877   3.250   9.427 -3.2113 -1.2224  1.4802
  149MOL0     H20074   8.786   3.282   9.280 -0.8441  0.5577  1.7970
  149MOL0     H20075   9.201   3.116   9.148  1.8780 -0.0948 -1.0373
  149MOL0     H20076   9.387   3.146   9.047 -2.5586  0.5474 -0.2636
  149MOL0     H20077   9.419   3.309   8.973 -1.6045  2.3359  0.7486
  149MOL0     H20078   9.482   3.261   9.134 -3.1446 -1.5641  2.7252
  149MOL0     H20079   9.494   3.642   8.875 -1.0104 -0.3548 -0.1067
  149MOL0     H20080   9.698   3.807   8.842  0.5976  3.7501 -0.6542
  149MOL0     H20081   9.903   3.929   8.910 -0.4068  0.2140  0.6270
  149MOL0     H20082   9.800   3.988   8.775  1.6561  1.9860 -1.3889
  149MOL0     H20083   9.848   4.227   8.829  2.2132  2.4399 -2.2252
  149MOL0     H20084   9.968   4.167   8.950 -1.5460 -1.3631  1.7394
  149MOL0     H20085  10.003   4.063   8.671 -2.2525  1.4427 -1.3538
  149MOL0     H20086  10.113   4.090   8.814 -0.5728 -0.1548  1.2047
  149MOL0     H20087   9.981   4.306   8.661 -1.0594 -1.8836  1.2855
  149MOL0     H20088  10.089   4.320   8.800  0.3417 -0.5143  0.0249
  149MOL0     H20089  10.181   4.182   8.541  0.9118  0.0286  0.2648
  149MOL0     H20090  10.279   4.246   8.676  1.2091  0.3756 -1.3379
  149MOL0     H20091  10.168   4.396   8.434 -2.7385 -0.8983  0.7270
  149MOL0     H20092  10.177   4.466   8.600 -0.3743 -0.3488 -0.3717
  149MOL0     H20093  10.423   4.337   8.455  2.3368  0.7572  3.2188
  149MOL0     H20094  10.414   4.434   8.599  0.9061 -3.1342  1.1725
  149MOL0     H20095  10.352   4.624   8.449  2.2567 -0.8484  1.6546
  149MOL0     H20096  10.343   4.499   8.321 -1.1768  1.1739  0.1112
  149MOL0     H20097   9.570   4.064   9.150  3.4730 -2.6585  3.3466
  149MOL0     H20098   9.386   3.922   9.197 -0.4696  1.4594 -1.0569
  149MOL0     H20099   9.107   3.605   9.217  3.9930  0.9422  0.1388
  149MOL0     H20100   8.938   3.432   9.264  0.3099  1.9270 -0.0675
  149MOL0     H20101   9.990   3.274   9.540 -2.4154  0.7420 -3.0620
  149MOL0     H20102  10.234   3.291   9.653 -0.4353 -0.0459 -0.2568
  149MOL0     H20103  10.427   3.324  10.133  0.5502 -1.1374 -0.7019
  149MOL0     H20104  10.643   3.376  10.249 -0.2820 -0.2150  0.9967
  149MOL0     H20105  10.950   3.517  10.005 -0.7192 -0.0757 -1.1399
  149MOL0     H20106  10.922   3.677  10.008  0.1662  0.4863  0.0069
  149MOL0     H20107  11.065   3.529  10.237  0.1102 -1.0281 -1.6525
  149MOL0     H20108  11.036   3.707  10.227  0.9851 -1.1901  1.2870
  149MOL0     H20109  11.148   3.692   9.995  2.3913  3.0497  2.0713
  149MOL0     H20110  11.210   3.535  10.034  1.3715  1.5745 -1.3499
  149MOL0     H20111  11.297   3.633  10.256 -2.5713  1.0595  1.0743
  149MOL0     H20112  11.269   3.794  10.175 -0.7375 -0.9624 -1.0071
  149MOL0     H20113  11.610   3.720  10.004 -0.4936  0.6154 -1.2374
  149MOL0     H20114  10.731   3.671   9.945  2.1046 -2.5996 -1.9837
  149MOL0     H20115  10.514   3.622   9.846 -2.9126 -1.1603  0.1838
  150MOL0     O20116   2.894   3.376   0.065 -0.1504  0.0459  0.1838
  150MOL0     C20117   2.957   3.373  -0.042  0.1206 -0.1206  0.1801
  150MOL0     O20118   2.913   3.436  -0.157  0.2738  0.4863 -0.7584
  150MOL0     C20119   2.801   3.510  -0.145  0.6114  0.2572 -0.1120
  150MOL0     C20120   2.677   3.469  -0.116 -0.6476 -0.3124  0.8474
  150MOL0     C20121   2.573   3.566  -0.105  0.6760 -0.2010 -0.7071
  150MOL0     C20122   2.592   3.704  -0.114 -1.0466  0.4759  0.0606
  150MOL0     O20123   2.497   3.792  -0.093 -0.9452 -0.5836 -0.4240
  150MOL0     C20124   2.485   3.911  -0.175  0.3967  0.1075  0.2165
  150MOL0     C20125   2.401   4.011  -0.097  0.2991  0.2622  0.0530
  150MOL0     C20126   2.255   3.960  -0.094 -1.1067  0.5547  0.2988
  150MOL0     C20127   2.179   4.063  -0.017  0.2935  0.7333  0.3079
  150MOL0     C20128   2.055   3.993   0.049  0.0469  0.4148  0.2520
  150MOL0     C20129   1.937   4.093   0.086  0.5848 -0.7887 -0.1138
  150MOL0     C20130   1.829   4.020   0.161 -0.7730  0.3946 -0.2888
  150MOL0     C20131   1.694   4.086   0.128 -0.3614  0.1390  0.3611
  150MOL0     N20132   1.586   4.025   0.216  0.2937  0.0253 -0.2793
  150MOL0     C20133   1.577   4.050   0.352 -0.8158  0.4071 -0.3722
  150MOL0     C20134   1.491   3.962   0.402 -0.4205  0.8083 -0.2890
  150MOL0     C20135   1.430   3.950   0.542 -0.2498 -0.4412  1.2761
  150MOL0     C20136   1.281   3.914   0.547 -1.0202  0.2154 -0.7090
  150MOL0     C20137   1.261   3.766   0.533  0.5014 -0.5823 -0.5759
  150MOL0     C20138   1.306   3.672   0.645 -0.4587  1.2182 -0.4307
  150MOL0     O20139   1.260   3.715   0.772  0.4940  0.3854 -0.4946
  150MOL0     C20140   1.147   3.664   0.834 -0.5063 -0.0674  0.1797
  150MOL0     C20141   1.116   3.531   0.835 -1.3235  0.2874 -0.7171
  150MOL0     C20142   0.996   3.484   0.893  0.2474 -0.3292  1.0251
  150MOL0     C20143   0.971   3.325   0.894 -0.7909  0.1993 -0.2857
  150MOL0     C20144   0.893   3.575   0.935  0.0973 -0.5578  0.9582
  150MOL0     C20145   0.772   3.527   1.002  0.0803  0.7383 -0.3703
  150MOL0     O20146   0.684   3.625   1.041  0.0252  0.5935  0.5541
  150MOL0     C20147   0.572   3.594   1.112  0.2764  0.0163 -0.6867
  150MOL0     C20148   0.448   3.641   1.075 -0.9455  0.4964  0.0994
  150MOL0     C20149   0.329   3.616   1.149 -0.2648 -0.0195  0.2616
  150MOL0     C20150   0.334   3.556   1.276  0.7615 -0.1979  0.3256
  150MOL0     O20151   0.231   3.540   1.364 -0.7225 -0.5272 -0.0278
  150MOL0     C20152   0.122   3.634   1.358 -0.2709 -0.3161 -0.1310
  150MOL0     C20153   0.001   3.576   1.270 -0.0450  0.4361  0.1485
  150MOL0     C20154  -0.080   3.469   1.343 -0.0460  0.6317  0.0656
  150MOL0     C20155  -0.140   3.376   1.243  0.4791  0.0016 -0.2339
  150MOL0     C20156  -0.257   3.280   1.279 -0.4437 -0.3419  0.1916
  150MOL0     C20157  -0.239   3.181   1.402 -0.1475 -0.8847  0.0928
  150MOL0     C20158  -0.251   3.244   1.543  0.3185  1.3131  0.7881
  150MOL0     C20159  -0.390   3.301   1.576 -0.7528  1.3671 -0.6512
  150MOL0    Cl20160  -0.380   3.362   1.751  0.1609 -0.2762  0.1504
  150MOL0     C20161   0.460   3.514   1.319  0.0392 -0.3048  0.3497
  150MOL0     C20162   0.573   3.539   1.240 -0.1347  0.1758 -0.2163
  150MOL0     O20163   0.742   3.403   1.028 -0.6030 -0.0569 -0.0477
  150MOL0     C20164   0.922   3.712   0.925  0.5515  1.3842 -0.3115
  150MOL0     C20165   1.048   3.747   0.881 -0.1548 -0.0801  0.2801
  150MOL0     N20166   1.440   3.890   0.297 -0.4964  0.1899  0.1302
  150MOL0     N20167   1.490   3.932   0.185 -1.5812  0.3237  0.5630
  150MOL0     C20168   2.729   3.744  -0.139 -0.4892 -0.3392 -0.5194
  150MOL0     C20169   2.833   3.643  -0.140 -0.6174  0.0685 -0.6333
  150MOL0     C20170   3.065   3.272  -0.053  0.0061 -0.0551  0.7170
  150MOL0     C20171   3.116   3.231  -0.176  0.7738  1.0563  1.6265
  150MOL0     C20172   3.213   3.124  -0.183  1.2252  0.4000  0.2971
  150MOL0     C20173   3.267   3.074  -0.065  0.3467  0.1044  0.2030
  150MOL0     O20174   3.376   2.978  -0.077 -0.1707 -0.4897  0.4166
  150MOL0     C20175   3.453   2.930   0.030  0.6664  0.4143 -1.0844
  150MOL0     C20176   3.557   2.824  -0.019  0.5337 -0.6455 -0.6568
  150MOL0     C20177   3.476   2.714  -0.087 -0.7889 -0.2397  0.0044
  150MOL0     C20178   3.482   2.576  -0.016  0.3464  0.8318 -0.2643
  150MOL0     C20179   3.367   2.587   0.076 -1.3456  1.3851  0.1465
  150MOL0     C20180   3.272   2.594   0.145 -0.0350 -0.0065 -0.2298
  150MOL0     C20181   3.229   3.128   0.057  0.4863 -0.8165 -0.9469
  150MOL0     C20182   3.127   3.225   0.065  0.3019 -1.0835  0.3471
  150MOL0     H20183   2.655   3.363  -0.110 -1.7705 -0.0745  1.2307
  150MOL0     H20184   2.472   3.534  -0.085 -0.0940  2.0581 -0.6706
  150MOL0     H20185   2.581   3.955  -0.204  0.5326 -1.6559 -2.3292
  150MOL0     H20186   2.445   3.886  -0.273 -0.9580  2.1891  0.1700
  150MOL0     H20187   2.434   4.025   0.006 -1.5975 -0.7946  0.8505
  150MOL0     H20188   2.398   4.105  -0.154  0.8641  1.0486  1.2893
  150MOL0     H20189   2.217   3.945  -0.195 -0.0983  0.1985 -0.0370
  150MOL0     H20190   2.248   3.870  -0.031  2.1962 -2.2413 -2.8578
  150MOL0     H20191   2.243   4.101   0.063  1.2956 -0.4449  0.0919
  150MOL0     H20192   2.154   4.146  -0.084 -3.2353 -0.2431  0.1807
  150MOL0     H20193   2.023   3.922  -0.027  4.5133 -0.0666 -1.5042
  150MOL0     H20194   2.100   3.950   0.139  1.0652 -0.1194 -0.4919
  150MOL0     H20195   1.980   4.174   0.145 -0.7915  0.1717 -0.3651
  150MOL0     H20196   1.883   4.131  -0.002 -2.8388 -3.4728  0.6216
  150MOL0     H20197   1.815   3.919   0.123  1.2399 -0.4934  1.1469
  150MOL0     H20198   1.849   4.001   0.267 -0.5393  2.1386  0.0194
  150MOL0     H20199   1.670   4.071   0.022 -1.2079 -0.4069  0.6166
  150MOL0     H20200   1.696   4.195   0.136 -2.1418  0.1299  1.4445
  150MOL0     H20201   1.634   4.128   0.401 -2.5176  1.7764 -0.4943
  150MOL0     H20202   1.493   3.881   0.599  0.2999 -0.0858  1.1160
  150MOL0     H20203   1.448   4.050   0.584  0.5871  0.9735 -2.0910
  150MOL0     H20204   1.228   3.974   0.473 -1.2277  1.6680  0.5548
  150MOL0     H20205   1.242   3.955   0.641 -2.5170  0.1724 -1.2841
  150MOL0     H20206   1.284   3.724   0.435 -0.6696 -1.9266 -0.3072
  150MOL0     H20207   1.152   3.753   0.532  0.7651 -3.8935  0.7750
  150MOL0     H20208   1.415   3.662   0.653  0.0940  3.2696 -3.5711
  150MOL0     H20209   1.263   3.575   0.622  1.7179 -0.0044  0.3596
  150MOL0     H20210   1.187   3.451   0.813  0.2219  1.7453 -1.2472
  150MOL0     H20211   0.937   3.291   0.993  1.0908 -0.5032  0.1599
  150MOL0     H20212   0.894   3.309   0.818 -0.8287 -2.0062  0.1347
  150MOL0     H20213   1.057   3.258   0.887  0.1822  1.4314 -0.5294
  150MOL0     H20214   0.432   3.707   0.991  0.8647  0.2573 -0.4711
  150MOL0     H20215   0.232   3.648   1.113  0.7593  1.8750 -1.0131
  150MOL0     H20216   0.085   3.669   1.455  2.2471  0.2932  0.6723
  150MOL0     H20217   0.161   3.727   1.315 -2.3719  0.1008 -1.2814
  150MOL0     H20218  -0.069   3.657   1.246 -2.9023 -1.1971  2.3935
  150MOL0     H20219   0.048   3.527   1.184 -1.4358 -0.7177  0.0049
  150MOL0     H20220  -0.160   3.516   1.401  1.7390  2.0091  1.5376
  150MOL0     H20221  -0.016   3.413   1.411 -1.8736  1.7267  2.8880
  150MOL0     H20222  -0.184   3.438   1.164  0.1722 -2.2889 -1.9516
  150MOL0     H20223  -0.058   3.316   1.204 -1.2397 -2.8648  0.2572
  150MOL0     H20224  -0.274   3.227   1.185  2.7804  2.6666 -2.3599
  150MOL0     H20225  -0.348   3.340   1.294 -0.4849  0.5598 -2.9622
  150MOL0     H20226  -0.317   3.104   1.404 -1.4471  0.3574 -0.6382
  150MOL0     H20227  -0.149   3.119   1.395 -1.5945 -3.0933 -0.0608
  150MOL0     H20228  -0.172   3.319   1.553  0.5630  1.2051 -0.1795
  150MOL0     H20229  -0.235   3.162   1.613  0.1077 -1.1400 -1.8445
  150MOL0     H20230  -0.468   3.224   1.576 -0.6650  1.2470 -2.5838
  150MOL0     H20231  -0.424   3.377   1.505 -1.4643  2.2668  0.6006
  150MOL0     H20232   0.475   3.457   1.411  1.2961 -0.0696  0.3105
  150MOL0     H20233   0.667   3.493   1.266 -0.2333  0.2826  0.3425
  150MOL0     H20234   0.865   3.793   0.970  2.6380  2.4193  0.6201
  150MOL0     H20235   1.069   3.853   0.884 -1.1642  0.1335  0.4079
  150MOL0     H20236   2.759   3.849  -0.148  1.0601 -0.9243 -3.7798
  150MOL0     H20237   2.937   3.665  -0.158 -0.4738 -2.3688 -3.6211
  150MOL0     H20238   3.090   3.277  -0.271  0.4038 -1.7433  0.2991
  150MOL0     H20239   3.246   3.079  -0.276 -3.4480  0.1135 -1.4910
  150MOL0     H20240   3.510   3.017   0.066 -1.3358  0.6175  1.9420
  150MOL0     H20241   3.386   2.892   0.107 -1.4920  2.9670 -1.5697
  150MOL0     H20242   3.617   2.786   0.065  0.0797 -0.8324 -0.4122
  150MOL0     H20243   3.628   2.877  -0.082 -0.5562  0.4835 -0.9620
  150MOL0     H20244   3.523   2.705  -0.186 -2.0663  4.4779 -1.3192
  150MOL0     H20245   3.378   2.741  -0.128 -1.6243  1.1012  2.6282
  150MOL0     H20246   3.570   2.553   0.046 -0.8345  0.5543  1.3601
  150MOL0     H20247   3.472   2.493  -0.086 -1.6203 -1.5741  2.6042
  150MOL0     H20248   3.194   2.619   0.214  1.0455 -1.4955  1.6509
  150MOL0     H20249   3.271   3.086   0.148  0.6952  2.7284  0.8007
  150MOL0     H20250   3.104   3.263   0.164  0.8896 -1.9539  0.8348
  151MOL0     O20251   2.348   7.522   1.304  0.0985  0.1828 -0.2831
  151MOL0     C20252   2.326   7.623   1.246 -0.7250  0.4590  0.0590
  151MOL0     O20253   2.215   7.699   1.251 -0.2569  0.0953 -0.1759
  151MOL0     C20254   2.102   7.652   1.307  0.0012  0.4745 -0.4227
  151MOL0     C20255   2.064   7.517   1.300  0.6238  0.1115  0.1702
  151MOL0     C20256   1.943   7.473   1.365  0.6709 -0.0472  0.0720
  151MOL0     C20257   1.861   7.559   1.441  0.3723  0.2499 -0.0665
  151MOL0     O20258   1.752   7.507   1.502  0.2081  0.4121 -0.7867
  151MOL0     C20259   1.633   7.582   1.469  0.5000 -0.4168  0.0370
  151MOL0     C20260   1.535   7.476   1.411  0.0799 -0.3569  0.1502
  151MOL0     C20261   1.401   7.527   1.360 -0.2406 -0.2748 -1.0357
  151MOL0     C20262   1.314   7.575   1.485 -1.1157 -0.1137 -0.3055
  151MOL0     C20263   1.166   7.564   1.457 -0.4599  0.4776 -0.1890
  151MOL0     C20264   1.126   7.414   1.475  0.0547 -0.5210 -0.0480
  151MOL0     C20265   0.975   7.398   1.430 -0.3100 -0.3770  0.8683
  151MOL0     C20266   0.885   7.380   1.556  0.1234  0.2913 -0.2879
  151MOL0     N20267   0.743   7.369   1.518  0.2505 -0.1370  0.4443
  151MOL0     C20268   0.689   7.251   1.472  1.2362  0.7866  0.3825
  151MOL0     C20269   0.552   7.268   1.469  0.3703 -0.3458  0.1724
  151MOL0     C20270   0.451   7.158   1.455 -0.2630 -0.4806  0.9136
  151MOL0     C20271   0.339   7.215   1.361  0.7101  0.3434  0.4238
  151MOL0     C20272   0.263   7.098   1.299  0.4997  0.1424  0.4967
  151MOL0     C20273   0.136   7.071   1.383 -0.1726 -0.2898 -0.2064
  151MOL0     O20274   0.046   7.184   1.364 -0.7100 -0.3393  0.0009
  151MOL0     C20275  -0.079   7.163   1.318 -0.4989  0.8300 -0.2689
  151MOL0     C20276  -0.168   7.063   1.361 -0.0107 -0.5041  0.3218
  151MOL0     C20277  -0.293   7.053   1.301 -0.5617 -0.2887 -0.2719
  151MOL0     C20278  -0.379   6.926   1.331 -0.4004 -0.4084  0.7869
  151MOL0     C20279  -0.340   7.153   1.212  1.3002  0.4226 -0.7335
  151MOL0     C20280  -0.473   7.160   1.156 -0.2540 -0.0016 -0.4272
  151MOL0     O20281  -0.582   7.121   1.231  0.2833 -0.5739 -0.5957
  151MOL0     C20282  -0.708   7.096   1.177 -0.1288  0.2201 -0.8352
  151MOL0     C20283  -0.759   6.966   1.161 -0.1858  0.0322  0.3458
  151MOL0     C20284  -0.891   6.940   1.132 -0.3880  1.5763  0.5512
  151MOL0     C20285  -0.983   7.040   1.125 -0.1764 -0.4322  0.3536
  151MOL0     O20286  -1.119   7.013   1.108 -0.3132  0.1932  0.5001
  151MOL0     C20287  -1.184   7.061   0.989 -0.9807 -0.3326 -0.4080
  151MOL0     C20288  -1.323   6.988   0.976 -0.1234 -0.4816 -0.1050
  151MOL0     C20289  -1.435   7.085   0.932 -0.1700 -0.2095  0.0849
  151MOL0     C20290  -1.577   7.026   0.947  0.3306  0.8181 -0.4082
  151MOL0     C20291  -1.680   7.062   0.832 -0.6573  0.0642  0.0697
  151MOL0     C20292  -1.805   6.971   0.831  0.3776 -0.0942  0.3495
  151MOL0     C20293  -1.924   7.021   0.740  0.1725 -0.4845 -0.1738
  151MOL0     C20294  -2.041   6.927   0.755  0.3252  0.1259  0.1741
  151MOL0    Cl20295  -2.116   6.949   0.912 -0.2396  0.1406 -0.0936
  151MOL0     C20296  -0.936   7.170   1.138 -0.3075  0.3222 -0.1771
  151MOL0     C20297  -0.804   7.199   1.160 -0.6205 -0.2193 -0.1611
  151MOL0     O20298  -0.485   7.212   1.049  0.2305 -0.3364  0.1195
  151MOL0     C20299  -0.249   7.256   1.187 -0.4189  0.1108  0.4520
  151MOL0     C20300  -0.119   7.260   1.229  0.3880 -0.5157 -0.4256
  151MOL0     N20301   0.536   7.403   1.498 -0.0327  0.0038 -1.3452
  151MOL0     N20302   0.647   7.456   1.519  0.2736  0.1242 -0.8781
  151MOL0     C20303   1.908   7.692   1.450  0.3255 -0.2437 -0.0377
  151MOL0     C20304   2.018   7.743   1.385  0.2929  0.8191  0.1749
  151MOL0     C20305   2.449   7.686   1.179  0.2184 -0.5556  0.0836
  151MOL0     C20306   2.430   7.807   1.102  0.1864  0.5125  1.1422
  151MOL0     C20307   2.540   7.868   1.042 -0.5927  0.1615  0.1689
  151MOL0     C20308   2.665   7.816   1.046 -0.9186 -0.5751 -0.3284
  151MOL0     O20309   2.768   7.906   1.012 -0.3527  0.5999 -0.2523
  151MOL0     C20310   2.884   7.853   0.942  0.2136  1.0001  0.3026
  151MOL0     C20311   2.955   7.971   0.881 -0.4300 -0.5107 -0.4736
  151MOL0     C20312   3.075   7.941   0.796  0.3215 -0.4767 -0.6971
  151MOL0     C20313   3.181   8.052   0.797 -0.3392 -0.2143 -0.2121
  151MOL0     C20314   3.131   8.166   0.721  0.6816 -0.0605  0.6568
  151MOL0     C20315   3.103   8.258   0.647 -0.2222 -0.1967  1.0261
  151MOL0     C20316   2.692   7.699   1.116  0.8761 -0.2143 -0.1797
  151MOL0     C20317   2.581   7.634   1.188  0.4046  0.4577  0.5181
  151MOL0     H20318   2.115   7.440   1.242 -1.2949 -1.7935  0.8868
  151MOL0     H20319   1.911   7.371   1.350  1.5375 -0.4231  0.7364
  151MOL0     H20320   1.585   7.628   1.556 -1.6732 -0.9228 -0.8295
  151MOL0     H20321   1.642   7.659   1.391 -0.1382 -0.3165  0.0540
  151MOL0     H20322   1.589   7.444   1.321 -1.8584  1.1738 -1.6434
  151MOL0     H20323   1.516   7.386   1.470  0.2506 -0.0849  0.6239
  151MOL0     H20324   1.425   7.620   1.308  2.3933  0.6997  1.6394
  151MOL0     H20325   1.368   7.450   1.290  0.9290 -0.4400 -1.4355
  151MOL0     H20326   1.349   7.531   1.578  1.8328  0.6980 -0.9108
  151MOL0     H20327   1.342   7.679   1.501 -0.2557 -0.2160 -1.0194
  151MOL0     H20328   1.127   7.612   1.547  0.3146  0.9397 -0.0914
  151MOL0     H20329   1.134   7.616   1.366 -2.8586 -0.6853 -0.1072
  151MOL0     H20330   1.209   7.361   1.426  1.6160  0.3455  1.5455
  151MOL0     H20331   1.139   7.382   1.579  2.3974  0.1970 -0.0569
  151MOL0     H20332   0.945   7.493   1.385 -0.8670 -0.5847  0.7839
  151MOL0     H20333   0.971   7.309   1.366  1.8196  0.6852 -0.8610
  151MOL0     H20334   0.904   7.463   1.625 -3.7951 -0.7055  2.3142
  151MOL0     H20335   0.918   7.285   1.600 -0.0963 -0.0380 -0.8210
  151MOL0     H20336   0.737   7.157   1.448  0.1082  0.3470 -0.2196
  151MOL0     H20337   0.496   7.074   1.402  0.0628 -0.4100  1.0743
  151MOL0     H20338   0.413   7.119   1.550 -0.0673 -2.1168  0.3443
  151MOL0     H20339   0.394   7.262   1.279 -0.6567  0.4145 -0.4818
  151MOL0     H20340   0.285   7.301   1.402  0.5035  1.5845 -2.2632
  151MOL0     H20341   0.322   7.009   1.276  1.4318  0.8779 -0.0126
  151MOL0     H20342   0.214   7.122   1.204 -0.5792  0.3655  1.0936
  151MOL0     H20343   0.161   7.046   1.486 -1.5703  3.4246  1.2240
  151MOL0     H20344   0.085   6.989   1.332  0.2413  0.6747 -2.2903
  151MOL0     H20345  -0.127   6.982   1.421 -1.1673 -1.2847  0.0813
  151MOL0     H20346  -0.421   6.885   1.239  0.1163 -2.1672  1.3061
  151MOL0     H20347  -0.330   6.849   1.390  0.8102 -0.8247 -0.7023
  151MOL0     H20348  -0.471   6.961   1.381 -0.4229  2.0785 -0.8323
  151MOL0     H20349  -0.684   6.888   1.168 -1.5775 -1.2169  1.8578
  151MOL0     H20350  -0.937   6.845   1.109 -0.1281  2.0688 -2.4149
  151MOL0     H20351  -1.202   7.168   1.005  0.9136  0.3534 -2.3891
  151MOL0     H20352  -1.120   7.047   0.902 -0.3103  1.4027 -0.2360
  151MOL0     H20353  -1.312   6.899   0.913  1.0978  0.3691 -1.1586
  151MOL0     H20354  -1.361   6.960   1.075  0.6013 -0.9451  0.0481
  151MOL0     H20355  -1.409   7.121   0.832  3.3042  1.3737  1.4189
  151MOL0     H20356  -1.429   7.178   0.988 -5.2486  0.9348 -0.7255
  151MOL0     H20357  -1.562   6.918   0.957 -0.2512  0.7519 -0.1989
  151MOL0     H20358  -1.622   7.049   1.044 -3.9084  0.3317 -2.0269
  151MOL0     H20359  -1.635   7.042   0.735 -0.4095  1.1680 -0.0615
  151MOL0     H20360  -1.709   7.168   0.834  0.4240  0.4315 -1.7339
  151MOL0     H20361  -1.764   6.883   0.780 -1.2751  1.2486 -3.6959
  151MOL0     H20362  -1.843   6.949   0.932  0.8422 -3.5523 -0.0906
  151MOL0     H20363  -1.905   7.009   0.633 -1.9248  1.1744 -0.7828
  151MOL0     H20364  -1.947   7.127   0.747 -0.5388 -0.4472 -2.3021
  151MOL0     H20365  -2.000   6.826   0.748  2.3622  0.6244  3.0903
  151MOL0     H20366  -2.119   6.952   0.682 -0.4648 -1.6646  0.3559
  151MOL0     H20367  -1.019   7.238   1.119 -1.5258 -1.3688 -1.1450
  151MOL0     H20368  -0.774   7.302   1.180  0.9662 -0.5423 -0.7576
  151MOL0     H20369  -0.283   7.340   1.128  1.8503  1.1497  0.5209
  151MOL0     H20370  -0.053   7.344   1.213  0.8199 -0.6736  0.4849
  151MOL0     H20371   1.849   7.744   1.525  1.2582 -0.0062  0.5502
  151MOL0     H20372   2.048   7.847   1.391 -1.4323  1.2811  2.0063
  151MOL0     H20373   2.344   7.873   1.103 -0.9012 -0.8580  1.6601
  151MOL0     H20374   2.528   7.966   0.998  1.2561  0.3632  0.0163
  151MOL0     H20375   2.942   7.804   1.020  2.4207  3.4092  0.2800
  151MOL0     H20376   2.850   7.780   0.867  1.8993  0.7123 -0.2196
  151MOL0     H20377   2.980   8.031   0.968 -0.0795  0.7861 -1.4387
  151MOL0     H20378   2.886   8.032   0.822 -0.1157  1.8648  1.4880
  151MOL0     H20379   3.036   7.932   0.694  1.1747 -2.2423 -0.9182
  151MOL0     H20380   3.133   7.853   0.826  1.0289  0.1122 -0.3176
  151MOL0     H20381   3.266   8.020   0.736  0.1998  1.8949 -0.6158
  151MOL0     H20382   3.214   8.081   0.897  3.6884  3.1945 -2.2343
  151MOL0     H20383   3.089   8.341   0.580  0.8433 -0.9458 -0.1894
  151MOL0     H20384   2.792   7.656   1.122  0.7710 -0.3896  0.4015
  151MOL0     H20385   2.615   7.545   1.240  0.6867 -0.8504 -1.7242
  152MOL0     O20386   1.069   5.291   0.603 -0.0184  0.3212  0.4087
  152MOL0     C20387   0.999   5.373   0.656 -0.1367 -0.5441  1.0449
  152MOL0     O20388   1.041   5.481   0.725  0.0349 -0.6844  0.3491
  152MOL0     C20389   1.157   5.546   0.689 -0.8382 -0.0947  0.1398
  152MOL0     C20390   1.184   5.593   0.557  0.7679 -0.2653  0.3975
  152MOL0     C20391   1.299   5.656   0.525  0.1722 -0.7553 -0.0788
  152MOL0     C20392   1.390   5.686   0.635  0.0811  0.2051  0.7522
  152MOL0     O20393   1.515   5.731   0.615 -0.1865 -0.6348 -1.0458
  152MOL0     C20394   1.578   5.769   0.489  1.0363  0.2682 -0.1142
  152MOL0     C20395   1.678   5.883   0.519 -0.1635 -0.3359  0.5273
  152MOL0     C20396   1.746   5.912   0.383  0.5193 -0.3146  0.1458
  152MOL0     C20397   1.836   6.030   0.380 -0.3836 -0.6160 -0.4651
  152MOL0     C20398   1.904   6.073   0.251 -0.1059  0.6618 -0.0961
  152MOL0     C20399   2.023   5.973   0.216  0.1061  0.4886 -0.1197
  152MOL0     C20400   2.099   6.012   0.088 -0.0510 -0.1253  0.1683
  152MOL0     C20401   2.155   5.887   0.022 -0.4985  0.4506  0.7636
  152MOL0     N20402   2.173   5.901  -0.124  0.0324 -0.1831 -0.2741
  152MOL0     C20403   2.291   5.880  -0.186 -0.3932 -0.2367 -0.5297
  152MOL0     C20404   2.258   5.887  -0.316  0.3764  0.1119 -0.4336
  152MOL0     C20405   2.344   5.872  -0.434 -0.3404  0.1021  0.9245
  152MOL0     C20406   2.494   5.845  -0.404 -0.1669 -0.4594  0.0407
  152MOL0     C20407   2.589   5.878  -0.510  0.8322 -0.6881  0.3334
  152MOL0     C20408   2.733   5.904  -0.462  0.3201  0.3198  0.9963
  152MOL0     O20409   2.746   6.023  -0.387  0.3316 -0.2905  0.2845
  152MOL0     C20410   2.877   6.058  -0.351  0.3173 -0.1989 -0.4056
  152MOL0     C20411   2.998   5.985  -0.388  0.2933 -0.1632 -0.6059
  152MOL0     C20412   3.126   6.041  -0.362 -0.4383 -0.2800  0.2604
  152MOL0     C20413   3.240   5.943  -0.393  0.9455 -0.0608  0.1258
  152MOL0     C20414   3.132   6.172  -0.294  0.0988  0.6531 -0.1919
  152MOL0     C20415   3.263   6.228  -0.254  0.4917  0.4131 -0.1654
  152MOL0     O20416   3.264   6.320  -0.148 -0.2965  0.4316  0.2397
  152MOL0     C20417   3.375   6.398  -0.110 -0.5704 -0.2673 -0.4855
  152MOL0     C20418   3.364   6.465   0.008  0.5480  0.0589 -0.1706
  152MOL0     C20419   3.463   6.549   0.053  0.5345  0.1269 -0.1499
  152MOL0     C20420   3.584   6.553  -0.015  0.9505  0.9110 -0.3677
  152MOL0     O20421   3.690   6.632   0.011  1.2072 -0.1516  0.0882
  152MOL0     C20422   3.662   6.749   0.094 -0.0713 -0.4559  0.7000
  152MOL0     C20423   3.682   6.718   0.242  0.0472  0.6794 -0.1544
  152MOL0     C20424   3.836   6.741   0.278 -0.5045  0.0785  0.9849
  152MOL0     C20425   3.936   6.645   0.239 -0.2531 -0.6171  1.0613
  152MOL0     C20426   4.087   6.698   0.231 -0.4754 -0.5391 -0.6977
  152MOL0     C20427   4.195   6.586   0.225 -0.2046 -0.7147  0.7854
  152MOL0     C20428   4.174   6.500   0.100  0.0962 -0.0873  1.4334
  152MOL0     C20429   4.287   6.399   0.094  0.6054  0.3261  0.1789
  152MOL0    Cl20430   4.279   6.294   0.241 -0.3732 -0.6170  0.0165
  152MOL0     C20431   3.601   6.478  -0.130 -0.0616  0.2656  0.6143
  152MOL0     C20432   3.490   6.409  -0.184 -0.3696 -0.5077 -0.6541
  152MOL0     O20433   3.352   6.199  -0.332 -0.8294 -0.3667 -0.3521
  152MOL0     C20434   3.016   6.237  -0.269 -0.4871 -0.4352  0.1697
  152MOL0     C20435   2.898   6.186  -0.293 -0.3640 -0.2224  0.3012
  152MOL0     N20436   2.125   5.931  -0.327  0.2922 -0.0116 -0.3573
  152MOL0     N20437   2.071   5.930  -0.211 -0.7898 -0.1700 -0.2598
  152MOL0     C20438   1.362   5.656   0.770  0.3572 -0.7588 -0.1626
  152MOL0     C20439   1.239   5.591   0.801 -0.4652  0.0836  0.5566
  152MOL0     C20440   0.856   5.342   0.674  0.3745  0.0332  0.2047
  152MOL0     C20441   0.757   5.438   0.709  0.5578 -0.1573  1.3022
  152MOL0     C20442   0.626   5.409   0.715 -0.8118  0.5209 -0.1841
  152MOL0     C20443   0.584   5.277   0.687  0.0677 -0.7604  0.1311
  152MOL0     O20444   0.466   5.228   0.714  0.8177  0.1353 -0.1222
  152MOL0     C20445   0.356   5.281   0.796 -0.5383 -0.7491 -0.0476
  152MOL0     C20446   0.227   5.198   0.752  0.0140  0.1350 -0.0282
  152MOL0     C20447   0.182   5.239   0.610 -0.1812  0.8566 -0.0428
  152MOL0     C20448   0.146   5.393   0.605 -0.0514  0.3737 -0.9341
  152MOL0     C20449   0.042   5.448   0.511 -0.3316  0.1697 -0.3227
  152MOL0     C20450  -0.035   5.511   0.444  0.7543 -0.0324 -0.0547
  152MOL0     C20451   0.684   5.184   0.657 -0.1705 -0.1033 -0.8853
  152MOL0     C20452   0.813   5.221   0.652  0.3911 -0.6474  0.7732
  152MOL0     H20453   1.106   5.585   0.483  0.2683  3.6654  0.2843
  152MOL0     H20454   1.315   5.690   0.423 -2.1571 -0.8597 -0.5379
  152MOL0     H20455   1.636   5.686   0.449 -0.5525 -2.2621  2.4784
  152MOL0     H20456   1.504   5.806   0.417  1.7442  1.9757 -0.0286
  152MOL0     H20457   1.619   5.967   0.556 -1.8025 -0.5986 -1.3252
  152MOL0     H20458   1.755   5.867   0.595  0.8592 -0.0958 -0.4343
  152MOL0     H20459   1.807   5.827   0.350  0.6205  0.1114 -0.7943
  152MOL0     H20460   1.669   5.921   0.307 -1.3847 -0.8852  1.9056
  152MOL0     H20461   1.779   6.117   0.414  2.7975  0.9707  1.2397
  152MOL0     H20462   1.913   6.017   0.457  2.2352  0.2267 -2.7808
  152MOL0     H20463   1.839   6.078   0.163  1.4715 -2.0295 -1.5438
  152MOL0     H20464   1.956   6.166   0.275  1.3862 -0.7593  2.6456
  152MOL0     H20465   2.088   5.985   0.303  0.4224  0.4995 -0.3571
  152MOL0     H20466   1.994   5.868   0.204 -0.6789  0.5526  1.0385
  152MOL0     H20467   2.027   6.064   0.024  3.2812  1.4156 -2.6128
  152MOL0     H20468   2.189   6.072   0.100 -0.2209  0.5982 -1.8694
  152MOL0     H20469   2.073   5.814   0.024  0.3004 -0.4386  1.6398
  152MOL0     H20470   2.248   5.866   0.075  1.1219  2.8397 -0.9573
  152MOL0     H20471   2.383   5.856  -0.133 -1.6960  0.4252  2.2027
  152MOL0     H20472   2.304   5.795  -0.501  0.1814  0.7131 -0.1042
  152MOL0     H20473   2.340   5.967  -0.487 -0.4272 -1.3900 -1.9279
  152MOL0     H20474   2.510   5.741  -0.375 -0.5333 -0.6674 -0.5049
  152MOL0     H20475   2.522   5.918  -0.327 -3.2456  1.3528 -0.3964
  152MOL0     H20476   2.552   5.969  -0.556  2.3609 -0.8820 -1.4093
  152MOL0     H20477   2.587   5.791  -0.576 -1.3332  0.6113 -1.4133
  152MOL0     H20478   2.790   5.899  -0.555 -1.3930 -0.6314 -0.0506
  152MOL0     H20479   2.770   5.828  -0.392  2.6365 -0.9581 -1.4209
  152MOL0     H20480   2.997   5.882  -0.423 -2.3375  0.2763 -2.0616
  152MOL0     H20481   3.314   5.995  -0.454 -0.8612  1.5430 -0.8248
  152MOL0     H20482   3.285   5.929  -0.294  0.4973 -0.5214  0.2685
  152MOL0     H20483   3.209   5.843  -0.423 -3.0346  1.1969 -0.5814
  152MOL0     H20484   3.270   6.471   0.062  0.1239 -1.0151 -0.7570
  152MOL0     H20485   3.433   6.605   0.142 -2.7522 -0.8252 -0.5211
  152MOL0     H20486   3.725   6.833   0.061  0.1364 -0.3791  1.2830
  152MOL0     H20487   3.561   6.787   0.077 -1.1601 -3.4762 -0.3447
  152MOL0     H20488   3.621   6.782   0.306  1.1557  1.1379  0.4676
  152MOL0     H20489   3.647   6.618   0.271 -0.3514  1.1316  1.0225
  152MOL0     H20490   3.850   6.753   0.386  0.8604 -0.9039  0.9409
  152MOL0     H20491   3.879   6.835   0.241  0.6595 -0.4056  1.0839
  152MOL0     H20492   3.931   6.546   0.286 -2.4973 -1.6528 -1.1613
  152MOL0     H20493   3.901   6.617   0.140  0.5225 -0.3644  0.7063
  152MOL0     H20494   4.113   6.754   0.321 -3.2991 -1.4441  0.8235
  152MOL0     H20495   4.096   6.758   0.141 -0.5598 -0.6638 -0.7903
  152MOL0     H20496   4.294   6.632   0.225 -0.3023 -0.2993 -2.0937
  152MOL0     H20497   4.186   6.528   0.317 -0.3128 -1.2805  0.4211
  152MOL0     H20498   4.175   6.567   0.013  2.2269  0.4906  1.8381
  152MOL0     H20499   4.076   6.452   0.094 -0.8667  1.9081 -3.6372
  152MOL0     H20500   4.382   6.451   0.108 -0.6101  2.3036  1.5151
  152MOL0     H20501   4.298   6.336   0.004  1.9711  1.7847 -0.7183
  152MOL0     H20502   3.694   6.469  -0.185  1.1180 -1.8144  2.7473
  152MOL0     H20503   3.510   6.357  -0.277 -1.7551 -1.1297 -0.6250
  152MOL0     H20504   3.035   6.336  -0.229  0.6362 -0.3412 -0.5578
  152MOL0     H20505   2.811   6.246  -0.268 -0.2759  0.7893 -1.6629
  152MOL0     H20506   1.433   5.683   0.847  1.5249 -1.0504 -1.0987
  152MOL0     H20507   1.217   5.560   0.903  0.6899 -1.6487  0.3298
  152MOL0     H20508   0.787   5.543   0.709 -2.5710  0.8595  0.0476
  152MOL0     H20509   0.552   5.480   0.750  1.2259  3.9852 -2.3311
  152MOL0     H20510   0.384   5.269   0.901  0.0537 -0.3986 -0.1582
  152MOL0     H20511   0.349   5.389   0.783 -1.0393 -0.7748 -0.0041
  152MOL0     H20512   0.151   5.214   0.830 -1.0376 -3.1307 -0.2437
  152MOL0     H20513   0.249   5.092   0.761 -1.0914  0.0327  2.1244
  152MOL0     H20514   0.085   5.196   0.579 -0.4264  0.4512  1.2303
  152MOL0     H20515   0.259   5.213   0.536  1.9267 -0.3957  2.4317
  152MOL0     H20516   0.232   5.447   0.565 -1.7606  1.4947 -3.3413
  152MOL0     H20517   0.127   5.425   0.708  3.1708  1.4991 -0.5853
  152MOL0     H20518  -0.102   5.562   0.378  0.9568  0.8436  0.4127
  152MOL0     H20519   0.667   5.077   0.647 -1.4869 -0.3177  2.2569
  152MOL0     H20520   0.877   5.140   0.617 -0.4097 -1.0924  0.3023
  153MOL0     O20521   8.540   8.092   9.636  0.5238 -0.4631 -0.5691
  153MOL0     C20522   8.562   8.118   9.517  0.1508  0.8436 -0.1095
  153MOL0     O20523   8.467   8.143   9.425  0.3449  0.3407  0.4965
  153MOL0     C20524   8.342   8.087   9.454  0.2912  0.6844 -0.3910
  153MOL0     C20525   8.320   7.948   9.438 -0.6165  0.6902 -0.3517
  153MOL0     C20526   8.204   7.869   9.470 -0.1227 -0.0979  0.7822
  153MOL0     C20527   8.096   7.947   9.507  0.9296 -0.3842 -0.0639
  153MOL0     O20528   7.972   7.883   9.538  0.8809  0.4008 -0.2393
  153MOL0     C20529   7.844   7.952   9.522  0.4803 -0.4731 -0.3373
  153MOL0     C20530   7.735   7.882   9.602  0.7384 -0.4061 -0.1703
  153MOL0     C20531   7.698   7.750   9.537 -0.8978 -1.3000 -0.6908
  153MOL0     C20532   7.612   7.666   9.632 -0.2465 -0.8967  0.8148
  153MOL0     C20533   7.612   7.524   9.580  0.3472 -0.3657 -0.7261
  153MOL0     C20534   7.528   7.444   9.687  0.1171 -0.5873 -0.2097
  153MOL0     C20535   7.483   7.305   9.662 -0.2152  1.1386 -0.5248
  153MOL0     C20536   7.558   7.239   9.547 -0.6303  0.2759  0.1040
  153MOL0     N20537   7.510   7.099   9.509 -0.4628 -0.2156 -0.2753
  153MOL0     C20538   7.517   6.977   9.581  0.3443  0.5691  0.0546
  153MOL0     C20539   7.438   6.901   9.501  0.5649  0.6087 -0.3160
  153MOL0     C20540   7.412   6.761   9.552 -0.2590  0.0266 -0.7570
  153MOL0     C20541   7.288   6.778   9.648 -0.9080  0.2709 -0.1873
  153MOL0     C20542   7.280   6.646   9.731 -0.0841 -0.1964  0.2380
  153MOL0     C20543   7.149   6.641   9.803 -0.4203 -0.4484 -0.7455
  153MOL0     O20544   7.119   6.769   9.856 -0.1047  0.2528  0.3852
  153MOL0     C20545   7.035   6.779   9.963  0.2889  0.5419  1.2638
  153MOL0     C20546   6.973   6.669  10.030  0.4090  0.1547 -0.2041
  153MOL0     C20547   6.889   6.689  10.138 -0.5179 -0.3100 -0.1899
  153MOL0     C20548   6.849   6.563  10.206  0.1295 -0.4470 -0.8281
  153MOL0     C20549   6.852   6.817  10.190 -1.2969 -0.0362  0.6113
  153MOL0     C20550   6.783   6.847  10.316 -0.4111 -0.0145 -1.0138
  153MOL0     O20551   6.733   6.974  10.329  0.2206 -0.5111  0.7051
  153MOL0     C20552   6.665   6.988  10.450  0.0924 -0.0700  0.3094
  153MOL0     C20553   6.736   7.048  10.548 -0.5393  0.6504 -0.0457
  153MOL0     C20554   6.683   7.074  10.677 -0.0795  0.6148 -0.2110
  153MOL0     C20555   6.554   7.026  10.701  0.1262 -0.1481  0.4520
  153MOL0     O20556   6.497   7.055  10.819  1.1752 -0.0220 -0.1698
  153MOL0     C20557   6.418   6.944  10.872  0.0333  0.3010  0.0007
  153MOL0     C20558   6.309   7.007  10.949 -1.1536 -0.6830  0.8353
  153MOL0     C20559   6.225   6.917  11.042  0.3293  0.4177 -0.3761
  153MOL0     C20560   6.123   6.834  10.970 -0.5448 -0.4514  0.6176
  153MOL0     C20561   6.026   6.764  11.062  0.6744 -0.0908 -0.2104
  153MOL0     C20562   5.936   6.857  11.147 -0.5467  0.0326  0.6198
  153MOL0     C20563   5.863   6.793  11.257  0.5182 -0.2328 -0.6077
  153MOL0     C20564   5.747   6.711  11.201 -0.0116 -0.4791 -0.4587
  153MOL0    Cl20565   5.639   6.791  11.087  0.2927  0.2776  0.1815
  153MOL0     C20566   6.477   6.982  10.590  0.9622 -0.1582 -0.5584
  153MOL0     C20567   6.530   6.951  10.471  0.6208  0.6066  0.4327
  153MOL0     O20568   6.766   6.755  10.395  0.6942 -0.0048  0.4387
  153MOL0     C20569   6.916   6.922  10.121 -0.1405 -0.0185 -0.4310
  153MOL0     C20570   6.996   6.906  10.008 -0.1940  0.0535  0.4023
  153MOL0     N20571   7.392   6.958   9.384 -0.3976  0.2617 -0.5624
  153MOL0     N20572   7.441   7.075   9.389 -0.4783 -0.1761 -0.3059
  153MOL0     C20573   8.112   8.084   9.524 -0.1050 -0.6814 -0.1187
  153MOL0     C20574   8.234   8.158   9.488  0.6973  1.0392 -0.7625
  153MOL0     C20575   8.698   8.122   9.455  0.1003  0.4467 -0.0327
  153MOL0     C20576   8.724   8.122   9.319  0.2539 -0.4096  0.1753
  153MOL0     C20577   8.859   8.146   9.272 -0.5892  0.0718  0.1901
  153MOL0     C20578   8.966   8.147   9.360  0.0812 -0.2244 -0.2561
  153MOL0     O20579   9.096   8.162   9.324  0.0059  0.4815  1.5879
  153MOL0     C20580   9.121   8.246   9.208 -0.1313 -0.3422  0.3385
  153MOL0     C20581   9.279   8.269   9.194 -0.4928 -0.2096  1.1929
  153MOL0     C20582   9.307   8.344   9.062 -0.1436 -0.3895  0.6653
  153MOL0     C20583   9.450   8.375   9.015  0.1604 -0.1746  0.0781
  153MOL0     C20584   9.435   8.447   8.884  0.4924  0.7915  0.0555
  153MOL0     C20585   9.445   8.505   8.775 -0.2795 -0.5211  0.0721
  153MOL0     C20586   8.941   8.141   9.497 -0.4577 -0.2437 -0.3634
  153MOL0     C20587   8.811   8.136   9.545  1.1043 -0.3845 -0.2112
  153MOL0     H20588   8.409   7.894   9.409 -0.4574  0.7205  0.0777
  153MOL0     H20589   8.205   7.760   9.463  1.5130 -0.0268 -1.1063
  153MOL0     H20590   7.860   8.053   9.561  4.4596 -1.0596 -0.0593
  153MOL0     H20591   7.827   7.967   9.415  1.8440  2.3378 -0.2461
  153MOL0     H20592   7.751   7.868   9.709  0.5082 -0.4005 -0.1369
  153MOL0     H20593   7.647   7.945   9.596  0.0113 -1.5111 -1.8807
  153MOL0     H20594   7.651   7.754   9.439  1.4405 -0.0989 -1.8407
  153MOL0     H20595   7.791   7.693   9.528  0.0232 -0.0358  0.2827
  153MOL0     H20596   7.654   7.669   9.733  1.9244  0.1944 -0.0487
  153MOL0     H20597   7.514   7.713   9.645  1.0151  2.5993 -0.9470
  153MOL0     H20598   7.569   7.521   9.479 -2.8954  1.7030  0.4211
  153MOL0     H20599   7.715   7.488   9.577  0.3336 -0.3895 -0.9929
  153MOL0     H20600   7.600   7.434   9.768  0.6429 -3.5646 -0.9549
  153MOL0     H20601   7.443   7.510   9.709  0.8890  0.0758  0.9175
  153MOL0     H20602   7.495   7.246   9.753 -2.5871 -0.3964 -1.1136
  153MOL0     H20603   7.377   7.300   9.637  0.2489  1.5345 -2.7743
  153MOL0     H20604   7.662   7.225   9.578 -0.3333  1.0586 -0.5164
  153MOL0     H20605   7.559   7.294   9.452 -0.8169 -0.8006 -0.5429
  153MOL0     H20606   7.539   6.956   9.685 -2.6956  0.3093  0.7291
  153MOL0     H20607   7.386   6.691   9.472 -1.3606 -0.7164  0.2105
  153MOL0     H20608   7.493   6.716   9.611 -1.3725  0.5693  1.2957
  153MOL0     H20609   7.196   6.799   9.594 -2.3603 -0.3573  1.8964
  153MOL0     H20610   7.307   6.858   9.720  1.5339 -1.1584  0.8840
  153MOL0     H20611   7.364   6.644   9.802 -2.3007 -0.8680  3.0370
  153MOL0     H20612   7.294   6.553   9.675 -0.0214  0.9553 -1.7380
  153MOL0     H20613   7.158   6.563   9.879  0.1726 -1.7344 -2.0784
  153MOL0     H20614   7.079   6.617   9.722 -1.9318  0.7718  0.1553
  153MOL0     H20615   6.998   6.567  10.006  2.4240  0.1059  1.7830
  153MOL0     H20616   6.915   6.551  10.293  0.3331  0.4995 -0.8416
  153MOL0     H20617   6.742   6.562  10.227 -0.3617 -3.8395 -2.7816
  153MOL0     H20618   6.863   6.473  10.145 -3.1681 -1.9121  0.3839
  153MOL0     H20619   6.834   7.090  10.525  0.9163 -1.8139  1.2509
  153MOL0     H20620   6.746   7.115  10.756 -1.3074 -0.3508  1.3310
  153MOL0     H20621   6.376   6.878  10.796  3.4505 -1.3180 -0.6667
  153MOL0     H20622   6.483   6.888  10.940 -1.6132 -2.0082 -0.1943
  153MOL0     H20623   6.365   7.070  11.019 -2.5085  0.8234  0.6133
  153MOL0     H20624   6.247   7.072  10.887 -2.3790 -2.3997  0.1926
  153MOL0     H20625   6.179   6.988  11.112  0.5148 -0.2121  0.3910
  153MOL0     H20626   6.288   6.854  11.106 -1.1992 -1.4465 -0.6107
  153MOL0     H20627   6.069   6.899  10.901 -1.0448 -2.1789 -0.7142
  153MOL0     H20628   6.170   6.764  10.900 -0.5049 -0.1976  0.3889
  153MOL0     H20629   6.088   6.696  11.121  0.3805  1.6185  2.2474
  153MOL0     H20630   5.954   6.704  11.006  1.0302 -0.2622 -0.4859
  153MOL0     H20631   6.006   6.927  11.193  0.9317 -1.1657  0.2798
  153MOL0     H20632   5.866   6.905  11.078 -1.1082 -0.0112  1.1490
  153MOL0     H20633   5.817   6.873  11.316  2.5006  3.3652 -3.5211
  153MOL0     H20634   5.916   6.722  11.321 -2.0814 -1.1677  0.6561
  153MOL0     H20635   5.683   6.675  11.283 -0.1144  3.2738  1.2976
  153MOL0     H20636   5.785   6.623  11.148  2.1188  0.2579 -0.2426
  153MOL0     H20637   6.375   6.949  10.606  1.6032 -1.2624  1.6975
  153MOL0     H20638   6.470   6.925  10.384  0.1569 -0.5122  1.0786
  153MOL0     H20639   6.909   7.027  10.149  2.4543  0.0498  0.2004
  153MOL0     H20640   7.045   6.992   9.964  1.8946 -0.8548  0.8497
  153MOL0     H20641   8.032   8.139   9.572 -0.8488  1.0279 -3.0925
  153MOL0     H20642   8.251   8.261   9.521 -0.6531  1.1608 -0.4117
  153MOL0     H20643   8.636   8.112   9.255 -1.2597  0.6131  1.9918
  153MOL0     H20644   8.891   8.169   9.171  0.3304  0.4748  0.5678
  153MOL0     H20645   9.084   8.194   9.118  0.0606 -1.4263  0.8630
  153MOL0     H20646   9.072   8.343   9.218 -0.1968 -0.0450 -2.1969
  153MOL0     H20647   9.329   8.171   9.195 -2.2757 -1.1698  1.9235
  153MOL0     H20648   9.313   8.328   9.279 -2.1954 -0.8400  2.3599
  153MOL0     H20649   9.251   8.438   9.067  0.6867  0.0934  1.0057
  153MOL0     H20650   9.251   8.281   8.992 -1.5229 -0.2473  1.6009
  153MOL0     H20651   9.492   8.277   8.993  2.1352  0.4916  0.6821
  153MOL0     H20652   9.506   8.426   9.094 -0.7378 -0.7933  1.1309
  153MOL0     H20653   9.462   8.569   8.691 -0.1949  2.0440  1.9256
  153MOL0     H20654   9.023   8.164   9.564 -0.5926  4.9950 -1.5084
  153MOL0     H20655   8.794   8.138   9.652 -0.6941 -2.5357 -0.3597
  154MOL0     O20656   7.605   2.723  10.080  0.4209  0.0653 -0.5609
  154MOL0     C20657   7.610   2.840  10.048 -0.7439 -0.1406 -0.8904
  154MOL0     O20658   7.512   2.933  10.057  0.3175  0.3177 -0.1693
  154MOL0     C20659   7.388   2.892  10.113 -0.2635 -0.5210  0.4138
  154MOL0     C20660   7.328   2.773  10.088  0.6147 -0.1850 -0.1538
  154MOL0     C20661   7.187   2.758  10.119  0.4924 -0.4311 -0.2073
  154MOL0     C20662   7.121   2.861  10.186 -1.2266  1.1288 -0.0874
  154MOL0     O20663   6.988   2.839  10.214  0.3980  0.8429  0.3966
  154MOL0     C20664   6.917   2.910  10.318 -0.3483  0.4899  0.3296
  154MOL0     C20665   6.959   2.870  10.461  0.3133 -0.0812 -0.0134
  154MOL0     C20666   6.921   2.971  10.564 -0.4418  0.1594 -0.2375
  154MOL0     C20667   6.765   2.998  10.579 -0.0029 -0.3578  0.6654
  154MOL0     C20668   6.748   3.129  10.659 -0.6273  0.1189  0.5912
  154MOL0     C20669   6.613   3.196  10.647  0.1517  0.5843  1.1110
  154MOL0     C20670   6.596   3.298  10.761 -0.3719  0.2679 -0.1775
  154MOL0     C20671   6.465   3.362  10.757  0.2189 -1.1715 -0.1545
  154MOL0     N20672   6.360   3.267  10.805  0.1609  0.0868 -0.3032
  154MOL0     C20673   6.332   3.231  10.940 -0.4715 -0.7223  0.5948
  154MOL0     C20674   6.242   3.132  10.915  0.2028  0.5289 -0.6192
  154MOL0     C20675   6.181   3.044  11.029  0.5677 -0.7992  0.0739
  154MOL0     C20676   6.033   3.022  11.009  0.1920  0.3554 -0.3279
  154MOL0     C20677   5.990   2.954  11.136 -0.0876  0.5015 -0.8243
  154MOL0     C20678   5.851   2.894  11.136  0.0048 -0.0053  0.2581
  154MOL0     O20679   5.773   3.014  11.106 -0.2478 -0.4935  0.4703
  154MOL0     C20680   5.644   3.006  11.070 -0.8403 -1.0401  0.2265
  154MOL0     C20681   5.571   2.886  11.074  0.9251  0.0312 -0.4965
  154MOL0     C20682   5.428   2.881  11.060  0.3884  0.1502  0.0586
  154MOL0     C20683   5.367   2.747  11.098  0.2226 -1.0304  0.9436
  154MOL0     C20684   5.354   3.003  11.030 -0.7884  0.6039  0.3599
  154MOL0     C20685   5.212   3.009  11.002  0.1961  0.9421 -0.2938
  154MOL0     O20686   5.160   3.135  10.981 -0.0022  0.8720  0.6129
  154MOL0     C20687   5.027   3.166  10.961 -0.0015 -0.9643  0.1208
  154MOL0     C20688   4.979   3.296  10.994 -0.2550 -1.0569 -0.4495
  154MOL0     C20689   4.851   3.340  10.963  0.9056  0.2032  0.6859
  154MOL0     C20690   4.753   3.256  10.909 -0.1193 -0.8208  0.3526
  154MOL0     O20691   4.629   3.315  10.880 -0.5349 -0.1479  0.6239
  154MOL0     C20692   4.563   3.261  10.777 -0.2672  0.6000 -0.1196
  154MOL0     C20693   4.420   3.314  10.781  0.5173 -0.5176  0.1274
  154MOL0     C20694   4.335   3.233  10.688 -0.4926  0.6038 -0.4353
  154MOL0     C20695   4.247   3.343  10.622 -0.4963  1.1696  0.5084
  154MOL0     C20696   4.142   3.295  10.521  0.2415  0.3294  0.0486
  154MOL0     C20697   4.034   3.224  10.591  0.4092 -0.5598 -0.3097
  154MOL0     C20698   3.918   3.300  10.649  0.5623 -0.1105  0.5083
  154MOL0     C20699   3.807   3.207  10.711 -0.2355  0.4529 -0.0667
  154MOL0    Cl20700   3.852   3.150  10.876  0.1646  0.2492 -0.2588
  154MOL0     C20701   4.791   3.121  10.897  0.0992 -0.7898 -0.9192
  154MOL0     C20702   4.929   3.080  10.910  0.6108  0.1935 -0.6870
  154MOL0     O20703   5.153   2.903  10.997 -0.1410  0.2809 -0.8798
  154MOL0     C20704   5.435   3.118  11.018  0.3872  0.5871  0.2262
  154MOL0     C20705   5.574   3.120  11.035 -0.3810 -0.9382  0.7109
  154MOL0     N20706   6.216   3.107  10.783  0.3472 -0.0250 -0.0856
  154MOL0     N20707   6.289   3.188  10.719  0.0824 -0.3818  0.6920
  154MOL0     C20708   7.193   2.970  10.230  0.2511 -0.0685 -0.4588
  154MOL0     C20709   7.319   2.990  10.189  0.0546 -1.4525 -0.5462
  154MOL0     C20710   7.740   2.878   9.993 -0.5805 -0.5530 -0.2966
  154MOL0     C20711   7.849   2.795   9.997  0.0613  0.6772  0.2024
  154MOL0     C20712   7.981   2.843   9.959 -0.3252 -0.6192  0.1994
  154MOL0     C20713   8.016   2.976   9.917  0.3209 -0.4105 -0.7176
  154MOL0     O20714   8.139   3.027   9.897 -0.2854 -0.0122 -0.0104
  154MOL0     C20715   8.257   2.949   9.921  0.2631 -0.1231  0.5336
  154MOL0     C20716   8.289   2.834   9.813 -0.4299 -0.0062 -1.3327
  154MOL0     C20717   8.437   2.809   9.808 -0.0137 -0.1405 -0.2137
  154MOL0     C20718   8.474   2.702   9.713  0.3891 -0.2787  0.4297
  154MOL0     C20719   8.622   2.688   9.706 -0.1410 -0.9483 -0.1200
  154MOL0     C20720   8.740   2.657   9.719 -0.4505 -0.2483 -0.1675
  154MOL0     C20721   7.906   3.060   9.927  0.5449  1.1225  0.8816
  154MOL0     C20722   7.773   3.014   9.954 -0.5499 -0.6641 -0.8815
  154MOL0     H20723   7.380   2.697  10.032 -2.2446 -0.7321 -2.3010
  154MOL0     H20724   7.129   2.674  10.082  3.1008 -1.3320 -2.6310
  154MOL0     H20725   6.925   3.019  10.308  1.9874  0.3447  0.0919
  154MOL0     H20726   6.812   2.882  10.303  0.5359 -3.1404  0.0769
  154MOL0     H20727   6.912   2.775  10.487  2.6300 -1.0222  0.9507
  154MOL0     H20728   7.068   2.859  10.458  0.2738 -0.2782 -1.0523
  154MOL0     H20729   6.958   2.931  10.659  1.3388  2.5391  0.1736
  154MOL0     H20730   6.969   3.069  10.555 -0.1556  0.4096  2.9343
  154MOL0     H20731   6.711   2.999  10.484  0.0166 -0.1201  0.6552
  154MOL0     H20732   6.718   2.921  10.640  1.8381 -1.0871  1.2288
  154MOL0     H20733   6.778   3.115  10.764 -1.2091 -0.2428  0.7186
  154MOL0     H20734   6.820   3.197  10.613  3.5066 -1.8739  3.4106
  154MOL0     H20735   6.610   3.254  10.554  1.4669 -0.4379  0.3936
  154MOL0     H20736   6.531   3.124  10.647  0.5164  0.1429 -0.2141
  154MOL0     H20737   6.598   3.244  10.857 -1.8682 -0.2806 -0.4261
  154MOL0     H20738   6.680   3.368  10.763 -0.1400  0.0115  1.7031
  154MOL0     H20739   6.448   3.393  10.654 -2.0422  0.0997  0.5313
  154MOL0     H20740   6.460   3.452  10.819 -0.2395 -0.6801 -0.8883
  154MOL0     H20741   6.381   3.281  11.024  1.7903  0.2748 -1.2012
  154MOL0     H20742   6.243   2.954  11.039  1.0408 -0.6189 -1.0814
  154MOL0     H20743   6.192   3.106  11.118  1.4425 -0.6549 -0.1211
  154MOL0     H20744   6.016   2.962  10.918  1.4835 -0.0156 -0.3527
  154MOL0     H20745   5.974   3.114  11.009  2.6242  2.0423 -1.5409
  154MOL0     H20746   5.985   3.031  11.213 -0.8836  1.1249 -1.4847
  154MOL0     H20747   6.060   2.873  11.160  0.6722  0.9100 -1.6106
  154MOL0     H20748   5.826   2.856  11.235  1.3132  1.0766  1.0460
  154MOL0     H20749   5.840   2.815  11.062 -0.0965 -1.1783  1.4812
  154MOL0     H20750   5.617   2.791  11.099  1.7575  0.0191 -1.9468
  154MOL0     H20751   5.277   2.746  11.160 -1.0632 -1.6414 -0.8355
  154MOL0     H20752   5.343   2.700  11.002  2.6431 -1.8743  0.6799
  154MOL0     H20753   5.443   2.689  11.152 -1.0973 -0.5942  3.4284
  154MOL0     H20754   5.051   3.369  11.030 -2.2929  1.3214 -0.8691
  154MOL0     H20755   4.815   3.436  10.998 -5.1509 -1.1502 -0.6778
  154MOL0     H20756   4.625   3.269  10.687  0.2511  0.1172  0.1867
  154MOL0     H20757   4.549   3.154  10.792 -0.8133  0.7685  0.6238
  154MOL0     H20758   4.385   3.295  10.883  1.1518  1.1220  0.6930
  154MOL0     H20759   4.415   3.422  10.766 -1.3245 -0.7634 -1.4879
  154MOL0     H20760   4.278   3.165  10.752  1.4000  1.2607  2.1060
  154MOL0     H20761   4.394   3.182  10.611 -0.4771  0.0282 -0.0452
  154MOL0     H20762   4.191   3.387  10.705 -2.8541  1.1848 -1.0186
  154MOL0     H20763   4.319   3.414  10.579 -2.3937  1.8541 -1.7561
  154MOL0     H20764   4.182   3.217  10.456 -0.5174 -1.1364  1.2603
  154MOL0     H20765   4.105   3.384  10.470 -0.3298  0.6845  1.0481
  154MOL0     H20766   3.988   3.163  10.512  1.3012 -2.0783  0.3027
  154MOL0     H20767   4.077   3.148  10.657  2.0523  1.4611  1.0523
  154MOL0     H20768   3.863   3.352  10.570  0.0955  3.1293  2.7702
  154MOL0     H20769   3.962   3.371  10.719  2.4726 -1.2160  0.4838
  154MOL0     H20770   3.779   3.123  10.646 -3.8504 -0.1240  1.9489
  154MOL0     H20771   3.717   3.267  10.726 -2.2713 -1.7363 -2.5211
  154MOL0     H20772   4.712   3.051  10.870 -3.5322  0.8736  3.9026
  154MOL0     H20773   4.966   2.980  10.892 -0.3920 -0.1035 -1.1634
  154MOL0     H20774   5.395   3.215  10.992  1.1831  1.7794  3.0286
  154MOL0     H20775   5.628   3.214  11.025  2.1677 -2.3934 -0.2953
  154MOL0     H20776   7.144   3.036  10.301  0.0671  2.1500 -2.4902
  154MOL0     H20777   7.359   3.088  10.215 -1.2043 -0.5462 -1.9009
  154MOL0     H20778   7.845   2.697  10.044 -0.3524  1.0531  0.9652
  154MOL0     H20779   8.064   2.774   9.973 -0.1789 -0.2897  1.0714
  154MOL0     H20780   8.345   3.012   9.936  1.6287 -1.9537  0.5546
  154MOL0     H20781   8.247   2.904  10.021 -1.0948 -1.6505 -0.2326
  154MOL0     H20782   8.252   2.874   9.718  0.6729  1.9365 -1.0121
  154MOL0     H20783   8.238   2.741   9.838  0.1600  0.1763  0.7214
  154MOL0     H20784   8.489   2.789   9.902  2.7439 -1.1969 -1.8406
  154MOL0     H20785   8.477   2.898   9.758  0.8105 -1.0583 -1.2521
  154MOL0     H20786   8.432   2.716   9.613  4.1955  0.2161 -1.2891
  154MOL0     H20787   8.436   2.608   9.753  0.7212 -0.5119  0.2060
  154MOL0     H20788   8.842   2.628   9.735 -0.6975 -0.8980  0.2600
  154MOL0     H20789   7.921   3.166   9.908 -3.2538  2.0240  2.0573
  154MOL0     H20790   7.687   3.078   9.939 -0.9406 -1.3474 -1.7067
  155MOL0     O20791   4.478   7.876   5.535 -0.4186  0.2218 -0.0686
  155MOL0     C20792   4.504   7.900   5.650 -0.0493 -0.3813 -0.3494
  155MOL0     O20793   4.452   8.010   5.715 -0.0260 -0.2275  0.2609
  155MOL0     C20794   4.351   8.081   5.668  0.0518  0.2631  0.7225
  155MOL0     C20795   4.243   8.026   5.598  0.2462 -0.2713 -0.6029
  155MOL0     C20796   4.150   8.111   5.547 -0.2344  1.2919  0.4425
  155MOL0     C20797   4.149   8.251   5.568 -0.2849  0.9761  0.3403
  155MOL0     O20798   4.041   8.320   5.530 -0.1171  0.2893 -0.0946
  155MOL0     C20799   4.059   8.465   5.505 -0.7022 -0.5447 -0.3074
  155MOL0     C20800   3.915   8.521   5.470  0.5172  0.0810 -0.0202
  155MOL0     C20801   3.920   8.657   5.400 -0.5530  1.0818 -0.4965
  155MOL0     C20802   3.833   8.652   5.273 -0.3407  0.1530 -0.3317
  155MOL0     C20803   3.800   8.792   5.218 -0.4466 -0.3109 -0.3276
  155MOL0     C20804   3.752   8.900   5.313 -0.6514  0.7770 -0.6352
  155MOL0     C20805   3.704   9.016   5.228 -0.5447  0.3048  0.0872
  155MOL0     C20806   3.655   9.136   5.306 -0.3149 -0.0459  0.3060
  155MOL0     N20807   3.555   9.084   5.397  0.1564  0.4605  0.7628
  155MOL0     C20808   3.454   8.993   5.372  0.2023  0.2428 -0.3947
  155MOL0     C20809   3.414   8.951   5.491  0.0321  0.1850 -0.1343
  155MOL0     C20810   3.296   8.858   5.514 -0.4185  0.2437  0.3482
  155MOL0     C20811   3.189   8.916   5.601 -0.5717  0.3489  0.2129
  155MOL0     C20812   3.046   8.850   5.587  0.3415 -0.7436  0.0060
  155MOL0     C20813   2.930   8.951   5.603  0.0203 -0.1879 -0.4736
  155MOL0     O20814   2.808   8.893   5.632 -0.0100 -0.2321  0.3883
  155MOL0     C20815   2.707   8.985   5.626  0.6809  0.5282  0.3466
  155MOL0     C20816   2.671   9.056   5.741  0.6881 -0.2591  0.5149
  155MOL0     C20817   2.554   9.138   5.739 -0.5325  0.1520  0.7569
  155MOL0     C20818   2.523   9.227   5.854 -0.1912  0.2952 -0.0317
  155MOL0     C20819   2.473   9.134   5.619 -0.0628  0.6169  0.2260
  155MOL0     C20820   2.336   9.183   5.630 -0.1340 -0.9661  0.3000
  155MOL0     O20821   2.279   9.221   5.507 -0.5725 -0.1952  0.0666
  155MOL0     C20822   2.144   9.228   5.504  0.1166 -0.0450  0.5481
  155MOL0     C20823   2.091   9.321   5.420  0.1365  0.9309 -0.2732
  155MOL0     C20824   1.954   9.310   5.390  0.3171  0.5831  0.7339
  155MOL0     C20825   1.860   9.217   5.444  0.0444 -1.4696 -0.3726
  155MOL0     O20826   1.728   9.200   5.409 -0.1732 -0.1586  0.7087
  155MOL0     C20827   1.694   9.258   5.277  0.5317  0.0671 -0.1527
  155MOL0     C20828   1.547   9.222   5.244  0.2412 -0.5610  0.6584
  155MOL0     C20829   1.519   9.072   5.194 -0.0917  0.0660  0.2045
  155MOL0     C20830   1.598   9.033   5.072  0.2877  0.5691 -0.5283
  155MOL0     C20831   1.674   8.905   5.109 -0.0272  0.5481 -0.3962
  155MOL0     C20832   1.802   8.913   5.193  0.6352  0.2835 -0.1965
  155MOL0     C20833   1.827   8.778   5.262 -0.7073 -0.6001  0.4028
  155MOL0     C20834   1.865   8.675   5.151 -0.4092  0.2364  0.3108
  155MOL0    Cl20835   1.908   8.512   5.233  0.3262 -0.4898 -0.3317
  155MOL0     C20836   1.915   9.122   5.532 -0.5462  0.0127 -0.8924
  155MOL0     C20837   2.052   9.132   5.559 -0.3391  0.0578 -0.2480
  155MOL0     O20838   2.276   9.183   5.740  0.3744 -0.6786 -0.0007
  155MOL0     C20839   2.509   9.061   5.506 -0.7439  0.8488  0.3118
  155MOL0     C20840   2.625   8.987   5.508  0.4845  0.4867  0.2304
  155MOL0     N20841   3.483   9.010   5.589 -1.2514  0.4203  0.7355
  155MOL0     N20842   3.569   9.091   5.535 -0.0711 -0.6352 -0.5382
  155MOL0     C20843   4.260   8.303   5.634  0.4410 -0.8951 -0.2396
  155MOL0     C20844   4.354   8.217   5.687 -0.5552 -0.3148 -0.0162
  155MOL0     C20845   4.588   7.798   5.716  0.6155  0.6880  0.4392
  155MOL0     C20846   4.580   7.667   5.674  0.3220 -0.1834 -0.5303
  155MOL0     C20847   4.656   7.572   5.738  0.6932 -0.5883 -0.9943
  155MOL0     C20848   4.734   7.605   5.850 -0.1409  0.1573  0.4665
  155MOL0     O20849   4.796   7.491   5.894 -0.3457 -0.4861  0.6115
  155MOL0     C20850   4.886   7.492   6.009  0.6362 -0.9348 -0.4127
  155MOL0     C20851   4.803   7.492   6.141  0.1936  1.4732 -0.8718
  155MOL0     C20852   4.884   7.493   6.275  0.0697  0.1428 -0.2579
  155MOL0     C20853   4.790   7.494   6.403  0.0177 -0.0290  0.1381
  155MOL0     C20854   4.869   7.487   6.522 -0.1000 -0.1367 -0.7235
  155MOL0     C20855   4.942   7.489   6.621 -0.2645  0.0816 -1.0036
  155MOL0     C20856   4.749   7.738   5.882 -0.2417  0.1539 -0.0350
  155MOL0     C20857   4.684   7.836   5.810 -0.1561  1.0667  0.2398
  155MOL0     H20858   4.214   7.921   5.595  0.6720 -0.5127  1.7914
  155MOL0     H20859   4.063   8.076   5.491 -0.3433 -0.3093  1.5340
  155MOL0     H20860   4.101   8.522   5.589  2.6444  0.0632 -2.2233
  155MOL0     H20861   4.140   8.479   5.433 -0.5461  2.4492  0.3087
  155MOL0     H20862   3.866   8.447   5.406  2.8617 -0.4453 -1.3399
  155MOL0     H20863   3.861   8.542   5.563 -1.9589  0.7228 -1.4925
  155MOL0     H20864   3.894   8.733   5.474  1.2982  0.3983  0.9299
  155MOL0     H20865   4.020   8.679   5.361 -0.8568 -1.7964 -3.2322
  155MOL0     H20866   3.888   8.594   5.199 -0.1464 -0.9403  0.6291
  155MOL0     H20867   3.735   8.609   5.298 -1.7133  3.7401  1.1637
  155MOL0     H20868   3.891   8.825   5.168  0.6826 -0.3480  1.5875
  155MOL0     H20869   3.726   8.782   5.138  1.6013 -1.1571 -2.2250
  155MOL0     H20870   3.676   8.857   5.379  2.7900  2.6530  5.3106
  155MOL0     H20871   3.833   8.933   5.378  0.2403 -0.2694 -1.1727
  155MOL0     H20872   3.797   9.038   5.176  1.8351  1.3320  4.3065
  155MOL0     H20873   3.623   8.985   5.161 -0.5931  3.2823 -1.3876
  155MOL0     H20874   3.613   9.212   5.239 -0.6854  0.6378  1.2962
  155MOL0     H20875   3.738   9.180   5.361 -0.8864  2.1533 -0.4899
  155MOL0     H20876   3.397   8.973   5.282  0.7791 -3.3323 -0.1157
  155MOL0     H20877   3.245   8.839   5.419  1.5605 -0.9619 -0.5278
  155MOL0     H20878   3.335   8.765   5.556  2.0286  1.6009  1.2336
  155MOL0     H20879   3.181   9.020   5.570 -1.4188  1.0578  2.6087
  155MOL0     H20880   3.234   8.917   5.701  0.8151  2.4491 -0.3820
  155MOL0     H20881   3.036   8.772   5.663  0.8234  0.0356  0.8913
  155MOL0     H20882   3.046   8.805   5.487 -1.9483  0.0667 -0.4081
  155MOL0     H20883   2.913   9.022   5.521 -2.7803  4.0215  3.2347
  155MOL0     H20884   2.963   9.012   5.688 -0.4404  0.6907 -0.9105
  155MOL0     H20885   2.741   9.051   5.824  2.7381 -1.5115 -1.1565
  155MOL0     H20886   2.618   9.247   5.903  0.7053 -2.5943 -0.4183
  155MOL0     H20887   2.483   9.326   5.829 -3.2942 -1.1115 -1.2387
  155MOL0     H20888   2.452   9.181   5.924 -1.0060  0.0351 -0.9970
  155MOL0     H20889   2.150   9.401   5.377 -1.8374  0.7747 -3.6247
  155MOL0     H20890   1.917   9.365   5.304  0.5877  3.2735  2.2243
  155MOL0     H20891   1.701   9.367   5.272 -2.6554  0.3734  0.2246
  155MOL0     H20892   1.756   9.220   5.195 -0.0639 -0.2182 -0.4773
  155MOL0     H20893   1.483   9.271   5.318  0.9119  2.2246 -0.4950
  155MOL0     H20894   1.531   9.292   5.162 -3.4768 -1.5795  0.3168
  155MOL0     H20895   1.417   9.038   5.173  0.7847 -3.7578  1.4480
  155MOL0     H20896   1.551   9.010   5.278 -1.1454  0.3402  0.8339
  155MOL0     H20897   1.531   8.997   4.993 -2.4368  0.0460  1.8583
  155MOL0     H20898   1.672   9.102   5.030  0.2224  0.3173 -1.0657
  155MOL0     H20899   1.699   8.844   5.021  4.3333 -0.6229  1.4025
  155MOL0     H20900   1.610   8.835   5.162  0.4446 -1.2095 -2.0277
  155MOL0     H20901   1.879   8.959   5.131  0.3291  0.9503 -0.0956
  155MOL0     H20902   1.787   8.973   5.283 -2.9092  1.2424 -1.2584
  155MOL0     H20903   1.737   8.757   5.321 -0.6465  0.6092  0.9584
  155MOL0     H20904   1.916   8.776   5.326  0.6964  0.9328 -1.4070
  155MOL0     H20905   1.951   8.708   5.091 -0.5433  0.2851  0.1457
  155MOL0     H20906   1.785   8.655   5.078  0.1935  1.9067 -0.8839
  155MOL0     H20907   1.859   9.042   5.579 -0.2556  0.3598  0.0710
  155MOL0     H20908   2.093   9.066   5.635 -0.5977 -2.1985 -1.9750
  155MOL0     H20909   2.435   9.051   5.427 -0.5045 -1.2729  0.3005
  155MOL0     H20910   2.649   8.943   5.411 -0.4577  1.0219 -0.2545
  155MOL0     H20911   4.265   8.407   5.665  2.8420  0.3367 -4.0483
  155MOL0     H20912   4.439   8.261   5.738  0.7775 -4.8743  2.2048
  155MOL0     H20913   4.519   7.642   5.588 -0.8740 -3.0335  0.9924
  155MOL0     H20914   4.660   7.469   5.702  1.7920 -0.4298 -1.3348
  155MOL0     H20915   4.945   7.402   5.988 -1.9263 -2.2091 -2.7215
  155MOL0     H20916   4.955   7.577   6.007  0.5736 -0.8608  0.2425
  155MOL0     H20917   4.741   7.402   6.141  0.5247  1.2448 -1.5354
  155MOL0     H20918   4.735   7.578   6.144 -1.6796  0.0198  1.1734
  155MOL0     H20919   4.966   7.565   6.282  0.2687 -0.1296  0.2898
  155MOL0     H20920   4.943   7.400   6.280 -0.9007 -0.4468  0.6644
  155MOL0     H20921   4.724   7.407   6.399  2.0588 -1.8061  2.1420
  155MOL0     H20922   4.731   7.586   6.411 -2.5602 -1.7515  3.2165
  155MOL0     H20923   5.020   7.480   6.694  0.6159 -0.5699 -1.9886
  155MOL0     H20924   4.821   7.766   5.957  0.4311 -0.2772 -0.5112
  155MOL0     H20925   4.689   7.943   5.831  2.4196  1.0365  0.1853
  156MOL0     O20926   7.507   7.067   4.002 -0.0406 -0.3164  0.3234
  156MOL0     C20927   7.421   7.005   4.070 -1.0082 -0.1563  0.9670
  156MOL0     O20928   7.453   6.937   4.186  0.9393 -0.1294  0.0289
  156MOL0     C20929   7.564   6.974   4.255 -0.0188  0.0377 -1.0361
  156MOL0     C20930   7.667   6.882   4.290 -0.3051 -0.0605 -0.1773
  156MOL0     C20931   7.766   6.922   4.380  0.9934 -0.0639 -0.7648
  156MOL0     C20932   7.770   7.055   4.434 -0.5167  1.0659  0.8495
  156MOL0     O20933   7.866   7.093   4.517  0.3661 -0.0180  0.1575
  156MOL0     C20934   8.002   7.051   4.501  0.1636  0.1297 -0.3622
  156MOL0     C20935   8.092   7.145   4.570 -0.3554  0.1890 -0.4126
  156MOL0     C20936   8.215   7.084   4.626 -0.4388  0.0708  0.0842
  156MOL0     C20937   8.309   7.205   4.651 -0.5019 -0.3592 -0.3384
  156MOL0     C20938   8.437   7.171   4.731  0.2391 -0.4893 -0.0636
  156MOL0     C20939   8.407   7.135   4.877 -0.6213 -0.5626 -0.8109
  156MOL0     C20940   8.378   7.248   4.965 -0.5816  0.0645  0.2805
  156MOL0     C20941   8.490   7.334   5.018  0.7967  0.2876  0.1970
  156MOL0     N20942   8.564   7.266   5.125  0.5270 -0.1355  0.7126
  156MOL0     C20943   8.661   7.173   5.110  0.1224  0.2291 -0.3852
  156MOL0     C20944   8.682   7.130   5.229 -0.9324 -1.0025 -0.8756
  156MOL0     C20945   8.793   7.036   5.266 -0.4896 -0.8766 -0.1232
  156MOL0     C20946   8.757   6.891   5.239 -0.3466  0.3032  0.6207
  156MOL0     C20947   8.872   6.800   5.287 -0.9344 -0.6754  0.1055
  156MOL0     C20948   8.840   6.651   5.260 -0.3662 -0.4895 -0.7691
  156MOL0     O20949   8.822   6.643   5.111 -0.2345  0.1630 -0.8397
  156MOL0     C20950   8.802   6.518   5.070 -0.2981 -0.7556  0.4642
  156MOL0     C20951   8.681   6.460   5.108 -0.4623 -0.6486 -0.4811
  156MOL0     C20952   8.637   6.338   5.059 -0.3164  0.5626 -0.5220
  156MOL0     C20953   8.501   6.283   5.110 -0.1055 -0.4329  0.1794
  156MOL0     C20954   8.718   6.261   4.970  1.0184  0.5377 -1.1993
  156MOL0     C20955   8.672   6.127   4.915  0.3355  0.4072  0.3535
  156MOL0     O20956   8.711   6.108   4.785 -0.0778  0.3253 -0.0716
  156MOL0     C20957   8.708   5.977   4.739 -0.0908 -1.0863  0.4755
  156MOL0     C20958   8.823   5.921   4.689  0.1730 -0.1119  0.5721
  156MOL0     C20959   8.817   5.800   4.622 -0.3754 -0.2012 -0.5417
  156MOL0     C20960   8.707   5.721   4.628 -0.1412 -0.9443 -0.1648
  156MOL0     O20961   8.711   5.592   4.586  0.6976  0.0571  0.0551
  156MOL0     C20962   8.791   5.537   4.485  0.1745 -0.6662  0.3893
  156MOL0     C20963   8.717   5.418   4.449  0.2441  0.2096 -0.6032
  156MOL0     C20964   8.597   5.454   4.360 -0.3491 -0.6363  0.4477
  156MOL0     C20965   8.498   5.337   4.365  0.2321  0.1038  0.2572
  156MOL0     C20966   8.377   5.354   4.271 -0.1577  0.6528 -0.0781
  156MOL0     C20967   8.285   5.472   4.307  0.5471 -1.1464  0.7704
  156MOL0     C20968   8.131   5.460   4.261  0.6517  0.7353 -0.0937
  156MOL0     C20969   8.114   5.495   4.115  0.4872  0.0423  0.7720
  156MOL0    Cl20970   7.950   5.476   4.053  0.9680  0.1603 -0.3433
  156MOL0     C20971   8.591   5.772   4.681  0.0910  0.1045  0.6339
  156MOL0     C20972   8.592   5.896   4.745  0.5400  0.5481 -0.8089
  156MOL0     O20973   8.613   6.046   4.998 -1.0048 -0.4905 -0.2253
  156MOL0     C20974   8.830   6.329   4.926  0.0058 -0.2284  1.1828
  156MOL0     C20975   8.879   6.452   4.971  0.4799 -0.1867 -0.3615
  156MOL0     N20976   8.598   7.194   5.317 -0.2317  0.7744  1.4279
  156MOL0     N20977   8.519   7.268   5.256  0.5925 -0.4607 -0.5802
  156MOL0     C20978   7.664   7.149   4.408 -0.4058  0.0813 -0.2791
  156MOL0     C20979   7.568   7.100   4.314  0.4285 -0.1552 -0.3876
  156MOL0     C20980   7.284   6.975   4.009  0.1483 -1.5336  0.3980
  156MOL0     C20981   7.232   7.039   3.890  0.1040  0.2638 -0.8322
  156MOL0     C20982   7.125   6.984   3.821  0.5827  0.2277  0.9206
  156MOL0     C20983   7.054   6.869   3.871  0.5359 -0.0570 -0.8327
  156MOL0     O20984   6.952   6.812   3.803 -0.5752  0.5929 -0.8535
  156MOL0     C20985   6.875   6.696   3.851 -0.3282 -0.5063 -0.8255
  156MOL0     C20986   6.742   6.705   3.778 -0.3034 -0.1123  0.6850
  156MOL0     C20987   6.643   6.819   3.818 -0.4715 -0.8440 -0.1696
  156MOL0     C20988   6.516   6.830   3.737 -0.1302 -0.5296 -0.1098
  156MOL0     C20989   6.416   6.728   3.775  0.1959  0.1533  0.3622
  156MOL0     C20990   6.335   6.661   3.833  0.5126  0.5380 -0.1077
  156MOL0     C20991   7.100   6.815   3.992  0.6365  0.3644 -0.2508
  156MOL0     C20992   7.213   6.870   4.059  0.2263 -0.3406  0.2500
  156MOL0     H20993   7.676   6.787   4.238 -1.8992  0.0757 -0.7916
  156MOL0     H20994   7.844   6.850   4.401  0.2817 -1.0522 -1.4115
  156MOL0     H20995   8.018   6.946   4.529  0.7501  0.6203  1.2316
  156MOL0     H20996   8.015   7.066   4.393 -3.0895 -2.6476 -1.3243
  156MOL0     H20997   8.112   7.235   4.512 -0.7412  0.4136 -0.2036
  156MOL0     H20998   8.026   7.183   4.649  1.0297 -0.6860  1.2410
  156MOL0     H20999   8.198   7.024   4.716 -0.7669 -1.9569 -1.2708
  156MOL0     H21000   8.262   7.019   4.552 -2.2476 -0.0770 -0.9818
  156MOL0     H21001   8.342   7.250   4.557 -0.5554 -1.1763 -0.7591
  156MOL0     H21002   8.256   7.286   4.703  0.0226  0.5414 -1.1665
  156MOL0     H21003   8.488   7.089   4.681 -0.7639 -0.1957 -1.6560
  156MOL0     H21004   8.507   7.254   4.718  3.4578 -3.0561 -0.2657
  156MOL0     H21005   8.320   7.069   4.881 -1.3035  0.1642 -2.8020
  156MOL0     H21006   8.495   7.081   4.913  0.5333  2.0774  0.6356
  156MOL0     H21007   8.315   7.319   4.909 -0.4013 -0.4312 -0.5673
  156MOL0     H21008   8.324   7.218   5.055  0.9722 -0.0704  1.1943
  156MOL0     H21009   8.448   7.425   5.062  2.5373  0.5310  1.4518
  156MOL0     H21010   8.557   7.343   4.932  2.3262 -2.3187  1.0114
  156MOL0     H21011   8.690   7.135   5.012  1.9700 -1.0251  0.5694
  156MOL0     H21012   8.876   7.075   5.206  0.0077 -0.2171  0.9611
  156MOL0     H21013   8.820   7.047   5.371  0.1278 -3.7037  0.0853
  156MOL0     H21014   8.749   6.885   5.130 -0.1845 -0.6694  0.6483
  156MOL0     H21015   8.660   6.870   5.287 -0.1912 -0.5680  0.5824
  156MOL0     H21016   8.880   6.815   5.395 -1.3808  1.3774 -0.1003
  156MOL0     H21017   8.965   6.823   5.233  0.7228 -2.7314  1.8877
  156MOL0     H21018   8.754   6.625   5.323 -0.2426  0.0361 -0.3722
  156MOL0     H21019   8.931   6.597   5.284 -1.2881 -2.3806 -1.3600
  156MOL0     H21020   8.623   6.522   5.175 -0.0398  1.6752 -2.1412
  156MOL0     H21021   8.436   6.264   5.024  1.3172 -2.8187 -0.4414
  156MOL0     H21022   8.524   6.200   5.177  4.3882 -0.2208 -0.7908
  156MOL0     H21023   8.454   6.356   5.177 -2.0658 -1.6057  0.1782
  156MOL0     H21024   8.909   5.985   4.707 -2.0127  3.3756 -0.4515
  156MOL0     H21025   8.913   5.768   4.582 -0.9265 -0.4371 -1.7025
  156MOL0     H21026   8.811   5.607   4.404  0.1387 -0.5750  0.4595
  156MOL0     H21027   8.886   5.498   4.523 -0.2243 -0.7416  1.3367
  156MOL0     H21028   8.784   5.348   4.397 -1.6820 -0.8860 -1.7268
  156MOL0     H21029   8.673   5.369   4.537  1.1023 -0.0460 -0.3085
  156MOL0     H21030   8.620   5.483   4.257 -2.5090  0.6185  0.2522
  156MOL0     H21031   8.537   5.532   4.409  0.3574 -0.5163  1.1274
  156MOL0     H21032   8.560   5.253   4.332 -0.0743  0.2523 -0.7356
  156MOL0     H21033   8.460   5.331   4.467  1.8134 -1.4550  0.8006
  156MOL0     H21034   8.320   5.260   4.270 -0.2530  0.6864  1.1248
  156MOL0     H21035   8.393   5.371   4.164 -2.3057  0.9498 -0.3960
  156MOL0     H21036   8.290   5.493   4.415 -3.3558  3.1814  0.4334
  156MOL0     H21037   8.330   5.561   4.262 -0.3747 -0.8644  0.3808
  156MOL0     H21038   8.076   5.530   4.324  0.2760  0.0117  0.3890
  156MOL0     H21039   8.096   5.358   4.282 -1.3829  1.8334  2.2713
  156MOL0     H21040   8.172   5.444   4.038 -0.7469  0.9752 -0.8513
  156MOL0     H21041   8.139   5.601   4.100  1.9104 -0.5748 -1.7542
  156MOL0     H21042   8.504   5.707   4.676  2.3625 -3.0649 -2.9498
  156MOL0     H21043   8.510   5.934   4.804  0.6220 -0.3707 -0.0827
  156MOL0     H21044   8.889   6.279   4.850 -1.3800  1.7468 -1.3660
  156MOL0     H21045   8.974   6.475   4.924  0.9722 -2.6039 -0.6849
  156MOL0     H21046   7.653   7.247   4.453 -1.9798 -0.1530 -0.0767
  156MOL0     H21047   7.491   7.171   4.287  0.7459  0.6832  0.8440
  156MOL0     H21048   7.281   7.132   3.865  2.2011 -0.2863  0.9415
  156MOL0     H21049   7.094   7.023   3.724 -1.4030 -2.4084  0.4078
  156MOL0     H21050   6.931   6.607   3.819 -0.2623  0.5580 -3.9815
  156MOL0     H21051   6.863   6.700   3.960  2.0543  2.1112 -0.5596
  156MOL0     H21052   6.706   6.602   3.782 -0.2298 -0.1010  2.8918
  156MOL0     H21053   6.766   6.715   3.672  1.1843 -4.4190  0.4168
  156MOL0     H21054   6.697   6.913   3.803  2.6789 -2.4824 -0.1088
  156MOL0     H21055   6.619   6.813   3.925 -1.2761  0.3591 -0.2651
  156MOL0     H21056   6.544   6.848   3.633  2.1209 -2.8077 -0.0107
  156MOL0     H21057   6.462   6.919   3.770 -1.3558 -1.0999 -0.5298
  156MOL0     H21058   6.261   6.604   3.886  1.1500  1.0361  1.3555
  156MOL0     H21059   7.061   6.731   4.048  1.3963  2.3954  3.6316
  156MOL0     H21060   7.259   6.812   4.139  2.4619  2.7423  1.4262
  157MOL0     O21061   4.913   6.234   5.069 -0.6087 -0.1211  0.1841
  157MOL0     C21062   4.948   6.245   4.949  1.1113 -0.3629 -0.2222
  157MOL0     O21063   4.943   6.145   4.854  0.5495 -0.4527 -0.0031
  157MOL0     C21064   4.916   6.018   4.892  0.2709 -0.2495 -0.7240
  157MOL0     C21065   5.020   5.937   4.945 -0.3428  0.0404 -0.3537
  157MOL0     C21066   5.001   5.797   4.957 -0.7125  0.7094  0.1296
  157MOL0     C21067   4.874   5.744   4.940  0.7808 -0.2573 -0.4904
  157MOL0     O21068   4.872   5.610   4.947  0.0275  0.2664 -0.0811
  157MOL0     C21069   4.743   5.546   4.913 -0.2846  0.0628 -0.0789
  157MOL0     C21070   4.752   5.389   4.934  0.3701  0.2731  0.5621
  157MOL0     C21071   4.818   5.354   5.065  0.0359 -0.2480  0.6163
  157MOL0     C21072   4.745   5.418   5.181 -0.5754 -0.5774 -0.3659
  157MOL0     C21073   4.809   5.381   5.321  0.5101 -0.7942  0.8237
  157MOL0     C21074   4.802   5.238   5.352  0.4991  0.0141  0.5470
  157MOL0     C21075   4.833   5.210   5.494 -0.3589 -0.7252  0.0357
  157MOL0     C21076   4.705   5.215   5.593  0.0315 -0.1445 -0.8309
  157MOL0     N21077   4.737   5.179   5.732 -0.8709  0.2822 -0.6778
  157MOL0     C21078   4.794   5.271   5.825 -0.0954 -0.9260  0.5394
  157MOL0     C21079   4.814   5.202   5.934  0.4791  0.2797 -0.1501
  157MOL0     C21080   4.845   5.247   6.069  0.4903  0.2255  0.3966
  157MOL0     C21081   4.725   5.299   6.148  0.2951  0.5545  0.4930
  157MOL0     C21082   4.673   5.431   6.093 -0.6190 -0.0073  1.0662
  157MOL0     C21083   4.525   5.445   6.127  0.6906 -0.0062 -0.0726
  157MOL0     O21084   4.436   5.358   6.046  0.1507 -0.5862  0.2011
  157MOL0     C21085   4.433   5.391   5.908 -0.6472  0.3687 -0.5374
  157MOL0     C21086   4.488   5.505   5.846  0.4080 -0.3603  0.0295
  157MOL0     C21087   4.495   5.523   5.706  0.0971 -0.2026  0.3232
  157MOL0     C21088   4.550   5.661   5.656 -0.1172  0.3452  0.2154
  157MOL0     C21089   4.430   5.419   5.627 -0.4230  0.2039  0.2152
  157MOL0     C21090   4.413   5.430   5.479 -0.7870  0.4030 -0.3471
  157MOL0     O21091   4.451   5.544   5.421  0.2083 -0.3092 -0.1113
  157MOL0     C21092   4.424   5.589   5.292 -0.3450 -0.3878 -0.6363
  157MOL0     C21093   4.352   5.522   5.193 -0.1842  0.2102 -0.6410
  157MOL0     C21094   4.335   5.575   5.069 -0.4358 -0.7715 -0.8561
  157MOL0     C21095   4.402   5.690   5.027  0.2286  0.2302  0.1328
  157MOL0     O21096   4.386   5.743   4.901 -0.1789  0.2064 -0.1597
  157MOL0     C21097   4.342   5.659   4.792  0.0852  0.2715  0.4240
  157MOL0     C21098   4.376   5.736   4.660 -0.3535 -0.5216  0.3320
  157MOL0     C21099   4.526   5.740   4.643 -0.6876 -0.2005  0.0583
  157MOL0     C21100   4.571   5.756   4.498 -0.7432  0.5425 -0.5510
  157MOL0     C21101   4.517   5.883   4.447  0.1735 -0.5591  0.6858
  157MOL0     C21102   4.595   5.930   4.327  0.2847 -0.0984 -0.1901
  157MOL0     C21103   4.533   6.051   4.247  0.8349  0.5994 -0.2327
  157MOL0     C21104   4.485   6.173   4.335 -0.0806 -0.3113 -0.1015
  157MOL0    Cl21105   4.392   6.286   4.240  0.7587  0.1569 -0.0191
  157MOL0     C21106   4.480   5.755   5.124 -0.2123  0.7792 -0.2483
  157MOL0     C21107   4.488   5.713   5.256  0.0435  0.3325  0.8247
  157MOL0     O21108   4.372   5.332   5.415  0.0754 -0.8552  0.0573
  157MOL0     C21109   4.382   5.303   5.685  0.9024  0.4403 -0.7376
  157MOL0     C21110   4.379   5.294   5.825 -0.0565 -0.0415 -1.0450
  157MOL0     N21111   4.788   5.070   5.905  0.2690  0.4704 -0.2968
  157MOL0     N21112   4.747   5.055   5.785 -0.6919 -1.4216  0.3961
  157MOL0     C21113   4.766   5.823   4.900  0.3489 -0.0668  0.1350
  157MOL0     C21114   4.788   5.959   4.867 -0.2683 -1.2209 -0.6386
  157MOL0     C21115   4.960   6.383   4.900  0.4392  0.3105 -0.1998
  157MOL0     C21116   4.900   6.493   4.965 -0.6139 -0.3468 -0.2047
  157MOL0     C21117   4.926   6.623   4.920  0.9661 -0.3086  0.8690
  157MOL0     C21118   5.006   6.641   4.808 -0.7902  0.1253 -0.1107
  157MOL0     O21119   5.037   6.768   4.750 -0.1671  0.6362 -0.0061
  157MOL0     C21120   5.007   6.886   4.831  0.8711  0.4596  0.7286
  157MOL0     C21121   5.089   7.002   4.783  0.2095  0.2619  0.7680
  157MOL0     C21122   5.035   7.047   4.643  1.3321  0.7524 -0.5648
  157MOL0     C21123   4.886   7.083   4.624 -1.0458 -0.1649 -0.5658
  157MOL0     C21124   4.837   7.176   4.728 -0.7605 -0.2151  0.2197
  157MOL0     C21125   4.790   7.244   4.822 -0.5424 -0.3305  0.7113
  157MOL0     C21126   5.062   6.531   4.742  0.1917 -0.2882 -0.6805
  157MOL0     C21127   5.032   6.404   4.785  0.1546  0.1642 -0.6419
  157MOL0     H21128   5.120   5.978   4.959 -0.3525 -0.8668  4.1141
  157MOL0     H21129   5.092   5.740   4.971 -0.6386  0.9360  0.6050
  157MOL0     H21130   4.651   5.578   4.963  1.4318  0.3843  3.1345
  157MOL0     H21131   4.726   5.564   4.806  0.1393  0.6725 -0.0501
  157MOL0     H21132   4.651   5.352   4.912  0.3516 -0.9974  2.5334
  157MOL0     H21133   4.816   5.352   4.854  0.4500  0.1409  0.6860
  157MOL0     H21134   4.813   5.246   5.084 -4.5251  0.3869  4.8917
  157MOL0     H21135   4.923   5.385   5.069  0.2185 -1.0007  3.3281
  157MOL0     H21136   4.743   5.527   5.186  0.1835 -0.6277  1.6836
  157MOL0     H21137   4.639   5.394   5.180 -0.8125  0.4226 -0.2290
  157MOL0     H21138   4.910   5.423   5.323  0.1675  0.0596  0.5846
  157MOL0     H21139   4.748   5.433   5.395 -0.4451  1.0847 -1.1404
  157MOL0     H21140   4.704   5.195   5.331 -0.3559  1.9780  0.2740
  157MOL0     H21141   4.874   5.186   5.288 -0.2094  2.2031 -2.1978
  157MOL0     H21142   4.895   5.121   5.509  1.2262  0.2596 -0.4151
  157MOL0     H21143   4.907   5.288   5.511 -0.3195 -0.9845  1.2036
  157MOL0     H21144   4.630   5.150   5.548 -0.8766  1.5697 -1.8885
  157MOL0     H21145   4.674   5.319   5.594  1.0781  0.1800  1.0316
  157MOL0     H21146   4.781   5.378   5.814 -1.0615 -0.6355  3.4659
  157MOL0     H21147   4.878   5.163   6.131 -1.0655 -0.9070 -0.2300
  157MOL0     H21148   4.919   5.327   6.072 -1.2015  1.9878 -1.6379
  157MOL0     H21149   4.771   5.312   6.247  2.8033 -0.7693 -0.4043
  157MOL0     H21150   4.644   5.226   6.161 -0.0915  0.8180 -0.4239
  157MOL0     H21151   4.684   5.434   5.985 -3.2063 -4.1857  0.4699
  157MOL0     H21152   4.726   5.518   6.133 -1.4500  1.2502 -0.4539
  157MOL0     H21153   4.482   5.545   6.119 -0.6164 -0.5284  0.0970
  157MOL0     H21154   4.521   5.420   6.233  0.0397 -1.7434 -0.4625
  157MOL0     H21155   4.517   5.593   5.903  1.6251 -1.0693  0.5211
  157MOL0     H21156   4.460   5.712   5.619  0.0350 -1.1753 -2.5117
  157MOL0     H21157   4.598   5.710   5.741  0.1285 -2.0842  1.5641
  157MOL0     H21158   4.618   5.646   5.572 -0.4795 -0.9165  0.1247
  157MOL0     H21159   4.304   5.427   5.209  1.8332 -0.9010 -0.8388
  157MOL0     H21160   4.272   5.519   5.001 -2.3598 -1.2666  1.2380
  157MOL0     H21161   4.395   5.563   4.791 -2.1533 -1.0389 -1.2141
  157MOL0     H21162   4.237   5.637   4.813 -0.1177 -0.3104 -1.0849
  157MOL0     H21163   4.330   5.681   4.578 -1.9405 -0.9764  1.4844
  157MOL0     H21164   4.324   5.833   4.661  3.4762  1.7495  1.4317
  157MOL0     H21165   4.581   5.661   4.694 -0.4167 -1.3022 -1.8570
  157MOL0     H21166   4.549   5.832   4.698 -0.7531 -0.8079  1.1184
  157MOL0     H21167   4.679   5.766   4.483 -0.9630  3.9861 -0.6324
  157MOL0     H21168   4.542   5.669   4.439  2.5013 -0.7274 -0.4966
  157MOL0     H21169   4.504   5.961   4.523 -1.1823 -0.9700  0.9105
  157MOL0     H21170   4.413   5.874   4.414 -0.0324 -0.0819  1.1783
  157MOL0     H21171   4.693   5.963   4.362 -1.1989  1.2087  3.1248
  157MOL0     H21172   4.610   5.842   4.263 -1.4730  0.9753 -2.2218
  157MOL0     H21173   4.446   6.005   4.199 -2.3570  2.4213  3.2733
  157MOL0     H21174   4.604   6.070   4.166  2.0308 -0.9348  0.3955
  157MOL0     H21175   4.573   6.227   4.372  0.3053 -0.4373 -0.8055
  157MOL0     H21176   4.431   6.142   4.424 -0.6358  0.4651 -0.1646
  157MOL0     H21177   4.528   5.851   5.106 -0.8865  0.7847 -2.2964
  157MOL0     H21178   4.547   5.774   5.323 -2.2550  2.5412  0.9964
  157MOL0     H21179   4.350   5.221   5.622 -1.1093  2.1478 -2.1090
  157MOL0     H21180   4.320   5.209   5.858  0.2492  0.4448  0.9217
  157MOL0     H21181   4.660   5.798   4.902  0.0565  0.9157  3.5826
  157MOL0     H21182   4.699   6.011   4.833 -0.3366 -0.7886  0.1928
  157MOL0     H21183   4.837   6.467   5.050  0.2063 -0.6575  0.3177
  157MOL0     H21184   4.863   6.698   4.967  0.9839 -0.4519  1.1248
  157MOL0     H21185   4.899   6.900   4.824 -0.0601 -2.7827  4.7470
  157MOL0     H21186   5.022   6.867   4.938  1.6369 -2.0578  0.2296
  157MOL0     H21187   5.192   6.969   4.769 -0.7938 -2.2127 -1.6237
  157MOL0     H21188   5.082   7.087   4.852 -1.7503 -0.2128  1.2406
  157MOL0     H21189   5.051   6.967   4.571 -0.3938 -1.6557  1.5427
  157MOL0     H21190   5.099   7.127   4.604 -0.7812  2.4712 -0.6699
  157MOL0     H21191   4.827   6.991   4.626 -0.5673 -0.4645  0.8430
  157MOL0     H21192   4.870   7.133   4.528 -2.2806  0.3987 -0.0807
  157MOL0     H21193   4.731   7.300   4.892  1.8176 -0.2903  2.8035
  157MOL0     H21194   5.122   6.537   4.653 -0.4812 -2.9480 -1.4166
  157MOL0     H21195   5.072   6.326   4.722  0.1764 -0.0940 -0.3138
  158MOL0     O21196  10.618   9.310   8.290 -0.2906  0.4532 -0.3282
  158MOL0     C21197  10.734   9.340   8.312  0.4253 -0.2488  0.5304
  158MOL0     O21198  10.775   9.471   8.329 -0.0640 -0.4534  0.4281
  158MOL0     C21199  10.665   9.560   8.339 -0.1339  0.0478 -0.1010
  158MOL0     C21200  10.610   9.597   8.455 -0.7955 -0.9677 -0.3063
  158MOL0     C21201  10.500   9.684   8.455  0.3208  0.0101 -0.4649
  158MOL0     C21202  10.438   9.729   8.335 -0.4362 -0.3322 -0.2877
  158MOL0     O21203  10.324   9.812   8.327 -0.1991  0.8613 -0.0185
  158MOL0     C21204  10.230   9.818   8.438  0.3827  0.6164 -0.1261
  158MOL0     C21205  10.242   9.957   8.519 -0.5690 -0.5126  0.7264
  158MOL0     C21206  10.178   9.961   8.650 -0.2911 -0.0276  0.6201
  158MOL0     C21207  10.034  10.017   8.636 -0.3442 -0.6698 -0.8969
  158MOL0     C21208   9.982  10.039   8.779 -0.3216  1.3344 -1.0451
  158MOL0     C21209   9.839  10.095   8.775 -0.6030  0.2402  0.4320
  158MOL0     C21210   9.804  10.171   8.912 -1.3565  0.3264  0.5998
  158MOL0     C21211   9.647  10.188   8.926  0.8092 -0.0860 -0.5553
  158MOL0     N21212   9.602  10.320   8.991 -0.7541  0.6001 -0.2555
  158MOL0     C21213   9.468  10.343   9.026  0.0456 -0.8051  0.5354
  158MOL0     C21214   9.469  10.439   9.116 -0.0674  0.3209 -0.2122
  158MOL0     C21215   9.348  10.461   9.214  0.7444 -0.5517 -0.0473
  158MOL0     C21216   9.233  10.529   9.139  0.2524  0.5834  0.1094
  158MOL0     C21217   9.120  10.569   9.227  0.6961 -0.3860  0.7707
  158MOL0     C21218   9.021  10.450   9.250 -0.1831 -0.5313 -0.0154
  158MOL0     O21219   8.923  10.479   9.359 -0.0609 -0.1607 -0.1640
  158MOL0     C21220   8.819  10.558   9.319  0.4351 -0.2748 -0.3165
  158MOL0     C21221   8.814  10.690   9.375  0.6934  0.0481  0.2040
  158MOL0     C21222   8.722  10.781   9.325  0.3991 -0.2396  0.7293
  158MOL0     C21223   8.730  10.919   9.379 -0.7853  0.6048 -0.2036
  158MOL0     C21224   8.620  10.741   9.236  0.4875  0.0342 -0.0044
  158MOL0     C21225   8.540  10.834   9.161 -0.5076 -0.4463 -0.3554
  158MOL0     O21226   8.403  10.801   9.173  0.8248 -0.6847  1.2609
  158MOL0     C21227   8.322  10.882   9.104  0.6762 -0.2945 -0.0364
  158MOL0     C21228   8.238  10.833   9.006  0.1174 -0.1781  0.8045
  158MOL0     C21229   8.164  10.920   8.926 -0.1434 -0.0408  0.1344
  158MOL0     C21230   8.149  11.062   8.967 -0.0572  0.3649  0.1927
  158MOL0     O21231   8.082  11.151   8.894  0.7049 -0.6980 -0.7255
  158MOL0     C21232   8.019  11.121   8.772 -0.3948  0.1883  0.2566
  158MOL0     C21233   7.925  11.242   8.743  0.7689  0.3718 -0.0839
  158MOL0     C21234   7.826  11.193   8.642  0.3201 -0.1076  0.7714
  158MOL0     C21235   7.707  11.294   8.629 -0.6973 -0.3020 -1.6298
  158MOL0     C21236   7.658  11.315   8.485  0.1089  0.0388  0.3014
  158MOL0     C21237   7.527  11.402   8.468 -0.3753  0.6120 -0.2936
  158MOL0     C21238   7.516  11.541   8.535 -0.4587  0.5289 -0.7660
  158MOL0     C21239   7.379  11.597   8.539  0.3867 -1.0379  0.8121
  158MOL0    Cl21240   7.292  11.568   8.387 -0.2661  0.1416  0.0058
  158MOL0     C21241   8.224  11.109   9.082  0.1182 -0.9262 -0.3610
  158MOL0     C21242   8.313  11.019   9.141  0.1430 -0.6995  0.6695
  158MOL0     O21243   8.595  10.914   9.090  0.3298 -0.0756 -0.1212
  158MOL0     C21244   8.619  10.606   9.194 -0.8758  0.1876 -0.3427
  158MOL0     C21245   8.714  10.517   9.239  2.0460  0.6217 -0.8464
  158MOL0     N21246   9.599  10.473   9.129  0.1212 -0.5489 -0.0054
  158MOL0     N21247   9.681  10.408   9.057  0.6391  0.1051  0.6671
  158MOL0     C21248  10.500   9.696   8.211 -1.2812  0.3276 -0.6521
  158MOL0     C21249  10.613   9.609   8.217 -0.5544  0.6385  0.6185
  158MOL0     C21250  10.831   9.220   8.318  1.0898  0.5624  0.7614
  158MOL0     C21251  10.969   9.232   8.310  0.3357  0.7004 -0.9344
  158MOL0     C21252  11.047   9.116   8.335  0.0923  0.5666  0.3539
  158MOL0     C21253  10.992   8.983   8.350 -0.2913 -0.2618  0.0736
  158MOL0     O21254  11.065   8.866   8.382 -0.3232 -0.1703  0.6783
  158MOL0     C21255  11.182   8.887   8.459  0.2153  0.4911 -0.0294
  158MOL0     C21256  11.259   8.754   8.467 -0.6351 -0.5748  0.9919
  158MOL0     C21257  11.385   8.769   8.563 -0.2670  1.0037 -0.2619
  158MOL0     C21258  11.467   8.645   8.573 -0.5453  0.5687  0.7542
  158MOL0     C21259  11.385   8.538   8.624  0.0494  0.0448  0.2888
  158MOL0     C21260  11.310   8.443   8.657  1.7752  0.1521  0.0094
  158MOL0     C21261  10.859   8.980   8.340  0.8029  0.1021 -0.3217
  158MOL0     C21262  10.768   9.088   8.329  0.1106  0.4468 -0.0774
  158MOL0     H21263  10.656   9.568   8.548  1.7731  0.1257 -1.1335
  158MOL0     H21264  10.455   9.720   8.547 -0.8031 -0.4255 -0.8195
  158MOL0     H21265  10.128   9.805   8.401  1.3903  0.8166 -3.3261
  158MOL0     H21266  10.251   9.734   8.505  0.6496 -0.4312 -1.4627
  158MOL0     H21267  10.348   9.966   8.546 -0.7003  1.7699  0.6647
  158MOL0     H21268  10.219  10.045   8.458 -0.3231  1.1692  2.9317
  158MOL0     H21269  10.184   9.863   8.699 -0.3719 -0.8352 -0.9344
  158MOL0     H21270  10.233  10.022   8.723  0.6280 -1.9041  1.5726
  158MOL0     H21271  10.041  10.113   8.584  0.2697 -0.2364 -0.0442
  158MOL0     H21272   9.963   9.950   8.587 -0.9413  0.6848 -1.9406
  158MOL0     H21273   9.982   9.950   8.843 -3.2602  3.5176  2.3579
  158MOL0     H21274  10.044  10.121   8.816  1.0768  1.7190 -3.9236
  158MOL0     H21275   9.831  10.174   8.699 -1.4852 -1.3004 -1.1738
  158MOL0     H21276   9.771  10.014   8.748 -0.0912 -0.1238  0.2263
  158MOL0     H21277   9.830  10.107   8.997 -1.8034 -1.1866 -0.3533
  158MOL0     H21278   9.856  10.265   8.930  2.4931 -2.1401  4.0761
  158MOL0     H21279   9.603  10.098   8.972 -0.2865  1.9457  2.6952
  158MOL0     H21280   9.599  10.188   8.827  2.9504 -0.8272 -1.6492
  158MOL0     H21281   9.376  10.288   9.015 -1.5623  1.7709  0.1655
  158MOL0     H21282   9.307  10.363   9.239 -1.7809  0.4907  0.1373
  158MOL0     H21283   9.370  10.515   9.307 -2.2425 -0.6376  0.8021
  158MOL0     H21284   9.194  10.467   9.059  1.5143 -0.6658  0.4206
  158MOL0     H21285   9.285  10.610   9.088  1.6288  0.4369  1.2033
  158MOL0     H21286   9.058  10.643   9.175 -1.1729  0.3638  3.8156
  158MOL0     H21287   9.152  10.610   9.323 -1.0892  3.8962 -0.2043
  158MOL0     H21288   9.081  10.366   9.287 -0.4998 -0.3608  0.9012
  158MOL0     H21289   8.967  10.411   9.163 -0.9833 -1.7987  1.0040
  158MOL0     H21290   8.896  10.727   9.436 -0.4038  3.3422 -0.1046
  158MOL0     H21291   8.692  10.924   9.481  1.0735  0.7102  0.5251
  158MOL0     H21292   8.834  10.954   9.378  0.5155 -2.7556  1.0544
  158MOL0     H21293   8.657  10.976   9.320 -3.0475 -1.4015  0.5159
  158MOL0     H21294   8.242  10.727   8.987  0.8967  0.1219 -0.9416
  158MOL0     H21295   8.103  10.883   8.844  2.7348 -1.1538 -1.6689
  158MOL0     H21296   8.085  11.109   8.686 -0.4900  0.6983  0.1076
  158MOL0     H21297   7.952  11.035   8.781 -0.2363 -0.7040 -4.4602
  158MOL0     H21298   7.868  11.270   8.832  1.1751  0.3024  0.2016
  158MOL0     H21299   7.969  11.334   8.703 -0.5980 -0.0222 -2.7109
  158MOL0     H21300   7.781  11.095   8.655 -2.1547  0.6858 -0.9935
  158MOL0     H21301   7.892  11.187   8.555  0.0391 -1.8094  0.6562
  158MOL0     H21302   7.617  11.269   8.686 -0.3261 -0.2146 -0.9961
  158MOL0     H21303   7.743  11.396   8.648  0.0698 -0.3512 -2.7170
  158MOL0     H21304   7.636  11.215   8.448 -0.3835  1.1066 -2.5430
  158MOL0     H21305   7.742  11.349   8.425  0.0447 -0.7763 -0.2660
  158MOL0     H21306   7.506  11.411   8.361  5.2755 -0.4828 -1.7831
  158MOL0     H21307   7.453  11.338   8.517  1.1532 -1.3300 -0.4137
  158MOL0     H21308   7.592  11.610   8.496  0.4370 -0.9502 -1.7168
  158MOL0     H21309   7.547  11.518   8.637  0.3084 -0.6151 -1.2437
  158MOL0     H21310   7.383  11.704   8.558 -0.9760 -0.6817 -0.7190
  158MOL0     H21311   7.326  11.553   8.624 -0.7439 -0.5174  0.3943
  158MOL0     H21312   8.225  11.211   9.119  0.3290 -2.0961  3.1425
  158MOL0     H21313   8.387  11.057   9.211  1.3508  1.6564 -1.6799
  158MOL0     H21314   8.546  10.564   9.125 -3.4319 -0.1251  2.3348
  158MOL0     H21315   8.714  10.416   9.198 -0.3308  0.8059 -1.4722
  158MOL0     H21316  10.453   9.735   8.121 -1.2574 -2.7697 -2.1128
  158MOL0     H21317  10.650   9.565   8.125 -1.2033 -2.2316  1.6199
  158MOL0     H21318  11.017   9.327   8.290  1.7957  0.5354  1.4057
  158MOL0     H21319  11.154   9.132   8.336  0.4077 -1.0358 -1.5837
  158MOL0     H21320  11.241   8.966   8.412  4.6490 -3.7620 -2.4410
  158MOL0     H21321  11.147   8.905   8.561  3.1184  0.3992  1.0619
  158MOL0     H21322  11.298   8.720   8.370  2.2479 -0.7741  2.1310
  158MOL0     H21323  11.190   8.676   8.502 -1.9759  1.0859  2.1922
  158MOL0     H21324  11.353   8.815   8.657 -1.6001  2.7707 -1.5239
  158MOL0     H21325  11.440   8.853   8.520 -1.9568  2.3138  0.0559
  158MOL0     H21326  11.549   8.662   8.643  0.0026  0.0310  0.2592
  158MOL0     H21327  11.508   8.623   8.473  1.1227 -1.2311  1.7630
  158MOL0     H21328  11.249   8.357   8.678  3.6731 -1.4982 -0.8018
  158MOL0     H21329  10.810   8.884   8.353  0.8406  0.0191 -0.7682
  158MOL0     H21330  10.662   9.068   8.330  0.2939 -0.8372 -1.9658
  159MOL0     O21331   5.811   3.030   9.970  0.0068 -0.8240  0.2669
  159MOL0     C21332   5.860   3.141   9.995  0.8358  0.0203  0.4106
  159MOL0     O21333   5.804   3.238  10.073  0.1809  0.9141 -0.6006
  159MOL0     C21334   5.703   3.200  10.158 -0.5436 -0.5772 -0.8179
  159MOL0     C21335   5.690   3.081  10.238 -0.9464  0.2768  0.2121
  159MOL0     C21336   5.577   3.052  10.315  0.4955  0.5010 -0.0376
  159MOL0     C21337   5.478   3.153  10.334 -0.2298  0.0675  0.1254
  159MOL0     O21338   5.365   3.149  10.419 -0.1605 -0.6295  0.5761
  159MOL0     C21339   5.320   3.013  10.437 -0.1725  0.6983  0.2908
  159MOL0     C21340   5.232   2.996  10.566 -0.7115 -0.3280 -0.8927
  159MOL0     C21341   5.169   2.854  10.576 -0.7877 -0.3812  0.3911
  159MOL0     C21342   5.269   2.763  10.646 -0.2013  1.1219  0.5141
  159MOL0     C21343   5.212   2.624  10.665 -0.1000  0.8885 -0.6015
  159MOL0     C21344   5.096   2.624  10.757  0.7134  0.4349  0.5661
  159MOL0     C21345   5.078   2.482  10.809  0.2475  0.0276 -1.0044
  159MOL0     C21346   5.070   2.364  10.697 -0.0136 -0.3121 -0.3142
  159MOL0     N21347   4.975   2.387  10.585 -1.6466 -0.4665  0.2830
  159MOL0     C21348   4.847   2.414  10.598 -0.5102 -0.5851 -0.7266
  159MOL0     C21349   4.798   2.422  10.473  0.2089  1.0701 -0.3184
  159MOL0     C21350   4.653   2.450  10.438  0.4686 -1.3356 -0.3998
  159MOL0     C21351   4.586   2.329  10.376  0.2895 -0.0445 -0.2646
  159MOL0     C21352   4.438   2.336  10.385 -0.2231  0.5118  0.5406
  159MOL0     C21353   4.383   2.458  10.308 -0.2470 -0.3453  0.6901
  159MOL0     O21354   4.242   2.422  10.284 -0.5379 -0.4358 -0.6394
  159MOL0     C21355   4.165   2.499  10.200 -0.0858 -0.1797  0.4518
  159MOL0     C21356   4.040   2.458  10.152 -0.2471 -0.2529  0.7316
  159MOL0     C21357   3.958   2.542  10.073 -0.1425  0.5352 -0.0692
  159MOL0     C21358   3.838   2.478  10.015  0.1487 -0.3373  0.4646
  159MOL0     C21359   3.999   2.676  10.047  0.8529 -0.2778  0.9186
  159MOL0     C21360   3.915   2.780   9.978 -0.6150 -0.3367  0.0464
  159MOL0     O21361   3.973   2.834   9.860 -0.1426 -0.5050  0.4215
  159MOL0     C21362   3.902   2.911   9.763 -0.1094  1.0914  0.4680
  159MOL0     C21363   3.888   3.046   9.790  0.4494  0.1725 -0.4441
  159MOL0     C21364   3.824   3.126   9.698 -0.0135 -0.3709 -0.4453
  159MOL0     C21365   3.777   3.077   9.578  0.9514  0.1720  0.3932
  159MOL0     O21366   3.721   3.162   9.486 -0.0849 -0.2736 -0.5151
  159MOL0     C21367   3.591   3.216   9.533 -0.4106 -0.3610  0.1326
  159MOL0     C21368   3.490   3.246   9.420  0.3646 -0.3923  0.0224
  159MOL0     C21369   3.535   3.369   9.335 -1.0294 -0.9345 -1.3034
  159MOL0     C21370   3.434   3.393   9.226 -0.0378 -0.0959 -0.0481
  159MOL0     C21371   3.438   3.539   9.168  0.6686 -0.0029 -0.0449
  159MOL0     C21372   3.372   3.529   9.038  0.4286  0.6774 -0.3523
  159MOL0     C21373   3.368   3.672   8.977 -0.2929 -0.0506 -0.3910
  159MOL0     C21374   3.321   3.687   8.839  1.1167 -0.7091 -0.7326
  159MOL0    Cl21375   3.143   3.695   8.831  0.0402  0.2944 -0.0365
  159MOL0     C21376   3.795   2.939   9.543 -0.4075 -0.0531 -0.4295
  159MOL0     C21377   3.862   2.862   9.632 -0.7821 -0.2842 -0.0962
  159MOL0     O21378   3.799   2.802  10.018 -0.2565 -0.4489  0.3638
  159MOL0     C21379   4.124   2.718  10.091  0.1240  0.2286  0.0281
  159MOL0     C21380   4.205   2.626  10.165  0.7351 -0.2193 -0.5448
  159MOL0     N21381   4.900   2.404  10.387  0.0493  0.6209 -0.1654
  159MOL0     N21382   5.010   2.385  10.457  0.1028  0.1805  0.2954
  159MOL0     C21383   5.498   3.274  10.258  0.2112 -0.3378 -0.6464
  159MOL0     C21384   5.599   3.296  10.166 -0.0324  0.0132  0.5687
  159MOL0     C21385   5.993   3.171   9.945 -0.3172 -0.6943 -0.6412
  159MOL0     C21386   6.031   3.305   9.932 -0.0272  0.1136  0.3659
  159MOL0     C21387   6.163   3.339   9.891  0.4931  0.0118 -0.1206
  159MOL0     C21388   6.253   3.236   9.864  0.1337 -0.2117 -0.7966
  159MOL0     O21389   6.375   3.284   9.836  0.4217  0.8542 -0.1664
  159MOL0     C21390   6.500   3.215   9.822  0.4314  0.0141  0.1130
  159MOL0     C21391   6.536   3.205   9.671 -0.0047 -0.6807  0.0647
  159MOL0     C21392   6.672   3.147   9.637 -1.3126  0.0216 -0.2739
  159MOL0     C21393   6.788   3.246   9.666  0.3556 -0.2354  0.6770
  159MOL0     C21394   6.901   3.193   9.593 -0.9244 -0.5923 -1.0127
  159MOL0     C21395   6.992   3.149   9.532 -0.1389  0.3143  0.0983
  159MOL0     C21396   6.217   3.099   9.890  0.2152  0.3737  0.0746
  159MOL0     C21397   6.083   3.067   9.921  0.0204 -0.0001 -0.9003
  159MOL0     H21398   5.759   3.001  10.213 -0.3299  1.4198 -2.1033
  159MOL0     H21399   5.570   2.952  10.356  1.0627 -0.7519 -2.7410
  159MOL0     H21400   5.261   2.983  10.351  1.4626 -1.1665 -0.2574
  159MOL0     H21401   5.401   2.942  10.458 -0.2831  0.6275  0.4754
  159MOL0     H21402   5.281   3.030  10.658 -3.0524  0.4909  0.1391
  159MOL0     H21403   5.150   3.068  10.572  0.7914  1.3643  0.5211
  159MOL0     H21404   5.073   2.862  10.628 -0.5548  2.7087  0.4912
  159MOL0     H21405   5.137   2.810  10.481 -4.8394  1.5053  0.6573
  159MOL0     H21406   5.368   2.767  10.600 -0.0445  3.7480  0.9461
  159MOL0     H21407   5.281   2.815  10.741 -4.9489  0.6901  1.6173
  159MOL0     H21408   5.189   2.582  10.566  4.0222 -2.2010 -0.5023
  159MOL0     H21409   5.291   2.563  10.711 -0.3812 -0.3401 -1.6864
  159MOL0     H21410   5.117   2.683  10.847  0.1812 -0.9872  1.6544
  159MOL0     H21411   5.005   2.654  10.703  1.4470  0.8062 -0.4982
  159MOL0     H21412   5.155   2.464  10.885  0.4854  1.8831 -0.7739
  159MOL0     H21413   4.984   2.474  10.865 -0.3147 -0.7134 -2.0317
  159MOL0     H21414   5.030   2.288  10.764  3.5379  0.5135  3.1319
  159MOL0     H21415   5.170   2.333  10.665  0.3716 -0.3874  0.9039
  159MOL0     H21416   4.788   2.399  10.688 -1.2535 -0.4555 -1.1802
  159MOL0     H21417   4.617   2.482  10.536 -0.1564 -0.8049 -0.7903
  159MOL0     H21418   4.636   2.532  10.367 -0.1248 -0.2297  0.9615
  159MOL0     H21419   4.603   2.235  10.428 -1.1483  0.2506  0.7775
  159MOL0     H21420   4.609   2.320  10.269  0.9921 -1.2199 -0.0302
  159MOL0     H21421   4.413   2.351  10.491  2.1801  4.1391  0.7715
  159MOL0     H21422   4.391   2.245  10.348 -0.1637 -0.8318  3.4581
  159MOL0     H21423   4.438   2.475  10.215  1.1188  1.2877  1.7377
  159MOL0     H21424   4.379   2.544  10.375 -0.5767 -0.3930  0.7343
  159MOL0     H21425   4.025   2.355  10.184  1.1483  0.5025  4.2902
  159MOL0     H21426   3.847   2.369  10.010 -1.8801 -0.8034  3.6288
  159MOL0     H21427   3.743   2.510  10.059 -0.0657  0.3047 -0.4346
  159MOL0     H21428   3.837   2.496   9.907  2.5453  2.1580  0.7434
  159MOL0     H21429   3.918   3.094   9.883  0.4504 -2.6465  1.1328
  159MOL0     H21430   3.809   3.230   9.728 -1.3763  1.1263 -5.3566
  159MOL0     H21431   3.542   3.142   9.597 -3.0604  0.3346 -0.9579
  159MOL0     H21432   3.611   3.309   9.587  1.4350 -1.0044  0.6354
  159MOL0     H21433   3.467   3.166   9.349 -0.9645 -0.3135  0.3484
  159MOL0     H21434   3.394   3.272   9.465 -0.1089 -1.5760 -0.2419
  159MOL0     H21435   3.627   3.342   9.283  1.0544 -2.7759  2.8003
  159MOL0     H21436   3.565   3.450   9.402 -1.3578 -2.0363  0.2398
  159MOL0     H21437   3.457   3.318   9.150  0.4567 -1.7245  1.6392
  159MOL0     H21438   3.334   3.361   9.257  0.9838 -2.9068  0.5592
  159MOL0     H21439   3.538   3.583   9.160  0.7876 -0.4470 -1.1868
  159MOL0     H21440   3.364   3.589   9.231  0.2468 -1.4274  0.6506
  159MOL0     H21441   3.431   3.462   8.975  1.5921  0.0258  1.3693
  159MOL0     H21442   3.276   3.478   9.048  0.3711  1.0055  0.8450
  159MOL0     H21443   3.474   3.700   8.975 -0.1103 -0.1127  2.6690
  159MOL0     H21444   3.310   3.737   9.043 -0.8401 -1.0567  0.1415
  159MOL0     H21445   3.359   3.609   8.773  0.3542 -1.6465 -0.0941
  159MOL0     H21446   3.370   3.771   8.789 -0.9049  0.7779 -0.3561
  159MOL0     H21447   3.767   2.902   9.445 -1.5734 -2.2387  0.6412
  159MOL0     H21448   3.873   2.758   9.602  2.7854 -0.5662  1.6936
  159MOL0     H21449   4.161   2.816  10.061  1.0765 -0.6691 -1.9130
  159MOL0     H21450   4.298   2.666  10.202  1.8608  0.1421 -3.4528
  159MOL0     H21451   5.428   3.357  10.272 -0.4696 -1.0393  0.2088
  159MOL0     H21452   5.607   3.390  10.113 -3.7375 -1.4835 -3.2072
  159MOL0     H21453   5.965   3.389   9.951 -2.0478 -1.4850  0.7754
  159MOL0     H21454   6.195   3.443   9.899  1.5071 -0.3768  1.4623
  159MOL0     H21455   6.566   3.291   9.864  1.2088  0.0016 -1.0268
  159MOL0     H21456   6.490   3.115   9.867  1.0077 -0.4748 -0.8010
  159MOL0     H21457   6.528   3.303   9.623  1.8855 -1.0775 -1.1876
  159MOL0     H21458   6.470   3.135   9.619  1.3288 -0.6999 -1.7047
  159MOL0     H21459   6.674   3.129   9.529  2.6060 -2.3427  0.0117
  159MOL0     H21460   6.688   3.050   9.685  0.6787 -0.4693 -1.7730
  159MOL0     H21461   6.813   3.254   9.773 -0.9393  0.8540  0.9203
  159MOL0     H21462   6.771   3.347   9.629 -1.0525 -0.9202 -0.6645
  159MOL0     H21463   7.080   3.126   9.475 -0.6799 -1.3803 -0.1046
  159MOL0     H21464   6.279   3.013   9.866 -0.9833 -1.1074  1.9919
  159MOL0     H21465   6.056   2.963   9.934 -1.7136  0.5400  0.1945
  160MOL0     O21466   3.052   6.709   7.233  0.0943  0.0185  0.1881
  160MOL0     C21467   3.148   6.631   7.239 -0.3611  0.5323  0.0507
  160MOL0     O21468   3.141   6.502   7.277 -0.5430 -0.4482 -0.6277
  160MOL0     C21469   3.029   6.439   7.323  0.6005 -0.6957 -1.1897
  160MOL0     C21470   3.019   6.432   7.460 -0.1595  0.0286  0.6320
  160MOL0     C21471   2.900   6.402   7.527  0.7719  0.1198 -0.9211
  160MOL0     C21472   2.794   6.358   7.449  0.3689  0.6714 -0.3936
  160MOL0     O21473   2.670   6.338   7.500 -0.6797  0.4465 -0.5084
  160MOL0     C21474   2.624   6.200   7.522 -0.4799 -0.1660  0.1137
  160MOL0     C21475   2.479   6.188   7.464 -1.0882 -0.6028  0.3470
  160MOL0     C21476   2.475   6.142   7.319  0.2512  0.4609  0.7732
  160MOL0     C21477   2.382   6.020   7.303  0.2637  0.5681  1.2244
  160MOL0     C21478   2.233   6.046   7.331  0.3159 -0.0800  0.9914
  160MOL0     C21479   2.157   6.143   7.241  0.1980  0.0014  0.2237
  160MOL0     C21480   1.999   6.157   7.264 -0.2385 -1.0778  0.5076
  160MOL0     C21481   1.948   6.191   7.405 -0.5429 -0.1425 -0.4784
  160MOL0     N21482   1.973   6.329   7.439  0.4399 -0.0412  0.3178
  160MOL0     C21483   1.890   6.442   7.416  0.7903  0.2454  0.1202
  160MOL0     C21484   1.953   6.541   7.482  0.3231 -0.0675  0.2113
  160MOL0     C21485   1.923   6.685   7.464 -0.8447  0.6934 -0.0348
  160MOL0     C21486   1.981   6.772   7.576  0.2214  0.5407  0.1758
  160MOL0     C21487   1.913   6.777   7.717 -0.4195 -0.3276  0.8392
  160MOL0     C21488   1.986   6.851   7.828 -0.0603 -0.2984 -0.6485
  160MOL0     O21489   1.888   6.872   7.933  0.2426 -0.5888  0.0866
  160MOL0     C21490   1.853   6.996   7.968  0.4969 -1.0647  0.1963
  160MOL0     C21491   1.789   7.020   8.091 -0.1173  0.8325 -0.1536
  160MOL0     C21492   1.765   7.150   8.135  0.5900 -0.4556 -1.0172
  160MOL0     C21493   1.706   7.153   8.272  1.1100  1.1104  0.1185
  160MOL0     C21494   1.792   7.261   8.055 -0.7937  0.4123 -0.7983
  160MOL0     C21495   1.752   7.402   8.072  0.2264  0.4693 -0.3733
  160MOL0     O21496   1.835   7.502   8.027 -0.5034 -0.7812 -0.1079
  160MOL0     C21497   1.793   7.630   8.007  0.4437  0.1791  0.1795
  160MOL0     C21498   1.659   7.672   8.001  0.2459 -0.2181  0.1917
  160MOL0     C21499   1.627   7.811   7.974 -0.3606 -0.3543  0.6104
  160MOL0     C21500   1.735   7.898   7.946 -0.6942  1.0522 -0.2753
  160MOL0     O21501   1.712   8.034   7.926 -0.0680  0.2994 -0.1743
  160MOL0     C21502   1.589   8.088   7.867 -0.7900  0.9714 -0.1777
  160MOL0     C21503   1.605   8.234   7.810 -0.1875  0.2750 -0.0516
  160MOL0     C21504   1.694   8.222   7.685  0.7763 -0.7996 -0.1685
  160MOL0     C21505   1.758   8.353   7.657 -0.0591 -0.9339  0.4364
  160MOL0     C21506   1.811   8.378   7.522  0.0317  0.2882  0.3298
  160MOL0     C21507   1.944   8.319   7.503 -0.1536  0.0622 -0.5054
  160MOL0     C21508   1.935   8.166   7.467  0.2107 -0.0948  0.9040
  160MOL0     C21509   1.850   8.132   7.345  0.5065  1.6330 -0.2676
  160MOL0    Cl21510   1.916   7.986   7.268 -0.4839  0.0479  0.3311
  160MOL0     C21511   1.861   7.849   7.955 -0.2752  0.1810  0.5914
  160MOL0     C21512   1.898   7.725   7.981 -0.0698 -0.4613 -0.8200
  160MOL0     O21513   1.647   7.422   8.137 -0.1457  0.5597  0.3116
  160MOL0     C21514   1.851   7.239   7.933 -0.5644 -0.0652  0.6839
  160MOL0     C21515   1.886   7.110   7.890 -0.6404 -1.0641 -0.2727
  160MOL0     N21516   2.055   6.490   7.555 -0.2439  0.7765 -0.6851
  160MOL0     N21517   2.073   6.368   7.519  0.2482 -0.3473 -0.1333
  160MOL0     C21518   2.801   6.358   7.306 -0.1780 -0.4302 -0.3952
  160MOL0     C21519   2.916   6.404   7.244 -0.5640 -0.0057  0.4160
  160MOL0     C21520   3.278   6.667   7.184  0.1053  1.1347  0.4651
  160MOL0     C21521   3.292   6.785   7.107  0.2124 -0.2120  0.4828
  160MOL0     C21522   3.417   6.846   7.079  0.8811 -0.5570 -0.9865
  160MOL0     C21523   3.536   6.776   7.110 -0.8631 -0.0521 -0.1295
  160MOL0     O21524   3.656   6.843   7.082 -0.1148  0.4529  0.1164
  160MOL0     C21525   3.771   6.816   7.160  0.6562  0.3912 -0.5529
  160MOL0     C21526   3.863   6.945   7.180 -0.7386  0.3127  0.2743
  160MOL0     C21527   3.987   6.886   7.247 -1.1114  0.5747 -0.0386
  160MOL0     C21528   3.977   6.843   7.388 -0.0832 -1.1259  0.9729
  160MOL0     C21529   3.991   6.943   7.496  0.6847  0.4023  0.5298
  160MOL0     C21530   4.013   7.031   7.578 -0.0232  0.7625 -0.0449
  160MOL0     C21531   3.529   6.651   7.173  0.9958 -0.1386  1.4283
  160MOL0     C21532   3.401   6.603   7.221 -0.5746  0.7105 -0.3930
  160MOL0     H21533   3.107   6.470   7.511 -0.1902  2.8002 -1.1615
  160MOL0     H21534   2.889   6.420   7.633  2.2241  1.6287 -0.9958
  160MOL0     H21535   2.699   6.137   7.473  1.1726 -0.6400  3.0513
  160MOL0     H21536   2.626   6.170   7.627 -1.2546 -2.1702 -0.4070
  160MOL0     H21537   2.437   6.114   7.533 -3.2302  3.2546  3.5737
  160MOL0     H21538   2.427   6.284   7.466 -1.0335 -0.4630 -2.2883
  160MOL0     H21539   2.421   6.226   7.274  0.5287  0.5497  0.6089
  160MOL0     H21540   2.573   6.128   7.273 -0.7035  1.0408 -1.5576
  160MOL0     H21541   2.385   5.980   7.201 -1.8521 -0.0866  1.3721
  160MOL0     H21542   2.412   5.938   7.369 -1.4166  0.9020  2.4467
  160MOL0     H21543   2.189   5.947   7.315 -1.2968  0.7804 -0.0798
  160MOL0     H21544   2.222   6.085   7.433  1.0798  0.6538  0.7992
  160MOL0     H21545   2.200   6.244   7.233  0.7315 -0.2913 -0.8607
  160MOL0     H21546   2.167   6.093   7.145 -0.6797  0.1162  0.0612
  160MOL0     H21547   1.973   6.233   7.190  1.2186  0.8716  1.8516
  160MOL0     H21548   1.957   6.057   7.251  0.4539 -1.2150 -0.8443
  160MOL0     H21549   1.997   6.127   7.479  0.0690 -2.0820 -2.4509
  160MOL0     H21550   1.841   6.174   7.411 -0.6864  1.0714  0.9203
  160MOL0     H21551   1.809   6.460   7.346 -0.4606  0.6583  1.6235
  160MOL0     H21552   1.976   6.719   7.375  0.2861 -0.0418  0.3394
  160MOL0     H21553   1.816   6.709   7.459 -1.5463 -1.6600  1.7253
  160MOL0     H21554   1.979   6.879   7.552  0.8876  1.1325  2.4393
  160MOL0     H21555   2.087   6.743   7.583  0.5269  1.1614 -1.5046
  160MOL0     H21556   1.898   6.674   7.749  0.6677 -0.0732  2.2386
  160MOL0     H21557   1.816   6.826   7.707 -1.3524 -2.1112  0.8618
  160MOL0     H21558   2.045   6.932   7.785 -0.1958 -0.7706 -1.7418
  160MOL0     H21559   2.064   6.783   7.865  0.6694  1.9964  2.5197
  160MOL0     H21560   1.762   6.933   8.150 -0.3395  1.6054  0.9189
  160MOL0     H21561   1.707   7.248   8.326  3.9167 -0.6788  3.6778
  160MOL0     H21562   1.606   7.109   8.278  1.6158 -0.4124 -1.8307
  160MOL0     H21563   1.773   7.098   8.339 -0.0096 -1.1755 -0.5615
  160MOL0     H21564   1.578   7.605   8.027  0.9978 -1.4611 -0.5701
  160MOL0     H21565   1.526   7.849   7.967 -0.3393  0.3764  3.2880
  160MOL0     H21566   1.542   8.017   7.798  0.0798 -1.0733  1.2168
  160MOL0     H21567   1.522   8.082   7.954  0.7049 -3.1388  0.9418
  160MOL0     H21568   1.510   8.263   7.766 -0.3770 -1.5059 -0.9269
  160MOL0     H21569   1.651   8.293   7.890 -0.6521  1.0673 -0.3694
  160MOL0     H21570   1.644   8.188   7.594  4.4903  0.3623 -2.8778
  160MOL0     H21571   1.772   8.149   7.707  0.9822  0.2425  3.2837
  160MOL0     H21572   1.680   8.428   7.677  1.2812  0.4900  0.5153
  160MOL0     H21573   1.845   8.364   7.722 -0.2921 -0.9406  0.7551
  160MOL0     H21574   1.811   8.486   7.501 -0.2107  0.1614 -0.3799
  160MOL0     H21575   1.740   8.340   7.447 -1.2027  0.0864  1.5574
  160MOL0     H21576   1.971   8.375   7.413  0.0217 -1.4074 -1.3828
  160MOL0     H21577   2.018   8.327   7.583 -0.2647 -1.1133 -0.2817
  160MOL0     H21578   1.917   8.113   7.561  3.0507 -2.2008  0.4271
  160MOL0     H21579   2.038   8.132   7.455  0.0239 -1.0955  1.9277
  160MOL0     H21580   1.855   8.211   7.270  1.0758  1.4225 -0.4528
  160MOL0     H21581   1.750   8.107   7.381  1.8608 -0.2605  2.5479
  160MOL0     H21582   1.936   7.925   7.932 -0.4555 -0.1013 -1.0909
  160MOL0     H21583   1.998   7.695   8.013 -0.9592 -0.2826  2.3764
  160MOL0     H21584   1.871   7.320   7.864 -3.5257  1.3647  1.3360
  160MOL0     H21585   1.921   7.105   7.788  2.8322  1.0063  0.6611
  160MOL0     H21586   2.722   6.336   7.235 -1.3671 -0.5446  0.9159
  160MOL0     H21587   2.919   6.414   7.136 -3.9140 -0.7916  0.1580
  160MOL0     H21588   3.205   6.849   7.093  1.5136  1.5325 -0.0539
  160MOL0     H21589   3.401   6.946   7.040 -0.6832  0.7771  2.6934
  160MOL0     H21590   3.741   6.770   7.254  2.7523 -3.1920 -1.4340
  160MOL0     H21591   3.817   6.743   7.092 -2.7176 -0.0435 -2.6028
  160MOL0     H21592   3.817   7.028   7.234 -0.7038  2.3102 -2.5553
  160MOL0     H21593   3.888   6.980   7.079 -0.2657 -1.3847 -0.2348
  160MOL0     H21594   4.068   6.958   7.231 -1.2475  0.7896  0.2468
  160MOL0     H21595   4.016   6.795   7.194  1.9390 -0.5504  3.1686
  160MOL0     H21596   4.058   6.769   7.391 -0.1043 -1.1830  0.1283
  160MOL0     H21597   3.885   6.785   7.399 -0.0324 -2.1432 -2.7750
  160MOL0     H21598   4.022   7.108   7.651 -2.0911 -0.9399  2.1602
  160MOL0     H21599   3.617   6.590   7.193  1.7829  0.1065 -1.0384
  160MOL0     H21600   3.414   6.514   7.282  0.9323  1.9207  1.1736
  161MOL0     O21601   8.152  11.033  11.107 -0.0630  0.1678 -0.1554
  161MOL0     C21602   8.263  10.991  11.069  0.4589 -0.0931 -0.9140
  161MOL0     O21603   8.326  11.020  10.946  0.5278  1.0095 -0.7077
  161MOL0     C21604   8.260  11.088  10.845 -0.1992 -0.2526 -0.7603
  161MOL0     C21605   8.320  11.203  10.800  0.5346  0.0409  0.3448
  161MOL0     C21606   8.262  11.283  10.697  0.8906 -0.6886  0.6842
  161MOL0     C21607   8.134  11.242  10.647  1.1128  0.2446  0.2592
  161MOL0     O21608   8.078  11.292  10.529  0.1944 -0.5768 -0.2296
  161MOL0     C21609   8.106  11.426  10.486 -0.6127  0.6400  0.0751
  161MOL0     C21610   8.063  11.546  10.579 -0.6310  0.9188 -0.4342
  161MOL0     C21611   8.026  11.671  10.497  0.3965  0.3314  0.4174
  161MOL0     C21612   8.003  11.795  10.586  0.7875 -0.5092 -0.3503
  161MOL0     C21613   7.971  11.926  10.507 -0.2649 -0.3584  1.3116
  161MOL0     C21614   7.920  12.031  10.606  0.6977  1.0363 -0.4973
  161MOL0     C21615   7.858  12.159  10.549  0.2749 -0.1403  1.0134
  161MOL0     C21616   7.939  12.197  10.429 -0.2297  0.2750 -0.6948
  161MOL0     N21617   7.902  12.336  10.393  0.4906 -0.9800  0.3688
  161MOL0     C21618   7.794  12.371  10.317  0.1994 -0.1561  0.6721
  161MOL0     C21619   7.795  12.504  10.293  0.6956 -0.4683  0.4539
  161MOL0     C21620   7.703  12.596  10.211 -0.0562  0.1346 -0.0261
  161MOL0     C21621   7.666  12.540  10.079  0.6752 -0.3976  0.4948
  161MOL0     C21622   7.775  12.494   9.987  0.0224  0.4574  0.3765
  161MOL0     C21623   7.723  12.433   9.857 -0.2961 -0.6355  0.4600
  161MOL0     O21624   7.621  12.340   9.881 -0.0448 -0.2099 -0.0449
  161MOL0     C21625   7.541  12.309   9.780  0.2581 -0.6095 -0.3803
  161MOL0     C21626   7.585  12.305   9.647  0.2709  0.2858  0.5805
  161MOL0     C21627   7.495  12.277   9.539 -0.4635  0.2522 -0.2483
  161MOL0     C21628   7.565  12.243   9.408 -0.0261 -0.6956 -0.1014
  161MOL0     C21629   7.355  12.265   9.570 -0.8763  0.4141 -0.3777
  161MOL0     C21630   7.257  12.254   9.459  0.5126  0.1801 -0.1936
  161MOL0     O21631   7.143  12.183   9.475 -0.0032  0.5388 -0.5438
  161MOL0     C21632   7.064  12.147   9.363  0.0090 -0.4004  0.0454
  161MOL0     C21633   7.073  12.021   9.302 -0.4661 -0.3897 -0.1604
  161MOL0     C21634   7.003  11.993   9.186  0.0199 -0.1543 -0.2248
  161MOL0     C21635   6.894  12.076   9.150 -0.4656 -0.1565 -0.2727
  161MOL0     O21636   6.825  12.062   9.032 -0.3054  0.5709  0.4954
  161MOL0     C21637   6.904  12.042   8.911  0.2183 -1.0779  0.2051
  161MOL0     C21638   6.941  12.179   8.852 -0.1481 -0.2173  0.9754
  161MOL0     C21639   6.856  12.199   8.731  0.5980  0.2532 -0.4208
  161MOL0     C21640   6.862  12.343   8.679  0.0708  0.6032  0.1683
  161MOL0     C21641   6.740  12.379   8.598 -0.3736 -0.0207  0.7284
  161MOL0     C21642   6.728  12.531   8.561 -0.5379  0.2678 -0.1551
  161MOL0     C21643   6.599  12.545   8.462 -0.1845  0.0897  0.2053
  161MOL0     C21644   6.593  12.678   8.392  0.3464  1.0773 -0.3803
  161MOL0    Cl21645   6.756  12.712   8.313  0.3922 -0.1900 -0.0455
  161MOL0     C21646   6.890  12.202   9.211  0.2680 -0.8988 -0.0368
  161MOL0     C21647   6.968  12.240   9.317 -0.7222  0.0415 -0.2696
  161MOL0     O21648   7.292  12.305   9.352 -0.4700 -0.1332 -0.6871
  161MOL0     C21649   7.319  12.252   9.702 -0.2035 -0.6847 -0.2637
  161MOL0     C21650   7.413  12.269   9.805 -0.4159 -0.1552  0.2498
  161MOL0     N21651   7.912  12.560  10.349  0.9286 -0.7701  0.3378
  161MOL0     N21652   7.979  12.455  10.387  0.1496  0.9118 -0.4331
  161MOL0     C21653   8.078  11.120  10.698  0.5771  0.2084 -0.6976
  161MOL0     C21654   8.138  11.048  10.799  0.0348  0.0760 -0.2391
  161MOL0     C21655   8.352  10.924  11.174 -0.5089 -0.0552  0.0346
  161MOL0     C21656   8.475  10.875  11.133 -0.2809 -0.0576  0.4115
  161MOL0     C21657   8.566  10.810  11.223 -1.0041  1.2553 -0.2019
  161MOL0     C21658   8.538  10.802  11.353 -0.1178  1.1918 -0.2195
  161MOL0     O21659   8.634  10.730  11.427  0.2223  0.2811  0.7104
  161MOL0     C21660   8.616  10.725  11.566 -0.4168  0.1582  0.0590
  161MOL0     C21661   8.742  10.682  11.641 -0.0776 -0.7005 -0.0088
  161MOL0     C21662   8.795  10.545  11.600  0.2168 -0.4911 -0.3392
  161MOL0     C21663   8.895  10.482  11.704  0.4189  0.5522 -0.6264
  161MOL0     C21664   8.971  10.369  11.654 -0.3640  0.2465 -0.7723
  161MOL0     C21665   9.048  10.271  11.640 -0.3902  0.3811 -0.5053
  161MOL0     C21666   8.408  10.846  11.400  0.2752 -0.3742  0.1060
  161MOL0     C21667   8.316  10.902  11.307  0.3399 -0.5907 -0.7584
  161MOL0     H21668   8.414  11.240  10.839  0.7564 -2.5539  2.5604
  161MOL0     H21669   8.318  11.369  10.660 -1.5155  1.1405  1.0444
  161MOL0     H21670   8.214  11.427  10.470 -0.7420 -0.3810 -0.9301
  161MOL0     H21671   8.061  11.437  10.387  1.0321 -2.1762 -1.1090
  161MOL0     H21672   7.973  11.516  10.633  0.1792  0.5026  0.7453
  161MOL0     H21673   8.145  11.571  10.647 -1.2187  0.7404  0.3581
  161MOL0     H21674   8.106  11.686  10.425  0.3668 -2.3825 -0.2909
  161MOL0     H21675   7.933  11.634  10.453  1.3702 -2.1522  0.2543
  161MOL0     H21676   7.915  11.771  10.647  0.2774  1.1880 -0.3851
  161MOL0     H21677   8.081  11.805  10.662  1.3627  2.2570 -1.2190
  161MOL0     H21678   8.057  11.966  10.453 -1.1854  0.6518  0.5619
  161MOL0     H21679   7.901  11.912  10.424 -0.3384  0.0474  1.3050
  161MOL0     H21680   7.840  11.986  10.665 -0.7116  0.0047 -3.0259
  161MOL0     H21681   8.005  12.046  10.672  3.2312 -1.6361 -2.8370
  161MOL0     H21682   7.751  12.148  10.526  0.2760  1.1205  0.3049
  161MOL0     H21683   7.854  12.236  10.627  3.3166  1.5465 -0.3127
  161MOL0     H21684   7.910  12.142  10.339 -0.0933 -0.7451 -0.1342
  161MOL0     H21685   8.047  12.190  10.445  0.0591  1.4634 -1.9610
  161MOL0     H21686   7.722  12.315  10.258 -0.8754  1.6873  0.1459
  161MOL0     H21687   7.614  12.607  10.274 -0.5545  1.3358 -0.9041
  161MOL0     H21688   7.741  12.694  10.180 -0.1514 -0.1695 -1.1315
  161MOL0     H21689   7.604  12.614  10.028 -4.0556 -3.1169  1.6755
  161MOL0     H21690   7.606  12.452  10.104 -2.0126  1.4181  0.8507
  161MOL0     H21691   7.833  12.415  10.036  0.0594  1.4736  2.0558
  161MOL0     H21692   7.839  12.580   9.966  1.5187 -1.3538 -3.2609
  161MOL0     H21693   7.805  12.382   9.806  0.6435 -0.1736  1.4813
  161MOL0     H21694   7.688  12.510   9.787  0.4308  0.3368  1.1402
  161MOL0     H21695   7.688  12.333   9.630 -0.1135  1.7317  0.5313
  161MOL0     H21696   7.562  12.336   9.350  0.5676 -1.3334 -1.1759
  161MOL0     H21697   7.666  12.209   9.433  1.3353  2.6747 -0.4723
  161MOL0     H21698   7.505  12.171   9.352 -2.9982  0.2258  1.6941
  161MOL0     H21699   7.149  11.955   9.342 -0.8006 -0.1300  0.9371
  161MOL0     H21700   7.022  11.896   9.140 -1.1388 -0.5169  0.0227
  161MOL0     H21701   6.995  11.994   8.948  0.5702 -0.6240 -0.0690
  161MOL0     H21702   6.856  11.969   8.845 -0.2428  0.6661 -1.4872
  161MOL0     H21703   6.940  12.259   8.927  3.0107 -0.1459  1.1045
  161MOL0     H21704   7.042  12.171   8.808 -1.1331  1.1599 -1.7834
  161MOL0     H21705   6.752  12.173   8.753 -0.9791  5.2338 -0.7941
  161MOL0     H21706   6.893  12.132   8.653 -1.5234 -2.0317  0.4151
  161MOL0     H21707   6.888  12.405   8.765  0.6340 -1.7344  1.7782
  161MOL0     H21708   6.953  12.345   8.618 -0.6934 -1.5069 -1.1286
  161MOL0     H21709   6.644  12.351   8.640 -1.5894  2.6908 -0.0124
  161MOL0     H21710   6.740  12.332   8.499  0.3682  2.4157 -0.5271
  161MOL0     H21711   6.727  12.593   8.651  0.8642  0.1796 -0.0609
  161MOL0     H21712   6.822  12.569   8.520 -0.5901  0.4438 -0.1145
  161MOL0     H21713   6.506  12.541   8.519  0.2150  0.1300  0.8695
  161MOL0     H21714   6.595  12.470   8.383  0.3436  1.5115 -1.2387
  161MOL0     H21715   6.564  12.751   8.468 -1.2083  1.5301 -1.3545
  161MOL0     H21716   6.518  12.680   8.313  0.2192  2.3062 -0.2597
  161MOL0     H21717   6.814  12.267   9.170  1.2379 -0.4425 -1.1756
  161MOL0     H21718   6.959  12.341   9.355  1.1740 -0.2763  1.1745
  161MOL0     H21719   7.213  12.253   9.725 -1.1582  1.9744 -3.9787
  161MOL0     H21720   7.380  12.274   9.908 -0.6858  2.7659  0.0956
  161MOL0     H21721   7.984  11.087  10.656  0.8461 -0.4256 -0.8208
  161MOL0     H21722   8.084  10.959  10.830 -3.0188  1.2745 -1.6582
  161MOL0     H21723   8.512  10.893  11.033  1.3551 -1.1981  0.7795
  161MOL0     H21724   8.657  10.766  11.184 -2.3935 -1.5163 -0.5658
  161MOL0     H21725   8.586  10.821  11.608 -0.4097 -0.8202  2.5085
  161MOL0     H21726   8.556  10.642  11.605 -1.4179  1.1645  0.7160
  161MOL0     H21727   8.717  10.684  11.748 -3.0692  0.8071 -0.6093
  161MOL0     H21728   8.826  10.747  11.615  1.3599 -2.1550  0.8569
  161MOL0     H21729   8.856  10.560  11.510  2.6268 -1.0498  1.1147
  161MOL0     H21730   8.707  10.482  11.583 -0.1208  0.4082 -2.1801
  161MOL0     H21731   8.837  10.448  11.790 -1.4225  2.0792 -1.1931
  161MOL0     H21732   8.956  10.571  11.724  2.8132 -1.2094  0.2606
  161MOL0     H21733   9.108  10.183  11.637 -2.0707 -0.8124 -0.8605
  161MOL0     H21734   8.374  10.813  11.498 -2.0789 -1.0164 -0.8659
  161MOL0     H21735   8.217  10.929  11.341  1.0257 -0.1695  1.0327
  162MOL0     O21736   7.615   4.782   5.840 -0.1632 -0.3009  0.0242
  162MOL0     C21737   7.524   4.846   5.786 -0.5019  0.8216  0.1106
  162MOL0     O21738   7.405   4.809   5.767  0.0665  0.5371  0.0125
  162MOL0     C21739   7.357   4.713   5.849 -0.4496 -0.0595 -0.6651
  162MOL0     C21740   7.377   4.582   5.823 -0.2677  0.6487  0.6860
  162MOL0     C21741   7.330   4.477   5.915  0.5093 -0.8305  1.2558
  162MOL0     C21742   7.258   4.521   6.026 -0.0672 -0.0699 -0.3396
  162MOL0     O21743   7.218   4.425   6.114  0.7210 -0.1223 -0.5083
  162MOL0     C21744   7.116   4.340   6.061 -0.3934 -0.3345 -0.4152
  162MOL0     C21745   7.144   4.211   6.137 -0.6494  0.4457 -0.2514
  162MOL0     C21746   7.056   4.091   6.106  0.7154 -0.8130  0.7072
  162MOL0     C21747   7.085   3.988   6.213 -0.4027 -0.8517  0.5099
  162MOL0     C21748   7.031   3.849   6.192  0.6972  0.4161  0.8396
  162MOL0     C21749   7.032   3.762   6.313 -0.0520  0.0257  0.5642
  162MOL0     C21750   6.932   3.639   6.294  0.1730  0.0633  0.1996
  162MOL0     C21751   6.964   3.565   6.163 -0.9342 -0.6380  0.3447
  162MOL0     N21752   7.098   3.491   6.176  0.6655 -0.9129 -0.5002
  162MOL0     C21753   7.125   3.399   6.269  0.5422  0.9732 -0.4219
  162MOL0     C21754   7.253   3.383   6.262 -0.3804 -0.4996 -0.0228
  162MOL0     C21755   7.341   3.321   6.365 -0.7430  0.2493 -0.2161
  162MOL0     C21756   7.324   3.164   6.371  0.2836 -0.2614 -0.2771
  162MOL0     C21757   7.213   3.131   6.473  0.1385  0.9115 -0.3168
  162MOL0     C21758   7.177   2.984   6.501  0.1898 -0.5661  0.4532
  162MOL0     O21759   7.301   2.911   6.497  0.4837 -0.0044 -0.1954
  162MOL0     C21760   7.377   2.920   6.613 -0.1149  0.2752  0.8671
  162MOL0     C21761   7.330   2.966   6.736 -0.5425 -0.0204  0.1518
  162MOL0     C21762   7.403   2.960   6.858 -1.2414  0.3086 -0.6134
  162MOL0     C21763   7.332   3.009   6.981 -0.0373  0.0232 -0.2750
  162MOL0     C21764   7.534   2.911   6.844 -0.3548  0.3153  0.0825
  162MOL0     C21765   7.626   2.921   6.957 -0.5409  0.2755 -0.1624
  162MOL0     O21766   7.760   2.944   6.931  0.5974 -0.0416  0.3235
  162MOL0     C21767   7.865   2.940   7.018  0.5049 -1.2305 -0.1602
  162MOL0     C21768   7.881   2.849   7.116  0.1119 -0.1910  0.5735
  162MOL0     C21769   8.010   2.838   7.184  0.2520  0.6797  0.1905
  162MOL0     C21770   8.106   2.936   7.170 -0.0314  0.3982 -1.0324
  162MOL0     O21771   8.222   2.922   7.251  0.0439  0.3668 -0.2745
  162MOL0     C21772   8.245   2.816   7.345 -0.2277 -0.6765  0.1090
  162MOL0     C21773   8.376   2.844   7.424 -0.4215 -0.1893 -0.0199
  162MOL0     C21774   8.386   2.989   7.481  0.7074 -0.4056 -0.5575
  162MOL0     C21775   8.509   2.992   7.583  0.0528 -0.3544  0.4070
  162MOL0     C21776   8.644   3.035   7.510  0.1139  0.0280 -0.5908
  162MOL0     C21777   8.749   2.993   7.612  0.1430  0.4764  0.3476
  162MOL0     C21778   8.883   3.066   7.582 -0.6002 -0.2392 -0.1737
  162MOL0     C21779   8.961   3.050   7.447 -0.3452  0.7864 -1.0141
  162MOL0    Cl21780   8.874   3.142   7.323 -0.4789  0.3448 -0.5061
  162MOL0     C21781   8.086   3.039   7.078  0.4057 -0.6239  0.3276
  162MOL0     C21782   7.972   3.030   6.998 -0.0899  0.0434  0.6596
  162MOL0     O21783   7.581   2.885   7.063 -0.5488  0.3668  0.6629
  162MOL0     C21784   7.587   2.880   6.714  0.4176  0.1380 -0.5312
  162MOL0     C21785   7.509   2.885   6.596 -0.9636  0.1129 -0.0148
  162MOL0     N21786   7.301   3.472   6.172 -0.4968  0.2509  0.4322
  162MOL0     N21787   7.201   3.540   6.125 -0.9974  0.5453  0.8478
  162MOL0     C21788   7.246   4.662   6.051 -0.1372  0.2573 -0.7495
  162MOL0     C21789   7.295   4.758   5.963  0.3526 -0.4605 -0.3606
  162MOL0     C21790   7.558   4.967   5.710  0.8335 -0.3502  0.3171
  162MOL0     C21791   7.690   4.998   5.687  0.0378  0.1029 -1.0715
  162MOL0     C21792   7.743   5.109   5.617 -0.2923  0.3271 -1.2211
  162MOL0     C21793   7.654   5.195   5.556  0.6323 -0.8227  0.2399
  162MOL0     O21794   7.681   5.310   5.482  0.5702 -0.0867 -0.3100
  162MOL0     C21795   7.812   5.362   5.466 -0.0508  0.4521  0.3799
  162MOL0     C21796   7.828   5.409   5.321 -1.4660  0.6549 -0.4318
  162MOL0     C21797   7.978   5.448   5.289  0.5925 -0.3641 -0.0152
  162MOL0     C21798   8.062   5.325   5.294  0.2620  0.0149 -0.4218
  162MOL0     C21799   8.197   5.349   5.242  0.0171 -0.1917 -0.4661
  162MOL0     C21800   8.310   5.362   5.212 -0.0168 -0.2367  1.1618
  162MOL0     C21801   7.521   5.177   5.584 -0.2493  0.2278 -0.2286
  162MOL0     C21802   7.473   5.067   5.663 -0.3829  0.3949  0.4632
  162MOL0     H21803   7.413   4.544   5.728 -1.5669 -0.9015  0.7742
  162MOL0     H21804   7.351   4.374   5.887  4.6770 -0.1561  1.2281
  162MOL0     H21805   7.020   4.381   6.093 -0.0940  1.2934 -1.4647
  162MOL0     H21806   7.122   4.323   5.953  0.4118 -1.8374 -0.1581
  162MOL0     H21807   7.249   4.183   6.124 -0.4156  0.8079  0.7493
  162MOL0     H21808   7.119   4.236   6.240 -1.1178  0.7873 -0.4421
  162MOL0     H21809   6.954   4.129   6.110  1.6568  2.4772 -1.8723
  162MOL0     H21810   7.067   4.045   6.007 -0.2016  2.9205 -1.3480
  162MOL0     H21811   7.194   3.987   6.213 -0.2640  2.0914 -1.0460
  162MOL0     H21812   7.051   4.028   6.309 -0.8208 -0.1410  0.0834
  162MOL0     H21813   6.926   3.862   6.164  0.6176 -2.9513 -0.8385
  162MOL0     H21814   7.093   3.802   6.115 -0.7983  1.0001 -0.7891
  162MOL0     H21815   7.138   3.732   6.315 -0.5940 -2.2897 -1.0160
  162MOL0     H21816   6.999   3.819   6.400 -0.8724 -0.2811  0.4569
  162MOL0     H21817   6.948   3.564   6.372  2.3648 -0.6791 -0.8637
  162MOL0     H21818   6.830   3.677   6.298  0.7237  2.0128 -1.9095
  162MOL0     H21819   6.960   3.630   6.075 -0.1650  0.5685  1.1681
  162MOL0     H21820   6.886   3.490   6.143 -1.2681  0.3938 -2.8052
  162MOL0     H21821   7.051   3.364   6.340 -0.5316  0.3059 -1.8311
  162MOL0     H21822   7.441   3.345   6.329 -1.2155  1.5552 -0.7073
  162MOL0     H21823   7.345   3.368   6.463  4.4112  2.7793 -1.3080
  162MOL0     H21824   7.423   3.119   6.389  0.9438  1.2025 -0.0845
  162MOL0     H21825   7.290   3.127   6.274 -1.3726 -0.0740  0.2009
  162MOL0     H21826   7.131   3.198   6.448  1.5575  2.7570 -0.1685
  162MOL0     H21827   7.247   3.169   6.570 -0.2155  1.1784 -0.2969
  162MOL0     H21828   7.138   2.952   6.404  1.1231  1.7180 -0.7446
  162MOL0     H21829   7.106   2.966   6.582 -2.3969  1.5210 -1.1735
  162MOL0     H21830   7.232   3.014   6.734 -1.4616 -1.7371 -3.0204
  162MOL0     H21831   7.306   2.922   7.041  1.1672 -3.0413 -3.7766
  162MOL0     H21832   7.402   3.073   7.035 -1.7969  0.1737  1.9598
  162MOL0     H21833   7.250   3.075   6.953  2.9210  3.4856 -1.6862
  162MOL0     H21834   7.809   2.768   7.119  0.6559 -0.7497 -0.6164
  162MOL0     H21835   8.026   2.754   7.252  2.7192  1.0421  0.1653
  162MOL0     H21836   8.162   2.798   7.414  0.3149 -0.8732  0.7210
  162MOL0     H21837   8.261   2.725   7.288  0.0905  0.4977 -1.7552
  162MOL0     H21838   8.384   2.765   7.499 -3.8392  0.1458  0.8590
  162MOL0     H21839   8.453   2.827   7.347 -1.1135 -0.4671 -0.6670
  162MOL0     H21840   8.298   3.020   7.538 -0.3472 -1.0296 -1.7895
  162MOL0     H21841   8.399   3.070   7.409  0.3543 -1.6841 -2.1240
  162MOL0     H21842   8.491   3.071   7.657 -1.6548 -1.2261  0.9953
  162MOL0     H21843   8.516   2.898   7.639  1.3755  0.0793  1.0175
  162MOL0     H21844   8.660   3.139   7.480 -2.8169 -0.2919 -3.8705
  162MOL0     H21845   8.650   2.984   7.413 -0.5750  0.2502 -0.7575
  162MOL0     H21846   8.717   3.023   7.713 -0.9451  0.9870 -0.1357
  162MOL0     H21847   8.760   2.884   7.602  1.6636  0.8184 -3.5749
  162MOL0     H21848   8.949   3.031   7.661 -1.5710  0.6847  1.0903
  162MOL0     H21849   8.870   3.174   7.596 -0.0564 -0.2226  0.2144
  162MOL0     H21850   8.985   2.946   7.422  4.3883  0.3985  3.3361
  162MOL0     H21851   9.061   3.090   7.467 -0.0072 -0.7670  0.6663
  162MOL0     H21852   8.159   3.106   7.033 -3.5063  1.2276 -4.1771
  162MOL0     H21853   7.974   3.098   6.913  1.4450 -1.0023 -0.1724
  162MOL0     H21854   7.689   2.846   6.709  0.1433 -0.5437 -3.0722
  162MOL0     H21855   7.546   2.870   6.495 -0.6497  1.3502 -0.1032
  162MOL0     H21856   7.216   4.711   6.143  3.1203  1.8175 -0.3763
  162MOL0     H21857   7.267   4.863   5.967 -1.2230 -0.7917 -1.7360
  162MOL0     H21858   7.764   4.924   5.717 -2.4471 -2.2170 -0.2481
  162MOL0     H21859   7.851   5.118   5.610  0.1450 -3.0119 -0.5675
  162MOL0     H21860   7.820   5.451   5.529  0.7056  0.7867 -0.1725
  162MOL0     H21861   7.882   5.283   5.498  0.7010  0.4291 -1.2115
  162MOL0     H21862   7.762   5.496   5.312  1.8821  3.8752  2.6650
  162MOL0     H21863   7.794   5.339   5.244  2.0226 -0.0073 -1.5822
  162MOL0     H21864   8.009   5.529   5.356 -1.5148 -1.0953  1.9825
  162MOL0     H21865   7.968   5.487   5.187 -1.0387 -2.4302 -0.7226
  162MOL0     H21866   8.021   5.232   5.254 -2.2163 -0.8998  3.6230
  162MOL0     H21867   8.076   5.301   5.400 -0.9819 -1.9658 -0.6519
  162MOL0     H21868   8.407   5.394   5.180  1.0392 -4.1598 -0.2275
  162MOL0     H21869   7.458   5.251   5.536 -0.8008  0.4173  0.7831
  162MOL0     H21870   7.369   5.046   5.685 -0.6676  2.4655  1.3824
  163MOL0     O21871   1.564   2.116   7.461 -0.1560  0.1501 -0.0861
  163MOL0     C21872   1.493   2.055   7.383 -0.1059 -0.2190  0.7515
  163MOL0     O21873   1.400   1.958   7.417 -0.2343  0.2965 -0.1426
  163MOL0     C21874   1.364   1.947   7.545 -0.7670  0.5070  0.7810
  163MOL0     C21875   1.451   1.923   7.658  0.7474 -0.1276  0.1257
  163MOL0     C21876   1.390   1.878   7.783  0.2590  0.9055  1.2913
  163MOL0     C21877   1.249   1.853   7.792 -0.2847 -0.0542 -0.5992
  163MOL0     O21878   1.210   1.811   7.917  0.0339  0.2419 -0.3404
  163MOL0     C21879   1.082   1.752   7.925  0.5645 -0.6562 -1.3782
  163MOL0     C21880   1.083   1.736   8.086  0.3279  0.1415  1.2798
  163MOL0     C21881   0.959   1.662   8.138 -0.4531 -0.3769 -0.0796
  163MOL0     C21882   0.829   1.711   8.085  1.0894  0.1267 -0.2768
  163MOL0     C21883   0.711   1.652   8.157 -0.8440 -0.4925 -0.9336
  163MOL0     C21884   0.578   1.669   8.085 -0.2026 -0.0786 -0.5735
  163MOL0     C21885   0.450   1.632   8.169 -0.0888  0.2916 -0.6314
  163MOL0     C21886   0.315   1.688   8.109 -0.4514  0.7173 -0.6347
  163MOL0     N21887   0.211   1.661   8.202  0.4641 -0.6051 -0.0374
  163MOL0     C21888   0.151   1.535   8.204 -0.4643  0.5897 -0.3111
  163MOL0     C21889   0.081   1.537   8.323 -0.3939 -0.1645 -0.3974
  163MOL0     C21890   0.022   1.427   8.397  1.0574 -0.8524 -1.2957
  163MOL0     C21891   0.124   1.323   8.455  0.2174 -0.2630 -0.0600
  163MOL0     C21892   0.154   1.343   8.604 -0.0867 -0.4469  0.1374
  163MOL0     C21893   0.144   1.212   8.676 -0.1736 -0.5244  0.2037
  163MOL0     O21894   0.013   1.168   8.694 -0.1835  0.4606  0.2390
  163MOL0     C21895  -0.071   1.205   8.798 -0.7513 -0.8203 -0.2338
  163MOL0     C21896  -0.020   1.281   8.913 -0.8614 -0.0092  0.3670
  163MOL0     C21897  -0.103   1.299   9.028  0.5011 -0.1776  0.6394
  163MOL0     C21898  -0.054   1.372   9.146  0.9518  0.2443 -0.8735
  163MOL0     C21899  -0.237   1.256   9.022  0.3377  0.2584 -0.8833
  163MOL0     C21900  -0.329   1.286   9.131  0.1565 -0.6116 -0.2779
  163MOL0     O21901  -0.356   1.415   9.145  0.5310 -0.6008 -0.1301
  163MOL0     C21902  -0.458   1.462   9.223  0.0780  0.2450 -0.9024
  163MOL0     C21903  -0.438   1.469   9.362  0.4102  0.0053 -0.1378
  163MOL0     C21904  -0.539   1.504   9.447  0.0551  0.4808  0.3705
  163MOL0     C21905  -0.663   1.544   9.396 -0.3738 -0.5412  0.2203
  163MOL0     O21906  -0.772   1.580   9.469 -0.4244 -0.2398 -0.8939
  163MOL0     C21907  -0.751   1.596   9.606  0.4894  0.0195  0.3515
  163MOL0     C21908  -0.760   1.473   9.686 -0.1109 -0.0776  0.4005
  163MOL0     C21909  -0.903   1.416   9.678 -0.4212  0.1750 -0.4049
  163MOL0     C21910  -0.902   1.270   9.708  0.6591 -0.3671 -0.2158
  163MOL0     C21911  -1.036   1.205   9.687 -0.0728  0.0649  1.0232
  163MOL0     C21912  -1.028   1.050   9.684  0.2709 -0.1344  0.1708
  163MOL0     C21913  -1.149   0.981   9.615 -1.1995 -0.4111  0.8698
  163MOL0     C21914  -1.287   1.000   9.689  0.4980 -0.2657  0.4853
  163MOL0    Cl21915  -1.280   0.955   9.862  0.3413 -0.0233  0.3182
  163MOL0     C21916  -0.671   1.548   9.252 -0.3035  0.2123  0.6491
  163MOL0     C21917  -0.576   1.487   9.174  0.0796 -0.0925  0.0232
  163MOL0     O21918  -0.379   1.193   9.198 -0.4489 -0.5963 -0.4787
  163MOL0     C21919  -0.281   1.186   8.914 -1.3832 -0.8175  0.0243
  163MOL0     C21920  -0.201   1.154   8.805  0.1543  0.6143  0.4056
  163MOL0     N21921   0.082   1.665   8.378  0.4867 -0.0077 -0.0588
  163MOL0     N21922   0.160   1.738   8.306  0.8457  0.2484 -0.0338
  163MOL0     C21923   1.172   1.894   7.685  0.1864  0.7572  1.0175
  163MOL0     C21924   1.228   1.939   7.562  0.9348  0.0110 -0.8705
  163MOL0     C21925   1.496   2.069   7.240  0.8469  0.4768  0.2154
  163MOL0     C21926   1.610   2.141   7.188  0.7521 -0.7214  0.2083
  163MOL0     C21927   1.615   2.153   7.053  0.3021 -0.3165 -0.3911
  163MOL0     C21928   1.522   2.107   6.961 -1.4492 -0.0322  0.8623
  163MOL0     O21929   1.559   2.128   6.830 -0.4789  0.4906 -0.1855
  163MOL0     C21930   1.462   2.076   6.741  0.6725 -0.6827  1.2924
  163MOL0     C21931   1.515   2.074   6.595  0.3027  0.4067 -0.3595
  163MOL0     C21932   1.405   2.047   6.495  0.2210 -0.1215 -0.2462
  163MOL0     C21933   1.455   2.026   6.351 -0.6742 -0.3862 -0.2444
  163MOL0     C21934   1.529   1.903   6.320  0.2202  0.1205 -0.0653
  163MOL0     C21935   1.588   1.809   6.279 -0.7565 -0.3465  0.0939
  163MOL0     C21936   1.406   2.043   7.011 -0.6877  0.5469  0.1748
  163MOL0     C21937   1.399   2.021   7.144 -0.1792 -0.0241  0.7143
  163MOL0     H21938   1.559   1.929   7.658  0.8308 -1.2801  0.5473
  163MOL0     H21939   1.456   1.857   7.867 -0.9763 -3.7196  1.3783
  163MOL0     H21940   1.001   1.819   7.894  0.6635  0.1156 -0.0673
  163MOL0     H21941   1.076   1.656   7.873  1.9729 -0.8740 -1.1754
  163MOL0     H21942   1.167   1.677   8.125  1.9175  2.0420  0.9185
  163MOL0     H21943   1.086   1.833   8.138  2.8451 -0.1852  1.8760
  163MOL0     H21944   0.979   1.558   8.109  2.2786  0.1760 -0.4824
  163MOL0     H21945   0.963   1.665   8.247  0.1330 -3.0384  0.0380
  163MOL0     H21946   0.833   1.820   8.087 -1.1288  0.2491 -0.3391
  163MOL0     H21947   0.802   1.691   7.981 -1.4837  0.7323  0.2164
  163MOL0     H21948   0.744   1.551   8.181  1.2252  1.1079  4.6991
  163MOL0     H21949   0.695   1.692   8.258  0.2649  0.9323 -1.2770
  163MOL0     H21950   0.583   1.777   8.065  1.3795 -0.1759 -0.7838
  163MOL0     H21951   0.575   1.608   7.994  0.7468  0.4242 -0.9572
  163MOL0     H21952   0.450   1.523   8.156  2.7279 -0.0562  1.4234
  163MOL0     H21953   0.456   1.658   8.275  3.7494 -0.6078 -0.4984
  163MOL0     H21954   0.304   1.629   8.017  1.6673 -0.9546  0.0951
  163MOL0     H21955   0.325   1.797   8.097 -0.1992  0.6123 -1.5087
  163MOL0     H21956   0.173   1.444   8.149  0.9944 -0.4894  1.9198
  163MOL0     H21957  -0.031   1.476   8.479 -1.1084 -0.3114 -2.9105
  163MOL0     H21958  -0.051   1.371   8.337  1.0974 -1.2058 -1.0194
  163MOL0     H21959   0.224   1.319   8.412 -0.4379  1.1352 -1.8329
  163MOL0     H21960   0.085   1.222   8.440  3.0787 -1.5446  0.4512
  163MOL0     H21961   0.081   1.403   8.659 -2.2954 -1.7625 -1.2227
  163MOL0     H21962   0.254   1.388   8.613  0.4197 -0.3049 -4.2253
  163MOL0     H21963   0.194   1.223   8.772 -0.0151  1.4586 -0.0800
  163MOL0     H21964   0.204   1.137   8.623 -0.4468  0.5445 -1.6899
  163MOL0     H21965   0.080   1.323   8.913 -1.0027  0.3554 -0.8652
  163MOL0     H21966  -0.082   1.319   9.237  1.7517 -0.2229 -0.8900
  163MOL0     H21967   0.055   1.380   9.154  0.8622  1.1620 -0.4276
  163MOL0     H21968  -0.092   1.475   9.147  1.6174  0.4977  0.0493
  163MOL0     H21969  -0.334   1.450   9.387  1.6197  1.9828 -3.1576
  163MOL0     H21970  -0.523   1.497   9.554 -1.2446 -2.0688  0.4662
  163MOL0     H21971  -0.666   1.659   9.630  0.2954  2.5272 -4.4400
  163MOL0     H21972  -0.838   1.656   9.635 -1.2856 -0.4495 -3.3485
  163MOL0     H21973  -0.682   1.405   9.650  0.8333  0.9395  0.5054
  163MOL0     H21974  -0.736   1.494   9.791 -0.2478 -0.7714  0.5751
  163MOL0     H21975  -0.944   1.434   9.578  1.1118  0.5112 -1.0028
  163MOL0     H21976  -0.965   1.473   9.748 -0.8413  1.9089 -2.1095
  163MOL0     H21977  -0.827   1.224   9.643  1.6999  0.6552  0.2430
  163MOL0     H21978  -0.868   1.256   9.811  2.7397 -2.3076 -1.0915
  163MOL0     H21979  -1.076   1.243   9.592  3.4515  1.3461 -0.0888
  163MOL0     H21980  -1.101   1.214   9.775 -0.8540 -3.7665  0.9957
  163MOL0     H21981  -0.933   1.028   9.635 -0.4597 -0.5975 -1.0677
  163MOL0     H21982  -1.027   1.011   9.786  0.2318 -3.4531 -1.0076
  163MOL0     H21983  -1.132   0.874   9.598 -5.0128 -0.6773 -3.0067
  163MOL0     H21984  -1.170   1.039   9.525 -1.3862 -0.9761  0.5426
  163MOL0     H21985  -1.360   0.943   9.630  0.3912 -0.9895  1.2966
  163MOL0     H21986  -1.318   1.105   9.689  4.3810  1.0158  0.8268
  163MOL0     H21987  -0.759   1.593   9.209  0.0117  0.1609 -0.0706
  163MOL0     H21988  -0.604   1.472   9.070  1.2260 -1.0882 -0.1483
  163MOL0     H21989  -0.387   1.161   8.912 -1.5275 -0.2264 -1.8140
  163MOL0     H21990  -0.242   1.108   8.715  0.1960  1.4570 -0.0537
  163MOL0     H21991   1.065   1.881   7.699  0.1291  0.5950  0.4651
  163MOL0     H21992   1.160   1.972   7.485 -0.3271  2.1875  1.0413
  163MOL0     H21993   1.696   2.182   7.240 -0.4585 -0.6819  2.2793
  163MOL0     H21994   1.689   2.211   6.998  1.7152 -0.2264  1.5357
  163MOL0     H21995   1.444   1.970   6.763 -3.3069 -1.6678 -4.4963
  163MOL0     H21996   1.364   2.123   6.747  0.8633 -0.0783  0.0131
  163MOL0     H21997   1.597   2.002   6.591 -0.3890 -0.4325  0.2073
  163MOL0     H21998   1.556   2.172   6.567  1.0651  0.3349  0.4449
  163MOL0     H21999   1.346   2.139   6.499  1.9607  1.1020 -1.4418
  163MOL0     H22000   1.344   1.960   6.523  3.0685 -1.7683  1.2789
  163MOL0     H22001   1.527   2.104   6.326 -0.8560 -0.3202 -0.5651
  163MOL0     H22002   1.378   2.038   6.275 -0.5507  0.6330 -0.2175
  163MOL0     H22003   1.650   1.731   6.240 -0.0259 -0.4485  1.3826
  163MOL0     H22004   1.322   2.006   6.954 -3.5931  2.5196  2.8499
  163MOL0     H22005   1.303   1.982   7.178  0.3070  1.2502  3.9115
  164MOL0     O22006   5.394   9.132   7.158  0.0950 -0.3279  0.3103
  164MOL0     C22007   5.341   9.060   7.248 -0.5888  1.0221 -0.3868
  164MOL0     O22008   5.348   8.923   7.256 -0.5256 -0.1726  0.3061
  164MOL0     C22009   5.413   8.860   7.151  0.3332 -1.0051  0.4231
  164MOL0     C22010   5.342   8.753   7.100 -0.3973 -0.8004 -0.2280
  164MOL0     C22011   5.409   8.677   7.001 -0.9001  0.1340 -0.2642
  164MOL0     C22012   5.535   8.701   6.950 -0.5689  0.6593  0.3478
  164MOL0     O22013   5.575   8.626   6.834  0.6590 -0.1785  0.6163
  164MOL0     C22014   5.700   8.650   6.775 -0.0335  0.1901  1.1058
  164MOL0     C22015   5.739   8.583   6.649  0.4822  0.5773  0.2099
  164MOL0     C22016   5.639   8.594   6.537  0.1461 -0.3351  0.1262
  164MOL0     C22017   5.562   8.728   6.528 -0.7462  0.9757 -0.5496
  164MOL0     C22018   5.477   8.731   6.397 -0.0763 -0.7810 -0.1760
  164MOL0     C22019   5.438   8.879   6.381 -0.2972  0.2051 -0.1082
  164MOL0     C22020   5.350   8.896   6.254  0.1496 -1.3065  0.4677
  164MOL0     C22021   5.205   8.842   6.260  0.3566  0.9888 -0.3091
  164MOL0     N22022   5.127   8.861   6.138  0.1092  0.5210  0.5488
  164MOL0     C22023   5.060   8.976   6.102 -0.5392  0.2360  0.6053
  164MOL0     C22024   4.993   8.946   5.986  0.6254  0.3504  0.4779
  164MOL0     C22025   4.892   9.017   5.903 -0.3953 -0.7190 -0.2161
  164MOL0     C22026   4.750   8.987   5.958  0.1860  0.2971 -0.3940
  164MOL0     C22027   4.704   8.839   5.951  0.6142 -0.3068  0.3383
  164MOL0     C22028   4.619   8.799   6.074  0.1103  0.1098 -0.0520
  164MOL0     O22029   4.665   8.856   6.200  0.3205  0.2659  0.5149
  164MOL0     C22030   4.770   8.795   6.257  0.6681  0.6812  0.6891
  164MOL0     C22031   4.846   8.686   6.198  0.6232  0.9851  0.2717
  164MOL0     C22032   4.952   8.637   6.272 -0.3093 -0.3424 -0.6605
  164MOL0     C22033   5.015   8.506   6.223  0.1217 -0.3783 -0.3198
  164MOL0     C22034   4.980   8.685   6.410 -0.2547  0.2766  0.3464
  164MOL0     C22035   5.084   8.626   6.498  0.1204  0.0229  0.1519
  164MOL0     O22036   5.066   8.497   6.517  0.0589  0.2007  1.3589
  164MOL0     C22037   5.165   8.410   6.565 -0.0091 -0.9780 -0.6228
  164MOL0     C22038   5.259   8.449   6.667 -1.0517 -0.3588 -0.1086
  164MOL0     C22039   5.350   8.350   6.714  0.2830 -0.2169 -0.8425
  164MOL0     C22040   5.346   8.220   6.670 -0.6877  0.1834 -0.1571
  164MOL0     O22041   5.449   8.134   6.711  0.3079  0.0874  0.5997
  164MOL0     C22042   5.406   8.051   6.813  0.3897 -0.3790 -0.1241
  164MOL0     C22043   5.382   8.112   6.952  0.1209  0.0652  0.7394
  164MOL0     C22044   5.389   8.010   7.068 -0.5960  0.0648 -0.6841
  164MOL0     C22045   5.286   7.895   7.047  0.6609 -0.1185  0.1218
  164MOL0     C22046   5.283   7.789   7.157  0.2339 -0.7046 -0.2484
  164MOL0     C22047   5.394   7.680   7.144  0.1996  0.4450 -1.2781
  164MOL0     C22048   5.366   7.571   7.244 -0.2667 -0.0778  0.4188
  164MOL0     C22049   5.484   7.476   7.266 -0.4920  0.9202  0.0508
  164MOL0    Cl22050   5.600   7.548   7.368 -0.2724  0.0848  0.1984
  164MOL0     C22051   5.241   8.180   6.586  0.6613  0.4513  0.0069
  164MOL0     C22052   5.149   8.275   6.538  0.0805 -0.2015  0.7562
  164MOL0     O22053   5.165   8.702   6.558 -0.0237  0.3802 -0.4494
  164MOL0     C22054   4.911   8.791   6.455 -0.7041 -0.2660  0.0661
  164MOL0     C22055   4.813   8.845   6.371  0.3871 -0.2482 -0.1338
  164MOL0     N22056   5.034   8.815   5.954 -0.6547  0.1245 -0.0800
  164MOL0     N22057   5.119   8.772   6.041 -0.1420  0.5173  0.9140
  164MOL0     C22058   5.599   8.817   6.999 -0.1461  0.8298  0.0920
  164MOL0     C22059   5.538   8.890   7.094  0.0053  0.1745 -0.3120
  164MOL0     C22060   5.267   9.136   7.353 -1.4501 -0.0771 -0.0386
  164MOL0     C22061   5.272   9.277   7.355  0.1694 -0.3274 -0.5359
  164MOL0     C22062   5.206   9.343   7.454  0.7384  0.3711  0.0022
  164MOL0     C22063   5.131   9.275   7.554 -0.1269  0.1697  0.6102
  164MOL0     O22064   5.072   9.318   7.668  0.1781  0.4637  0.0785
  164MOL0     C22065   5.131   9.434   7.720  0.3245  0.0541  0.2344
  164MOL0     C22066   5.126   9.439   7.871 -0.2967  0.4277  0.6721
  164MOL0     C22067   5.188   9.314   7.934 -0.0978  0.1689 -0.0933
  164MOL0     C22068   5.086   9.202   7.951  0.1372  0.1278 -0.6241
  164MOL0     C22069   5.125   9.102   8.051 -0.1803 -0.1031 -0.1880
  164MOL0     C22070   5.160   9.004   8.117  0.5064 -0.0030 -0.5231
  164MOL0     C22071   5.124   9.136   7.549  0.5984  0.8564  0.1672
  164MOL0     C22072   5.190   9.068   7.445 -0.2224 -0.4695 -0.2409
  164MOL0     H22073   5.242   8.725   7.130 -0.3880 -1.3707 -0.7116
  164MOL0     H22074   5.354   8.598   6.951 -4.6296 -0.0555  3.5005
  164MOL0     H22075   5.701   8.760   6.769 -2.1880  0.1789 -0.9074
  164MOL0     H22076   5.772   8.632   6.855 -1.1564 -0.1893  2.0584
  164MOL0     H22077   5.832   8.628   6.614  0.4807  0.1738 -0.3399
  164MOL0     H22078   5.773   8.479   6.657  2.2874  1.0227 -1.0622
  164MOL0     H22079   5.689   8.577   6.442 -2.6676  1.5155 -1.8445
  164MOL0     H22080   5.557   8.522   6.548 -0.1404  0.0986  0.9057
  164MOL0     H22081   5.494   8.744   6.613  0.1652  1.1373  0.1697
  164MOL0     H22082   5.639   8.805   6.526 -0.2750  0.5972  1.1109
  164MOL0     H22083   5.528   8.688   6.310  1.1835 -2.1341  1.1716
  164MOL0     H22084   5.382   8.676   6.401 -1.2335  0.3991 -4.8348
  164MOL0     H22085   5.379   8.916   6.466  3.0483 -0.3390  2.6816
  164MOL0     H22086   5.531   8.934   6.365 -0.8349  0.7679 -1.3576
  164MOL0     H22087   5.351   9.002   6.226  0.4726 -1.3161  0.4311
  164MOL0     H22088   5.397   8.846   6.168  2.6798 -2.0072  2.1522
  164MOL0     H22089   5.153   8.895   6.341  1.1141 -1.2907  1.7850
  164MOL0     H22090   5.196   8.736   6.284 -2.0502  0.8600 -1.4934
  164MOL0     H22091   5.052   9.061   6.168  0.2243  0.8826 -0.1182
  164MOL0     H22092   4.905   9.125   5.894 -0.6674 -0.7035 -0.4252
  164MOL0     H22093   4.895   8.974   5.803 -0.1231  0.9228 -0.9484
  164MOL0     H22094   4.681   9.049   5.899  1.2043 -1.1115 -3.2533
  164MOL0     H22095   4.754   9.018   6.063 -1.1855  1.3081 -0.6145
  164MOL0     H22096   4.787   8.770   5.931  1.3167  1.2787 -2.9462
  164MOL0     H22097   4.640   8.834   5.862  0.8760  0.5717  0.0879
  164MOL0     H22098   4.611   8.690   6.086 -1.2232  0.2723  0.7204
  164MOL0     H22099   4.515   8.826   6.051 -0.3772 -2.8393 -1.9354
  164MOL0     H22100   4.826   8.643   6.100 -0.5538 -2.4881  1.8704
  164MOL0     H22101   5.009   8.513   6.114 -0.1828  0.6372 -0.2408
  164MOL0     H22102   5.117   8.497   6.262 -0.8954 -1.8925  2.2575
  164MOL0     H22103   4.961   8.418   6.260  1.0191 -0.2824  1.3182
  164MOL0     H22104   5.260   8.550   6.706 -2.4668 -1.4949  3.1849
  164MOL0     H22105   5.424   8.384   6.785 -1.2670  0.5468  0.4810
  164MOL0     H22106   5.311   8.006   6.783 -0.1832  1.0627 -0.5717
  164MOL0     H22107   5.481   7.975   6.836  3.8458  2.0849 -2.2718
  164MOL0     H22108   5.465   8.183   6.965 -0.8611  1.9380 -2.2980
  164MOL0     H22109   5.288   8.167   6.952 -0.5769 -1.0092 -1.6237
  164MOL0     H22110   5.368   8.055   7.165  1.3484  0.7258 -0.5180
  164MOL0     H22111   5.494   7.981   7.075 -0.5457  0.6959  2.2583
  164MOL0     H22112   5.181   7.922   7.031 -0.2023 -1.5148  2.8414
  164MOL0     H22113   5.316   7.832   6.963  1.5571 -2.2400  1.9353
  164MOL0     H22114   5.186   7.738   7.158  0.7197 -2.0260 -3.8755
  164MOL0     H22115   5.300   7.846   7.249  1.0947 -1.8813  0.3544
  164MOL0     H22116   5.382   7.648   7.041 -0.3794  3.0828 -2.1141
  164MOL0     H22117   5.489   7.723   7.177  0.8053 -1.1426 -0.8300
  164MOL0     H22118   5.283   7.515   7.199  0.5629  0.4140 -1.8407
  164MOL0     H22119   5.339   7.617   7.340 -1.0280 -0.9510  0.6392
  164MOL0     H22120   5.527   7.456   7.167  0.0225  0.5711  0.3421
  164MOL0     H22121   5.459   7.376   7.302  0.7244  0.5060 -0.1947
  164MOL0     H22122   5.245   8.076   6.558  2.6101  0.3822  0.3881
  164MOL0     H22123   5.059   8.233   6.494  2.0946 -1.6057 -2.4464
  164MOL0     H22124   4.934   8.836   6.551  0.7039 -1.9748  0.5875
  164MOL0     H22125   4.771   8.942   6.399 -2.7157 -1.4021 -0.3910
  164MOL0     H22126   5.695   8.849   6.961 -0.3813  2.2518  0.6587
  164MOL0     H22127   5.587   8.982   7.126  1.1212  0.2334 -2.0174
  164MOL0     H22128   5.327   9.332   7.279 -1.6334  2.0040 -0.2552
  164MOL0     H22129   5.195   9.451   7.442  0.5867  0.3516 -0.0334
  164MOL0     H22130   5.235   9.448   7.690  1.0162  1.8993  3.1191
  164MOL0     H22131   5.068   9.516   7.684 -1.6752 -1.5610 -0.0919
  164MOL0     H22132   5.021   9.442   7.901 -1.5981 -2.2063 -2.9086
  164MOL0     H22133   5.172   9.535   7.895 -0.7708 -0.0627  4.0707
  164MOL0     H22134   5.233   9.342   8.030  1.2041  0.4736 -0.7697
  164MOL0     H22135   5.269   9.267   7.879  0.0161  1.8493 -1.4653
  164MOL0     H22136   5.064   9.157   7.854 -1.3713 -0.4776 -0.0322
  164MOL0     H22137   4.986   9.232   7.982 -1.4557 -4.3245 -0.7344
  164MOL0     H22138   5.191   8.912   8.163 -0.1780 -0.8273 -1.6408
  164MOL0     H22139   5.063   9.072   7.612  2.0941 -1.0055 -0.1480
  164MOL0     H22140   5.176   8.961   7.440 -1.3211 -0.4257  1.3116
  165MOL0     O22141   0.319   5.481   8.205  0.0913 -0.5169 -0.0190
  165MOL0     C22142   0.351   5.589   8.247  0.0702 -0.3214  0.7372
  165MOL0     O22143   0.260   5.697   8.263 -0.4679  0.3885 -0.6298
  165MOL0     C22144   0.133   5.674   8.214 -0.1503  0.1102 -0.0262
  165MOL0     C22145   0.108   5.634   8.086  0.3185 -1.4519 -0.2364
  165MOL0     C22146  -0.023   5.603   8.036 -1.2421  0.4613 -0.0312
  165MOL0     C22147  -0.127   5.617   8.126  0.1995 -0.1300  0.5118
  165MOL0     O22148  -0.249   5.569   8.089 -0.0370  0.4064  0.1680
  165MOL0     C22149  -0.333   5.643   7.993  0.1168  0.9312 -0.6810
  165MOL0     C22150  -0.422   5.733   8.077  0.3498 -0.4424  0.3844
  165MOL0     C22151  -0.534   5.667   8.161  1.0871 -0.8202 -0.2619
  165MOL0     C22152  -0.668   5.640   8.074 -0.6423 -0.4502 -0.8534
  165MOL0     C22153  -0.742   5.514   8.126  0.3460 -0.6917 -0.3006
  165MOL0     C22154  -0.711   5.384   8.044  1.0195  0.1994 -0.3880
  165MOL0     C22155  -0.563   5.349   8.071 -0.4168  0.5944 -0.1585
  165MOL0     C22156  -0.518   5.230   7.989 -0.4144  0.5130 -0.1185
  165MOL0     N22157  -0.374   5.207   8.017  0.5928  0.8345  0.1675
  165MOL0     C22158  -0.265   5.265   7.964 -0.2480 -0.2313  0.2726
  165MOL0     C22159  -0.155   5.200   8.020  0.9729  0.0974 -0.2163
  165MOL0     C22160  -0.012   5.239   7.995  0.0336  0.3462  0.0679
  165MOL0     C22161   0.094   5.136   8.017 -0.4651  0.2510 -0.5304
  165MOL0     C22162   0.236   5.193   7.999  0.0194 -0.2484  1.2125
  165MOL0     C22163   0.278   5.195   7.849  0.6080 -1.0162  0.2808
  165MOL0     O22164   0.377   5.300   7.826  0.0424 -0.4101  0.2639
  165MOL0     C22165   0.496   5.291   7.892  0.1539 -0.0365  0.2901
  165MOL0     C22166   0.567   5.412   7.899  0.0031  0.8561  0.0930
  165MOL0     C22167   0.696   5.414   7.946 -0.5415  0.2409  0.3132
  165MOL0     C22168   0.768   5.544   7.940 -0.6884  0.0825  0.2812
  165MOL0     C22169   0.755   5.298   7.991 -0.2138  0.7824  0.1031
  165MOL0     C22170   0.898   5.297   8.037  0.3171  0.1161 -0.7254
  165MOL0     O22171   0.972   5.182   8.016 -0.5035  0.1640 -0.2026
  165MOL0     C22172   1.100   5.152   8.061 -0.0883  0.3098 -0.1971
  165MOL0     C22173   1.140   5.184   8.188  0.4889 -0.1477  0.5840
  165MOL0     C22174   1.274   5.162   8.228 -0.9916 -0.4834  0.3251
  165MOL0     C22175   1.365   5.102   8.140 -0.0584  0.2324  0.0873
  165MOL0     O22176   1.494   5.074   8.152  0.7251 -0.5430 -0.5499
  165MOL0     C22177   1.535   5.067   8.289 -0.5053 -0.0056  0.4340
  165MOL0     C22178   1.678   5.014   8.303 -0.6189 -0.4978 -0.3948
  165MOL0     C22179   1.722   4.976   8.440 -0.5054  0.0160 -1.2242
  165MOL0     C22180   1.863   4.931   8.450 -0.7864 -0.5196 -0.2285
  165MOL0     C22181   1.914   4.912   8.594  0.3815 -0.0356  0.6895
  165MOL0     C22182   1.922   5.033   8.687 -0.3691  0.7797  0.0574
  165MOL0     C22183   2.013   4.978   8.798 -1.1358  0.1627 -0.7061
  165MOL0     C22184   2.063   5.081   8.907  0.8647 -0.1455 -0.0114
  165MOL0    Cl22185   1.924   5.189   8.948 -0.1016 -0.0693 -0.1572
  165MOL0     C22186   1.322   5.060   8.015  0.1431 -0.4178  0.1442
  165MOL0     C22187   1.190   5.089   7.978 -0.3191  0.3832 -0.0070
  165MOL0     O22188   0.925   5.388   8.116  0.1279 -0.7738 -0.1085
  165MOL0     C22189   0.690   5.175   7.975  0.8834 -0.0730  0.2608
  165MOL0     C22190   0.560   5.173   7.921  0.2200 -0.0689  0.6924
  165MOL0     N22191  -0.203   5.103   8.105 -0.2707 -0.4347 -0.0719
  165MOL0     N22192  -0.329   5.108   8.106  0.1449  0.8062 -0.1051
  165MOL0     C22193  -0.107   5.661   8.256 -0.0430  0.1829 -0.1945
  165MOL0     C22194   0.019   5.683   8.304 -0.4204  0.2652  0.3881
  165MOL0     C22195   0.491   5.602   8.275 -0.5051 -0.2172 -0.7298
  165MOL0     C22196   0.551   5.728   8.305 -0.0105 -0.3245 -0.2332
  165MOL0     C22197   0.684   5.741   8.343  0.7009 -0.1217 -0.0413
  165MOL0     C22198   0.769   5.631   8.358  0.1665  0.1110 -0.7706
  165MOL0     O22199   0.893   5.650   8.405  0.6271 -0.2317 -0.2264
  165MOL0     C22200   0.986   5.542   8.422 -0.0758 -0.5730 -0.2716
  165MOL0     C22201   1.130   5.597   8.443  0.7897 -0.2817  0.4113
  165MOL0     C22202   1.160   5.593   8.597  0.6786  0.1311  0.0820
  165MOL0     C22203   1.304   5.605   8.626 -0.1674 -0.1545  1.3540
  165MOL0     C22204   1.395   5.486   8.619  0.7340 -0.4135  0.2236
  165MOL0     C22205   1.466   5.393   8.587 -0.6370  0.9074  0.4537
  165MOL0     C22206   0.715   5.501   8.334  0.0428 -0.4553  0.1354
  165MOL0     C22207   0.578   5.483   8.295  0.9354 -1.1255 -0.2809
  165MOL0     H22208   0.193   5.625   8.018  0.5624  0.7306 -0.2874
  165MOL0     H22209  -0.031   5.572   7.932  0.4204  0.2777 -0.1335
  165MOL0     H22210  -0.261   5.694   7.928  2.4097 -1.6017 -0.3058
  165MOL0     H22211  -0.397   5.572   7.938 -0.6998  0.3537  0.9542
  165MOL0     H22212  -0.358   5.788   8.148  2.2015  1.4657 -2.5372
  165MOL0     H22213  -0.459   5.810   8.009  2.8872  0.6720  0.1216
  165MOL0     H22214  -0.499   5.569   8.195  2.5797 -1.0575 -2.3407
  165MOL0     H22215  -0.574   5.730   8.241 -1.7924 -1.2756 -1.2125
  165MOL0     H22216  -0.732   5.728   8.081 -2.1021 -1.0703 -4.2740
  165MOL0     H22217  -0.652   5.632   7.966 -0.0855  0.4578 -0.8477
  165MOL0     H22218  -0.736   5.496   8.234 -0.8660 -0.2986 -0.1548
  165MOL0     H22219  -0.846   5.538   8.102 -0.2486 -1.5201  1.2880
  165MOL0     H22220  -0.778   5.313   8.092  0.5830  0.9881  0.1902
  165MOL0     H22221  -0.729   5.392   7.937  1.1462 -0.7466 -0.4909
  165MOL0     H22222  -0.506   5.433   8.031  0.1745 -0.7400 -2.3139
  165MOL0     H22223  -0.555   5.331   8.178  3.3072 -1.7728 -0.6390
  165MOL0     H22224  -0.536   5.262   7.886  0.0191 -0.1087 -0.3895
  165MOL0     H22225  -0.560   5.131   8.009 -2.9668  1.3862 -0.7810
  165MOL0     H22226  -0.264   5.355   7.904  0.5979  0.0626  0.7221
  165MOL0     H22227  -0.009   5.272   7.890 -2.3827 -1.1371 -0.5309
  165MOL0     H22228   0.006   5.321   8.064  2.2593 -1.8464  2.2807
  165MOL0     H22229   0.079   5.047   7.955 -1.5260  1.3494 -1.9162
  165MOL0     H22230   0.084   5.104   8.121  4.3101  0.3155  0.1578
  165MOL0     H22231   0.303   5.132   8.059 -0.8773 -0.7411  1.7337
  165MOL0     H22232   0.236   5.295   8.038 -2.6266  0.9965 -1.6036
  165MOL0     H22233   0.199   5.229   7.781  1.0509  0.7696  0.6240
  165MOL0     H22234   0.314   5.099   7.812  2.0916  0.2125 -1.6121
  165MOL0     H22235   0.517   5.503   7.867  2.1028  1.2909 -2.2190
  165MOL0     H22236   0.869   5.542   7.898  0.0934  1.0937  2.0084
  165MOL0     H22237   0.719   5.605   7.864  1.7794  0.2812 -1.2386
  165MOL0     H22238   0.767   5.589   8.039  0.0843 -2.7246  1.6847
  165MOL0     H22239   1.078   5.240   8.258 -1.1334  1.7544 -2.2064
  165MOL0     H22240   1.312   5.204   8.321 -0.7011  0.3721 -0.1623
  165MOL0     H22241   1.534   5.162   8.344  1.3806  0.6474 -0.5812
  165MOL0     H22242   1.478   4.991   8.343  0.5391  1.0758  3.2910
  165MOL0     H22243   1.690   4.931   8.233 -2.3040  1.2962 -3.0384
  165MOL0     H22244   1.744   5.092   8.262 -0.0327 -2.1890 -2.9397
  165MOL0     H22245   1.644   4.910   8.479  0.4705  1.0239  3.0068
  165MOL0     H22246   1.713   5.068   8.499  2.0121 -0.6913  0.3927
  165MOL0     H22247   1.867   4.836   8.397  1.0869 -0.1271 -0.8680
  165MOL0     H22248   1.928   5.004   8.400 -0.4038 -0.6551  0.0605
  165MOL0     H22249   1.998   4.843   8.580 -0.2406 -0.2272 -3.0588
  165MOL0     H22250   1.839   4.848   8.641 -0.9619  0.4178 -0.7929
  165MOL0     H22251   1.973   5.111   8.630 -2.6294  1.2427 -1.4453
  165MOL0     H22252   1.826   5.072   8.721 -1.2744 -0.5653 -0.8519
  165MOL0     H22253   2.098   4.923   8.756 -1.9888  0.6769 -3.2605
  165MOL0     H22254   1.955   4.898   8.846 -2.1987 -0.3997 -2.8170
  165MOL0     H22255   2.154   5.126   8.865  1.2502 -3.5898 -3.4530
  165MOL0     H22256   2.094   5.030   8.999 -3.5562 -1.5925  0.9001
  165MOL0     H22257   1.379   4.995   7.949 -0.4081 -0.8311  0.0697
  165MOL0     H22258   1.159   5.061   7.877  1.4258  1.3478 -0.8703
  165MOL0     H22259   0.738   5.080   7.995  1.5974  0.2193 -0.0365
  165MOL0     H22260   0.518   5.077   7.892 -2.2525  1.5005 -1.1660
  165MOL0     H22261  -0.189   5.680   8.324 -0.2554  1.4371 -0.7767
  165MOL0     H22262   0.035   5.697   8.411  1.0760 -1.8574  0.5241
  165MOL0     H22263   0.510   5.827   8.319 -2.1026 -1.2403  0.4471
  165MOL0     H22264   0.703   5.844   8.372 -2.7253  1.1179 -1.6463
  165MOL0     H22265   0.962   5.470   8.500 -0.4776  0.8769  0.9808
  165MOL0     H22266   0.993   5.470   8.340  4.7907 -0.3106 -0.3848
  165MOL0     H22267   1.132   5.696   8.395 -0.8956 -0.3542  0.1502
  165MOL0     H22268   1.200   5.535   8.387  0.3986 -2.2984  2.0441
  165MOL0     H22269   1.126   5.500   8.644 -3.8087  0.5922 -1.7546
  165MOL0     H22270   1.097   5.668   8.646  0.2016 -1.4744  2.0877
  165MOL0     H22271   1.314   5.635   8.731 -0.7579  3.8573  0.4560
  165MOL0     H22272   1.339   5.694   8.572  0.3542  0.6606  2.9666
  165MOL0     H22273   1.540   5.319   8.563 -0.8979  0.5827  0.6493
  165MOL0     H22274   0.783   5.417   8.328 -0.1855 -0.6702  0.5602
  165MOL0     H22275   0.537   5.387   8.264 -3.5611 -0.4700  2.6964
  166MOL0     O22276   4.181   5.689   5.619  0.9456 -0.5529  0.8383
  166MOL0     C22277   4.059   5.709   5.588 -0.7349 -0.6043  0.4929
  166MOL0     O22278   3.957   5.662   5.660 -0.1205 -0.6457  0.0342
  166MOL0     C22279   3.973   5.599   5.785  0.9542 -0.3906 -0.5326
  166MOL0     C22280   4.070   5.509   5.825 -0.3815 -0.9282  0.2139
  166MOL0     C22281   4.071   5.459   5.955 -0.6299  0.1250 -0.5448
  166MOL0     C22282   3.961   5.474   6.042 -0.5534 -0.3818 -0.2904
  166MOL0     O22283   3.945   5.387   6.146  0.8810 -0.0712  0.0632
  166MOL0     C22284   4.051   5.344   6.229  0.0208 -0.3165  0.3806
  166MOL0     C22285   3.980   5.285   6.349  0.0039  0.0257 -1.3310
  166MOL0     C22286   4.077   5.210   6.439 -0.8285  0.0055  0.2705
  166MOL0     C22287   4.003   5.141   6.540  0.8997  0.8662  0.0280
  166MOL0     C22288   4.100   5.085   6.647  0.9619 -0.8345  0.5872
  166MOL0     C22289   4.031   5.015   6.759 -0.5149 -0.0195 -0.1083
  166MOL0     C22290   4.121   4.906   6.821  0.1114 -0.0293 -1.1504
  166MOL0     C22291   4.257   4.955   6.888 -0.3523  1.1407 -0.3271
  166MOL0     N22292   4.239   5.046   7.004  0.0770 -0.5520 -0.5354
  166MOL0     C22293   4.312   5.166   7.018  0.6158 -0.5460  0.6059
  166MOL0     C22294   4.292   5.205   7.146 -0.1427  0.0910 -0.2562
  166MOL0     C22295   4.345   5.320   7.212 -0.3300  0.5268 -0.9477
  166MOL0     C22296   4.369   5.426   7.115  0.2974 -0.9402  0.0045
  166MOL0     C22297   4.376   5.566   7.169  0.2178 -0.5820 -0.0491
  166MOL0     C22298   4.388   5.657   7.046 -0.3980 -1.0517  0.1716
  166MOL0     O22299   4.411   5.796   7.078  0.6079  0.5390  0.1929
  166MOL0     C22300   4.423   5.880   6.969 -0.2786  0.0064 -0.0646
  166MOL0     C22301   4.457   6.005   6.992 -0.0890 -0.5922  0.6156
  166MOL0     C22302   4.449   6.108   6.900 -0.6239 -0.0883 -0.1542
  166MOL0     C22303   4.534   6.237   6.943  0.8420 -0.4464  0.2680
  166MOL0     C22304   4.401   6.080   6.770 -0.2172  0.0065 -0.3279
  166MOL0     C22305   4.401   6.179   6.665 -0.4895 -0.0821 -0.2934
  166MOL0     O22306   4.399   6.122   6.535 -0.1231 -0.3127  0.1529
  166MOL0     C22307   4.361   6.184   6.420  0.4800  0.1246 -0.2017
  166MOL0     C22308   4.270   6.290   6.416 -0.2702  0.4746 -0.3275
  166MOL0     C22309   4.239   6.348   6.298  0.3610 -0.0363  0.3539
  166MOL0     C22310   4.282   6.295   6.175  0.4357  0.7921 -0.2462
  166MOL0     O22311   4.235   6.350   6.062 -0.1040 -0.5140 -0.3785
  166MOL0     C22312   4.331   6.364   5.961 -0.5955  0.4704 -0.6861
  166MOL0     C22313   4.275   6.457   5.845  0.4937 -0.0483 -0.0597
  166MOL0     C22314   4.268   6.598   5.889  0.5650 -0.2448  0.7951
  166MOL0     C22315   4.215   6.691   5.780  0.1114 -0.3266  0.4739
  166MOL0     C22316   4.235   6.835   5.833  0.3167 -0.2649  1.1561
  166MOL0     C22317   4.202   6.948   5.736 -0.6870  1.1534 -1.7411
  166MOL0     C22318   4.064   6.952   5.681 -0.1839  0.4022  0.1813
  166MOL0     C22319   4.031   7.090   5.616  1.1140  0.3850 -0.1229
  166MOL0    Cl22320   4.124   7.113   5.464  0.2751  0.1956  0.1475
  166MOL0     C22321   4.373   6.192   6.181 -0.0269 -0.4909  0.1674
  166MOL0     C22322   4.416   6.137   6.299  0.5871  0.3932 -0.1227
  166MOL0     O22323   4.390   6.299   6.690 -0.0861 -1.1997 -0.2279
  166MOL0     C22324   4.385   5.949   6.735 -0.4026  0.8231 -0.2908
  166MOL0     C22325   4.387   5.846   6.829  0.1299  0.4378 -1.0132
  166MOL0     N22326   4.199   5.113   7.206 -0.0891  0.8605  0.1597
  166MOL0     N22327   4.169   5.022   7.113 -0.0488  0.1515  0.1925
  166MOL0     C22328   3.863   5.561   5.998 -0.1195  0.0357 -0.3904
  166MOL0     C22329   3.868   5.620   5.874 -0.5236  0.8710 -0.5841
  166MOL0     C22330   4.030   5.761   5.448  0.6869 -0.6747  0.9898
  166MOL0     C22331   3.893   5.782   5.412 -0.0689 -0.5740 -0.4316
  166MOL0     C22332   3.865   5.823   5.280 -0.1694  0.0873  0.0678
  166MOL0     C22333   3.971   5.851   5.186 -0.2143 -0.2546 -0.0541
  166MOL0     O22334   3.933   5.873   5.055  0.7283 -0.4229 -0.6621
  166MOL0     C22335   4.025   5.911   4.952  0.7250 -0.2253 -0.0391
  166MOL0     C22336   4.061   6.055   4.967  0.0178  0.6857  1.0080
  166MOL0     C22337   4.100   6.105   4.826  0.2916 -0.0809  0.1360
  166MOL0     C22338   4.119   6.251   4.818 -0.0706 -0.7765 -0.2060
  166MOL0     C22339   4.172   6.289   4.688 -0.5632 -1.1445  0.3303
  166MOL0     C22340   4.224   6.335   4.587  0.3876  0.2378  0.6056
  166MOL0     C22341   4.105   5.855   5.232  1.6962 -0.0558  0.7569
  166MOL0     C22342   4.127   5.806   5.359 -0.4906  0.5181  0.6046
  166MOL0     H22343   4.152   5.477   5.762  2.1232 -0.8381  3.1756
  166MOL0     H22344   4.161   5.405   5.980 -1.2750 -0.9515 -0.5172
  166MOL0     H22345   4.109   5.261   6.188 -4.9711 -3.4776 -1.1952
  166MOL0     H22346   4.099   5.431   6.276 -1.4760  1.2844 -0.9021
  166MOL0     H22347   3.937   5.366   6.410 -0.2215 -1.5548  0.7066
  166MOL0     H22348   3.905   5.212   6.316  1.7372 -2.4393 -0.0881
  166MOL0     H22349   4.120   5.135   6.372 -0.0870  1.3355 -0.8098
  166MOL0     H22350   4.155   5.277   6.477 -1.6191  0.8925  0.3697
  166MOL0     H22351   3.930   5.209   6.584 -0.3300  1.2201 -2.3732
  166MOL0     H22352   3.945   5.055   6.506 -0.8167  1.8379  0.3896
  166MOL0     H22353   4.162   5.014   6.591  1.2578  1.1543 -1.8063
  166MOL0     H22354   4.162   5.171   6.673  1.1279 -1.3306  1.9088
  166MOL0     H22355   3.999   5.085   6.836 -0.4747  2.4989 -2.2244
  166MOL0     H22356   3.944   4.963   6.719  0.1364 -0.3264 -1.1655
  166MOL0     H22357   4.059   4.858   6.898  2.1706 -0.5067  0.2914
  166MOL0     H22358   4.144   4.822   6.755 -1.3832 -2.3667  1.0957
  166MOL0     H22359   4.325   4.999   6.814  1.7367  2.1101  2.0170
  166MOL0     H22360   4.303   4.862   6.922 -0.4058  0.9527 -0.7631
  166MOL0     H22361   4.365   5.214   6.936 -1.5239 -1.0609 -1.1685
  166MOL0     H22362   4.283   5.348   7.297  0.8666  0.5290 -0.0485
  166MOL0     H22363   4.440   5.296   7.260  0.3497  1.9972 -1.5116
  166MOL0     H22364   4.273   5.428   7.062  0.4977 -0.7314 -0.3530
  166MOL0     H22365   4.444   5.410   7.037 -2.4880  1.7251 -3.5739
  166MOL0     H22366   4.472   5.570   7.221  0.2097  2.1178 -0.1119
  166MOL0     H22367   4.290   5.598   7.229  0.3917 -1.8660  0.9340
  166MOL0     H22368   4.299   5.644   6.983 -1.6977 -1.5703  2.0455
  166MOL0     H22369   4.478   5.624   6.992  1.6738  0.0673  2.7306
  166MOL0     H22370   4.479   6.030   7.096 -1.0377 -0.2830  0.7498
  166MOL0     H22371   4.553   6.292   6.851 -0.5394 -0.2261  0.0882
  166MOL0     H22372   4.484   6.293   7.022 -0.3543 -1.5933  0.3537
  166MOL0     H22373   4.629   6.196   6.979  0.4142 -0.0974  1.8704
  166MOL0     H22374   4.224   6.316   6.511  2.0964  0.9758  0.7749
  166MOL0     H22375   4.173   6.434   6.308  2.3643  1.8753 -1.8834
  166MOL0     H22376   4.420   6.412   6.002 -1.9384  0.2217  2.8316
  166MOL0     H22377   4.359   6.264   5.927  0.0915  0.6102 -0.5344
  166MOL0     H22378   4.342   6.445   5.759  1.1154  0.6165  0.3224
  166MOL0     H22379   4.180   6.428   5.800  1.3123 -1.4627 -0.9549
  166MOL0     H22380   4.372   6.626   5.904  2.2496 -3.0488 -3.7933
  166MOL0     H22381   4.213   6.608   5.984 -0.2032 -1.5182  0.5032
  166MOL0     H22382   4.262   6.691   5.681 -0.9741  0.3157 -0.0654
  166MOL0     H22383   4.110   6.671   5.758  0.4063 -3.4560  1.5367
  166MOL0     H22384   4.344   6.844   5.832  0.2556  1.8261 -2.5226
  166MOL0     H22385   4.209   6.857   5.937  3.0059 -1.5911  2.2240
  166MOL0     H22386   4.215   7.041   5.794 -0.9623 -0.5635  1.3071
  166MOL0     H22387   4.277   6.942   5.657  0.9465 -1.1371 -0.1525
  166MOL0     H22388   4.010   6.945   5.777  3.2081 -0.1344  2.2019
  166MOL0     H22389   4.026   6.878   5.611 -3.5645  1.3845  0.7543
  166MOL0     H22390   4.055   7.170   5.688  2.9480 -1.4668  1.4477
  166MOL0     H22391   3.928   7.101   5.583  1.5446  1.1647 -1.2627
  166MOL0     H22392   4.416   6.151   6.090  2.8901  1.0518  0.7183
  166MOL0     H22393   4.481   6.050   6.296  0.5689  0.2390  2.2218
  166MOL0     H22394   4.346   5.914   6.640  0.5865  2.8917 -1.5285
  166MOL0     H22395   4.362   5.748   6.791 -0.2505 -0.3410  1.1381
  166MOL0     H22396   3.770   5.571   6.053  1.2228 -0.4242  2.1416
  166MOL0     H22397   3.793   5.690   5.839  0.0497 -0.2562 -4.5691
  166MOL0     H22398   3.810   5.754   5.476 -0.8361 -2.3849 -2.0945
  166MOL0     H22399   3.762   5.837   5.249 -0.5328 -1.2089  0.6147
  166MOL0     H22400   4.115   5.848   4.949  0.1810 -1.0291  0.3813
  166MOL0     H22401   3.968   5.902   4.859 -1.0435  0.0132  0.9751
  166MOL0     H22402   4.132   6.083   5.045 -0.0158  0.5507  1.0869
  166MOL0     H22403   3.973   6.114   4.995  1.7037  2.4919  2.7941
  166MOL0     H22404   4.028   6.081   4.748 -0.0826  0.7141  0.2224
  166MOL0     H22405   4.200   6.068   4.799  0.6940  0.8390  0.3017
  166MOL0     H22406   4.194   6.292   4.886 -0.4298  2.8316 -1.7415
  166MOL0     H22407   4.026   6.307   4.837  0.3550 -0.0230 -0.3008
  166MOL0     H22408   4.286   6.354   4.501  0.4239  0.5763  0.7074
  166MOL0     H22409   4.196   5.881   5.179  2.9033 -2.8001  1.3320
  166MOL0     H22410   4.230   5.784   5.388 -0.5917 -1.8398 -0.5958
  167MOL0     O22411   0.227  10.078   0.107 -0.2042 -0.5828 -0.4310
  167MOL0     C22412   0.156  10.176   0.074 -0.0238  0.8704 -0.4535
  167MOL0     O22413   0.019  10.165   0.068 -0.4251 -0.4454  0.2893
  167MOL0     C22414  -0.046  10.059   0.126 -0.6146 -0.5947 -0.9636
  167MOL0     C22415  -0.034  10.024   0.261 -0.2168 -0.5260  0.5621
  167MOL0     C22416  -0.118   9.923   0.305 -0.0934  0.3441 -1.8977
  167MOL0     C22417  -0.210   9.849   0.223  0.3653 -0.5774  0.5893
  167MOL0     O22418  -0.269   9.743   0.277  0.3764  0.1270 -0.5818
  167MOL0     C22419  -0.393   9.701   0.222  0.8610 -0.3481 -0.0227
  167MOL0     C22420  -0.359   9.566   0.155  0.1673 -0.1526 -0.5564
  167MOL0     C22421  -0.478   9.481   0.115 -0.5701 -1.1004 -0.2730
  167MOL0     C22422  -0.457   9.339   0.077 -0.3123 -0.1934  0.1120
  167MOL0     C22423  -0.577   9.291  -0.002 -0.6448  0.0267  0.1513
  167MOL0     C22424  -0.714   9.316   0.059 -0.2553 -0.0197 -0.5705
  167MOL0     C22425  -0.752   9.175   0.123 -0.4461 -0.5779  0.4847
  167MOL0     C22426  -0.646   9.112   0.212 -0.2926  0.1691 -0.5179
  167MOL0     N22427  -0.696   9.001   0.291 -0.1715 -0.5145  0.9795
  167MOL0     C22428  -0.749   8.884   0.241  0.3426  1.3458  0.5952
  167MOL0     C22429  -0.737   8.793   0.339  0.4132  0.6941 -0.1671
  167MOL0     C22430  -0.789   8.646   0.338 -0.1900 -0.4132  0.4440
  167MOL0     C22431  -0.862   8.604   0.461  0.3178 -0.5149  1.0809
  167MOL0     C22432  -0.948   8.483   0.451 -0.3064 -0.7201  0.2139
  167MOL0     C22433  -1.094   8.525   0.452 -0.8157 -0.0939 -0.2149
  167MOL0     O22434  -1.164   8.400   0.464 -0.3924 -0.8090  0.0442
  167MOL0     C22435  -1.297   8.393   0.427  0.1422  0.7448  0.3269
  167MOL0     C22436  -1.379   8.504   0.424  0.4179  0.3848 -1.0526
  167MOL0     C22437  -1.517   8.486   0.398  0.2233  0.0184 -0.4895
  167MOL0     C22438  -1.609   8.612   0.407 -0.1874  0.3197  0.0050
  167MOL0     C22439  -1.570   8.354   0.375  0.4275 -0.3578  0.0747
  167MOL0     C22440  -1.715   8.327   0.359  0.7950 -0.3414 -0.2430
  167MOL0     O22441  -1.742   8.203   0.313  0.0027 -0.0357 -0.1558
  167MOL0     C22442  -1.868   8.177   0.262 -0.6865 -0.2382  0.1499
  167MOL0     C22443  -1.974   8.140   0.349 -0.1295 -0.6947 -0.0714
  167MOL0     C22444  -2.109   8.126   0.300  0.4323  0.5468  0.1335
  167MOL0     C22445  -2.131   8.156   0.166 -0.3963 -0.1985  0.3293
  167MOL0     O22446  -2.266   8.158   0.137  0.0033  0.0371  0.8149
  167MOL0     C22447  -2.303   8.212   0.000 -0.3431 -0.2462 -0.6164
  167MOL0     C22448  -2.457   8.192  -0.023 -0.1642  0.4806  0.1875
  167MOL0     C22449  -2.551   8.256   0.082  0.7260 -0.1664 -0.7963
  167MOL0     C22450  -2.704   8.252   0.032 -0.2029  0.1901  0.5727
  167MOL0     C22451  -2.781   8.372   0.102  0.3499  0.1675 -0.9785
  167MOL0     C22452  -2.928   8.334   0.088  0.6321 -0.4007  0.6314
  167MOL0     C22453  -3.032   8.432   0.116  0.2099 -0.3821  0.1641
  167MOL0     C22454  -3.173   8.391   0.076  0.6809  0.2356 -0.7291
  167MOL0    Cl22455  -3.234   8.258   0.180 -0.0477 -0.2206 -0.0406
  167MOL0     C22456  -2.028   8.195   0.084 -0.7343 -0.2285  0.3096
  167MOL0     C22457  -1.895   8.213   0.131 -0.4343  0.6984  0.1816
  167MOL0     O22458  -1.804   8.412   0.372 -0.5423  0.3651  1.0951
  167MOL0     C22459  -1.483   8.242   0.388 -0.5761 -0.1024  0.6026
  167MOL0     C22460  -1.353   8.262   0.417 -1.2638  0.3195 -0.6778
  167MOL0     N22461  -0.682   8.860   0.446 -0.5984  0.1855  0.3388
  167MOL0     N22462  -0.645   8.977   0.418  0.5010  0.9856  0.0097
  167MOL0     C22463  -0.225   9.896   0.087 -0.6449 -1.4667  0.3653
  167MOL0     C22464  -0.131   9.996   0.040 -0.1261 -0.8207 -0.7652
  167MOL0     C22465   0.223  10.305   0.036  0.9218 -1.2087 -0.2395
  167MOL0     C22466   0.144  10.407  -0.030 -0.6170 -0.0743  0.5256
  167MOL0     C22467   0.198  10.532  -0.044  0.2165 -0.0125  0.3098
  167MOL0     C22468   0.327  10.572  -0.006  0.4783 -0.9301  0.0831
  167MOL0     O22469   0.366  10.702  -0.039 -0.4814  0.2201 -0.4370
  167MOL0     C22470   0.513  10.716  -0.029  0.3082  0.9587 -0.6730
  167MOL0     C22471   0.547  10.859  -0.072  0.2479  0.0913  0.1526
  167MOL0     C22472   0.492  10.964   0.018  0.4676  0.0991 -0.8365
  167MOL0     C22473   0.561  10.954   0.148  0.0963 -0.2800  0.2053
  167MOL0     C22474   0.482  10.905   0.262 -0.3983  0.1378 -0.4615
  167MOL0     C22475   0.425  10.851   0.355 -0.9993  0.3465  0.9696
  167MOL0     C22476   0.397  10.473   0.053 -0.1522  0.5347  0.5280
  167MOL0     C22477   0.355  10.343   0.076 -0.6557 -0.1633 -0.4092
  167MOL0     H22478   0.053  10.067   0.309 -1.8511  5.0256 -0.7183
  167MOL0     H22479  -0.091   9.888   0.404 -1.1871  4.2634 -0.0218
  167MOL0     H22480  -0.459   9.669   0.303  2.2764 -0.6922  1.0245
  167MOL0     H22481  -0.439   9.768   0.148  5.0586  0.0235 -2.6446
  167MOL0     H22482  -0.296   9.579   0.066  0.0544 -1.6288 -0.8801
  167MOL0     H22483  -0.302   9.515   0.232  1.3522  1.3835 -0.3627
  167MOL0     H22484  -0.547   9.482   0.200 -1.5168 -2.5346 -0.9922
  167MOL0     H22485  -0.522   9.532   0.028  0.6471 -1.1373 -0.9328
  167MOL0     H22486  -0.377   9.333   0.003 -0.3844  0.7840 -0.0593
  167MOL0     H22487  -0.433   9.270   0.159  0.3392 -0.7628 -0.5530
  167MOL0     H22488  -0.575   9.353  -0.092 -1.6281 -0.0383  0.0756
  167MOL0     H22489  -0.554   9.192  -0.041 -0.0719 -0.3217  1.3178
  167MOL0     H22490  -0.711   9.391   0.139 -0.5285 -0.8634  0.2486
  167MOL0     H22491  -0.791   9.340  -0.016  0.1371 -2.0316 -1.6884
  167MOL0     H22492  -0.845   9.177   0.180 -1.1550  0.6227 -0.6694
  167MOL0     H22493  -0.770   9.103   0.042 -0.0703  0.8475 -0.9082
  167MOL0     H22494  -0.612   9.186   0.285  0.0846 -1.7570  1.3261
  167MOL0     H22495  -0.560   9.071   0.158  1.3082 -0.8157  2.5631
  167MOL0     H22496  -0.776   8.865   0.137 -0.1932  1.6332  0.6765
  167MOL0     H22497  -0.842   8.630   0.244 -0.3499 -2.0886  0.7853
  167MOL0     H22498  -0.703   8.580   0.322  0.4848  0.9925 -2.5032
  167MOL0     H22499  -0.917   8.692   0.493 -0.7538 -0.7310 -0.0784
  167MOL0     H22500  -0.793   8.583   0.543  0.9693 -2.0664  0.1835
  167MOL0     H22501  -0.929   8.429   0.545 -3.6616  0.5507  1.7897
  167MOL0     H22502  -0.920   8.418   0.368 -0.4925  0.5803 -0.8927
  167MOL0     H22503  -1.113   8.577   0.358  0.7585  0.5226 -0.2193
  167MOL0     H22504  -1.112   8.599   0.530  0.7932  1.4094 -1.2044
  167MOL0     H22505  -1.347   8.606   0.443  1.9402 -0.0478 -1.1847
  167MOL0     H22506  -1.674   8.625   0.320  0.6336  1.8782 -0.4141
  167MOL0     H22507  -1.670   8.592   0.496 -0.2812 -0.4767 -0.2369
  167MOL0     H22508  -1.552   8.706   0.411 -0.9994  0.8428 -0.5627
  167MOL0     H22509  -1.955   8.102   0.448 -0.0757 -1.8134 -0.4993
  167MOL0     H22510  -2.197   8.102   0.359 -1.1573  1.5695 -1.6886
  167MOL0     H22511  -2.272   8.317   0.001 -0.0902 -0.0897  4.3329
  167MOL0     H22512  -2.245   8.155  -0.073  0.0841 -1.7188  0.8034
  167MOL0     H22513  -2.484   8.226  -0.123  2.5191 -1.7669 -1.4501
  167MOL0     H22514  -2.478   8.085  -0.034  1.7328  0.3652 -4.1071
  167MOL0     H22515  -2.524   8.360   0.099 -1.8202  0.6075 -0.9705
  167MOL0     H22516  -2.554   8.204   0.179  1.6286 -3.0940 -2.2340
  167MOL0     H22517  -2.707   8.278  -0.074 -1.1861  1.2716  0.8423
  167MOL0     H22518  -2.747   8.152   0.040  0.8791 -0.3218  0.1823
  167MOL0     H22519  -2.746   8.466   0.059  1.1764 -0.3126 -1.3768
  167MOL0     H22520  -2.766   8.376   0.211  0.3776 -0.2167 -0.9686
  167MOL0     H22521  -2.951   8.309  -0.016  0.1111  2.8234 -0.1378
  167MOL0     H22522  -2.941   8.249   0.156 -1.0323  0.2497  1.1761
  167MOL0     H22523  -2.997   8.531   0.086 -0.0920  0.3232  1.9701
  167MOL0     H22524  -3.037   8.449   0.224  1.1525  0.7349  0.0526
  167MOL0     H22525  -3.180   8.370  -0.031  1.1618 -0.1506 -0.6883
  167MOL0     H22526  -3.235   8.480   0.087  2.0798  1.3227 -1.4081
  167MOL0     H22527  -2.054   8.240  -0.012  2.5492  2.5256  0.5098
  167MOL0     H22528  -1.821   8.244   0.057  1.2057  1.0315  1.8803
  167MOL0     H22529  -1.526   8.142   0.394 -1.8586  0.3121 -0.9126
  167MOL0     H22530  -1.288   8.175   0.426  1.8432  2.2933 -2.1630
  167MOL0     H22531  -0.291   9.848   0.016 -4.4703  1.7368  1.4287
  167MOL0     H22532  -0.120  10.022  -0.065 -1.6813  1.3632 -0.4573
  167MOL0     H22533   0.042  10.386  -0.064 -0.7760  2.8608 -1.1366
  167MOL0     H22534   0.134  10.604  -0.095  1.0422  0.0850 -0.6130
  167MOL0     H22535   0.553  10.710   0.073  1.0203 -0.6834 -1.0153
  167MOL0     H22536   0.559  10.636  -0.088  0.8546  2.4389 -2.3449
  167MOL0     H22537   0.516  10.874  -0.176  3.6656 -0.6258 -1.0972
  167MOL0     H22538   0.656  10.867  -0.078  0.1337  2.1221  0.1385
  167MOL0     H22539   0.386  10.947   0.037  0.8880 -0.4886  1.2379
  167MOL0     H22540   0.509  11.066  -0.019 -0.9724  0.4775 -0.5207
  167MOL0     H22541   0.600  11.048   0.190 -1.0221 -0.2640  1.2796
  167MOL0     H22542   0.637  10.875   0.153 -3.0625 -3.5112  2.8594
  167MOL0     H22543   0.378  10.798   0.435 -1.3888 -0.3473  0.2874
  167MOL0     H22544   0.500  10.489   0.084 -0.0868  1.7902 -0.2547
  167MOL0     H22545   0.414  10.267   0.126 -0.5056  1.8463  2.6854
  168MOL0     O22546   5.200   1.733   0.445 -0.6124  0.9376  0.5321
  168MOL0     C22547   5.195   1.610   0.483 -0.7114  0.4842  0.4891
  168MOL0     O22548   5.141   1.572   0.607  0.7990 -0.3260  0.0197
  168MOL0     C22549   5.106   1.676   0.684 -1.0877 -0.2550 -0.4816
  168MOL0     C22550   4.972   1.696   0.720  0.0323  1.2539  0.3036
  168MOL0     C22551   4.930   1.804   0.798  0.2746  0.5190  0.4946
  168MOL0     C22552   5.034   1.884   0.855  0.7918  0.6364  0.4542
  168MOL0     O22553   5.010   1.985   0.940 -0.4650 -0.1666 -0.3249
  168MOL0     C22554   4.887   2.001   1.002 -0.5747  1.2223 -0.1164
  168MOL0     C22555   4.871   2.151   1.043  0.2474 -0.1067 -0.1367
  168MOL0     C22556   4.735   2.177   1.117  0.3437 -0.4483  0.6790
  168MOL0     C22557   4.740   2.321   1.174  0.1046  0.7001  0.6270
  168MOL0     C22558   4.602   2.370   1.228 -0.5241 -0.6066  0.3317
  168MOL0     C22559   4.551   2.266   1.322 -1.1244  0.3291  1.0692
  168MOL0     C22560   4.406   2.288   1.385 -0.6251  0.1297  0.5569
  168MOL0     C22561   4.388   2.384   1.495 -0.7047 -0.5541 -0.8953
  168MOL0     N22562   4.481   2.359   1.602 -0.4064  0.0911  0.0819
  168MOL0     C22563   4.596   2.432   1.621  0.9789 -0.4358  0.4288
  168MOL0     C22564   4.649   2.366   1.726 -0.6059  1.0637  0.0330
  168MOL0     C22565   4.758   2.425   1.808  0.2892 -0.4780 -0.0793
  168MOL0     C22566   4.902   2.375   1.788 -0.7403  0.6199  0.4494
  168MOL0     C22567   4.981   2.455   1.672  0.9089 -0.1945 -0.7211
  168MOL0     C22568   5.123   2.413   1.641  0.0196  0.5365 -0.6031
  168MOL0     O22569   5.151   2.424   1.499  0.4040  0.3086  0.2576
  168MOL0     C22570   5.185   2.305   1.438  0.8036  0.9758  1.0812
  168MOL0     C22571   5.114   2.182   1.454  0.5464 -0.1259 -0.7394
  168MOL0     C22572   5.144   2.064   1.380 -0.0661 -1.3663  0.4210
  168MOL0     C22573   5.044   1.956   1.396  0.3796 -0.9616  0.0372
  168MOL0     C22574   5.263   2.056   1.313 -0.1602 -0.4792  0.0409
  168MOL0     C22575   5.303   1.936   1.228  0.3591 -0.6405  0.5425
  168MOL0     O22576   5.221   1.822   1.228 -0.5105  0.3150  0.2003
  168MOL0     C22577   5.276   1.698   1.182  0.2270 -0.1371  0.2995
  168MOL0     C22578   5.178   1.606   1.147  0.2437 -0.1353  0.7737
  168MOL0     C22579   5.201   1.469   1.126 -0.4629 -0.3066 -0.2241
  168MOL0     C22580   5.333   1.427   1.139 -0.3880 -0.0057 -0.0219
  168MOL0     O22581   5.373   1.290   1.125  0.0036 -0.5016 -0.5590
  168MOL0     C22582   5.274   1.186   1.144 -0.0227  0.2974  0.1703
  168MOL0     C22583   5.361   1.052   1.150 -0.8360  0.1200  0.1914
  168MOL0     C22584   5.278   0.942   1.190 -0.0715 -0.2575 -1.5718
  168MOL0     C22585   5.349   0.805   1.181  0.1346  0.3585 -0.0196
  168MOL0     C22586   5.249   0.693   1.217  0.1944 -0.0347  0.3391
  168MOL0     C22587   5.241   0.591   1.102  0.6283 -0.1171 -0.1780
  168MOL0     C22588   5.183   0.459   1.148  1.0508 -0.2316  0.1724
  168MOL0     C22589   5.221   0.347   1.047 -0.5984 -0.0032 -0.3926
  168MOL0    Cl22590   5.175   0.384   0.874 -0.1059 -0.1276  0.2844
  168MOL0     C22591   5.442   1.517   1.173  0.2415 -0.3036 -0.3939
  168MOL0     C22592   5.409   1.648   1.196  0.5135  0.0197 -0.3744
  168MOL0     O22593   5.414   1.945   1.176 -0.3412  0.0705  0.3128
  168MOL0     C22594   5.349   2.174   1.307  1.0041 -0.4402 -0.7962
  168MOL0     C22595   5.296   2.288   1.360  0.1860 -0.7470  0.0219
  168MOL0     N22596   4.572   2.257   1.770  0.0116  0.1597 -0.0535
  168MOL0     N22597   4.469   2.258   1.695  0.2842 -0.8766 -0.1335
  168MOL0     C22598   5.167   1.859   0.817 -0.5847  0.3896 -0.3978
  168MOL0     C22599   5.206   1.757   0.735  0.4445 -0.2312  0.6674
  168MOL0     C22600   5.268   1.503   0.401  0.6795  0.0287  0.5318
  168MOL0     C22601   5.275   1.377   0.454  1.2729 -0.0319 -0.5124
  168MOL0     C22602   5.338   1.273   0.392  0.7534 -0.3315 -0.5511
  168MOL0     C22603   5.398   1.295   0.266  0.4348  0.1274 -0.3141
  168MOL0     O22604   5.450   1.183   0.212  1.1284  0.5498 -0.2893
  168MOL0     C22605   5.453   1.181   0.071 -0.6678  0.5438  0.5067
  168MOL0     C22606   5.550   1.075   0.028  0.0130  0.0342 -0.1058
  168MOL0     C22607   5.700   1.118   0.058  0.6958  0.0567  0.1935
  168MOL0     C22608   5.767   1.208  -0.045  0.0616 -0.8054  0.6951
  168MOL0     C22609   5.905   1.239  -0.010 -0.0046 -0.2681 -0.7208
  168MOL0     C22610   6.024   1.253   0.018 -0.2950 -0.2830 -0.6943
  168MOL0     C22611   5.376   1.418   0.208 -0.1926  0.7337  0.8973
  168MOL0     C22612   5.316   1.525   0.270  0.2764 -0.0587  0.4789
  168MOL0     H22613   4.892   1.630   0.688  2.0736 -0.5726 -1.3931
  168MOL0     H22614   4.833   1.803   0.847 -0.6216 -0.5329 -1.1841
  168MOL0     H22615   4.806   1.984   0.931 -0.0599 -1.5063 -0.1547
  168MOL0     H22616   4.883   1.941   1.093 -3.4407 -0.9683 -1.5212
  168MOL0     H22617   4.956   2.179   1.106  0.2850  1.3086 -0.7648
  168MOL0     H22618   4.882   2.217   0.955 -0.3240  0.1674 -0.0070
  168MOL0     H22619   4.654   2.161   1.046  1.3356 -1.4910 -0.2528
  168MOL0     H22620   4.723   2.101   1.194  0.9982 -1.9604 -0.6543
  168MOL0     H22621   4.806   2.316   1.261  1.6905 -2.6018 -0.6398
  168MOL0     H22622   4.779   2.399   1.108 -2.1838  2.6790  1.4285
  168MOL0     H22623   4.596   2.470   1.272  2.8473 -0.9967  1.9328
  168MOL0     H22624   4.536   2.367   1.140  0.2461 -2.3121 -0.2272
  168MOL0     H22625   4.545   2.173   1.265 -0.0791 -1.4689  3.7100
  168MOL0     H22626   4.622   2.251   1.404  2.6837  4.6902 -0.9603
  168MOL0     H22627   4.325   2.304   1.314 -1.1229  2.0432  1.4769
  168MOL0     H22628   4.376   2.192   1.430 -1.1536 -0.9074 -1.8689
  168MOL0     H22629   4.292   2.374   1.545  0.2274  2.3405  1.7760
  168MOL0     H22630   4.401   2.490   1.471 -2.1387 -0.3657 -0.9036
  168MOL0     H22631   4.621   2.524   1.569 -0.3416  0.1962  0.8604
  168MOL0     H22632   4.752   2.534   1.794  2.6899 -0.5971 -3.5288
  168MOL0     H22633   4.734   2.403   1.912 -0.6702  0.2860 -0.1252
  168MOL0     H22634   4.882   2.274   1.751 -2.5435  0.1838  2.4083
  168MOL0     H22635   4.948   2.375   1.887 -0.0764  2.3180  0.1686
  168MOL0     H22636   4.980   2.559   1.707 -3.5884 -0.5218  0.7072
  168MOL0     H22637   4.919   2.464   1.583 -0.3024  0.3343  0.1511
  168MOL0     H22638   5.130   2.310   1.677  2.1964  1.8287  3.3348
  168MOL0     H22639   5.193   2.473   1.701  2.2435  2.3307 -4.5995
  168MOL0     H22640   5.026   2.178   1.516  3.1789 -1.6607  3.3264
  168MOL0     H22641   4.976   1.995   1.473  0.9056  0.2078 -0.0562
  168MOL0     H22642   4.994   1.921   1.305 -2.2862 -3.2699  2.2071
  168MOL0     H22643   5.110   1.884   1.445  2.0113  1.4235  1.5674
  168MOL0     H22644   5.074   1.637   1.144 -1.4555 -4.9284 -3.0460
  168MOL0     H22645   5.127   1.395   1.098 -1.3256 -1.1232  3.6365
  168MOL0     H22646   5.222   1.206   1.238 -0.8379 -3.8999  0.8261
  168MOL0     H22647   5.208   1.190   1.056 -2.1797  1.7967  1.7515
  168MOL0     H22648   5.397   1.035   1.048  0.2359 -1.4893  0.8005
  168MOL0     H22649   5.451   1.065   1.210 -0.1784  0.4548 -0.8438
  168MOL0     H22650   5.194   0.937   1.120  0.7595  1.7322 -2.7981
  168MOL0     H22651   5.250   0.964   1.293  0.4301  1.3994 -1.7635
  168MOL0     H22652   5.381   0.780   1.079 -4.1719 -0.9288 -1.2797
  168MOL0     H22653   5.432   0.787   1.250  0.0607 -1.4568 -0.3396
  168MOL0     H22654   5.148   0.732   1.232 -0.3028  0.3821 -3.1891
  168MOL0     H22655   5.287   0.645   1.308  3.0681  2.4745  0.6131
  168MOL0     H22656   5.167   0.633   1.034 -1.4304 -1.8526  0.8446
  168MOL0     H22657   5.342   0.575   1.063  0.0566 -1.3465 -1.2284
  168MOL0     H22658   5.076   0.462   1.170  1.4189 -0.6181  2.2209
  168MOL0     H22659   5.222   0.432   1.247 -1.8830 -2.2837  0.9300
  168MOL0     H22660   5.177   0.252   1.079 -1.6426  0.0840 -1.4971
  168MOL0     H22661   5.329   0.331   1.044 -0.4875  0.8212 -1.4411
  168MOL0     H22662   5.546   1.485   1.182 -0.5074 -3.7889 -2.2698
  168MOL0     H22663   5.477   1.723   1.236 -1.9267  1.8859  0.5046
  168MOL0     H22664   5.443   2.198   1.258 -0.0075  3.2565 -1.2045
  168MOL0     H22665   5.363   2.372   1.343  2.7355 -2.5072  0.7406
  168MOL0     H22666   5.241   1.922   0.867 -2.3268  1.5729  0.7745
  168MOL0     H22667   5.307   1.742   0.697  0.7367 -3.1184  2.2787
  168MOL0     H22668   5.241   1.371   0.556 -3.4129 -0.6753 -1.8882
  168MOL0     H22669   5.352   1.177   0.441  1.2265 -1.0456 -2.0258
  168MOL0     H22670   5.356   1.144   0.038  0.5368  0.4981 -3.5778
  168MOL0     H22671   5.478   1.272   0.015  0.9557  1.0898  2.0172
  168MOL0     H22672   5.549   1.052  -0.078  2.5939 -1.0054  0.0304
  168MOL0     H22673   5.540   0.978   0.078  1.6770 -0.5870 -0.9254
  168MOL0     H22674   5.753   1.023   0.042  0.1909  0.2161 -3.0428
  168MOL0     H22675   5.696   1.154   0.161 -0.9153  0.7435 -0.0796
  168MOL0     H22676   5.723   1.308  -0.053  1.5917 -0.0349  1.5179
  168MOL0     H22677   5.765   1.172  -0.149  1.0603  3.7470 -1.1707
  168MOL0     H22678   6.129   1.263   0.033 -0.1483 -2.0458 -0.3654
  168MOL0     H22679   5.408   1.439   0.106 -2.8206  2.5052  0.3412
  168MOL0     H22680   5.295   1.622   0.225  1.3708  2.0147  3.9661
  169MOL0     O22681   7.421  10.174   3.490 -0.4223 -0.0524 -0.5485
  169MOL0     C22682   7.515  10.196   3.412  0.8849  0.4012  0.1969
  169MOL0     O22683   7.494  10.241   3.287 -0.3158  0.1758 -0.1630
  169MOL0     C22684   7.374  10.235   3.214  0.4757 -0.6253 -0.2344
  169MOL0     C22685   7.373  10.161   3.097  0.1256 -0.5996 -0.1963
  169MOL0     C22686   7.258  10.151   3.016  0.1744 -0.2454 -0.2234
  169MOL0     C22687   7.143  10.215   3.058  0.1997  0.3836  1.2911
  169MOL0     O22688   7.021  10.204   2.988 -1.1781 -0.3709  0.3834
  169MOL0     C22689   7.031  10.133   2.859  0.4298 -0.4886  0.0044
  169MOL0     C22690   6.900  10.154   2.783  0.2186 -0.3459  0.0729
  169MOL0     C22691   6.787  10.078   2.855 -0.5642 -0.0619 -0.2434
  169MOL0     C22692   6.700  10.172   2.942  0.2974  0.0119  0.5877
  169MOL0     C22693   6.589  10.096   3.010  0.4201  1.2143  0.4746
  169MOL0     C22694   6.493  10.028   2.906 -0.5184 -0.1097  0.3618
  169MOL0     C22695   6.359   9.981   2.966 -0.3652  0.7005  0.1641
  169MOL0     C22696   6.309   9.838   2.929 -0.7969  0.7323 -0.0975
  169MOL0     N22697   6.343   9.821   2.785 -0.3249  0.7156 -0.2852
  169MOL0     C22698   6.279   9.883   2.681  0.6278  0.7321 -0.2586
  169MOL0     C22699   6.310   9.812   2.569 -0.0842  0.0263 -0.2215
  169MOL0     C22700   6.245   9.827   2.434 -0.0784  0.7493  0.3103
  169MOL0     C22701   6.105   9.777   2.447  0.6051 -0.1016 -1.0597
  169MOL0     C22702   6.051   9.769   2.305 -0.1770 -0.1706 -0.5326
  169MOL0     C22703   5.908   9.733   2.295 -0.2799  0.7679  0.0866
  169MOL0     O22704   5.865   9.759   2.160  0.0624  0.4920 -0.1874
  169MOL0     C22705   5.850   9.890   2.113  0.2603  0.8960  0.0379
  169MOL0     C22706   5.897   9.927   1.983 -1.0874  0.8825 -0.1148
  169MOL0     C22707   5.909  10.061   1.942 -0.1367 -0.0037 -0.1697
  169MOL0     C22708   5.978  10.079   1.810  0.2946  0.7312  0.3525
  169MOL0     C22709   5.853  10.161   2.021  0.4368  0.1218  0.1877
  169MOL0     C22710   5.859  10.301   1.986  0.6169 -0.3125 -0.3613
  169MOL0     O22711   5.785  10.386   2.066 -0.8145 -0.1987 -0.0468
  169MOL0     C22712   5.856  10.488   2.117  0.1127  0.7550 -0.9424
  169MOL0     C22713   5.834  10.614   2.066  0.5928  0.7517 -0.2675
  169MOL0     C22714   5.855  10.727   2.145 -0.0811  0.0767 -0.7825
  169MOL0     C22715   5.917  10.715   2.270  0.3166  0.1675 -0.5953
  169MOL0     O22716   5.941  10.825   2.347  0.3792 -1.2164 -0.1570
  169MOL0     C22717   5.937  10.962   2.300 -0.0125 -0.3622 -0.4049
  169MOL0     C22718   6.059  10.978   2.209  0.8735 -0.2619  0.4731
  169MOL0     C22719   6.195  11.006   2.289  0.5806 -0.4732  0.2118
  169MOL0     C22720   6.246  10.886   2.371  0.5551  0.3131  0.3556
  169MOL0     C22721   6.383  10.930   2.423  0.2065 -0.4151  0.1794
  169MOL0     C22722   6.466  10.827   2.486 -0.1562 -0.7345 -0.1209
  169MOL0     C22723   6.418  10.786   2.623 -0.4059  0.2430  0.4454
  169MOL0     C22724   6.530  10.713   2.697  0.5877  0.4303  0.1156
  169MOL0    Cl22725   6.658  10.833   2.723  0.2545 -0.0194 -0.1541
  169MOL0     C22726   5.964  10.585   2.308  0.4525 -0.1589 -0.0431
  169MOL0     C22727   5.927  10.468   2.240  0.2734  0.2019  0.6152
  169MOL0     O22728   5.910  10.333   1.880 -0.0088  0.6665  0.1804
  169MOL0     C22729   5.789  10.120   2.141  0.4697  0.5181 -0.3709
  169MOL0     C22730   5.796   9.991   2.192  0.7607  0.8000 -0.1085
  169MOL0     N22731   6.398   9.708   2.613  0.6683  0.8445 -0.2553
  169MOL0     N22732   6.415   9.720   2.741  0.7363  0.0227  0.8508
  169MOL0     C22733   7.140  10.287   3.170 -0.1739 -1.2572 -0.0312
  169MOL0     C22734   7.258  10.301   3.254  0.7693 -0.8082 -0.2019
  169MOL0     C22735   7.650  10.180   3.452 -0.1317 -0.2540  0.4566
  169MOL0     C22736   7.760  10.195   3.365 -0.2796  0.3985  0.0992
  169MOL0     C22737   7.895  10.166   3.414  0.4650  0.3660  0.1771
  169MOL0     C22738   7.913  10.128   3.543 -0.6449  0.4373 -0.2194
  169MOL0     O22739   8.042  10.111   3.593  0.1770 -0.0813  0.5840
  169MOL0     C22740   8.161  10.172   3.532 -0.3691  0.4974  0.1159
  169MOL0     C22741   8.281  10.126   3.602 -0.9116 -0.2765  1.0870
  169MOL0     C22742   8.343   9.989   3.545  0.1911 -0.2326 -0.1546
  169MOL0     C22743   8.471   9.953   3.609 -0.6105  0.7401 -0.2693
  169MOL0     C22744   8.581  10.048   3.567 -0.3439 -0.7945  0.5385
  169MOL0     C22745   8.670  10.120   3.543 -0.4367 -0.1749 -0.0462
  169MOL0     C22746   7.803  10.100   3.625  0.8370 -0.2909 -0.1400
  169MOL0     C22747   7.680  10.139   3.577  0.6105  0.2934 -0.4798
  169MOL0     H22748   7.464  10.114   3.061  1.3991  1.7036 -0.1756
  169MOL0     H22749   7.271  10.090   2.927  1.3334  0.0970 -0.3074
  169MOL0     H22750   7.113  10.169   2.797  0.3236 -1.9880 -1.0635
  169MOL0     H22751   7.055  10.027   2.878  1.2912 -0.1286  1.0741
  169MOL0     H22752   6.891  10.263   2.770  2.7049 -0.0356  0.5925
  169MOL0     H22753   6.908  10.124   2.678 -1.0299  4.3200 -1.6128
  169MOL0     H22754   6.722  10.036   2.777 -0.6664 -2.0902  0.8587
  169MOL0     H22755   6.831   9.996   2.913  0.0061 -1.0443 -1.9773
  169MOL0     H22756   6.757  10.228   3.017  2.3970 -1.0782 -0.1152
  169MOL0     H22757   6.653  10.247   2.879 -0.2679 -0.9449 -0.1609
  169MOL0     H22758   6.632  10.003   3.049  2.1953  2.0720  0.6872
  169MOL0     H22759   6.533  10.152   3.085 -0.5936 -0.0393  0.6814
  169MOL0     H22760   6.477  10.102   2.828 -0.7541 -2.4018 -1.9138
  169MOL0     H22761   6.553   9.950   2.859 -0.7868  0.6206 -1.2598
  169MOL0     H22762   6.361  10.008   3.072 -1.0105  1.3717  0.0142
  169MOL0     H22763   6.287  10.049   2.919 -0.8288 -0.8885 -1.5133
  169MOL0     H22764   6.200   9.839   2.941 -0.4589  1.2997  4.8587
  169MOL0     H22765   6.354   9.760   2.991 -0.7725 -0.6722 -1.8127
  169MOL0     H22766   6.201   9.959   2.677  0.9064  0.9632 -2.6429
  169MOL0     H22767   6.246   9.929   2.396 -1.5189 -0.0705 -2.1198
  169MOL0     H22768   6.303   9.767   2.364 -1.7802 -2.5434  1.5095
  169MOL0     H22769   6.036   9.830   2.513  1.0555 -0.0731 -0.6025
  169MOL0     H22770   6.122   9.674   2.480 -0.7156 -0.0713 -0.2052
  169MOL0     H22771   6.119   9.695   2.264  3.8383  2.2734  1.1578
  169MOL0     H22772   6.078   9.860   2.250  3.8206 -1.4647 -1.0006
  169MOL0     H22773   5.842   9.783   2.366 -2.8066 -1.2120 -0.7182
  169MOL0     H22774   5.898   9.626   2.315  0.7115  0.5531 -0.4951
  169MOL0     H22775   5.920   9.846   1.915  0.2679  0.8841  0.3148
  169MOL0     H22776   6.075  10.129   1.812 -0.2908  1.8861  0.5000
  169MOL0     H22777   5.988   9.981   1.761  0.7448 -2.3462  5.7698
  169MOL0     H22778   5.922  10.139   1.739 -1.0653  0.1312  0.8904
  169MOL0     H22779   5.766  10.621   1.981  1.1377 -0.2599 -0.8063
  169MOL0     H22780   5.822  10.824   2.111  0.6455  0.5664 -0.1386
  169MOL0     H22781   5.846  10.995   2.248 -0.6375  1.5238  1.7392
  169MOL0     H22782   5.949  11.025   2.388  1.8776  0.7996 -1.4322
  169MOL0     H22783   6.064  10.894   2.139 -3.5309  1.0541 -1.8513
  169MOL0     H22784   6.050  11.063   2.141 -1.5079 -1.0645 -0.3244
  169MOL0     H22785   6.176  11.085   2.362 -2.4980 -0.6081 -0.3257
  169MOL0     H22786   6.273  11.038   2.219  0.0641 -0.6017 -0.4244
  169MOL0     H22787   6.180  10.861   2.455 -1.7862 -2.2448 -2.0479
  169MOL0     H22788   6.248  10.797   2.309 -1.7449  1.2482 -1.2025
  169MOL0     H22789   6.370  11.023   2.479 -0.4173  0.5116 -1.4565
  169MOL0     H22790   6.435  10.978   2.340 -3.2493  3.7322  0.0637
  169MOL0     H22791   6.464  10.741   2.418 -1.3313 -0.2460 -0.7344
  169MOL0     H22792   6.569  10.863   2.492 -0.2607 -0.4576  0.0486
  169MOL0     H22793   6.345  10.704   2.615  0.2099 -0.2980  0.2846
  169MOL0     H22794   6.375  10.872   2.675 -2.3418 -2.8498  4.5961
  169MOL0     H22795   6.568  10.637   2.629  1.7300  1.1079 -0.0341
  169MOL0     H22796   6.494  10.675   2.793  3.4824  1.2004  1.6248
  169MOL0     H22797   6.025  10.574   2.397  3.5093  0.7167 -1.8782
  169MOL0     H22798   5.971  10.373   2.268  2.2159 -0.6792 -4.3164
  169MOL0     H22799   5.745  10.204   2.194 -1.9319  0.2403 -1.7908
  169MOL0     H22800   5.764   9.964   2.292  1.7162  0.4590  0.1143
  169MOL0     H22801   7.047  10.330   3.206 -0.7906 -2.5843  0.0590
  169MOL0     H22802   7.243  10.358   3.345 -1.2374 -3.3408  1.2037
  169MOL0     H22803   7.731  10.222   3.264  0.5918 -3.1900 -1.2605
  169MOL0     H22804   7.980  10.178   3.347  1.5192 -1.6182  1.0693
  169MOL0     H22805   8.168  10.138   3.428 -0.4215 -1.3588  0.6754
  169MOL0     H22806   8.161  10.281   3.544 -2.0250  0.4240  1.1589
  169MOL0     H22807   8.253  10.123   3.708 -2.4512  0.6830  0.7453
  169MOL0     H22808   8.347  10.210   3.579 -1.3977 -0.9758 -3.9799
  169MOL0     H22809   8.330   9.990   3.436 -1.0577 -0.0382 -0.0129
  169MOL0     H22810   8.268   9.911   3.560  1.4579 -1.7620 -1.3704
  169MOL0     H22811   8.516   9.854   3.593  0.8086  1.2883  0.1815
  169MOL0     H22812   8.463   9.973   3.716 -2.1310 -0.2570 -0.1554
  169MOL0     H22813   8.754  10.181   3.515  0.4394 -2.8138 -4.0050
  169MOL0     H22814   7.822  10.067   3.727  1.4421  2.2945  0.6557
  169MOL0     H22815   7.596  10.130   3.645  3.1435 -1.7568  2.6658
  170MOL0     O22816   1.382   2.353   2.119  0.2478  0.7777 -0.8095
  170MOL0     C22817   1.405   2.384   2.005 -0.1041 -0.0772 -0.9430
  170MOL0     O22818   1.442   2.298   1.899 -0.2112  0.5216 -0.2642
  170MOL0     C22819   1.502   2.180   1.932  0.0790 -0.8541  0.7987
  170MOL0     C22820   1.423   2.075   1.963  0.5199  0.5097  0.1494
  170MOL0     C22821   1.469   1.950   1.988 -0.3355  0.0400 -0.5187
  170MOL0     C22822   1.602   1.920   1.990 -0.4542  0.6133 -0.5472
  170MOL0     O22823   1.651   1.793   2.024  0.5476  0.3371  0.1036
  170MOL0     C22824   1.576   1.671   2.017 -0.1220 -0.7479  0.1791
  170MOL0     C22825   1.659   1.568   2.108  0.1691  0.4408  1.1067
  170MOL0     C22826   1.811   1.556   2.068  0.0838  0.0210  0.9084
  170MOL0     C22827   1.856   1.409   2.093 -1.1091 -0.5681 -0.3455
  170MOL0     C22828   2.001   1.392   2.058  0.5753  0.9173 -0.0594
  170MOL0     C22829   2.112   1.484   2.109  0.1840 -1.1004 -0.3552
  170MOL0     C22830   2.123   1.525   2.258 -0.3683  0.8371  1.1774
  170MOL0     C22831   2.185   1.417   2.341  0.6529  0.5780 -0.0611
  170MOL0     N22832   2.320   1.387   2.293  0.0691  0.8567  0.6422
  170MOL0     C22833   2.373   1.265   2.244 -0.0307  0.1128  0.5212
  170MOL0     C22834   2.506   1.284   2.257  0.1622  0.1262  1.1277
  170MOL0     C22835   2.596   1.168   2.216  0.7978  0.2161 -0.2486
  170MOL0     C22836   2.750   1.204   2.221 -0.7141  0.5449  0.7606
  170MOL0     C22837   2.802   1.194   2.371 -0.3424  0.0281  0.1911
  170MOL0     C22838   2.947   1.217   2.384 -0.0668 -0.2116 -0.2811
  170MOL0     O22839   2.988   1.346   2.321 -0.5224 -0.5568 -0.1214
  170MOL0     C22840   3.002   1.445   2.417  0.5437 -0.6485  0.3267
  170MOL0     C22841   2.889   1.518   2.453  0.2673 -0.6032  0.0071
  170MOL0     C22842   2.902   1.619   2.542 -0.0189 -0.3038 -1.3220
  170MOL0     C22843   2.782   1.691   2.580 -0.2376 -0.0638 -0.6789
  170MOL0     C22844   3.028   1.652   2.603  0.2697  0.2824  0.9474
  170MOL0     C22845   3.048   1.747   2.721  0.5235  0.5317 -0.1921
  170MOL0     O22846   2.947   1.756   2.812 -0.1665 -0.6260  0.6038
  170MOL0     C22847   2.948   1.875   2.891 -0.1957  0.5733  0.9500
  170MOL0     C22848   3.005   1.879   3.017  0.0303 -0.1626 -1.1455
  170MOL0     C22849   2.990   1.999   3.097 -0.2071  0.2584  0.7069
  170MOL0     C22850   2.917   2.107   3.045  0.6148  0.7790 -0.1580
  170MOL0     O22851   2.898   2.207   3.134  0.8386 -0.9146 -0.5084
  170MOL0     C22852   2.844   2.331   3.084 -0.4413  0.5615  0.2416
  170MOL0     C22853   2.897   2.452   3.162  0.3318  0.7656 -0.1135
  170MOL0     C22854   3.029   2.511   3.103  0.5646  1.0287  0.0223
  170MOL0     C22855   3.075   2.632   3.177  0.6560  0.0075  0.4359
  170MOL0     C22856   3.179   2.710   3.093  0.4533 -0.5887  0.3164
  170MOL0     C22857   3.227   2.843   3.161  0.3798 -1.3903  0.4192
  170MOL0     C22858   3.330   2.831   3.263 -0.0235 -0.7645 -0.2106
  170MOL0     C22859   3.390   2.961   3.310  0.0789 -0.2961 -0.7303
  170MOL0    Cl22860   3.271   3.079   3.362  0.1024 -0.4009 -0.5461
  170MOL0     C22861   2.866   2.101   2.913 -0.2872  0.2288 -0.4094
  170MOL0     C22862   2.882   1.986   2.839  0.6945  0.2143  0.1458
  170MOL0     O22863   3.147   1.814   2.725  0.6650 -0.5497 -0.4439
  170MOL0     C22864   3.144   1.582   2.557 -0.3181  0.7848  0.7755
  170MOL0     C22865   3.126   1.470   2.472 -0.2150  0.8319  0.6214
  170MOL0     N22866   2.534   1.404   2.313 -0.2178  0.5085  0.2796
  170MOL0     N22867   2.421   1.466   2.322 -0.7428  0.3886  0.1337
  170MOL0     C22868   1.698   2.021   1.959 -0.2246  0.7229  0.7428
  170MOL0     C22869   1.647   2.153   1.940  0.3548 -0.6190  0.5546
  170MOL0     C22870   1.408   2.528   1.975 -0.1515  0.4748 -0.7474
  170MOL0     C22871   1.455   2.619   2.060  0.0880 -0.1924 -1.3739
  170MOL0     C22872   1.420   2.752   2.045 -0.0256 -0.3724 -0.7186
  170MOL0     C22873   1.347   2.797   1.932  0.1840  0.1629  0.1320
  170MOL0     O22874   1.303   2.923   1.900  0.4750 -0.0271  0.4026
  170MOL0     C22875   1.308   3.016   2.011 -1.0986 -0.2303 -0.4624
  170MOL0     C22876   1.292   3.163   1.980 -0.1408 -0.1994  0.5775
  170MOL0     C22877   1.158   3.170   1.896  0.7671  0.1620 -0.9779
  170MOL0     C22878   1.105   3.316   1.884 -0.5958  1.3340 -0.3194
  170MOL0     C22879   1.195   3.381   1.790 -0.5589 -0.4721 -0.4386
  170MOL0     C22880   1.274   3.434   1.712 -0.1451  0.3275  0.1218
  170MOL0     C22881   1.318   2.697   1.838  0.5433  0.4995  0.0594
  170MOL0     C22882   1.353   2.563   1.853  0.7133 -0.5110 -0.2639
  170MOL0     H22883   1.315   2.074   1.960  0.3501 -4.6076 -0.7938
  170MOL0     H22884   1.398   1.870   2.011  0.4217 -0.2258  1.1152
  170MOL0     H22885   1.471   1.683   2.048 -0.1495  0.7970 -0.4001
  170MOL0     H22886   1.561   1.651   1.910 -2.7156  1.2799  0.0496
  170MOL0     H22887   1.663   1.603   2.212  1.2484  2.1733  0.5258
  170MOL0     H22888   1.601   1.477   2.090  3.3371 -1.2014 -2.3050
  170MOL0     H22889   1.817   1.586   1.963  2.8606 -1.6617  0.4898
  170MOL0     H22890   1.869   1.627   2.127  1.7143 -0.0288 -0.5605
  170MOL0     H22891   1.847   1.389   2.200  0.0950  0.5055 -0.0267
  170MOL0     H22892   1.787   1.338   2.046 -1.4944  0.3725 -1.2474
  170MOL0     H22893   2.024   1.290   2.088 -0.9656  0.2151 -1.1309
  170MOL0     H22894   2.023   1.393   1.951  4.1975 -0.1459  0.5522
  170MOL0     H22895   2.209   1.445   2.080  2.3201  1.0530  3.1428
  170MOL0     H22896   2.104   1.576   2.049 -1.3443 -1.5977 -0.9746
  170MOL0     H22897   2.191   1.610   2.262 -1.7335  1.9305  3.5448
  170MOL0     H22898   2.024   1.552   2.296 -2.5104 -1.0014 -2.5064
  170MOL0     H22899   2.129   1.325   2.361  1.0405 -0.0595 -1.7891
  170MOL0     H22900   2.198   1.470   2.436 -3.4605  2.8690 -0.5004
  170MOL0     H22901   2.321   1.178   2.205  2.0184 -1.3804  0.9371
  170MOL0     H22902   2.572   1.079   2.275 -0.4614  0.4671 -0.3679
  170MOL0     H22903   2.563   1.139   2.116  0.0271 -3.7674  0.9756
  170MOL0     H22904   2.771   1.307   2.190 -0.1746  0.3411  0.4348
  170MOL0     H22905   2.793   1.122   2.163 -3.0996 -0.4321  0.2560
  170MOL0     H22906   2.791   1.091   2.408  2.2971 -0.6229 -0.6374
  170MOL0     H22907   2.741   1.267   2.425 -1.7636  1.1857 -2.7863
  170MOL0     H22908   3.007   1.145   2.328  0.2683  0.3080 -0.5954
  170MOL0     H22909   2.976   1.212   2.489  0.5460  0.0359 -0.4339
  170MOL0     H22910   2.799   1.480   2.405  1.5427 -3.4787 -0.3372
  170MOL0     H22911   2.703   1.677   2.505 -0.9933  3.8206 -0.8448
  170MOL0     H22912   2.740   1.647   2.671 -1.7966  2.8957  0.1857
  170MOL0     H22913   2.795   1.799   2.594  0.1808 -0.3590  1.6486
  170MOL0     H22914   3.070   1.802   3.057  0.8118 -1.0691 -3.9233
  170MOL0     H22915   3.032   2.008   3.196 -1.3951 -1.0296  1.3512
  170MOL0     H22916   2.869   2.343   2.978 -0.1161 -4.0027 -0.4287
  170MOL0     H22917   2.737   2.326   3.107 -0.3307 -0.6215  0.6005
  170MOL0     H22918   2.824   2.531   3.145 -0.4805 -0.1108 -0.7659
  170MOL0     H22919   2.908   2.435   3.270  3.2123  2.4128 -0.0663
  170MOL0     H22920   3.020   2.520   2.995  4.7043 -3.0093 -1.0175
  170MOL0     H22921   3.106   2.432   3.109  0.5518  1.0892  1.7114
  170MOL0     H22922   2.987   2.687   3.211 -0.1602 -0.6204 -0.5872
  170MOL0     H22923   3.127   2.601   3.268  2.0389  0.2121 -0.2546
  170MOL0     H22924   3.128   2.743   3.002  0.7861  0.0373  0.3543
  170MOL0     H22925   3.265   2.645   3.069 -0.1237 -1.5078  0.6962
  170MOL0     H22926   3.289   2.895   3.087 -0.6455 -0.1554  0.3940
  170MOL0     H22927   3.145   2.908   3.191  1.3873 -0.9040  2.2004
  170MOL0     H22928   3.416   2.767   3.243  1.3778 -0.3758  3.6987
  170MOL0     H22929   3.276   2.784   3.346 -2.6531  2.7901  0.3799
  170MOL0     H22930   3.453   3.003   3.231  2.6710 -0.1157  1.3055
  170MOL0     H22931   3.456   2.938   3.394 -2.2055 -1.1597  0.9425
  170MOL0     H22932   2.815   2.185   2.867  0.9171  0.1526 -1.9411
  170MOL0     H22933   2.844   1.990   2.738  1.5203 -1.9049 -0.3114
  170MOL0     H22934   3.241   1.616   2.591 -0.8371  1.6153  1.4796
  170MOL0     H22935   3.214   1.421   2.431 -0.1305  2.1370 -0.8398
  170MOL0     H22936   1.804   2.001   1.972 -0.4714 -1.8978 -0.6702
  170MOL0     H22937   1.712   2.236   1.914 -0.0892 -0.6453 -0.7132
  170MOL0     H22938   1.508   2.587   2.149 -0.8817 -1.6677 -1.2999
  170MOL0     H22939   1.448   2.815   2.129  1.6232  0.1058 -1.5937
  170MOL0     H22940   1.244   2.983   2.094 -0.3421 -2.1162 -0.5708
  170MOL0     H22941   1.412   3.004   2.043 -1.4884 -1.6364  0.3579
  170MOL0     H22942   1.376   3.184   1.914 -1.6682 -0.5178 -1.5633
  170MOL0     H22943   1.305   3.230   2.066  0.8418 -0.3334  0.5459
  170MOL0     H22944   1.082   3.108   1.942  0.8057  0.3278 -0.6859
  170MOL0     H22945   1.180   3.128   1.797  0.0647 -1.3626 -0.5016
  170MOL0     H22946   1.102   3.352   1.987 -2.3612  0.6893 -0.1141
  170MOL0     H22947   1.008   3.330   1.835  0.0013  3.1504 -1.1032
  170MOL0     H22948   1.336   3.489   1.644  1.1561 -0.6259  0.5062
  170MOL0     H22949   1.272   2.730   1.746  1.3005 -2.1059 -1.3576
  170MOL0     H22950   1.313   2.488   1.785  1.1111 -0.5266 -0.4895
  171MOL0     O22951   1.265   9.783  11.042 -0.0020  1.2372  0.8521
  171MOL0     C22952   1.216   9.725  10.943 -1.2632 -1.6995  0.0710
  171MOL0     O22953   1.226   9.779  10.810  0.2070  0.0263 -0.4965
  171MOL0     C22954   1.306   9.881  10.787 -0.1329 -0.0370 -0.1047
  171MOL0     C22955   1.280  10.010  10.832  0.5587  0.4121 -1.3129
  171MOL0     C22956   1.378  10.109  10.806 -0.0747  0.1946 -0.5813
  171MOL0     C22957   1.485  10.092  10.721 -0.3296 -0.1834 -0.6748
  171MOL0     O22958   1.582  10.187  10.692 -0.0192  0.0504  0.9855
  171MOL0     C22959   1.562  10.316  10.755 -0.0906 -0.3679 -0.4003
  171MOL0     C22960   1.664  10.416  10.709  0.0159 -0.2391 -0.7394
  171MOL0     C22961   1.809  10.387  10.754 -0.4523  0.1397 -0.3910
  171MOL0     C22962   1.904  10.507  10.718 -0.9824  0.7633  0.2811
  171MOL0     C22963   2.052  10.479  10.709  0.2333  0.4409  0.2742
  171MOL0     C22964   2.125  10.614  10.686 -0.1296 -0.3953 -0.7252
  171MOL0     C22965   2.274  10.576  10.681  0.0522  0.0165 -0.3912
  171MOL0     C22966   2.361  10.706  10.685  0.0519 -0.4493 -0.6621
  171MOL0     N22967   2.505  10.675  10.709  0.3524 -0.5004  0.5942
  171MOL0     C22968   2.551  10.587  10.799 -0.1463 -0.1191  0.8531
  171MOL0     C22969   2.684  10.588  10.803 -0.6937  0.2562  0.0192
  171MOL0     C22970   2.762  10.494  10.892 -0.6952  0.1336 -0.5913
  171MOL0     C22971   2.727  10.348  10.876  0.2402  0.7937  0.4017
  171MOL0     C22972   2.748  10.283  10.736 -0.0552 -0.4362  0.3085
  171MOL0     C22973   2.650  10.330  10.627  0.2263  0.3078 -0.2149
  171MOL0     O22974   2.642  10.221  10.530  0.7411  0.0414 -0.3596
  171MOL0     C22975   2.572  10.236  10.415 -0.4771 -0.0280  0.9179
  171MOL0     C22976   2.479  10.331  10.384  0.3157  0.1500 -0.6316
  171MOL0     C22977   2.387  10.314  10.275  0.0580 -0.1071 -0.0516
  171MOL0     C22978   2.277  10.422  10.262  0.4798 -0.1253 -1.1923
  171MOL0     C22979   2.407  10.213  10.181 -0.0387 -0.7976  0.4317
  171MOL0     C22980   2.326  10.212  10.054  0.6567 -0.0132  0.5531
  171MOL0     O22981   2.298  10.088  10.009 -0.1083 -0.5387 -0.3732
  171MOL0     C22982   2.263  10.078   9.870  0.4103 -0.7989  0.0115
  171MOL0     C22983   2.125  10.112   9.835 -1.0306  0.8714  0.5882
  171MOL0     C22984   2.093  10.109   9.691 -0.0220 -0.1540 -1.1097
  171MOL0     C22985   2.188  10.076   9.594 -0.4180  0.0193  0.4240
  171MOL0     O22986   2.172  10.083   9.454  0.2605 -0.4141 -0.3976
  171MOL0     C22987   2.053  10.135   9.407  0.4014  0.2643 -0.4154
  171MOL0     C22988   1.951  10.025   9.395 -0.1285  0.3012 -0.0277
  171MOL0     C22989   1.826  10.057   9.311 -0.3916  0.4621 -0.9171
  171MOL0     C22990   1.739  10.187   9.342 -0.0050  0.6375 -0.4596
  171MOL0     C22991   1.608  10.202   9.255  1.0908 -0.4644 -0.2826
  171MOL0     C22992   1.527  10.324   9.265  0.0350  0.7812  0.9111
  171MOL0     C22993   1.539  10.400   9.394 -0.6286  0.1058  0.3262
  171MOL0     C22994   1.455  10.523   9.425  0.1013  0.3727 -1.2596
  171MOL0    Cl22995   1.496  10.654   9.312 -0.5527  0.4032  0.0936
  171MOL0     C22996   2.321  10.053   9.632 -0.3369  1.0637  0.1163
  171MOL0     C22997   2.354  10.056   9.767  0.3747 -1.0657  0.7719
  171MOL0     O22998   2.297  10.320   9.999 -0.0022 -0.0875  0.7332
  171MOL0     C22999   2.502  10.111  10.213 -0.8417  0.6490  0.0170
  171MOL0     C23000   2.582  10.130  10.324  0.9938 -0.4650 -0.3934
  171MOL0     N23001   2.722  10.689  10.715 -0.0146 -0.4428  0.5088
  171MOL0     N23002   2.617  10.733  10.647 -0.0863 -0.4446 -0.0469
  171MOL0     C23003   1.503   9.964  10.675 -0.0601  0.0316  0.5635
  171MOL0     C23004   1.417   9.861  10.709  0.1930 -0.2976 -0.2423
  171MOL0     C23005   1.152   9.596  10.966 -0.9730 -0.1967 -0.8532
  171MOL0     C23006   1.117   9.543  11.089  0.5254  0.0297  0.0287
  171MOL0     C23007   1.055   9.412  11.106  0.1967 -0.9743 -1.3412
  171MOL0     C23008   1.033   9.333  10.997  0.3210 -0.4395 -0.0237
  171MOL0     O23009   0.963   9.216  10.994  0.4438  0.0665  0.0334
  171MOL0     C23010   1.005   9.116  11.097  0.4064  0.0187 -0.1130
  171MOL0     C23011   0.901   9.094  11.204  0.0187 -0.2739  0.7958
  171MOL0     C23012   0.956   9.080  11.347  0.1652  0.2732 -0.1875
  171MOL0     C23013   0.835   9.044  11.435 -0.7729 -0.5060 -0.8890
  171MOL0     C23014   0.870   9.046  11.576 -0.7709 -0.0622  0.2534
  171MOL0     C23015   0.905   9.056  11.692  1.0890  0.4359  0.0117
  171MOL0     C23016   1.066   9.385  10.869  0.1250 -0.3456 -0.6793
  171MOL0     C23017   1.135   9.509  10.853  0.4525  0.6073  0.1764
  171MOL0     H23018   1.186  10.030  10.884 -0.1202 -1.3741 -1.7965
  171MOL0     H23019   1.364  10.207  10.852  2.4471  0.6351 -0.5572
  171MOL0     H23020   1.468  10.359  10.718  0.0090 -1.8187 -2.4993
  171MOL0     H23021   1.556  10.311  10.864 -3.0099 -0.6697 -0.4762
  171MOL0     H23022   1.662  10.408  10.599  1.7416  0.1825 -0.8188
  171MOL0     H23023   1.633  10.518  10.735 -2.5606 -1.7628  3.0363
  171MOL0     H23024   1.818  10.363  10.861  3.9960  0.4241 -0.5237
  171MOL0     H23025   1.834  10.292  10.706 -0.1792  0.1994 -0.3700
  171MOL0     H23026   1.866  10.561  10.631 -2.1663 -0.7210 -0.1753
  171MOL0     H23027   1.898  10.572  10.806  1.1736  0.6316  0.5786
  171MOL0     H23028   2.096  10.429  10.796  0.5135  1.2562  0.6093
  171MOL0     H23029   2.071  10.404  10.632  1.5963 -1.9431  2.7458
  171MOL0     H23030   2.089  10.656  10.591 -0.0420  0.0012 -0.5861
  171MOL0     H23031   2.123  10.692  10.763  0.1677 -0.3544 -0.7566
  171MOL0     H23032   2.289  10.527  10.777 -0.7336 -0.6834 -0.6189
  171MOL0     H23033   2.298  10.506  10.601  4.7991  0.3232  0.5037
  171MOL0     H23034   2.327  10.773  10.763  0.1550  0.0538 -1.0441
  171MOL0     H23035   2.341  10.763  10.594 -1.5144  2.8123  1.5463
  171MOL0     H23036   2.481  10.531  10.860 -0.8123 -0.9490 -0.6165
  171MOL0     H23037   2.870  10.509  10.880 -0.2280 -1.7539  0.6459
  171MOL0     H23038   2.738  10.527  10.994 -0.8693  0.3633 -0.7081
  171MOL0     H23039   2.623  10.329  10.905 -0.3119  2.7053 -0.2137
  171MOL0     H23040   2.790  10.284  10.938  1.4503 -1.0185 -2.4704
  171MOL0     H23041   2.735  10.175  10.743 -1.7501 -0.3101 -0.4714
  171MOL0     H23042   2.851  10.294  10.702 -0.3372  2.5883  0.1385
  171MOL0     H23043   2.677  10.425  10.580 -0.6983 -1.6470 -5.3435
  171MOL0     H23044   2.555  10.348  10.678  0.9388  3.7323  0.1048
  171MOL0     H23045   2.470  10.417  10.449 -1.7903  0.2008 -0.9094
  171MOL0     H23046   2.189  10.394  10.205 -0.0435  0.2651 -0.5875
  171MOL0     H23047   2.234  10.448  10.359 -3.6917 -1.1276 -2.5972
  171MOL0     H23048   2.334  10.497  10.207  1.6452 -0.9886 -1.2096
  171MOL0     H23049   2.052  10.122   9.915 -1.9239 -2.0850  0.2606
  171MOL0     H23050   1.990  10.134   9.669  0.0106  0.0247 -1.0650
  171MOL0     H23051   2.013  10.207   9.479  0.1558 -1.9227  1.7985
  171MOL0     H23052   2.075  10.188   9.314 -1.2418  2.2129  0.2294
  171MOL0     H23053   1.998   9.931   9.364  0.5386  0.8967 -0.8537
  171MOL0     H23054   1.913  10.000   9.495  0.0582 -1.2841 -0.3226
  171MOL0     H23055   1.764   9.967   9.317 -1.2470  0.6504 -4.7008
  171MOL0     H23056   1.856  10.064   9.206 -1.9793 -2.1387 -1.6513
  171MOL0     H23057   1.700  10.180   9.444 -1.0066 -0.4729 -0.8999
  171MOL0     H23058   1.808  10.270   9.325  1.9086 -0.7229  0.3006
  171MOL0     H23059   1.541  10.120   9.280 -2.7434  1.0556 -4.3955
  171MOL0     H23060   1.638  10.189   9.151 -2.1413  0.3374 -1.4077
  171MOL0     H23061   1.555  10.389   9.181 -4.4873 -0.1971 -1.7222
  171MOL0     H23062   1.421  10.309   9.242  0.7428 -1.9608 -1.0867
  171MOL0     H23063   1.643  10.430   9.414 -0.5532  0.0316  0.0617
  171MOL0     H23064   1.513  10.322   9.465  0.1061 -0.9053 -0.4896
  171MOL0     H23065   1.484  10.564   9.523  1.7008 -1.1014 -1.0570
  171MOL0     H23066   1.349  10.499   9.429  0.3436 -1.0796  3.5861
  171MOL0     H23067   2.391  10.029   9.552 -1.2856 -0.5218 -0.2929
  171MOL0     H23068   2.458  10.043   9.793  0.8740 -1.2001 -1.1238
  171MOL0     H23069   2.510  10.027  10.145 -1.6410 -0.4470  1.2393
  171MOL0     H23070   2.662  10.060  10.346  1.1954 -0.3506 -0.7627
  171MOL0     H23071   1.577   9.936  10.601 -2.6452 -0.5820 -2.0008
  171MOL0     H23072   1.428   9.758  10.677  0.1358 -0.7211  1.0363
  171MOL0     H23073   1.127   9.598  11.183 -0.4991 -1.9164  1.3549
  171MOL0     H23074   0.999   9.381  11.193 -0.5293 -0.4867 -1.6249
  171MOL0     H23075   1.010   9.019  11.046 -0.3753  1.0595 -2.2902
  171MOL0     H23076   1.097   9.136  11.152  0.0762 -0.1805  0.5196
  171MOL0     H23077   0.836   9.014  11.167  1.1389 -0.4150 -0.9841
  171MOL0     H23078   0.824   9.171  11.191  0.3706 -0.2456 -1.4754
  171MOL0     H23079   0.996   9.176  11.381  0.3977  0.3426 -0.6465
  171MOL0     H23080   1.031   9.000  11.342  0.8992  1.0069 -1.5333
  171MOL0     H23081   0.808   8.942  11.407  2.5702 -1.1739 -2.0927
  171MOL0     H23082   0.758   9.117  11.409  0.3632  0.9281 -0.3648
  171MOL0     H23083   0.915   9.052  11.798  0.5380  2.1783  0.1692
  171MOL0     H23084   1.058   9.321  10.782 -1.6158 -3.4777  1.5956
  171MOL0     H23085   1.167   9.541  10.755  1.3153 -1.2136 -0.1844
  172MOL0     O23086   9.879   5.960   4.686 -0.7447  0.1416 -0.3903
  172MOL0     C23087   9.946   5.910   4.593 -0.6357 -0.6211 -0.5105
  172MOL0     O23088  10.021   5.799   4.607  0.0938  0.0334  0.7269
  172MOL0     C23089  10.018   5.750   4.737 -0.3068 -0.1578  0.0918
  172MOL0     C23090   9.987   5.615   4.764  0.2577 -0.3770  0.3113
  172MOL0     C23091  10.013   5.557   4.891 -0.1164  1.0553 -0.5631
  172MOL0     C23092  10.071   5.628   4.997 -0.1375  0.0448 -0.0503
  172MOL0     O23093  10.101   5.582   5.122 -0.0261 -1.2390  0.2309
  172MOL0     C23094   9.996   5.605   5.207 -0.0859 -0.9603 -0.6913
  172MOL0     C23095  10.041   5.603   5.353 -0.2043 -0.4528  1.0107
  172MOL0     C23096   9.917   5.613   5.441 -0.6438  0.4188 -0.3459
  172MOL0     C23097   9.965   5.630   5.585 -0.0716 -0.6611 -0.4572
  172MOL0     C23098   9.852   5.607   5.689 -0.5096  0.7930  0.2107
  172MOL0     C23099   9.844   5.718   5.786 -0.4491  0.0421  0.2919
  172MOL0     C23100   9.807   5.681   5.925  0.4369 -0.8006  0.2931
  172MOL0     C23101   9.663   5.614   5.932  0.1304  0.2689  0.6602
  172MOL0     N23102   9.619   5.595   6.068  0.2394  0.2839 -0.2017
  172MOL0     C23103   9.515   5.668   6.129  0.2812  0.3013  1.2096
  172MOL0     C23104   9.499   5.601   6.243 -0.2178  0.6967 -0.0891
  172MOL0     C23105   9.404   5.655   6.342  0.8008 -0.3058  0.4148
  172MOL0     C23106   9.290   5.549   6.354 -0.5188 -0.2930 -0.4275
  172MOL0     C23107   9.167   5.631   6.398  1.0609 -0.1786  0.7673
  172MOL0     C23108   9.071   5.538   6.480 -0.9217  0.5044 -0.3421
  172MOL0     O23109   9.146   5.506   6.611  0.5587  0.2254 -0.2101
  172MOL0     C23110   9.075   5.486   6.724  0.0677  0.6986  0.0906
  172MOL0     C23111   9.145   5.502   6.838  0.5529  0.7513  0.2042
  172MOL0     C23112   9.084   5.500   6.963 -0.3728  0.9752 -0.6358
  172MOL0     C23113   9.176   5.539   7.090  0.8766  0.5204  0.1681
  172MOL0     C23114   8.940   5.487   6.961 -0.1986 -0.0020  0.6511
  172MOL0     C23115   8.857   5.504   7.084 -0.0872 -0.1974 -0.1877
  172MOL0     O23116   8.917   5.550   7.191  0.5396  0.2020 -0.3771
  172MOL0     C23117   8.852   5.573   7.311  1.2190  0.3868 -0.2055
  172MOL0     C23118   8.938   5.586   7.416  0.7820  0.2961 -0.2167
  172MOL0     C23119   8.897   5.625   7.545 -0.0896  0.6542  0.0777
  172MOL0     C23120   8.757   5.633   7.579  0.2025  0.1518  0.1306
  172MOL0     O23121   8.708   5.679   7.701 -0.7088 -0.5721  0.2542
  172MOL0     C23122   8.765   5.636   7.820 -0.2599  0.4020 -0.4975
  172MOL0     C23123   8.676   5.697   7.926  0.3027 -0.2839 -0.3197
  172MOL0     C23124   8.540   5.619   7.939  0.1465 -0.0585  0.0884
  172MOL0     C23125   8.550   5.487   8.019  0.3682  0.1627 -0.2574
  172MOL0     C23126   8.419   5.434   8.043  1.0586  0.0996  1.6582
  172MOL0     C23127   8.358   5.358   7.936 -0.2205  0.3816 -0.0761
  172MOL0     C23128   8.243   5.272   7.980  0.2750  0.3610 -0.4672
  172MOL0     C23129   8.149   5.236   7.867 -0.5479 -0.3030  0.1653
  172MOL0    Cl23130   8.247   5.156   7.736 -0.0592  0.1040  0.4779
  172MOL0     C23131   8.669   5.613   7.471 -0.0926  0.0640  0.6431
  172MOL0     C23132   8.712   5.582   7.343  0.1413  0.6440 -0.1564
  172MOL0     O23133   8.735   5.463   7.078 -0.0406 -0.9345 -0.6226
  172MOL0     C23134   8.870   5.471   6.843 -0.1095  0.2749  0.2785
  172MOL0     C23135   8.939   5.452   6.726 -0.0737 -0.5499 -0.0791
  172MOL0     N23136   9.577   5.489   6.249 -0.5632 -0.4365 -0.2946
  172MOL0     N23137   9.648   5.487   6.141  0.1456 -0.3104  0.8202
  172MOL0     C23138  10.108   5.759   4.974 -0.4870  0.6697  0.4171
  172MOL0     C23139  10.094   5.815   4.842 -0.4944  0.2373 -0.4597
  172MOL0     C23140   9.935   5.968   4.458 -0.5640  0.3390  0.9778
  172MOL0     C23141  10.004   5.920   4.342 -0.0944 -0.7189 -0.4537
  172MOL0     C23142   9.981   5.979   4.218  0.3685 -0.0352  0.1107
  172MOL0     C23143   9.895   6.084   4.195 -0.7460  0.8949  0.4251
  172MOL0     O23144   9.885   6.120   4.065  0.6601 -0.4854  0.1140
  172MOL0     C23145   9.849   6.261   4.035 -0.9593 -0.1363  0.7062
  172MOL0     C23146   9.871   6.292   3.886  0.2200  0.0740 -0.8095
  172MOL0     C23147   9.798   6.199   3.803  0.4846  0.3474  0.3501
  172MOL0     C23148   9.801   6.246   3.657 -0.0576  0.1750  0.1576
  172MOL0     C23149   9.718   6.163   3.572 -0.2123  0.4975 -0.1917
  172MOL0     C23150   9.650   6.100   3.490 -0.2162  0.9494 -0.9057
  172MOL0     C23151   9.831   6.137   4.308 -0.3484 -0.4174  0.5836
  172MOL0     C23152   9.854   6.077   4.441  0.3456  0.4756 -0.0420
  172MOL0     H23153   9.949   5.558   4.680 -3.5788  3.0987 -0.6037
  172MOL0     H23154   9.980   5.454   4.893  1.7447  0.3719 -2.0017
  172MOL0     H23155   9.952   5.705   5.200  4.1279  1.4104  2.5272
  172MOL0     H23156   9.922   5.525   5.195 -0.3422 -1.0399  1.1309
  172MOL0     H23157  10.094   5.512   5.383 -1.7262 -0.7297  3.0863
  172MOL0     H23158  10.100   5.695   5.362 -1.3964  0.2489  2.0314
  172MOL0     H23159   9.865   5.707   5.417  0.0844  1.1987  1.0410
  172MOL0     H23160   9.853   5.525   5.432 -2.0992  0.9496  3.2465
  172MOL0     H23161  10.050   5.561   5.593  0.5484 -0.0216 -1.3244
  172MOL0     H23162  10.018   5.726   5.587  1.3976 -1.4023  2.8772
  172MOL0     H23163   9.756   5.590   5.639  0.6674 -1.5712 -1.4278
  172MOL0     H23164   9.875   5.518   5.748  2.1960 -0.2000 -2.1222
  172MOL0     H23165   9.944   5.758   5.807 -0.4327  0.3537 -0.3790
  172MOL0     H23166   9.786   5.804   5.751  1.9066  1.2131 -0.9288
  172MOL0     H23167   9.888   5.616   5.959 -1.1237 -3.0300  0.0004
  172MOL0     H23168   9.801   5.770   5.988 -0.0837 -0.7464  0.1796
  172MOL0     H23169   9.675   5.516   5.886  3.4887  1.4998 -1.5256
  172MOL0     H23170   9.587   5.668   5.875 -1.3921 -2.9970 -0.6387
  172MOL0     H23171   9.464   5.755   6.091 -2.5194 -1.2173  1.2883
  172MOL0     H23172   9.458   5.664   6.437 -2.7182  4.7229  2.4161
  172MOL0     H23173   9.361   5.749   6.307 -0.9909 -1.8538 -1.8601
  172MOL0     H23174   9.327   5.478   6.429  0.4531 -1.6333 -2.1027
  172MOL0     H23175   9.279   5.501   6.257 -0.7574  0.1038 -0.5994
  172MOL0     H23176   9.114   5.667   6.309 -0.7519  0.8815  2.2015
  172MOL0     H23177   9.186   5.724   6.452 -1.2122  1.2546 -0.6822
  172MOL0     H23178   9.059   5.439   6.435 -1.1122  1.4814 -2.5343
  172MOL0     H23179   8.976   5.581   6.512 -0.4607 -0.1362  2.1445
  172MOL0     H23180   9.251   5.523   6.823  0.5343 -0.6560 -2.5518
  172MOL0     H23181   9.283   5.553   7.070  1.1897  0.7639  1.8662
  172MOL0     H23182   9.134   5.631   7.131  1.8467  0.5038  1.2461
  172MOL0     H23183   9.161   5.470   7.174 -0.6607 -1.4838 -1.6345
  172MOL0     H23184   9.045   5.583   7.396  0.7332 -2.5358 -0.5868
  172MOL0     H23185   8.969   5.645   7.623  0.3359 -1.0576  0.1758
  172MOL0     H23186   8.783   5.529   7.838  2.7937  1.4231  4.2597
  172MOL0     H23187   8.865   5.676   7.832 -0.1659  0.0978 -0.2509
  172MOL0     H23188   8.732   5.711   8.019  2.5393 -1.5286 -1.4022
  172MOL0     H23189   8.639   5.791   7.884  0.6315 -0.7445 -1.6855
  172MOL0     H23190   8.497   5.593   7.842  0.7176  1.1135 -0.4924
  172MOL0     H23191   8.469   5.683   7.992  1.1389  0.8911  0.3061
  172MOL0     H23192   8.604   5.413   7.959 -0.6294  0.1694 -1.1994
  172MOL0     H23193   8.604   5.499   8.113 -0.5408 -3.1424  0.8088
  172MOL0     H23194   8.348   5.509   8.078  1.2858  1.0190  0.2071
  172MOL0     H23195   8.433   5.368   8.130 -0.5188 -0.8004  1.2639
  172MOL0     H23196   8.322   5.419   7.853 -2.9025 -1.6458 -0.5537
  172MOL0     H23197   8.435   5.288   7.902  0.6334  0.7173  1.1227
  172MOL0     H23198   8.177   5.317   8.054 -3.4039 -0.2816 -3.0827
  172MOL0     H23199   8.269   5.178   8.031 -4.3194 -1.0160 -0.2047
  172MOL0     H23200   8.108   5.331   7.832  0.1743  0.4266  1.2564
  172MOL0     H23201   8.063   5.169   7.877 -1.6291  0.5297 -2.4863
  172MOL0     H23202   8.561   5.625   7.485  0.2850  1.2116  3.1493
  172MOL0     H23203   8.646   5.575   7.257  0.8062  1.6457 -0.7650
  172MOL0     H23204   8.762   5.458   6.844  0.1033 -2.8252  3.1141
  172MOL0     H23205   8.885   5.430   6.634 -2.9845 -2.3599  1.8617
  172MOL0     H23206  10.167   5.806   5.052  0.5757  4.0216 -2.1790
  172MOL0     H23207  10.138   5.914   4.835 -0.2083  0.0237 -2.2055
  172MOL0     H23208  10.067   5.832   4.346 -0.1944 -1.2104 -4.6427
  172MOL0     H23209  10.022   5.938   4.126 -2.0100 -2.8053  0.1382
  172MOL0     H23210   9.749   6.286   4.069 -0.3338  2.6558  0.7233
  172MOL0     H23211   9.916   6.323   4.095  0.1896 -1.2266  0.6246
  172MOL0     H23212   9.973   6.262   3.861 -0.8483 -3.1871 -1.7187
  172MOL0     H23213   9.838   6.397   3.878  1.4890  0.8952  2.7539
  172MOL0     H23214   9.695   6.188   3.838  0.4179  0.1647  0.1035
  172MOL0     H23215   9.840   6.098   3.800  0.1981  0.2061  0.9136
  172MOL0     H23216   9.902   6.235   3.615  2.0923 -0.7399  4.8962
  172MOL0     H23217   9.786   6.354   3.651  1.3948  0.5084  1.7819
  172MOL0     H23218   9.601   6.043   3.414  0.2186  0.4346 -0.8059
  172MOL0     H23219   9.751   6.211   4.308 -0.5902 -0.5938  2.7836
  172MOL0     H23220   9.794   6.104   4.528 -5.0299 -1.0083 -2.8701
  173MOL0     O23221   3.786   7.584   3.089  0.0682  0.0536 -0.1745
  173MOL0     C23222   3.847   7.681   3.045 -0.3329  0.2658 -0.3471
  173MOL0     O23223   3.821   7.809   3.071  0.0315  0.5578 -0.3962
  173MOL0     C23224   3.721   7.846   3.165 -0.1801 -0.7266  0.0016
  173MOL0     C23225   3.753   7.904   3.288 -0.4824 -0.0327  0.2393
  173MOL0     C23226   3.655   7.955   3.370  0.0894 -0.1888  0.0126
  173MOL0     C23227   3.518   7.949   3.337 -0.8859  0.1384 -0.7557
  173MOL0     O23228   3.426   8.006   3.427  0.1257  0.0086 -0.0104
  173MOL0     C23229   3.336   8.101   3.357 -0.6643  0.0081 -0.3238
  173MOL0     C23230   3.215   8.134   3.437  0.2015 -0.1894 -0.5384
  173MOL0     C23231   3.147   8.269   3.411  0.4262 -0.8412  0.2915
  173MOL0     C23232   3.098   8.290   3.264 -0.8410  0.9434 -0.6869
  173MOL0     C23233   3.034   8.428   3.243 -0.4842 -0.3795  1.0080
  173MOL0     C23234   2.947   8.434   3.117  0.0947  0.5266 -0.3662
  173MOL0     C23235   2.837   8.545   3.108 -0.4246  0.7062  0.3743
  173MOL0     C23236   2.889   8.686   3.109  0.5037 -0.8201 -0.6189
  173MOL0     N23237   2.792   8.778   3.184 -0.9025 -0.0228 -0.0367
  173MOL0     C23238   2.764   8.760   3.322 -0.1256  0.9958 -0.0693
  173MOL0     C23239   2.642   8.822   3.345  0.2697  0.2825 -0.4532
  173MOL0     C23240   2.580   8.809   3.467  0.0025  0.0257 -1.2574
  173MOL0     C23241   2.524   8.667   3.498  0.5849  0.1131 -0.1325
  173MOL0     C23242   2.466   8.576   3.384  0.1313 -0.6817 -0.6067
  173MOL0     C23243   2.360   8.656   3.299 -0.0181 -0.4605  0.2227
  173MOL0     O23244   2.278   8.566   3.226 -0.2547 -0.2667  0.7196
  173MOL0     C23245   2.147   8.595   3.189  0.0969 -0.2517 -0.8439
  173MOL0     C23246   2.105   8.727   3.164  1.1735  0.4769  0.3221
  173MOL0     C23247   1.971   8.752   3.116 -0.3341 -0.2642  0.5917
  173MOL0     C23248   1.930   8.894   3.073 -0.1259  0.2952 -0.1473
  173MOL0     C23249   1.884   8.644   3.105  0.1658 -0.5956  0.3982
  173MOL0     C23250   1.746   8.664   3.057 -0.3410 -0.7066 -0.5760
  173MOL0     O23251   1.722   8.724   2.928 -0.2717 -0.5994  0.3646
  173MOL0     C23252   1.588   8.717   2.885 -0.0155 -0.3669 -0.2266
  173MOL0     C23253   1.545   8.815   2.803  0.4843  0.0631  0.5198
  173MOL0     C23254   1.423   8.792   2.727 -0.3893  0.4606 -1.1141
  173MOL0     C23255   1.340   8.681   2.751 -0.3309 -0.1573  0.8794
  173MOL0     O23256   1.217   8.659   2.691 -0.5417  0.0486 -0.1746
  173MOL0     C23257   1.154   8.735   2.591  0.1485 -0.7379  0.1480
  173MOL0     C23258   1.016   8.678   2.580 -0.3309  0.4035  0.1910
  173MOL0     C23259   0.942   8.766   2.481 -0.3388  0.4578  0.7752
  173MOL0     C23260   0.994   8.737   2.334  1.1879  1.1664  0.1946
  173MOL0     C23261   0.910   8.819   2.248 -0.7497  0.3327  1.0142
  173MOL0     C23262   0.981   8.850   2.116  0.2324 -0.7386 -0.8889
  173MOL0     C23263   0.966   8.738   2.015  0.3102  0.4241 -0.7209
  173MOL0     C23264   1.029   8.776   1.881  0.3404 -0.8784 -0.2238
  173MOL0    Cl23265   1.082   8.647   1.765 -0.0717 -0.0342  0.1627
  173MOL0     C23266   1.386   8.591   2.842  0.1399  0.1214  0.0606
  173MOL0     C23267   1.514   8.599   2.900 -0.3227  0.5771  0.0612
  173MOL0     O23268   1.660   8.646   3.148  0.7585  0.6721  0.9751
  173MOL0     C23269   1.930   8.516   3.151  0.3228  0.7104  0.4991
  173MOL0     C23270   2.054   8.488   3.194  0.0077  0.7952  0.1368
  173MOL0     N23271   2.612   8.888   3.225  0.7114  0.0940  0.6267
  173MOL0     N23272   2.687   8.848   3.128  0.0841  0.3248 -0.3754
  173MOL0     C23273   3.493   7.896   3.215  0.8240  1.3171  0.2602
  173MOL0     C23274   3.585   7.847   3.128 -0.5830  0.0088 -0.0352
  173MOL0     C23275   3.965   7.648   2.954  0.3944 -0.0232 -0.3012
  173MOL0     C23276   4.026   7.520   2.940 -0.0415 -0.7506 -0.1592
  173MOL0     C23277   4.133   7.501   2.853 -1.1508 -0.0495  1.4923
  173MOL0     C23278   4.182   7.608   2.778  0.1212 -0.5312  0.0419
  173MOL0     O23279   4.300   7.587   2.701  0.4885 -0.2831 -0.4826
  173MOL0     C23280   4.360   7.695   2.629 -0.8244  0.1391  1.0515
  173MOL0     C23281   4.506   7.658   2.582  1.1407 -0.3809  0.2206
  173MOL0     C23282   4.600   7.635   2.698 -0.1340 -0.5608 -0.3769
  173MOL0     C23283   4.635   7.770   2.762  0.1842  0.1079 -0.3612
  173MOL0     C23284   4.762   7.818   2.704 -0.1758  0.4046  0.5878
  173MOL0     C23285   4.858   7.865   2.657 -0.1818 -0.7268  1.1423
  173MOL0     C23286   4.130   7.729   2.799  0.5986 -0.0425  0.0261
  173MOL0     C23287   4.027   7.752   2.888  0.8598  0.6102  0.1541
  173MOL0     H23288   3.854   7.896   3.328 -0.0041  0.6343 -0.7871
  173MOL0     H23289   3.683   7.997   3.466  0.6138 -1.5228  0.4627
  173MOL0     H23290   3.394   8.193   3.347 -0.7462  0.3220  1.6584
  173MOL0     H23291   3.301   8.058   3.263 -1.6814  0.5210 -0.1956
  173MOL0     H23292   3.140   8.054   3.430 -0.4930  0.2904  1.0516
  173MOL0     H23293   3.248   8.133   3.541 -0.3365  1.3567 -0.3331
  173MOL0     H23294   3.063   8.286   3.478 -0.2919 -0.6239 -0.6512
  173MOL0     H23295   3.215   8.353   3.428 -1.4265  1.2900 -2.1145
  173MOL0     H23296   3.185   8.276   3.198 -0.0569 -0.2322  0.5291
  173MOL0     H23297   3.025   8.217   3.228 -0.4234  0.7967 -1.2587
  173MOL0     H23298   2.973   8.454   3.329  0.9060  1.7340  1.4342
  173MOL0     H23299   3.119   8.496   3.241  0.1495 -1.0933 -1.9550
  173MOL0     H23300   3.018   8.444   3.035 -0.8373  0.3156 -1.2123
  173MOL0     H23301   2.906   8.333   3.106 -2.2153  0.5871  4.7550
  173MOL0     H23302   2.792   8.511   3.014  2.5084  0.4644 -1.0697
  173MOL0     H23303   2.778   8.519   3.197  0.4498  2.5288  1.5559
  173MOL0     H23304   2.893   8.715   3.003 -2.7041  0.5763 -0.5042
  173MOL0     H23305   2.988   8.691   3.155  0.5161  4.0861 -0.5908
  173MOL0     H23306   2.834   8.718   3.392 -0.8214 -2.2122 -1.1273
  173MOL0     H23307   2.644   8.847   3.548  0.6135  1.8721 -2.5497
  173MOL0     H23308   2.492   8.873   3.480  0.0536 -0.1199 -0.0384
  173MOL0     H23309   2.452   8.699   3.573  0.0971 -0.8614 -0.1751
  173MOL0     H23310   2.597   8.596   3.540 -0.3803  0.5121  2.3891
  173MOL0     H23311   2.418   8.485   3.422 -1.2897  0.2554 -0.0980
  173MOL0     H23312   2.552   8.552   3.320  4.6396  1.2704  4.0194
  173MOL0     H23313   2.411   8.723   3.230 -0.3304 -2.2190 -1.8201
  173MOL0     H23314   2.298   8.715   3.367  0.6001 -1.1281  1.4039
  173MOL0     H23315   2.175   8.809   3.171 -0.4004  1.8145  1.1044
  173MOL0     H23316   1.877   8.934   3.161  1.8984 -0.0966  1.3278
  173MOL0     H23317   2.020   8.955   3.064  1.2529 -1.8757 -2.3627
  173MOL0     H23318   1.876   8.900   2.978  0.1734  0.5496 -0.3024
  173MOL0     H23319   1.607   8.900   2.777 -2.7410  1.5850 -3.2161
  173MOL0     H23320   1.381   8.861   2.654  0.3443  1.0707 -0.9748
  173MOL0     H23321   1.158   8.842   2.616 -0.3463 -1.1364  2.1165
  173MOL0     H23322   1.208   8.719   2.498  0.3263 -0.7922  0.2605
  173MOL0     H23323   1.026   8.578   2.537  2.6181  0.9602 -0.6754
  173MOL0     H23324   0.962   8.679   2.675  0.7404  0.7436  0.8161
  173MOL0     H23325   0.949   8.871   2.510  1.5702 -0.2683  3.3332
  173MOL0     H23326   0.835   8.742   2.479 -0.0120 -1.0704 -0.6111
  173MOL0     H23327   1.102   8.753   2.325  2.0487 -2.0426  3.0899
  173MOL0     H23328   0.982   8.632   2.305  1.8612  1.4211 -1.0825
  173MOL0     H23329   0.891   8.914   2.299 -0.0215  1.2117 -0.2948
  173MOL0     H23330   0.814   8.766   2.241 -0.0035 -1.7910  4.5382
  173MOL0     H23331   0.931   8.933   2.065  0.5819  1.2397  1.8212
  173MOL0     H23332   1.085   8.881   2.131  0.3001 -2.3413  3.4394
  173MOL0     H23333   0.864   8.702   1.998  0.2992  0.8449 -1.5906
  173MOL0     H23334   1.029   8.655   2.048 -0.7911 -0.6434 -1.2314
  173MOL0     H23335   1.123   8.829   1.899  0.8109 -2.5772  2.9681
  173MOL0     H23336   0.955   8.838   1.830  0.8825  0.0170  0.0609
  173MOL0     H23337   1.332   8.497   2.842  0.0222  0.1641  1.2822
  173MOL0     H23338   1.549   8.518   2.963 -2.9254  1.2213  2.5334
  173MOL0     H23339   1.867   8.428   3.148  2.4239 -0.8607 -0.8946
  173MOL0     H23340   2.086   8.387   3.218 -1.1205  0.4715  0.2888
  173MOL0     H23341   3.395   7.886   3.169 -0.3093  3.6510  2.0013
  173MOL0     H23342   3.559   7.798   3.034  0.1532  0.7080 -0.6096
  173MOL0     H23343   3.992   7.437   3.002 -0.7734  1.6927  2.9839
  173MOL0     H23344   4.165   7.400   2.829 -0.4536  0.1051  1.7577
  173MOL0     H23345   4.297   7.718   2.542  0.6261 -0.3365 -0.1625
  173MOL0     H23346   4.378   7.789   2.681 -3.0408  2.0383 -1.3352
  173MOL0     H23347   4.547   7.734   2.515 -1.9790 -2.6508 -4.8656
  173MOL0     H23348   4.479   7.565   2.532  0.8830  0.3088 -0.9624
  173MOL0     H23349   4.693   7.583   2.673  1.6527  1.0165  2.4209
  173MOL0     H23350   4.549   7.572   2.771 -0.6901  0.9722  0.6057
  173MOL0     H23351   4.650   7.761   2.871  0.2369  2.9251 -0.0509
  173MOL0     H23352   4.562   7.849   2.741  0.6846 -0.1425 -3.3496
  173MOL0     H23353   4.946   7.915   2.623 -1.1302  1.8294  2.1353
  173MOL0     H23354   4.161   7.819   2.746  0.8894  0.7592  1.5001
  173MOL0     H23355   3.989   7.853   2.904 -1.8183 -0.3367  0.2601
  174MOL0     O23356  10.084   3.945   9.868 -0.0993  0.1955  0.5607
  174MOL0     C23357  10.084   3.860   9.954  0.8705  0.1037  0.7727
  174MOL0     O23358  10.191   3.797  10.010  0.3555  0.2264 -0.6835
  174MOL0     C23359  10.315   3.849  10.007  0.1323 -0.2334  0.6635
  174MOL0     C23360  10.399   3.835  10.123  0.4966  0.4278  0.6341
  174MOL0     C23361  10.527   3.880  10.123  0.2438  0.5520  1.0692
  174MOL0     C23362  10.590   3.936  10.006 -0.6664  1.0563 -1.2285
  174MOL0     O23363  10.714   3.992   9.994 -0.9121 -0.1055  0.8253
  174MOL0     C23364  10.730   4.110  10.076 -0.7416 -0.3195  0.5532
  174MOL0     C23365  10.854   4.074  10.171  0.2397  0.5817 -0.2156
  174MOL0     C23366  10.985   4.035  10.084  0.5506  0.5139  1.3753
  174MOL0     C23367  11.037   4.153   9.995  0.2394 -0.0545  0.0036
  174MOL0     C23368  11.159   4.088   9.915  0.4535 -0.3038 -0.8292
  174MOL0     C23369  11.242   4.181   9.833 -0.2540  0.3241  0.4931
  174MOL0     C23370  11.159   4.212   9.696 -0.7462 -0.5870  0.1752
  174MOL0     C23371  11.259   4.290   9.602 -0.6165 -0.1827  0.3555
  174MOL0     N23372  11.327   4.405   9.661  0.2793 -0.0454  0.3599
  174MOL0     C23373  11.460   4.420   9.677 -0.8215  0.4979 -0.2174
  174MOL0     C23374  11.479   4.550   9.690 -0.1681  0.0734  0.3000
  174MOL0     C23375  11.612   4.620   9.714 -0.1257  1.0501 -0.0023
  174MOL0     C23376  11.732   4.530   9.729 -0.1889 -0.1357  0.0573
  174MOL0     C23377  11.867   4.609   9.731  0.3943  0.6245 -1.0648
  174MOL0     C23378  11.983   4.509   9.784  0.7261  0.6132 -0.3628
  174MOL0     O23379  12.007   4.422   9.675 -0.2124  0.0066  0.0855
  174MOL0     C23380  12.105   4.329   9.703 -1.2559 -0.0235  0.2428
  174MOL0     C23381  12.175   4.266   9.590  0.0047 -0.1864  0.1240
  174MOL0     C23382  12.287   4.184   9.614  0.1260 -0.4385 -0.8177
  174MOL0     C23383  12.331   4.090   9.502  0.2588 -0.8985  0.1061
  174MOL0     C23384  12.339   4.170   9.744  0.1272  0.3220  0.0330
  174MOL0     C23385  12.469   4.093   9.764 -0.1594  0.0622  0.0614
  174MOL0     O23386  12.566   4.083   9.666  0.0085  0.2138  0.0723
  174MOL0     C23387  12.687   4.034   9.692 -0.1519  0.3373 -0.2375
  174MOL0     C23388  12.751   4.056   9.817  0.5481  0.6497  0.6909
  174MOL0     C23389  12.880   3.996   9.841  0.8428  0.6887  0.4689
  174MOL0     C23390  12.930   3.909   9.743 -0.7200 -0.2639  0.3933
  174MOL0     O23391  13.054   3.846   9.769  0.1959 -0.0584 -0.1543
  174MOL0     C23392  13.150   3.896   9.866  1.2384 -0.1021  0.0534
  174MOL0     C23393  13.277   3.802   9.871  1.0021  0.3696  1.0190
  174MOL0     C23394  13.360   3.838   9.991  0.5399  0.3092 -0.5456
  174MOL0     C23395  13.497   3.758  10.010  0.2277 -1.0238 -0.3331
  174MOL0     C23396  13.592   3.832  10.109 -0.2700 -0.5884  0.8464
  174MOL0     C23397  13.694   3.731  10.174 -0.0748 -1.0254  1.5809
  174MOL0     C23398  13.787   3.654  10.073  1.0929 -0.1708  0.0500
  174MOL0     C23399  13.875   3.542  10.145  0.5128 -0.1281 -0.4171
  174MOL0    Cl23400  14.012   3.519  10.037  0.4585  0.3848 -0.1830
  174MOL0     C23401  12.875   3.895   9.618 -0.2921 -0.2699  0.3947
  174MOL0     C23402  12.749   3.965   9.590 -0.4647 -0.1685  0.7499
  174MOL0     O23403  12.482   4.054   9.883 -0.9736  0.5399  0.0017
  174MOL0     C23404  12.276   4.226   9.851  0.4157 -0.4139  0.1945
  174MOL0     C23405  12.158   4.300   9.835 -0.7468  0.0874  1.2897
  174MOL0     N23406  11.353   4.612   9.680  0.7655 -0.6848  0.1762
  174MOL0     N23407  11.262   4.529   9.652  0.5182  0.4991 -0.1366
  174MOL0     C23408  10.501   3.945   9.895 -0.3545  0.7614 -0.6337
  174MOL0     C23409  10.374   3.896   9.896  0.0418 -0.3130  0.4248
  174MOL0     C23410   9.969   3.783   9.960  0.8622  0.3453 -0.4285
  174MOL0     C23411   9.853   3.850   9.921  0.7127  0.0850  0.3557
  174MOL0     C23412   9.723   3.772   9.915  0.3941  0.4785 -0.3883
  174MOL0     C23413   9.709   3.631   9.948 -0.5486  0.1850  0.4157
  174MOL0     O23414   9.592   3.556   9.929 -0.5135 -0.2858  0.0237
  174MOL0     C23415   9.469   3.629   9.887 -0.6106 -0.0225 -0.0822
  174MOL0     C23416   9.409   3.698  10.012 -0.2774  1.1734 -1.1005
  174MOL0     C23417   9.259   3.735   9.997 -1.0379  0.1406  1.1374
  174MOL0     C23418   9.227   3.812   9.869 -0.2788  1.1476  0.1613
  174MOL0     C23419   9.302   3.944   9.868 -0.1087  0.8517 -0.2996
  174MOL0     C23420   9.353   4.051   9.853  0.8422 -1.0149 -0.1732
  174MOL0     C23421   9.833   3.574   9.980  0.1453 -0.1236  0.3055
  174MOL0     C23422   9.954   3.641   9.990  0.5017  0.4560 -0.1949
  174MOL0     H23423  10.364   3.778  10.208 -0.6120  0.2421  0.0658
  174MOL0     H23424  10.593   3.862  10.207  3.2689 -1.5192 -1.5249
  174MOL0     H23425  10.748   4.196  10.011  0.8214 -0.8508  0.2238
  174MOL0     H23426  10.646   4.136  10.141  1.6341  0.1803  3.6626
  174MOL0     H23427  10.879   4.150  10.245  0.4953 -1.6215  2.1128
  174MOL0     H23428  10.827   3.990  10.235  3.4249 -0.7381 -0.4242
  174MOL0     H23429  11.064   3.990  10.145  1.3725 -1.2050 -0.8036
  174MOL0     H23430  10.949   3.951  10.024  2.9828  1.6321 -1.9637
  174MOL0     H23431  10.961   4.191   9.926  0.2974 -0.4506 -0.2862
  174MOL0     H23432  11.072   4.231  10.062  1.1333 -0.6443  0.2453
  174MOL0     H23433  11.233   4.057   9.989 -0.2079 -0.7881 -0.3623
  174MOL0     H23434  11.131   3.995   9.864 -1.3025 -2.1204  3.0161
  174MOL0     H23435  11.259   4.278   9.880  0.8315  1.7780 -2.6371
  174MOL0     H23436  11.343   4.142   9.818 -0.6318 -2.6865  4.1988
  174MOL0     H23437  11.131   4.115   9.656  0.0856 -1.3365  1.3231
  174MOL0     H23438  11.083   4.288   9.717  0.0973  0.0387  1.1320
  174MOL0     H23439  11.206   4.310   9.508  3.8987 -0.0634 -2.4516
  174MOL0     H23440  11.335   4.222   9.563 -2.2879 -1.6817 -0.4652
  174MOL0     H23441  11.546   4.355   9.668 -0.2670  0.5069  3.5486
  174MOL0     H23442  11.626   4.694   9.635 -0.3128 -0.0250 -1.0594
  174MOL0     H23443  11.596   4.679   9.805 -1.1412  1.9930 -0.7756
  174MOL0     H23444  11.735   4.461   9.644 -1.3403 -1.3095  0.9335
  174MOL0     H23445  11.725   4.475   9.823  0.9237 -1.4523 -0.5905
  174MOL0     H23446  11.852   4.686   9.807  0.7101  1.4587 -1.8370
  174MOL0     H23447  11.895   4.659   9.638  2.0157  0.2431 -0.8047
  174MOL0     H23448  11.946   4.467   9.878  1.4087 -3.0434 -1.5739
  174MOL0     H23449  12.074   4.562   9.811  0.6385 -0.8766  3.4004
  174MOL0     H23450  12.135   4.271   9.490  3.6089 -3.5323 -1.7583
  174MOL0     H23451  12.424   4.127   9.457  0.0166 -0.4342 -0.0166
  174MOL0     H23452  12.357   3.990   9.539  1.3011 -0.9221 -0.6280
  174MOL0     H23453  12.253   4.093   9.426 -2.7078  1.6108  2.9891
  174MOL0     H23454  12.702   4.101   9.902 -2.9286 -0.4276 -0.5956
  174MOL0     H23455  12.928   4.009   9.937 -0.6023  1.3995  1.1188
  174MOL0     H23456  13.190   3.993   9.836 -0.5225  0.4392 -0.6572
  174MOL0     H23457  13.103   3.897   9.965  0.1342 -1.3556 -0.4236
  174MOL0     H23458  13.232   3.702   9.870 -0.4375  0.9826 -0.7641
  174MOL0     H23459  13.339   3.816   9.782  2.6736 -0.9439  1.9159
  174MOL0     H23460  13.298   3.824  10.080 -1.2608 -3.2875 -2.1490
  174MOL0     H23461  13.391   3.942   9.977 -0.2203  0.6596  0.2718
  174MOL0     H23462  13.466   3.668  10.064 -0.1884  0.4005  1.9246
  174MOL0     H23463  13.544   3.738   9.913  0.0154 -0.4094 -0.5621
  174MOL0     H23464  13.540   3.891  10.186  2.9965  2.6996  0.8087
  174MOL0     H23465  13.648   3.910  10.057 -1.5457  0.7109  1.3480
  174MOL0     H23466  13.762   3.783  10.242  1.1570  0.4571 -0.6516
  174MOL0     H23467  13.634   3.656  10.225 -1.0289 -0.4428  1.3498
  174MOL0     H23468  13.845   3.731  10.021  0.4537 -1.3435 -2.5928
  174MOL0     H23469  13.725   3.601  10.000 -0.3808  1.1809  0.2599
  174MOL0     H23470  13.823   3.451  10.176  1.4073  0.0276  1.6836
  174MOL0     H23471  13.913   3.595  10.233 -2.5984  3.8982 -1.2111
  174MOL0     H23472  12.924   3.828   9.548  0.8850  1.0925 -0.1488
  174MOL0     H23473  12.692   3.938   9.501 -1.6768  0.4542  1.3223
  174MOL0     H23474  12.302   4.223   9.957  0.4460  0.8636  0.2398
  174MOL0     H23475  12.116   4.344   9.924  2.5041  1.6406  2.1796
  174MOL0     H23476  10.531   3.993   9.802 -2.1120 -1.9719 -2.7526
  174MOL0     H23477  10.311   3.913   9.810 -0.4349  2.7966  1.2545
  174MOL0     H23478   9.850   3.958   9.908 -0.7832 -0.0572 -0.7893
  174MOL0     H23479   9.632   3.826   9.891  0.5536  1.2503  0.6679
  174MOL0     H23480   9.488   3.707   9.812  2.6813 -0.1100  0.5227
  174MOL0     H23481   9.392   3.558   9.856 -1.7548  1.3555 -0.5614
  174MOL0     H23482   9.462   3.789  10.039 -1.9284  1.5741  1.1086
  174MOL0     H23483   9.410   3.625  10.093 -1.2885  1.9864 -0.3287
  174MOL0     H23484   9.233   3.804  10.077 -3.3695  1.0000 -0.2280
  174MOL0     H23485   9.201   3.644  10.013  0.7584 -0.9181  1.8889
  174MOL0     H23486   9.118   3.816   9.874 -0.3664 -1.1135  1.7488
  174MOL0     H23487   9.261   3.762   9.777  1.2241 -1.5740  2.0254
  174MOL0     H23488   9.400   4.147   9.845 -0.1564 -0.4445  0.5712
  174MOL0     H23489   9.839   3.467  10.000 -1.4269 -0.3765 -0.4095
  174MOL0     H23490  10.044   3.582  10.004  0.2816 -0.3744 -2.0543
  175MOL0     O23491   1.964   7.736   9.109 -0.4790  0.2431 -0.5754
  175MOL0     C23492   2.073   7.765   9.055  0.5007 -0.2273 -0.9462
  175MOL0     O23493   2.091   7.845   8.949 -0.1315 -0.7293 -0.2027
  175MOL0     C23494   1.992   7.925   8.907  0.5435  0.6402 -0.4170
  175MOL0     C23495   1.928   8.023   8.988 -0.3709  0.0633 -0.4381
  175MOL0     C23496   1.822   8.103   8.944 -0.5827 -0.1688  0.1031
  175MOL0     C23497   1.774   8.086   8.815  0.2485  1.0594  0.4055
  175MOL0     O23498   1.666   8.161   8.786 -0.0216 -0.3147 -0.3222
  175MOL0     C23499   1.542   8.082   8.762  0.0830  0.0104 -0.2317
  175MOL0     C23500   1.421   8.175   8.730 -0.0667  0.4444  1.1823
  175MOL0     C23501   1.447   8.257   8.598 -0.5837  0.5785 -0.0767
  175MOL0     C23502   1.493   8.399   8.639  0.5784  0.0331  0.4064
  175MOL0     C23503   1.480   8.495   8.519  0.3213 -0.1450  0.3712
  175MOL0     C23504   1.569   8.623   8.510  1.1363 -0.5241  0.3185
  175MOL0     C23505   1.532   8.738   8.609  0.2001 -0.5895  0.7176
  175MOL0     C23506   1.629   8.850   8.586  0.4736  0.3007 -0.4567
  175MOL0     N23507   1.633   8.952   8.693 -0.2370 -0.1159 -0.2202
  175MOL0     C23508   1.522   8.977   8.775 -0.0010 -0.3218 -0.5110
  175MOL0     C23509   1.571   9.052   8.880  0.0287 -0.2255  0.9263
  175MOL0     C23510   1.512   9.086   9.005 -0.4201 -0.0510  0.3749
  175MOL0     C23511   1.459   9.232   9.007 -0.6427  0.0718  0.2417
  175MOL0     C23512   1.432   9.270   9.146  0.6966 -0.8100 -0.4213
  175MOL0     C23513   1.311   9.193   9.211  0.3052 -0.0365  0.6640
  175MOL0     O23514   1.193   9.196   9.128 -0.0130  0.2083 -0.0984
  175MOL0     C23515   1.076   9.141   9.172 -0.1817  0.3225 -0.3308
  175MOL0     C23516   0.980   9.146   9.081  0.8176  0.6178  0.4064
  175MOL0     C23517   0.851   9.087   9.090 -0.4759 -0.5571 -0.0544
  175MOL0     C23518   0.769   9.100   8.972 -0.5430 -0.0420  0.0322
  175MOL0     C23519   0.818   9.022   9.214 -0.3194 -0.1279  0.1984
  175MOL0     C23520   0.681   8.962   9.241  0.0209 -0.0701  0.1844
  175MOL0     O23521   0.642   8.943   9.372 -0.0217 -0.5490  0.0303
  175MOL0     C23522   0.524   8.882   9.397 -0.0155 -0.5461 -0.4455
  175MOL0     C23523   0.442   8.938   9.491  0.1054 -0.7074  0.6214
  175MOL0     C23524   0.334   8.868   9.548  0.3133 -0.1042  0.2180
  175MOL0     C23525   0.299   8.741   9.506  1.1445 -0.2292 -0.8786
  175MOL0     O23526   0.199   8.680   9.572 -0.6088  0.2657 -0.1112
  175MOL0     C23527   0.124   8.574   9.513  1.2450  0.4407 -0.1885
  175MOL0     C23528  -0.008   8.575   9.581 -0.1434 -0.6070  0.1404
  175MOL0     C23529  -0.092   8.712   9.568 -0.3374  0.0299 -0.6135
  175MOL0     C23530  -0.228   8.696   9.631 -0.7356  0.0699  0.2081
  175MOL0     C23531  -0.330   8.807   9.604  0.0621 -0.5339 -0.1873
  175MOL0     C23532  -0.450   8.806   9.692 -0.7730  0.2943  0.0948
  175MOL0     C23533  -0.550   8.923   9.652 -0.4634  0.0132  0.5255
  175MOL0     C23534  -0.676   8.901   9.731 -0.1424  0.2658 -0.2351
  175MOL0    Cl23535  -0.654   8.902   9.915 -0.1923 -0.1784  0.2437
  175MOL0     C23536   0.378   8.682   9.403 -0.5503  0.8123  0.1278
  175MOL0     C23537   0.489   8.754   9.349  0.8360 -0.4963 -0.2307
  175MOL0     O23538   0.628   8.914   9.138 -0.2750  0.0978 -0.0757
  175MOL0     C23539   0.915   9.022   9.318 -0.0197  0.4870  0.5261
  175MOL0     C23540   1.045   9.090   9.300 -0.8362 -0.5935  0.5250
  175MOL0     N23541   1.707   9.067   8.859 -0.0838 -0.1294  0.0567
  175MOL0     N23542   1.739   9.011   8.746 -0.2584 -0.4042 -0.0642
  175MOL0     C23543   1.844   7.994   8.730  0.3574  0.1325  0.4548
  175MOL0     C23544   1.955   7.916   8.769 -0.3369  0.7077 -0.3882
  175MOL0     C23545   2.194   7.693   9.121 -0.4731  0.3808  0.1121
  175MOL0     C23546   2.180   7.603   9.224  0.0612 -0.5312  0.3464
  175MOL0     C23547   2.284   7.539   9.280  0.0077 -0.2263  0.6419
  175MOL0     C23548   2.414   7.558   9.229 -0.4164 -0.0260 -0.6345
  175MOL0     O23549   2.523   7.480   9.278  0.4056 -0.1763  0.3871
  175MOL0     C23550   2.498   7.389   9.389 -0.6218 -0.4594  0.2328
  175MOL0     C23551   2.634   7.377   9.463  0.2867  0.8381 -0.2468
  175MOL0     C23552   2.612   7.318   9.611  0.0021 -0.5391 -0.1935
  175MOL0     C23553   2.733   7.243   9.667  0.1691  0.1820 -0.0872
  175MOL0     C23554   2.853   7.321   9.666 -1.1384 -0.5387 -0.0369
  175MOL0     C23555   2.968   7.367   9.660  0.6695  0.4482 -0.0098
  175MOL0     C23556   2.434   7.655   9.129 -0.2243 -0.2064  0.0228
  175MOL0     C23557   2.320   7.718   9.070  0.4181  0.2336 -0.4705
  175MOL0     H23558   1.972   8.036   9.087  0.4097  0.6405 -0.8456
  175MOL0     H23559   1.789   8.185   9.007  3.4457 -0.2657  2.7163
  175MOL0     H23560   1.564   8.012   8.680  1.6432 -0.8316  0.8401
  175MOL0     H23561   1.514   8.025   8.852 -1.6848 -0.9655 -1.3472
  175MOL0     H23562   1.336   8.110   8.706 -0.7878  1.9511 -0.6110
  175MOL0     H23563   1.395   8.243   8.811  1.6508 -0.8732  2.9443
  175MOL0     H23564   1.531   8.211   8.546  0.2601  1.6494  0.3176
  175MOL0     H23565   1.356   8.255   8.538 -1.5003 -0.4047  1.2705
  175MOL0     H23566   1.444   8.452   8.721  2.3939  2.6157 -0.0558
  175MOL0     H23567   1.596   8.388   8.674  0.8764 -1.0725 -0.7518
  175MOL0     H23568   1.514   8.452   8.424  0.8429 -1.0518  0.9485
  175MOL0     H23569   1.373   8.518   8.515  0.0276 -0.8984  2.7027
  175MOL0     H23570   1.674   8.603   8.537  2.8098  4.8422 -0.9676
  175MOL0     H23571   1.574   8.667   8.410  0.7511 -2.0789 -0.4101
  175MOL0     H23572   1.429   8.762   8.581  1.4720  1.0924 -3.2243
  175MOL0     H23573   1.532   8.699   8.711 -1.9230 -0.7134  0.7087
  175MOL0     H23574   1.599   8.900   8.494  0.7369 -0.1159 -0.7726
  175MOL0     H23575   1.733   8.819   8.572  0.3325 -2.1239  2.6425
  175MOL0     H23576   1.429   8.920   8.775 -1.1578  1.4940 -0.9531
  175MOL0     H23577   1.422   9.027   9.021  0.1654 -0.4458  2.5925
  175MOL0     H23578   1.582   9.080   9.089  0.3930 -0.7000 -0.3296
  175MOL0     H23579   1.376   9.244   8.937 -0.5500 -2.0338 -0.2828
  175MOL0     H23580   1.539   9.294   8.965 -0.2247  1.7955  3.2628
  175MOL0     H23581   1.411   9.378   9.148 -3.0895 -1.2676 -3.1826
  175MOL0     H23582   1.523   9.256   9.205 -0.6722  0.1582  2.0727
  175MOL0     H23583   1.291   9.234   9.310  1.7095 -0.9004  1.3450
  175MOL0     H23584   1.347   9.092   9.237 -0.7643 -0.1117  1.9844
  175MOL0     H23585   0.999   9.196   8.987  2.1211  1.7975  1.2634
  175MOL0     H23586   0.809   9.169   8.898  3.7396  0.5862  2.5787
  175MOL0     H23587   0.763   9.002   8.924  1.4629 -0.5025  0.5966
  175MOL0     H23588   0.668   9.130   8.999 -0.1009  1.1194  0.4742
  175MOL0     H23589   0.470   9.037   9.527 -0.8750 -0.2354  0.1175
  175MOL0     H23590   0.282   8.938   9.613  1.0406  1.6237 -0.9905
  175MOL0     H23591   0.110   8.574   9.404 -0.2031 -2.9317 -0.1177
  175MOL0     H23592   0.172   8.481   9.545 -1.8835 -1.7035 -1.2359
  175MOL0     H23593  -0.058   8.493   9.529  0.7925 -0.3663 -1.1980
  175MOL0     H23594   0.006   8.550   9.686  1.9630 -3.8803 -0.7885
  175MOL0     H23595  -0.116   8.720   9.462 -0.6099  2.7208 -0.4133
  175MOL0     H23596  -0.037   8.797   9.609  1.4658 -0.8274 -1.1291
  175MOL0     H23597  -0.272   8.599   9.607 -0.0922 -0.3682  0.7521
  175MOL0     H23598  -0.214   8.695   9.740  0.2128  0.6529  0.0985
  175MOL0     H23599  -0.368   8.792   9.503 -2.1077 -2.2357  0.8050
  175MOL0     H23600  -0.276   8.902   9.603  0.6190 -0.8490 -0.7132
  175MOL0     H23601  -0.499   8.709   9.678 -0.6750  0.0793  1.1467
  175MOL0     H23602  -0.414   8.821   9.794  1.8787  1.2188 -0.9063
  175MOL0     H23603  -0.568   8.926   9.544  1.3539  0.6734  0.2018
  175MOL0     H23604  -0.515   9.022   9.681 -0.7702  0.5487 -0.8412
  175MOL0     H23605  -0.726   8.806   9.709 -1.3197  0.4299  1.5203
  175MOL0     H23606  -0.746   8.980   9.703  3.6609  4.0980  0.1041
  175MOL0     H23607   0.367   8.578   9.374 -0.0642  0.1672  2.0651
  175MOL0     H23608   0.541   8.707   9.265 -0.0983  0.8452 -1.6210
  175MOL0     H23609   0.894   8.973   9.413  0.7819  1.9366  1.4835
  175MOL0     H23610   1.114   9.098   9.384 -0.8847  5.8877  0.4765
  175MOL0     H23611   1.803   7.974   8.631  1.2518  0.1895  0.0612
  175MOL0     H23612   1.993   7.831   8.713 -3.3486 -1.7570  1.0214
  175MOL0     H23613   2.084   7.581   9.268  0.7399  2.2357  3.6993
  175MOL0     H23614   2.248   7.470   9.355 -0.5687  1.7943  2.3311
  175MOL0     H23615   2.417   7.420   9.455 -1.3025  1.6185 -1.4801
  175MOL0     H23616   2.475   7.288   9.354  0.6717 -0.5727 -0.3614
  175MOL0     H23617   2.686   7.472   9.477  0.5752  0.5913  0.3610
  175MOL0     H23618   2.697   7.315   9.399 -2.1890 -2.2123  0.0098
  175MOL0     H23619   2.526   7.250   9.608 -1.6048  1.3835 -0.1061
  175MOL0     H23620   2.578   7.390   9.686  0.8114 -1.1806  0.8214
  175MOL0     H23621   2.738   7.148   9.612  0.8140  0.0693  0.1589
  175MOL0     H23622   2.716   7.204   9.768  0.4024  0.3415  0.0141
  175MOL0     H23623   3.074   7.381   9.656  0.4283  2.8842  0.4906
  175MOL0     H23624   2.529   7.676   9.080 -1.2091 -0.1920 -1.9822
  175MOL0     H23625   2.336   7.789   8.990 -1.4221 -0.7701 -1.7878
  176MOL0     O23626   5.667   0.396   4.019 -0.1346 -0.3537 -1.1319
  176MOL0     C23627   5.692   0.419   3.904  0.4572  0.2832 -0.2682
  176MOL0     O23628   5.819   0.449   3.854 -0.0157  0.8807 -0.0844
  176MOL0     C23629   5.905   0.527   3.935  0.1042  1.3864 -1.0337
  176MOL0     C23630   5.991   0.468   4.038 -0.9279 -0.0019 -0.2568
  176MOL0     C23631   6.075   0.552   4.108 -0.7362 -0.4432  0.0612
  176MOL0     C23632   6.102   0.692   4.078  0.9231 -0.3566  0.5491
  176MOL0     O23633   6.192   0.771   4.131 -0.0013  0.2097 -0.6311
  176MOL0     C23634   6.236   0.726   4.262  0.1790 -0.3639 -0.4896
  176MOL0     C23635   6.370   0.795   4.307  0.0360 -0.0038  0.9713
  176MOL0     C23636   6.344   0.950   4.330 -0.6459  0.9523 -0.5954
  176MOL0     C23637   6.277   1.004   4.452  0.5975  0.2245  0.0100
  176MOL0     C23638   6.326   1.146   4.504  0.1185 -0.0781 -0.1432
  176MOL0     C23639   6.281   1.165   4.651  0.7831  0.1361  0.1081
  176MOL0     C23640   6.293   1.303   4.710 -0.8982 -0.1687  0.4570
  176MOL0     C23641   6.247   1.411   4.613  0.0251  0.3302 -0.0017
  176MOL0     N23642   6.106   1.407   4.577 -0.2556  0.0229 -0.0709
  176MOL0     C23643   6.009   1.463   4.665 -0.1193 -0.0852 -0.2000
  176MOL0     C23644   5.895   1.467   4.593  0.2528 -0.1873 -0.3609
  176MOL0     C23645   5.763   1.483   4.653  0.3222 -0.6831 -0.8200
  176MOL0     C23646   5.661   1.526   4.544  0.3473  0.3392  0.5179
  176MOL0     C23647   5.534   1.553   4.618 -0.5522  0.1940 -0.4016
  176MOL0     C23648   5.417   1.574   4.517 -0.4435 -0.3325 -0.2942
  176MOL0     O23649   5.382   1.451   4.439 -0.5856 -0.1207 -0.4917
  176MOL0     C23650   5.263   1.456   4.376 -0.5608 -0.1177 -0.0012
  176MOL0     C23651   5.244   1.371   4.272  0.3479  0.0178 -0.3145
  176MOL0     C23652   5.121   1.346   4.208 -0.1300  0.5671  1.1767
  176MOL0     C23653   5.116   1.258   4.083  0.4027  1.0945 -0.7913
  176MOL0     C23654   4.999   1.415   4.254  0.5917 -0.7757 -0.4497
  176MOL0     C23655   4.866   1.412   4.187 -0.4124  0.5749 -0.1710
  176MOL0     O23656   4.789   1.522   4.216  0.5117 -0.0610  0.2903
  176MOL0     C23657   4.654   1.503   4.223  0.1742 -0.1418  0.6068
  176MOL0     C23658   4.572   1.602   4.169  0.1491 -0.1942  0.4456
  176MOL0     C23659   4.431   1.588   4.177 -0.0323  0.1049  0.1901
  176MOL0     C23660   4.376   1.481   4.240  1.1216 -0.1170 -0.4099
  176MOL0     O23661   4.242   1.467   4.251 -0.6668  0.0983  0.2957
  176MOL0     C23662   4.158   1.581   4.271 -0.1783  0.2140  0.4847
  176MOL0     C23663   4.040   1.544   4.366 -0.4924 -0.9583 -0.3137
  176MOL0     C23664   3.948   1.659   4.405 -0.5680  0.4762 -0.0561
  176MOL0     C23665   3.975   1.714   4.546  0.5530  0.5427  0.0221
  176MOL0     C23666   3.936   1.618   4.663  0.2166  0.8777 -0.3985
  176MOL0     C23667   3.809   1.536   4.658 -0.2090 -0.6116  0.1802
  176MOL0     C23668   3.783   1.482   4.806 -0.4071  1.0525 -0.8858
  176MOL0     C23669   3.702   1.351   4.815  0.7093  0.3809  0.2595
  176MOL0    Cl23670   3.533   1.376   4.765 -0.4480 -0.0534  0.3438
  176MOL0     C23671   4.461   1.381   4.291  0.0767  0.5540  0.4031
  176MOL0     C23672   4.600   1.393   4.288  0.9119 -0.0130 -0.2677
  176MOL0     O23673   4.836   1.315   4.119  0.3209 -0.2060  0.5271
  176MOL0     C23674   5.029   1.511   4.353 -0.1128  0.3809  0.7492
  176MOL0     C23675   5.151   1.536   4.414  0.2496  0.0524  0.2596
  176MOL0     N23676   5.920   1.419   4.468 -0.2876 -0.3396 -0.2722
  176MOL0     N23677   6.044   1.384   4.462 -0.4767  0.7666 -0.1220
  176MOL0     C23678   6.011   0.744   3.977 -1.0921  0.0276  0.0071
  176MOL0     C23679   5.914   0.666   3.913  0.0364 -0.1860  0.4173
  176MOL0     C23680   5.579   0.391   3.806  0.2046 -1.7872 -0.2784
  176MOL0     C23681   5.601   0.390   3.668  0.2092  0.9119 -0.2893
  176MOL0     C23682   5.496   0.382   3.576  0.0052  0.0898 -0.1078
  176MOL0     C23683   5.366   0.358   3.624  0.5206 -1.1619 -0.0684
  176MOL0     O23684   5.262   0.377   3.538 -0.7216 -0.2019  0.0245
  176MOL0     C23685   5.144   0.305   3.570  0.4458  0.3027 -0.9056
  176MOL0     C23686   5.083   0.284   3.430  0.0239 -0.1391  0.2730
  176MOL0     C23687   4.975   0.172   3.436 -0.4037  0.3067 -0.2414
  176MOL0     C23688   5.050   0.035   3.428  0.2676  0.0667  0.7096
  176MOL0     C23689   5.095  -0.028   3.559  0.5037  0.0257  0.3419
  176MOL0     C23690   5.138  -0.072   3.654 -0.2574 -0.0954 -0.2818
  176MOL0     C23691   5.345   0.338   3.764  0.1690 -0.6766  0.7445
  176MOL0     C23692   5.451   0.352   3.851 -1.0496 -1.1683  1.2105
  176MOL0     H23693   5.996   0.363   4.065  3.8551 -0.0253 -0.3652
  176MOL0     H23694   6.138   0.500   4.180  1.7208 -0.8667 -2.2538
  176MOL0     H23695   6.164   0.738   4.344  0.9390 -0.6898  0.2405
  176MOL0     H23696   6.270   0.622   4.255  1.7025  0.0281  0.5602
  176MOL0     H23697   6.399   0.760   4.407  1.1475  1.0808  1.0537
  176MOL0     H23698   6.442   0.782   4.226  0.4153  2.0245  0.9490
  176MOL0     H23699   6.433   1.012   4.311 -1.3140  2.2692  0.3688
  176MOL0     H23700   6.278   0.987   4.251 -2.0929  2.6923  1.3144
  176MOL0     H23701   6.173   1.019   4.420  0.7562 -0.7286 -1.0274
  176MOL0     H23702   6.290   0.930   4.532  5.0196 -0.1207 -0.7614
  176MOL0     H23703   6.434   1.158   4.500  0.3340 -1.1830  1.4612
  176MOL0     H23704   6.286   1.221   4.434  2.1135  0.9543 -0.2447
  176MOL0     H23705   6.175   1.145   4.668  0.7470 -0.1735 -0.4565
  176MOL0     H23706   6.335   1.097   4.716 -2.8324 -1.7305  1.4396
  176MOL0     H23707   6.243   1.313   4.807 -1.2704 -0.9233  0.3461
  176MOL0     H23708   6.399   1.324   4.729 -1.0592  1.8478 -0.5095
  176MOL0     H23709   6.307   1.417   4.521 -1.9655 -1.4255 -1.4905
  176MOL0     H23710   6.250   1.508   4.664 -2.4935  0.8301 -0.7011
  176MOL0     H23711   6.009   1.500   4.767 -0.4584 -1.0480  0.1593
  176MOL0     H23712   5.739   1.384   4.693  1.9676 -0.0760  1.8834
  176MOL0     H23713   5.773   1.562   4.727 -1.5938 -0.9696 -0.2085
  176MOL0     H23714   5.648   1.444   4.472 -2.0866  1.6625 -0.6822
  176MOL0     H23715   5.689   1.617   4.490  0.7782 -0.4562 -0.6426
  176MOL0     H23716   5.545   1.633   4.692 -1.5097 -0.3545  0.3497
  176MOL0     H23717   5.518   1.458   4.670  3.7573 -0.8814 -0.5887
  176MOL0     H23718   5.434   1.656   4.447 -1.5962  1.4633  1.4273
  176MOL0     H23719   5.347   1.606   4.595  0.6166 -2.6220  1.7226
  176MOL0     H23720   5.326   1.319   4.223  0.0688  0.4286 -1.2302
  176MOL0     H23721   5.054   1.170   4.106 -1.1479  1.8660 -1.8572
  176MOL0     H23722   5.066   1.312   4.002  1.7137  1.8214 -1.1508
  176MOL0     H23723   5.221   1.231   4.064  1.9707  4.1845  2.3763
  176MOL0     H23724   4.612   1.677   4.101  0.0542  0.2914  0.9199
  176MOL0     H23725   4.383   1.666   4.119  5.6538  2.5530 -2.0330
  176MOL0     H23726   4.212   1.669   4.306 -0.8738  0.9564 -0.2768
  176MOL0     H23727   4.108   1.613   4.180  0.8137  0.8472  0.1544
  176MOL0     H23728   3.979   1.476   4.307 -1.7037  0.7517 -1.1093
  176MOL0     H23729   4.073   1.489   4.455  0.7964  1.6398  0.9307
  176MOL0     H23730   3.843   1.628   4.401  0.2103 -2.3735 -0.7982
  176MOL0     H23731   3.945   1.743   4.335 -0.7065 -0.1704 -0.8361
  176MOL0     H23732   4.074   1.760   4.555  0.5123  0.6823 -0.2391
  176MOL0     H23733   3.906   1.797   4.562  1.6190  0.9142  3.4733
  176MOL0     H23734   3.927   1.681   4.752 -2.2881 -0.0000  0.0214
  176MOL0     H23735   4.010   1.538   4.680  1.4793  2.3211  1.3778
  176MOL0     H23736   3.727   1.602   4.628  0.4136  1.0580  1.9480
  176MOL0     H23737   3.816   1.458   4.582 -1.1786  1.1017 -1.7947
  176MOL0     H23738   3.749   1.563   4.871 -0.1614 -0.4815  1.2356
  176MOL0     H23739   3.880   1.453   4.847 -0.2974  1.0325 -1.1547
  176MOL0     H23740   3.702   1.330   4.923 -0.9930  2.6263  0.7718
  176MOL0     H23741   3.757   1.270   4.766  1.4263  0.6199  0.6423
  176MOL0     H23742   4.414   1.290   4.327  0.7819  0.7289  1.8455
  176MOL0     H23743   4.666   1.311   4.314  0.6767 -1.2811 -3.2908
  176MOL0     H23744   4.945   1.569   4.389 -1.9968 -0.6358 -1.6899
  176MOL0     H23745   5.168   1.602   4.498  2.5409  0.8780 -0.7995
  176MOL0     H23746   6.020   0.838   3.924 -2.6360 -1.2318 -2.6821
  176MOL0     H23747   5.846   0.708   3.840  0.9338 -1.7169 -1.3947
  176MOL0     H23748   5.698   0.409   3.624  1.6725 -1.5487  1.5794
  176MOL0     H23749   5.506   0.390   3.469  0.3127  0.1856 -0.0750
  176MOL0     H23750   5.161   0.217   3.632 -1.6036  1.3284  1.2645
  176MOL0     H23751   5.078   0.365   3.633  0.4342 -0.5793 -0.0663
  176MOL0     H23752   5.157   0.259   3.353 -0.6949 -0.9956 -0.1529
  176MOL0     H23753   5.042   0.384   3.412  2.6005  1.4676  2.5866
  176MOL0     H23754   4.908   0.179   3.350 -1.8343  0.0601  0.8224
  176MOL0     H23755   4.929   0.180   3.535  1.2869 -0.4601  0.6467
  176MOL0     H23756   5.140   0.050   3.367 -0.8660 -1.4395 -1.4920
  176MOL0     H23757   4.985  -0.043   3.387  0.1938  0.3468  0.2873
  176MOL0     H23758   5.168  -0.101   3.753  1.2549 -3.0882 -1.4999
  176MOL0     H23759   5.244   0.330   3.804  0.2292 -1.1740  0.8015
  176MOL0     H23760   5.430   0.344   3.958  0.2730 -1.2946  1.4772
  177MOL0     O23761   8.604   1.594   6.189  0.4936  0.5191  0.0167
  177MOL0     C23762   8.679   1.607   6.086  0.1137 -0.5008 -0.5535
  177MOL0     O23763   8.669   1.701   5.991  0.1115 -0.1244 -0.6787
  177MOL0     C23764   8.569   1.793   6.005 -0.2735 -0.1581 -0.9023
  177MOL0     C23765   8.581   1.893   6.101  1.3831  0.3718  0.4098
  177MOL0     C23766   8.493   1.998   6.103 -0.1152 -0.1229  0.4301
  177MOL0     C23767   8.380   2.006   6.017 -0.9164  0.1315  0.7770
  177MOL0     O23768   8.285   2.108   6.012  0.2266  0.4768  0.3972
  177MOL0     C23769   8.260   2.177   6.131  0.1667  0.0929 -0.3886
  177MOL0     C23770   8.131   2.248   6.132  1.0339 -0.5633 -0.1345
  177MOL0     C23771   8.024   2.136   6.109 -0.1578 -0.3317 -0.0172
  177MOL0     C23772   7.888   2.201   6.088  0.2159 -0.7933 -0.0616
  177MOL0     C23773   7.779   2.104   6.090 -0.0293 -0.2434  0.3809
  177MOL0     C23774   7.752   2.043   6.227 -0.3364 -0.1685 -0.2262
  177MOL0     C23775   7.605   2.002   6.219  0.3612 -0.3284 -0.1053
  177MOL0     C23776   7.561   1.898   6.329 -1.4511 -0.5617  1.1424
  177MOL0     N23777   7.488   1.794   6.268 -1.0477  0.0855  0.2805
  177MOL0     C23778   7.351   1.789   6.272  0.2419 -1.2753  0.4654
  177MOL0     C23779   7.310   1.692   6.200  0.0143 -1.0011  0.1022
  177MOL0     C23780   7.171   1.660   6.202  0.1854  0.4146 -0.8018
  177MOL0     C23781   7.096   1.725   6.081 -0.3650 -0.7392  0.2301
  177MOL0     C23782   7.089   1.636   5.949 -0.0040  0.7260 -0.6897
  177MOL0     C23783   7.003   1.684   5.825 -0.8956 -0.0989 -0.7873
  177MOL0     O23784   6.991   1.572   5.730  0.2144  0.5309 -0.0898
  177MOL0     C23785   6.868   1.540   5.665  0.4907  0.0998  0.9437
  177MOL0     C23786   6.744   1.567   5.712 -0.1333  0.3366 -0.1277
  177MOL0     C23787   6.625   1.522   5.659 -0.4374  0.2062  0.3458
  177MOL0     C23788   6.503   1.592   5.707  0.5045  0.1226  0.6307
  177MOL0     C23789   6.630   1.429   5.555  0.2443  0.3551 -0.3252
  177MOL0     C23790   6.504   1.381   5.490  0.1231 -1.0607  0.9446
  177MOL0     O23791   6.391   1.367   5.561 -0.3351  0.0722 -0.4485
  177MOL0     C23792   6.278   1.297   5.516  0.4231 -0.7327  0.1555
  177MOL0     C23793   6.148   1.337   5.532  0.4236  0.7806  0.3101
  177MOL0     C23794   6.040   1.262   5.499 -0.2255  0.6178  0.9633
  177MOL0     C23795   6.058   1.140   5.431  0.4168  0.8058 -0.4831
  177MOL0     O23796   5.941   1.080   5.406 -0.3484 -0.4351 -0.1757
  177MOL0     C23797   5.926   0.990   5.300  0.1096 -0.1256 -0.4277
  177MOL0     C23798   5.785   0.944   5.292  0.3997  0.0734  0.2458
  177MOL0     C23799   5.760   0.862   5.168 -0.5481 -0.0134 -0.3407
  177MOL0     C23800   5.612   0.814   5.155  0.0945 -0.5663 -0.0758
  177MOL0     C23801   5.599   0.719   5.031 -0.1094  0.1767 -0.6879
  177MOL0     C23802   5.469   0.639   5.023 -0.2217  0.3902 -0.5242
  177MOL0     C23803   5.337   0.726   5.032  0.1424 -0.1237  0.6176
  177MOL0     C23804   5.307   0.785   4.892 -0.5318  0.4844 -0.1577
  177MOL0    Cl23805   5.144   0.834   4.867  0.8184  0.0830  0.0534
  177MOL0     C23806   6.194   1.089   5.424  0.0596 -0.1697 -1.2388
  177MOL0     C23807   6.300   1.171   5.466  0.6763 -0.9552  0.5862
  177MOL0     O23808   6.512   1.354   5.370 -0.0300 -0.0931  0.0457
  177MOL0     C23809   6.755   1.408   5.497 -0.0420 -0.1151  0.2599
  177MOL0     C23810   6.868   1.463   5.551 -0.6505  0.4282 -0.4353
  177MOL0     N23811   7.426   1.624   6.154  0.3630 -0.2160 -0.0553
  177MOL0     N23812   7.535   1.687   6.192 -0.1550  0.2494 -0.4623
  177MOL0     C23813   8.376   1.914   5.917 -0.0822  0.4361  0.0894
  177MOL0     C23814   8.472   1.815   5.907  0.0460 -0.4690  0.1939
  177MOL0     C23815   8.795   1.520   6.066  0.2023  0.2140 -0.5882
  177MOL0     C23816   8.819   1.407   6.144 -0.0509  0.4307  0.6713
  177MOL0     C23817   8.932   1.326   6.118 -0.3122  0.9663  0.3601
  177MOL0     C23818   9.034   1.365   6.039 -0.9215 -0.1216 -0.1582
  177MOL0     O23819   9.148   1.285   6.021  0.3549 -0.3250  0.5880
  177MOL0     C23820   9.270   1.333   6.077  0.0047  0.4389  0.3796
  177MOL0     C23821   9.283   1.315   6.226  0.1239 -0.7047 -1.0942
  177MOL0     C23822   9.300   1.163   6.274  1.0883 -0.8138  0.3555
  177MOL0     C23823   9.367   1.159   6.412  0.2118  1.2350 -0.5367
  177MOL0     C23824   9.341   1.033   6.487 -0.4424 -0.2148  0.9157
  177MOL0     C23825   9.326   0.929   6.551 -0.0588  0.2724 -0.2821
  177MOL0     C23826   9.013   1.481   5.967  0.3564  0.1468  0.7460
  177MOL0     C23827   8.895   1.555   5.973  0.2219  0.9400 -0.3346
  177MOL0     H23828   8.658   1.894   6.178  3.2913  0.1826 -1.4008
  177MOL0     H23829   8.504   2.075   6.179 -2.1288  3.0827 -2.2813
  177MOL0     H23830   8.259   2.111   6.219  3.4750  0.5673  0.1281
  177MOL0     H23831   8.340   2.246   6.159  2.7037 -3.3172  1.7453
  177MOL0     H23832   8.110   2.313   6.218 -0.0448 -1.0768  0.0094
  177MOL0     H23833   8.131   2.322   6.051 -2.4622  3.8001  3.3365
  177MOL0     H23834   8.024   2.073   6.020  0.7062  0.4165 -0.5457
  177MOL0     H23835   8.020   2.074   6.200 -2.0673  0.9417  0.8445
  177MOL0     H23836   7.867   2.278   6.163 -1.9255 -1.2954 -0.0720
  177MOL0     H23837   7.878   2.253   5.992  0.8143  0.1777  0.3859
  177MOL0     H23838   7.688   2.151   6.053  0.9882  0.3208 -1.5328
  177MOL0     H23839   7.791   2.019   6.021  0.6764 -1.6450  2.1471
  177MOL0     H23840   7.814   1.955   6.250  0.0932  0.4902  1.2528
  177MOL0     H23841   7.770   2.126   6.296 -0.1864  0.8364 -1.4594
  177MOL0     H23842   7.546   2.093   6.232  1.8702  0.8108 -0.9028
  177MOL0     H23843   7.593   1.961   6.118  1.6373 -0.7236 -0.1154
  177MOL0     H23844   7.510   1.947   6.412  2.9516 -0.2863  3.9692
  177MOL0     H23845   7.653   1.867   6.380 -0.3824 -1.5861 -1.2257
  177MOL0     H23846   7.284   1.853   6.328  0.9965  0.3325 -0.3926
  177MOL0     H23847   7.156   1.552   6.199 -1.8865  0.5533  1.2700
  177MOL0     H23848   7.132   1.694   6.299  2.0461  1.3200 -0.3216
  177MOL0     H23849   7.137   1.823   6.054 -1.5751  0.0751  1.2024
  177MOL0     H23850   7.004   1.762   6.127  0.1081  2.1618 -0.9566
  177MOL0     H23851   7.045   1.540   5.976  0.8414 -0.0563 -1.9810
  177MOL0     H23852   7.185   1.603   5.910  0.1071 -0.9790  0.8959
  177MOL0     H23853   7.062   1.765   5.779 -1.7081  1.6735  1.1178
  177MOL0     H23854   6.910   1.737   5.847  1.3109  3.1578  1.6851
  177MOL0     H23855   6.729   1.634   5.796 -0.1851  0.6054 -0.3485
  177MOL0     H23856   6.525   1.685   5.761  2.9759  0.1120 -0.1970
  177MOL0     H23857   6.434   1.602   5.623  2.4809  0.7293 -1.0090
  177MOL0     H23858   6.468   1.515   5.776  4.5780 -1.3443  1.3532
  177MOL0     H23859   6.135   1.434   5.578  1.5908  0.9744  0.2593
  177MOL0     H23860   5.937   1.293   5.509 -0.6950  0.3684 -1.9965
  177MOL0     H23861   5.965   1.032   5.206  2.1553  3.7932  1.8979
  177MOL0     H23862   5.985   0.904   5.333 -2.0615 -1.5161 -0.0236
  177MOL0     H23863   5.760   0.889   5.383  0.1878 -1.0375 -0.4585
  177MOL0     H23864   5.712   1.024   5.283 -0.7733 -1.1580 -1.9657
  177MOL0     H23865   5.828   0.776   5.167  0.4924  0.7940  0.0073
  177MOL0     H23866   5.788   0.925   5.084  0.2339 -0.5467 -0.4897
  177MOL0     H23867   5.594   0.756   5.246  1.6528  1.7592  1.7909
  177MOL0     H23868   5.548   0.901   5.137  1.5755 -0.0681 -3.9534
  177MOL0     H23869   5.675   0.640   5.025 -0.8131 -0.4197 -4.9379
  177MOL0     H23870   5.630   0.780   4.946  0.1235  1.6091  0.3873
  177MOL0     H23871   5.472   0.580   4.931  0.5454 -1.6913  0.7554
  177MOL0     H23872   5.464   0.570   5.108  0.2012 -2.6735 -2.7950
  177MOL0     H23873   5.342   0.808   5.104 -0.0686 -1.1790  1.8844
  177MOL0     H23874   5.249   0.664   5.054 -0.1169 -1.2207 -2.8834
  177MOL0     H23875   5.331   0.714   4.813 -1.0918  2.0357 -1.7986
  177MOL0     H23876   5.371   0.871   4.871  1.8704 -1.6406 -2.2770
  177MOL0     H23877   6.210   0.991   5.381  2.5860 -0.7809  0.8613
  177MOL0     H23878   6.402   1.135   5.462  0.4102 -1.6364 -0.4943
  177MOL0     H23879   6.760   1.351   5.405  0.5208  0.3388  0.0039
  177MOL0     H23880   6.955   1.443   5.489 -1.2544  1.3891 -1.6336
  177MOL0     H23881   8.292   1.906   5.849  1.3155 -1.7144 -1.5017
  177MOL0     H23882   8.463   1.747   5.823  0.3557  0.9277 -1.0035
  177MOL0     H23883   8.737   1.378   6.209 -0.6591  1.7624  0.5485
  177MOL0     H23884   8.949   1.233   6.171  1.4354  0.8021 -0.4275
  177MOL0     H23885   9.361   1.286   6.042  0.9638 -0.9756  4.2640
  177MOL0     H23886   9.284   1.441   6.063 -0.7412  0.6375  1.0370
  177MOL0     H23887   9.198   1.361   6.276  0.5372  0.4960 -1.4643
  177MOL0     H23888   9.369   1.381   6.242  1.5116 -2.7255  0.3633
  177MOL0     H23889   9.346   1.093   6.203 -0.2265 -2.9865  1.5528
  177MOL0     H23890   9.199   1.122   6.284 -0.3425  1.4394 -3.0250
  177MOL0     H23891   9.334   1.241   6.477 -2.2340 -1.5954  2.0851
  177MOL0     H23892   9.476   1.167   6.404  0.6220 -2.4382 -0.2042
  177MOL0     H23893   9.324   0.837   6.606  1.9999  0.8461  0.8655
  177MOL0     H23894   9.096   1.510   5.903 -1.2750 -1.8948 -2.5723
  177MOL0     H23895   8.885   1.650   5.921 -1.1727  1.8753  1.5539
  178MOL0     O23896   5.304   3.208   3.188  0.2213  0.1373 -0.1471
  178MOL0     C23897   5.378   3.145   3.112 -0.6339  0.3549 -0.7499
  178MOL0     O23898   5.367   3.139   2.977 -0.1938  0.0446  0.4526
  178MOL0     C23899   5.261   3.200   2.916 -0.6036  0.1543 -0.0272
  178MOL0     C23900   5.277   3.286   2.800  1.0086 -1.0499 -0.4206
  178MOL0     C23901   5.160   3.335   2.733 -0.0064  0.7712 -0.4410
  178MOL0     C23902   5.032   3.294   2.776  0.2235  0.5651 -0.5331
  178MOL0     O23903   4.905   3.335   2.734  0.2072 -0.8413  0.7398
  178MOL0     C23904   4.887   3.464   2.665 -0.4219  0.6874  0.0315
  178MOL0     C23905   4.776   3.460   2.564  0.7309  0.7576 -0.4444
  178MOL0     C23906   4.636   3.454   2.626  0.2237 -0.3571 -0.1907
  178MOL0     C23907   4.527   3.487   2.528 -0.2504 -0.4397  0.0207
  178MOL0     C23908   4.386   3.416   2.559 -0.1199 -0.2221 -0.5441
  178MOL0     C23909   4.305   3.501   2.654  0.0408 -0.0347  0.1945
  178MOL0     C23910   4.156   3.488   2.660 -0.6001  0.2270 -0.1501
  178MOL0     C23911   4.125   3.344   2.694 -0.7963 -0.4242 -0.4088
  178MOL0     N23912   3.984   3.312   2.713  0.1473  0.4638  0.4083
  178MOL0     C23913   3.939   3.180   2.734  0.3282  0.8817 -0.6483
  178MOL0     C23914   3.808   3.195   2.748 -0.4263  0.5565 -1.1313
  178MOL0     C23915   3.716   3.080   2.760  0.1639  0.9533 -0.0760
  178MOL0     C23916   3.623   3.081   2.887  0.3786  0.2948 -0.0277
  178MOL0     C23917   3.695   3.029   3.013  0.1087 -0.2540 -0.1542
  178MOL0     C23918   3.719   3.141   3.112 -0.1787  0.0379  0.0032
  178MOL0     O23919   3.792   3.095   3.223 -0.0908  0.0666 -0.3238
  178MOL0     C23920   3.789   3.174   3.333  0.3023 -0.1677  0.1757
  178MOL0     C23921   3.822   3.311   3.327  0.8438 -0.4587 -0.1550
  178MOL0     C23922   3.807   3.390   3.446 -0.2971  1.1022 -1.0683
  178MOL0     C23923   3.843   3.531   3.418  0.1849 -0.4053  0.3579
  178MOL0     C23924   3.781   3.327   3.572  0.1404 -0.1639 -0.1262
  178MOL0     C23925   3.785   3.397   3.702 -0.1076  0.2358 -0.1429
  178MOL0     O23926   3.820   3.311   3.804  0.1818  0.6628 -0.5725
  178MOL0     C23927   3.784   3.349   3.934 -1.0025 -0.5819 -0.2263
  178MOL0     C23928   3.654   3.379   3.963 -0.6429 -0.3094  0.0590
  178MOL0     C23929   3.616   3.406   4.093  0.3526  0.0193  0.2118
  178MOL0     C23930   3.709   3.398   4.198  0.1603  0.6859  0.1494
  178MOL0     O23931   3.666   3.421   4.327 -0.4227 -0.3404 -1.0481
  178MOL0     C23932   3.763   3.473   4.422 -0.0739 -0.3904 -1.0417
  178MOL0     C23933   3.792   3.356   4.527 -0.5831  0.2029 -0.6818
  178MOL0     C23934   3.828   3.427   4.660  0.4050 -0.1677  0.7282
  178MOL0     C23935   3.817   3.349   4.784  0.5704  0.5772 -1.0243
  178MOL0     C23936   3.858   3.423   4.914  0.6219  0.1235 -0.8949
  178MOL0     C23937   4.003   3.438   4.957 -0.1638 -0.1022  0.6322
  178MOL0     C23938   4.025   3.549   5.060  1.0079  0.5910  0.4996
  178MOL0     C23939   4.042   3.492   5.202  0.5326  0.3669 -0.0813
  178MOL0    Cl23940   4.168   3.371   5.205  0.0011 -0.1879 -0.4645
  178MOL0     C23941   3.840   3.370   4.163  0.2929 -0.4070  0.1786
  178MOL0     C23942   3.877   3.341   4.035  1.2572  0.2124 -0.0478
  178MOL0     O23943   3.740   3.508   3.711 -0.5022  0.6310 -0.8387
  178MOL0     C23944   3.762   3.192   3.570  0.1659  0.0467  0.7068
  178MOL0     C23945   3.760   3.121   3.455 -0.7527 -0.0998  0.2797
  178MOL0     N23946   3.774   3.324   2.745 -0.4886 -0.0806 -0.0037
  178MOL0     N23947   3.877   3.400   2.713  0.5795  0.7491 -0.3412
  178MOL0     C23948   5.022   3.214   2.884 -0.1583  0.0937 -0.4847
  178MOL0     C23949   5.134   3.167   2.948  0.0939  0.2599 -1.1011
  178MOL0     C23950   5.487   3.071   3.182 -0.1243  0.2797 -1.5217
  178MOL0     C23951   5.471   3.024   3.321  0.7715 -0.1820 -0.1570
  178MOL0     C23952   5.561   2.942   3.381 -0.2060  0.1235  0.6366
  178MOL0     C23953   5.677   2.899   3.312  0.6131  0.2135 -0.5565
  178MOL0     O23954   5.784   2.836   3.374  1.1243  0.5446 -0.1081
  178MOL0     C23955   5.749   2.720   3.470 -0.5230 -0.4273  0.3028
  178MOL0     C23956   5.869   2.630   3.485  0.4475  0.3206  0.0155
  178MOL0     C23957   5.925   2.577   3.349 -0.7895 -0.2112  0.3984
  178MOL0     C23958   5.996   2.440   3.353  0.1419 -0.6290 -0.1890
  178MOL0     C23959   6.066   2.404   3.228 -0.3359 -0.1787 -0.8870
  178MOL0     C23960   6.135   2.369   3.134  0.2856  0.1830  0.4381
  178MOL0     C23961   5.696   2.950   3.190 -1.2655 -0.6070 -0.0084
  178MOL0     C23962   5.602   3.024   3.118 -0.1247 -0.2797 -0.3576
  178MOL0     H23963   5.375   3.321   2.771  0.8968  1.5548  1.9544
  178MOL0     H23964   5.177   3.394   2.643  1.6607 -1.7309 -1.9110
  178MOL0     H23965   4.860   3.534   2.745 -2.2685  2.6433 -2.1523
  178MOL0     H23966   4.979   3.502   2.620 -1.3310  1.8741 -0.8824
  178MOL0     H23967   4.788   3.544   2.496  0.0766  0.9881 -0.2818
  178MOL0     H23968   4.792   3.367   2.508 -0.7042 -0.8785  1.7343
  178MOL0     H23969   4.618   3.354   2.665  0.1691 -0.2929 -0.0500
  178MOL0     H23970   4.631   3.530   2.704  1.4612  0.6969 -1.0813
  178MOL0     H23971   4.511   3.595   2.523  5.5827  0.8459  1.4750
  178MOL0     H23972   4.557   3.451   2.429  0.5558  1.7519 -0.5956
  178MOL0     H23973   4.330   3.420   2.465 -0.1789  0.1187 -0.4980
  178MOL0     H23974   4.404   3.312   2.588  1.1228 -1.4601 -4.9136
  178MOL0     H23975   4.350   3.491   2.754 -1.3270  0.9283  0.9285
  178MOL0     H23976   4.325   3.598   2.607  0.4679 -1.0201 -1.7634
  178MOL0     H23977   4.107   3.544   2.740  1.9976  1.1638  0.9025
  178MOL0     H23978   4.113   3.531   2.569  2.1705  4.6711  0.3005
  178MOL0     H23979   4.181   3.306   2.780 -0.3718 -0.3145 -0.6297
  178MOL0     H23980   4.164   3.278   2.616  2.8138 -0.9878  1.6456
  178MOL0     H23981   4.001   3.091   2.744 -1.0714  0.0944  1.7921
  178MOL0     H23982   3.666   3.082   2.662  0.9147  2.0137 -0.4493
  178MOL0     H23983   3.776   2.988   2.754  0.6891  1.3561 -4.4997
  178MOL0     H23984   3.538   3.013   2.871  1.6384 -1.0501 -1.2873
  178MOL0     H23985   3.586   3.184   2.889  0.2084  0.3919 -3.3194
  178MOL0     H23986   3.787   2.980   2.982  0.0542 -1.9774  2.1915
  178MOL0     H23987   3.634   2.958   3.069  2.5410 -0.5701  2.3080
  178MOL0     H23988   3.620   3.175   3.144 -0.2797 -0.6174  0.3917
  178MOL0     H23989   3.769   3.220   3.055  1.8808 -3.5331 -3.5954
  178MOL0     H23990   3.841   3.366   3.235  1.2441 -0.6003 -0.1587
  178MOL0     H23991   3.752   3.591   3.424  1.4996  1.6271  0.7638
  178MOL0     H23992   3.914   3.563   3.494  0.1685 -1.1983  0.7189
  178MOL0     H23993   3.898   3.535   3.323 -0.2318 -1.0053  0.0831
  178MOL0     H23994   3.575   3.387   3.890 -1.0924  0.0555  0.5717
  178MOL0     H23995   3.513   3.434   4.117  0.7207  1.7099 -0.0656
  178MOL0     H23996   3.856   3.514   4.381 -0.5702  1.1284 -0.7050
  178MOL0     H23997   3.711   3.556   4.470  0.9301  0.7099 -1.8250
  178MOL0     H23998   3.707   3.290   4.543  0.8682 -1.3159  1.2756
  178MOL0     H23999   3.872   3.291   4.491 -1.0288 -0.7583  0.0203
  178MOL0     H24000   3.762   3.514   4.668  0.5000 -0.1133  0.9279
  178MOL0     H24001   3.930   3.466   4.659  0.9215 -1.4557  1.0364
  178MOL0     H24002   3.717   3.306   4.795  1.5316 -1.5641 -0.0730
  178MOL0     H24003   3.886   3.266   4.770 -1.5499 -1.2342 -1.2614
  178MOL0     H24004   3.819   3.361   4.994  0.6942  0.0202 -0.9388
  178MOL0     H24005   3.808   3.519   4.928  1.2266  0.6931 -2.4060
  178MOL0     H24006   4.038   3.339   4.986 -2.8518 -1.6642 -0.9848
  178MOL0     H24007   4.057   3.466   4.866 -1.4956 -2.0424 -0.8329
  178MOL0     H24008   3.938   3.614   5.067 -0.3835 -0.8753 -1.8865
  178MOL0     H24009   4.115   3.605   5.033 -0.3657  1.4094 -2.9080
  178MOL0     H24010   3.946   3.450   5.234  1.5605 -1.2797  1.0315
  178MOL0     H24011   4.058   3.579   5.266 -1.9291  1.8289 -1.3238
  178MOL0     H24012   3.922   3.365   4.234  3.0300  3.8078 -2.2168
  178MOL0     H24013   3.984   3.339   4.022  1.6744  2.9986  2.1171
  178MOL0     H24014   3.746   3.136   3.661  1.4805  0.0611  0.9543
  178MOL0     H24015   3.737   3.015   3.460 -2.9048  0.3236  0.4724
  178MOL0     H24016   4.929   3.189   2.934  1.5887 -0.8438  2.5775
  178MOL0     H24017   5.131   3.094   3.028  0.8231 -0.1365 -1.4294
  178MOL0     H24018   5.375   3.049   3.366  0.1487 -2.0079 -0.3562
  178MOL0     H24019   5.545   2.911   3.484  3.2899  0.9821  1.5718
  178MOL0     H24020   5.721   2.764   3.566  1.0771  0.8799  0.2092
  178MOL0     H24021   5.659   2.669   3.435 -1.2066  0.8055  0.2134
  178MOL0     H24022   5.844   2.539   3.541  0.3028  1.4846  1.9384
  178MOL0     H24023   5.950   2.672   3.546 -1.5824 -0.6229  3.6690
  178MOL0     H24024   6.008   2.644   3.323  1.1999 -2.2220  1.2572
  178MOL0     H24025   5.848   2.558   3.273  2.5838 -1.3949 -3.0759
  178MOL0     H24026   5.924   2.360   3.376 -0.4888  0.0914  0.4100
  178MOL0     H24027   6.062   2.433   3.440  2.5303 -3.3890 -2.0685
  178MOL0     H24028   6.206   2.353   3.055 -2.4215 -0.3617 -2.0256
  178MOL0     H24029   5.796   2.927   3.153 -1.1323  0.3330 -0.2565
  178MOL0     H24030   5.615   3.047   3.012 -0.6887 -0.0860 -0.3884
  179MOL0     O24031   8.765   8.818   6.990 -0.8149  0.0816  0.6401
  179MOL0     C24032   8.643   8.805   6.972  0.0222 -1.2773 -0.5253
  179MOL0     O24033   8.578   8.687   6.982  0.3568 -0.0473  0.4145
  179MOL0     C24034   8.648   8.571   7.019  0.1037 -0.7200 -0.2424
  179MOL0     C24035   8.747   8.524   6.937 -0.8276  0.3275 -0.6847
  179MOL0     C24036   8.820   8.408   6.964 -0.7444  0.4845  0.2176
  179MOL0     C24037   8.790   8.338   7.081  0.4309 -0.1765 -0.3544
  179MOL0     O24038   8.876   8.239   7.126 -0.1188 -0.7709  0.8387
  179MOL0     C24039   8.960   8.170   7.025  0.8795  0.2695  0.0237
  179MOL0     C24040   8.994   8.034   7.074  0.6203 -0.9579 -0.5728
  179MOL0     C24041   9.085   8.023   7.196  0.2450  0.0205 -0.6030
  179MOL0     C24042   9.219   8.094   7.175  0.4554  0.0381 -0.7690
  179MOL0     C24043   9.326   8.047   7.259 -0.2202 -0.5628  0.5238
  179MOL0     C24044   9.445   8.145   7.248 -0.4149  0.6973 -0.1167
  179MOL0     C24045   9.562   8.107   7.334  0.5794 -0.1789  0.4241
  179MOL0     C24046   9.653   7.995   7.287 -1.0364  0.4824  0.5403
  179MOL0     N24047   9.769   7.990   7.372 -0.3916  0.1202  0.0897
  179MOL0     C24048   9.881   8.063   7.352  0.3040  0.6863 -0.6832
  179MOL0     C24049   9.964   8.036   7.463  0.3291  0.8126  0.7444
  179MOL0     C24050  10.093   8.104   7.480 -0.3085  0.2133 -0.4634
  179MOL0     C24051  10.204   8.001   7.523 -0.0474  0.3499 -0.7335
  179MOL0     C24052  10.347   8.051   7.520 -0.4173 -0.5244  0.0729
  179MOL0     C24053  10.420   8.046   7.381 -0.1570  0.0371 -0.5677
  179MOL0     O24054  10.544   8.119   7.400 -0.2125 -0.4764 -0.2071
  179MOL0     C24055  10.648   8.119   7.312 -0.2830 -0.3969 -0.5336
  179MOL0     C24056  10.779   8.182   7.344 -0.2278 -0.3031  1.1075
  179MOL0     C24057  10.887   8.179   7.249  0.6585 -0.7983  0.1547
  179MOL0     C24058  11.019   8.240   7.292 -0.0268 -0.0102 -0.1167
  179MOL0     C24059  10.865   8.124   7.118  0.5095  0.6669  0.7755
  179MOL0     C24060  10.961   8.117   7.001 -0.0369 -0.3139 -0.2691
  179MOL0     O24061  10.908   8.039   6.902 -0.7250 -0.1956 -0.5891
  179MOL0     C24062  10.987   7.984   6.808  0.6938  0.4459  0.1258
  179MOL0     C24063  11.093   8.046   6.746 -0.0754 -0.6180  0.4051
  179MOL0     C24064  11.172   7.981   6.662  0.4932 -0.1265 -0.2134
  179MOL0     C24065  11.153   7.848   6.628 -0.5374  0.6200  1.2284
  179MOL0     O24066  11.233   7.767   6.535  0.0084 -0.2533 -0.1909
  179MOL0     C24067  11.365   7.819   6.511 -0.8892 -0.5056  0.1609
  179MOL0     C24068  11.463   7.702   6.499  1.1371  1.0818 -0.1468
  179MOL0     C24069  11.416   7.586   6.407 -0.7253  0.2167 -0.2117
  179MOL0     C24070  11.549   7.499   6.388 -0.2229  0.5219 -0.0158
  179MOL0     C24071  11.514   7.388   6.290  0.0284  0.4847  0.5004
  179MOL0     C24072  11.623   7.285   6.278  0.7532  0.1391  0.0122
  179MOL0     C24073  11.746   7.335   6.208  0.2589  0.2166 -0.1694
  179MOL0     C24074  11.867   7.256   6.260 -0.3641  0.0663  0.1764
  179MOL0    Cl24075  11.905   7.109   6.173 -0.0598 -0.4183  0.5606
  179MOL0     C24076  11.042   7.785   6.676  0.6334  1.0309  0.9135
  179MOL0     C24077  10.954   7.850   6.766  0.5185  0.2572  0.5038
  179MOL0     O24078  11.071   8.175   7.002 -1.3819 -0.0097  0.9916
  179MOL0     C24079  10.742   8.050   7.101 -0.6892  0.0032 -0.1244
  179MOL0     C24080  10.642   8.054   7.192 -0.3158  0.2800  0.8551
  179MOL0     N24081   9.884   7.973   7.555 -0.3302  0.0884 -0.1499
  179MOL0     N24082   9.775   7.941   7.501 -0.5189 -0.1972 -0.3621
  179MOL0     C24083   8.688   8.380   7.166 -0.7038  0.2551  0.4843
  179MOL0     C24084   8.622   8.497   7.133  0.6168 -0.4539 -0.3324
  179MOL0     C24085   8.562   8.904   6.907 -0.5674 -0.0648  0.2891
  179MOL0     C24086   8.443   8.871   6.842  0.2188 -0.1907  0.6838
  179MOL0     C24087   8.365   8.956   6.767  0.6978  0.1122  0.0750
  179MOL0     C24088   8.412   9.093   6.752 -0.3197  0.3951  0.3095
  179MOL0     O24089   8.328   9.174   6.678 -0.1280 -0.2446 -0.2496
  179MOL0     C24090   8.335   9.318   6.704  0.2450 -0.1058  0.2395
  179MOL0     C24091   8.273   9.361   6.840  0.0889  0.3274  0.8983
  179MOL0     C24092   8.223   9.505   6.841 -0.5053  0.3600  0.9708
  179MOL0     C24093   8.322   9.615   6.795  0.3313 -0.1170 -0.0555
  179MOL0     C24094   8.462   9.603   6.829 -0.1090  0.5060 -0.0993
  179MOL0     C24095   8.583   9.603   6.841 -0.8274  0.2339  0.7794
  179MOL0     C24096   8.523   9.135   6.825  0.5641 -0.1818 -0.5179
  179MOL0     C24097   8.598   9.038   6.908 -0.3629 -0.2208  0.2115
  179MOL0     H24098   8.776   8.584   6.851  0.1974  0.5873 -0.1708
  179MOL0     H24099   8.908   8.386   6.904 -1.1058  0.0638 -0.1583
  179MOL0     H24100   8.924   8.163   6.922  1.0311 -1.7418  0.0685
  179MOL0     H24101   9.052   8.227   7.010  0.0339  1.0203 -2.9454
  179MOL0     H24102   8.898   7.983   7.084 -0.6487  1.5117  0.4495
  179MOL0     H24103   9.052   7.988   6.993  2.7192  1.6180 -0.6607
  179MOL0     H24104   9.034   8.064   7.283 -1.6609 -1.9699 -0.6930
  179MOL0     H24105   9.099   7.917   7.222  2.1126  0.0212 -1.3997
  179MOL0     H24106   9.257   8.087   7.073 -0.4833  0.2454 -1.1455
  179MOL0     H24107   9.202   8.200   7.198  1.6045  0.0127  0.2978
  179MOL0     H24108   9.291   8.052   7.363  2.1749 -1.0641  1.4164
  179MOL0     H24109   9.356   7.948   7.224  0.5768 -0.8662  1.9606
  179MOL0     H24110   9.481   8.160   7.146  3.8173 -1.2903  0.8695
  179MOL0     H24111   9.422   8.242   7.292  0.3136  0.5475  0.6308
  179MOL0     H24112   9.627   8.192   7.359  1.3563  0.1903 -2.5467
  179MOL0     H24113   9.515   8.069   7.425  1.4601  0.7747  1.3088
  179MOL0     H24114   9.687   8.011   7.185  3.6939  0.1756  1.8608
  179MOL0     H24115   9.599   7.901   7.301  0.6123 -0.1897  3.1564
  179MOL0     H24116   9.915   8.122   7.268  1.3034  2.6617  1.0139
  179MOL0     H24117  10.125   8.169   7.398 -1.7071  0.9374 -0.4676
  179MOL0     H24118  10.068   8.169   7.564 -2.5660  0.0291 -0.9092
  179MOL0     H24119  10.191   7.911   7.462  3.3427 -1.1623  0.5632
  179MOL0     H24120  10.183   7.955   7.620 -1.3749  0.3377 -1.0058
  179MOL0     H24121  10.401   7.984   7.587 -1.3596 -2.2998 -0.8815
  179MOL0     H24122  10.346   8.154   7.556  2.7046 -1.0140  1.9512
  179MOL0     H24123  10.351   8.091   7.308  0.1645 -0.0352 -0.9217
  179MOL0     H24124  10.436   7.940   7.359  1.1157 -0.3773  2.0857
  179MOL0     H24125  10.793   8.218   7.445 -2.3156  0.1624  1.2673
  179MOL0     H24126  11.031   8.221   7.399  0.9735 -1.8888 -0.5206
  179MOL0     H24127  11.104   8.183   7.252  0.1900 -0.1015  0.4624
  179MOL0     H24128  11.027   8.347   7.273  0.4183 -0.5403 -3.5184
  179MOL0     H24129  11.122   8.147   6.771 -1.0708 -0.2771  0.2449
  179MOL0     H24130  11.242   8.050   6.614 -0.6217  0.5824 -0.8669
  179MOL0     H24131  11.376   7.883   6.423  1.0002 -0.1295  0.6128
  179MOL0     H24132  11.411   7.882   6.588  2.0045 -0.5706 -1.3721
  179MOL0     H24133  11.561   7.735   6.462  3.0518 -4.7603 -1.3611
  179MOL0     H24134  11.472   7.653   6.596 -1.3104 -0.8356 -0.7855
  179MOL0     H24135  11.385   7.630   6.312 -0.7444  3.7268  1.2605
  179MOL0     H24136  11.336   7.522   6.445 -0.0923  0.8908  2.4467
  179MOL0     H24137  11.646   7.542   6.362  0.5645 -1.6644 -0.9093
  179MOL0     H24138  11.573   7.456   6.486 -3.5787 -0.2435  0.5974
  179MOL0     H24139  11.496   7.435   6.193  1.2661  0.2395  0.1412
  179MOL0     H24140  11.419   7.343   6.320 -1.1353  1.7734 -1.1065
  179MOL0     H24141  11.649   7.256   6.381  0.6792 -1.8527 -0.4803
  179MOL0     H24142  11.583   7.206   6.213  1.1671  0.4316 -0.6040
  179MOL0     H24143  11.767   7.435   6.247  0.6177  0.2244 -0.3726
  179MOL0     H24144  11.733   7.336   6.099 -0.7568  0.9670 -0.0631
  179MOL0     H24145  11.853   7.237   6.367 -0.8931  1.5471  0.3834
  179MOL0     H24146  11.957   7.317   6.254  0.3906 -1.0596 -0.3868
  179MOL0     H24147  11.016   7.682   6.656 -1.6191  1.5928  0.6698
  179MOL0     H24148  10.862   7.805   6.801 -1.6072  1.6976 -2.7719
  179MOL0     H24149  10.719   8.006   7.005  2.2661  0.9263 -1.3749
  179MOL0     H24150  10.555   8.012   7.142  1.0072 -0.2518 -1.1154
  179MOL0     H24151   8.666   8.324   7.256 -0.4931 -1.2228 -0.3572
  179MOL0     H24152   8.537   8.527   7.193  1.8225  1.4259  0.5505
  179MOL0     H24153   8.391   8.778   6.857 -1.9696  0.6890 -0.8855
  179MOL0     H24154   8.277   8.926   6.712  0.1248 -0.2824  1.1813
  179MOL0     H24155   8.442   9.343   6.700  1.6023 -4.4184  2.7669
  179MOL0     H24156   8.277   9.375   6.631 -4.9681 -2.4020  2.1005
  179MOL0     H24157   8.342   9.354   6.924 -1.3555 -0.6197  2.0523
  179MOL0     H24158   8.187   9.297   6.861  0.6533 -0.0419  2.1686
  179MOL0     H24159   8.196   9.529   6.944  2.4972  2.5136  1.3927
  179MOL0     H24160   8.132   9.518   6.782  0.0744  1.6347  0.3261
  179MOL0     H24161   8.294   9.715   6.826  0.7634 -0.6862  2.3491
  179MOL0     H24162   8.308   9.615   6.686 -1.3089 -0.1579  0.1378
  179MOL0     H24163   8.690   9.609   6.851 -0.7421 -0.2099  0.1249
  179MOL0     H24164   8.557   9.237   6.810 -0.0795  0.6581  3.0164
  179MOL0     H24165   8.687   9.080   6.951 -0.0060  0.5901 -1.2532
  180MOL0     O24166   5.212   7.899   2.428  0.3310  0.2678 -0.3970
  180MOL0     C24167   5.221   7.901   2.305 -0.2510 -0.0145  0.5911
  180MOL0     O24168   5.131   7.843   2.215  0.0189 -0.0832  0.4860
  180MOL0     C24169   5.012   7.769   2.244 -0.2083 -0.6691  1.1930
  180MOL0     C24170   4.921   7.764   2.143  0.5699  0.5416  0.3083
  180MOL0     C24171   4.806   7.688   2.149  0.0610 -1.2849 -0.9939
  180MOL0     C24172   4.756   7.647   2.276 -0.3478 -0.1801  0.8323
  180MOL0     O24173   4.645   7.573   2.300 -0.0693  0.4890 -0.1018
  180MOL0     C24174   4.554   7.562   2.195  0.1520 -0.0006  0.4892
  180MOL0     C24175   4.420   7.504   2.239  0.0362 -0.3919 -0.2535
  180MOL0     C24176   4.441   7.357   2.290 -0.7902  0.9007  0.7623
  180MOL0     C24177   4.306   7.285   2.323  1.0306 -0.1992 -0.5299
  180MOL0     C24178   4.249   7.348   2.454 -0.7301  1.0349 -0.7343
  180MOL0     C24179   4.140   7.457   2.425 -0.1063 -0.1876 -0.8010
  180MOL0     C24180   4.009   7.427   2.492  0.7552 -0.6674 -0.2404
  180MOL0     C24181   3.894   7.527   2.455  0.3306  0.8367 -0.3037
  180MOL0     N24182   3.770   7.484   2.526 -0.2799  0.5863  0.2358
  180MOL0     C24183   3.755   7.491   2.659 -1.6657  0.4415  0.4261
  180MOL0     C24184   3.638   7.430   2.688 -1.2087  0.1389  0.2168
  180MOL0     C24185   3.575   7.402   2.820  0.1895 -0.4781  0.3310
  180MOL0     C24186   3.440   7.484   2.844 -0.0890 -0.3768  0.1071
  180MOL0     C24187   3.312   7.422   2.763 -0.8644  0.3795 -0.0456
  180MOL0     C24188   3.187   7.404   2.860 -0.0401  0.3818  0.2738
  180MOL0     O24189   3.219   7.294   2.947  0.1384  0.3835 -0.0854
  180MOL0     C24190   3.138   7.286   3.058  0.3195  0.3361 -0.1923
  180MOL0     C24191   3.025   7.371   3.084 -0.4602  0.6664  0.2694
  180MOL0     C24192   2.956   7.368   3.208  0.1082 -0.2722 -0.6154
  180MOL0     C24193   2.834   7.456   3.209 -1.4105  0.0699  0.1358
  180MOL0     C24194   2.981   7.269   3.311 -0.3169 -0.2835 -0.3780
  180MOL0     C24195   2.906   7.269   3.444  1.0640 -0.1526 -0.1803
  180MOL0     O24196   2.925   7.148   3.512 -0.5474  0.0840  0.5502
  180MOL0     C24197   2.875   7.116   3.636  0.9679 -0.6570  0.8399
  180MOL0     C24198   2.919   6.996   3.686 -0.5342  0.0879  0.4349
  180MOL0     C24199   2.883   6.945   3.807 -0.3951  0.1544 -0.6982
  180MOL0     C24200   2.777   7.010   3.881 -0.8364 -0.9335 -0.3830
  180MOL0     O24201   2.732   6.968   4.000 -0.3324  0.2779 -0.2032
  180MOL0     C24202   2.808   6.904   4.097 -1.0480 -0.1930 -0.5006
  180MOL0     C24203   2.731   6.894   4.237  0.3583  0.4653 -0.5155
  180MOL0     C24204   2.717   7.037   4.296 -0.3581  0.1355 -0.5233
  180MOL0     C24205   2.841   7.125   4.319 -0.2527  0.5292  0.2185
  180MOL0     C24206   2.812   7.267   4.365 -0.6894 -0.1729 -0.4468
  180MOL0     C24207   2.740   7.271   4.498  0.0785  0.8707 -0.6356
  180MOL0     C24208   2.847   7.253   4.610  0.7196  0.3419 -0.1759
  180MOL0     C24209   2.783   7.242   4.748  0.2039  0.4144  0.1656
  180MOL0    Cl24210   2.922   7.203   4.865  0.3758  0.0986 -0.1062
  180MOL0     C24211   2.726   7.130   3.824 -0.3127  0.1829  0.3900
  180MOL0     C24212   2.769   7.177   3.703  0.2094  1.0007  0.5519
  180MOL0     O24213   2.846   7.367   3.491 -0.5860  0.3311 -0.3051
  180MOL0     C24214   3.081   7.183   3.275  0.7534 -0.1141 -0.4507
  180MOL0     C24215   3.158   7.197   3.160 -0.6077 -0.2525  0.4916
  180MOL0     N24216   3.576   7.394   2.568  0.0887 -0.8645  0.0657
  180MOL0     N24217   3.658   7.436   2.473  0.4292  0.1435  0.6065
  180MOL0     C24218   4.853   7.660   2.379  0.3913 -0.2849 -0.5183
  180MOL0     C24219   4.976   7.716   2.364 -0.1253  1.0062  0.2432
  180MOL0     C24220   5.339   7.968   2.245  0.6211  0.1022 -0.1802
  180MOL0     C24221   5.456   8.001   2.314  0.6121 -0.0682  1.1162
  180MOL0     C24222   5.562   8.067   2.240 -0.4949  0.2938  0.4133
  180MOL0     C24223   5.548   8.099   2.101 -0.2355 -0.3246 -0.5271
  180MOL0     O24224   5.655   8.153   2.025  0.2172 -0.4074  0.1376
  180MOL0     C24225   5.769   8.230   2.084 -0.3927  0.7507 -0.3461
  180MOL0     C24226   5.756   8.378   2.058  0.5564  0.0886 -0.6744
  180MOL0     C24227   5.793   8.402   1.913 -0.8352  0.0513  0.2478
  180MOL0     C24228   5.759   8.542   1.876  0.5275  0.2966 -0.0595
  180MOL0     C24229   5.839   8.579   1.749 -0.1248 -0.7342 -0.7970
  180MOL0     C24230   5.901   8.599   1.646 -0.7963  0.8386 -0.3911
  180MOL0     C24231   5.431   8.061   2.035  0.0609 -0.6111  0.0938
  180MOL0     C24232   5.331   7.993   2.103  0.1307 -0.1246  0.0125
  180MOL0     H24233   4.939   7.803   2.043 -1.1266 -3.0661 -1.5677
  180MOL0     H24234   4.744   7.673   2.061  1.5645 -2.7074 -1.8546
  180MOL0     H24235   4.532   7.661   2.155 -0.2673 -0.4183 -0.3288
  180MOL0     H24236   4.597   7.516   2.106  0.5285  3.4137 -1.2266
  180MOL0     H24237   4.370   7.571   2.310  0.0205 -0.6445 -0.0207
  180MOL0     H24238   4.355   7.511   2.152 -1.9408 -2.1028  0.9880
  180MOL0     H24239   4.490   7.291   2.218 -1.0554  1.4991  0.0234
  180MOL0     H24240   4.506   7.361   2.378 -1.2634  1.7858  1.0903
  180MOL0     H24241   4.220   7.301   2.258 -0.0054  2.1701  1.2857
  180MOL0     H24242   4.322   7.177   2.335 -2.8005 -0.7444  0.9014
  180MOL0     H24243   4.191   7.266   2.498 -0.3047  0.3148 -1.5005
  180MOL0     H24244   4.324   7.377   2.529  1.6210  0.7526 -2.8616
  180MOL0     H24245   4.179   7.558   2.444 -1.2566  0.6476 -2.6140
  180MOL0     H24246   4.116   7.457   2.319  2.2058  2.1430 -1.4431
  180MOL0     H24247   3.987   7.324   2.460  3.2632 -1.2907 -0.1762
  180MOL0     H24248   4.018   7.435   2.600  3.5537  2.2917 -0.5664
  180MOL0     H24249   3.867   7.508   2.351 -0.7079  1.8966 -0.2525
  180MOL0     H24250   3.932   7.625   2.486 -0.0889  0.4634  1.5367
  180MOL0     H24251   3.823   7.535   2.731 -0.8839 -0.5498  0.3133
  180MOL0     H24252   3.568   7.293   2.829  5.6087 -1.1228 -0.2222
  180MOL0     H24253   3.644   7.440   2.895 -1.5344  2.0068  0.7945
  180MOL0     H24254   3.444   7.589   2.814  1.2348  0.0544  1.6621
  180MOL0     H24255   3.420   7.486   2.952 -3.8400 -0.6753 -0.4586
  180MOL0     H24256   3.339   7.322   2.728  0.5205  0.5494  0.4507
  180MOL0     H24257   3.287   7.490   2.682 -1.0366  1.0804  0.5880
  180MOL0     H24258   3.095   7.383   2.806 -0.3339 -1.9465  1.5299
  180MOL0     H24259   3.172   7.494   2.921 -2.3369 -0.5559  1.2052
  180MOL0     H24260   3.000   7.436   3.001  1.2990  1.0194 -0.0117
  180MOL0     H24261   2.741   7.406   3.237 -2.1227  0.3697 -1.5816
  180MOL0     H24262   2.852   7.526   3.290 -1.6918 -0.3209  0.5400
  180MOL0     H24263   2.816   7.504   3.112  0.4320  1.4602  0.4388
  180MOL0     H24264   3.006   6.948   3.641  0.0522 -1.4397  2.9942
  180MOL0     H24265   2.926   6.851   3.840  1.4532  1.5127  1.0047
  180MOL0     H24266   2.822   6.802   4.061 -0.6707 -0.4842  0.4537
  180MOL0     H24267   2.911   6.939   4.110 -0.9563 -0.8433  0.6679
  180MOL0     H24268   2.634   6.851   4.213  0.5985  0.2940 -1.2050
  180MOL0     H24269   2.782   6.821   4.302 -2.7175 -0.0717  1.4884
  180MOL0     H24270   2.670   7.033   4.395  2.2599 -0.0094  0.8123
  180MOL0     H24271   2.646   7.085   4.228 -0.6242 -1.3324 -1.3266
  180MOL0     H24272   2.907   7.066   4.384  1.7745  0.1812 -2.0185
  180MOL0     H24273   2.889   7.130   4.221 -2.6849 -3.7570 -1.4920
  180MOL0     H24274   2.742   7.315   4.296  0.0404 -1.3337 -2.0370
  180MOL0     H24275   2.904   7.327   4.357  0.1381 -1.6781 -3.3550
  180MOL0     H24276   2.695   7.370   4.510 -0.4227  0.6830 -0.9153
  180MOL0     H24277   2.658   7.203   4.519  0.6223  0.1325 -0.8740
  180MOL0     H24278   2.914   7.339   4.616  1.5235 -0.3579  1.2230
  180MOL0     H24279   2.902   7.160   4.593 -4.6043 -2.6164 -4.4195
  180MOL0     H24280   2.725   7.149   4.740  2.6912 -1.0392 -3.6357
  180MOL0     H24281   2.726   7.329   4.783  0.8940  0.3370  1.5587
  180MOL0     H24282   2.636   7.168   3.872 -0.6804 -1.1732  0.8321
  180MOL0     H24283   2.717   7.261   3.658  0.1964  1.2756  1.0747
  180MOL0     H24284   3.098   7.113   3.356 -4.5329  2.0035  3.0226
  180MOL0     H24285   3.223   7.111   3.151 -2.9961 -2.2303  1.1152
  180MOL0     H24286   4.826   7.614   2.474  0.8648 -4.3156 -2.1109
  180MOL0     H24287   5.044   7.709   2.448  1.5726 -2.2084 -1.2200
  180MOL0     H24288   5.485   7.966   2.413  2.4134  0.1238  0.6963
  180MOL0     H24289   5.654   8.096   2.290 -0.3714  0.6001  0.0203
  180MOL0     H24290   5.786   8.218   2.191 -0.7319  0.2451 -0.3449
  180MOL0     H24291   5.857   8.195   2.029 -0.8302  2.3652 -2.1854
  180MOL0     H24292   5.823   8.434   2.123 -1.8210  1.8742  0.3952
  180MOL0     H24293   5.654   8.410   2.079  0.7504  0.5326 -0.4004
  180MOL0     H24294   5.745   8.332   1.844 -0.6791 -0.2132  0.4036
  180MOL0     H24295   5.900   8.378   1.904 -0.9299 -1.6830  2.8484
  180MOL0     H24296   5.785   8.616   1.952 -0.0942  0.2519  0.2041
  180MOL0     H24297   5.651   8.550   1.868  0.4433 -0.5515  0.1216
  180MOL0     H24298   5.966   8.605   1.561 -0.1942 -0.3843 -0.0444
  180MOL0     H24299   5.416   8.084   1.930  0.6802 -1.0188 -0.0860
  180MOL0     H24300   5.247   7.965   2.039 -0.6090  1.6548  0.1669
  181MOL0     O24301   0.483   0.414   7.795  0.0790 -0.9998 -0.1142
  181MOL0     C24302   0.540   0.423   7.690 -0.0649  0.3798 -0.3866
  181MOL0     O24303   0.488   0.389   7.572  0.2796  0.5335  0.1251
  181MOL0     C24304   0.374   0.307   7.563 -0.2040  0.6119  0.0129
  181MOL0     C24305   0.352   0.189   7.636  0.6457 -0.7240  0.1823
  181MOL0     C24306   0.226   0.119   7.638  0.3987  0.7439 -0.1548
  181MOL0     C24307   0.124   0.158   7.553 -0.3761  0.9074 -0.7221
  181MOL0     O24308   0.004   0.090   7.543 -0.7116 -0.7255 -1.1913
  181MOL0     C24309  -0.091   0.151   7.621 -0.1553 -0.5821 -0.6351
  181MOL0     C24310  -0.158   0.054   7.730  0.3821  0.2392  1.2752
  181MOL0     C24311  -0.268   0.115   7.818  1.1703  0.7941  0.4057
  181MOL0     C24312  -0.404   0.149   7.753 -0.2691 -0.0798  0.2471
  181MOL0     C24313  -0.495   0.226   7.838  0.0624 -0.2289 -1.0367
  181MOL0     C24314  -0.638   0.218   7.791  0.0330 -0.1610 -0.2964
  181MOL0     C24315  -0.717   0.310   7.886  0.4374  0.9777 -0.3571
  181MOL0     C24316  -0.867   0.305   7.837  0.5318  0.4263 -0.1628
  181MOL0     N24317  -0.937   0.424   7.899 -0.5657 -0.2229  0.9724
  181MOL0     C24318  -0.979   0.447   8.024 -0.1790 -0.4585  0.5764
  181MOL0     C24319  -1.013   0.577   8.041  0.1583 -0.5221  0.9881
  181MOL0     C24320  -1.059   0.641   8.162 -0.1149 -0.1864 -0.4285
  181MOL0     C24321  -1.126   0.780   8.128 -0.3848  0.1264 -0.2284
  181MOL0     C24322  -1.283   0.757   8.131 -0.9663 -0.4855  0.1409
  181MOL0     C24323  -1.344   0.891   8.107 -0.0376  0.0777  1.1307
  181MOL0     O24324  -1.353   0.927   7.973 -0.4398  0.2608 -0.3631
  181MOL0     C24325  -1.450   1.020   7.936 -0.0335 -0.5066 -0.2927
  181MOL0     C24326  -1.486   1.028   7.796 -1.0490  0.8242  0.0010
  181MOL0     C24327  -1.583   1.113   7.745  0.9296 -0.7326  0.1372
  181MOL0     C24328  -1.606   1.102   7.598  0.7220 -0.6701  0.0348
  181MOL0     C24329  -1.653   1.197   7.836  0.2903 -0.3341  0.0459
  181MOL0     C24330  -1.749   1.290   7.795 -0.2241  0.6367  0.3368
  181MOL0     O24331  -1.812   1.357   7.893  0.0039  0.2882 -0.4549
  181MOL0     C24332  -1.934   1.412   7.865  0.3125  0.4327 -0.8119
  181MOL0     C24333  -1.972   1.542   7.899 -0.4861 -0.8272  0.1834
  181MOL0     C24334  -2.095   1.596   7.881 -0.1480 -0.7007 -0.1817
  181MOL0     C24335  -2.190   1.527   7.803 -0.2561  0.0299  0.3357
  181MOL0     O24336  -2.325   1.559   7.787 -0.3524  0.4209 -0.2208
  181MOL0     C24337  -2.406   1.483   7.875  0.1878 -0.2568 -0.5831
  181MOL0     C24338  -2.533   1.567   7.899 -0.2388  0.1784  0.5435
  181MOL0     C24339  -2.639   1.535   7.786 -0.7258 -0.0168  0.1722
  181MOL0     C24340  -2.726   1.659   7.762  0.1636 -0.3259 -0.3074
  181MOL0     C24341  -2.866   1.638   7.713 -0.4885  0.7319 -0.5823
  181MOL0     C24342  -2.861   1.576   7.568  0.1650  0.2482  0.6761
  181MOL0     C24343  -2.991   1.560   7.491 -0.3768 -0.2766 -0.3161
  181MOL0     C24344  -3.116   1.584   7.584  0.5293  0.5823  1.1711
  181MOL0    Cl24345  -3.266   1.589   7.482 -0.0325  0.1138  0.1647
  181MOL0     C24346  -2.156   1.400   7.754 -0.2803 -0.2144  0.6731
  181MOL0     C24347  -2.027   1.341   7.788  0.9945 -0.7267 -0.0146
  181MOL0     O24348  -1.774   1.296   7.672  1.2070 -0.7834 -0.0155
  181MOL0     C24349  -1.610   1.193   7.970  0.3155 -0.3491 -0.6505
  181MOL0     C24350  -1.521   1.098   8.025 -0.1105 -0.4568  0.8459
  181MOL0     N24351  -0.979   0.636   7.926  0.6179  0.1896  0.0977
  181MOL0     N24352  -0.915   0.551   7.847  0.7090  0.0794  0.2121
  181MOL0     C24353   0.154   0.258   7.473 -0.9595  0.0774 -0.0893
  181MOL0     C24354   0.274   0.328   7.470 -0.1544 -0.1709 -0.5354
  181MOL0     C24355   0.670   0.492   7.689 -0.4506 -0.3604  0.4791
  181MOL0     C24356   0.732   0.527   7.809  0.2237  0.2247 -0.5452
  181MOL0     C24357   0.864   0.575   7.811  0.1280  0.3790 -0.1204
  181MOL0     C24358   0.934   0.589   7.682 -0.0597 -1.3350  0.0331
  181MOL0     O24359   1.058   0.620   7.672  0.6302 -0.6675 -0.2417
  181MOL0     C24360   1.136   0.645   7.789  0.2280  1.2665  0.8780
  181MOL0     C24361   1.109   0.790   7.833 -0.4352 -0.1203  0.5367
  181MOL0     C24362   1.201   0.838   7.945  1.0300  0.1990 -0.3439
  181MOL0     C24363   1.351   0.814   7.931  0.6964  1.0690 -0.2403
  181MOL0     C24364   1.413   0.876   7.815  0.2271 -0.3817  0.7195
  181MOL0     C24365   1.457   0.917   7.705 -0.3302  0.5208 -0.2249
  181MOL0     C24366   0.865   0.572   7.565 -0.0241  0.1960  0.0538
  181MOL0     C24367   0.738   0.528   7.570  0.0309  0.2329 -0.2367
  181MOL0     H24368   0.430   0.165   7.708  0.8398  1.5338  0.8233
  181MOL0     H24369   0.223   0.027   7.694  0.8770  0.7278 -0.1517
  181MOL0     H24370  -0.051   0.230   7.686 -1.6341 -2.0673  2.2543
  181MOL0     H24371  -0.166   0.183   7.548  1.9635 -0.1905 -2.7975
  181MOL0     H24372  -0.206  -0.031   7.680 -0.7542  0.3961  2.0619
  181MOL0     H24373  -0.087   0.015   7.803  0.8486  0.2679  0.8408
  181MOL0     H24374  -0.302   0.054   7.902  2.1123  1.5951  1.3934
  181MOL0     H24375  -0.228   0.210   7.853 -0.4615  1.3694  0.8285
  181MOL0     H24376  -0.373   0.206   7.665  3.0103 -0.8923  0.7384
  181MOL0     H24377  -0.450   0.054   7.726  0.1846 -0.0368 -0.7194
  181MOL0     H24378  -0.489   0.191   7.942 -0.1335  3.3037  0.3244
  181MOL0     H24379  -0.480   0.335   7.837 -1.6969  0.0476 -0.8347
  181MOL0     H24380  -0.632   0.264   7.692 -1.1862  0.1915 -0.2183
  181MOL0     H24381  -0.688   0.121   7.783 -2.0903  0.8312  0.2124
  181MOL0     H24382  -0.709   0.273   7.989  0.5024  2.2268  0.1016
  181MOL0     H24383  -0.686   0.414   7.874 -0.1806  1.4838  1.8561
  181MOL0     H24384  -0.911   0.210   7.867  1.4699 -0.0035 -0.1012
  181MOL0     H24385  -0.872   0.312   7.728  2.1813  0.0715 -0.2865
  181MOL0     H24386  -1.010   0.380   8.103 -2.9335  2.6510  2.4029
  181MOL0     H24387  -1.129   0.570   8.208 -1.8806  3.4878  3.2536
  181MOL0     H24388  -0.980   0.646   8.237  2.7931 -2.5230 -3.0671
  181MOL0     H24389  -1.084   0.837   8.044 -1.3273 -1.0107 -1.5310
  181MOL0     H24390  -1.092   0.845   8.208  1.3040  0.8397 -1.4619
  181MOL0     H24391  -1.315   0.710   8.224 -1.2866 -1.2860 -0.3568
  181MOL0     H24392  -1.315   0.693   8.048 -1.9687  2.5274 -1.9758
  181MOL0     H24393  -1.279   0.960   8.162  0.3898 -0.3436  1.1580
  181MOL0     H24394  -1.449   0.894   8.138 -0.0382 -0.2759  1.1736
  181MOL0     H24395  -1.412   0.966   7.746 -0.1296  0.2743  1.9505
  181MOL0     H24396  -1.712   1.077   7.587  0.3606  1.3048 -1.5683
  181MOL0     H24397  -1.580   1.196   7.547  0.2393 -0.6110 -0.1054
  181MOL0     H24398  -1.552   1.022   7.546  2.7038 -0.6110  1.8503
  181MOL0     H24399  -1.900   1.596   7.961 -0.5004  1.0368 -1.3358
  181MOL0     H24400  -2.124   1.697   7.908  0.2240 -0.0852 -1.9473
  181MOL0     H24401  -2.423   1.386   7.828  0.8782 -0.6250 -0.0912
  181MOL0     H24402  -2.361   1.455   7.971  0.5141 -1.0447 -0.9590
  181MOL0     H24403  -2.579   1.544   7.995 -0.1421 -2.6197  0.0200
  181MOL0     H24404  -2.509   1.673   7.888 -0.2747  0.1883  0.5629
  181MOL0     H24405  -2.701   1.451   7.819 -0.7410 -0.9325 -2.0317
  181MOL0     H24406  -2.584   1.512   7.695  2.2643 -0.9559  2.0560
  181MOL0     H24407  -2.734   1.720   7.853 -1.6241 -0.5245 -0.3115
  181MOL0     H24408  -2.672   1.728   7.696 -2.1132  1.1695 -0.7008
  181MOL0     H24409  -2.922   1.731   7.724 -2.4391 -0.5617  1.4367
  181MOL0     H24410  -2.917   1.571   7.784  0.5172 -0.2993 -0.8034
  181MOL0     H24411  -2.806   1.649   7.508 -0.3182  0.1907  0.1614
  181MOL0     H24412  -2.816   1.477   7.578  0.3620  0.5573  4.0875
  181MOL0     H24413  -2.982   1.453   7.465 -1.3618 -0.9211  1.8188
  181MOL0     H24414  -3.009   1.631   7.410 -3.8240 -0.3271  0.2739
  181MOL0     H24415  -3.113   1.674   7.646 -4.8514 -0.2706  3.2395
  181MOL0     H24416  -3.133   1.507   7.660  1.6587  0.3096  1.1636
  181MOL0     H24417  -2.237   1.350   7.702  0.1847  1.8168 -2.2351
  181MOL0     H24418  -2.015   1.238   7.754  0.4849 -0.9412  0.4368
  181MOL0     H24419  -1.654   1.257   8.046  0.2348  3.1390 -3.4381
  181MOL0     H24420  -1.503   1.099   8.132 -1.8524  1.5465  1.1787
  181MOL0     H24421   0.082   0.281   7.395 -0.3784 -0.5870 -0.8392
  181MOL0     H24422   0.275   0.408   7.397  0.7483 -0.5807 -0.9926
  181MOL0     H24423   0.688   0.512   7.907  3.6180  2.2732  1.4837
  181MOL0     H24424   0.911   0.598   7.906 -0.0594  1.8539 -0.3579
  181MOL0     H24425   1.115   0.564   7.860 -0.6640 -1.4636 -2.2681
  181MOL0     H24426   1.236   0.641   7.746 -0.6371  1.6490 -1.2929
  181MOL0     H24427   1.003   0.803   7.859 -0.1448  1.1783  1.1904
  181MOL0     H24428   1.127   0.843   7.739 -1.9791  1.4686  1.0831
  181MOL0     H24429   1.177   0.777   8.033  2.1794 -3.3756 -2.2889
  181MOL0     H24430   1.182   0.945   7.956 -2.0874 -0.2128 -0.8286
  181MOL0     H24431   1.376   0.708   7.930  0.2908  0.9542 -2.2840
  181MOL0     H24432   1.392   0.858   8.023  0.7086 -3.3983  2.1439
  181MOL0     H24433   1.487   0.936   7.604 -0.7536 -0.1161 -0.4712
  181MOL0     H24434   0.926   0.591   7.477 -2.8164 -1.6947 -2.4719
  181MOL0     H24435   0.697   0.494   7.476 -3.8088  0.1656  1.2791
  182MOL0     O24436   6.456   9.121   8.537  0.1337  0.0766  0.6790
  182MOL0     C24437   6.505   9.076   8.432  1.1801 -0.6727  0.0756
  182MOL0     O24438   6.626   9.113   8.383 -0.4516 -0.1097  0.1643
  182MOL0     C24439   6.712   9.186   8.467  0.1928 -0.1992  0.9352
  182MOL0     C24440   6.827   9.129   8.529  0.0585  0.6835  0.0760
  182MOL0     C24441   6.912   9.207   8.599  0.0162  1.6179 -0.1967
  182MOL0     C24442   6.896   9.348   8.599 -0.1331  1.0374 -0.0891
  182MOL0     O24443   6.985   9.432   8.666 -0.0857  0.3501  0.4013
  182MOL0     C24444   7.109   9.430   8.594  0.5358 -0.2691 -0.6304
  182MOL0     C24445   7.170   9.565   8.618 -0.0297 -0.2517 -0.2067
  182MOL0     C24446   7.296   9.583   8.530 -0.2855 -0.4844 -0.1276
  182MOL0     C24447   7.315   9.731   8.491 -0.1837  1.0387  0.3490
  182MOL0     C24448   7.445   9.749   8.412 -0.7110  0.0356  0.1485
  182MOL0     C24449   7.458   9.669   8.285 -0.0917  0.3484 -0.1875
  182MOL0     C24450   7.570   9.696   8.188 -0.6256 -0.2362 -0.2064
  182MOL0     C24451   7.685   9.604   8.182  0.1190 -0.4050 -0.1573
  182MOL0     N24452   7.758   9.612   8.309  0.3542 -0.1612 -0.9851
  182MOL0     C24453   7.721   9.537   8.420  0.0276  0.6741  0.6113
  182MOL0     C24454   7.818   9.559   8.515  1.2344  0.3516  0.1249
  182MOL0     C24455   7.828   9.497   8.648  0.2504 -0.3668  0.1561
  182MOL0     C24456   7.709   9.400   8.681  0.7711  0.0553  0.4814
  182MOL0     C24457   7.722   9.328   8.816  0.3771  0.9276 -0.4273
  182MOL0     C24458   7.591   9.268   8.847 -0.3128 -0.3911 -0.4801
  182MOL0     O24459   7.507   9.377   8.895 -0.2310 -0.5348 -0.3823
  182MOL0     C24460   7.369   9.353   8.917 -1.1487 -0.1018  0.0410
  182MOL0     C24461   7.294   9.458   8.956  0.0585  0.2195 -0.1551
  182MOL0     C24462   7.154   9.450   8.981 -0.4227  0.9410 -0.5496
  182MOL0     C24463   7.071   9.581   9.013 -0.7523  0.8446 -0.2003
  182MOL0     C24464   7.104   9.307   8.964 -0.7596  0.1350 -0.7981
  182MOL0     C24465   6.964   9.274   9.009 -0.4996 -0.1826 -0.4733
  182MOL0     O24466   6.882   9.374   9.055 -0.1301  0.2352  0.7167
  182MOL0     C24467   6.752   9.333   9.035  0.1702 -0.3525  0.0697
  182MOL0     C24468   6.685   9.339   8.908 -0.7320  0.0582 -0.1867
  182MOL0     C24469   6.557   9.314   8.890 -0.7957  0.3608 -0.4858
  182MOL0     C24470   6.473   9.282   9.002  0.1345 -0.1168 -0.0141
  182MOL0     O24471   6.334   9.280   9.003  0.0082 -0.0267  0.8629
  182MOL0     C24472   6.253   9.249   8.893 -0.3335  0.5720  0.5142
  182MOL0     C24473   6.284   9.100   8.850  0.5282 -0.6176  0.1625
  182MOL0     C24474   6.204   9.004   8.936  0.5265  0.1254 -0.0754
  182MOL0     C24475   6.240   8.858   8.908  0.4438 -0.3999 -0.0316
  182MOL0     C24476   6.165   8.756   9.004  0.3325 -0.1693 -0.1464
  182MOL0     C24477   6.022   8.771   9.022 -0.3371 -0.1000  0.3461
  182MOL0     C24478   5.942   8.744   8.893 -0.0997 -0.0670 -0.3177
  182MOL0     C24479   5.881   8.607   8.892  0.3011  0.6380 -0.0958
  182MOL0    Cl24480   5.998   8.467   8.854  0.0387 -0.2720  0.2827
  182MOL0     C24481   6.540   9.271   9.127 -0.2764 -0.4429  0.9324
  182MOL0     C24482   6.674   9.302   9.143  0.0219 -1.1618  0.0233
  182MOL0     O24483   6.928   9.158   8.992 -0.5476  0.5782  0.6777
  182MOL0     C24484   7.185   9.203   8.924  0.7490  0.1186 -0.2482
  182MOL0     C24485   7.315   9.223   8.904 -0.1756  0.3504  0.0215
  182MOL0     N24486   7.909   9.634   8.454  0.6656 -0.1415 -0.5704
  182MOL0     N24487   7.877   9.676   8.337 -0.1197  0.6168  0.3751
  182MOL0     C24488   6.783   9.406   8.553 -0.4205 -0.1105 -1.1735
  182MOL0     C24489   6.694   9.323   8.480 -1.4133 -1.4172 -0.4541
  182MOL0     C24490   6.430   8.970   8.356  0.8447 -0.0979  0.5100
  182MOL0     C24491   6.290   8.964   8.364  0.2651  0.0306 -0.0452
  182MOL0     C24492   6.218   8.850   8.319  0.0854 -0.5344 -0.9774
  182MOL0     C24493   6.289   8.755   8.251 -0.0426 -0.7007  0.0646
  182MOL0     O24494   6.218   8.661   8.192 -0.0278  0.5340  0.8060
  182MOL0     C24495   6.270   8.545   8.124 -0.1002 -1.1666 -0.2348
  182MOL0     C24496   6.169   8.440   8.093  0.1746 -0.6352 -0.3989
  182MOL0     C24497   6.249   8.315   8.052  0.9952  0.0221 -0.0944
  182MOL0     C24498   6.336   8.326   7.934 -0.0416  0.1615 -0.8143
  182MOL0     C24499   6.430   8.219   7.919 -0.0317  0.0158 -0.1270
  182MOL0     C24500   6.514   8.133   7.894 -0.2455 -0.4518 -0.2805
  182MOL0     C24501   6.425   8.761   8.235  0.1861  0.6719  0.0438
  182MOL0     C24502   6.499   8.873   8.276 -0.2790  1.0332  0.0184
  182MOL0     H24503   6.843   9.023   8.513  0.1417  0.4744  1.4129
  182MOL0     H24504   7.001   9.156   8.636  1.0303  0.5653 -3.6238
  182MOL0     H24505   7.173   9.349   8.630 -2.1941 -2.2556  0.1501
  182MOL0     H24506   7.093   9.413   8.487  0.9714  1.5287 -1.0015
  182MOL0     H24507   7.095   9.637   8.582 -0.6737 -1.8424 -2.2646
  182MOL0     H24508   7.193   9.586   8.723 -0.7551 -1.4340  0.2015
  182MOL0     H24509   7.384   9.572   8.594 -1.4476  1.5489  1.9842
  182MOL0     H24510   7.290   9.522   8.439  1.3222 -2.0366  0.7260
  182MOL0     H24511   7.227   9.765   8.434  0.6462 -2.5068 -3.4982
  182MOL0     H24512   7.323   9.780   8.588  2.1046  1.2398  0.1053
  182MOL0     H24513   7.443   9.857   8.394  0.7376  0.0333 -0.1590
  182MOL0     H24514   7.524   9.721   8.482 -0.9368 -2.1179 -0.3805
  182MOL0     H24515   7.460   9.564   8.314  2.9990 -0.1121 -1.6207
  182MOL0     H24516   7.364   9.691   8.233  0.3345 -1.7187 -1.9892
  182MOL0     H24517   7.528   9.703   8.087 -0.4883  0.7982 -0.2002
  182MOL0     H24518   7.602   9.798   8.208  1.0581 -0.9288  0.8422
  182MOL0     H24519   7.755   9.641   8.107  1.4785 -0.6384  0.9695
  182MOL0     H24520   7.656   9.500   8.161 -1.0168 -0.3169  0.8188
  182MOL0     H24521   7.626   9.489   8.441  1.6074 -1.1498  4.6522
  182MOL0     H24522   7.927   9.450   8.657  0.9805  0.9308 -0.6951
  182MOL0     H24523   7.831   9.576   8.723  2.9741 -1.5130  1.3968
  182MOL0     H24524   7.703   9.319   8.608  0.3012 -1.0420  1.6833
  182MOL0     H24525   7.617   9.458   8.668  0.7067  0.0933  1.0742
  182MOL0     H24526   7.776   9.393   8.885 -0.2945  0.2145  0.7886
  182MOL0     H24527   7.789   9.241   8.803 -1.0933 -0.5299  1.2794
  182MOL0     H24528   7.609   9.196   8.928 -0.0071  2.2872  2.0078
  182MOL0     H24529   7.543   9.217   8.762  0.5698  0.5651 -1.5739
  182MOL0     H24530   7.330   9.560   8.965  0.8291 -0.0200 -0.4549
  182MOL0     H24531   6.988   9.590   8.941 -1.5623 -2.2164  0.1996
  182MOL0     H24532   7.029   9.582   9.114  0.4809 -3.6653  0.5509
  182MOL0     H24533   7.137   9.667   8.999 -1.0671  1.2260  0.5955
  182MOL0     H24534   6.746   9.363   8.821  0.5958 -1.6875  0.2005
  182MOL0     H24535   6.515   9.337   8.792  0.5833  2.1883 -0.6888
  182MOL0     H24536   6.146   9.256   8.915 -1.0010  3.4701 -2.7667
  182MOL0     H24537   6.275   9.319   8.811  1.8300  1.6799  1.9570
  182MOL0     H24538   6.252   9.082   8.747 -1.5620  0.7702  0.5095
  182MOL0     H24539   6.389   9.070   8.858  0.9793 -0.0233 -2.5304
  182MOL0     H24540   6.096   9.005   8.918  0.8872  0.2204 -2.4845
  182MOL0     H24541   6.229   9.038   9.037 -3.1821  1.1536  0.6310
  182MOL0     H24542   6.206   8.832   8.807 -3.9914 -0.1397  1.1812
  182MOL0     H24543   6.348   8.843   8.914 -0.0024 -3.7514  2.9029
  182MOL0     H24544   6.207   8.763   9.105 -1.4913 -0.5513  0.6725
  182MOL0     H24545   6.184   8.649   8.995  0.3074 -0.2605  0.7483
  182MOL0     H24546   5.986   8.709   9.104 -0.5426 -1.2599 -0.5939
  182MOL0     H24547   6.006   8.877   9.044 -0.2925  0.1148 -0.6118
  182MOL0     H24548   6.012   8.747   8.810  1.1106 -3.9105  0.3513
  182MOL0     H24549   5.864   8.820   8.883  2.6122  2.8361 -1.0934
  182MOL0     H24550   5.807   8.612   8.813  0.3389 -1.8402 -0.3584
  182MOL0     H24551   5.828   8.589   8.986  1.3122  2.2447  0.8597
  182MOL0     H24552   6.478   9.244   9.212 -2.0348 -1.8536 -0.7208
  182MOL0     H24553   6.713   9.283   9.242  0.2096  0.5359  0.3009
  182MOL0     H24554   7.163   9.098   8.912 -0.1219  0.4546 -1.7739
  182MOL0     H24555   7.372   9.135   8.874 -0.7528  0.1788 -0.5935
  182MOL0     H24556   6.762   9.512   8.545 -2.1634 -0.4833 -1.9956
  182MOL0     H24557   6.604   9.374   8.449 -1.2512 -1.2661 -0.6776
  182MOL0     H24558   6.243   9.040   8.425 -0.3366  0.3067 -0.8379
  182MOL0     H24559   6.112   8.830   8.326  0.3624 -1.9473 -0.4381
  182MOL0     H24560   6.300   8.571   8.022 -0.3110 -1.0817 -0.2763
  182MOL0     H24561   6.352   8.501   8.181  1.7247  1.0437 -0.9953
  182MOL0     H24562   6.102   8.471   8.012  1.9717  1.6587 -1.1058
  182MOL0     H24563   6.108   8.402   8.176 -5.0108  1.9007 -2.6411
  182MOL0     H24564   6.174   8.245   8.014 -0.7035  1.6151  0.1780
  182MOL0     H24565   6.306   8.271   8.134  1.3285  1.2009  0.3216
  182MOL0     H24566   6.409   8.407   7.944  0.7104 -0.5872 -0.0364
  182MOL0     H24567   6.284   8.349   7.840  0.2784  0.4374 -0.9271
  182MOL0     H24568   6.586   8.065   7.853 -0.0339  0.0674 -0.7644
  182MOL0     H24569   6.476   8.678   8.188  1.1852  0.8091  0.8533
  182MOL0     H24570   6.607   8.879   8.264 -0.4960  1.7505 -1.7740
  183MOL0     O24571   2.523  11.070   4.316 -0.4281 -0.3302  0.1726
  183MOL0     C24572   2.634  11.107   4.363  0.5751  1.1720  0.6321
  183MOL0     O24573   2.749  11.038   4.345  0.4948 -0.2412 -0.1411
  183MOL0     C24574   2.747  10.904   4.349  0.4114 -0.3641  0.2337
  183MOL0     C24575   2.846  10.834   4.271 -0.0555 -0.2694 -0.2258
  183MOL0     C24576   2.850  10.696   4.271 -1.0651 -0.2656 -0.2288
  183MOL0     C24577   2.754  10.624   4.345  0.4495 -0.0375  0.1407
  183MOL0     O24578   2.743  10.487   4.338  0.4067 -0.5652 -0.5011
  183MOL0     C24579   2.673  10.436   4.221  1.0370 -0.5896  0.0255
  183MOL0     C24580   2.591  10.312   4.267 -0.0622 -0.1008  0.0475
  183MOL0     C24581   2.434  10.340   4.278 -0.0414 -0.1004  0.3841
  183MOL0     C24582   2.403  10.460   4.367  0.9148 -0.2687  0.9355
  183MOL0     C24583   2.252  10.458   4.402  0.4553 -0.7025  0.0693
  183MOL0     C24584   2.214  10.557   4.510 -0.5074 -0.1519  0.8088
  183MOL0     C24585   2.060  10.584   4.497 -0.2487  0.0047 -0.4973
  183MOL0     C24586   2.015  10.698   4.579 -0.4097  0.0480  0.8134
  183MOL0     N24587   1.876  10.751   4.559  0.1033 -0.2756  0.4158
  183MOL0     C24588   1.763  10.731   4.640 -0.4459  0.3922 -0.2170
  183MOL0     C24589   1.672  10.805   4.587  0.2915  0.6753 -0.5173
  183MOL0     C24590   1.536  10.838   4.648  0.5480  0.8952  0.3823
  183MOL0     C24591   1.582  10.933   4.756  0.6995  0.4685 -0.0833
  183MOL0     C24592   1.466  11.010   4.822  0.4028 -0.0996  0.0050
  183MOL0     C24593   1.518  11.106   4.928 -0.1374  0.1962 -0.6943
  183MOL0     O24594   1.609  11.217   4.899 -0.4386 -0.4883 -0.2910
  183MOL0     C24595   1.679  11.295   4.998  0.9277 -0.9767 -0.0247
  183MOL0     C24596   1.628  11.303   5.127 -0.0391 -0.0808  0.1722
  183MOL0     C24597   1.684  11.387   5.224  0.0844  0.8021  0.6343
  183MOL0     C24598   1.631  11.384   5.368 -0.3417 -0.1934  0.5231
  183MOL0     C24599   1.797  11.465   5.189  0.2376  0.6144  0.0214
  183MOL0     C24600   1.881  11.558   5.278  0.8181 -0.3406  0.8443
  183MOL0     O24601   1.961  11.656   5.216  0.8288  0.1349 -0.2234
  183MOL0     C24602   2.046  11.741   5.281 -0.0447 -0.5539  0.7409
  183MOL0     C24603   2.100  11.707   5.403 -0.3269  0.4233  0.1644
  183MOL0     C24604   2.186  11.796   5.467 -0.0243  0.6087  0.4288
  183MOL0     C24605   2.211  11.925   5.407  0.5596  0.5905  0.0190
  183MOL0     O24606   2.283  12.027   5.473  0.6983  1.6567 -0.6510
  183MOL0     C24607   2.327  12.002   5.611 -0.0860  0.4614 -0.8603
  183MOL0     C24608   2.418  12.118   5.661  0.0552 -0.3924 -0.3334
  183MOL0     C24609   2.338  12.242   5.686  0.0767  0.2659 -0.1387
  183MOL0     C24610   2.314  12.338   5.566  0.4810  0.1274 -0.2139
  183MOL0     C24611   2.234  12.469   5.604 -0.5660 -0.6513  0.0274
  183MOL0     C24612   2.318  12.555   5.710 -0.4653 -1.0310 -0.1048
  183MOL0     C24613   2.253  12.699   5.716 -0.1176 -0.4705  0.8259
  183MOL0     C24614   2.319  12.786   5.822  0.0887  1.2369  0.2715
  183MOL0    Cl24615   2.293  12.731   5.983  0.1404 -0.4104 -0.0487
  183MOL0     C24616   2.152  11.956   5.286  0.3593  0.0016 -0.5848
  183MOL0     C24617   2.075  11.858   5.216 -1.4783  0.1521 -0.2337
  183MOL0     O24618   1.852  11.545   5.396  0.2892 -0.0877  0.2377
  183MOL0     C24619   1.821  11.475   5.055 -0.4798  0.5674 -0.3949
  183MOL0     C24620   1.764  11.393   4.965 -0.2712  0.1648  0.1993
  183MOL0     N24621   1.722  10.866   4.477  0.2883 -0.1074  0.3763
  183MOL0     N24622   1.841  10.840   4.461 -0.0262  0.7501 -0.4284
  183MOL0     C24623   2.668  10.691   4.431 -0.2915  0.4951 -0.1103
  183MOL0     C24624   2.668  10.825   4.437  0.4124 -0.1041  0.1733
  183MOL0     C24625   2.648  11.240   4.416  0.3829 -0.2894  0.3954
  183MOL0     C24626   2.545  11.330   4.409  0.0555  0.8625 -0.3480
  183MOL0     C24627   2.562  11.462   4.454 -0.0005  0.4803  0.4014
  183MOL0     C24628   2.671  11.498   4.533 -1.0440  0.0849  1.3232
  183MOL0     O24629   2.669  11.603   4.620 -1.3308 -0.3378 -0.4093
  183MOL0     C24630   2.565  11.700   4.637 -0.5922  0.1385 -0.5494
  183MOL0     C24631   2.447  11.637   4.708 -0.2260 -0.4053  0.2974
  183MOL0     C24632   2.334  11.735   4.720  0.2672 -0.1018 -1.2124
  183MOL0     C24633   2.215  11.702   4.817  0.8148 -0.1528 -0.9755
  183MOL0     C24634   2.118  11.603   4.759  0.2580  0.0892 -1.1392
  183MOL0     C24635   2.042  11.524   4.712 -0.1001  0.5300 -0.9592
  183MOL0     C24636   2.776  11.404   4.544  0.1615  0.7827  0.1930
  183MOL0     C24637   2.766  11.287   4.482  0.7842 -0.3398  0.2344
  183MOL0     H24638   2.928  10.887   4.224  1.7069 -1.7896  0.9880
  183MOL0     H24639   2.934  10.658   4.214  0.3012  1.8974  0.2149
  183MOL0     H24640   2.604  10.508   4.177  0.1380 -2.3708 -1.6518
  183MOL0     H24641   2.745  10.422   4.140  1.2967 -0.5288  0.2446
  183MOL0     H24642   2.616  10.236   4.194 -1.0554 -1.0274  0.6364
  183MOL0     H24643   2.625  10.285   4.368  1.4494 -0.8186 -0.6375
  183MOL0     H24644   2.408  10.365   4.175  0.8033  1.1041  0.4347
  183MOL0     H24645   2.382  10.249   4.310 -0.3320  0.1979  0.7769
  183MOL0     H24646   2.463  10.456   4.459 -0.1136  1.2654  1.7186
  183MOL0     H24647   2.429  10.549   4.310 -0.1112 -0.5841 -0.0418
  183MOL0     H24648   2.204  10.485   4.307  1.4030 -2.0478 -0.8291
  183MOL0     H24649   2.210  10.359   4.422 -0.0944 -0.7563 -1.2451
  183MOL0     H24650   2.242  10.531   4.613  0.0412  2.1885  1.3150
  183MOL0     H24651   2.269  10.642   4.470 -0.2678 -0.5013  0.3932
  183MOL0     H24652   2.033  10.619   4.397  2.1683 -0.5523 -1.4144
  183MOL0     H24653   1.999  10.500   4.532  1.7385 -0.3464  2.5172
  183MOL0     H24654   2.072  10.789   4.556 -1.2384  0.0333 -1.5452
  183MOL0     H24655   2.033  10.676   4.685 -0.1200  0.7685  0.9230
  183MOL0     H24656   1.749  10.678   4.733  1.9886  1.3708  0.8167
  183MOL0     H24657   1.471  10.895   4.581 -0.6537 -0.6722  0.1825
  183MOL0     H24658   1.481  10.749   4.680  0.4567  1.5489  2.1668
  183MOL0     H24659   1.657  10.994   4.705  0.4570  1.8776  1.1938
  183MOL0     H24660   1.645  10.873   4.822  3.1644  1.7154 -1.1547
  183MOL0     H24661   1.393  10.951   4.879 -1.6684  1.4411 -0.9433
  183MOL0     H24662   1.396  11.056   4.752  3.1560  0.7939 -2.3561
  183MOL0     H24663   1.556  11.034   5.000  0.4499  0.5874 -0.6033
  183MOL0     H24664   1.425  11.147   4.967  0.1208 -1.3343  1.7748
  183MOL0     H24665   1.548  11.234   5.152 -0.1114  0.1781  0.6612
  183MOL0     H24666   1.683  11.308   5.427  1.0353  0.9867  0.8906
  183MOL0     H24667   1.626  11.480   5.421 -1.7226 -0.7673  1.4716
  183MOL0     H24668   1.530  11.342   5.366  0.3293 -1.9795 -2.7742
  183MOL0     H24669   2.086  11.606   5.438 -0.0274  0.4203  0.2826
  183MOL0     H24670   2.237  11.755   5.553 -0.0319 -0.9214 -0.2701
  183MOL0     H24671   2.234  11.994   5.669  0.7094  0.5367  0.4561
  183MOL0     H24672   2.379  11.906   5.602  2.5865  1.7478 -0.1933
  183MOL0     H24673   2.455  12.092   5.761  1.9724  2.2365 -0.2652
  183MOL0     H24674   2.501  12.140   5.593  0.5977  1.5327  0.8732
  183MOL0     H24675   2.390  12.292   5.768  0.4058 -2.2202  1.2377
  183MOL0     H24676   2.247  12.199   5.729  1.5369 -3.9575 -0.8060
  183MOL0     H24677   2.413  12.348   5.521  0.3979  0.2094 -0.3785
  183MOL0     H24678   2.261  12.283   5.488  1.2040 -2.1994  0.8343
  183MOL0     H24679   2.134  12.446   5.642 -0.2712  0.2217  1.4266
  183MOL0     H24680   2.227  12.536   5.518 -0.3796  0.2306  0.6805
  183MOL0     H24681   2.313  12.502   5.805  0.9045 -2.1413 -0.6211
  183MOL0     H24682   2.422  12.569   5.680  0.0097 -1.9298  1.0731
  183MOL0     H24683   2.146  12.698   5.739 -0.9767  2.1517 -2.2790
  183MOL0     H24684   2.266  12.748   5.619  1.0259 -3.2093 -0.4877
  183MOL0     H24685   2.266  12.882   5.815 -0.6235  1.0825  2.7497
  183MOL0     H24686   2.425  12.801   5.801 -0.0668  0.8020 -0.9061
  183MOL0     H24687   2.172  12.052   5.240  5.6674 -0.9632 -1.0014
  183MOL0     H24688   2.020  11.889   5.127 -2.1448  1.8339  0.7292
  183MOL0     H24689   1.897  11.545   5.021  0.6457 -1.9315 -3.5670
  183MOL0     H24690   1.800  11.416   4.866 -2.0452  0.7312 -0.3477
  183MOL0     H24691   2.590  10.630   4.476 -1.0087 -1.4579 -3.6323
  183MOL0     H24692   2.599  10.877   4.502  1.8509  0.8854  0.9538
  183MOL0     H24693   2.451  11.297   4.366 -0.0538 -0.9326  1.1456
  183MOL0     H24694   2.491  11.541   4.433 -0.9933 -1.0264 -2.2926
  183MOL0     H24695   2.610  11.772   4.706 -1.0727  0.2372 -0.3327
  183MOL0     H24696   2.528  11.745   4.544  0.2219 -1.5000 -1.7044
  183MOL0     H24697   2.476  11.610   4.809 -0.7117 -0.8528  0.3248
  183MOL0     H24698   2.414  11.543   4.662 -1.9898  0.1339  0.3690
  183MOL0     H24699   2.291  11.755   4.622  1.7203 -0.4562 -1.9528
  183MOL0     H24700   2.383  11.827   4.757  2.3140 -2.4707  2.7116
  183MOL0     H24701   2.168  11.800   4.825  1.4083  0.1985 -1.6458
  183MOL0     H24702   2.248  11.666   4.914 -2.6106 -4.2143 -1.0257
  183MOL0     H24703   1.981  11.448   4.668 -0.0911 -1.7764  2.5697
  183MOL0     H24704   2.865  11.426   4.603 -0.1151 -0.3703  1.0708
  183MOL0     H24705   2.844  11.211   4.481  0.3156 -0.8281 -0.0090
  184MOL0     O24706   1.273   4.722   8.988  1.0660 -0.1559  0.4857
  184MOL0     C24707   1.273   4.686   8.869  0.6746 -1.2413 -0.5219
  184MOL0     O24708   1.381   4.630   8.804  0.3712 -0.7463  0.0019
  184MOL0     C24709   1.463   4.541   8.868 -0.6669 -0.0711 -0.4256
  184MOL0     C24710   1.454   4.487   9.000 -1.2064  0.4442 -0.2737
  184MOL0     C24711   1.553   4.398   9.044 -0.0564  0.3209 -0.6747
  184MOL0     C24712   1.662   4.345   8.974  0.3712 -0.9888  0.0092
  184MOL0     O24713   1.757   4.246   9.005  0.7541  0.1266  0.0901
  184MOL0     C24714   1.725   4.155   9.108 -0.6272 -0.6902 -0.8789
  184MOL0     C24715   1.814   4.038   9.086  0.7205 -0.3374 -0.1293
  184MOL0     C24716   1.959   4.059   9.143  0.3229  0.8759  0.5779
  184MOL0     C24717   2.059   4.155   9.073 -0.2412  0.1007 -0.2355
  184MOL0     C24718   2.187   4.176   9.155 -0.1838 -0.1956  0.0881
  184MOL0     C24719   2.313   4.211   9.079  0.2955 -0.0925  0.0449
  184MOL0     C24720   2.305   4.336   8.992  0.8259  0.3843 -0.1099
  184MOL0     C24721   2.442   4.374   8.959  0.6697 -0.6527 -1.3579
  184MOL0     N24722   2.430   4.457   8.842 -0.5596 -0.0806 -0.5567
  184MOL0     C24723   2.436   4.422   8.710  0.0476 -0.0689  0.1388
  184MOL0     C24724   2.426   4.541   8.643 -1.4305 -0.1869  0.2937
  184MOL0     C24725   2.434   4.553   8.491  0.6324 -0.1762  1.7093
  184MOL0     C24726   2.583   4.572   8.438 -0.1226 -0.2277 -0.1550
  184MOL0     C24727   2.575   4.629   8.299  0.5769 -0.3502  1.2268
  184MOL0     C24728   2.716   4.640   8.231  0.2294 -1.3029  0.0846
  184MOL0     O24729   2.702   4.738   8.124 -0.2263  0.9099  0.1711
  184MOL0     C24730   2.821   4.800   8.079 -0.6156  1.4438 -0.7646
  184MOL0     C24731   2.953   4.749   8.100 -0.6552 -0.6857 -0.8105
  184MOL0     C24732   3.065   4.805   8.028  0.5947  0.1154 -0.2400
  184MOL0     C24733   3.202   4.737   8.056 -0.3553 -0.4302  0.2586
  184MOL0     C24734   3.045   4.919   7.949 -0.4191 -0.7257  0.4952
  184MOL0     C24735   3.152   4.985   7.876 -1.2403  0.2348 -0.0933
  184MOL0     O24736   3.208   4.898   7.793 -0.0644 -0.9374  0.0551
  184MOL0     C24737   3.312   4.925   7.708  0.2597 -0.0577  0.2462
  184MOL0     C24738   3.393   5.039   7.707  0.4520 -0.3460  0.4659
  184MOL0     C24739   3.490   5.052   7.617  0.2932  0.2130  0.3733
  184MOL0     C24740   3.531   4.951   7.535 -0.1584  0.5691  0.1517
  184MOL0     O24741   3.638   4.955   7.444 -0.5515  0.7262  0.9928
  184MOL0     C24742   3.729   5.063   7.427 -0.0943  0.3554 -0.2455
  184MOL0     C24743   3.808   5.052   7.296  0.5678  0.0537  0.1495
  184MOL0     C24744   3.716   5.050   7.178 -0.7787 -0.2668 -0.0018
  184MOL0     C24745   3.778   4.998   7.049 -0.3811 -0.4899 -0.0952
  184MOL0     C24746   3.658   4.975   6.949 -0.9270 -0.8870  0.1868
  184MOL0     C24747   3.602   5.104   6.896  0.4546  0.6242  1.4825
  184MOL0     C24748   3.475   5.087   6.812  0.6268  1.2230  0.0241
  184MOL0     C24749   3.418   5.222   6.767 -0.8984  0.4226 -0.5822
  184MOL0    Cl24750   3.496   5.291   6.629  0.5404 -0.0433  0.0805
  184MOL0     C24751   3.478   4.824   7.560  0.1851 -0.2399  0.8412
  184MOL0     C24752   3.362   4.815   7.635 -0.5767  1.2880  0.1284
  184MOL0     O24753   3.155   5.104   7.870 -0.2836  0.1505  0.1029
  184MOL0     C24754   2.919   4.986   7.954 -0.8802 -0.1187 -0.2298
  184MOL0     C24755   2.803   4.920   8.009 -1.3263 -0.5097  0.2495
  184MOL0     N24756   2.426   4.651   8.735  0.4023  0.3486  0.3828
  184MOL0     N24757   2.421   4.594   8.855 -0.3648  0.0927  0.7759
  184MOL0     C24758   1.669   4.394   8.845  0.3990  0.6465  0.4518
  184MOL0     C24759   1.573   4.486   8.797  0.3124  0.4154 -0.2010
  184MOL0     C24760   1.139   4.705   8.800  0.1869 -0.3214 -0.6138
  184MOL0     C24761   1.026   4.734   8.880  0.2516  0.8605  0.3063
  184MOL0     C24762   0.898   4.714   8.825  0.5549 -0.6080 -0.7248
  184MOL0     C24763   0.878   4.681   8.695  0.0337  0.0717  0.1989
  184MOL0     O24764   0.752   4.657   8.647 -0.1738 -0.5417 -0.4845
  184MOL0     C24765   0.643   4.643   8.737 -0.5622  0.1818 -1.0021
  184MOL0     C24766   0.533   4.583   8.657  0.3248  0.2135 -0.5567
  184MOL0     C24767   0.406   4.549   8.745 -0.3057 -0.1661 -0.0090
  184MOL0     C24768   0.277   4.550   8.662  0.1185 -0.7697  0.2824
  184MOL0     C24769   0.228   4.671   8.611 -0.1676 -0.1527 -0.9375
  184MOL0     C24770   0.167   4.763   8.571  0.4919 -0.4685 -0.0310
  184MOL0     C24771   0.990   4.645   8.611  0.3125 -0.6425 -0.4428
  184MOL0     C24772   1.116   4.648   8.670  0.4452  0.6913  0.9009
  184MOL0     H24773   1.370   4.488   9.068 -1.4725 -1.7466 -0.4762
  184MOL0     H24774   1.543   4.348   9.140  2.4971 -0.6757 -0.8350
  184MOL0     H24775   1.756   4.178   9.210  0.3268 -2.6826 -0.6532
  184MOL0     H24776   1.620   4.124   9.105 -1.7940  2.9014 -3.3113
  184MOL0     H24777   1.766   3.964   9.151  1.2784  0.0307  0.7238
  184MOL0     H24778   1.812   4.010   8.980  1.3347 -0.0666 -0.2181
  184MOL0     H24779   1.963   4.087   9.248  0.6728  2.3080  0.2016
  184MOL0     H24780   1.990   3.956   9.162 -0.6296  1.0300  3.3839
  184MOL0     H24781   2.086   4.110   8.977  0.2568 -3.1358  1.2846
  184MOL0     H24782   2.008   4.252   9.067  1.8706  1.3940  1.4413
  184MOL0     H24783   2.167   4.254   9.229 -0.7195  0.7003 -0.9709
  184MOL0     H24784   2.213   4.088   9.215 -0.0725 -0.8829 -0.9489
  184MOL0     H24785   2.388   4.218   9.159 -0.2914 -1.0467  0.7124
  184MOL0     H24786   2.342   4.123   9.020  0.9460  1.5207 -2.1457
  184MOL0     H24787   2.244   4.321   8.903  1.2251  1.9441 -0.6654
  184MOL0     H24788   2.264   4.410   9.062 -3.6713 -2.1714  0.3133
  184MOL0     H24789   2.509   4.292   8.933 -0.2960 -1.9615  0.0730
  184MOL0     H24790   2.485   4.433   9.041  0.7721  1.4975 -2.8731
  184MOL0     H24791   2.456   4.325   8.666 -2.3420 -0.2872 -0.5892
  184MOL0     H24792   2.381   4.470   8.441  2.6109 -0.9331  0.7714
  184MOL0     H24793   2.380   4.644   8.461  1.6341 -0.1958 -0.3210
  184MOL0     H24794   2.624   4.470   8.435 -0.5730 -0.3996 -0.9741
  184MOL0     H24795   2.643   4.628   8.510 -0.0325 -0.5129 -0.0038
  184MOL0     H24796   2.523   4.725   8.296 -0.9383 -0.9195 -5.6168
  184MOL0     H24797   2.511   4.570   8.233  1.9862 -0.7959  0.1973
  184MOL0     H24798   2.758   4.550   8.186  3.5697  1.1918 -2.2767
  184MOL0     H24799   2.788   4.679   8.304  1.9964  0.7597 -2.5904
  184MOL0     H24800   2.962   4.658   8.159 -4.1431  0.0739  1.1738
  184MOL0     H24801   3.282   4.802   8.018 -0.9203 -1.6524 -3.4825
  184MOL0     H24802   3.218   4.741   8.164  0.5281  4.1350  0.1605
  184MOL0     H24803   3.224   4.641   8.008  1.0177  1.0311 -2.2985
  184MOL0     H24804   3.365   5.125   7.767 -1.7667 -0.6836  0.0114
  184MOL0     H24805   3.535   5.148   7.597 -3.7125  2.4968  1.3574
  184MOL0     H24806   3.669   5.155   7.422 -2.2577 -1.0473 -2.5926
  184MOL0     H24807   3.798   5.056   7.512  0.2138 -0.7257 -0.5762
  184MOL0     H24808   3.882   5.131   7.278  2.8364 -2.3114 -1.7970
  184MOL0     H24809   3.859   4.955   7.301 -1.3147 -0.9766  0.1471
  184MOL0     H24810   3.673   5.151   7.172  0.5246  0.3131  0.1946
  184MOL0     H24811   3.631   4.985   7.200 -0.5437  0.0202  1.9247
  184MOL0     H24812   3.855   5.062   7.006 -0.7169  1.3540  1.8850
  184MOL0     H24813   3.834   4.906   7.067 -0.6822 -0.7686 -0.5599
  184MOL0     H24814   3.585   4.914   7.002 -1.4726  1.2212  2.0033
  184MOL0     H24815   3.706   4.914   6.872 -2.0292 -1.1944 -0.2708
  184MOL0     H24816   3.572   5.162   6.983 -1.3167 -1.4990  2.3959
  184MOL0     H24817   3.680   5.151   6.835  3.0237 -2.7586  1.8446
  184MOL0     H24818   3.402   5.045   6.881 -1.8923  1.4292 -2.3699
  184MOL0     H24819   3.486   5.023   6.724  1.6922  2.0008 -0.4346
  184MOL0     H24820   3.436   5.293   6.848  2.1190 -0.3292 -0.4434
  184MOL0     H24821   3.310   5.206   6.760 -0.9269  0.1987  0.3034
  184MOL0     H24822   3.512   4.729   7.519 -2.7226 -1.3965  0.8242
  184MOL0     H24823   3.320   4.717   7.657  0.2519  1.4203  2.5973
  184MOL0     H24824   2.905   5.071   7.888 -2.4674  0.7369  1.1390
  184MOL0     H24825   2.703   4.963   7.997 -1.1674 -0.8523 -3.6119
  184MOL0     H24826   1.748   4.345   8.789  0.0846  0.1480  0.4387
  184MOL0     H24827   1.561   4.497   8.690 -1.9714  0.3369 -0.0001
  184MOL0     H24828   1.026   4.759   8.985 -1.7156  3.1449 -0.1468
  184MOL0     H24829   0.812   4.735   8.889  2.1816 -2.2646  2.1924
  184MOL0     H24830   0.672   4.588   8.828  1.2153  1.2508 -0.8710
  184MOL0     H24831   0.618   4.745   8.768 -2.3989  0.2934 -2.6996
  184MOL0     H24832   0.578   4.499   8.605  0.8407  0.9633 -1.3446
  184MOL0     H24833   0.494   4.654   8.584 -3.5456 -1.2773 -0.1892
  184MOL0     H24834   0.389   4.619   8.828 -4.3351  0.1726 -0.9072
  184MOL0     H24835   0.416   4.448   8.785  0.0482  0.6147  2.0056
  184MOL0     H24836   0.207   4.515   8.739  0.3003  0.2322  0.9204
  184MOL0     H24837   0.285   4.477   8.581  1.9067  0.4270 -0.6873
  184MOL0     H24838   0.104   4.843   8.537 -0.0957 -0.5642  0.7882
  184MOL0     H24839   0.979   4.625   8.505 -2.2937  2.6399 -0.9496
  184MOL0     H24840   1.202   4.611   8.615 -1.0605  0.7765 -1.6850
  185MOL0     O24841   4.034   4.482   9.137 -0.9447  0.3176  0.4312
  185MOL0     C24842   4.001   4.397   9.225 -0.9727 -0.5575  1.0164
  185MOL0     O24843   3.906   4.420   9.319  0.5409 -0.1422  0.1640
  185MOL0     C24844   3.785   4.495   9.285 -0.1588  0.1521  0.1935
  185MOL0     C24845   3.714   4.541   9.394 -0.5694  0.8420  0.4695
  185MOL0     C24846   3.603   4.628   9.387 -1.3884 -0.6144 -0.2906
  185MOL0     C24847   3.558   4.671   9.257 -0.0499  0.2424 -0.1130
  185MOL0     O24848   3.455   4.760   9.232  0.9095  0.0439 -0.6137
  185MOL0     C24849   3.363   4.809   9.332  0.0634 -0.0327  0.1613
  185MOL0     C24850   3.420   4.935   9.396 -0.1187  0.5173  0.2402
  185MOL0     C24851   3.316   5.020   9.467  0.0077  0.0424  0.2035
  185MOL0     C24852   3.255   4.938   9.588  0.1409  0.7012  1.0893
  185MOL0     C24853   3.158   5.031   9.648 -0.7826 -0.3872  0.2732
  185MOL0     C24854   3.068   4.954   9.745  0.5932 -0.4235 -0.4133
  185MOL0     C24855   2.971   5.055   9.826  0.1125 -0.3047 -0.1352
  185MOL0     C24856   2.849   5.093   9.746  0.1318  0.5315 -0.3163
  185MOL0     N24857   2.768   5.197   9.811 -0.5151 -0.1451 -0.3244
  185MOL0     C24858   2.753   5.333   9.785  0.0445 -1.0314  0.9648
  185MOL0     C24859   2.648   5.369   9.871  0.0504 -0.3257  0.5233
  185MOL0     C24860   2.568   5.503   9.884 -0.1491  0.2565  0.0657
  185MOL0     C24861   2.481   5.504  10.004  0.4426 -1.0908  0.0608
  185MOL0     C24862   2.384   5.623   9.997 -0.2013 -0.3648 -0.3761
  185MOL0     C24863   2.329   5.646  10.135  0.9149 -0.1549  0.3188
  185MOL0     O24864   2.244   5.761  10.122 -0.4639 -0.6792  0.3612
  185MOL0     C24865   2.157   5.781  10.216  0.4182  0.7040 -0.3979
  185MOL0     C24866   2.068   5.890  10.199  0.5607 -0.3743 -0.2745
  185MOL0     C24867   1.960   5.922  10.283 -0.6596  0.0808  0.0227
  185MOL0     C24868   1.908   6.056  10.270 -0.3663 -0.2755  1.3070
  185MOL0     C24869   1.932   5.839  10.389  0.8760  0.5272 -0.4462
  185MOL0     C24870   1.834   5.870  10.490 -0.1100 -0.0241  0.2785
  185MOL0     O24871   1.828   5.776  10.591 -0.5436  0.6969  0.0839
  185MOL0     C24872   1.764   5.829  10.705  0.3241  0.7704 -0.0462
  185MOL0     C24873   1.627   5.812  10.714 -0.1448  0.1626  0.0018
  185MOL0     C24874   1.557   5.857  10.819  0.3276 -0.4658  1.2339
  185MOL0     C24875   1.623   5.923  10.916 -0.1079 -0.1611 -0.5622
  185MOL0     O24876   1.541   5.970  11.011 -0.0300  0.7312  0.1121
  185MOL0     C24877   1.577   6.076  11.101  1.1254  0.2732  0.2677
  185MOL0     C24878   1.636   6.000  11.224 -0.2848  0.5161 -0.2995
  185MOL0     C24879   1.679   6.096  11.331  0.1855 -0.1175 -0.7198
  185MOL0     C24880   1.563   6.194  11.379 -0.3390 -0.3333 -0.1758
  185MOL0     C24881   1.585   6.243  11.523  0.5271 -0.8209 -0.3032
  185MOL0     C24882   1.473   6.345  11.554 -0.1637  0.0760  0.9369
  185MOL0     C24883   1.493   6.391  11.696  0.1048  0.6196 -0.3429
  185MOL0     C24884   1.379   6.460  11.769 -0.2425  0.3585  0.6121
  185MOL0    Cl24885   1.435   6.511  11.943  0.4196 -0.1358 -0.2170
  185MOL0     C24886   1.760   5.942  10.908  0.2875 -0.5734 -0.2894
  185MOL0     C24887   1.836   5.900  10.799 -0.4220 -0.3513 -0.1376
  185MOL0     O24888   1.780   5.979  10.494  0.4424  0.0407 -0.3909
  185MOL0     C24889   2.022   5.726  10.407  0.5977  0.3447 -0.7847
  185MOL0     C24890   2.130   5.707  10.327 -0.3455  1.2933 -0.4965
  185MOL0     N24891   2.615   5.255   9.937 -0.2330  0.4491 -0.0131
  185MOL0     N24892   2.682   5.155   9.906  0.1149  0.4345  0.0026
  185MOL0     C24893   3.623   4.606   9.147 -0.9952 -0.3131  0.3312
  185MOL0     C24894   3.743   4.531   9.155  0.3018 -0.3593 -0.0480
  185MOL0     C24895   4.071   4.268   9.220  0.1085  0.2734  0.0487
  185MOL0     C24896   4.137   4.223   9.105 -0.1911  0.7689  0.0978
  185MOL0     C24897   4.204   4.103   9.105  0.4817  0.0460 -0.0789
  185MOL0     C24898   4.213   4.015   9.215  0.8666 -0.4857 -0.3239
  185MOL0     O24899   4.270   3.890   9.199 -0.2525  0.3427 -0.3931
  185MOL0     C24900   4.284   3.804   9.311 -0.5205  0.0995 -0.2951
  185MOL0     C24901   4.378   3.691   9.264  0.5385  0.0872 -0.1710
  185MOL0     C24902   4.401   3.591   9.380 -0.1443 -0.0115 -0.3938
  185MOL0     C24903   4.502   3.478   9.343  0.3150  0.3848  0.1162
  185MOL0     C24904   4.640   3.521   9.369  0.2716  0.5297  1.1521
  185MOL0     C24905   4.752   3.545   9.399 -0.2616  0.1444 -0.0011
  185MOL0     C24906   4.153   4.064   9.331  0.1446  0.3311  0.1705
  185MOL0     C24907   4.080   4.184   9.337  0.5059  0.2157 -0.2057
  185MOL0     H24908   3.750   4.508   9.491  1.4901  0.6131 -0.3244
  185MOL0     H24909   3.542   4.629   9.477 -0.2235  1.3456  0.5407
  185MOL0     H24910   3.267   4.837   9.288  0.6659  2.3346  0.2162
  185MOL0     H24911   3.341   4.725   9.399 -3.1998  1.1283  0.7227
  185MOL0     H24912   3.502   4.910   9.464  0.5195  0.3953 -0.5613
  185MOL0     H24913   3.467   4.986   9.312  1.3660 -1.4251 -0.1732
  185MOL0     H24914   3.375   5.100   9.512  0.6293 -0.5852  0.5078
  185MOL0     H24915   3.243   5.055   9.393  0.1097  0.3494  0.2471
  185MOL0     H24916   3.202   4.847   9.558 -0.0317  1.7795 -2.2744
  185MOL0     H24917   3.340   4.916   9.653  0.1872 -1.8311  0.2714
  185MOL0     H24918   3.218   5.110   9.695 -2.9427  2.6232 -1.6609
  185MOL0     H24919   3.093   5.065   9.566 -0.3897 -0.9834 -0.2992
  185MOL0     H24920   3.013   4.881   9.685  0.7609  0.0286 -1.1275
  185MOL0     H24921   3.128   4.902   9.821 -1.8617 -0.5188  1.5996
  185MOL0     H24922   2.943   5.006   9.919  0.6519  0.1264  0.2583
  185MOL0     H24923   3.026   5.147   9.847 -1.2775  0.1257  1.8994
  185MOL0     H24924   2.780   5.008   9.743 -1.8078  1.5976  4.4341
  185MOL0     H24925   2.872   5.129   9.646 -1.2921 -0.2979 -0.9802
  185MOL0     H24926   2.806   5.397   9.714  1.2005 -1.0745  1.7559
  185MOL0     H24927   2.639   5.585   9.886  1.0199 -0.7316  1.9704
  185MOL0     H24928   2.513   5.511   9.790  0.5668  1.8123 -0.2368
  185MOL0     H24929   2.537   5.499  10.097 -0.2705 -4.1003  0.4394
  185MOL0     H24930   2.415   5.417  10.010  1.5704 -1.8565  2.4953
  185MOL0     H24931   2.313   5.608   9.915  2.3244 -4.1056 -2.1620
  185MOL0     H24932   2.437   5.714   9.965 -0.6169  0.7948  1.9524
  185MOL0     H24933   2.401   5.644  10.217  1.5169  1.5899 -0.1267
  185MOL0     H24934   2.265   5.560  10.159  0.4680  0.4441  1.3672
  185MOL0     H24935   2.100   5.952  10.116  3.1756  2.5974  2.6764
  185MOL0     H24936   1.942   6.083  10.169 -1.1224  3.1052  1.8507
  185MOL0     H24937   1.800   6.068  10.281 -0.7682 -2.1462  0.0113
  185MOL0     H24938   1.953   6.116  10.349 -0.2608  2.3279 -0.6033
  185MOL0     H24939   1.575   5.758  10.636 -2.8229  0.6566  1.3290
  185MOL0     H24940   1.451   5.837  10.831 -0.4300  1.7496 -0.9734
  185MOL0     H24941   1.644   6.149  11.053 -0.3818  0.5510 -1.5490
  185MOL0     H24942   1.485   6.129  11.128 -0.7587  0.4958 -5.2471
  185MOL0     H24943   1.566   5.937  11.280  1.7396 -0.6966  1.0071
  185MOL0     H24944   1.715   5.933  11.188  0.0080  0.5729  0.2252
  185MOL0     H24945   1.756   6.159  11.286  2.2762 -0.2031  2.4332
  185MOL0     H24946   1.715   6.049  11.423 -1.4811 -2.6508 -1.2510
  185MOL0     H24947   1.560   6.281  11.313  0.3350  0.5918  0.9889
  185MOL0     H24948   1.470   6.137  11.379  0.3182 -1.5808 -2.8430
  185MOL0     H24949   1.684   6.288  11.521 -0.2093  0.8920 -0.3665
  185MOL0     H24950   1.581   6.163  11.597 -0.9855 -0.9476 -0.4776
  185MOL0     H24951   1.462   6.425  11.481 -0.0244  0.8672  1.7637
  185MOL0     H24952   1.374   6.300  11.556 -0.2589 -0.1688 -2.8343
  185MOL0     H24953   1.574   6.464  11.699 -1.9853  3.0312  0.0898
  185MOL0     H24954   1.520   6.307  11.762 -1.1277  1.5923  1.4749
  185MOL0     H24955   1.299   6.385  11.780  1.0574 -0.9166  1.7487
  185MOL0     H24956   1.342   6.548  11.715  0.7057  0.6996  0.5098
  185MOL0     H24957   1.813   5.991  10.989 -0.2485  0.0818 -0.3339
  185MOL0     H24958   1.941   5.925  10.793 -0.4529  1.3299  3.7125
  185MOL0     H24959   2.011   5.670  10.500  1.0219  1.4209 -0.0624
  185MOL0     H24960   2.197   5.625  10.354  1.1517  2.4440 -0.5507
  185MOL0     H24961   3.581   4.645   9.055 -0.3105  0.5777  0.3731
  185MOL0     H24962   3.793   4.507   9.061 -0.5339 -2.4607 -0.0176
  185MOL0     H24963   4.136   4.289   9.019  1.1036  1.9713  0.9613
  185MOL0     H24964   4.239   4.070   9.007  0.6362 -2.6907  0.8092
  185MOL0     H24965   4.323   3.862   9.395  2.0996  0.2937 -1.5446
  185MOL0     H24966   4.188   3.765   9.348  0.5688 -2.3627  0.1341
  185MOL0     H24967   4.473   3.743   9.245  2.4788 -1.5489  3.7152
  185MOL0     H24968   4.333   3.637   9.180  0.1361  1.0596 -0.5852
  185MOL0     H24969   4.301   3.549   9.390  0.2011 -0.9958 -0.8754
  185MOL0     H24970   4.426   3.640   9.474 -0.9891  1.3230 -0.8365
  185MOL0     H24971   4.482   3.443   9.241  1.9003  1.5095 -0.6191
  185MOL0     H24972   4.480   3.392   9.406  0.2327 -0.9115 -1.6228
  185MOL0     H24973   4.855   3.573   9.408 -0.1911  0.0244 -0.4056
  185MOL0     H24974   4.155   4.004   9.422  0.9842  0.5332  0.2989
  185MOL0     H24975   4.028   4.220   9.425  1.6984  4.4530 -0.9823
  186MOL0     O24976   8.294   4.216   0.158 -0.6530 -0.0144 -0.6817
  186MOL0     C24977   8.307   4.097   0.135 -0.0241  0.2649  0.1484
  186MOL0     O24978   8.243   4.026   0.039 -0.4168 -0.2746  0.1260
  186MOL0     C24979   8.137   4.077  -0.028  0.4623 -0.2387  0.4424
  186MOL0     C24980   8.153   4.098  -0.164 -0.5709 -0.8846 -0.3929
  186MOL0     C24981   8.040   4.160  -0.231 -1.4358  0.2169  0.7453
  186MOL0     C24982   7.921   4.190  -0.172  0.3877 -0.7692 -0.2659
  186MOL0     O24983   7.825   4.244  -0.248 -0.0596 -0.2806  0.6305
  186MOL0     C24984   7.771   4.176  -0.357  0.3302  0.6423  0.5512
  186MOL0     C24985   7.642   4.237  -0.398 -0.3017  0.2520  0.6898
  186MOL0     C24986   7.556   4.263  -0.284 -0.4427 -0.2553 -0.6774
  186MOL0     C24987   7.413   4.291  -0.337 -0.1571  0.3499 -0.4611
  186MOL0     C24988   7.313   4.322  -0.207  0.1342 -0.0945 -0.4220
  186MOL0     C24989   7.164   4.316  -0.237 -0.9451 -0.6262  0.1993
  186MOL0     C24990   7.073   4.374  -0.131 -0.1024 -0.2282  0.0554
  186MOL0     C24991   6.935   4.393  -0.200  0.0856 -0.3926 -0.4903
  186MOL0     N24992   6.845   4.463  -0.111 -0.2740  0.3389  0.5286
  186MOL0     C24993   6.829   4.427   0.019 -0.3378  0.2023  1.5578
  186MOL0     C24994   6.743   4.531   0.065  0.4258  0.0023 -0.3385
  186MOL0     C24995   6.691   4.554   0.204  0.9332  0.2613 -0.1454
  186MOL0     C24996   6.757   4.459   0.308 -0.8046 -0.7011  0.2426
  186MOL0     C24997   6.670   4.464   0.431  1.1954  0.6980  0.6428
  186MOL0     C24998   6.707   4.369   0.538  0.0182  0.1223 -0.2212
  186MOL0     O24999   6.674   4.229   0.520 -0.5290 -0.8289  0.0990
  186MOL0     C25000   6.543   4.193   0.516 -0.4805 -0.2130  0.3058
  186MOL0     C25001   6.437   4.259   0.574 -0.4718  0.4136 -0.0541
  186MOL0     C25002   6.299   4.221   0.553  0.0843 -0.0784  0.7009
  186MOL0     C25003   6.201   4.333   0.599  0.0159  1.0082  0.4479
  186MOL0     C25004   6.269   4.095   0.498  0.7394  0.8386  0.3506
  186MOL0     C25005   6.122   4.036   0.479  0.3791  0.1289  0.2848
  186MOL0     O25006   6.112   3.916   0.425  0.1278  0.5693 -0.2164
  186MOL0     C25007   5.993   3.840   0.436 -0.2480 -0.6533  1.1669
  186MOL0     C25008   5.895   3.854   0.536 -0.3208  0.7488 -0.4476
  186MOL0     C25009   5.776   3.786   0.528  0.0408  1.2464 -0.5317
  186MOL0     C25010   5.753   3.692   0.417 -0.4019 -0.5072 -0.4803
  186MOL0     O25011   5.640   3.625   0.385 -0.6050 -0.0834  0.4038
  186MOL0     C25012   5.549   3.594   0.494  0.2110 -0.6026 -0.5157
  186MOL0     C25013   5.434   3.500   0.444 -0.0332 -0.2166  0.9391
  186MOL0     C25014   5.396   3.407   0.565 -0.9145 -1.0171 -0.1705
  186MOL0     C25015   5.249   3.391   0.569  0.3792 -0.9784  0.7475
  186MOL0     C25016   5.196   3.287   0.664 -0.2817  0.2708 -0.1840
  186MOL0     C25017   5.087   3.351   0.747  0.0462 -0.9183 -0.4481
  186MOL0     C25018   5.036   3.272   0.857  0.8813  0.3066  0.0652
  186MOL0     C25019   4.883   3.276   0.872  0.1830 -0.4900 -0.5129
  186MOL0    Cl25020   4.823   3.445   0.902 -0.2533  0.0243 -0.2891
  186MOL0     C25021   5.852   3.680   0.324 -0.4295 -0.9499 -0.7044
  186MOL0     C25022   5.973   3.758   0.329  0.2707  0.2201  0.5270
  186MOL0     O25023   6.025   4.108   0.510 -0.1237  0.2636  0.0011
  186MOL0     C25024   6.381   4.023   0.442 -0.6199  0.2546 -0.0624
  186MOL0     C25025   6.517   4.073   0.447 -0.3842 -0.0388 -0.1868
  186MOL0     N25026   6.709   4.605  -0.047  1.2700 -0.1895  0.0189
  186MOL0     N25027   6.768   4.567  -0.151 -0.6841 -0.0504  0.1328
  186MOL0     C25028   7.910   4.174  -0.036 -0.3250  0.7134  0.3137
  186MOL0     C25029   8.009   4.107   0.038  0.3596  0.8443  0.0005
  186MOL0     C25030   8.407   4.026   0.216  0.1940 -0.3538  0.0232
  186MOL0     C25031   8.453   3.905   0.167 -0.0032  1.1460  0.0002
  186MOL0     C25032   8.563   3.840   0.220 -0.3781 -0.0473  0.8224
  186MOL0     C25033   8.632   3.890   0.337  0.5892  0.2322  0.9561
  186MOL0     O25034   8.733   3.822   0.411 -0.2591 -0.4179  0.0143
  186MOL0     C25035   8.763   3.675   0.397  0.8093 -1.2749  0.5622
  186MOL0     C25036   8.669   3.592   0.480 -0.0808  0.5724 -0.1408
  186MOL0     C25037   8.729   3.461   0.510  1.0973 -0.5062 -0.5645
  186MOL0     C25038   8.628   3.359   0.559 -0.2774 -0.1695 -0.0024
  186MOL0     C25039   8.567   3.396   0.688  0.3219 -0.3939 -0.3815
  186MOL0     C25040   8.520   3.415   0.799 -0.4528  0.0100 -0.5841
  186MOL0     C25041   8.577   4.002   0.391 -0.5385 -0.2757  0.7636
  186MOL0     C25042   8.474   4.075   0.324  0.3087 -0.0317  0.1029
  186MOL0     H25043   8.243   4.084  -0.223  0.4172 -2.9284  1.4543
  186MOL0     H25044   8.045   4.187  -0.336 -4.2490  0.5687  0.6376
  186MOL0     H25045   7.834   4.164  -0.446 -0.1511 -0.7273  0.3703
  186MOL0     H25046   7.754   4.079  -0.309 -2.9249  0.3163 -1.0077
  186MOL0     H25047   7.660   4.333  -0.447  2.3144  0.8706  2.6288
  186MOL0     H25048   7.606   4.166  -0.473  1.9347  0.1652 -0.3967
  186MOL0     H25049   7.553   4.177  -0.216 -0.2301  0.3533  0.1177
  186MOL0     H25050   7.585   4.347  -0.220 -1.0875  0.5278 -1.3973
  186MOL0     H25051   7.407   4.375  -0.407  0.5689 -0.1863 -1.1832
  186MOL0     H25052   7.381   4.206  -0.398  0.7612 -1.0364  0.8991
  186MOL0     H25053   7.324   4.269  -0.112 -1.4403  1.2296  0.5597
  186MOL0     H25054   7.338   4.424  -0.176  0.8222 -0.3301 -0.1705
  186MOL0     H25055   7.165   4.378  -0.328 -1.4565 -2.6053 -1.2160
  186MOL0     H25056   7.133   4.214  -0.258 -0.1262 -0.9098  0.3107
  186MOL0     H25057   7.074   4.329  -0.032 -0.2611  0.7659  0.5176
  186MOL0     H25058   7.099   4.480  -0.123 -1.7454  0.1857  0.2007
  186MOL0     H25059   6.884   4.297  -0.215  0.2271 -0.6622  0.6193
  186MOL0     H25060   6.937   4.450  -0.293 -2.9179  0.8398  0.0751
  186MOL0     H25061   6.889   4.359   0.078  2.2509 -2.3748 -3.4525
  186MOL0     H25062   6.699   4.659   0.233 -3.6665  0.7727  0.1360
  186MOL0     H25063   6.583   4.534   0.197  0.4682  2.4539  0.0103
  186MOL0     H25064   6.862   4.485   0.326 -1.2476  0.4486  1.3819
  186MOL0     H25065   6.757   4.356   0.272 -0.3398  0.0431 -2.0594
  186MOL0     H25066   6.568   4.428   0.416  1.2408 -0.0980  2.0165
  186MOL0     H25067   6.653   4.562   0.476 -1.6482  0.4799  0.2526
  186MOL0     H25068   6.677   4.402   0.638  2.1737  1.1889  0.1252
  186MOL0     H25069   6.816   4.379   0.548 -0.1706  1.6073  0.6948
  186MOL0     H25070   6.455   4.363   0.598  1.0939  0.8486 -2.6835
  186MOL0     H25071   6.258   4.424   0.621  1.0799  0.2770  0.8205
  186MOL0     H25072   6.124   4.357   0.526  0.4013 -2.1510 -1.1761
  186MOL0     H25073   6.150   4.303   0.691 -1.6263 -1.2762 -1.0953
  186MOL0     H25074   5.901   3.929   0.613 -3.1602  0.8204 -0.1711
  186MOL0     H25075   5.703   3.799   0.607  2.1574  2.3149  1.3624
  186MOL0     H25076   5.610   3.558   0.577  4.4149  1.0553 -2.6198
  186MOL0     H25077   5.498   3.677   0.543 -1.4844 -2.0153  0.2196
  186MOL0     H25078   5.357   3.565   0.403  0.4099 -0.8373 -1.0176
  186MOL0     H25079   5.458   3.444   0.353 -0.0916  2.5904 -0.9227
  186MOL0     H25080   5.419   3.463   0.656 -1.2926 -0.5819 -0.3342
  186MOL0     H25081   5.442   3.308   0.563  2.1296  0.2658 -1.4937
  186MOL0     H25082   5.206   3.487   0.596  0.2189 -0.4241 -1.2948
  186MOL0     H25083   5.219   3.373   0.465 -2.0509 -1.2530  1.4362
  186MOL0     H25084   5.267   3.248   0.738 -0.3472  0.4627 -0.0196
  186MOL0     H25085   5.165   3.206   0.598 -1.6199 -0.7243  1.5769
  186MOL0     H25086   5.120   3.440   0.803  2.6969 -1.8618 -0.3807
  186MOL0     H25087   5.014   3.384   0.672  0.2318 -2.1770 -1.2064
  186MOL0     H25088   5.076   3.312   0.950  0.7715 -0.1977  0.3339
  186MOL0     H25089   5.063   3.166   0.846  0.6304  0.1845  0.6044
  186MOL0     H25090   4.851   3.208   0.952  2.6292  1.8479  2.7119
  186MOL0     H25091   4.847   3.241   0.774 -2.5521  1.0270 -0.1516
  186MOL0     H25092   5.844   3.622   0.233 -2.0352  0.4619 -1.5219
  186MOL0     H25093   6.049   3.743   0.253 -3.2351 -1.8140 -2.9080
  186MOL0     H25094   6.359   3.932   0.388  0.8198 -0.0880 -0.1064
  186MOL0     H25095   6.600   4.016   0.406 -0.4017  0.3044 -0.6995
  186MOL0     H25096   7.818   4.204   0.014  1.4243  3.4457  2.1890
  186MOL0     H25097   7.981   4.070   0.136 -2.1652  3.0542  0.2231
  186MOL0     H25098   8.400   3.850   0.091  0.3046 -0.8685  1.1826
  186MOL0     H25099   8.590   3.744   0.178 -0.6381 -0.1594  0.9091
  186MOL0     H25100   8.737   3.647   0.295  0.1785  0.2472  0.2839
  186MOL0     H25101   8.864   3.665   0.439  1.5017 -3.1054 -1.3493
  186MOL0     H25102   8.568   3.590   0.439  0.4243  1.9855 -1.5661
  186MOL0     H25103   8.655   3.643   0.576  0.7889  1.6672 -0.5654
  186MOL0     H25104   8.818   3.464   0.573 -0.3360  0.9026  1.5352
  186MOL0     H25105   8.754   3.413   0.414 -0.8117 -0.1968 -1.2651
  186MOL0     H25106   8.681   3.265   0.579 -1.1306 -0.6710 -0.0722
  186MOL0     H25107   8.555   3.341   0.481 -1.6887 -0.4856  1.3396
  186MOL0     H25108   8.484   3.432   0.898  1.2111  1.1822 -0.1281
  186MOL0     H25109   8.635   4.055   0.465 -1.5174  0.0116  1.3487
  186MOL0     H25110   8.445   4.170   0.367  0.6287  0.4292 -0.6824
  187MOL0     O25111   0.837   3.442   0.440  0.1498  0.0521  0.5089
  187MOL0     C25112   0.774   3.522   0.374 -0.1083 -0.7509  0.1965
  187MOL0     O25113   0.640   3.558   0.403 -0.0643 -0.5290  0.3649
  187MOL0     C25114   0.580   3.538   0.520  1.0466 -0.0021 -0.2338
  187MOL0     C25115   0.439   3.545   0.522  1.3815 -0.6822  0.1751
  187MOL0     C25116   0.358   3.515   0.634  0.2020 -0.3895 -0.2173
  187MOL0     C25117   0.410   3.473   0.752  0.7384 -0.5519 -0.3967
  187MOL0     O25118   0.325   3.432   0.851 -0.4508  0.0391 -0.5936
  187MOL0     C25119   0.372   3.310   0.911  0.5280  0.6385 -0.4769
  187MOL0     C25120   0.251   3.266   0.995  0.0534 -0.4501  0.2580
  187MOL0     C25121   0.113   3.265   0.929 -0.5641 -0.0425 -1.2779
  187MOL0     C25122   0.104   3.164   0.820  0.3136 -0.0608  0.3773
  187MOL0     C25123  -0.046   3.140   0.773 -0.6569  0.8607  0.4734
  187MOL0     C25124  -0.101   3.236   0.673 -0.3131  0.0708 -0.4902
  187MOL0     C25125  -0.251   3.280   0.705  0.4322 -0.2907  0.5206
  187MOL0     C25126  -0.348   3.162   0.708  1.0241  0.7427 -0.1992
  187MOL0     N25127  -0.432   3.151   0.592  0.0608  0.6550 -0.2097
  187MOL0     C25128  -0.554   3.085   0.587  0.1861 -0.7207 -0.8933
  187MOL0     C25129  -0.574   3.067   0.453 -0.4149  0.3582 -0.5939
  187MOL0     C25130  -0.689   2.998   0.393 -0.0765  0.7452  0.2031
  187MOL0     C25131  -0.814   3.093   0.387 -0.1413 -0.3374 -0.3063
  187MOL0     C25132  -0.790   3.219   0.303 -0.2552  1.2511 -0.2037
  187MOL0     C25133  -0.892   3.325   0.339 -0.6424 -0.5958 -0.2915
  187MOL0     O25134  -1.027   3.267   0.315  0.8062  0.1225  0.1964
  187MOL0     C25135  -1.139   3.325   0.373  0.7104 -0.4085  0.3618
  187MOL0     C25136  -1.145   3.453   0.443 -0.7078  0.6468  0.2755
  187MOL0     C25137  -1.258   3.509   0.495 -0.5725 -0.5579 -0.8862
  187MOL0     C25138  -1.257   3.639   0.572  0.3717  0.0912 -0.3991
  187MOL0     C25139  -1.380   3.443   0.473 -0.3519 -0.1546 -0.7282
  187MOL0     C25140  -1.511   3.480   0.546  0.4103 -1.0791 -1.5361
  187MOL0     O25141  -1.615   3.456   0.474 -0.4122  0.9923  0.0462
  187MOL0     C25142  -1.742   3.505   0.503  0.4707  0.0722 -0.1036
  187MOL0     C25143  -1.806   3.490   0.631  0.5434  0.2234  0.3814
  187MOL0     C25144  -1.937   3.554   0.651 -0.5979  1.5699  0.2711
  187MOL0     C25145  -1.991   3.634   0.547 -0.7511  0.4487 -0.6484
  187MOL0     O25146  -2.097   3.701   0.571  0.1772 -0.8054  0.0903
  187MOL0     C25147  -2.164   3.786   0.475 -0.1676 -0.9776 -0.3362
  187MOL0     C25148  -2.262   3.882   0.549 -0.1751  0.4057  0.1186
  187MOL0     C25149  -2.388   3.820   0.608  0.4311  0.2690 -0.8736
  187MOL0     C25150  -2.473   3.932   0.674  0.1577  0.6818  0.2976
  187MOL0     C25151  -2.597   3.882   0.739 -0.5630  0.9668  0.8742
  187MOL0     C25152  -2.646   3.977   0.853 -0.1161  0.4031 -1.1348
  187MOL0     C25153  -2.787   3.931   0.904  0.3528 -0.1345 -0.3952
  187MOL0     C25154  -2.890   3.965   0.802  0.8356 -0.4806  0.4960
  187MOL0    Cl25155  -2.931   4.133   0.772 -0.3189  0.2499  0.1703
  187MOL0     C25156  -1.933   3.631   0.423  0.3587 -0.3814 -0.0226
  187MOL0     C25157  -1.806   3.571   0.398  0.4290 -0.7559  0.3130
  187MOL0     O25158  -1.515   3.522   0.662  0.1705  0.1023  0.8436
  187MOL0     C25159  -1.380   3.316   0.405 -0.4547  0.4507 -0.4258
  187MOL0     C25160  -1.261   3.260   0.351  0.4363  0.6714  0.2682
  187MOL0     N25161  -0.459   3.114   0.383  0.0688 -0.1315  1.4259
  187MOL0     N25162  -0.376   3.162   0.470 -0.0796  0.0188 -0.2891
  187MOL0     C25163   0.544   3.480   0.762 -0.3233  0.4340 -0.2638
  187MOL0     C25164   0.634   3.510   0.652  0.2656  0.1739  0.5564
  187MOL0     C25165   0.843   3.602   0.269  0.3755  0.0160  0.0020
  187MOL0     C25166   0.775   3.675   0.175 -0.7659 -0.2526  0.5591
  187MOL0     C25167   0.838   3.746   0.069  0.1740 -0.3549  0.5242
  187MOL0     C25168   0.974   3.741   0.053  0.1706 -0.1119 -0.4365
  187MOL0     O25169   1.025   3.805  -0.057  0.2246  1.1612  0.8320
  187MOL0     C25170   1.144   3.875  -0.038 -0.0754 -0.5773 -0.6476
  187MOL0     C25171   1.115   4.031  -0.039 -0.0481  0.6140  0.0141
  187MOL0     C25172   1.249   4.107  -0.029  0.9480 -0.8747 -0.1990
  187MOL0     C25173   1.218   4.260  -0.034 -0.4440 -0.2537 -0.9113
  187MOL0     C25174   1.164   4.315  -0.164  0.4794 -0.1718  0.6550
  187MOL0     C25175   1.126   4.359  -0.274 -0.4516 -0.0277  0.5209
  187MOL0     C25176   1.050   3.662   0.153 -0.2320  1.2409 -0.4311
  187MOL0     C25177   0.985   3.601   0.261 -0.8268  0.8019 -0.4805
  187MOL0     H25178   0.390   3.579   0.431  1.4342  2.6520  1.2709
  187MOL0     H25179   0.250   3.514   0.629  0.1626  1.5591 -1.0523
  187MOL0     H25180   0.396   3.229   0.841 -0.6725 -0.3129  0.1688
  187MOL0     H25181   0.453   3.333   0.981 -1.3181 -0.9088  2.3796
  187MOL0     H25182   0.258   3.160   1.021  1.6870 -1.1164 -2.4788
  187MOL0     H25183   0.237   3.325   1.086 -2.7403 -0.7150  0.0852
  187MOL0     H25184   0.037   3.250   1.006  1.2683  2.1807  1.1483
  187MOL0     H25185   0.084   3.362   0.888 -0.9527 -0.1672 -1.3044
  187MOL0     H25186   0.159   3.201   0.733  0.8220 -0.5585  0.4800
  187MOL0     H25187   0.141   3.064   0.847 -1.2419 -1.1657 -1.3561
  187MOL0     H25188  -0.038   3.042   0.724  1.1035 -0.3729  3.0470
  187MOL0     H25189  -0.103   3.123   0.865 -0.6086 -2.8699 -0.0192
  187MOL0     H25190  -0.040   3.326   0.658 -3.1106  2.2314  0.2425
  187MOL0     H25191  -0.102   3.195   0.571 -1.3025 -1.0037 -0.0645
  187MOL0     H25192  -0.248   3.327   0.804  2.9518  0.6501  0.0793
  187MOL0     H25193  -0.288   3.359   0.639  0.9653  1.4368  2.2125
  187MOL0     H25194  -0.417   3.177   0.792 -1.8975 -1.1578 -2.0860
  187MOL0     H25195  -0.292   3.069   0.714 -0.6102 -0.6408 -3.9160
  187MOL0     H25196  -0.611   3.058   0.675 -1.5175  2.2363 -0.9691
  187MOL0     H25197  -0.659   2.963   0.294  0.8114 -0.6248  0.9178
  187MOL0     H25198  -0.720   2.913   0.454 -0.9806 -0.1635 -1.4522
  187MOL0     H25199  -0.837   3.116   0.492  0.2029  0.1128 -0.3283
  187MOL0     H25200  -0.903   3.045   0.346 -0.3166 -1.5153  1.3197
  187MOL0     H25201  -0.806   3.186   0.200 -3.3773 -0.7440  0.7914
  187MOL0     H25202  -0.687   3.251   0.323  1.0938 -2.0997 -1.0684
  187MOL0     H25203  -0.866   3.417   0.285  3.4186 -1.2086  0.3638
  187MOL0     H25204  -0.879   3.353   0.444  2.1494 -0.3821 -0.6193
  187MOL0     H25205  -1.054   3.510   0.457 -0.8721  0.4997  2.1381
  187MOL0     H25206  -1.349   3.698   0.563  1.6513  2.1248 -0.6870
  187MOL0     H25207  -1.224   3.623   0.675  2.0325 -0.0049 -0.9200
  187MOL0     H25208  -1.183   3.699   0.518  0.4681  1.7456  1.4529
  187MOL0     H25209  -1.754   3.432   0.707  2.5200  1.5721  0.1465
  187MOL0     H25210  -1.984   3.564   0.749 -0.1752 -0.1944  0.6895
  187MOL0     H25211  -2.092   3.852   0.425 -1.0783 -0.6867 -1.3218
  187MOL0     H25212  -2.227   3.731   0.404  0.6136  0.6173 -2.3828
  187MOL0     H25213  -2.202   3.930   0.627 -0.1197  1.4164 -0.5206
  187MOL0     H25214  -2.282   3.971   0.489  0.1943  1.3517  1.3504
  187MOL0     H25215  -2.365   3.748   0.687  0.0801 -1.7428 -2.5108
  187MOL0     H25216  -2.446   3.767   0.531  0.5098 -1.3716  0.1572
  187MOL0     H25217  -2.422   3.996   0.746 -0.4376  2.1581 -0.5417
  187MOL0     H25218  -2.509   4.001   0.597  0.1104 -0.0771 -0.3674
  187MOL0     H25219  -2.567   3.787   0.783 -0.6111  0.5983  0.1228
  187MOL0     H25220  -2.675   3.867   0.664  1.0701  2.6420 -1.2917
  187MOL0     H25221  -2.580   3.953   0.936 -1.6597  0.3996  0.1290
  187MOL0     H25222  -2.639   4.085   0.837  1.5995  0.7133  1.2666
  187MOL0     H25223  -2.792   3.989   0.997 -0.9556  0.5102 -0.8404
  187MOL0     H25224  -2.797   3.824   0.925 -1.0554  0.1453  0.5290
  187MOL0     H25225  -2.975   3.909   0.839  1.3777 -2.3467 -0.9190
  187MOL0     H25226  -2.861   3.920   0.706  1.7424  1.4107 -0.1880
  187MOL0     H25227  -1.976   3.684   0.338 -0.0312 -2.3169 -1.0935
  187MOL0     H25228  -1.746   3.591   0.310 -0.4656  1.7815  0.1802
  187MOL0     H25229  -1.469   3.254   0.396  0.7748 -1.4281  0.0502
  187MOL0     H25230  -1.271   3.165   0.298 -0.5158  1.5812 -1.2728
  187MOL0     H25231   0.591   3.451   0.856  1.6403 -1.2787 -1.6820
  187MOL0     H25232   0.742   3.505   0.664  0.2892 -0.6023  0.1510
  187MOL0     H25233   0.667   3.667   0.173 -0.7706 -0.1610  0.3827
  187MOL0     H25234   0.785   3.781  -0.019 -2.7662  0.6255  2.5556
  187MOL0     H25235   1.197   3.859   0.056 -2.5048  1.8245  1.2847
  187MOL0     H25236   1.216   3.850  -0.117  0.8975  0.4012 -0.0978
  187MOL0     H25237   1.066   4.072   0.049  0.7364  2.9468 -0.5734
  187MOL0     H25238   1.068   4.054  -0.135  0.9264  0.6167 -0.4790
  187MOL0     H25239   1.312   4.087  -0.117 -2.2529  0.6838 -3.0900
  187MOL0     H25240   1.301   4.077   0.063 -2.7564 -1.0066  2.0396
  187MOL0     H25241   1.308   4.314  -0.004 -2.1699  0.5574  3.5114
  187MOL0     H25242   1.139   4.279   0.040 -1.2877 -3.6317 -0.7450
  187MOL0     H25243   1.080   4.393  -0.364 -1.4400 -0.6971  0.7572
  187MOL0     H25244   1.158   3.653   0.149  0.1639  3.7439  2.1897
  187MOL0     H25245   1.034   3.548   0.343  1.3100 -0.4815 -2.4494
  188MOL0     O25246   0.207   9.020   3.580 -0.2162 -0.2872 -0.2012
  188MOL0     C25247   0.261   9.021   3.466  0.0516  0.1203  0.0864
  188MOL0     O25248   0.224   8.949   3.349  0.5142  0.6962 -0.7398
  188MOL0     C25249   0.135   8.841   3.366  0.0280 -0.6052  0.4844
  188MOL0     C25250   0.171   8.712   3.338 -0.0918  0.3484 -0.2812
  188MOL0     C25251   0.081   8.603   3.347  0.6803 -0.4772  0.4940
  188MOL0     C25252  -0.056   8.631   3.393 -0.4263  0.6003  0.4368
  188MOL0     O25253  -0.151   8.537   3.398  0.1259 -0.4669  0.0265
  188MOL0     C25254  -0.139   8.440   3.499  0.5385 -0.9531 -0.0202
  188MOL0     C25255  -0.250   8.334   3.493  0.2444 -0.0068 -0.8315
  188MOL0     C25256  -0.386   8.384   3.534 -0.1508  1.3553 -0.3136
  188MOL0     C25257  -0.468   8.403   3.407 -0.7430 -0.1442  0.6681
  188MOL0     C25258  -0.613   8.437   3.438 -0.4603  0.1828 -0.1774
  188MOL0     C25259  -0.693   8.344   3.525  0.1550  0.4683 -0.4613
  188MOL0     C25260  -0.837   8.393   3.533  0.1228  0.1357 -0.5888
  188MOL0     C25261  -0.925   8.297   3.603  0.5069  0.7906 -1.0838
  188MOL0     N25262  -1.070   8.333   3.595 -0.0307  0.7061 -0.1519
  188MOL0     C25263  -1.133   8.453   3.629  0.0828  0.2811 -0.4029
  188MOL0     C25264  -1.263   8.427   3.613 -0.4736 -0.0406 -0.8595
  188MOL0     C25265  -1.384   8.517   3.628  0.2980 -0.4710 -0.0215
  188MOL0     C25266  -1.375   8.620   3.519  0.6822  0.3220  0.8135
  188MOL0     C25267  -1.491   8.727   3.549  0.6549 -0.1191 -0.5395
  188MOL0     C25268  -1.480   8.862   3.497  0.7850 -0.3195  0.3364
  188MOL0     O25269  -1.569   8.943   3.579 -0.8630 -0.4007  0.3634
  188MOL0     C25270  -1.710   8.935   3.579 -0.0966  0.3817  0.2272
  188MOL0     C25271  -1.796   8.862   3.497 -0.7211  0.1507  0.1014
  188MOL0     C25272  -1.938   8.867   3.508 -0.1131 -0.4788  1.2329
  188MOL0     C25273  -2.017   8.796   3.400  0.0729  0.1927 -0.5556
  188MOL0     C25274  -1.991   8.959   3.598 -0.0737 -0.6869 -1.0548
  188MOL0     C25275  -2.140   8.987   3.608  0.1228 -0.5483  0.7991
  188MOL0     O25276  -2.227   8.909   3.540  0.2465 -0.3196  0.7416
  188MOL0     C25277  -2.367   8.928   3.543  0.4530  0.7764  1.2487
  188MOL0     C25278  -2.437   9.046   3.577  0.7670 -0.1139 -0.7231
  188MOL0     C25279  -2.580   9.047   3.582 -0.2625 -0.1140 -0.3708
  188MOL0     C25280  -2.652   8.926   3.559 -0.2044 -0.1732  0.4683
  188MOL0     O25281  -2.784   8.930   3.554  0.1342 -0.7032 -0.0355
  188MOL0     C25282  -2.830   8.960   3.688  0.3180  0.0652  0.1209
  188MOL0     C25283  -2.950   8.871   3.720  0.0378  0.1682  0.7843
  188MOL0     C25284  -3.053   8.848   3.599  0.1187  0.1085 -0.0639
  188MOL0     C25285  -3.127   8.966   3.552 -1.1048 -0.0146 -0.6611
  188MOL0     C25286  -3.212   8.948   3.427 -0.4649  0.3301 -0.3442
  188MOL0     C25287  -3.142   8.928   3.296 -0.6592 -0.9716  0.0565
  188MOL0     C25288  -3.232   8.894   3.176  0.6124 -0.8402  0.1230
  188MOL0     C25289  -3.332   9.002   3.128  0.3065 -0.7510  0.4808
  188MOL0    Cl25290  -3.466   8.941   3.035  0.1940 -0.4442 -0.2737
  188MOL0     C25291  -2.579   8.813   3.522  0.7884 -1.0731 -0.2296
  188MOL0     C25292  -2.439   8.815   3.513 -0.4151 -0.4692  0.0381
  188MOL0     O25293  -2.179   9.080   3.681  0.0296  0.5975  0.5864
  188MOL0     C25294  -1.906   9.043   3.674  0.1543  0.4559 -0.0457
  188MOL0     C25295  -1.768   9.021   3.667 -0.0298  0.7816 -0.6270
  188MOL0     N25296  -1.278   8.293   3.574 -0.3695 -0.4664  0.2584
  188MOL0     N25297  -1.165   8.233   3.569  0.4786 -0.7397 -0.6145
  188MOL0     C25298  -0.087   8.763   3.430 -1.0414  0.2658 -0.2448
  188MOL0     C25299   0.005   8.862   3.411 -0.2159  0.4141 -0.2912
  188MOL0     C25300   0.335   9.141   3.432 -0.3419  0.1664  0.5611
  188MOL0     C25301   0.366   9.228   3.526  1.2864 -0.6769 -0.0314
  188MOL0     C25302   0.437   9.341   3.491  0.3705 -0.4255 -0.4330
  188MOL0     C25303   0.457   9.377   3.358  0.5084 -0.2577  0.0871
  188MOL0     O25304   0.521   9.488   3.315  0.4882  0.1945 -0.3224
  188MOL0     C25305   0.519   9.599   3.399 -0.4272 -0.1181  0.1320
  188MOL0     C25306   0.574   9.715   3.333  0.2858 -0.1961 -0.1023
  188MOL0     C25307   0.570   9.842   3.434 -0.0756  0.2304  0.6062
  188MOL0     C25308   0.444   9.922   3.416 -0.1542 -0.1630 -0.9922
  188MOL0     C25309   0.473  10.054   3.480 -0.2303 -0.6104 -0.3772
  188MOL0     C25310   0.497  10.163   3.538 -0.1213  0.4138  0.1203
  188MOL0     C25311   0.399   9.293   3.248 -1.2555 -0.2761  0.5920
  188MOL0     C25312   0.348   9.175   3.289  0.1227 -0.0988 -1.4735
  188MOL0     H25313   0.273   8.685   3.314 -0.3539 -0.2323 -0.7747
  188MOL0     H25314   0.115   8.505   3.318  1.0260 -0.2782  0.2123
  188MOL0     H25315  -0.049   8.379   3.485  1.1586  0.1026 -0.7347
  188MOL0     H25316  -0.130   8.477   3.602  1.5950 -1.6313  0.1470
  188MOL0     H25317  -0.244   8.301   3.389  0.7612 -1.9137 -0.2312
  188MOL0     H25318  -0.227   8.249   3.557  1.1197 -0.0093 -1.1336
  188MOL0     H25319  -0.426   8.300   3.592  0.8750  1.9374  1.2878
  188MOL0     H25320  -0.389   8.477   3.590  2.7419  1.4863 -0.2044
  188MOL0     H25321  -0.428   8.486   3.349 -0.9582 -1.1876 -1.0544
  188MOL0     H25322  -0.473   8.311   3.348  0.1713  0.9177 -1.1604
  188MOL0     H25323  -0.619   8.536   3.483 -0.7828 -0.4488  1.2265
  188MOL0     H25324  -0.672   8.448   3.346 -4.4241 -1.0452  2.0144
  188MOL0     H25325  -0.689   8.242   3.486 -0.0349 -0.4976  1.8821
  188MOL0     H25326  -0.659   8.352   3.629 -1.6691 -0.7275  0.2686
  188MOL0     H25327  -0.845   8.494   3.576  2.2366  0.5818 -1.1495
  188MOL0     H25328  -0.883   8.399   3.434 -1.1444  0.9231  0.0186
  188MOL0     H25329  -0.882   8.287   3.704  2.3599 -0.7095 -1.9449
  188MOL0     H25330  -0.915   8.199   3.555  0.8653  1.4913 -2.4995
  188MOL0     H25331  -1.098   8.549   3.666 -1.1885 -0.1054  2.0527
  188MOL0     H25332  -1.487   8.479   3.632 -1.2856  3.4248  0.3299
  188MOL0     H25333  -1.375   8.566   3.726  0.2878 -0.8160  0.1560
  188MOL0     H25334  -1.391   8.588   3.416  1.4004  0.9575  0.4871
  188MOL0     H25335  -1.282   8.678   3.514  1.6779 -1.1971 -3.9388
  188MOL0     H25336  -1.501   8.744   3.657  3.8489  0.2653 -0.2105
  188MOL0     H25337  -1.587   8.685   3.518 -0.5564  0.4796  2.1447
  188MOL0     H25338  -1.506   8.865   3.391  1.1966  1.3782  0.2680
  188MOL0     H25339  -1.380   8.905   3.512  1.6014 -1.1161 -2.1698
  188MOL0     H25340  -1.756   8.790   3.427 -1.8857 -0.8383  0.4163
  188MOL0     H25341  -1.962   8.754   3.315 -0.0792  1.4206 -1.2847
  188MOL0     H25342  -2.067   8.717   3.457  1.9162 -0.8937 -0.3680
  188MOL0     H25343  -2.087   8.868   3.355  0.8817  2.1423  1.1860
  188MOL0     H25344  -2.376   9.135   3.587  0.0807  0.1665  1.3953
  188MOL0     H25345  -2.630   9.139   3.613 -0.2331 -0.6021  1.2277
  188MOL0     H25346  -2.750   8.943   3.760 -0.2048  2.8185  1.4971
  188MOL0     H25347  -2.842   9.068   3.700  4.5461  0.4281  3.5962
  188MOL0     H25348  -2.913   8.773   3.754 -0.7458  0.1834  1.7127
  188MOL0     H25349  -3.001   8.910   3.808 -0.6164 -0.2996  0.6245
  188MOL0     H25350  -3.134   8.782   3.631 -1.8058  2.4957  0.3455
  188MOL0     H25351  -3.010   8.804   3.509 -1.5624  1.4784 -1.6009
  188MOL0     H25352  -3.186   9.010   3.633 -2.0242  0.4999 -1.5888
  188MOL0     H25353  -3.052   9.041   3.525  3.3371 -2.7090  2.7308
  188MOL0     H25354  -3.272   9.038   3.416  1.7493  1.9647  0.2784
  188MOL0     H25355  -3.274   8.861   3.450 -2.3838  2.3764  2.9254
  188MOL0     H25356  -3.088   9.017   3.263  2.1116 -2.9581 -1.2166
  188MOL0     H25357  -3.067   8.852   3.318  1.2157  1.6399  3.6566
  188MOL0     H25358  -3.295   8.809   3.204 -2.0286  0.3948 -1.5690
  188MOL0     H25359  -3.168   8.857   3.096  0.6206 -3.0085  1.0559
  188MOL0     H25360  -3.280   9.082   3.075 -1.3381 -1.1905 -1.9271
  188MOL0     H25361  -3.378   9.047   3.217 -0.5098  0.4342 -0.4940
  188MOL0     H25362  -2.631   8.718   3.516  0.4166 -1.2403  3.1866
  188MOL0     H25363  -2.385   8.724   3.487 -2.7722 -1.3502 -2.2093
  188MOL0     H25364  -1.947   9.125   3.732 -0.1744 -0.3807  0.9245
  188MOL0     H25365  -1.693   9.084   3.714  0.3740  1.1205 -1.7027
  188MOL0     H25366  -0.185   8.789   3.471 -0.4095  1.1871  0.7427
  188MOL0     H25367  -0.024   8.962   3.443  1.5517  0.5772  0.8876
  188MOL0     H25368   0.351   9.211   3.633 -2.4109 -3.9745 -0.8193
  188MOL0     H25369   0.486   9.398   3.569  0.8604 -2.4223  0.8159
  188MOL0     H25370   0.415   9.619   3.427 -0.3479 -0.0576  0.3817
  188MOL0     H25371   0.575   9.582   3.491  0.8312 -1.8111 -0.8856
  188MOL0     H25372   0.517   9.747   3.246  1.7877  2.5050 -0.2039
  188MOL0     H25373   0.677   9.693   3.304  0.3484  1.2678 -1.1028
  188MOL0     H25374   0.659   9.902   3.415  1.9995 -2.3848  1.3811
  188MOL0     H25375   0.579   9.813   3.539  0.0240 -1.6015  0.1283
  188MOL0     H25376   0.370   9.862   3.470 -0.6058 -0.3255 -1.7708
  188MOL0     H25377   0.402   9.938   3.316 -1.4059 -2.5680 -0.9422
  188MOL0     H25378   0.534  10.246   3.595 -1.8849 -0.6796  3.1072
  188MOL0     H25379   0.403   9.316   3.142 -0.7714 -0.9227  0.4669
  188MOL0     H25380   0.323   9.104   3.211 -1.5509 -0.9687 -0.2090
  189MOL0     O25381   0.043   0.444   0.350  1.1177 -0.2682  0.1344
  189MOL0     C25382   0.040   0.490   0.228  0.3545  0.4927  0.7350
  189MOL0     O25383   0.134   0.576   0.168 -0.1619 -0.1924 -0.2962
  189MOL0     C25384   0.212   0.638   0.268  0.0370 -0.0674  0.0342
  189MOL0     C25385   0.337   0.588   0.295  0.3675  0.1438  0.1895
  189MOL0     C25386   0.430   0.669   0.364  0.0443 -0.0629 -0.6141
  189MOL0     C25387   0.398   0.785   0.423 -0.1574 -0.3276 -0.6526
  189MOL0     O25388   0.498   0.864   0.468 -0.0198 -1.1426  0.1494
  189MOL0     C25389   0.471   0.946   0.585  0.5168  0.7726 -0.2555
  189MOL0     C25390   0.603   1.004   0.641 -0.5357  0.5334 -0.7314
  189MOL0     C25391   0.610   1.154   0.627 -0.2731 -0.3143 -0.8308
  189MOL0     C25392   0.732   1.199   0.697  0.4770 -0.6625  0.0734
  189MOL0     C25393   0.786   1.327   0.636 -0.0954 -0.3122 -0.1687
  189MOL0     C25394   0.888   1.387   0.742  0.0921  0.7182 -0.0500
  189MOL0     C25395   0.975   1.508   0.691  0.8328  0.5887  0.2616
  189MOL0     C25396   0.885   1.625   0.645  0.1143 -0.0883 -0.0358
  189MOL0     N25397   0.857   1.708   0.765  0.0778 -0.9869 -0.2605
  189MOL0     C25398   0.761   1.808   0.772  0.3798 -0.5510 -0.2637
  189MOL0     C25399   0.768   1.861   0.909 -0.8723 -0.1485  0.4175
  189MOL0     C25400   0.697   1.966   0.986  0.7732  0.5567 -0.8227
  189MOL0     C25401   0.640   2.068   0.888  0.9488  0.1402  0.2298
  189MOL0     C25402   0.597   2.200   0.956  0.3954 -0.3557  0.3207
  189MOL0     C25403   0.513   2.290   0.857 -0.3510 -0.1667 -0.0446
  189MOL0     O25404   0.443   2.392   0.935  0.8254 -0.1753  0.4498
  189MOL0     C25405   0.335   2.358   1.010  0.8307 -0.4597 -0.3506
  189MOL0     C25406   0.337   2.373   1.148  1.1606 -0.5686  0.2243
  189MOL0     C25407   0.205   2.360   1.215  0.6674 -0.1156  0.6970
  189MOL0     C25408   0.200   2.384   1.365 -0.8936  0.5165 -0.2690
  189MOL0     C25409   0.094   2.312   1.140  0.6669 -0.6975  0.5832
  189MOL0     C25410  -0.043   2.277   1.201 -0.9526 -0.7677  0.3918
  189MOL0     O25411  -0.123   2.188   1.135  0.4123  0.1069 -0.2617
  189MOL0     C25412  -0.264   2.213   1.138  0.0503 -0.8373 -1.3798
  189MOL0     C25413  -0.344   2.100   1.127 -0.1619 -0.2951  0.2288
  189MOL0     C25414  -0.489   2.117   1.138  0.4634  0.1180 -0.6119
  189MOL0     C25415  -0.550   2.244   1.143  0.2172  0.2801  0.6707
  189MOL0     O25416  -0.681   2.257   1.139  0.1584  0.1452  0.2567
  189MOL0     C25417  -0.736   2.334   1.027  0.5515 -0.6474  0.4579
  189MOL0     C25418  -0.889   2.327   1.037  0.4568 -0.2897  0.4098
  189MOL0     C25419  -0.967   2.394   0.931  0.5666  0.5340 -0.5455
  189MOL0     C25420  -1.111   2.390   0.973  0.0820  0.3635 -0.3153
  189MOL0     C25421  -1.187   2.472   0.875 -0.5668  0.1292  0.2660
  189MOL0     C25422  -1.327   2.468   0.915  0.7678 -0.1780  0.0848
  189MOL0     C25423  -1.429   2.531   0.813  0.0100 -0.1022  0.5786
  189MOL0     C25424  -1.564   2.571   0.880 -0.6876  0.8410  0.8153
  189MOL0    Cl25425  -1.658   2.426   0.932  0.3134  0.1451  0.5954
  189MOL0     C25426  -0.465   2.355   1.151  0.1735  0.0239 -0.5030
  189MOL0     C25427  -0.326   2.343   1.158  1.0591  0.6251  0.2551
  189MOL0     O25428  -0.074   2.336   1.306  0.0397 -0.5722 -0.2237
  189MOL0     C25429   0.104   2.283   1.004  0.6602  0.2807  0.0504
  189MOL0     C25430   0.226   2.304   0.936 -0.9775 -0.0403 -1.0940
  189MOL0     N25431   0.865   1.792   0.968 -0.1023  0.5736  0.2591
  189MOL0     N25432   0.911   1.701   0.896 -0.1262 -0.4654  0.2347
  189MOL0     C25433   0.263   0.813   0.425  0.2372  0.6164 -0.7876
  189MOL0     C25434   0.164   0.746   0.343  0.8831  0.9472  0.0986
  189MOL0     C25435  -0.075   0.444   0.153  0.4264 -0.2740  0.7002
  189MOL0     C25436  -0.187   0.386   0.221  0.3260 -0.0953 -0.9783
  189MOL0     C25437  -0.297   0.335   0.155  1.0956 -0.1804  0.7303
  189MOL0     C25438  -0.295   0.339   0.023 -0.9905  0.7769  0.0056
  189MOL0     O25439  -0.395   0.257  -0.042 -0.5114 -0.0347  0.9118
  189MOL0     C25440  -0.421   0.292  -0.180  0.3358  0.1849  0.3788
  189MOL0     C25441  -0.565   0.241  -0.231 -0.0914 -0.3137  0.3278
  189MOL0     C25442  -0.570   0.091  -0.253 -0.4437 -0.2742 -0.7734
  189MOL0     C25443  -0.508   0.050  -0.387 -0.2067  0.2207 -0.0746
  189MOL0     C25444  -0.534  -0.088  -0.431 -0.7241 -0.7782 -0.2467
  189MOL0     C25445  -0.572  -0.189  -0.472 -0.1615  0.3411 -0.0634
  189MOL0     C25446  -0.189   0.398  -0.047  0.5146  1.0422  0.1939
  189MOL0     C25447  -0.086   0.453   0.014 -0.3020 -0.7985 -1.2130
  189MOL0     H25448   0.369   0.492   0.255 -1.0100 -0.4265  0.3773
  189MOL0     H25449   0.535   0.639   0.364  0.2619  0.6779 -0.0564
  189MOL0     H25450   0.394   1.021   0.563 -0.2583  0.9705  2.6621
  189MOL0     H25451   0.436   0.883   0.668  2.0256  0.1611 -0.0622
  189MOL0     H25452   0.597   0.970   0.745 -0.3266 -1.8016 -1.4154
  189MOL0     H25453   0.686   0.947   0.597  0.6099  0.4453  1.4115
  189MOL0     H25454   0.606   1.174   0.519 -1.5746 -2.8047 -1.3142
  189MOL0     H25455   0.521   1.196   0.674  1.0669 -0.0176  1.6168
  189MOL0     H25456   0.707   1.229   0.799  2.0110  3.4405 -0.5653
  189MOL0     H25457   0.814   1.126   0.696  0.9434 -0.1458 -1.1264
  189MOL0     H25458   0.841   1.301   0.545  1.7448 -0.6885  1.0069
  189MOL0     H25459   0.711   1.405   0.616 -0.2485 -0.2859  0.4814
  189MOL0     H25460   0.824   1.417   0.826 -0.3871 -1.9324  0.5944
  189MOL0     H25461   0.957   1.310   0.776  0.6001  0.8453 -0.7564
  189MOL0     H25462   1.055   1.537   0.759 -2.2649  2.4561  3.4304
  189MOL0     H25463   1.022   1.461   0.604  1.3094  0.0821  0.7880
  189MOL0     H25464   0.786   1.595   0.608 -0.2691 -0.2309  1.0468
  189MOL0     H25465   0.936   1.677   0.564  4.2214 -2.4698  0.7423
  189MOL0     H25466   0.695   1.843   0.693 -2.3132  4.0065  3.4942
  189MOL0     H25467   0.625   1.922   1.056  3.3643 -0.5892  1.3046
  189MOL0     H25468   0.769   2.015   1.052  1.3533 -1.3309  0.0339
  189MOL0     H25469   0.559   2.016   0.835  1.3202 -0.7690  0.5245
  189MOL0     H25470   0.711   2.086   0.807 -1.7734  1.4010 -2.0386
  189MOL0     H25471   0.688   2.258   0.972  1.6271 -1.0196 -3.2657
  189MOL0     H25472   0.537   2.191   1.047  0.0932  1.5108  0.3420
  189MOL0     H25473   0.448   2.224   0.799 -0.6561  1.2426 -1.3616
  189MOL0     H25474   0.578   2.342   0.786 -0.8211  0.3526 -0.0964
  189MOL0     H25475   0.427   2.406   1.200  1.3204  2.0163 -1.4984
  189MOL0     H25476   0.198   2.292   1.424  0.4571 -1.2084 -2.7343
  189MOL0     H25477   0.295   2.431   1.392  0.1998  0.1696 -3.1657
  189MOL0     H25478   0.124   2.454   1.402  1.7082  2.9461  0.8933
  189MOL0     H25479  -0.300   2.001   1.123  4.2615  1.4386  0.7791
  189MOL0     H25480  -0.556   2.032   1.132 -1.4234  1.5333 -0.4387
  189MOL0     H25481  -0.696   2.435   1.019  0.6356 -0.6880  0.3555
  189MOL0     H25482  -0.708   2.279   0.936  0.5840  0.4515 -0.2215
  189MOL0     H25483  -0.907   2.219   1.041  0.6748 -0.4377 -1.5378
  189MOL0     H25484  -0.920   2.360   1.137 -1.3308  2.8459 -1.0262
  189MOL0     H25485  -0.959   2.353   0.830  1.9859  0.2655 -0.3555
  189MOL0     H25486  -0.941   2.500   0.920 -0.7220  0.9925  0.5451
  189MOL0     H25487  -1.133   2.284   0.983  0.8644  0.2838  0.7276
  189MOL0     H25488  -1.120   2.431   1.074 -0.7280 -1.9763  0.6260
  189MOL0     H25489  -1.185   2.442   0.770 -0.4305  1.7625 -0.2324
  189MOL0     H25490  -1.154   2.576   0.873 -0.5430  0.1588  1.5525
  189MOL0     H25491  -1.359   2.365   0.933 -2.2558  0.7214  0.4578
  189MOL0     H25492  -1.337   2.518   1.012 -4.2978 -1.8110  0.6937
  189MOL0     H25493  -1.458   2.457   0.738 -1.7301  0.9853  0.1294
  189MOL0     H25494  -1.378   2.609   0.757  1.1308 -0.6013  0.8814
  189MOL0     H25495  -1.632   2.621   0.810 -1.5806 -1.2093  0.1287
  189MOL0     H25496  -1.553   2.635   0.969 -3.5279 -0.2511  2.0946
  189MOL0     H25497  -0.507   2.455   1.139 -2.2027 -1.1589 -3.0747
  189MOL0     H25498  -0.269   2.432   1.185 -0.5429  1.1982  1.9459
  189MOL0     H25499   0.029   2.246   0.935  0.7038  2.4122 -1.1957
  189MOL0     H25500   0.240   2.282   0.831 -2.1178 -0.0323 -1.2615
  189MOL0     H25501   0.219   0.900   0.472 -0.0506 -1.3027  2.8286
  189MOL0     H25502   0.070   0.797   0.328  0.0203 -0.3705  0.9406
  189MOL0     H25503  -0.174   0.395   0.329  2.2002  1.1528 -1.2621
  189MOL0     H25504  -0.382   0.291   0.207 -1.2952  4.6195  1.4458
  189MOL0     H25505  -0.425   0.401  -0.179 -1.5387  0.1367  0.0958
  189MOL0     H25506  -0.335   0.254  -0.237  0.8729  1.6067  0.1917
  189MOL0     H25507  -0.578   0.292  -0.327 -4.8217  0.7386  1.2879
  189MOL0     H25508  -0.645   0.274  -0.165  0.2557 -2.4733  1.9065
  189MOL0     H25509  -0.673   0.059  -0.266 -0.6607  0.1540 -0.1749
  189MOL0     H25510  -0.536   0.044  -0.160  0.4799  4.5127  1.6625
  189MOL0     H25511  -0.402   0.062  -0.363 -0.6124  0.5073  1.7019
  189MOL0     H25512  -0.535   0.121  -0.467 -2.5830 -0.5016  0.0318
  189MOL0     H25513  -0.603  -0.282  -0.516  0.7582  0.4779 -1.0448
  189MOL0     H25514  -0.177   0.382  -0.153  4.7606  2.9542  0.1815
  189MOL0     H25515  -0.005   0.512  -0.029 -0.5289  2.3463  2.1690
  190MOL0     O25516   1.918   0.410   4.009 -0.3514 -0.0473 -0.7252
  190MOL0     C25517   1.982   0.503   3.952  0.1438 -0.4161 -0.1824
  190MOL0     O25518   1.931   0.617   3.904  0.2535 -0.5820 -0.3986
  190MOL0     C25519   1.799   0.634   3.883 -0.1833  0.8669  0.2272
  190MOL0     C25520   1.743   0.758   3.874  0.0696  0.3175  0.9352
  190MOL0     C25521   1.612   0.776   3.841  0.7413  0.5799 -0.3257
  190MOL0     C25522   1.518   0.678   3.813  0.2540  0.7324 -0.7358
  190MOL0     O25523   1.383   0.686   3.783  0.0472  0.0699 -0.0844
  190MOL0     C25524   1.322   0.823   3.804 -0.3579 -0.6417 -0.1648
  190MOL0     C25525   1.171   0.810   3.783  0.5721 -0.7924 -0.0048
  190MOL0     C25526   1.094   0.912   3.875 -0.0833  0.0756 -0.0895
  190MOL0     C25527   1.090   0.877   4.022  0.2081  0.2706 -0.4023
  190MOL0     C25528   1.011   0.980   4.100 -0.5232 -0.4426  0.0948
  190MOL0     C25529   0.961   0.948   4.229  0.0283 -0.8452  0.4929
  190MOL0     C25530   0.932   1.082   4.308  0.1134  0.3307  0.6452
  190MOL0     C25531   0.942   1.075   4.451  0.3624  1.2061 -0.1056
  190MOL0     N25532   0.863   1.171   4.521 -0.1043 -0.3729  1.3042
  190MOL0     C25533   0.908   1.262   4.608  0.2868  0.4065 -0.9171
  190MOL0     C25534   0.804   1.325   4.659  0.3811 -0.0062  0.4980
  190MOL0     C25535   0.803   1.442   4.759 -0.2102 -0.7509 -0.0619
  190MOL0     C25536   0.911   1.429   4.874 -0.1158  0.4106  0.7527
  190MOL0     C25537   0.913   1.291   4.945  0.6320 -0.2820  0.4361
  190MOL0     C25538   1.045   1.241   4.992 -0.8977  1.1202  0.7567
  190MOL0     O25539   1.082   1.330   5.095 -0.7170  0.5299 -0.0967
  190MOL0     C25540   1.173   1.281   5.190 -0.1095  0.7923 -0.0623
  190MOL0     C25541   1.222   1.367   5.286  0.2251  0.4394  0.5962
  190MOL0     C25542   1.298   1.322   5.395 -0.2870  0.1015  0.2058
  190MOL0     C25543   1.348   1.413   5.494  0.5356 -1.0399 -0.5802
  190MOL0     C25544   1.328   1.188   5.398  0.2965  0.0304 -0.7169
  190MOL0     C25545   1.398   1.122   5.505  0.3594 -0.1116 -0.3229
  190MOL0     O25546   1.526   1.106   5.476  0.8270 -0.1913 -0.9369
  190MOL0     C25547   1.609   1.040   5.556  0.1815  0.4806 -0.4369
  190MOL0     C25548   1.617   1.076   5.694  0.6786  0.5107 -0.7611
  190MOL0     C25549   1.706   1.010   5.783  0.7023  0.6826  0.2608
  190MOL0     C25550   1.798   0.923   5.737 -0.2728  0.0660  0.4154
  190MOL0     O25551   1.897   0.868   5.800 -0.8901  1.2607  0.4120
  190MOL0     C25552   1.955   0.935   5.910 -0.0460 -0.2184 -0.2204
  190MOL0     C25553   2.039   0.834   5.977 -0.6979  0.8519  0.2712
  190MOL0     C25554   2.150   0.896   6.075  0.5742  0.4310  1.4281
  190MOL0     C25555   2.093   0.974   6.187  0.2859  0.7736  0.5373
  190MOL0     C25556   2.199   1.022   6.271 -0.7215 -0.0001 -0.1143
  190MOL0     C25557   2.155   1.113   6.388  0.0598  0.1091  0.3250
  190MOL0     C25558   2.249   1.092   6.512 -0.0812 -0.1124 -0.6147
  190MOL0     C25559   2.290   1.219   6.578 -0.5697  0.3288  0.2037
  190MOL0    Cl25560   2.145   1.310   6.640  0.1476 -0.2385 -0.1572
  190MOL0     C25561   1.805   0.898   5.595 -0.2464 -0.0367 -0.4733
  190MOL0     C25562   1.710   0.950   5.507  0.9228  0.0047  0.3895
  190MOL0     O25563   1.337   1.069   5.595  0.6074 -0.2183  0.2962
  190MOL0     C25564   1.291   1.103   5.296  0.2044  0.2384 -0.3798
  190MOL0     C25565   1.203   1.145   5.199  0.4017 -0.1571  0.4477
  190MOL0     N25566   0.689   1.285   4.590 -0.2187  0.2306 -0.4848
  190MOL0     N25567   0.732   1.202   4.504  0.0756  0.7209  0.2259
  190MOL0     C25568   1.569   0.549   3.823 -1.0187  0.4828  0.5080
  190MOL0     C25569   1.704   0.524   3.865  0.6330  0.0885 -0.0830
  190MOL0     C25570   2.128   0.497   3.965  0.1127 -0.9208  0.2695
  190MOL0     C25571   2.191   0.389   4.033  0.0059  0.0499  0.1292
  190MOL0     C25572   2.333   0.388   4.050  0.0575  1.1968 -0.1443
  190MOL0     C25573   2.410   0.494   4.000  0.4577  0.0101 -0.1680
  190MOL0     O25574   2.545   0.500   4.004 -0.3029  0.2765  0.4403
  190MOL0     C25575   2.628   0.445   4.106  0.5980  0.2358  0.2244
  190MOL0     C25576   2.660   0.530   4.221  0.0115  0.6036  0.1202
  190MOL0     C25577   2.699   0.437   4.340  0.4333 -0.0300 -0.7961
  190MOL0     C25578   2.826   0.345   4.316 -0.8846 -0.6791 -0.0961
  190MOL0     C25579   2.945   0.428   4.284  0.2142  0.3595  0.3716
  190MOL0     C25580   3.040   0.498   4.282 -0.1447 -0.2511  0.0734
  190MOL0     C25581   2.349   0.600   3.938 -0.2527 -0.6639 -0.3252
  190MOL0     C25582   2.215   0.604   3.923  0.2654  0.4028 -0.8326
  190MOL0     H25583   1.798   0.850   3.892  1.2485 -0.1997  0.1664
  190MOL0     H25584   1.577   0.879   3.839 -2.9704 -0.2120  4.5299
  190MOL0     H25585   1.362   0.855   3.901  4.0811  1.0600 -2.2834
  190MOL0     H25586   1.349   0.900   3.732 -0.9552 -0.2608  0.0140
  190MOL0     H25587   1.151   0.832   3.678 -0.9099 -1.1782  0.1673
  190MOL0     H25588   1.133   0.712   3.814 -0.0093 -0.0286  1.8426
  190MOL0     H25589   1.155   1.003   3.868  3.0403 -1.3032  4.5272
  190MOL0     H25590   0.989   0.915   3.843 -0.6057 -1.8591  1.2810
  190MOL0     H25591   1.045   0.778   4.032  0.4285 -0.2628 -3.6490
  190MOL0     H25592   1.188   0.866   4.069 -1.2189 -1.4106  2.5018
  190MOL0     H25593   1.076   1.068   4.101 -0.1937 -0.3871 -4.7061
  190MOL0     H25594   0.928   1.006   4.034  0.4097  2.6405 -0.0035
  190MOL0     H25595   0.871   0.886   4.239  1.1306 -2.8357 -1.3242
  190MOL0     H25596   1.042   0.896   4.281  0.5534 -1.5648 -0.9851
  190MOL0     H25597   0.986   1.169   4.270 -0.3668  0.1139 -0.5808
  190MOL0     H25598   0.829   1.109   4.281  0.3193 -0.6135 -1.2505
  190MOL0     H25599   1.042   1.077   4.496  0.2113  1.8373  0.2226
  190MOL0     H25600   0.904   0.980   4.489  0.2101  1.8798  1.5047
  190MOL0     H25601   1.009   1.271   4.647 -1.0660  0.9035  2.8294
  190MOL0     H25602   0.807   1.541   4.712  1.3737 -0.3693  0.7955
  190MOL0     H25603   0.706   1.439   4.810 -0.0865 -0.6535  0.1805
  190MOL0     H25604   0.903   1.510   4.947 -3.0737  1.3248 -0.4250
  190MOL0     H25605   1.004   1.430   4.818 -0.7492 -1.2002 -0.4134
  190MOL0     H25606   0.870   1.214   4.879 -0.2941  0.6354 -0.0631
  190MOL0     H25607   0.840   1.279   5.026  0.1456 -1.5659 -0.1455
  190MOL0     H25608   1.115   1.223   4.909 -1.3139 -2.3257  1.0050
  190MOL0     H25609   1.026   1.143   5.035  1.1371  1.5556  2.8515
  190MOL0     H25610   1.203   1.473   5.273  1.3006  0.4297 -1.4800
  190MOL0     H25611   1.268   1.483   5.520  0.1695 -1.7617  0.3062
  190MOL0     H25612   1.369   1.356   5.585 -1.7230 -0.9396  0.0709
  190MOL0     H25613   1.432   1.477   5.466  1.8490 -2.1999  0.5039
  190MOL0     H25614   1.542   1.148   5.728 -1.9159 -2.1083 -0.5219
  190MOL0     H25615   1.699   1.046   5.884  1.4920  0.7294  0.3014
  190MOL0     H25616   2.030   1.006   5.875  0.5403 -1.7465 -2.3548
  190MOL0     H25617   1.882   0.988   5.970  1.3450 -0.9442  2.2629
  190MOL0     H25618   1.978   0.763   6.033 -2.7918  2.6981  0.5004
  190MOL0     H25619   2.099   0.793   5.896 -1.5598  1.0065 -0.4722
  190MOL0     H25620   2.216   0.954   6.010 -0.2734 -0.3321 -0.1884
  190MOL0     H25621   2.206   0.811   6.116  1.4724 -0.5048 -1.4333
  190MOL0     H25622   2.027   1.053   6.151  1.0464  0.0777 -2.6503
  190MOL0     H25623   2.037   0.905   6.251 -1.3261 -0.0529 -1.6515
  190MOL0     H25624   2.269   1.082   6.211  0.3851 -2.4211 -1.4159
  190MOL0     H25625   2.269   0.947   6.309  1.1827  1.4612 -0.5801
  190MOL0     H25626   2.162   1.216   6.354  1.0810 -0.5236 -1.5063
  190MOL0     H25627   2.051   1.098   6.419  0.4632  0.7376  2.0819
  190MOL0     H25628   2.337   1.033   6.484 -0.3586  0.0580 -1.8956
  190MOL0     H25629   2.197   1.029   6.585  0.4118  0.7638  0.5128
  190MOL0     H25630   2.348   1.276   6.506 -0.9876 -2.2996 -2.4110
  190MOL0     H25631   2.346   1.186   6.667  2.3075 -2.2692 -2.3376
  190MOL0     H25632   1.886   0.835   5.561  2.5443  2.5249  0.8964
  190MOL0     H25633   1.713   0.930   5.401  2.3913  1.7931  0.0322
  190MOL0     H25634   1.335   1.004   5.295  1.5171  0.7826 -1.7093
  190MOL0     H25635   1.181   1.061   5.134 -1.2371 -2.3143  3.5261
  190MOL0     H25636   1.513   0.460   3.798  0.3977  0.0545 -1.3329
  190MOL0     H25637   1.734   0.421   3.847  2.0469  0.6348 -0.9581
  190MOL0     H25638   2.146   0.298   4.069  0.0797 -1.1007 -2.4411
  190MOL0     H25639   2.387   0.303   4.092 -2.0214 -0.3593 -0.4277
  190MOL0     H25640   2.577   0.356   4.144  2.4246  0.1128  2.6516
  190MOL0     H25641   2.728   0.430   4.065  0.4747  1.3394 -0.5401
  190MOL0     H25642   2.569   0.585   4.250 -0.7510 -0.6316  0.1283
  190MOL0     H25643   2.744   0.597   4.200  0.2063  1.0058  2.0096
  190MOL0     H25644   2.617   0.367   4.360  1.2416 -0.4826  1.2400
  190MOL0     H25645   2.706   0.507   4.425  0.9357 -0.3827 -0.5362
  190MOL0     H25646   2.807   0.278   4.232 -1.5452 -1.0721  0.3562
  190MOL0     H25647   2.836   0.287   4.408 -2.1649 -2.1761 -0.8584
  190MOL0     H25648   3.119   0.568   4.265  2.3180 -2.2189  2.5575
  190MOL0     H25649   2.408   0.680   3.896 -0.7862  1.7208  3.0843
  190MOL0     H25650   2.182   0.695   3.874 -0.0253 -0.2368 -1.8469
  191MOL0     O25651   2.760   8.739   9.188 -0.2930 -0.0060 -0.3939
  191MOL0     C25652   2.647   8.788   9.158 -0.5252  0.4696  0.1360
  191MOL0     O25653   2.530   8.767   9.230 -0.3312  0.1901 -0.6406
  191MOL0     C25654   2.516   8.695   9.341 -0.1066  0.2515  0.6022
  191MOL0     C25655   2.546   8.743   9.471  0.2497 -0.9313  0.5968
  191MOL0     C25656   2.519   8.662   9.579 -0.2281 -0.7288 -0.1139
  191MOL0     C25657   2.452   8.536   9.563 -0.3002 -0.4006  0.4944
  191MOL0     O25658   2.411   8.464   9.667  0.1372  0.4469 -0.4060
  191MOL0     C25659   2.404   8.324   9.657  0.0157  1.0884  0.6822
  191MOL0     C25660   2.401   8.262   9.793 -0.0101 -1.1571  0.1652
  191MOL0     C25661   2.266   8.299   9.864 -0.4773 -0.1699 -0.2116
  191MOL0     C25662   2.145   8.225   9.802  0.1600 -0.2252 -0.3347
  191MOL0     C25663   2.011   8.248   9.884 -0.0745 -0.9100 -0.6131
  191MOL0     C25664   1.887   8.195   9.830  0.1709 -0.5352 -0.7991
  191MOL0     C25665   1.759   8.227   9.910 -0.5341 -0.8082 -0.4321
  191MOL0     C25666   1.746   8.377   9.931  0.2455  0.6915 -0.7478
  191MOL0     N25667   1.605   8.402   9.968 -0.2594  0.3420 -0.0153
  191MOL0     C25668   1.541   8.379  10.090 -0.0904 -0.0635 -0.5976
  191MOL0     C25669   1.410   8.404  10.074 -0.2636  0.2348  0.5127
  191MOL0     C25670   1.300   8.402  10.181  0.6227  0.3599 -0.2525
  191MOL0     C25671   1.304   8.258  10.241 -0.2879 -0.2527 -1.0784
  191MOL0     C25672   1.223   8.251  10.370  0.1367  0.1632  0.0889
  191MOL0     C25673   1.071   8.238  10.344  0.2311  0.1788  0.3521
  191MOL0     O25674   1.041   8.092  10.338  0.3272 -1.0467  0.5642
  191MOL0     C25675   0.972   8.053  10.223 -0.8134  0.2919  0.9189
  191MOL0     C25676   1.037   8.008  10.106  0.2606  1.1142  0.2288
  191MOL0     C25677   0.962   7.948  10.007 -0.8661  0.8213  0.1789
  191MOL0     C25678   1.039   7.914   9.878  0.2713 -0.1327 -0.8788
  191MOL0     C25679   0.823   7.951  10.021  0.4429  0.5974  0.7415
  191MOL0     C25680   0.737   7.894   9.905 -0.1800  0.3909 -0.8167
  191MOL0     O25681   0.605   7.943   9.890 -0.2476 -0.0044 -0.3049
  191MOL0     C25682   0.512   7.858   9.830 -1.1071  0.4411 -0.0557
  191MOL0     C25683   0.450   7.761   9.895 -0.3053 -0.1275 -0.0368
  191MOL0     C25684   0.356   7.677   9.825 -0.5742 -0.4431  0.5092
  191MOL0     C25685   0.325   7.705   9.694 -0.0996  0.1400 -0.6185
  191MOL0     O25686   0.246   7.615   9.630  0.0246  0.7667  0.2458
  191MOL0     C25687   0.222   7.616   9.493 -1.2279  0.1082 -0.1467
  191MOL0     C25688   0.115   7.714   9.450 -0.2312 -0.1758  0.4983
  191MOL0     C25689  -0.035   7.691   9.500 -0.0373  0.7205 -0.2470
  191MOL0     C25690  -0.068   7.543   9.534 -0.9334 -0.0191  0.2830
  191MOL0     C25691  -0.211   7.525   9.560  0.9056  0.2183  0.0051
  191MOL0     C25692  -0.263   7.575   9.694  0.0433  0.3368  0.2117
  191MOL0     C25693  -0.412   7.526   9.714  0.2035 -0.6337 -0.0845
  191MOL0     C25694  -0.510   7.608   9.635 -0.2643  0.0586 -0.3772
  191MOL0    Cl25695  -0.672   7.612   9.726 -0.1999  0.3086 -0.4002
  191MOL0     C25696   0.396   7.798   9.628  0.3761  0.0697  0.4035
  191MOL0     C25697   0.489   7.881   9.700 -0.8630 -0.2797  0.7033
  191MOL0     O25698   0.787   7.799   9.844  0.0434  0.9088 -0.1257
  191MOL0     C25699   0.760   8.002  10.142  0.7233  0.3746 -0.1155
  191MOL0     C25700   0.833   8.057  10.242  0.1225  0.4730  0.1395
  191MOL0     N25701   1.397   8.443   9.940  0.0848 -0.2165  0.0779
  191MOL0     N25702   1.512   8.424   9.872 -0.4433  0.0363 -0.5383
  191MOL0     C25703   2.417   8.499   9.434  0.7107 -0.0438 -0.2689
  191MOL0     C25704   2.457   8.575   9.321  0.1086  0.2408 -0.4285
  191MOL0     C25705   2.639   8.863   9.020  0.4301  0.4351 -0.2641
  191MOL0     C25706   2.720   8.837   8.908 -0.2632 -0.0284  0.6989
  191MOL0     C25707   2.709   8.907   8.786  0.3072 -0.5665  0.4411
  191MOL0     C25708   2.610   9.005   8.765  0.3204  0.3323  0.4206
  191MOL0     O25709   2.622   9.071   8.651 -0.3072 -0.3454  0.4406
  191MOL0     C25710   2.505   9.160   8.624  0.4706  0.2011 -0.9436
  191MOL0     C25711   2.514   9.213   8.473 -0.1401  0.2615  0.3566
  191MOL0     C25712   2.425   9.313   8.417  0.2449  0.5380 -0.2500
  191MOL0     C25713   2.438   9.446   8.501 -0.4155  0.0759  0.6101
  191MOL0     C25714   2.570   9.514   8.491 -0.1844 -0.1065  0.7457
  191MOL0     C25715   2.681   9.572   8.475 -0.1986  0.4531  0.1295
  191MOL0     C25716   2.520   9.029   8.877 -0.4431  0.1076  0.6558
  191MOL0     C25717   2.540   8.962   8.994 -0.3483  0.3638 -0.5418
  191MOL0     H25718   2.610   8.828   9.491  0.8491 -1.0868 -0.5514
  191MOL0     H25719   2.533   8.698   9.680 -1.3364 -0.8603  0.0877
  191MOL0     H25720   2.318   8.293   9.597 -2.6227 -1.6152  5.2784
  191MOL0     H25721   2.480   8.272   9.598 -0.3922  2.1918 -0.9011
  191MOL0     H25722   2.414   8.153   9.787 -1.6419 -1.3946  0.6278
  191MOL0     H25723   2.485   8.306   9.849  1.3601  1.5623 -3.6469
  191MOL0     H25724   2.267   8.273   9.971 -0.8823 -2.8257 -0.7858
  191MOL0     H25725   2.251   8.407   9.856 -0.3939 -0.1335  0.1097
  191MOL0     H25726   2.132   8.268   9.702  2.3981  0.8710 -0.2086
  191MOL0     H25727   2.168   8.118   9.799  0.3130 -0.2312  0.7292
  191MOL0     H25728   2.029   8.199   9.979  2.4176 -0.0249 -0.5540
  191MOL0     H25729   2.004   8.354   9.910  1.6049 -0.9371  0.1067
  191MOL0     H25730   1.874   8.247   9.735 -0.0366  2.6427  0.8364
  191MOL0     H25731   1.888   8.086   9.822 -0.7763 -0.4596 -2.4490
  191MOL0     H25732   1.681   8.189   9.844  0.7832 -1.8516 -1.4489
  191MOL0     H25733   1.758   8.175  10.006  4.1089 -0.0585  0.2712
  191MOL0     H25734   1.767   8.428   9.836  0.4768  0.5979 -0.7466
  191MOL0     H25735   1.812   8.415  10.009  0.2247 -0.6047 -0.0741
  191MOL0     H25736   1.601   8.363  10.180 -3.6813 -0.4570  1.9577
  191MOL0     H25737   1.313   8.489  10.246  0.3883 -0.1611  0.5089
  191MOL0     H25738   1.201   8.422  10.138  0.9780  0.9875 -0.8049
  191MOL0     H25739   1.412   8.239  10.244  0.0245  1.2949 -1.8114
  191MOL0     H25740   1.264   8.182  10.173 -0.6649  0.2415 -1.4140
  191MOL0     H25741   1.239   8.335  10.438  0.6046  1.4684 -1.5634
  191MOL0     H25742   1.247   8.158  10.422 -0.8053 -0.9011 -1.2977
  191MOL0     H25743   1.041   8.297  10.257  0.9370  0.7028  0.4558
  191MOL0     H25744   1.029   8.291  10.430  3.2545  2.8922  0.3234
  191MOL0     H25745   1.146   8.008  10.098  0.1259  1.9677 -3.0453
  191MOL0     H25746   0.990   7.949   9.787  2.6436 -1.4639 -2.7662
  191MOL0     H25747   1.132   7.970   9.868 -0.6795  1.3987 -1.5088
  191MOL0     H25748   1.056   7.806   9.871  2.5410  0.2120 -1.5830
  191MOL0     H25749   0.488   7.741   9.995  3.3283 -4.1765 -1.9106
  191MOL0     H25750   0.324   7.589   9.880  1.5631  0.2768  3.1080
  191MOL0     H25751   0.315   7.636   9.439  1.9335  0.4170  4.7771
  191MOL0     H25752   0.187   7.514   9.473 -0.9860  0.1237 -0.6717
  191MOL0     H25753   0.134   7.819   9.477 -0.6922 -0.3951  1.7335
  191MOL0     H25754   0.113   7.700   9.341  1.2641 -0.5775  0.5061
  191MOL0     H25755  -0.099   7.725   9.417  1.4780 -2.4919 -2.9404
  191MOL0     H25756  -0.045   7.750   9.592  2.4996 -0.9638  1.2047
  191MOL0     H25757  -0.040   7.472   9.455 -1.6244  0.2014 -0.1703
  191MOL0     H25758  -0.006   7.512   9.618  2.6045  1.7552 -1.4255
  191MOL0     H25759  -0.243   7.422   9.546 -2.0422  1.0158  0.2805
  191MOL0     H25760  -0.262   7.581   9.482  1.2197  0.4557 -0.0333
  191MOL0     H25761  -0.197   7.531   9.769 -0.0831  1.5377  1.0573
  191MOL0     H25762  -0.257   7.683   9.707  0.4784  0.5317 -1.3691
  191MOL0     H25763  -0.438   7.547   9.818 -1.1399  0.2078 -0.5648
  191MOL0     H25764  -0.417   7.419   9.695 -0.1479 -0.6700  0.2122
  191MOL0     H25765  -0.519   7.563   9.535  0.2255  1.4416 -1.0599
  191MOL0     H25766  -0.475   7.710   9.618 -0.6881  0.1067 -1.0134
  191MOL0     H25767   0.383   7.809   9.521 -1.2337 -0.3052  0.5232
  191MOL0     H25768   0.555   7.956   9.658 -1.2170  0.8096  1.9844
  191MOL0     H25769   0.652   8.010  10.153  0.7560  0.3838  0.2163
  191MOL0     H25770   0.790   8.067  10.341  0.8354  1.4273  0.3732
  191MOL0     H25771   2.364   8.405   9.423  1.2900 -0.6760  1.9879
  191MOL0     H25772   2.426   8.541   9.223  4.2176  2.0411 -2.5983
  191MOL0     H25773   2.801   8.767   8.925 -1.9479 -2.1418  0.3727
  191MOL0     H25774   2.770   8.886   8.699 -1.6337  2.1033 -1.7283
  191MOL0     H25775   2.408   9.112   8.637  0.9607 -0.6212 -0.2431
  191MOL0     H25776   2.505   9.248   8.690 -0.1567  1.1676 -2.1959
  191MOL0     H25777   2.494   9.127   8.409  1.8837 -1.7782  2.2729
  191MOL0     H25778   2.616   9.251   8.466 -0.2616  0.5329  0.0490
  191MOL0     H25779   2.321   9.279   8.422  0.9279 -1.6805  0.4590
  191MOL0     H25780   2.454   9.344   8.317  1.5178  1.5543  0.4033
  191MOL0     H25781   2.400   9.423   8.601  0.9237  1.4093  1.4531
  191MOL0     H25782   2.366   9.512   8.451 -1.8589 -0.2881  2.1088
  191MOL0     H25783   2.782   9.608   8.472 -0.9987  2.9390  0.8093
  191MOL0     H25784   2.439   9.101   8.879  0.0518  0.7082 -0.0455
  191MOL0     H25785   2.478   8.989   9.079  1.1484  3.0846 -0.1797
  192MOL0     O25786   7.294   0.834   2.157 -0.0854 -0.0989 -0.9190
  192MOL0     C25787   7.330   0.951   2.181 -0.1390  1.4763  0.5713
  192MOL0     O25788   7.430   0.982   2.276 -0.3578  0.9115  1.6683
  192MOL0     C25789   7.497   0.876   2.332  0.5634  0.5325 -0.2317
  192MOL0     C25790   7.442   0.810   2.448  0.1090  0.0329 -0.4468
  192MOL0     C25791   7.501   0.695   2.488 -0.4336 -0.4732  0.2425
  192MOL0     C25792   7.614   0.647   2.426 -0.1970 -0.3153 -0.2711
  192MOL0     O25793   7.689   0.563   2.499  0.8573  0.7498  0.0431
  192MOL0     C25794   7.808   0.605   2.548 -0.5154 -0.2026  0.6002
  192MOL0     C25795   7.854   0.520   2.663  0.5693  0.6188 -0.0490
  192MOL0     C25796   7.801   0.377   2.666 -0.4410  0.1263  0.0451
  192MOL0     C25797   7.845   0.290   2.790  0.9186  0.2002  0.3968
  192MOL0     C25798   7.769   0.154   2.776  0.1080  0.0256  0.6036
  192MOL0     C25799   7.614   0.135   2.787  0.3470 -0.3195  0.1316
  192MOL0     C25800   7.570   0.223   2.903  0.7877 -0.5224  0.5684
  192MOL0     C25801   7.422   0.209   2.924  0.6642 -1.1021  0.4133
  192MOL0     N25802   7.370   0.340   2.981 -0.6160 -0.0652  1.1577
  192MOL0     C25803   7.324   0.361   3.106  0.0926 -0.1969 -0.4365
  192MOL0     C25804   7.266   0.487   3.113  0.4843  0.6674 -0.1339
  192MOL0     C25805   7.172   0.538   3.230 -0.5641  0.7104  0.5791
  192MOL0     C25806   7.087   0.653   3.187 -0.1252  0.1590  0.4929
  192MOL0     C25807   7.168   0.786   3.172 -0.3707  0.9771 -0.3700
  192MOL0     C25808   7.078   0.904   3.128  0.1494 -0.6364 -0.0216
  192MOL0     O25809   6.957   0.907   3.197 -1.0000  0.1120  0.3705
  192MOL0     C25810   6.862   1.000   3.167  1.1656  0.1339 -0.1839
  192MOL0     C25811   6.888   1.125   3.110  0.2358 -0.2917 -0.1316
  192MOL0     C25812   6.790   1.215   3.081 -1.0943 -0.2361  0.0304
  192MOL0     C25813   6.838   1.359   3.035  0.1046 -0.4496 -1.3302
  192MOL0     C25814   6.658   1.176   3.098  0.0621 -0.2915 -0.2334
  192MOL0     C25815   6.551   1.269   3.053  0.2828  0.2044  1.2273
  192MOL0     O25816   6.436   1.262   3.131 -0.1554  0.3663 -0.1834
  192MOL0     C25817   6.352   1.371   3.154  0.0073  0.8720 -0.1877
  192MOL0     C25818   6.393   1.508   3.126  0.3634  0.1745 -0.6201
  192MOL0     C25819   6.288   1.608   3.131 -0.3478  0.6962 -0.1747
  192MOL0     C25820   6.164   1.581   3.169  0.6837  0.4849  0.4924
  192MOL0     O25821   6.080   1.688   3.157 -0.0246  0.1833  0.2480
  192MOL0     C25822   5.946   1.667   3.208 -0.4184  0.3554 -0.6004
  192MOL0     C25823   5.862   1.790   3.174 -0.2492  0.9771 -0.8953
  192MOL0     C25824   5.914   1.932   3.197 -0.6108  0.2135 -0.5770
  192MOL0     C25825   5.824   2.048   3.153 -0.1945 -0.7983 -0.1907
  192MOL0     C25826   5.673   2.039   3.208  0.4199  0.2457 -0.1802
  192MOL0     C25827   5.591   2.169   3.204 -0.4877  0.2230 -0.1621
  192MOL0     C25828   5.648   2.286   3.275 -0.8050  0.0168 -0.0676
  192MOL0     C25829   5.540   2.392   3.315 -0.0908  0.0323 -0.5909
  192MOL0    Cl25830   5.432   2.316   3.437 -0.1006 -0.0495  0.0758
  192MOL0     C25831   6.130   1.447   3.200  0.0151 -0.7839  0.6221
  192MOL0     C25832   6.224   1.339   3.183 -0.7316 -0.5351 -0.3665
  192MOL0     O25833   6.555   1.318   2.941 -0.1555 -0.1531 -0.4633
  192MOL0     C25834   6.627   1.056   3.154  0.3463  0.3375  0.1497
  192MOL0     C25835   6.726   0.963   3.180 -0.0037 -0.1899 -0.1816
  192MOL0     N25836   7.280   0.546   2.992  0.3728  0.8829  0.4639
  192MOL0     N25837   7.341   0.461   2.914 -0.2394 -0.1242  1.1166
  192MOL0     C25838   7.669   0.720   2.323 -0.0973 -0.3377 -0.2484
  192MOL0     C25839   7.621   0.836   2.281  0.6028 -0.5787 -0.0966
  192MOL0     C25840   7.261   1.057   2.103 -0.3473 -0.4838 -0.4761
  192MOL0     C25841   7.278   1.187   2.141 -0.7528 -0.4669 -0.3772
  192MOL0     C25842   7.227   1.293   2.081 -0.4245  0.1083 -0.5683
  192MOL0     C25843   7.147   1.271   1.970  0.4158 -0.5277  0.5403
  192MOL0     O25844   7.097   1.373   1.893 -0.0124  0.9075  0.1047
  192MOL0     C25845   7.090   1.508   1.939 -0.4196 -0.0647 -0.2143
  192MOL0     C25846   6.989   1.523   2.063 -0.0650 -0.0138  0.7299
  192MOL0     C25847   6.851   1.458   2.020 -0.6537  0.8816 -0.1526
  192MOL0     C25848   6.805   1.348   2.102  0.4488  0.3067 -0.3525
  192MOL0     C25849   6.816   1.373   2.244  0.3442  0.0255 -0.7290
  192MOL0     C25850   6.818   1.392   2.362  0.7489 -0.2942  0.2366
  192MOL0     C25851   7.129   1.143   1.921 -0.4218  0.4705  0.4670
  192MOL0     C25852   7.179   1.032   1.990 -0.1650  0.6033 -0.3397
  192MOL0     H25853   7.349   0.831   2.498  1.1213 -1.3723  2.1914
  192MOL0     H25854   7.470   0.642   2.577 -0.2080 -1.0347 -0.0144
  192MOL0     H25855   7.879   0.599   2.465  0.9640 -0.2272  1.8440
  192MOL0     H25856   7.809   0.712   2.573 -1.8080 -0.0537  0.1028
  192MOL0     H25857   7.961   0.526   2.682  0.4050 -1.2350  1.8496
  192MOL0     H25858   7.808   0.569   2.749 -1.5047  2.1435 -1.8914
  192MOL0     H25859   7.692   0.377   2.663 -0.5267  0.2466  1.8806
  192MOL0     H25860   7.832   0.327   2.573  0.1541  0.9757 -0.2278
  192MOL0     H25861   7.952   0.268   2.798  0.4706 -1.4663  3.0061
  192MOL0     H25862   7.810   0.348   2.876  2.1246 -2.2256  2.6944
  192MOL0     H25863   7.787   0.124   2.673 -1.4735 -2.2881  0.9231
  192MOL0     H25864   7.809   0.081   2.847  0.3870 -0.1790  0.2390
  192MOL0     H25865   7.557   0.168   2.700 -1.3016 -0.6497  1.0357
  192MOL0     H25866   7.597   0.030   2.811  0.0053 -0.7987 -2.0174
  192MOL0     H25867   7.622   0.192   2.995 -0.8853 -0.2990  1.6428
  192MOL0     H25868   7.593   0.328   2.883 -1.0587  0.2990  2.3341
  192MOL0     H25869   7.401   0.125   2.991 -0.7298 -1.2387 -0.1619
  192MOL0     H25870   7.377   0.197   2.825 -0.5291  2.3508  0.4204
  192MOL0     H25871   7.352   0.303   3.193  2.6248  2.4010  0.6473
  192MOL0     H25872   7.105   0.459   3.264 -0.3702  0.0405 -0.5484
  192MOL0     H25873   7.237   0.574   3.310  0.4123  2.3597 -0.8794
  192MOL0     H25874   7.013   0.658   3.267 -2.0618 -0.6710 -1.1531
  192MOL0     H25875   7.030   0.631   3.096  0.0126 -0.8657  0.6420
  192MOL0     H25876   7.250   0.770   3.101 -0.1403  0.0629  0.0970
  192MOL0     H25877   7.197   0.807   3.275  1.1724 -1.6814 -0.1740
  192MOL0     H25878   7.051   0.903   3.022 -3.7777  0.9229  0.8133
  192MOL0     H25879   7.127   1.000   3.147 -1.5316  1.0061 -3.1259
  192MOL0     H25880   6.989   1.154   3.084 -0.3726  0.5260 -1.7284
  192MOL0     H25881   6.837   1.354   2.925 -0.5575  0.3234 -1.3738
  192MOL0     H25882   6.766   1.430   3.076 -0.5236 -1.1395 -1.2009
  192MOL0     H25883   6.939   1.383   3.068 -0.1918  1.1709 -1.5172
  192MOL0     H25884   6.495   1.538   3.103  0.6617 -1.2333 -1.2772
  192MOL0     H25885   6.325   1.707   3.104  1.3263 -0.0289 -0.6325
  192MOL0     H25886   5.891   1.586   3.160 -4.0567  2.3775 -0.1771
  192MOL0     H25887   5.961   1.652   3.315 -0.0680 -1.8943 -0.9176
  192MOL0     H25888   5.817   1.783   3.074  0.1285 -0.0982 -0.9985
  192MOL0     H25889   5.775   1.786   3.240  1.8302 -4.4917  2.1188
  192MOL0     H25890   6.016   1.938   3.159 -0.6120 -2.5819 -1.2620
  192MOL0     H25891   5.919   1.943   3.305 -2.5161 -0.6519 -0.3568
  192MOL0     H25892   5.873   2.142   3.180 -0.5845 -1.1525  1.9301
  192MOL0     H25893   5.810   2.046   3.045  1.3453  0.7266 -0.4568
  192MOL0     H25894   5.681   2.007   3.312 -2.8465 -1.0153 -0.2150
  192MOL0     H25895   5.617   1.961   3.156  0.6131 -0.3021  0.4246
  192MOL0     H25896   5.586   2.198   3.099  0.9779  1.4545  0.0714
  192MOL0     H25897   5.492   2.160   3.250  0.4190  3.0937  2.6736
  192MOL0     H25898   5.723   2.333   3.211 -0.6982  1.4346  1.0494
  192MOL0     H25899   5.706   2.252   3.362 -0.8042 -0.2646 -0.1756
  192MOL0     H25900   5.486   2.420   3.224  0.5803  2.1181 -0.3958
  192MOL0     H25901   5.596   2.477   3.354  1.4803  1.3744 -5.1420
  192MOL0     H25902   6.024   1.424   3.209 -0.3658  0.4434 -0.4382
  192MOL0     H25903   6.185   1.240   3.203 -1.5181  0.4828  4.1459
  192MOL0     H25904   6.524   1.024   3.165  0.4481 -1.8313 -3.4490
  192MOL0     H25905   6.694   0.872   3.229  0.2369  0.4962  1.3234
  192MOL0     H25906   7.759   0.680   2.277 -2.4590 -1.7420 -4.0686
  192MOL0     H25907   7.677   0.899   2.213 -0.8375 -0.1554 -0.9361
  192MOL0     H25908   7.356   1.216   2.211  0.0449 -0.8788 -1.0691
  192MOL0     H25909   7.260   1.393   2.108 -1.1706  0.5254 -1.1461
  192MOL0     H25910   7.190   1.540   1.968 -1.8216  3.8364  0.9854
  192MOL0     H25911   7.058   1.582   1.865  5.2751  3.3865  0.2351
  192MOL0     H25912   6.977   1.628   2.089 -4.5001 -0.3755  1.0594
  192MOL0     H25913   7.031   1.474   2.151 -1.3268  3.5436  3.5254
  192MOL0     H25914   6.867   1.411   1.923  3.0908 -0.5962  0.9935
  192MOL0     H25915   6.780   1.541   2.019 -0.3310  1.1529 -0.9412
  192MOL0     H25916   6.863   1.259   2.077  0.7229  0.2112  0.6060
  192MOL0     H25917   6.701   1.323   2.077 -0.2092  0.5429  1.9476
  192MOL0     H25918   6.815   1.420   2.465 -5.1384 -2.2946  0.9785
  192MOL0     H25919   7.065   1.134   1.834  1.7705  2.2691 -1.4793
  192MOL0     H25920   7.168   0.933   1.947 -0.6614  0.5628 -0.1301
  193MOL0     O25921   8.437   4.115   6.284  0.2771  0.7385 -0.0307
  193MOL0     C25922   8.524   4.185   6.333 -0.3790 -0.0254  0.0337
  193MOL0     O25923   8.501   4.287   6.426  0.3603 -0.3137 -0.3709
  193MOL0     C25924   8.372   4.347   6.431  0.0219 -0.6797 -0.0981
  193MOL0     C25925   8.345   4.423   6.540  0.6403  0.5250 -0.1667
  193MOL0     C25926   8.218   4.484   6.552 -1.2242 -0.6527 -0.7902
  193MOL0     C25927   8.128   4.478   6.447 -0.3496  0.0534  0.6657
  193MOL0     O25928   8.013   4.548   6.465  0.1065 -0.4756 -0.1188
  193MOL0     C25929   7.925   4.552   6.354  0.7212 -0.1425  0.4048
  193MOL0     C25930   7.802   4.645   6.376  0.0007 -1.3848 -0.1672
  193MOL0     C25931   7.862   4.782   6.420 -0.3410  0.6669  0.5823
  193MOL0     C25932   7.770   4.901   6.389  0.4698 -0.3291 -0.5260
  193MOL0     C25933   7.830   5.034   6.425  0.2925  0.1558 -0.4154
  193MOL0     C25934   7.714   5.133   6.409  0.2043  0.0556  0.1945
  193MOL0     C25935   7.739   5.283   6.447 -1.1116 -0.3672 -0.1033
  193MOL0     C25936   7.618   5.365   6.400 -0.3868  0.2524  0.1304
  193MOL0     N25937   7.613   5.506   6.441 -0.1704 -0.2648  0.0602
  193MOL0     C25938   7.576   5.605   6.354 -1.2049  1.0649 -0.6620
  193MOL0     C25939   7.622   5.714   6.413 -0.2703  0.7464  0.6730
  193MOL0     C25940   7.597   5.842   6.358  0.3168 -0.5161 -0.2438
  193MOL0     C25941   7.433   5.871   6.376  0.2297  0.1125 -0.3718
  193MOL0     C25942   7.411   6.009   6.456 -0.8451  0.2550 -0.9343
  193MOL0     C25943   7.274   6.047   6.504  1.4064  1.3602 -0.2737
  193MOL0     O25944   7.206   6.084   6.382 -0.0635 -0.1453 -0.2749
  193MOL0     C25945   7.075   6.113   6.385  0.3222  0.1723  0.1228
  193MOL0     C25946   6.991   6.111   6.492 -0.9433  0.8520 -0.9520
  193MOL0     C25947   6.862   6.162   6.489 -0.5533  0.3552  0.8285
  193MOL0     C25948   6.784   6.161   6.619 -0.2787  0.4601 -0.4936
  193MOL0     C25949   6.819   6.219   6.371  0.9477 -0.8590 -0.4936
  193MOL0     C25950   6.687   6.281   6.344  0.4130  0.8185 -0.0488
  193MOL0     O25951   6.665   6.363   6.232  0.0298 -0.1545  0.3022
  193MOL0     C25952   6.547   6.395   6.171 -0.3511 -0.3287  1.3028
  193MOL0     C25953   6.540   6.514   6.103  0.7403 -0.5992  0.5761
  193MOL0     C25954   6.420   6.575   6.057  0.0957  0.6787 -1.1334
  193MOL0     C25955   6.300   6.500   6.071  0.3707  0.3434 -0.3240
  193MOL0     O25956   6.176   6.544   6.027 -0.4060  0.3545  0.0882
  193MOL0     C25957   6.153   6.679   5.981 -0.6292  0.0195  0.2675
  193MOL0     C25958   6.006   6.692   5.956 -0.6366 -0.5732  0.5810
  193MOL0     C25959   5.960   6.619   5.830  0.3392  0.6453 -0.6952
  193MOL0     C25960   6.049   6.655   5.711 -0.6120 -0.0014 -0.3064
  193MOL0     C25961   5.979   6.610   5.595 -0.1855  0.2852  0.2658
  193MOL0     C25962   6.063   6.635   5.472  0.7426  0.2848  0.9390
  193MOL0     C25963   6.020   6.562   5.344 -0.0473  0.4302 -0.6804
  193MOL0     C25964   6.104   6.616   5.230 -0.2218 -1.3121 -0.2167
  193MOL0    Cl25965   6.260   6.513   5.210  0.1160  0.1774 -0.1673
  193MOL0     C25966   6.313   6.374   6.133 -0.1113 -0.6097 -0.7298
  193MOL0     C25967   6.436   6.319   6.176 -0.0913  1.0019  0.2690
  193MOL0     O25968   6.606   6.259   6.435  0.7198  0.0712  0.6585
  193MOL0     C25969   6.904   6.227   6.267 -0.5246  0.2079 -0.3701
  193MOL0     C25970   7.030   6.177   6.269 -0.4136 -0.6124 -0.0117
  193MOL0     N25971   7.685   5.682   6.535 -0.9341  0.1602  0.0313
  193MOL0     N25972   7.683   5.553   6.550  0.8895  1.0713  0.4757
  193MOL0     C25973   8.159   4.404   6.335 -0.6443 -0.4021  0.1790
  193MOL0     C25974   8.287   4.342   6.321  0.2450  0.2451 -0.2631
  193MOL0     C25975   8.662   4.137   6.318  0.2422  1.5667 -0.0571
  193MOL0     C25976   8.693   4.003   6.307  0.2904 -0.0811 -0.0975
  193MOL0     C25977   8.821   3.947   6.290 -0.7881 -0.9260  0.5389
  193MOL0     C25978   8.930   4.040   6.310  0.2594  0.7901  0.1126
  193MOL0     O25979   9.060   4.001   6.302 -1.0484  0.3013  0.0694
  193MOL0     C25980   9.089   3.867   6.327  0.7492 -0.6041  0.4885
  193MOL0     C25981   9.237   3.827   6.307 -1.0463  0.5022 -0.0716
  193MOL0     C25982   9.271   3.693   6.381 -0.0199  0.5738  0.2523
  193MOL0     C25983   9.403   3.634   6.317 -0.0085 -0.2244  0.7620
  193MOL0     C25984   9.528   3.705   6.341  0.3100  0.8820 -0.4072
  193MOL0     C25985   9.632   3.762   6.351  0.0290  0.2044  0.1310
  193MOL0     C25986   8.901   4.178   6.312 -0.5062 -0.1569  0.1001
  193MOL0     C25987   8.771   4.228   6.322  0.6509 -0.0544  0.3027
  193MOL0     H25988   8.414   4.422   6.623  0.0739  0.0001  0.3032
  193MOL0     H25989   8.190   4.529   6.646 -1.6361 -0.6886 -0.8952
  193MOL0     H25990   7.984   4.582   6.266 -1.9050 -0.7651 -1.6928
  193MOL0     H25991   7.901   4.446   6.347  1.7745 -0.4004  0.5122
  193MOL0     H25992   7.736   4.658   6.290 -2.3553  0.5878  1.7744
  193MOL0     H25993   7.727   4.618   6.451 -0.9203  0.1429 -0.4934
  193MOL0     H25994   7.889   4.773   6.526  1.8092  1.7363  0.1770
  193MOL0     H25995   7.950   4.797   6.357  0.5988 -0.0448  1.6718
  193MOL0     H25996   7.734   4.905   6.286  1.0693  1.1535 -0.7038
  193MOL0     H25997   7.675   4.882   6.439  0.4057 -3.4665 -1.6405
  193MOL0     H25998   7.857   5.032   6.531 -1.7806 -1.7774  0.1570
  193MOL0     H25999   7.915   5.053   6.360  0.2838  2.5872  0.1760
  193MOL0     H26000   7.672   5.142   6.308 -1.5121  0.8219  0.9293
  193MOL0     H26001   7.625   5.089   6.455  0.4200 -1.2065 -0.5548
  193MOL0     H26002   7.762   5.279   6.554  1.0635 -2.0424 -0.5456
  193MOL0     H26003   7.833   5.321   6.406 -1.7560  1.3164 -0.1010
  193MOL0     H26004   7.527   5.313   6.432 -3.0131  4.2956 -0.0858
  193MOL0     H26005   7.624   5.370   6.291 -0.3189  2.8972  0.1877
  193MOL0     H26006   7.536   5.593   6.254  0.8887  0.2322 -1.4641
  193MOL0     H26007   7.653   5.924   6.403 -1.3467  0.8674 -0.5999
  193MOL0     H26008   7.624   5.842   6.252 -0.3182  0.1899 -0.4150
  193MOL0     H26009   7.373   5.796   6.428  0.1048  0.3370 -0.1907
  193MOL0     H26010   7.402   5.876   6.271 -3.4311 -0.3457  0.5658
  193MOL0     H26011   7.457   6.085   6.392  2.5137 -2.5011 -2.0700
  193MOL0     H26012   7.479   6.009   6.541  0.7677 -0.2785 -2.1929
  193MOL0     H26013   7.281   6.122   6.583 -0.0286 -1.8803  3.2371
  193MOL0     H26014   7.220   5.963   6.547 -0.5396  2.3127 -0.7541
  193MOL0     H26015   7.022   6.074   6.590 -1.5986  1.5055 -0.4847
  193MOL0     H26016   6.763   6.257   6.667 -5.4501 -1.3169  1.4338
  193MOL0     H26017   6.690   6.110   6.598 -0.2592  0.8116 -1.4419
  193MOL0     H26018   6.831   6.108   6.703 -0.0107  1.5171  0.0511
  193MOL0     H26019   6.639   6.557   6.094  0.7879 -0.6896  0.6585
  193MOL0     H26020   6.420   6.673   6.011 -0.6279  0.4792 -1.5770
  193MOL0     H26021   6.191   6.753   6.052  1.2784  0.2226 -0.8899
  193MOL0     H26022   6.216   6.694   5.892  0.0084 -2.1583  0.3097
  193MOL0     H26023   5.947   6.649   6.037 -3.2042  1.1252 -0.2672
  193MOL0     H26024   5.984   6.798   5.946  0.8657 -0.4267 -2.2549
  193MOL0     H26025   5.857   6.635   5.799  0.1626 -0.0551 -0.4866
  193MOL0     H26026   5.970   6.514   5.861 -1.8651  1.3424  3.0528
  193MOL0     H26027   6.070   6.762   5.700  2.5230 -0.1138  2.8765
  193MOL0     H26028   6.143   6.603   5.732  0.8959  3.5480  3.0469
  193MOL0     H26029   5.885   6.666   5.586 -0.2382  0.0416 -0.8398
  193MOL0     H26030   5.956   6.503   5.595  2.5786 -0.4970 -3.7526
  193MOL0     H26031   6.067   6.744   5.459  0.0145  0.8086  4.3042
  193MOL0     H26032   6.164   6.599   5.491  0.9994  0.9160  0.8259
  193MOL0     H26033   5.912   6.571   5.328 -0.1073  0.7659 -0.1118
  193MOL0     H26034   6.028   6.453   5.353  1.3682  0.4395 -1.4495
  193MOL0     H26035   6.130   6.716   5.268  1.4281 -2.7914  2.9965
  193MOL0     H26036   6.049   6.608   5.137  2.2018 -0.5563 -1.8193
  193MOL0     H26037   6.224   6.314   6.152  1.3225 -2.2086  1.5249
  193MOL0     H26038   6.447   6.233   6.241 -2.0675 -0.2556 -0.9332
  193MOL0     H26039   6.864   6.268   6.175 -0.9614  0.9086  0.1239
  193MOL0     H26040   7.100   6.173   6.186 -0.2315 -2.0157  0.1823
  193MOL0     H26041   8.086   4.387   6.257 -2.1664  1.1060  1.2177
  193MOL0     H26042   8.318   4.301   6.226  0.9521  0.4137 -0.1092
  193MOL0     H26043   8.616   3.927   6.303 -0.3193  0.4700  0.9180
  193MOL0     H26044   8.817   3.841   6.266 -1.5289 -1.1660  1.6758
  193MOL0     H26045   9.070   3.850   6.433  1.0275  0.9247  0.8081
  193MOL0     H26046   9.025   3.808   6.260  0.9494 -2.8205  2.1675
  193MOL0     H26047   9.310   3.905   6.329  0.1997 -0.8336  0.7543
  193MOL0     H26048   9.265   3.816   6.202 -0.2898  2.4730 -0.1146
  193MOL0     H26049   9.188   3.621   6.385  1.2729 -0.9202  2.9346
  193MOL0     H26050   9.291   3.717   6.486  4.8260  0.6108 -0.4797
  193MOL0     H26051   9.394   3.622   6.209  1.6008  0.1256  0.5663
  193MOL0     H26052   9.405   3.529   6.348  1.5755 -2.2644 -5.0319
  193MOL0     H26053   9.724   3.810   6.376 -0.3110 -0.3031  2.5979
  193MOL0     H26054   8.992   4.236   6.308 -0.5545 -0.1464 -1.3282
  193MOL0     H26055   8.747   4.333   6.329  0.1346 -0.2390  1.5262
  194MOL0     O26056   6.846   4.347   3.519 -0.2234 -0.2476  0.1608
  194MOL0     C26057   6.970   4.349   3.494 -0.3427 -0.2838  0.2782
  194MOL0     O26058   7.024   4.294   3.378  1.0537  0.3414 -0.3279
  194MOL0     C26059   6.945   4.237   3.279 -0.0039 -1.1106 -0.4789
  194MOL0     C26060   6.828   4.156   3.300 -0.6714  0.1768 -0.1449
  194MOL0     C26061   6.755   4.105   3.188  1.4606  0.7228 -0.3488
  194MOL0     C26062   6.804   4.132   3.059 -0.1187 -0.1430 -0.0146
  194MOL0     O26063   6.755   4.079   2.941  0.4866  0.5175  0.2157
  194MOL0     C26064   6.617   4.037   2.937  0.8304 -0.2549 -0.6026
  194MOL0     C26065   6.589   3.884   2.963  0.3841 -0.0998 -0.7381
  194MOL0     C26066   6.474   3.830   2.885  0.2311  0.8602 -0.0096
  194MOL0     C26067   6.339   3.874   2.928 -1.0161 -0.3837 -0.6342
  194MOL0     C26068   6.231   3.833   2.840 -0.4203 -0.6874 -0.0164
  194MOL0     C26069   6.106   3.892   2.900 -0.1990  0.0487  0.2794
  194MOL0     C26070   5.991   3.886   2.805  0.1865  0.5760  0.6036
  194MOL0     C26071   5.889   3.997   2.822  0.1966  0.8526 -0.0494
  194MOL0     N26072   5.779   4.002   2.710 -0.9394  0.1799  0.5460
  194MOL0     C26073   5.742   3.897   2.627  0.5813  0.9268  0.6250
  194MOL0     C26074   5.689   3.952   2.516  0.5866  0.8039  0.0115
  194MOL0     C26075   5.627   3.880   2.394  0.5575 -0.4237  0.0486
  194MOL0     C26076   5.682   3.911   2.254 -0.4846 -0.8084  0.8249
  194MOL0     C26077   5.702   4.062   2.225 -1.0250  0.0663 -0.0373
  194MOL0     C26078   5.771   4.089   2.089 -0.1017  0.1775 -1.4207
  194MOL0     O26079   5.757   4.230   2.056  0.2303  0.3713 -0.3923
  194MOL0     C26080   5.861   4.312   2.083 -0.1590 -0.1204  0.7178
  194MOL0     C26081   5.880   4.426   1.995 -0.4358 -0.1214  0.4534
  194MOL0     C26082   5.989   4.508   2.007 -0.0434  0.1437 -0.5089
  194MOL0     C26083   6.012   4.633   1.925 -0.1927  0.4961 -0.5479
  194MOL0     C26084   6.100   4.474   2.094 -0.3348 -0.7915 -1.2268
  194MOL0     C26085   6.234   4.543   2.117  0.2734 -0.4729  0.3887
  194MOL0     O26086   6.331   4.490   2.201 -0.1890 -0.1291 -0.1334
  194MOL0     C26087   6.459   4.532   2.205  0.7498 -0.0034  0.5372
  194MOL0     C26088   6.531   4.524   2.324 -0.0722  0.0316  0.1962
  194MOL0     C26089   6.671   4.550   2.344 -0.3487  0.5648 -0.0660
  194MOL0     C26090   6.750   4.574   2.237  0.6271 -0.2135  0.8705
  194MOL0     O26091   6.885   4.578   2.240  0.4130 -0.7852  0.5812
  194MOL0     C26092   6.965   4.497   2.325  0.2249 -0.4158 -0.2179
  194MOL0     C26093   7.057   4.410   2.246  0.0351 -0.5155  0.1217
  194MOL0     C26094   6.983   4.317   2.141 -0.1341 -0.1343  0.0992
  194MOL0     C26095   6.906   4.211   2.224 -0.2888 -0.8247  0.3908
  194MOL0     C26096   6.806   4.138   2.129 -0.7931 -0.0745  0.7221
  194MOL0     C26097   6.728   4.018   2.203 -0.0652 -0.4157  0.3405
  194MOL0     C26098   6.633   3.949   2.113  0.1622 -0.4693  0.0952
  194MOL0     C26099   6.569   3.837   2.198 -0.8120  0.4673 -0.4804
  194MOL0    Cl26100   6.411   3.797   2.117 -0.6042  0.1815  0.1468
  194MOL0     C26101   6.685   4.578   2.112 -0.4393 -0.3275  0.1672
  194MOL0     C26102   6.548   4.557   2.093  1.3480 -0.7350 -0.2543
  194MOL0     O26103   6.261   4.635   2.040  0.5579  0.3654 -0.6948
  194MOL0     C26104   6.077   4.362   2.180  0.4561 -0.8016 -0.4800
  194MOL0     C26105   5.960   4.290   2.182  0.4343 -0.0021 -0.0874
  194MOL0     N26106   5.674   4.086   2.543  0.5402  1.1244 -0.0592
  194MOL0     N26107   5.729   4.115   2.661 -0.2817  0.0016  0.2454
  194MOL0     C26108   6.913   4.219   3.045 -0.6284  0.5800 -0.1765
  194MOL0     C26109   6.978   4.274   3.149 -0.3130 -0.4668  0.0434
  194MOL0     C26110   7.065   4.422   3.576 -0.2544  0.5484 -0.2093
  194MOL0     C26111   7.202   4.426   3.530  0.5802 -0.6672 -1.3217
  194MOL0     C26112   7.291   4.497   3.612  0.0222 -0.3315  1.1102
  194MOL0     C26113   7.263   4.542   3.743 -0.6670 -0.5354  0.0777
  194MOL0     O26114   7.350   4.605   3.832  0.4343 -0.4781  0.4746
  194MOL0     C26115   7.473   4.661   3.784 -0.2248  0.5781  0.4413
  194MOL0     C26116   7.537   4.738   3.895 -0.1279 -0.5220 -0.4278
  194MOL0     C26117   7.687   4.756   3.884 -0.2953  0.1915  0.6997
  194MOL0     C26118   7.715   4.887   3.812  1.0702 -0.6664  0.2578
  194MOL0     C26119   7.692   4.862   3.667 -0.2651 -0.5109 -0.4938
  194MOL0     C26120   7.681   4.846   3.550  0.0648 -0.8262 -0.4662
  194MOL0     C26121   7.132   4.538   3.783 -0.0176  1.1975 -0.0042
  194MOL0     C26122   7.040   4.479   3.698 -0.1379  0.7182 -0.7885
  194MOL0     H26123   6.791   4.121   3.396 -0.6827  2.0438  0.5803
  194MOL0     H26124   6.664   4.050   3.209 -0.4569  4.0611  0.9331
  194MOL0     H26125   6.553   4.102   2.998  2.1943  0.0990  0.5164
  194MOL0     H26126   6.578   4.061   2.838  0.6754 -0.2116 -0.5319
  194MOL0     H26127   6.687   3.839   2.947  0.3346 -1.9217  2.8974
  194MOL0     H26128   6.580   3.860   3.070 -0.4472  2.6907 -0.0782
  194MOL0     H26129   6.479   3.839   2.776 -1.6375  4.6168  0.0727
  194MOL0     H26130   6.491   3.724   2.906  0.1267  0.6123 -1.1166
  194MOL0     H26131   6.324   3.850   3.033  1.8000  1.1023  0.2316
  194MOL0     H26132   6.341   3.984   2.926 -4.1647 -0.1429  2.2051
  194MOL0     H26133   6.241   3.887   2.746  1.2128  1.3415  1.2265
  194MOL0     H26134   6.227   3.726   2.816 -0.0450 -0.7958  0.3806
  194MOL0     H26135   6.077   3.814   2.971 -2.1919 -2.0741 -2.6199
  194MOL0     H26136   6.112   3.993   2.942 -0.5850  0.7079 -1.1780
  194MOL0     H26137   6.029   3.895   2.703  0.2391 -2.8033  0.2299
  194MOL0     H26138   5.941   3.789   2.814 -0.4499  0.7655 -0.6985
  194MOL0     H26139   5.935   4.095   2.837  0.0394  0.7577  1.1535
  194MOL0     H26140   5.844   3.978   2.919  3.3426  0.2210  1.4127
  194MOL0     H26141   5.765   3.793   2.644 -2.8399  0.2733  1.9436
  194MOL0     H26142   5.640   3.772   2.406 -2.4375 -1.0975 -1.7534
  194MOL0     H26143   5.518   3.890   2.394  0.7276  1.8990  0.4653
  194MOL0     H26144   5.610   3.876   2.179  2.0336 -1.2117 -1.5676
  194MOL0     H26145   5.774   3.856   2.234  0.3270  1.2133 -1.4664
  194MOL0     H26146   5.759   4.109   2.306 -1.5328 -3.1104  2.3552
  194MOL0     H26147   5.602   4.107   2.221 -1.5037 -1.0521 -1.2710
  194MOL0     H26148   5.739   4.026   2.005  0.7921 -1.9585 -0.2321
  194MOL0     H26149   5.876   4.060   2.087 -0.0096  0.4673 -0.8942
  194MOL0     H26150   5.790   4.438   1.936 -0.7920 -1.8500  0.5972
  194MOL0     H26151   6.100   4.617   1.862  0.6031 -0.9523  0.8585
  194MOL0     H26152   5.925   4.647   1.859  1.4509 -0.3706 -3.0241
  194MOL0     H26153   6.017   4.723   1.988 -0.7564  0.4556 -0.4376
  194MOL0     H26154   6.466   4.502   2.408 -2.5857  1.7341 -1.1811
  194MOL0     H26155   6.713   4.506   2.434 -0.9171 -1.0520 -0.5504
  194MOL0     H26156   7.025   4.567   2.383 -0.7522 -1.6916  2.5088
  194MOL0     H26157   6.909   4.437   2.398 -4.0976  1.7947 -1.3506
  194MOL0     H26158   7.123   4.479   2.193  0.5523 -0.3476  0.9711
  194MOL0     H26159   7.128   4.359   2.311  1.2570 -3.0922 -2.9712
  194MOL0     H26160   7.048   4.268   2.068 -2.9006 -1.5460 -1.5890
  194MOL0     H26161   6.913   4.379   2.084 -0.4916 -1.5921 -1.1102
  194MOL0     H26162   6.972   4.139   2.273  1.3380  0.6642  0.4803
  194MOL0     H26163   6.847   4.266   2.298  0.4942  1.9947 -0.9406
  194MOL0     H26164   6.854   4.104   2.038  0.1696 -0.8001  1.4820
  194MOL0     H26165   6.735   4.212   2.091 -0.6845  1.0344  2.5445
  194MOL0     H26166   6.787   3.935   2.242 -0.5173 -1.4976 -1.1787
  194MOL0     H26167   6.676   4.071   2.284  1.9737  1.1437  0.7191
  194MOL0     H26168   6.680   3.897   2.028  0.6700  0.4477 -0.1953
  194MOL0     H26169   6.555   4.018   2.081  1.4857  0.8821 -0.3371
  194MOL0     H26170   6.536   3.854   2.301 -1.6574  0.0288 -0.6647
  194MOL0     H26171   6.639   3.753   2.206 -0.4869  0.9348  2.5933
  194MOL0     H26172   6.753   4.595   2.029 -0.9557 -0.5427 -0.3103
  194MOL0     H26173   6.490   4.567   2.002 -2.7245  1.8480  2.3116
  194MOL0     H26174   6.149   4.332   2.255 -0.3619 -2.6114 -0.3522
  194MOL0     H26175   5.947   4.213   2.257 -0.4046  1.5849  1.4560
  194MOL0     H26176   6.952   4.233   2.945 -0.4957  0.1098 -0.1950
  194MOL0     H26177   7.065   4.336   3.130 -0.3176 -0.6199 -0.5137
  194MOL0     H26178   7.233   4.376   3.439 -0.5011 -1.5239 -1.2335
  194MOL0     H26179   7.380   4.533   3.563 -2.7588  0.4470 -3.9771
  194MOL0     H26180   7.537   4.588   3.734 -0.6033  2.7097 -3.5603
  194MOL0     H26181   7.470   4.729   3.698  4.6691  0.6029 -0.0190
  194MOL0     H26182   7.524   4.681   3.987  0.2526 -0.0818 -0.1022
  194MOL0     H26183   7.489   4.835   3.910 -0.0224 -0.0452 -2.7047
  194MOL0     H26184   7.729   4.663   3.846 -1.5308  0.1715 -0.6633
  194MOL0     H26185   7.745   4.771   3.976  3.5799  0.2991 -1.5326
  194MOL0     H26186   7.823   4.907   3.816  1.5856 -2.9835 -0.1515
  194MOL0     H26187   7.660   4.967   3.862 -1.9186 -1.8516 -0.9179
  194MOL0     H26188   7.671   4.847   3.443  0.6172  0.8683 -0.5287
  194MOL0     H26189   7.105   4.588   3.875  0.4519 -1.1570  1.5173
  194MOL0     H26190   6.940   4.469   3.739 -0.3133  0.5429 -1.2474
  195MOL0     O26191   3.574   2.579   6.417 -0.0434  0.1720 -0.3871
  195MOL0     C26192   3.599   2.625   6.529  0.2975  0.0085 -0.0608
  195MOL0     O26193   3.521   2.692   6.621 -0.1439  1.0835  0.3399
  195MOL0     C26194   3.383   2.716   6.599 -0.5691 -0.4583 -0.4087
  195MOL0     C26195   3.310   2.766   6.710 -0.7035  0.4419 -0.8836
  195MOL0     C26196   3.173   2.798   6.712  0.4697  0.2295  0.1856
  195MOL0     C26197   3.094   2.779   6.591  0.1935  0.7403  0.1002
  195MOL0     O26198   2.964   2.833   6.569 -0.8302 -0.1374 -0.7427
  195MOL0     C26199   2.878   2.746   6.485 -0.1770 -1.1506  0.3874
  195MOL0     C26200   2.729   2.800   6.481 -1.0727  0.7569  1.2005
  195MOL0     C26201   2.692   2.872   6.358  0.3077 -0.1058 -0.3786
  195MOL0     C26202   2.697   2.777   6.238  0.1953  0.3929 -0.3409
  195MOL0     C26203   2.670   2.848   6.101  0.3163  0.2000  0.0106
  195MOL0     C26204   2.560   2.951   6.089 -0.3106  0.7063  0.4455
  195MOL0     C26205   2.437   2.880   6.128 -0.0268  0.9724 -0.7235
  195MOL0     C26206   2.312   2.935   6.063 -0.3622  0.1148 -0.5536
  195MOL0     N26207   2.206   2.889   6.152  0.4829 -0.0317 -0.1903
  195MOL0     C26208   2.151   2.758   6.138  0.6403  0.0866  0.0173
  195MOL0     C26209   2.075   2.744   6.247  0.1188  0.7964 -0.8043
  195MOL0     C26210   1.999   2.618   6.287 -0.1614  0.6469  0.7426
  195MOL0     C26211   1.848   2.627   6.255 -0.9335  0.1339  0.1436
  195MOL0     C26212   1.773   2.517   6.325  0.5141  0.6850 -0.7906
  195MOL0     C26213   1.620   2.529   6.294  0.9060  0.1412 -0.8572
  195MOL0     O26214   1.595   2.532   6.153 -0.8448 -1.1072 -0.1028
  195MOL0     C26215   1.539   2.418   6.104 -0.0016 -0.9805 -0.6435
  195MOL0     C26216   1.612   2.337   6.013  0.2571 -0.5583 -0.7060
  195MOL0     C26217   1.547   2.234   5.936  0.6739  0.2997  0.5248
  195MOL0     C26218   1.618   2.153   5.838 -1.1667 -0.1002  0.1193
  195MOL0     C26219   1.414   2.191   5.972  0.1911 -0.4888  0.6931
  195MOL0     C26220   1.350   2.062   5.947 -0.5770 -0.0928 -0.4915
  195MOL0     O26221   1.286   1.998   6.055  0.0516 -0.0670 -0.4000
  195MOL0     C26222   1.224   1.873   6.035 -0.0227 -0.8201  0.3863
  195MOL0     C26223   1.231   1.786   6.151 -0.5787 -0.1067  0.4138
  195MOL0     C26224   1.168   1.661   6.148 -0.3189 -0.1348  0.0645
  195MOL0     C26225   1.091   1.620   6.035 -0.7117  0.4583  0.1648
  195MOL0     O26226   1.043   1.493   6.046 -0.0890  0.0628  0.0548
  195MOL0     C26227   0.900   1.483   6.046  0.0463 -0.4272 -0.0401
  195MOL0     C26228   0.830   1.534   6.179  0.2915 -0.0453 -0.1552
  195MOL0     C26229   0.894   1.480   6.311 -0.5821 -0.1463 -0.2028
  195MOL0     C26230   0.845   1.546   6.438 -0.3959 -0.6320  0.0694
  195MOL0     C26231   0.911   1.509   6.572  0.9335  0.4754 -1.1221
  195MOL0     C26232   0.838   1.561   6.700 -0.4314  0.4611  0.2661
  195MOL0     C26233   0.903   1.511   6.826  0.2819  1.0778 -0.0085
  195MOL0     C26234   0.813   1.527   6.943  0.6250  0.6857  0.2555
  195MOL0    Cl26235   0.769   1.690   6.963 -0.1299 -0.6766 -0.0565
  195MOL0     C26236   1.087   1.697   5.923  0.7882  0.0283 -0.1210
  195MOL0     C26237   1.163   1.819   5.919 -0.4575 -1.0074  0.7434
  195MOL0     O26238   1.361   2.011   5.837 -0.4326  0.6841 -0.5826
  195MOL0     C26239   1.357   2.272   6.071 -0.1623  0.9410  0.4818
  195MOL0     C26240   1.403   2.379   6.134 -1.5946 -0.6179  0.4361
  195MOL0     N26241   2.095   2.850   6.333 -0.1827 -0.4055  0.3795
  195MOL0     N26242   2.170   2.936   6.272 -0.0854  0.0862 -0.1524
  195MOL0     C26243   3.169   2.734   6.475 -0.2174 -0.1463 -0.9176
  195MOL0     C26244   3.308   2.706   6.481 -0.1065  0.2294  0.3590
  195MOL0     C26245   3.741   2.613   6.557 -0.0189  0.5983 -0.8207
  195MOL0     C26246   3.798   2.680   6.664  1.2301 -0.6424  0.3598
  195MOL0     C26247   3.933   2.660   6.704 -0.1091 -0.2068 -0.5865
  195MOL0     C26248   4.013   2.559   6.640  0.4470 -0.6396  0.2269
  195MOL0     O26249   4.140   2.526   6.672  0.2650 -0.5913  0.4356
  195MOL0     C26250   4.210   2.582   6.780  0.9020 -0.0346 -0.1011
  195MOL0     C26251   4.175   2.526   6.917 -0.3078 -0.0177 -0.0620
  195MOL0     C26252   4.221   2.612   7.036  0.0941  0.3641 -0.2814
  195MOL0     C26253   4.237   2.512   7.158  0.4069 -0.7015  0.7313
  195MOL0     C26254   4.206   2.574   7.298 -0.2136  0.5436  0.0098
  195MOL0     C26255   4.181   2.612   7.412  0.2198 -0.0984  0.4197
  195MOL0     C26256   3.965   2.495   6.528 -0.1940 -0.0542 -0.4470
  195MOL0     C26257   3.831   2.516   6.494 -0.4434 -0.6060  0.1546
  195MOL0     H26258   3.367   2.781   6.802 -0.6067 -1.1863 -0.6540
  195MOL0     H26259   3.129   2.844   6.800 -1.2761 -0.7318 -0.1200
  195MOL0     H26260   2.917   2.740   6.383 -1.2837  1.7892 -0.3189
  195MOL0     H26261   2.865   2.647   6.528 -0.3489 -1.0184  0.6431
  195MOL0     H26262   2.666   2.712   6.500  1.4284 -1.9077 -1.8159
  195MOL0     H26263   2.716   2.882   6.553  1.7924  1.8943  0.5726
  195MOL0     H26264   2.589   2.909   6.369 -0.8252 -3.6294  4.8767
  195MOL0     H26265   2.761   2.953   6.336  0.4716 -0.4358 -1.1405
  195MOL0     H26266   2.793   2.727   6.220  0.4500 -0.0006  1.8885
  195MOL0     H26267   2.639   2.686   6.255  1.0654 -0.2339 -0.6787
  195MOL0     H26268   2.756   2.897   6.056  2.3182 -2.6625  0.4419
  195MOL0     H26269   2.640   2.775   6.025 -0.1814 -1.6193  1.8586
  195MOL0     H26270   2.581   3.036   6.154 -1.8866 -0.9745  3.3593
  195MOL0     H26271   2.565   2.991   5.987 -1.2307  2.6390  1.1205
  195MOL0     H26272   2.420   2.776   6.101  0.3708  0.9147 -0.7505
  195MOL0     H26273   2.430   2.893   6.237 -1.1207 -1.1652 -0.4906
  195MOL0     H26274   2.286   2.894   5.965 -0.9106 -1.0567  0.0573
  195MOL0     H26275   2.316   3.044   6.065 -1.4252  0.1736 -0.9319
  195MOL0     H26276   2.161   2.686   6.057 -0.3386  0.7207 -0.6919
  195MOL0     H26277   2.039   2.537   6.225 -0.6745  1.5546 -0.8425
  195MOL0     H26278   2.010   2.601   6.395 -0.3836 -2.5376  0.3678
  195MOL0     H26279   1.848   2.638   6.146 -0.9595  4.5303  0.4268
  195MOL0     H26280   1.816   2.722   6.298 -2.2513 -0.8091  1.3347
  195MOL0     H26281   1.776   2.533   6.433 -2.5222 -1.2452 -0.3015
  195MOL0     H26282   1.814   2.422   6.292  3.4330  1.6878 -0.3001
  195MOL0     H26283   1.590   2.628   6.328 -0.8385 -0.2283 -1.1985
  195MOL0     H26284   1.565   2.456   6.354  0.6122  0.7601 -0.3662
  195MOL0     H26285   1.716   2.366   5.998 -0.6241  1.9734 -2.4864
  195MOL0     H26286   1.725   2.174   5.841 -1.6731  3.2347 -0.7405
  195MOL0     H26287   1.625   2.047   5.866  3.3328 -0.4260 -1.3714
  195MOL0     H26288   1.587   2.158   5.733 -0.3388 -0.3842 -0.1510
  195MOL0     H26289   1.264   1.826   6.246 -1.4994 -0.5750  0.9452
  195MOL0     H26290   1.169   1.593   6.233 -4.8284  0.2780  0.6674
  195MOL0     H26291   0.888   1.546   5.957 -2.4228 -0.2017  0.3658
  195MOL0     H26292   0.878   1.378   6.027  1.7609 -0.8530  0.2057
  195MOL0     H26293   0.837   1.642   6.196 -0.8225 -0.2878  2.4974
  195MOL0     H26294   0.725   1.504   6.175  0.0759 -0.3935  3.6865
  195MOL0     H26295   1.003   1.492   6.315 -0.2458 -2.8766  0.6427
  195MOL0     H26296   0.867   1.375   6.313  4.0266 -1.5520 -0.7363
  195MOL0     H26297   0.836   1.655   6.437 -0.8088 -0.5980  2.2434
  195MOL0     H26298   0.739   1.520   6.453 -0.7365  1.3095  1.4457
  195MOL0     H26299   1.018   1.530   6.571  1.3102 -1.1756 -0.0302
  195MOL0     H26300   0.896   1.401   6.576  1.6229  0.2596 -3.2433
  195MOL0     H26301   0.837   1.670   6.687  4.2114  0.5918 -1.0723
  195MOL0     H26302   0.735   1.525   6.700  0.1097 -1.2988 -2.0360
  195MOL0     H26303   1.002   1.556   6.841 -0.1555  1.3341  2.5266
  195MOL0     H26304   0.907   1.404   6.806  4.5494  1.4816 -2.6063
  195MOL0     H26305   0.863   1.491   7.032  2.8829  3.6501  0.3239
  195MOL0     H26306   0.721   1.471   6.924  1.8920 -0.8330 -1.8400
  195MOL0     H26307   1.024   1.663   5.841  2.9151 -3.0196 -0.6474
  195MOL0     H26308   1.145   1.879   5.830 -0.7179 -0.7744  0.9528
  195MOL0     H26309   1.257   2.244   6.103 -0.9302  2.3077 -0.6329
  195MOL0     H26310   1.329   2.434   6.191 -2.4154 -1.3318  0.0838
  195MOL0     H26311   3.130   2.714   6.376  0.5898 -1.7001 -0.9664
  195MOL0     H26312   3.364   2.662   6.400  0.6154 -2.6243  2.2623
  195MOL0     H26313   3.727   2.748   6.710  1.8104 -0.1007  0.4653
  195MOL0     H26314   3.986   2.717   6.781  3.7500 -2.0145 -1.6590
  195MOL0     H26315   4.315   2.557   6.764  0.8832 -2.0786  2.5045
  195MOL0     H26316   4.205   2.691   6.790  3.0737  0.0337  0.5823
  195MOL0     H26317   4.214   2.425   6.933  0.0919  0.2002  0.3932
  195MOL0     H26318   4.066   2.518   6.918 -0.6114  2.9699 -0.0119
  195MOL0     H26319   4.152   2.696   7.047  0.0505  0.0836  2.1087
  195MOL0     H26320   4.318   2.662   7.022 -0.2231  1.1568  0.2799
  195MOL0     H26321   4.339   2.474   7.155  0.3832 -0.7636  0.7003
  195MOL0     H26322   4.175   2.423   7.143  2.1242 -1.9558  0.8827
  195MOL0     H26323   4.163   2.660   7.507  0.6604 -1.9708  1.5119
  195MOL0     H26324   4.032   2.431   6.472  1.2741 -0.0278  1.2110
  195MOL0     H26325   3.802   2.456   6.409  0.0518  0.7949 -1.0531
  196MOL0     O26326   9.589   1.953   4.902 -0.9216 -0.4381 -0.3841
  196MOL0     C26327   9.630   2.068   4.930  0.3092 -0.3424 -0.0089
  196MOL0     O26328   9.546   2.174   4.931  0.9052 -0.7001  0.2486
  196MOL0     C26329   9.416   2.148   4.973  0.1690  1.4434  0.0439
  196MOL0     C26330   9.383   2.157   5.116  0.3776  0.4750  0.2124
  196MOL0     C26331   9.260   2.109   5.161  0.1818 -1.2162  0.0779
  196MOL0     C26332   9.166   2.073   5.067  0.2908 -0.0802  0.6237
  196MOL0     O26333   9.039   2.053   5.113  0.1007  0.1820 -0.5486
  196MOL0     C26334   9.038   1.909   5.143 -0.6800 -0.3697 -0.1421
  196MOL0     C26335   8.893   1.858   5.179 -0.4091 -0.5649  0.2712
  196MOL0     C26336   8.795   1.871   5.068  0.2425 -0.2285 -0.4177
  196MOL0     C26337   8.655   1.864   5.141 -0.3246  0.5528  0.0131
  196MOL0     C26338   8.534   1.839   5.050 -0.2148 -0.2408  0.7952
  196MOL0     C26339   8.514   1.950   4.941 -1.4058  0.7843  0.2580
  196MOL0     C26340   8.390   1.940   4.853  0.1275 -1.3148  0.0468
  196MOL0     C26341   8.426   1.922   4.705 -0.2887 -0.4267  0.0379
  196MOL0     N26342   8.320   1.943   4.616 -0.2072  0.1939  0.0569
  196MOL0     C26343   8.281   2.049   4.532  0.0189 -0.2175 -1.2229
  196MOL0     C26344   8.158   2.021   4.487  0.6668 -0.2320 -0.4783
  196MOL0     C26345   8.065   2.120   4.416 -0.1264  0.0259  0.2909
  196MOL0     C26346   7.990   2.042   4.300 -0.4054 -0.4538  0.1725
  196MOL0     C26347   8.084   1.968   4.200 -0.4062 -0.1594 -0.0015
  196MOL0     C26348   8.167   2.067   4.108 -0.1346  0.4701  0.3311
  196MOL0     O26349   8.231   1.997   3.994 -0.5273 -0.0730 -0.4378
  196MOL0     C26350   8.360   1.952   3.991  0.0093 -0.7464  0.3320
  196MOL0     C26351   8.404   1.876   3.886 -0.4014  0.3983  0.6229
  196MOL0     C26352   8.532   1.824   3.881 -1.5343 -0.0116  0.8677
  196MOL0     C26353   8.561   1.732   3.757  0.5043 -0.4822 -0.0943
  196MOL0     C26354   8.622   1.842   3.988 -1.3143  0.2606 -0.4635
  196MOL0     C26355   8.762   1.789   3.986  0.5997  0.6339 -0.6003
  196MOL0     O26356   8.813   1.731   3.873  0.1605  1.0168  0.0854
  196MOL0     C26357   8.935   1.669   3.886 -0.2905 -0.1822 -0.6782
  196MOL0     C26358   9.057   1.753   3.876  0.2405  0.0382 -1.1965
  196MOL0     C26359   9.174   1.688   3.913 -0.0027  0.6396 -0.8711
  196MOL0     C26360   9.181   1.551   3.953  0.0994  0.4424  0.6719
  196MOL0     O26361   9.306   1.512   3.994 -0.0725  0.8098  0.2797
  196MOL0     C26362   9.337   1.372   4.026  0.0460 -0.5042 -0.1883
  196MOL0     C26363   9.420   1.307   3.923  0.1747 -0.1411  0.3554
  196MOL0     C26364   9.428   1.159   3.959 -0.9223 -0.3407 -0.0339
  196MOL0     C26365   9.307   1.077   3.917  0.2217 -0.1373 -0.6740
  196MOL0     C26366   9.289   0.962   4.016 -0.9045 -0.0930 -0.4166
  196MOL0     C26367   9.155   0.888   3.997 -0.0234  0.7740  0.5950
  196MOL0     C26368   9.162   0.743   4.053  0.6600 -0.3627  0.0048
  196MOL0     C26369   9.032   0.664   4.028  0.8544  0.3896 -0.2148
  196MOL0    Cl26370   8.887   0.765   4.075 -0.4306  0.2741 -0.5984
  196MOL0     C26371   9.062   1.468   3.940  0.6176 -0.1265  0.1937
  196MOL0     C26372   8.943   1.528   3.904  0.3584 -0.5678  0.0694
  196MOL0     O26373   8.813   1.778   4.102 -0.7835 -0.1272  0.0171
  196MOL0     C26374   8.570   1.907   4.100 -0.5719  0.2986 -0.0985
  196MOL0     C26375   8.443   1.959   4.104 -0.6184  0.8030 -0.1581
  196MOL0     N26376   8.129   1.888   4.534  0.2599  0.1592  0.1801
  196MOL0     N26377   8.223   1.852   4.615  0.4696  0.1861 -0.1030
  196MOL0     C26378   9.188   2.087   4.928 -0.1153  0.4847 -0.5978
  196MOL0     C26379   9.318   2.111   4.881 -0.3517 -0.1182 -1.1572
  196MOL0     C26380   9.775   2.095   4.934 -0.7173 -0.4220 -0.2315
  196MOL0     C26381   9.836   2.211   4.964 -0.6565 -0.3455 -0.5898
  196MOL0     C26382   9.982   2.226   4.981  0.3112 -0.1822  0.6882
  196MOL0     C26383  10.061   2.112   4.962  0.0610 -0.0539  0.3622
  196MOL0     O26384  10.197   2.130   4.993 -0.0852  0.1116 -0.0635
  196MOL0     C26385  10.286   2.011   5.000 -0.2426 -0.6558  0.4629
  196MOL0     C26386  10.417   2.039   5.070  1.0490 -0.6959 -0.2152
  196MOL0     C26387  10.511   1.921   5.047 -0.0321 -0.6999  0.3896
  196MOL0     C26388  10.482   1.802   5.146  0.3320  0.3150 -0.3757
  196MOL0     C26389  10.536   1.823   5.281 -0.4985  0.0893  0.4500
  196MOL0     C26390  10.577   1.838   5.392 -0.4723  0.1964 -0.2202
  196MOL0     C26391   9.997   1.988   4.923 -0.0307 -0.9891  0.0102
  196MOL0     C26392   9.860   1.982   4.911 -0.3655 -0.3601 -0.3700
  196MOL0     H26393   9.454   2.188   5.192 -1.8575  1.5841  1.9689
  196MOL0     H26394   9.240   2.117   5.267 -1.7825 -0.6292 -0.2980
  196MOL0     H26395   9.085   1.842   5.070  0.1353  0.4340 -0.3786
  196MOL0     H26396   9.090   1.897   5.238  0.6341  0.3903 -0.7402
  196MOL0     H26397   8.893   1.751   5.202 -0.2514 -1.0964 -1.9232
  196MOL0     H26398   8.847   1.905   5.266  0.2417  0.7255 -0.0518
  196MOL0     H26399   8.800   1.970   5.022  0.4080  1.7704  3.4593
  196MOL0     H26400   8.808   1.791   4.995 -0.7233 -0.3987 -0.4154
  196MOL0     H26401   8.653   1.769   5.195  0.3648 -0.0995 -1.0413
  196MOL0     H26402   8.647   1.960   5.193  1.9501  1.6834 -1.5418
  196MOL0     H26403   8.553   1.739   5.010 -2.4833 -1.1072  1.7132
  196MOL0     H26404   8.446   1.830   5.116 -0.8710  0.4419  0.0306
  196MOL0     H26405   8.515   2.046   4.994 -2.4610  1.2115 -0.4760
  196MOL0     H26406   8.605   1.958   4.881 -0.5105  2.7263  1.7438
  196MOL0     H26407   8.328   1.855   4.883  0.8585 -2.0819 -0.5805
  196MOL0     H26408   8.328   2.029   4.868  3.8404  2.0385 -2.4766
  196MOL0     H26409   8.468   1.821   4.706 -0.6615 -0.6918  3.7072
  196MOL0     H26410   8.504   1.993   4.676  1.1818 -2.2629 -0.7211
  196MOL0     H26411   8.337   2.141   4.515  1.0270  0.1566  3.0403
  196MOL0     H26412   7.993   2.159   4.488  1.3106  0.3994  1.5579
  196MOL0     H26413   8.131   2.201   4.385  0.7686 -1.0526 -0.6961
  196MOL0     H26414   7.915   2.102   4.248 -0.1266 -2.0280 -2.1969
  196MOL0     H26415   7.941   1.956   4.344 -1.8685 -0.2596 -0.9979
  196MOL0     H26416   8.018   1.913   4.132 -1.6637 -0.7269  1.5887
  196MOL0     H26417   8.154   1.907   4.258  3.8632  3.9180 -0.2707
  196MOL0     H26418   8.239   2.128   4.162  0.4380  0.1301 -0.0360
  196MOL0     H26419   8.100   2.141   4.064 -1.6965 -0.9078  0.3034
  196MOL0     H26420   8.341   1.854   3.801 -1.2711  2.7860  0.5874
  196MOL0     H26421   8.657   1.762   3.714  0.0163 -0.0440 -0.9333
  196MOL0     H26422   8.557   1.628   3.790 -2.8199 -0.6161 -0.5574
  196MOL0     H26423   8.493   1.743   3.672  1.0459  2.9095 -0.2623
  196MOL0     H26424   9.056   1.861   3.860  3.9756  0.5614  0.9950
  196MOL0     H26425   9.261   1.750   3.925  2.0039 -1.6864 -2.4469
  196MOL0     H26426   9.389   1.371   4.122 -0.8595 -0.5060  0.3148
  196MOL0     H26427   9.246   1.313   4.042 -0.8197  0.4789 -1.2692
  196MOL0     H26428   9.362   1.326   3.833 -2.9052 -1.7679  1.8456
  196MOL0     H26429   9.520   1.350   3.910  0.9998 -2.5327 -2.4751
  196MOL0     H26430   9.444   1.161   4.067 -2.8431 -0.2169  0.2857
  196MOL0     H26431   9.519   1.120   3.913 -0.5441  0.2671  0.1943
  196MOL0     H26432   9.216   1.137   3.908 -2.0648 -3.4281 -1.5040
  196MOL0     H26433   9.321   1.026   3.821 -4.1021 -4.6219  0.6049
  196MOL0     H26434   9.293   0.999   4.119  0.4444 -2.5850  0.5184
  196MOL0     H26435   9.379   0.900   4.009 -0.7831 -0.1498  1.1837
  196MOL0     H26436   9.079   0.952   4.042  0.7194  1.9473  0.2347
  196MOL0     H26437   9.134   0.882   3.890 -0.1803 -0.4106  0.6824
  196MOL0     H26438   9.164   0.752   4.162 -2.6908 -0.8424  0.2256
  196MOL0     H26439   9.247   0.689   4.012  1.6524  0.6085  0.7257
  196MOL0     H26440   9.029   0.576   4.093  0.7240  1.4815  1.3124
  196MOL0     H26441   9.028   0.646   3.920 -1.1611 -1.2691  0.0745
  196MOL0     H26442   9.062   1.360   3.946 -0.3691 -0.1202  0.4851
  196MOL0     H26443   8.854   1.467   3.914  1.8313 -2.8613 -0.1650
  196MOL0     H26444   8.637   1.921   4.184 -0.4038  0.7896 -0.3101
  196MOL0     H26445   8.409   1.993   4.201 -0.0819 -1.3148  0.8135
  196MOL0     H26446   9.108   2.071   4.856  1.6848 -1.2870 -2.3213
  196MOL0     H26447   9.341   2.116   4.775  0.0042  1.4063 -1.0339
  196MOL0     H26448   9.770   2.293   4.989  1.0724  1.2336 -0.9240
  196MOL0     H26449  10.039   2.312   5.012  0.3866  0.7511 -1.7971
  196MOL0     H26450  10.239   1.926   5.051  0.2930 -1.4786 -0.3938
  196MOL0     H26451  10.306   1.984   4.896 -1.4745 -0.5700  0.1863
  196MOL0     H26452  10.412   2.047   5.179  2.8266  0.5456 -0.1805
  196MOL0     H26453  10.457   2.129   5.022 -0.2703 -0.0743 -0.1955
  196MOL0     H26454  10.617   1.947   5.056 -0.0975  0.0815 -0.9703
  196MOL0     H26455  10.506   1.887   4.944 -1.7902 -1.7501  0.7808
  196MOL0     H26456  10.542   1.721   5.104 -1.4068 -1.8284  1.0855
  196MOL0     H26457  10.378   1.769   5.147 -0.1647  1.3686 -3.9922
  196MOL0     H26458  10.610   1.856   5.493  2.5040  1.2189 -1.2761
  196MOL0     H26459  10.047   1.893   4.903  2.4613  0.1310  0.5536
  196MOL0     H26460   9.822   1.883   4.889 -2.3155  0.6058 -1.6350
  197MOL0     O26461   8.159   0.631   8.126  0.4784 -0.2028  0.7122
  197MOL0     C26462   8.136   0.722   8.049  0.1126  0.1124 -0.3602
  197MOL0     O26463   8.214   0.762   7.943 -0.6003  0.3152 -0.1256
  197MOL0     C26464   8.304   0.675   7.886  0.1511  0.0905  0.1355
  197MOL0     C26465   8.394   0.598   7.962 -0.0150 -0.4716 -0.0944
  197MOL0     C26466   8.500   0.529   7.912  0.3821 -0.8444 -0.0853
  197MOL0     C26467   8.526   0.540   7.768  0.2023  0.7650  0.3982
  197MOL0     O26468   8.628   0.474   7.703 -0.5490  0.2512  0.1454
  197MOL0     C26469   8.730   0.413   7.778 -0.3423  1.1220 -0.0250
  197MOL0     C26470   8.854   0.410   7.693  0.5972 -0.2440 -0.0885
  197MOL0     C26471   8.971   0.345   7.762  0.0547 -0.1919  0.4684
  197MOL0     C26472   9.089   0.355   7.669  0.2598  0.2558 -0.5940
  197MOL0     C26473   9.213   0.282   7.723  1.1332  0.8710 -0.2750
  197MOL0     C26474   9.203   0.127   7.711 -0.1564  0.2574 -0.2994
  197MOL0     C26475   9.335   0.060   7.723  0.7283  0.5837 -0.2582
  197MOL0     C26476   9.378   0.058   7.872 -0.3161  0.3533 -0.2191
  197MOL0     N26477   9.387  -0.075   7.939  1.0414 -0.3068  0.4374
  197MOL0     C26478   9.505  -0.119   8.010  0.5786  0.2297  0.2448
  197MOL0     C26479   9.474  -0.250   8.015 -0.3367  0.3831 -0.1603
  197MOL0     C26480   9.563  -0.367   8.057  0.5308 -0.1181  0.5468
  197MOL0     C26481   9.633  -0.424   7.930 -1.0449 -0.1697 -0.0228
  197MOL0     C26482   9.763  -0.343   7.889 -0.8978 -0.4148  0.1480
  197MOL0     C26483   9.853  -0.408   7.787 -0.6840  1.0834 -1.0343
  197MOL0     O26484   9.796  -0.376   7.660  0.2131  0.3916 -0.1563
  197MOL0     C26485   9.874  -0.370   7.548  0.3062 -0.0704 -0.6163
  197MOL0     C26486  10.014  -0.361   7.545  0.2319  1.2540  0.0741
  197MOL0     C26487  10.080  -0.357   7.421  0.7956  0.7661  0.3033
  197MOL0     C26488  10.228  -0.364   7.432 -0.5102  0.2592 -0.7979
  197MOL0     C26489  10.013  -0.345   7.300  0.2368 -0.4585  0.0983
  197MOL0     C26490  10.086  -0.341   7.167 -1.2969 -0.1450  0.3025
  197MOL0     O26491  10.017  -0.390   7.052 -0.2472  0.0581 -1.4506
  197MOL0     C26492  10.080  -0.381   6.925  0.5568  0.9882 -0.0426
  197MOL0     C26493  10.054  -0.496   6.844  0.1288 -1.4105  0.4973
  197MOL0     C26494  10.097  -0.489   6.705 -0.3713  0.3479 -1.4331
  197MOL0     C26495  10.151  -0.371   6.654  0.6921  0.5514 -0.5300
  197MOL0     O26496  10.191  -0.355   6.524 -0.3955 -0.3882  0.8754
  197MOL0     C26497  10.216  -0.471   6.438  0.0551 -1.3187 -0.5674
  197MOL0     C26498  10.345  -0.551   6.467 -0.2912  0.4789 -0.2065
  197MOL0     C26499  10.472  -0.485   6.422  0.3533  0.1759  0.0746
  197MOL0     C26500  10.598  -0.573   6.431  0.4710  0.7492  0.7917
  197MOL0     C26501  10.734  -0.510   6.379  0.1207  0.2027  0.0809
  197MOL0     C26502  10.839  -0.545   6.474 -1.7401  0.1990  0.4983
  197MOL0     C26503  10.968  -0.472   6.449  0.2644 -0.7872 -0.9697
  197MOL0     C26504  11.090  -0.540   6.509  0.8114  0.6331  0.3180
  197MOL0    Cl26505  11.210  -0.419   6.530  0.3056  0.3236 -0.5789
  197MOL0     C26506  10.175  -0.260   6.738 -0.4891 -0.3275  0.3556
  197MOL0     C26507  10.141  -0.265   6.868 -0.3285 -0.4681 -0.3264
  197MOL0     O26508  10.200  -0.281   7.170  0.8590  0.3031 -0.3974
  197MOL0     C26509   9.875  -0.365   7.308 -0.5665  0.1307  0.2452
  197MOL0     C26510   9.809  -0.380   7.428  0.4079 -0.3132  0.6559
  197MOL0     N26511   9.346  -0.267   7.976 -0.3734  0.5979  0.1405
  197MOL0     N26512   9.285  -0.162   7.945 -0.0337  0.3643  0.3832
  197MOL0     C26513   8.442   0.623   7.687  0.2371 -0.2616 -1.0627
  197MOL0     C26514   8.330   0.686   7.747  0.3495 -0.9079 -0.9675
  197MOL0     C26515   8.030   0.817   8.091  0.4272  0.1445 -0.2132
  197MOL0     C26516   7.963   0.806   8.211  0.1596 -0.2529 -0.6967
  197MOL0     C26517   7.855   0.887   8.258  0.2451  0.1135  0.5464
  197MOL0     C26518   7.834   1.007   8.185 -0.7586  1.1337  0.9001
  197MOL0     O26519   7.738   1.103   8.219 -0.4505  0.0680  0.3684
  197MOL0     C26520   7.789   1.216   8.285 -0.3188 -0.4282  0.4636
  197MOL0     C26521   7.726   1.345   8.242  0.7931  0.5062  0.4310
  197MOL0     C26522   7.787   1.395   8.105 -0.2226 -0.3230  1.1638
  197MOL0     C26523   7.735   1.534   8.057 -0.0596  0.4352  0.0487
  197MOL0     C26524   7.599   1.526   8.000 -0.3772  0.6167 -1.0766
  197MOL0     C26525   7.496   1.525   7.935  0.6479 -0.6887  0.7051
  197MOL0     C26526   7.910   1.026   8.075  1.0883  0.3384  0.2492
  197MOL0     C26527   8.002   0.934   8.026  0.6802  0.0581  0.5596
  197MOL0     H26528   8.390   0.594   8.070  1.8924 -0.4196  0.0194
  197MOL0     H26529   8.568   0.473   7.975 -1.0481 -0.6963  1.6661
  197MOL0     H26530   8.758   0.478   7.862 -0.4299 -0.2398  1.0909
  197MOL0     H26531   8.688   0.317   7.809  1.7637  0.7643  2.0176
  197MOL0     H26532   8.836   0.357   7.599 -1.0148  0.1687 -0.0416
  197MOL0     H26533   8.877   0.513   7.662 -0.4497  0.9345  2.6893
  197MOL0     H26534   8.995   0.392   7.857  2.2195 -0.5059  0.1418
  197MOL0     H26535   8.945   0.239   7.772 -0.1889 -0.1945 -0.1238
  197MOL0     H26536   9.065   0.304   7.575  0.0440  1.2848 -1.1142
  197MOL0     H26537   9.114   0.460   7.652  1.8801  0.1840  1.0236
  197MOL0     H26538   9.305   0.311   7.671  2.0183 -3.3605 -1.4646
  197MOL0     H26539   9.212   0.301   7.830  1.3788 -1.6860  0.2583
  197MOL0     H26540   9.135   0.083   7.785 -0.3300  1.7361  0.4570
  197MOL0     H26541   9.161   0.091   7.617 -1.6801  0.6424  0.2102
  197MOL0     H26542   9.316  -0.043   7.692  2.8308  0.0105  0.2035
  197MOL0     H26543   9.406   0.106   7.654  3.9977 -0.6487  2.0135
  197MOL0     H26544   9.304   0.119   7.926  0.5518 -1.2691  3.0699
  197MOL0     H26545   9.477   0.102   7.888  0.8973 -3.1099  3.3896
  197MOL0     H26546   9.594  -0.062   8.033  0.0980  1.2327 -0.3598
  197MOL0     H26547   9.636  -0.338   8.133  1.8304  0.0119 -0.7018
  197MOL0     H26548   9.498  -0.444   8.099 -0.8795 -0.9784 -2.9019
  197MOL0     H26549   9.562  -0.426   7.847  0.4051 -0.4834 -1.2990
  197MOL0     H26550   9.651  -0.531   7.947 -0.0856  0.1234  0.8893
  197MOL0     H26551   9.823  -0.326   7.979  0.5157 -1.0132 -0.6371
  197MOL0     H26552   9.732  -0.245   7.853 -0.1409 -0.4254 -0.5804
  197MOL0     H26553   9.858  -0.517   7.797  2.2472  1.1264 -1.1795
  197MOL0     H26554   9.956  -0.376   7.809 -0.1648 -1.2744  0.3557
  197MOL0     H26555  10.063  -0.347   7.640 -0.3602  1.1089  0.4036
  197MOL0     H26556  10.259  -0.434   7.354 -2.3535 -0.3849 -0.9913
  197MOL0     H26557  10.273  -0.266   7.412  2.3810 -0.8504 -0.1892
  197MOL0     H26558  10.257  -0.397   7.532 -2.9158  2.4116  0.7249
  197MOL0     H26559   9.994  -0.578   6.882 -1.0748 -1.4040 -1.2299
  197MOL0     H26560  10.076  -0.583   6.656  1.5782 -2.0371  1.8999
  197MOL0     H26561  10.128  -0.536   6.436 -0.9841  0.0211 -0.0117
  197MOL0     H26562  10.226  -0.420   6.341 -0.3001  2.0825  1.0140
  197MOL0     H26563  10.349  -0.577   6.573 -1.5386  0.2618 -0.1984
  197MOL0     H26564  10.340  -0.647   6.416 -4.0995  0.1290  0.5881
  197MOL0     H26565  10.484  -0.393   6.479  1.2415 -0.4977  1.0055
  197MOL0     H26566  10.465  -0.462   6.315 -0.5574 -0.8674 -0.1102
  197MOL0     H26567  10.610  -0.615   6.531  0.3700 -2.9019 -0.5723
  197MOL0     H26568  10.588  -0.668   6.377 -0.1607  0.9261  0.5848
  197MOL0     H26569  10.729  -0.402   6.365  1.1044  0.3404  0.7128
  197MOL0     H26570  10.768  -0.544   6.281 -0.4295  0.7309 -0.2952
  197MOL0     H26571  10.807  -0.524   6.576  0.7713  1.5455  1.0989
  197MOL0     H26572  10.870  -0.650   6.473 -0.5072  0.5396 -0.6249
  197MOL0     H26573  10.965  -0.373   6.496  1.8891  0.4207 -3.2312
  197MOL0     H26574  10.986  -0.455   6.342  0.7092  0.6537 -0.6946
  197MOL0     H26575  11.138  -0.614   6.444  0.8858 -0.7652  1.9232
  197MOL0     H26576  11.057  -0.589   6.601 -0.0580  2.5324  1.0957
  197MOL0     H26577  10.214  -0.165   6.703 -0.7477  0.9232  3.2003
  197MOL0     H26578  10.144  -0.173   6.926 -0.2683 -0.4304 -0.3915
  197MOL0     H26579   9.814  -0.376   7.219 -0.2876  1.4641 -0.1357
  197MOL0     H26580   9.701  -0.383   7.417  0.3607 -0.9124  1.2470
  197MOL0     H26581   8.468   0.629   7.582 -0.5219  1.5007 -1.1844
  197MOL0     H26582   8.264   0.748   7.686  0.7929  1.0352  0.4482
  197MOL0     H26583   7.974   0.709   8.258 -1.2161 -0.1874 -0.1800
  197MOL0     H26584   7.796   0.863   8.346  1.2970 -1.2186  0.9274
  197MOL0     H26585   7.755   1.216   8.389  1.2537  2.3646  1.0573
  197MOL0     H26586   7.898   1.218   8.289 -0.3444  1.1759  0.9929
  197MOL0     H26587   7.746   1.415   8.323  0.2376  1.6484 -0.3860
  197MOL0     H26588   7.622   1.318   8.224  0.8576  0.4223  0.1714
  197MOL0     H26589   7.768   1.322   8.026 -2.1949  0.8753  0.4596
  197MOL0     H26590   7.896   1.400   8.110 -0.2161 -0.2369  0.9532
  197MOL0     H26591   7.805   1.570   7.981  0.4932 -2.2891 -0.8075
  197MOL0     H26592   7.740   1.606   8.140  1.6813 -2.1286  2.3361
  197MOL0     H26593   7.404   1.511   7.882  0.0605  2.6029  0.6587
  197MOL0     H26594   7.886   1.114   8.016 -5.6648 -0.2587  1.2941
  197MOL0     H26595   8.053   0.970   7.937  0.6710 -1.9267 -0.2907
  198MOL0     O26596   1.156   2.906   2.617 -0.7882 -0.4290 -0.0134
  198MOL0     C26597   1.103   2.961   2.715 -0.0760  0.4519  0.0001
  198MOL0     O26598   1.144   2.937   2.839 -0.5029 -0.2974 -0.6257
  198MOL0     C26599   1.253   2.857   2.863  0.0250  0.3141  0.3638
  198MOL0     C26600   1.390   2.884   2.839 -1.0664  0.2891  0.8788
  198MOL0     C26601   1.486   2.785   2.879  0.0631 -0.1074  1.4663
  198MOL0     C26602   1.455   2.663   2.937  0.7353 -0.0226  1.1213
  198MOL0     O26603   1.563   2.579   2.945  0.0636 -0.1178  0.2605
  198MOL0     C26604   1.534   2.437   2.978  0.7048  0.0682 -0.3060
  198MOL0     C26605   1.666   2.351   2.979  0.5678 -0.3308  0.2747
  198MOL0     C26606   1.791   2.412   3.045 -0.0927 -0.7163  0.7540
  198MOL0     C26607   1.871   2.486   2.939  0.3241  0.3605  0.1021
  198MOL0     C26608   1.975   2.586   3.001 -0.1788  0.2660 -0.6443
  198MOL0     C26609   2.071   2.527   3.105 -0.0742  0.0421 -0.8840
  198MOL0     C26610   2.206   2.604   3.117  0.3576  0.0610  0.1588
  198MOL0     C26611   2.285   2.572   3.244 -0.0234 -0.4805 -0.8041
  198MOL0     N26612   2.337   2.430   3.248  0.5717 -0.4435  0.4053
  198MOL0     C26613   2.317   2.349   3.351  0.3973 -0.0147  0.7978
  198MOL0     C26614   2.396   2.245   3.301  0.0146 -0.6065 -0.1321
  198MOL0     C26615   2.426   2.109   3.367 -0.2391  0.6634 -0.3532
  198MOL0     C26616   2.578   2.083   3.381 -0.7585  0.5224 -0.1723
  198MOL0     C26617   2.647   2.196   3.456  0.0674 -0.1776  0.3846
  198MOL0     C26618   2.810   2.188   3.461 -0.1095  0.8942 -1.0879
  198MOL0     O26619   2.857   2.296   3.550 -0.7481 -0.2113 -0.0918
  198MOL0     C26620   2.988   2.330   3.532  0.2016  0.5841 -0.1597
  198MOL0     C26621   3.081   2.264   3.453  0.8839  0.1164  0.1622
  198MOL0     C26622   3.220   2.312   3.450  0.1159 -0.7769  0.5591
  198MOL0     C26623   3.314   2.244   3.343 -0.0998 -0.2043 -0.3309
  198MOL0     C26624   3.263   2.417   3.534 -0.3126  0.3145  0.5155
  198MOL0     C26625   3.398   2.463   3.539 -0.2226  0.2501  0.0836
  198MOL0     O26626   3.421   2.589   3.579 -0.0611 -0.3327 -0.1812
  198MOL0     C26627   3.537   2.637   3.634  0.8679 -0.4501 -0.7446
  198MOL0     C26628   3.667   2.605   3.591  1.0364 -1.1573 -0.5850
  198MOL0     C26629   3.777   2.662   3.653  0.2426 -0.8153  0.0034
  198MOL0     C26630   3.755   2.750   3.764  0.4909  0.7488  0.3339
  198MOL0     O26631   3.863   2.805   3.831  0.7433  0.8160 -0.1431
  198MOL0     C26632   3.960   2.870   3.743  0.1525  0.1204 -0.0543
  198MOL0     C26633   4.053   2.952   3.827  0.7368 -1.4332 -0.0835
  198MOL0     C26634   4.103   3.070   3.736 -0.2398 -0.7689  0.3070
  198MOL0     C26635   4.146   3.025   3.594 -0.4223  1.2085 -0.9421
  198MOL0     C26636   4.222   3.117   3.505 -0.1761  0.4221 -0.2156
  198MOL0     C26637   4.137   3.232   3.452  0.2070 -0.1231  0.4894
  198MOL0     C26638   4.203   3.311   3.343  0.1608 -0.9012 -0.5009
  198MOL0     C26639   4.255   3.227   3.222  0.1388  0.6197 -0.2865
  198MOL0    Cl26640   4.127   3.134   3.121  0.0710  0.5253  0.0334
  198MOL0     C26641   3.633   2.790   3.795  0.3977 -0.4076 -0.8240
  198MOL0     C26642   3.523   2.735   3.731 -0.1849  0.0958 -0.4604
  198MOL0     O26643   3.488   2.386   3.509  1.1561  0.0081  0.8427
  198MOL0     C26644   3.162   2.473   3.618  0.5965  0.1444 -0.2295
  198MOL0     C26645   3.027   2.436   3.607 -0.1055 -0.8157  0.3826
  198MOL0     N26646   2.452   2.282   3.190 -0.3064  0.0154  0.5548
  198MOL0     N26647   2.413   2.392   3.149 -0.6689 -0.1427  0.1109
  198MOL0     C26648   1.317   2.633   2.957  0.2238  0.6981 -0.0309
  198MOL0     C26649   1.219   2.725   2.918  0.7042 -0.2465  0.2589
  198MOL0     C26650   0.989   3.053   2.693  0.4073 -0.9222  1.0220
  198MOL0     C26651   0.889   3.017   2.598 -0.3590 -0.7867  0.3577
  198MOL0     C26652   0.768   3.083   2.582  0.0991 -0.2272  0.0093
  198MOL0     C26653   0.748   3.201   2.653 -0.6599  0.0562 -0.3511
  198MOL0     O26654   0.632   3.273   2.641  0.2778 -1.1257 -0.6975
  198MOL0     C26655   0.515   3.236   2.575  0.1834 -0.8382 -0.1189
  198MOL0     C26656   0.489   3.324   2.454 -0.6757  0.0609  0.5395
  198MOL0     C26657   0.583   3.275   2.341  0.3284  0.0820 -0.2930
  198MOL0     C26658   0.529   3.330   2.204 -0.2624  0.6439  0.3187
  198MOL0     C26659   0.415   3.248   2.159  0.4571 -0.1289  0.2646
  198MOL0     C26660   0.325   3.173   2.135  0.2594 -0.9239 -0.1615
  198MOL0     C26661   0.837   3.240   2.752 -1.4141 -0.6227  0.6290
  198MOL0     C26662   0.959   3.171   2.764  0.2586 -0.5983  0.3693
  198MOL0     H26663   1.420   2.972   2.784 -0.2441  0.2304  1.2228
  198MOL0     H26664   1.592   2.806   2.866  0.1153 -0.3031  1.5803
  198MOL0     H26665   1.488   2.435   3.078 -0.6399  2.0150 -0.8164
  198MOL0     H26666   1.459   2.391   2.913  2.9433  1.0068 -3.7873
  198MOL0     H26667   1.647   2.259   3.035 -4.7019  0.2647 -0.0535
  198MOL0     H26668   1.701   2.323   2.879  0.9788 -0.1422  0.3656
  198MOL0     H26669   1.742   2.471   3.124 -0.3406 -1.8299  1.4484
  198MOL0     H26670   1.842   2.326   3.090 -3.9377 -2.1593  2.8414
  198MOL0     H26671   1.919   2.410   2.877 -1.1758  1.1979 -2.2054
  198MOL0     H26672   1.804   2.548   2.878  0.6113 -0.3889 -0.9989
  198MOL0     H26673   2.046   2.626   2.927  1.6170  0.3563  1.0474
  198MOL0     H26674   1.927   2.670   3.052  0.0294 -1.1060  1.9646
  198MOL0     H26675   2.017   2.534   3.200  4.3783  0.3903  1.8850
  198MOL0     H26676   2.104   2.425   3.088 -0.7337 -0.1434 -1.1092
  198MOL0     H26677   2.269   2.571   3.034 -0.3367 -2.6370  0.6137
  198MOL0     H26678   2.196   2.713   3.106 -0.9144  0.0488  0.9178
  198MOL0     H26679   2.220   2.598   3.327 -1.5784 -3.8728 -0.8094
  198MOL0     H26680   2.368   2.643   3.256 -1.4806  1.1537  0.1461
  198MOL0     H26681   2.251   2.365   3.436  0.0003  1.0811  0.3036
  198MOL0     H26682   2.369   2.108   3.460 -1.4826 -2.8281 -0.9870
  198MOL0     H26683   2.372   2.036   3.305 -3.4307  2.8263 -0.3503
  198MOL0     H26684   2.631   2.093   3.286  0.0115  2.8890  0.4450
  198MOL0     H26685   2.599   1.987   3.430  1.5074  0.0094 -1.9698
  198MOL0     H26686   2.600   2.218   3.552  0.0108  1.5293 -0.0126
  198MOL0     H26687   2.631   2.284   3.394 -0.4914 -0.9888 -0.6742
  198MOL0     H26688   2.846   2.210   3.360  0.8263  3.8457 -0.2240
  198MOL0     H26689   2.833   2.089   3.501  0.3556  1.1235 -0.7782
  198MOL0     H26690   3.054   2.179   3.392  2.8886  0.9331 -2.0504
  198MOL0     H26691   3.384   2.316   3.299  1.1338 -0.8313  0.5176
  198MOL0     H26692   3.375   2.172   3.398  1.5028  1.3629  0.0618
  198MOL0     H26693   3.250   2.192   3.271 -2.1377 -0.4106  1.5427
  198MOL0     H26694   3.683   2.532   3.512 -0.2788 -2.4614  0.3138
  198MOL0     H26695   3.873   2.635   3.611 -0.3754 -1.2793 -1.1639
  198MOL0     H26696   4.015   2.807   3.672  1.5820  0.6879  0.4998
  198MOL0     H26697   3.887   2.919   3.677  0.7607 -2.9456 -3.3267
  198MOL0     H26698   4.005   2.998   3.914  3.2897  2.1493 -0.3585
  198MOL0     H26699   4.135   2.893   3.868  2.0784  1.9650  2.6079
  198MOL0     H26700   4.185   3.121   3.788 -0.0592 -1.2240  0.4710
  198MOL0     H26701   4.023   3.143   3.719 -1.1482 -1.8930 -0.4667
  198MOL0     H26702   4.210   2.936   3.598 -4.3337 -1.9121 -1.7273
  198MOL0     H26703   4.060   2.984   3.540  0.2223  0.9026 -1.7633
  198MOL0     H26704   4.267   3.055   3.427  2.5660  2.4289 -0.3794
  198MOL0     H26705   4.309   3.157   3.557  0.8700  0.5568 -1.9907
  198MOL0     H26706   4.057   3.175   3.404  0.5216  0.5531 -0.8776
  198MOL0     H26707   4.091   3.299   3.525  0.6332  1.4511 -0.6172
  198MOL0     H26708   4.284   3.367   3.390 -0.6608 -0.4970  0.4816
  198MOL0     H26709   4.127   3.378   3.303  2.0827  0.8778 -1.3316
  198MOL0     H26710   4.342   3.165   3.246  1.5321  3.6943  3.8640
  198MOL0     H26711   4.292   3.304   3.153  0.4233  1.9205  1.2606
  198MOL0     H26712   3.622   2.853   3.883  1.6065 -0.8414 -0.3394
  198MOL0     H26713   3.426   2.761   3.771  0.4687  1.5973  0.2686
  198MOL0     H26714   3.197   2.548   3.688 -0.1415  2.2475 -2.0073
  198MOL0     H26715   2.959   2.478   3.681 -0.6981 -1.4302  0.2008
  198MOL0     H26716   1.294   2.532   2.992  3.9666 -0.3642 -0.1480
  198MOL0     H26717   1.114   2.705   2.935  1.1450 -1.5354  1.7809
  198MOL0     H26718   0.900   2.930   2.534 -1.9136 -0.8306  0.1109
  198MOL0     H26719   0.700   3.041   2.508 -0.6155  1.8462 -0.5745
  198MOL0     H26720   0.508   3.129   2.555  0.7206 -1.3059  1.9249
  198MOL0     H26721   0.431   3.272   2.636  2.2377  2.8741  0.8130
  198MOL0     H26722   0.501   3.429   2.485 -0.8172 -0.4064  2.2754
  198MOL0     H26723   0.384   3.308   2.427  0.3702 -0.5816 -3.9675
  198MOL0     H26724   0.585   3.165   2.342  0.7812  0.0952 -0.0522
  198MOL0     H26725   0.678   3.325   2.359 -0.6534  1.0578  2.6216
  198MOL0     H26726   0.602   3.319   2.123 -2.0522 -0.9268 -1.1892
  198MOL0     H26727   0.503   3.436   2.206 -1.3424  0.3869  0.2567
  198MOL0     H26728   0.238   3.119   2.104 -1.4899  1.7169 -0.1586
  198MOL0     H26729   0.820   3.324   2.818  2.5020  0.0595  0.9860
  198MOL0     H26730   1.019   3.195   2.851  2.1082  0.0431 -1.0189
  199MOL0     O26731  11.176   8.230   6.422  0.4879 -0.4086 -0.4263
  199MOL0     C26732  11.126   8.275   6.325  0.0231  0.0481  1.2151
  199MOL0     O26733  11.015   8.224   6.248 -0.0234  0.5358 -0.0167
  199MOL0     C26734  10.932   8.140   6.314 -0.7182 -0.6208  0.0717
  199MOL0     C26735  10.981   8.010   6.343  0.2178  0.3754 -0.4105
  199MOL0     C26736  10.891   7.919   6.404  0.2768  0.1609  0.2951
  199MOL0     C26737  10.767   7.956   6.443  0.3431 -0.8746  0.4005
  199MOL0     O26738  10.694   7.870   6.505  0.0125 -0.0874 -0.0808
  199MOL0     C26739  10.557   7.907   6.560 -0.5831  0.0048 -0.3141
  199MOL0     C26740  10.509   7.781   6.621 -0.7427  0.6270 -0.2609
  199MOL0     C26741  10.382   7.796   6.693  0.2289  0.2977 -0.4623
  199MOL0     C26742  10.373   7.916   6.788  0.0269  0.1151  0.0571
  199MOL0     C26743  10.243   7.895   6.876  1.2096  0.7315  0.2358
  199MOL0     C26744  10.208   8.027   6.951 -0.3391 -0.2130  0.2759
  199MOL0     C26745  10.079   8.007   7.032 -0.7420  0.4812  0.2879
  199MOL0     C26746   9.957   7.992   6.951 -0.6337 -0.4183  0.6753
  199MOL0     N26747   9.927   8.118   6.877 -0.5148  0.0378  0.6700
  199MOL0     C26748   9.959   8.153   6.747  0.3461  0.6503 -0.4206
  199MOL0     C26749   9.895   8.268   6.712 -0.1126 -0.6034 -0.2088
  199MOL0     C26750   9.898   8.327   6.575  0.1441 -1.1168  0.5689
  199MOL0     C26751   9.789   8.284   6.476  1.3474  1.1710  0.3855
  199MOL0     C26752   9.645   8.353   6.500 -0.1141 -0.1683  0.2738
  199MOL0     C26753   9.655   8.494   6.437  0.0133 -0.7576  0.2837
  199MOL0     O26754   9.520   8.549   6.438 -0.1067 -0.5576 -0.1269
  199MOL0     C26755   9.440   8.548   6.330 -0.5370  0.7878 -0.3810
  199MOL0     C26756   9.317   8.620   6.336 -0.8538  0.0234  0.1428
  199MOL0     C26757   9.239   8.631   6.224  0.6719  1.3157  1.0877
  199MOL0     C26758   9.119   8.714   6.248 -0.1275  0.1425 -0.2561
  199MOL0     C26759   9.278   8.563   6.107  0.1007 -0.1208 -0.7181
  199MOL0     C26760   9.207   8.582   5.983  0.5612 -0.4261 -0.6158
  199MOL0     O26761   9.222   8.482   5.895  0.1102 -0.0287 -0.3522
  199MOL0     C26762   9.181   8.495   5.770 -0.7357 -0.6912  0.9986
  199MOL0     C26763   9.260   8.579   5.686 -0.0378  0.0362  0.0226
  199MOL0     C26764   9.227   8.580   5.546 -0.6383 -0.0022 -0.8613
  199MOL0     C26765   9.121   8.493   5.494 -1.3812  0.5255 -0.5203
  199MOL0     O26766   9.087   8.498   5.365 -0.0097 -0.0230  0.0246
  199MOL0     C26767   9.158   8.587   5.267  0.1274 -0.1783 -0.8509
  199MOL0     C26768   9.130   8.533   5.128 -0.4639 -1.0798  0.2667
  199MOL0     C26769   9.155   8.398   5.095 -0.0202  0.1973  1.2539
  199MOL0     C26770   9.280   8.337   5.153 -0.0205 -0.2643  0.0987
  199MOL0     C26771   9.272   8.188   5.146 -0.3633  0.2405 -0.9676
  199MOL0     C26772   9.232   8.134   5.008  0.5675 -0.2957  0.3512
  199MOL0     C26773   9.284   7.982   4.991 -0.2192 -0.1164 -0.1874
  199MOL0     C26774   9.199   7.882   5.059 -0.3653 -0.0263 -1.0633
  199MOL0    Cl26775   9.206   7.717   5.005 -0.4988 -0.8257  0.0479
  199MOL0     C26776   9.068   8.390   5.581 -0.2407  0.4500 -0.0929
  199MOL0     C26777   9.091   8.399   5.717 -0.4421  0.0788  0.3546
  199MOL0     O26778   9.147   8.689   5.963 -0.7235 -0.1184  1.0296
  199MOL0     C26779   9.381   8.470   6.110  0.1682  0.5299  1.1410
  199MOL0     C26780   9.465   8.467   6.216 -0.7044  0.0012 -0.0220
  199MOL0     N26781   9.820   8.306   6.831  0.2670 -0.1509 -1.3734
  199MOL0     N26782   9.841   8.212   6.924  0.0583 -0.1174  0.1820
  199MOL0     C26783  10.719   8.085   6.416  0.6442 -0.4753  0.7072
  199MOL0     C26784  10.797   8.176   6.346 -0.0001 -0.0746 -0.5826
  199MOL0     C26785  11.207   8.376   6.251 -0.9936 -0.1734 -0.4074
  199MOL0     C26786  11.158   8.429   6.123 -0.1482 -0.0196 -0.0640
  199MOL0     C26787  11.228   8.531   6.052 -0.1159  0.1248  0.2374
  199MOL0     C26788  11.355   8.566   6.097  0.2085 -0.2883 -1.4363
  199MOL0     O26789  11.423   8.654   6.017 -0.6422 -0.0679 -0.9602
  199MOL0     C26790  11.561   8.698   6.056  0.9296 -0.0667 -0.1233
  199MOL0     C26791  11.603   8.815   5.953 -0.2639 -0.3876 -0.5599
  199MOL0     C26792  11.657   8.764   5.814  0.7006 -0.2932 -0.9501
  199MOL0     C26793  11.568   8.685   5.727  0.3491 -0.1338  0.1117
  199MOL0     C26794  11.426   8.721   5.712 -0.2741  0.2242  0.4733
  199MOL0     C26795  11.315   8.751   5.693 -0.3732 -0.2923  0.2864
  199MOL0     C26796  11.400   8.524   6.223  0.3941  0.1669 -0.1898
  199MOL0     C26797  11.329   8.430   6.303 -0.5672  0.6520  0.2300
  199MOL0     H26798  11.079   7.979   6.311 -0.1887  0.2617 -1.5656
  199MOL0     H26799  10.927   7.822   6.440 -1.0033 -0.0037  1.2329
  199MOL0     H26800  10.560   7.983   6.639 -0.4157 -2.2313  1.9709
  199MOL0     H26801  10.495   7.942   6.477 -1.0817  2.8020  1.0935
  199MOL0     H26802  10.510   7.700   6.547 -0.8379 -0.5417  0.9849
  199MOL0     H26803  10.579   7.742   6.695 -0.8939 -0.5410 -0.7073
  199MOL0     H26804  10.311   7.808   6.610  1.2826 -1.2490 -1.6415
  199MOL0     H26805  10.349   7.703   6.739 -1.0366  1.5873  1.4015
  199MOL0     H26806  10.455   7.926   6.859  3.7475  1.2471 -3.9970
  199MOL0     H26807  10.357   8.009   6.733 -3.9475 -1.8397 -2.5780
  199MOL0     H26808  10.157   7.866   6.814  1.1477  2.4541 -0.5321
  199MOL0     H26809  10.253   7.818   6.953 -1.3526  1.3372  1.2576
  199MOL0     H26810  10.296   8.040   7.015  1.7637 -3.8844 -1.5151
  199MOL0     H26811  10.195   8.115   6.887 -0.6958  0.5049  1.3091
  199MOL0     H26812  10.095   7.916   7.090  0.0491 -0.6799 -1.6296
  199MOL0     H26813  10.062   8.087   7.103 -1.5383 -1.3624  2.2915
  199MOL0     H26814   9.878   7.966   7.022  0.5063 -2.7341  1.1985
  199MOL0     H26815   9.976   7.910   6.881  4.0784  0.4556  0.5380
  199MOL0     H26816  10.023   8.093   6.684 -1.0334 -3.0844  1.4078
  199MOL0     H26817   9.883   8.435   6.584  1.4137 -0.9173  0.4934
  199MOL0     H26818   9.994   8.303   6.527 -0.2218 -1.6744  0.0883
  199MOL0     H26819   9.777   8.176   6.485  2.2846  1.2192  2.7104
  199MOL0     H26820   9.811   8.312   6.372 -1.7408  0.2144 -0.6291
  199MOL0     H26821   9.620   8.361   6.606  0.0032  2.8750  0.1715
  199MOL0     H26822   9.570   8.291   6.450 -0.6263 -1.4056  2.4805
  199MOL0     H26823   9.700   8.489   6.338 -0.4270 -2.4931  0.1373
  199MOL0     H26824   9.704   8.572   6.496 -3.7478  1.8015  0.4071
  199MOL0     H26825   9.308   8.697   6.411  1.0170  0.1197  0.3105
  199MOL0     H26826   9.129   8.812   6.201 -0.8513  0.9905  1.3073
  199MOL0     H26827   9.030   8.657   6.218  0.3775 -0.9181  0.1949
  199MOL0     H26828   9.102   8.736   6.353  1.2619  3.4336 -0.6227
  199MOL0     H26829   9.334   8.649   5.724  2.6917 -2.1420 -0.9159
  199MOL0     H26830   9.280   8.651   5.483  2.0658 -2.5621 -1.6770
  199MOL0     H26831   9.112   8.686   5.269  2.3447  0.9407  1.9396
  199MOL0     H26832   9.266   8.598   5.284  0.2466 -0.4694 -1.3832
  199MOL0     H26833   9.022   8.549   5.123 -0.0815  1.8284 -1.1190
  199MOL0     H26834   9.178   8.603   5.059 -2.5846 -0.5182 -0.7213
  199MOL0     H26835   9.163   8.393   4.986  4.7477 -1.8886  1.4515
  199MOL0     H26836   9.075   8.331   5.129  0.7559 -0.4957  1.7577
  199MOL0     H26837   9.362   8.373   5.090 -0.7754  2.7817  0.7072
  199MOL0     H26838   9.300   8.368   5.256 -1.5476 -0.6473  0.5331
  199MOL0     H26839   9.200   8.168   5.226 -2.4382 -0.4631 -2.9266
  199MOL0     H26840   9.371   8.154   5.178  0.0639 -0.8938 -3.2943
  199MOL0     H26841   9.123   8.139   4.998  0.3966 -2.2906  0.8670
  199MOL0     H26842   9.267   8.198   4.927 -1.1522  2.6305  1.7454
  199MOL0     H26843   9.389   7.975   5.020 -0.4996 -0.5620  0.7347
  199MOL0     H26844   9.287   7.960   4.884 -1.8351  1.4364 -0.6027
  199MOL0     H26845   9.094   7.912   5.059 -0.7181 -0.8939  2.0060
  199MOL0     H26846   9.217   7.869   5.166  0.5462 -3.1589 -1.4768
  199MOL0     H26847   8.994   8.314   5.556 -0.7114  0.8448  0.0806
  199MOL0     H26848   9.033   8.320   5.763 -0.3636 -2.4421 -3.3962
  199MOL0     H26849   9.409   8.409   6.025 -1.4553  0.8428  0.3478
  199MOL0     H26850   9.553   8.404   6.211  0.2271  1.3880 -2.9591
  199MOL0     H26851  10.619   8.117   6.443 -0.1463 -1.4402 -0.9226
  199MOL0     H26852  10.752   8.272   6.325  3.6547  1.8233 -0.4581
  199MOL0     H26853  11.053   8.401   6.114  0.0236 -1.2342  1.3443
  199MOL0     H26854  11.184   8.570   5.961  3.4171  0.4628 -1.4943
  199MOL0     H26855  11.558   8.731   6.160 -0.3285 -2.4225  0.6592
  199MOL0     H26856  11.630   8.613   6.051 -0.4278 -1.3365  1.5949
  199MOL0     H26857  11.673   8.891   5.988  0.9234  0.7814 -4.8127
  199MOL0     H26858  11.511   8.869   5.930  0.6634  1.1303 -0.8156
  199MOL0     H26859  11.747   8.702   5.827  0.6639 -1.1310 -3.8843
  199MOL0     H26860  11.694   8.852   5.762  1.5217  0.6099  1.0575
  199MOL0     H26861  11.564   8.588   5.776  1.0096  0.4824  1.4311
  199MOL0     H26862  11.618   8.681   5.630  2.4119  2.9712  0.8897
  199MOL0     H26863  11.209   8.769   5.702 -0.6949 -1.8856 -0.0107
  199MOL0     H26864  11.496   8.549   6.267  1.4308 -1.5869 -1.3340
  199MOL0     H26865  11.380   8.383   6.387 -2.2817  0.0002  0.9433
  200MOL0     O26866   9.381   7.512   7.151 -1.1212  0.4541  0.0741
  200MOL0     C26867   9.276   7.473   7.200 -0.4435 -0.2456  0.2917
  200MOL0     O26868   9.211   7.523   7.315  0.3847  0.4391  0.3534
  200MOL0     C26869   9.271   7.617   7.397  0.4318 -0.3719  0.7583
  200MOL0     C26870   9.187   7.723   7.441  0.3260 -0.2372  0.1537
  200MOL0     C26871   9.237   7.825   7.516 -0.2158 -0.8741 -0.8319
  200MOL0     C26872   9.372   7.825   7.562 -1.4527 -1.0284 -0.4897
  200MOL0     O26873   9.419   7.932   7.632 -0.6419 -0.8759  0.0183
  200MOL0     C26874   9.495   7.899   7.752  0.9079  1.2674 -0.6572
  200MOL0     C26875   9.480   8.027   7.849 -0.5176  0.4092 -1.0356
  200MOL0     C26876   9.342   8.052   7.888 -0.0825  0.3477 -0.6945
  200MOL0     C26877   9.335   8.184   7.977  0.9225  0.2424  0.3031
  200MOL0     C26878   9.195   8.223   8.010  0.8279  0.8808 -0.3868
  200MOL0     C26879   9.141   8.179   8.154  0.5525  0.4588  0.4710
  200MOL0     C26880   9.066   8.283   8.226  0.2964  0.8596  0.5069
  200MOL0     C26881   8.937   8.321   8.153  0.5369 -0.5583 -1.5311
  200MOL0     N26882   8.862   8.410   8.240  0.0590 -0.7125  0.4482
  200MOL0     C26883   8.730   8.400   8.290  0.6185 -1.1552 -0.8717
  200MOL0     C26884   8.722   8.516   8.357  0.4248  0.2048 -0.5384
  200MOL0     C26885   8.601   8.557   8.445  0.3575 -0.2037 -0.5997
  200MOL0     C26886   8.464   8.497   8.405  0.0842  0.9951 -0.1816
  200MOL0     C26887   8.356   8.538   8.525 -1.1190  0.9736  1.0151
  200MOL0     C26888   8.223   8.461   8.521 -0.5305 -0.3151  0.8503
  200MOL0     O26889   8.151   8.444   8.649 -0.1281 -0.3160  0.5481
  200MOL0     C26890   8.061   8.532   8.689  0.1508 -0.4866 -0.8202
  200MOL0     C26891   8.028   8.651   8.617 -0.1811 -0.2454 -0.1540
  200MOL0     C26892   7.923   8.741   8.653  0.7808  0.6411  0.1639
  200MOL0     C26893   7.909   8.865   8.565 -1.0449 -1.0277  0.2391
  200MOL0     C26894   7.847   8.702   8.768  1.1859 -1.2510 -0.3678
  200MOL0     C26895   7.730   8.780   8.814 -0.6236  0.3342  1.4593
  200MOL0     O26896   7.648   8.715   8.902  0.5503 -0.3290 -0.1043
  200MOL0     C26897   7.581   8.788   8.998  0.7251  0.5862  0.2098
  200MOL0     C26898   7.640   8.874   9.093  0.2845 -0.7795 -0.0488
  200MOL0     C26899   7.563   8.944   9.190 -0.1175 -0.0561 -0.2728
  200MOL0     C26900   7.419   8.923   9.192 -1.1222  1.0756 -0.2588
  200MOL0     O26901   7.354   8.986   9.285  0.5682  0.3074  0.1420
  200MOL0     C26902   7.228   8.933   9.328  0.4989 -0.1508  0.5291
  200MOL0     C26903   7.114   9.030   9.288  0.0691 -0.8438 -0.1996
  200MOL0     C26904   7.115   9.156   9.379 -0.5651 -0.0746  0.3219
  200MOL0     C26905   6.968   9.177   9.418 -0.2438  0.5103  0.4302
  200MOL0     C26906   6.944   9.307   9.489 -0.0116  0.2345 -0.4255
  200MOL0     C26907   6.808   9.302   9.555  0.1884 -0.3419  1.2137
  200MOL0     C26908   6.780   9.435   9.625  0.1946  0.6724 -0.0106
  200MOL0     C26909   6.663   9.430   9.724  0.0296 -0.1817 -0.2408
  200MOL0    Cl26910   6.611   9.265   9.770 -0.0794 -0.8670 -0.3826
  200MOL0     C26911   7.357   8.842   9.087 -0.7936 -0.0911 -0.0617
  200MOL0     C26912   7.439   8.773   8.997 -0.4030 -0.2534 -0.2110
  200MOL0     O26913   7.719   8.892   8.769  0.2176 -0.3182 -0.4293
  200MOL0     C26914   7.892   8.591   8.851  0.2620 -0.4123  0.1763
  200MOL0     C26915   7.984   8.505   8.809 -0.1481  0.4966 -0.0092
  200MOL0     N26916   8.839   8.592   8.350  0.0896  0.5729 -0.6249
  200MOL0     N26917   8.920   8.528   8.283 -0.2354 -0.2406 -0.2339
  200MOL0     C26918   9.456   7.727   7.505  0.1808 -0.9739 -1.0240
  200MOL0     C26919   9.405   7.620   7.430 -0.4809 -0.4158 -0.1705
  200MOL0     C26920   9.198   7.383   7.117  0.1695  0.1322  0.5445
  200MOL0     C26921   9.249   7.327   6.994  0.2380 -0.2745 -0.3879
  200MOL0     C26922   9.180   7.215   6.936 -0.8317  0.6765  1.0546
  200MOL0     C26923   9.062   7.171   6.992 -0.2074  1.0035  1.4199
  200MOL0     O26924   9.002   7.066   6.925  0.8003  0.2581  0.3456
  200MOL0     C26925   8.972   6.957   7.014  0.0307  0.3250  0.2863
  200MOL0     C26926   9.085   6.912   7.104  0.6597 -0.2555 -0.7928
  200MOL0     C26927   9.069   6.758   7.153 -0.5267  0.5492 -0.5219
  200MOL0     C26928   9.141   6.729   7.280  0.8886  0.6475  0.9825
  200MOL0     C26929   9.156   6.586   7.311 -0.9105 -1.0286 -0.3171
  200MOL0     C26930   9.186   6.475   7.336  1.5815 -0.1010 -0.3741
  200MOL0     C26931   9.007   7.233   7.104 -0.0254 -0.3332  0.7149
  200MOL0     C26932   9.084   7.330   7.168  0.0567  0.9573  0.5277
  200MOL0     H26933   9.085   7.717   7.406  0.6998  0.5948 -1.1706
  200MOL0     H26934   9.171   7.906   7.544  0.7067 -0.9663  1.8916
  200MOL0     H26935   9.456   7.816   7.812  0.8593  0.2986 -1.9759
  200MOL0     H26936   9.595   7.874   7.715 -0.1128 -1.3322 -1.9426
  200MOL0     H26937   9.557   8.033   7.927 -0.9833  0.5377 -0.5807
  200MOL0     H26938   9.506   8.116   7.791  2.5377  0.2231 -0.1521
  200MOL0     H26939   9.275   8.066   7.803 -0.6179  1.4856 -0.1041
  200MOL0     H26940   9.299   7.973   7.950  0.4221 -1.5565 -2.6409
  200MOL0     H26941   9.395   8.174   8.068 -0.9987  0.4643  1.6396
  200MOL0     H26942   9.377   8.264   7.915  2.3582  1.1466  2.3462
  200MOL0     H26943   9.183   8.331   7.998  1.3356  0.9749 -0.0559
  200MOL0     H26944   9.128   8.175   7.938  0.5075 -0.7053  0.8982
  200MOL0     H26945   9.076   8.091   8.145 -0.0864  0.7642  1.8142
  200MOL0     H26946   9.224   8.151   8.219 -0.3869 -1.8321  0.7895
  200MOL0     H26947   9.044   8.240   8.324  1.3783 -1.5095 -0.2281
  200MOL0     H26948   9.126   8.374   8.241  0.0044  1.0811  0.3304
  200MOL0     H26949   8.874   8.233   8.140 -0.6805  0.3139 -1.6275
  200MOL0     H26950   8.961   8.365   8.056  2.0066 -2.0370 -1.8850
  200MOL0     H26951   8.654   8.330   8.256 -2.8126  1.8069  0.0575
  200MOL0     H26952   8.625   8.528   8.548  0.1822  1.1749 -0.1403
  200MOL0     H26953   8.584   8.665   8.456 -2.7135 -0.6133 -0.3183
  200MOL0     H26954   8.494   8.392   8.412  2.7630  1.7255  0.2188
  200MOL0     H26955   8.433   8.530   8.305  0.6881  2.3693  0.0773
  200MOL0     H26956   8.321   8.641   8.533 -2.2186  1.0706 -3.0000
  200MOL0     H26957   8.408   8.501   8.614  0.8841 -1.0998 -0.8870
  200MOL0     H26958   8.242   8.359   8.485  1.5192  0.5831 -0.8210
  200MOL0     H26959   8.169   8.519   8.446  0.6245  0.1469  0.3514
  200MOL0     H26960   8.084   8.688   8.532 -0.4871  2.3587  0.6823
  200MOL0     H26961   7.804   8.875   8.535  0.0485  0.3413 -3.8124
  200MOL0     H26962   7.936   8.953   8.623 -2.3999 -1.3348  1.3982
  200MOL0     H26963   7.961   8.844   8.471 -1.5197  2.2273 -0.8734
  200MOL0     H26964   7.745   8.902   9.086  0.3312  0.0478  2.9119
  200MOL0     H26965   7.615   9.010   9.259  1.1991 -2.1559  0.8646
  200MOL0     H26966   7.217   8.825   9.313 -0.9219 -0.4481  3.1371
  200MOL0     H26967   7.227   8.930   9.437 -1.9447 -1.8115  0.5367
  200MOL0     H26968   7.114   9.042   9.180 -1.0242 -1.9466 -0.3378
  200MOL0     H26969   7.021   8.976   9.307 -0.4791 -0.1609 -0.8831
  200MOL0     H26970   7.158   9.247   9.338 -1.1574  1.5177  2.9835
  200MOL0     H26971   7.170   9.146   9.473  0.3036  4.2752  0.4671
  200MOL0     H26972   6.905   9.170   9.329 -1.2991 -2.2450  1.2886
  200MOL0     H26973   6.943   9.104   9.495 -0.0644  1.6454  1.5906
  200MOL0     H26974   6.954   9.387   9.415 -1.6195 -0.2869 -1.2570
  200MOL0     H26975   7.019   9.326   9.566  0.0714  3.8191 -1.1991
  200MOL0     H26976   6.731   9.278   9.481 -1.7796  0.0392  3.0357
  200MOL0     H26977   6.808   9.218   9.625 -2.2063 -1.3029  0.1826
  200MOL0     H26978   6.762   9.515   9.553  1.4852 -0.0737 -1.2002
  200MOL0     H26979   6.866   9.459   9.689 -0.5287 -2.3997  2.3597
  200MOL0     H26980   6.572   9.481   9.690 -0.1603 -0.9033 -0.8428
  200MOL0     H26981   6.695   9.483   9.814 -0.5327  0.3820 -0.3603
  200MOL0     H26982   7.249   8.840   9.082 -1.0326 -2.7741  3.0122
  200MOL0     H26983   7.406   8.705   8.919  2.8495  0.0214 -1.9852
  200MOL0     H26984   7.839   8.563   8.942  3.9779  0.5175  2.8609
  200MOL0     H26985   8.015   8.420   8.869  1.5295  0.5268 -0.7742
  200MOL0     H26986   9.562   7.727   7.526 -0.0715  1.2390  0.6404
  200MOL0     H26987   9.465   7.536   7.398 -2.0317 -1.7635  0.3505
  200MOL0     H26988   9.331   7.376   6.942 -1.6732  3.0542 -0.5402
  200MOL0     H26989   9.216   7.177   6.841 -1.3710  1.6303  0.4538
  200MOL0     H26990   8.889   6.968   7.085  0.6181 -0.7059  1.1651
  200MOL0     H26991   8.937   6.880   6.945 -5.2859  2.3941  0.1633
  200MOL0     H26992   9.080   6.970   7.196  1.3117  0.9713 -1.5046
  200MOL0     H26993   9.176   6.932   7.046  0.9883 -0.1555 -0.2472
  200MOL0     H26994   9.104   6.694   7.071  0.2477  0.6163 -0.2504
  200MOL0     H26995   8.963   6.731   7.153 -0.8160  1.6400 -0.8884
  200MOL0     H26996   9.093   6.784   7.361  1.4803  0.7963  1.2363
  200MOL0     H26997   9.244   6.764   7.276  0.6367  1.3359 -0.4905
  200MOL0     H26998   9.203   6.371   7.355 -2.5209 -1.0758 -1.1562
  200MOL0     H26999   8.903   7.214   7.128 -1.1183  0.8579 -2.5095
  200MOL0     H27000   9.053   7.360   7.267 -1.8463  0.2813  0.1660
  201MOL0     O27001   3.507   0.365  10.853 -0.4336  0.3227 -0.1367
  201MOL0     C27002   3.510   0.487  10.830 -0.0178 -1.2365 -0.4685
  201MOL0     O27003   3.402   0.569  10.835 -0.1998 -0.1064 -0.3544
  201MOL0     C27004   3.283   0.520  10.873  0.1726 -0.0312  0.2590
  201MOL0     C27005   3.243   0.484  11.002 -0.3564  0.5244 -0.3522
  201MOL0     C27006   3.119   0.442  11.032 -0.0437  0.2599  0.4191
  201MOL0     C27007   3.025   0.442  10.935  0.0867  0.2475  1.2528
  201MOL0     O27008   2.900   0.390  10.962  0.1947  0.1287 -1.2037
  201MOL0     C27009   2.795   0.487  10.985  1.2021  0.4613  0.1235
  201MOL0     C27010   2.665   0.425  11.038 -0.9483 -0.0509  0.6243
  201MOL0     C27011   2.565   0.534  11.025  0.3784  0.2075 -0.3609
  201MOL0     C27012   2.431   0.452  11.024 -1.1261 -0.9191  0.1934
  201MOL0     C27013   2.302   0.532  11.043 -0.9969  0.5311  0.2969
  201MOL0     C27014   2.249   0.590  10.907  0.3620  0.3372 -0.4699
  201MOL0     C27015   2.109   0.651  10.923  0.2717 -0.2715 -0.2303
  201MOL0     C27016   2.059   0.741  10.808 -1.0309  0.1591 -0.7419
  201MOL0     N27017   1.921   0.784  10.829 -1.1636 -0.4512  0.6561
  201MOL0     C27018   1.891   0.884  10.921  0.1198 -0.1620  0.3352
  201MOL0     C27019   1.759   0.869  10.934 -0.2066  0.3691  0.7545
  201MOL0     C27020   1.679   0.953  11.036  0.9068  0.2980  0.4044
  201MOL0     C27021   1.533   0.912  11.028 -0.1015 -0.1994  0.7925
  201MOL0     C27022   1.445   0.985  11.132  0.3233 -0.4620  0.8991
  201MOL0     C27023   1.397   0.880  11.229  0.3830 -0.7345  0.1698
  201MOL0     O27024   1.298   0.802  11.170  0.5794  0.8054  0.3159
  201MOL0     C27025   1.170   0.841  11.158 -0.4364  0.2036 -0.0423
  201MOL0     C27026   1.091   0.912  11.248  0.7081 -0.7986  0.7590
  201MOL0     C27027   0.951   0.935  11.232 -0.0178 -1.0985  0.3371
  201MOL0     C27028   0.885   1.028  11.331 -0.4435  0.0629 -0.2227
  201MOL0     C27029   0.887   0.879  11.123  0.8110  0.5186  0.9402
  201MOL0     C27030   0.745   0.880  11.100  0.2856  0.4856 -0.3814
  201MOL0     O27031   0.667   0.848  11.209  0.2194 -0.0035  0.7179
  201MOL0     C27032   0.538   0.846  11.186  0.7406  0.8467  0.6513
  201MOL0     C27033   0.469   0.929  11.271  0.4716 -0.5063  0.0011
  201MOL0     C27034   0.331   0.940  11.263 -0.3925  0.0434 -0.1436
  201MOL0     C27035   0.254   0.857  11.177 -1.3635  0.0162  0.2807
  201MOL0     O27036   0.118   0.853  11.179  0.6398  0.2233  0.5936
  201MOL0     C27037   0.066   0.986  11.171 -0.5703  0.1723  0.7275
  201MOL0     C27038  -0.086   0.974  11.155 -0.2080  0.0767  0.3585
  201MOL0     C27039  -0.160   1.084  11.218 -0.4566 -0.3361 -0.2586
  201MOL0     C27040  -0.312   1.066  11.190  1.1245  0.8292  0.9122
  201MOL0     C27041  -0.398   1.177  11.225  0.8180 -0.0831 -0.5222
  201MOL0     C27042  -0.550   1.137  11.237  1.4539 -0.4925  0.7780
  201MOL0     C27043  -0.578   1.043  11.362  0.6510 -0.3651 -0.2471
  201MOL0     C27044  -0.724   1.014  11.388  0.2335  0.2087  0.1433
  201MOL0    Cl27045  -0.826   0.999  11.245  0.0840  0.0163 -0.3443
  201MOL0     C27046   0.324   0.753  11.098  0.7808  0.4031 -0.0441
  201MOL0     C27047   0.471   0.760  11.096 -0.3071  0.2053  0.0706
  201MOL0     O27048   0.703   0.902  10.984 -0.6133  0.6084 -0.4568
  201MOL0     C27049   0.967   0.808  11.031 -0.4792 -0.1788  0.0807
  201MOL0     C27050   1.102   0.783  11.047 -0.3089 -0.2366  0.2872
  201MOL0     N27051   1.710   0.772  10.850  0.3871 -0.5059 -0.3825
  201MOL0     N27052   1.803   0.724  10.778 -0.4854 -0.3595  0.4734
  201MOL0     C27053   3.058   0.472  10.802  0.3026 -0.3254 -0.4407
  201MOL0     C27054   3.182   0.512  10.778 -0.8111  0.6704  0.6850
  201MOL0     C27055   3.633   0.552  10.796 -0.8384 -0.0596  0.3697
  201MOL0     C27056   3.653   0.686  10.834 -0.2712  0.8388  0.0059
  201MOL0     C27057   3.780   0.744  10.823 -0.1660 -0.3595 -0.1749
  201MOL0     C27058   3.893   0.666  10.783 -0.3760 -0.7214 -0.2069
  201MOL0     O27059   4.017   0.720  10.773  0.2690  0.1845 -0.4340
  201MOL0     C27060   4.130   0.651  10.828  0.1947 -0.7113 -0.9395
  201MOL0     C27061   4.250   0.745  10.846  1.4205 -0.5966 -0.5167
  201MOL0     C27062   4.219   0.835  10.966  0.3480  0.0122 -0.3797
  201MOL0     C27063   4.340   0.920  11.000 -0.1313  1.1040 -0.6339
  201MOL0     C27064   4.450   0.840  11.047  0.5568 -1.2695  0.4185
  201MOL0     C27065   4.540   0.762  11.066  0.7059  0.9061  0.4269
  201MOL0     C27066   3.878   0.533  10.740 -0.0731 -0.0390  0.3061
  201MOL0     C27067   3.746   0.477  10.753 -0.6308  0.0379 -0.4290
  201MOL0     H27068   3.320   0.475  11.078 -0.4677  0.5812 -0.2323
  201MOL0     H27069   3.101   0.397  11.130  2.9270 -0.6763  0.6259
  201MOL0     H27070   2.826   0.569  11.051  1.7837  0.4608 -0.1350
  201MOL0     H27071   2.769   0.527  10.887  6.5060 -2.0593 -2.7342
  201MOL0     H27072   2.642   0.336  10.978  2.6306  0.2314 -1.4744
  201MOL0     H27073   2.681   0.393  11.141  0.7056 -1.0195  0.0913
  201MOL0     H27074   2.571   0.601  11.111 -1.4133  0.4162 -0.3621
  201MOL0     H27075   2.578   0.592  10.933 -0.0668  2.5064  0.9465
  201MOL0     H27076   2.424   0.389  10.935 -0.0372  1.0855 -1.4222
  201MOL0     H27077   2.429   0.390  11.114  1.2079  0.1393  1.0811
  201MOL0     H27078   2.236   0.453  11.078 -2.3526  2.1677  1.6149
  201MOL0     H27079   2.318   0.593  11.132  1.7417  1.3435 -0.6591
  201MOL0     H27080   2.320   0.666  10.875  0.9568  0.9135  2.0496
  201MOL0     H27081   2.234   0.508  10.836 -3.4644 -1.7518  2.3863
  201MOL0     H27082   2.038   0.568  10.916  2.2695 -1.9687 -1.7006
  201MOL0     H27083   2.096   0.699  11.020 -2.8143 -1.9864  0.3460
  201MOL0     H27084   2.085   0.683  10.719  3.4254  1.3166 -0.4470
  201MOL0     H27085   2.105   0.838  10.789 -3.6149  1.4646 -0.7660
  201MOL0     H27086   1.952   0.960  10.970 -0.7801 -0.1291  1.4423
  201MOL0     H27087   1.720   0.943  11.137 -0.4282  1.6044  1.1202
  201MOL0     H27088   1.708   1.051  10.998  1.4149 -0.4301 -1.1912
  201MOL0     H27089   1.512   0.805  11.034  1.3239 -0.5252  0.4473
  201MOL0     H27090   1.497   0.948  10.931 -0.9473  0.4150  1.3213
  201MOL0     H27091   1.362   1.035  11.082  1.6306  1.2473  0.3533
  201MOL0     H27092   1.495   1.061  11.193  1.1227  0.9343 -1.3988
  201MOL0     H27093   1.347   0.928  11.314  0.7201  0.8948 -0.5121
  201MOL0     H27094   1.476   0.822  11.277 -0.0362 -1.5715 -0.1324
  201MOL0     H27095   1.134   0.955  11.338 -0.6887  2.7487 -0.0873
  201MOL0     H27096   0.965   1.086  11.378 -1.2906  3.0566 -2.2389
  201MOL0     H27097   0.818   1.091  11.272 -3.3745 -2.7964 -0.2208
  201MOL0     H27098   0.824   0.973  11.403 -0.8841  1.6156  0.6150
  201MOL0     H27099   0.529   0.991  11.338 -1.1926  2.0606 -0.7448
  201MOL0     H27100   0.285   0.996  11.344  2.8352  1.8406  0.6167
  201MOL0     H27101   0.086   1.045  11.261  1.0228 -2.4280  2.1761
  201MOL0     H27102   0.096   1.036  11.078 -1.3860 -2.2067 -0.9191
  201MOL0     H27103  -0.097   0.979  11.046  0.4041  2.0027  0.3390
  201MOL0     H27104  -0.115   0.875  11.190  0.7120 -0.5391 -0.5482
  201MOL0     H27105  -0.111   1.178  11.192  0.0930 -0.5560 -0.0302
  201MOL0     H27106  -0.146   1.078  11.326 -1.5786  0.7890 -0.0315
  201MOL0     H27107  -0.310   1.058  11.081  1.1200 -6.8765  0.9590
  201MOL0     H27108  -0.350   0.979  11.244  0.0104  2.1605  2.3837
  201MOL0     H27109  -0.395   1.245  11.139  0.7216  2.5172  1.3959
  201MOL0     H27110  -0.362   1.242  11.305 -2.1000 -0.9348  1.6276
  201MOL0     H27111  -0.614   1.226  11.244  0.2048 -1.2542 -0.5665
  201MOL0     H27112  -0.593   1.089  11.149 -0.4735 -0.4526  1.6416
  201MOL0     H27113  -0.534   1.097  11.446  0.9092 -0.8817 -0.0485
  201MOL0     H27114  -0.531   0.946  11.348 -3.0340 -2.2061 -1.2930
  201MOL0     H27115  -0.762   1.096  11.449  0.6378  0.0221  0.6457
  201MOL0     H27116  -0.726   0.919  11.440 -0.3150 -0.0327 -0.3131
  201MOL0     H27117   0.272   0.690  11.027  3.4669 -0.6261 -1.2397
  201MOL0     H27118   0.520   0.694  11.026 -1.0954 -1.9181  1.4209
  201MOL0     H27119   0.916   0.755  10.951 -2.5688 -0.1440  1.3202
  201MOL0     H27120   1.157   0.724  10.974 -0.0886  1.8559 -1.3471
  201MOL0     H27121   2.979   0.458  10.728  0.6653 -0.6622 -0.7684
  201MOL0     H27122   3.207   0.519  10.673 -3.0627  0.0577  0.0480
  201MOL0     H27123   3.569   0.747  10.867 -1.8439 -0.1909 -1.9126
  201MOL0     H27124   3.785   0.849  10.853 -1.7625  0.0489 -1.2006
  201MOL0     H27125   4.100   0.610  10.924 -0.1695 -1.4228 -1.3496
  201MOL0     H27126   4.152   0.560  10.771 -3.7814 -1.7826 -1.0536
  201MOL0     H27127   4.272   0.800  10.754  4.1570 -3.2686 -1.6557
  201MOL0     H27128   4.333   0.683  10.881  0.2969 -1.4826  0.6518
  201MOL0     H27129   4.177   0.762  11.036 -1.4548 -0.3936 -1.8080
  201MOL0     H27130   4.141   0.902  10.930 -1.9753 -2.6499 -0.6592
  201MOL0     H27131   4.312   0.988  11.082 -0.2149 -1.2400  1.4183
  201MOL0     H27132   4.377   0.984  10.920  1.7493  2.0304  0.8744
  201MOL0     H27133   4.631   0.706  11.061  0.8436  1.2317 -1.3186
  201MOL0     H27134   3.953   0.457  10.721  1.3187  1.3539  0.0644
  201MOL0     H27135   3.738   0.375  10.717 -2.4755  0.8390 -2.5593
  202MOL0     O27136   5.189   0.368   2.506  0.4147  0.2083 -0.4438
  202MOL0     C27137   5.125   0.386   2.408 -0.5063  0.1030 -0.5650
  202MOL0     O27138   5.018   0.316   2.363  0.2059  0.5312  0.1279
  202MOL0     C27139   4.964   0.216   2.440  0.9252  0.0967  0.3919
  202MOL0     C27140   4.984   0.081   2.398  1.0673  0.1153 -0.0382
  202MOL0     C27141   4.929  -0.018   2.482 -0.9945 -0.6506  0.7867
  202MOL0     C27142   4.862   0.013   2.607 -0.5974 -0.1008  0.0236
  202MOL0     O27143   4.817  -0.078   2.700  0.7908 -0.1558  0.1578
  202MOL0     C27144   4.817  -0.219   2.659  0.2060  0.1142 -0.2578
  202MOL0     C27145   4.722  -0.297   2.750  0.0638 -0.0192 -0.0312
  202MOL0     C27146   4.766  -0.444   2.754  0.3104 -0.9614  0.2080
  202MOL0     C27147   4.673  -0.525   2.849 -0.4779 -0.0655  0.2283
  202MOL0     C27148   4.695  -0.675   2.815  0.6733  0.2686  0.1626
  202MOL0     C27149   4.649  -0.765   2.928  0.3908 -0.4163  0.2138
  202MOL0     C27150   4.662  -0.911   2.891  0.2842  0.6109  0.5081
  202MOL0     C27151   4.594  -0.996   3.004 -0.3514  0.7636 -0.0956
  202MOL0     N27152   4.522  -1.118   2.960  0.4566 -0.8061 -0.1266
  202MOL0     C27153   4.415  -1.129   2.869  0.2820 -0.3672 -0.8550
  202MOL0     C27154   4.387  -1.256   2.864  0.1511  0.0305  0.9316
  202MOL0     C27155   4.290  -1.313   2.770  0.6875 -0.2419 -0.1700
  202MOL0     C27156   4.151  -1.323   2.828  0.3520 -0.3194  0.2734
  202MOL0     C27157   4.124  -1.448   2.911 -0.8473  0.4498 -0.4359
  202MOL0     C27158   3.984  -1.467   2.967  0.3349  0.5015  1.1854
  202MOL0     O27159   3.957  -1.387   3.079  0.8018 -0.2803  0.2210
  202MOL0     C27160   3.822  -1.383   3.127 -1.0280  0.1115 -0.6292
  202MOL0     C27161   3.806  -1.349   3.264  0.5913  0.0303  0.5354
  202MOL0     C27162   3.686  -1.366   3.327  0.1177  1.0081  0.7190
  202MOL0     C27163   3.692  -1.320   3.474  0.3396  0.3860  0.2843
  202MOL0     C27164   3.571  -1.408   3.244  0.1096  0.8255 -0.0836
  202MOL0     C27165   3.426  -1.404   3.297  0.1091  0.2224  0.1175
  202MOL0     O27166   3.337  -1.472   3.221 -0.1687 -0.6388 -0.1537
  202MOL0     C27167   3.209  -1.494   3.268  0.8005 -0.2604 -0.6325
  202MOL0     C27168   3.189  -1.536   3.398  0.6815  0.7533  0.2511
  202MOL0     C27169   3.063  -1.571   3.450 -1.1802 -0.8719  0.5034
  202MOL0     C27170   2.955  -1.568   3.361 -0.0694 -0.4026 -0.2581
  202MOL0     O27171   2.840  -1.608   3.416 -0.2621  0.1034  0.0976
  202MOL0     C27172   2.723  -1.635   3.334 -0.4235 -0.6533  0.2620
  202MOL0     C27173   2.627  -1.518   3.310 -0.3703 -0.1322  0.1807
  202MOL0     C27174   2.536  -1.511   3.422 -0.0495 -0.2429 -0.2667
  202MOL0     C27175   2.427  -1.402   3.414 -0.8598 -0.6715  0.5975
  202MOL0     C27176   2.337  -1.364   3.534 -1.1896 -0.5705 -0.1804
  202MOL0     C27177   2.247  -1.475   3.576 -0.1454 -0.2816 -0.3143
  202MOL0     C27178   2.176  -1.437   3.709 -0.5320 -1.5109  0.3926
  202MOL0     C27179   2.079  -1.551   3.756 -0.5591  0.2891 -0.4163
  202MOL0    Cl27180   2.022  -1.516   3.923 -0.3273  0.0640  0.2593
  202MOL0     C27181   2.967  -1.515   3.240 -0.0660 -0.1879 -0.0100
  202MOL0     C27182   3.095  -1.488   3.186  0.6491 -0.0329  0.1350
  202MOL0     O27183   3.400  -1.341   3.400 -0.5861  0.4068 -0.1438
  202MOL0     C27184   3.589  -1.433   3.106  0.3580 -0.4007 -1.2558
  202MOL0     C27185   3.714  -1.422   3.051 -0.5053 -0.4199 -0.2256
  202MOL0     N27186   4.462  -1.329   2.963  0.1022 -0.1985 -0.0339
  202MOL0     N27187   4.547  -1.244   3.010 -0.1288 -0.0567 -0.3248
  202MOL0     C27188   4.842   0.147   2.638 -0.0295 -0.8627 -0.1541
  202MOL0     C27189   4.895   0.247   2.553 -0.2685 -0.3524  0.3448
  202MOL0     C27190   5.204   0.474   2.311 -0.4051 -0.0995  0.1018
  202MOL0     C27191   5.329   0.528   2.347  0.3413  0.1365  0.4173
  202MOL0     C27192   5.407   0.604   2.263  0.1488 -0.2342  0.6795
  202MOL0     C27193   5.357   0.631   2.139  0.3842  0.6277  0.3000
  202MOL0     O27194   5.438   0.695   2.040 -0.1569  0.4673  0.5363
  202MOL0     C27195   5.561   0.775   2.079 -0.1257  0.2569 -0.0870
  202MOL0     C27196   5.528   0.897   2.166  0.0677 -0.4371  0.1795
  202MOL0     C27197   5.457   1.014   2.094  1.1225 -0.1488  0.8972
  202MOL0     C27198   5.312   0.981   2.075  0.1399 -0.0677  0.5822
  202MOL0     C27199   5.224   1.083   2.001 -0.0111 -0.3738 -0.0148
  202MOL0     C27200   5.174   1.175   1.944  0.3416  1.5507  0.0352
  202MOL0     C27201   5.225   0.600   2.103  0.0175  0.0808 -0.0413
  202MOL0     C27202   5.145   0.525   2.194 -0.1598  0.2020  0.4030
  202MOL0     H27203   5.035   0.053   2.307  0.6049  0.3188 -0.3634
  202MOL0     H27204   4.943  -0.124   2.461  2.1373 -0.3569  1.0138
  202MOL0     H27205   4.777  -0.229   2.558  0.8099 -2.2762 -0.3058
  202MOL0     H27206   4.917  -0.262   2.666  0.4577  0.8235  0.8336
  202MOL0     H27207   4.736  -0.254   2.850  0.7206  0.2154 -0.2228
  202MOL0     H27208   4.616  -0.275   2.733 -0.3242 -2.3369 -1.0659
  202MOL0     H27209   4.735  -0.482   2.656 -1.6677  2.2416 -0.5673
  202MOL0     H27210   4.872  -0.458   2.778  0.6146  2.2836  1.2193
  202MOL0     H27211   4.702  -0.503   2.952  0.1220 -0.3349  0.1216
  202MOL0     H27212   4.568  -0.500   2.831  0.1301  1.9160 -0.9627
  202MOL0     H27213   4.656  -0.698   2.716  0.7105  0.6705  0.0517
  202MOL0     H27214   4.801  -0.684   2.789  0.5403  1.1372 -0.7515
  202MOL0     H27215   4.712  -0.739   3.014  0.9974 -4.0089  1.0391
  202MOL0     H27216   4.545  -0.747   2.956 -0.0299  2.7184 -2.7542
  202MOL0     H27217   4.616  -0.924   2.793  1.1163  1.6444 -0.0432
  202MOL0     H27218   4.765  -0.944   2.873  0.3884  0.8562  0.6397
  202MOL0     H27219   4.510  -0.940   3.047 -3.6248 -2.4454 -1.7644
  202MOL0     H27220   4.675  -1.016   3.074 -0.9244 -2.0634 -0.1256
  202MOL0     H27221   4.384  -1.044   2.808 -0.1323  0.4169  0.4164
  202MOL0     H27222   4.273  -1.240   2.691 -0.4991  1.3504  1.4534
  202MOL0     H27223   4.326  -1.412   2.741  1.4184  0.2028 -0.8114
  202MOL0     H27224   4.068  -1.317   2.758  0.4441 -0.4765  0.1494
  202MOL0     H27225   4.130  -1.232   2.886  3.2440  1.8149 -1.7234
  202MOL0     H27226   4.194  -1.453   2.995  1.4061 -3.9706 -2.2053
  202MOL0     H27227   4.154  -1.542   2.863  2.3189  1.1572 -0.0544
  202MOL0     H27228   3.964  -1.570   2.996 -2.3477  0.0472 -1.6948
  202MOL0     H27229   3.911  -1.441   2.890 -0.6604  1.3290  2.3709
  202MOL0     H27230   3.894  -1.314   3.318  2.1065 -1.3428 -0.9334
  202MOL0     H27231   3.651  -1.392   3.545 -0.8139  0.0078 -0.7361
  202MOL0     H27232   3.789  -1.273   3.492 -0.6855  3.5529 -1.6542
  202MOL0     H27233   3.621  -1.238   3.487  1.4268  1.3138  0.5553
  202MOL0     H27234   3.279  -1.547   3.457  1.8084 -0.2345 -1.5694
  202MOL0     H27235   3.056  -1.612   3.550 -0.8053  0.3266  1.0464
  202MOL0     H27236   2.759  -1.671   3.237 -4.5034 -1.4173 -1.1620
  202MOL0     H27237   2.663  -1.718   3.372 -2.6781  0.8697  0.1955
  202MOL0     H27238   2.681  -1.424   3.296  0.5425 -0.5455  0.8304
  202MOL0     H27239   2.577  -1.538   3.215  1.2328 -0.4218 -0.6385
  202MOL0     H27240   2.598  -1.507   3.512 -0.2448  0.8011 -0.1698
  202MOL0     H27241   2.483  -1.607   3.419 -1.2304  0.3908 -0.7072
  202MOL0     H27242   2.471  -1.307   3.382 -1.8925 -0.8158 -1.3498
  202MOL0     H27243   2.364  -1.433   3.330 -0.7045 -0.7158  0.4966
  202MOL0     H27244   2.271  -1.279   3.515  0.2211  0.8841  1.1096
  202MOL0     H27245   2.396  -1.331   3.620  3.0734 -2.3009 -2.1478
  202MOL0     H27246   2.177  -1.505   3.498 -0.6962 -0.8198  0.3738
  202MOL0     H27247   2.307  -1.559   3.612  1.0989  0.0635 -1.5227
  202MOL0     H27248   2.111  -1.349   3.710  1.8350  0.4234  4.0260
  202MOL0     H27249   2.245  -1.422   3.792 -0.1083 -1.2252 -0.0051
  202MOL0     H27250   2.129  -1.647   3.768  1.7591  1.5573  0.7992
  202MOL0     H27251   2.000  -1.563   3.681 -2.4002  0.8456  1.3501
  202MOL0     H27252   2.877  -1.487   3.186 -0.5885  2.0799  1.8615
  202MOL0     H27253   3.114  -1.435   3.093 -0.9705  5.6755  2.6354
  202MOL0     H27254   3.505  -1.465   3.045 -1.6220  1.7015  0.2146
  202MOL0     H27255   3.715  -1.429   2.942 -0.2137  1.6776 -0.4029
  202MOL0     H27256   4.783   0.176   2.724 -2.0525  0.3516 -1.8657
  202MOL0     H27257   4.892   0.355   2.565  0.2447 -0.2829 -0.0975
  202MOL0     H27258   5.376   0.492   2.438  1.2182  0.3165  0.0444
  202MOL0     H27259   5.512   0.618   2.290  0.1533 -1.3073  1.2828
  202MOL0     H27260   5.617   0.709   2.146 -2.6109 -0.9472  0.9256
  202MOL0     H27261   5.607   0.807   1.985  0.4616 -1.7724 -0.5412
  202MOL0     H27262   5.621   0.940   2.204 -1.8381  2.3685  2.0184
  202MOL0     H27263   5.473   0.860   2.253 -0.3079 -0.2091  0.0392
  202MOL0     H27264   5.495   1.038   1.994 -1.0346 -1.4249 -0.2976
  202MOL0     H27265   5.461   1.100   2.161 -0.4315 -0.4845  1.4609
  202MOL0     H27266   5.268   0.971   2.174 -3.0156  1.9612 -0.4502
  202MOL0     H27267   5.297   0.891   2.014 -1.3400  1.2164 -1.0687
  202MOL0     H27268   5.131   1.268   1.912  1.1464  1.8250 -0.3064
  202MOL0     H27269   5.184   0.637   2.010 -1.4601  2.4181  1.4471
  202MOL0     H27270   5.047   0.482   2.177  0.5050 -1.9121  1.5611
  203MOL0     O27271   4.230   2.144   7.661  0.9238 -0.1446  0.6001
  203MOL0     C27272   4.153   2.116   7.756 -0.3779  0.7362  0.8227
  203MOL0     O27273   4.080   2.000   7.760 -0.1089  0.1232  0.4190
  203MOL0     C27274   4.093   1.915   7.659 -0.2469 -0.1831 -0.1244
  203MOL0     C27275   4.021   1.915   7.546  0.8734  0.6501  0.6653
  203MOL0     C27276   4.054   1.816   7.442 -0.0411 -0.8710  0.0311
  203MOL0     C27277   4.168   1.728   7.454  0.0359 -0.3003 -0.5069
  203MOL0     O27278   4.198   1.645   7.351  0.1673  0.3065  0.3587
  203MOL0     C27279   4.325   1.575   7.346  0.3175  0.6683  0.0691
  203MOL0     C27280   4.316   1.476   7.235  0.2070  0.7746 -0.0871
  203MOL0     C27281   4.187   1.381   7.246  0.3140  0.3705  0.1253
  203MOL0     C27282   4.185   1.311   7.379  0.2606  0.0067 -0.3509
  203MOL0     C27283   4.076   1.205   7.374  0.4425 -0.3432 -0.2207
  203MOL0     C27284   4.075   1.114   7.497 -0.0495 -0.0538  0.4015
  203MOL0     C27285   3.981   0.994   7.496  0.1142  0.2146  0.4545
  203MOL0     C27286   3.982   0.910   7.618  0.0162  0.3609  0.3043
  203MOL0     N27287   3.854   0.833   7.622  0.7657 -0.3618 -0.4507
  203MOL0     C27288   3.735   0.898   7.643  0.6676  1.0265  1.3973
  203MOL0     C27289   3.640   0.807   7.620  0.6263  0.2240  0.2393
  203MOL0     C27290   3.489   0.820   7.635  0.1342  0.1346  0.2594
  203MOL0     C27291   3.413   0.722   7.728 -0.5005  1.1022  0.1579
  203MOL0     C27292   3.483   0.711   7.866 -0.5190 -0.8698  0.2663
  203MOL0     C27293   3.422   0.610   7.963  0.1796 -1.4006  0.6069
  203MOL0     O27294   3.283   0.593   7.951 -0.0793  0.2191  0.3094
  203MOL0     C27295   3.206   0.525   8.043  0.0926 -1.0499 -0.4069
  203MOL0     C27296   3.265   0.468   8.158  0.4876 -0.1914 -0.6027
  203MOL0     C27297   3.186   0.407   8.260  0.3110  0.3008 -0.0384
  203MOL0     C27298   3.251   0.347   8.380  0.8336 -0.4993 -0.0922
  203MOL0     C27299   3.045   0.402   8.237 -0.8058  0.3137 -0.6313
  203MOL0     C27300   2.961   0.340   8.345 -0.5348 -0.0552  0.2644
  203MOL0     O27301   2.866   0.235   8.307 -0.1361 -0.0314 -0.3562
  203MOL0     C27302   2.763   0.201   8.389  0.4652 -0.1629  0.0859
  203MOL0     C27303   2.630   0.192   8.337  0.6189 -0.4967 -0.1183
  203MOL0     C27304   2.525   0.167   8.423 -0.0971 -1.1065  0.2391
  203MOL0     C27305   2.536   0.126   8.553  0.0473 -0.5286 -0.1734
  203MOL0     O27306   2.420   0.100   8.616 -0.5187  0.4025 -0.1412
  203MOL0     C27307   2.434   0.058   8.754 -0.2414  0.3135 -1.1074
  203MOL0     C27308   2.296   0.033   8.826  0.1283 -1.0673  0.3098
  203MOL0     C27309   2.200  -0.050   8.736 -0.1204 -0.4039 -0.1133
  203MOL0     C27310   2.086  -0.128   8.811  0.2170  0.3039 -0.2803
  203MOL0     C27311   1.952  -0.042   8.835 -0.4018  0.2011  0.0427
  203MOL0     C27312   1.834  -0.119   8.888  0.1425  1.1553  0.4932
  203MOL0     C27313   1.757  -0.213   8.797 -0.1153  0.2027  0.3084
  203MOL0     C27314   1.642  -0.148   8.723 -0.1340  0.1205 -0.2245
  203MOL0    Cl27315   1.547  -0.262   8.616 -0.4847  0.1245 -0.2285
  203MOL0     C27316   2.672   0.112   8.600  0.5080 -0.2789  1.2123
  203MOL0     C27317   2.778   0.161   8.522  0.0382 -0.1268  1.2564
  203MOL0     O27318   2.970   0.385   8.460 -0.5407  0.2738 -0.2223
  203MOL0     C27319   2.989   0.458   8.118 -0.5620 -0.4305  0.2475
  203MOL0     C27320   3.074   0.515   8.025  0.0980 -0.2145 -0.1709
  203MOL0     N27321   3.709   0.688   7.598  0.8804  0.5517 -0.6074
  203MOL0     N27322   3.838   0.697   7.586  0.8882  0.1896 -0.8292
  203MOL0     C27323   4.230   1.726   7.579 -0.0167 -0.7928 -0.3524
  203MOL0     C27324   4.201   1.819   7.676  0.0074  0.1781  0.3622
  203MOL0     C27325   4.129   2.208   7.865  0.0848 -0.0756 -1.0168
  203MOL0     C27326   4.085   2.163   7.988  0.3051 -0.5327 -0.8341
  203MOL0     C27327   4.063   2.255   8.089 -0.6763 -0.0392 -0.1884
  203MOL0     C27328   4.067   2.389   8.066  0.3385  0.1610  0.0308
  203MOL0     O27329   4.028   2.470   8.170  0.3050 -0.6342  0.2967
  203MOL0     C27330   4.018   2.616   8.170 -0.3890  0.7189 -0.7625
  203MOL0     C27331   4.052   2.661   8.320 -0.7041  0.6000  0.7531
  203MOL0     C27332   3.965   2.611   8.428 -0.7752  0.5371 -0.3695
  203MOL0     C27333   4.004   2.664   8.561  0.0551 -0.6392 -0.0235
  203MOL0     C27334   3.980   2.810   8.572 -0.5537  0.2181 -0.1814
  203MOL0     C27335   3.952   2.932   8.587 -0.0046  0.2826 -1.1535
  203MOL0     C27336   4.115   2.438   7.936 -0.1738  0.2641 -0.0397
  203MOL0     C27337   4.153   2.349   7.843 -0.7800 -0.6245 -0.4067
  203MOL0     H27338   3.938   1.985   7.538  0.5917  0.2875  0.3285
  203MOL0     H27339   4.003   1.811   7.346 -1.0213  1.7975  0.3359
  203MOL0     H27340   4.405   1.642   7.314 -1.0641  1.6829 -1.4497
  203MOL0     H27341   4.344   1.532   7.445  0.7068  4.7192  1.9456
  203MOL0     H27342   4.306   1.527   7.139 -0.7848 -1.9304 -1.5464
  203MOL0     H27343   4.410   1.421   7.229 -0.4810 -0.4389 -0.1551
  203MOL0     H27344   4.091   1.427   7.220  0.4814 -1.1741 -3.9830
  203MOL0     H27345   4.181   1.309   7.163  0.5213  0.3610  0.1183
  203MOL0     H27346   4.281   1.261   7.393  0.7863  0.9164 -0.6240
  203MOL0     H27347   4.177   1.381   7.462  2.1713  2.3845 -2.0488
  203MOL0     H27348   3.980   1.256   7.363  1.2755  1.3135 -0.2401
  203MOL0     H27349   4.095   1.146   7.284  4.3000  2.1912 -1.3419
  203MOL0     H27350   4.174   1.069   7.489  0.4569  1.1146 -0.2394
  203MOL0     H27351   4.064   1.170   7.590 -0.5661  2.1417 -0.9002
  203MOL0     H27352   3.885   1.040   7.473  1.0436  1.5807 -0.9529
  203MOL0     H27353   4.016   0.945   7.405  1.6712  1.3255  0.4119
  203MOL0     H27354   3.990   0.971   7.709 -0.0970  1.7733 -0.6135
  203MOL0     H27355   4.063   0.837   7.604 -2.3515 -2.1350 -1.2471
  203MOL0     H27356   3.712   1.004   7.651 -2.0647  0.8019 -1.4681
  203MOL0     H27357   3.471   0.924   7.663  5.5867  2.4074 -3.1292
  203MOL0     H27358   3.450   0.794   7.536 -3.2041 -1.4120  1.8087
  203MOL0     H27359   3.409   0.625   7.677 -0.7578  2.1235 -1.8895
  203MOL0     H27360   3.307   0.746   7.737 -1.0639 -0.5082 -1.5841
  203MOL0     H27361   3.492   0.808   7.916  2.4062 -1.5535  1.2963
  203MOL0     H27362   3.589   0.688   7.851 -0.6232 -0.1297 -1.9130
  203MOL0     H27363   3.451   0.650   8.060 -2.6308  0.5456  0.7505
  203MOL0     H27364   3.474   0.513   7.957  0.1895 -1.2997 -2.2434
  203MOL0     H27365   3.371   0.478   8.177  0.1794  2.7836  0.0534
  203MOL0     H27366   3.241   0.238   8.383 -0.6232 -0.4143 -0.9540
  203MOL0     H27367   3.357   0.376   8.378  0.3380  1.7100  1.5761
  203MOL0     H27368   3.214   0.385   8.476  2.7655 -2.4069  1.5281
  203MOL0     H27369   2.604   0.205   8.232  2.2171 -1.7198 -0.7088
  203MOL0     H27370   2.424   0.172   8.383 -0.2949 -4.5972 -0.0142
  203MOL0     H27371   2.498  -0.031   8.759  1.5921  1.6493  0.7348
  203MOL0     H27372   2.488   0.125   8.822 -0.3043 -0.2158 -0.5158
  203MOL0     H27373   2.322  -0.008   8.924  0.3236  2.9178  2.0957
  203MOL0     H27374   2.252   0.132   8.841 -1.9186 -1.6343 -1.4201
  203MOL0     H27375   2.259  -0.125   8.683 -0.1011  1.3335 -2.7310
  203MOL0     H27376   2.169   0.023   8.660 -1.8366 -0.0643  0.8635
  203MOL0     H27377   2.057  -0.206   8.741 -1.0027 -2.4287  2.9963
  203MOL0     H27378   2.120  -0.187   8.897  1.5567 -3.3024 -3.0261
  203MOL0     H27379   1.930   0.003   8.738  0.2472 -0.7680 -0.5625
  203MOL0     H27380   1.985   0.035   8.906 -1.4957 -0.7450  1.6335
  203MOL0     H27381   1.886  -0.187   8.957 -1.2879 -1.9117 -1.2699
  203MOL0     H27382   1.767  -0.059   8.951 -0.3645  0.5555  0.5394
  203MOL0     H27383   1.719  -0.300   8.850 -2.0046  0.4520 -0.5610
  203MOL0     H27384   1.822  -0.259   8.721  2.3909  1.2822  1.6661
  203MOL0     H27385   1.687  -0.065   8.667  1.6302 -0.1184  0.7720
  203MOL0     H27386   1.570  -0.107   8.794 -2.6569 -0.6864 -2.1802
  203MOL0     H27387   2.701   0.089   8.702 -0.7939  0.2404  1.7303
  203MOL0     H27388   2.877   0.164   8.567  0.6056 -0.7419  0.1035
  203MOL0     H27389   2.884   0.449   8.093  0.1673 -1.9422 -2.8466
  203MOL0     H27390   3.022   0.560   7.941  0.0142  3.5397  1.6833
  203MOL0     H27391   4.315   1.664   7.606  1.0471  0.8573  0.2811
  203MOL0     H27392   4.264   1.840   7.762 -0.7658  0.4182  0.8833
  203MOL0     H27393   4.064   2.058   8.009 -0.0978 -0.3787 -0.4524
  203MOL0     H27394   4.038   2.207   8.183  1.9217 -0.4103  0.3851
  203MOL0     H27395   4.099   2.653   8.106  0.6324 -2.3220 -1.3604
  203MOL0     H27396   3.925   2.664   8.138  1.4918  2.7687 -3.5975
  203MOL0     H27397   4.050   2.771   8.320  1.1630  0.7009 -1.2477
  203MOL0     H27398   4.152   2.629   8.348 -1.2581 -0.4093  1.6484
  203MOL0     H27399   3.960   2.501   8.430 -0.3177  0.5124  1.7930
  203MOL0     H27400   3.863   2.649   8.415 -0.4841  1.2717 -0.5362
  203MOL0     H27401   4.111   2.647   8.575  0.5659  0.7880 -1.7394
  203MOL0     H27402   3.938   2.612   8.630  0.0523 -0.8536 -0.1905
  203MOL0     H27403   3.919   3.031   8.609 -2.8924 -0.5756 -1.1270
  203MOL0     H27404   4.136   2.544   7.926 -0.2284  0.3567  0.7235
  203MOL0     H27405   4.199   2.382   7.751 -0.5906  0.8053  0.1731
  204MOL0     O27406   4.104   9.565   9.046 -0.5705 -0.2696  0.0894
  204MOL0     C27407   4.074   9.665   8.977  0.4182  0.5101  0.4153
  204MOL0     O27408   4.007   9.774   9.025  0.5429 -0.1794  0.5275
  204MOL0     C27409   3.963   9.757   9.156  0.9077  0.5777 -0.6143
  204MOL0     C27410   4.025   9.816   9.266  0.3890 -0.2501 -0.0727
  204MOL0     C27411   3.964   9.797   9.395  0.9311  0.4275  0.1632
  204MOL0     C27412   3.852   9.718   9.401 -0.0915  0.0565 -0.2479
  204MOL0     O27413   3.785   9.694   9.527 -0.4890  0.0562  0.4432
  204MOL0     C27414   3.641   9.687   9.533  0.0989  0.1892  1.2812
  204MOL0     C27415   3.618   9.665   9.683  0.1575 -0.6388  0.3107
  204MOL0     C27416   3.623   9.797   9.758  0.2988 -0.5749 -1.0126
  204MOL0     C27417   3.607   9.781   9.911 -1.4285 -0.4384 -0.0156
  204MOL0     C27418   3.561   9.909   9.996 -0.3602  1.2112  0.6091
  204MOL0     C27419   3.665  10.009   9.991 -0.4478  0.0544  0.1816
  204MOL0     C27420   3.797   9.973  10.064 -0.4670  1.1975 -0.6750
  204MOL0     C27421   3.906  10.083  10.055 -0.4487  0.3011  0.4539
  204MOL0     N27422   3.854  10.215  10.094 -0.1126 -0.8585  0.1784
  204MOL0     C27423   3.837  10.247  10.222 -0.2817  0.7523  0.8799
  204MOL0     C27424   3.802  10.373  10.215  0.0842  0.3375  0.9732
  204MOL0     C27425   3.760  10.455  10.335 -0.1378 -0.6013 -1.0336
  204MOL0     C27426   3.891  10.534  10.368 -0.4586  0.0847  0.4761
  204MOL0     C27427   3.896  10.584  10.514 -0.3604 -0.1743 -0.0338
  204MOL0     C27428   4.028  10.668  10.542 -0.5314 -0.7112  0.5584
  204MOL0     O27429   3.990  10.766  10.637  0.5739  0.7595  1.2092
  204MOL0     C27430   4.076  10.853  10.698  0.5985 -0.7465  0.1948
  204MOL0     C27431   4.048  10.907  10.820  0.7034 -0.3859 -0.2581
  204MOL0     C27432   4.131  10.993  10.888 -0.3920 -0.1872  0.0150
  204MOL0     C27433   4.090  11.032  11.028 -1.0791  0.9926  0.6741
  204MOL0     C27434   4.238  11.042  10.815  0.0710 -1.4759  0.3196
  204MOL0     C27435   4.334  11.154  10.863  0.1655  0.5025  0.8874
  204MOL0     O27436   4.417  11.205  10.762 -0.0993 -0.3445 -0.6543
  204MOL0     C27437   4.484  11.318  10.802  0.1301 -0.4083 -0.9306
  204MOL0     C27438   4.437  11.440  10.751 -0.1217 -0.3154 -0.3484
  204MOL0     C27439   4.512  11.556  10.789  0.5215  0.2053  0.5577
  204MOL0     C27440   4.636  11.546  10.858 -0.0143  0.1469  0.1731
  204MOL0     O27441   4.708  11.656  10.900  0.5432 -0.1707 -0.1493
  204MOL0     C27442   4.779  11.730  10.799 -0.4761  0.2135 -0.0757
  204MOL0     C27443   4.848  11.833  10.885  0.0750  0.5463 -0.0394
  204MOL0     C27444   4.991  11.866  10.853 -0.0860 -0.4752  0.3386
  204MOL0     C27445   5.008  11.916  10.708  0.2402 -0.0799  0.1110
  204MOL0     C27446   5.143  11.909  10.640  0.1750 -0.6648 -0.8696
  204MOL0     C27447   5.246  11.978  10.730  0.2027 -0.2472  0.7065
  204MOL0     C27448   5.368  11.994  10.653  0.1626 -0.8572 -1.3762
  204MOL0     C27449   5.447  12.095  10.721 -1.1866  0.0271 -0.0742
  204MOL0    Cl27450   5.612  12.113  10.646 -0.1295 -0.5419  0.1467
  204MOL0     C27451   4.681  11.426  10.906 -0.0002  0.2741  0.3276
  204MOL0     C27452   4.600  11.306  10.885 -0.8911  0.4155  0.3652
  204MOL0     O27453   4.315  11.211  10.967 -0.1209  0.0092 -0.5440
  204MOL0     C27454   4.273  10.984  10.692  0.7201  0.1515  0.4763
  204MOL0     C27455   4.194  10.887  10.640  0.4211 -0.3626  0.0406
  204MOL0     N27456   3.783  10.412  10.083 -0.3709  0.1838  0.3587
  204MOL0     N27457   3.801  10.308  10.006  0.2446 -0.0647 -0.1533
  204MOL0     C27458   3.791   9.651   9.291 -0.5285 -0.3310  0.9447
  204MOL0     C27459   3.850   9.682   9.167  0.4753  0.2199 -0.1032
  204MOL0     C27460   4.123   9.685   8.847  0.6080  0.9507  1.1316
  204MOL0     C27461   4.253   9.652   8.821  0.3752 -0.3006  0.1998
  204MOL0     C27462   4.307   9.662   8.694 -0.7357 -0.1806  0.7686
  204MOL0     C27463   4.237   9.717   8.591  0.4668  0.5634  0.9008
  204MOL0     O27464   4.299   9.724   8.470  0.4078 -0.4154  0.1984
  204MOL0     C27465   4.232   9.671   8.354 -0.3821  0.1610  0.6262
  204MOL0     C27466   4.333   9.622   8.252  0.2316  1.0685  0.1404
  204MOL0     C27467   4.415   9.735   8.188 -0.5654  0.0044  0.3893
  204MOL0     C27468   4.331   9.814   8.087 -0.6788  0.6113 -0.0183
  204MOL0     C27469   4.413   9.925   8.032 -0.4373 -0.4783  0.3691
  204MOL0     C27470   4.492  10.010   8.000 -0.1721  0.1561  0.0965
  204MOL0     C27471   4.109   9.766   8.620 -0.3403  0.3138 -0.8746
  204MOL0     C27472   4.047   9.742   8.742  0.2248  0.4917  0.0045
  204MOL0     H27473   4.113   9.876   9.246 -0.1694 -0.2453 -2.9453
  204MOL0     H27474   3.998   9.839   9.489 -1.5486  0.0454  1.2966
  204MOL0     H27475   3.598   9.775   9.485  3.2671 -1.0789 -4.8774
  204MOL0     H27476   3.596   9.597   9.489  1.2421  0.1738  0.0841
  204MOL0     H27477   3.516   9.625   9.692  0.6742 -2.0622  0.0026
  204MOL0     H27478   3.699   9.607   9.728 -1.2021 -1.8676  1.2553
  204MOL0     H27479   3.719   9.848   9.745  0.0039  0.6665  1.1949
  204MOL0     H27480   3.548   9.860   9.709  0.7028  0.5502 -0.2069
  204MOL0     H27481   3.539   9.697   9.924  0.0910 -1.7907 -0.4862
  204MOL0     H27482   3.706   9.754   9.948 -1.4027 -1.0509 -0.5312
  204MOL0     H27483   3.469   9.941   9.946  0.4520  0.3819 -1.5022
  204MOL0     H27484   3.554   9.875  10.100  3.0309 -1.0773  0.2414
  204MOL0     H27485   3.695  10.039   9.891  0.8139  1.0290  0.8202
  204MOL0     H27486   3.627  10.098  10.042 -1.3682 -0.8042  1.0532
  204MOL0     H27487   3.776   9.955  10.170  5.0600  1.5164  0.8200
  204MOL0     H27488   3.844   9.881  10.026  1.7808  2.6136 -1.5431
  204MOL0     H27489   3.929  10.105   9.950 -3.2758 -0.1758 -0.3314
  204MOL0     H27490   3.994  10.053  10.113  1.3643 -1.6990 -2.9394
  204MOL0     H27491   3.845  10.188  10.313 -2.0893 -0.4997  0.2904
  204MOL0     H27492   3.676  10.524  10.317 -1.6430 -2.0231  0.2668
  204MOL0     H27493   3.727  10.393  10.418 -1.3212  1.6040  0.2427
  204MOL0     H27494   3.896  10.608  10.288  1.1438 -1.2673 -0.7623
  204MOL0     H27495   3.978  10.469  10.353 -1.4045 -1.1207 -0.0026
  204MOL0     H27496   3.886  10.510  10.594 -1.3187  1.2819  1.2494
  204MOL0     H27497   3.817  10.659  10.520 -0.1823  0.1109 -1.0285
  204MOL0     H27498   4.072  10.702  10.448  2.3552 -0.2585  1.9719
  204MOL0     H27499   4.111  10.611  10.583  2.1778  2.8247  0.4190
  204MOL0     H27500   3.954  10.882  10.867 -0.1104  1.1517 -1.0229
  204MOL0     H27501   4.072  11.140  11.037  3.9307  2.2272 -0.9019
  204MOL0     H27502   4.004  10.982  11.072  0.3418 -0.7039  1.6659
  204MOL0     H27503   4.182  11.013  11.085  0.5062  0.4138 -1.9051
  204MOL0     H27504   4.338  11.433  10.707 -0.2901  0.1859 -0.0573
  204MOL0     H27505   4.481  11.654  10.754  0.4303  0.3806  1.1271
  204MOL0     H27506   4.845  11.658  10.750 -2.7809 -2.5240  0.5840
  204MOL0     H27507   4.737  11.788  10.716  1.9612 -1.1378 -2.4203
  204MOL0     H27508   4.795  11.928  10.877 -0.4996  0.0961 -2.0520
  204MOL0     H27509   4.830  11.807  10.990 -1.1042 -0.6746 -0.5125
  204MOL0     H27510   5.059  11.781  10.868  2.3423  0.7560 -2.7190
  204MOL0     H27511   5.006  11.951  10.919 -0.9946  2.9734 -3.5098
  204MOL0     H27512   4.929  11.880  10.641  0.6470 -0.0633 -0.3876
  204MOL0     H27513   4.989  12.024  10.706 -2.9654 -0.2775  4.3881
  204MOL0     H27514   5.135  11.957  10.543 -3.4814 -1.5828 -1.1953
  204MOL0     H27515   5.175  11.806  10.620 -0.2888 -1.0785  0.4133
  204MOL0     H27516   5.209  12.076  10.759 -0.6305 -0.4644  0.4036
  204MOL0     H27517   5.261  11.915  10.819 -0.1355 -0.2468  0.7645
  204MOL0     H27518   5.345  12.018  10.549 -2.6980  3.3418 -0.0233
  204MOL0     H27519   5.427  11.902  10.656  1.7283  0.1033  1.3491
  204MOL0     H27520   5.461  12.058  10.823  1.5684  0.2382 -0.2876
  204MOL0     H27521   5.394  12.190  10.728  0.7246  1.2867 -1.6113
  204MOL0     H27522   4.780  11.430  10.951 -0.1973  1.7558  0.7094
  204MOL0     H27523   4.643  11.208  10.904 -0.9495  0.0041 -1.4274
  204MOL0     H27524   4.363  11.011  10.638  0.2431 -1.0947 -1.0141
  204MOL0     H27525   4.227  10.840  10.548  1.1174 -1.3264  0.7511
  204MOL0     H27526   3.694   9.605   9.302 -1.3479  1.8223  3.8287
  204MOL0     H27527   3.795   9.636   9.086 -0.4635  1.0858  0.0292
  204MOL0     H27528   4.322   9.633   8.902  1.6335  2.1368 -0.2112
  204MOL0     H27529   4.407   9.640   8.658 -1.6232  0.0015 -1.9882
  204MOL0     H27530   4.183   9.579   8.387  1.2616 -0.1310  2.4048
  204MOL0     H27531   4.156   9.739   8.314  1.1612  1.6723  0.1226
  204MOL0     H27532   4.283   9.563   8.175  0.6709 -1.7916  1.9147
  204MOL0     H27533   4.400   9.552   8.303 -0.6562  1.2789  1.6609
  204MOL0     H27534   4.496   9.679   8.140  0.4662  1.7880 -0.0554
  204MOL0     H27535   4.464   9.797   8.264  0.1381  3.2031 -2.3884
  204MOL0     H27536   4.247   9.864   8.137 -1.2931 -0.3253 -0.0760
  204MOL0     H27537   4.301   9.757   7.998 -2.4284 -0.2802  1.0926
  204MOL0     H27538   4.560  10.089   7.976 -1.2984  0.7797 -1.2052
  204MOL0     H27539   4.047   9.810   8.542  0.6340 -1.4247 -2.7117
  204MOL0     H27540   3.940   9.758   8.742  0.2712  1.5956  3.3636
  205MOL0     O27541   2.264   9.077   3.013  0.7676 -0.3325  0.0100
  205MOL0     C27542   2.339   9.103   3.104  0.5724  0.5480  0.4356
  205MOL0     O27543   2.305   9.101   3.237  1.6194 -0.4362  0.5237
  205MOL0     C27544   2.176   9.142   3.261 -0.0909  0.1290 -0.5747
  205MOL0     C27545   2.113   9.254   3.197 -0.5719  0.5120  0.3461
  205MOL0     C27546   1.984   9.282   3.222 -0.0440 -0.1774 -0.0997
  205MOL0     C27547   1.917   9.215   3.328 -0.3641 -1.1024 -0.0680
  205MOL0     O27548   1.792   9.270   3.362  0.2079  0.4293 -0.7980
  205MOL0     C27549   1.696   9.189   3.427  0.0529 -0.3076 -0.7754
  205MOL0     C27550   1.561   9.251   3.439  0.9286 -1.5400 -0.4525
  205MOL0     C27551   1.499   9.291   3.315  0.1885  0.5437 -0.2036
  205MOL0     C27552   1.465   9.170   3.236  0.0132  0.0170 -0.3508
  205MOL0     C27553   1.357   9.206   3.141  0.0896 -0.5748 -0.5447
  205MOL0     C27554   1.345   9.096   3.030  0.5831 -0.5177 -0.5912
  205MOL0     C27555   1.204   9.119   2.962 -0.8946  0.2445 -0.2863
  205MOL0     C27556   1.169   9.000   2.864  0.7295 -0.5806 -0.2853
  205MOL0     N27557   1.045   9.035   2.778 -0.0884 -0.3198  0.3247
  205MOL0     C27558   0.915   9.002   2.810 -0.1794 -0.6289 -0.7840
  205MOL0     C27559   0.837   9.087   2.743 -0.4017  0.2896 -0.2480
  205MOL0     C27560   0.688   9.108   2.753  0.3030  0.0553  0.3282
  205MOL0     C27561   0.611   8.975   2.743  0.1714  0.3696  0.3563
  205MOL0     C27562   0.457   8.978   2.725  0.3995 -0.4731  0.2690
  205MOL0     C27563   0.399   9.101   2.652 -0.4456 -0.3621  0.3095
  205MOL0     O27564   0.398   9.213   2.731 -0.4368  0.4372  0.2389
  205MOL0     C27565   0.307   9.244   2.833  0.3225 -0.1456  0.3338
  205MOL0     C27566   0.320   9.372   2.889  0.2910 -0.7195  0.0721
  205MOL0     C27567   0.232   9.421   2.989 -0.4049 -0.5655  0.0987
  205MOL0     C27568   0.262   9.573   3.025  0.4560 -0.6310 -0.1082
  205MOL0     C27569   0.139   9.338   3.051  0.5511  0.1763  0.2437
  205MOL0     C27570   0.055   9.358   3.176 -1.3288 -0.0573  0.0870
  205MOL0     O27571  -0.043   9.266   3.206  0.1536 -0.0908 -0.4350
  205MOL0     C27572  -0.088   9.261   3.339 -0.4742  0.3225 -0.0860
  205MOL0     C27573   0.017   9.266   3.444  1.5038  0.6067 -0.9852
  205MOL0     C27574  -0.031   9.256   3.580 -0.0265 -0.4913 -0.0219
  205MOL0     C27575  -0.163   9.237   3.612  0.4043  0.0220 -0.7447
  205MOL0     O27576  -0.189   9.217   3.741 -0.0439 -0.8307 -0.4078
  205MOL0     C27577  -0.101   9.138   3.825  0.7162  0.8452 -0.1043
  205MOL0     C27578  -0.087   8.994   3.782 -1.8548  0.3810 -0.1953
  205MOL0     C27579  -0.207   8.904   3.807  0.1504  0.3206 -0.1185
  205MOL0     C27580  -0.176   8.760   3.790  0.9602  0.7721 -0.0781
  205MOL0     C27581  -0.299   8.671   3.788  0.1434  0.2522 -0.7425
  205MOL0     C27582  -0.331   8.641   3.937 -0.0569  0.4671 -0.3241
  205MOL0     C27583  -0.428   8.530   3.949  0.6855 -0.4295 -0.4137
  205MOL0     C27584  -0.568   8.563   3.901 -0.4419  0.1562  0.3888
  205MOL0    Cl27585  -0.671   8.428   3.879  0.0925 -0.0469 -0.0419
  205MOL0     C27586  -0.259   9.232   3.513  0.9497 -0.0541  0.2867
  205MOL0     C27587  -0.218   9.247   3.381  0.5558 -0.2785 -0.7225
  205MOL0     O27588   0.064   9.473   3.220 -0.0305  0.3840  0.0686
  205MOL0     C27589   0.133   9.207   2.995  0.3427 -0.5176 -0.5177
  205MOL0     C27590   0.198   9.163   2.877 -0.3001 -0.6857 -0.3673
  205MOL0     N27591   0.914   9.149   2.653 -0.0008  0.0454  0.0703
  205MOL0     N27592   1.040   9.121   2.669 -0.4176  0.1002 -0.1896
  205MOL0     C27593   1.975   9.097   3.384 -0.3101 -0.1532  0.1331
  205MOL0     C27594   2.105   9.066   3.358 -0.7086  1.0020  0.9574
  205MOL0     C27595   2.476   9.147   3.065 -0.6193 -0.8055  0.1918
  205MOL0     C27596   2.565   9.189   3.170  0.6133 -0.1253  0.0687
  205MOL0     C27597   2.694   9.221   3.146 -0.1715 -0.8292 -0.0336
  205MOL0     C27598   2.752   9.212   3.014 -0.5546 -0.1560 -0.3663
  205MOL0     O27599   2.886   9.214   2.994  0.1439  0.2599  0.0254
  205MOL0     C27600   2.941   9.101   3.065 -1.3875 -0.1229 -0.1267
  205MOL0     C27601   3.101   9.086   3.065  0.3904  0.7602  0.5704
  205MOL0     C27602   3.169   9.091   2.922 -0.3249  0.0836  0.2400
  205MOL0     C27603   3.179   9.221   2.845 -0.1114 -0.7757  0.5662
  205MOL0     C27604   3.307   9.230   2.767  0.5819 -0.1998  0.1912
  205MOL0     C27605   3.407   9.254   2.701  0.4554 -0.6911  0.4874
  205MOL0     C27606   2.662   9.165   2.906  0.3934  1.0646 -0.1456
  205MOL0     C27607   2.530   9.151   2.941 -0.1346  0.5412  0.5190
  205MOL0     H27608   2.170   9.313   3.126  0.4654  2.4959  2.6409
  205MOL0     H27609   1.941   9.354   3.153 -1.1856  0.3041  1.0717
  205MOL0     H27610   1.667   9.102   3.366 -4.5436  1.2015 -1.1305
  205MOL0     H27611   1.736   9.156   3.523  1.9611  0.1587 -1.3808
  205MOL0     H27612   1.503   9.181   3.500 -1.2821  1.4842  1.2112
  205MOL0     H27613   1.568   9.336   3.508 -1.1502 -0.3745 -1.6018
  205MOL0     H27614   1.408   9.345   3.343 -0.6824 -0.9198 -0.1606
  205MOL0     H27615   1.571   9.350   3.257  1.9015 -2.3541 -1.2367
  205MOL0     H27616   1.554   9.141   3.180 -0.8892  1.4255 -2.6962
  205MOL0     H27617   1.425   9.098   3.308  2.3428  0.8923  1.9808
  205MOL0     H27618   1.265   9.213   3.199  1.3458  0.6455  1.4468
  205MOL0     H27619   1.365   9.306   3.098 -3.5239 -0.1161 -0.4455
  205MOL0     H27620   1.432   9.115   2.968  0.9701  1.2993  0.4231
  205MOL0     H27621   1.355   8.995   3.071  2.1970 -0.1605 -0.0523
  205MOL0     H27622   1.127   9.135   3.037 -0.2344  2.1472  0.0444
  205MOL0     H27623   1.205   9.208   2.898  3.3054  0.1621 -0.6106
  205MOL0     H27624   1.152   8.905   2.915  2.2504 -0.6473  0.1378
  205MOL0     H27625   1.245   8.994   2.786 -1.1805  2.9431 -2.6920
  205MOL0     H27626   0.881   8.950   2.899 -3.1706 -1.2306 -2.1387
  205MOL0     H27627   0.655   9.149   2.849  0.5107  1.9653 -0.3760
  205MOL0     H27628   0.655   9.175   2.673  0.4443 -0.7338 -0.4035
  205MOL0     H27629   0.627   8.919   2.836  2.0891  1.7405  0.8933
  205MOL0     H27630   0.652   8.912   2.663  0.3937  2.4546 -1.2644
  205MOL0     H27631   0.410   8.979   2.824  0.1315  3.6764  0.2708
  205MOL0     H27632   0.419   8.889   2.674 -2.1791  0.1861  0.8930
  205MOL0     H27633   0.298   9.088   2.612 -0.4250  2.1974 -0.7763
  205MOL0     H27634   0.453   9.123   2.559 -0.3767 -0.7500  0.2571
  205MOL0     H27635   0.380   9.448   2.841 -0.6834  0.3340  0.4833
  205MOL0     H27636   0.343   9.591   3.097 -0.0723  0.9253  0.1394
  205MOL0     H27637   0.292   9.632   2.938  1.0220  0.0394  0.5280
  205MOL0     H27638   0.174   9.624   3.064  2.1039  1.1142  1.5350
  205MOL0     H27639   0.124   9.279   3.433  1.6366 -1.1591 -2.3189
  205MOL0     H27640   0.048   9.279   3.651 -2.1617  0.0413  2.3446
  205MOL0     H27641  -0.004   9.185   3.842  0.6485  1.3352 -1.0624
  205MOL0     H27642  -0.150   9.125   3.922 -0.9755  1.8186 -0.8019
  205MOL0     H27643  -0.048   8.990   3.680  2.4364 -2.0401  1.3190
  205MOL0     H27644  -0.001   8.954   3.836 -2.3039 -3.4227 -1.9498
  205MOL0     H27645  -0.289   8.926   3.739 -0.5255  2.1690  1.2220
  205MOL0     H27646  -0.226   8.927   3.913  1.9303  1.3391  0.0226
  205MOL0     H27647  -0.130   8.748   3.692  0.9489 -3.2055  0.2633
  205MOL0     H27648  -0.099   8.725   3.860 -0.8406 -0.1582  1.5181
  205MOL0     H27649  -0.279   8.580   3.732 -1.8941  1.5030 -3.8067
  205MOL0     H27650  -0.386   8.711   3.734  0.6454 -0.2147 -1.9276
  205MOL0     H27651  -0.236   8.627   3.988 -0.5090  1.7275  0.9344
  205MOL0     H27652  -0.371   8.731   3.985  1.4087  1.3539 -0.7105
  205MOL0     H27653  -0.434   8.509   4.057  0.1404  3.0205  0.3357
  205MOL0     H27654  -0.383   8.444   3.898  2.6591 -1.0325  2.1183
  205MOL0     H27655  -0.552   8.615   3.806 -1.1575  0.8689  0.6461
  205MOL0     H27656  -0.619   8.626   3.976 -1.0160 -0.8054  0.8232
  205MOL0     H27657  -0.364   9.213   3.535  0.1529  3.5514  0.1874
  205MOL0     H27658  -0.302   9.225   3.315 -0.9534 -3.9128  2.0547
  205MOL0     H27659   0.080   9.130   3.051 -0.4952  0.7186  0.4408
  205MOL0     H27660   0.180   9.061   2.845  0.5842 -0.6572 -1.0286
  205MOL0     H27661   1.920   9.034   3.453 -2.6201  2.3784  0.7590
  205MOL0     H27662   2.150   8.977   3.399 -1.5517 -2.3198 -4.3254
  205MOL0     H27663   2.536   9.191   3.274  1.8852 -2.0091  0.5091
  205MOL0     H27664   2.766   9.239   3.225  1.7750 -2.5004 -1.3440
  205MOL0     H27665   2.905   9.089   3.167 -1.7522 -3.7922 -0.5722
  205MOL0     H27666   2.906   9.014   3.009 -1.9789 -0.3923  0.6525
  205MOL0     H27667   3.130   8.996   3.120  1.6534  1.8813  1.8192
  205MOL0     H27668   3.147   9.158   3.133 -1.2983  1.3640  1.1248
  205MOL0     H27669   3.139   9.006   2.859  0.3938 -0.2081  0.2812
  205MOL0     H27670   3.273   9.059   2.926 -0.4873 -0.6076 -0.6686
  205MOL0     H27671   3.202   9.299   2.917  1.8808 -0.7453 -0.0570
  205MOL0     H27672   3.087   9.241   2.789  0.5000  2.8130  0.6594
  205MOL0     H27673   3.494   9.278   2.644 -0.9769  0.7990 -1.1581
  205MOL0     H27674   2.696   9.152   2.804 -1.2369 -0.6984 -0.5118
  205MOL0     H27675   2.473   9.129   2.851  3.1768 -1.3606 -1.3163
  206MOL0     O27676  10.991   1.627   0.397  0.4065  0.4275  0.1384
  206MOL0     C27677  11.037   1.729   0.459 -0.5068  0.6484  1.1936
  206MOL0     O27678  10.979   1.850   0.464 -0.0548  0.8401  0.9876
  206MOL0     C27679  10.867   1.878   0.395 -0.0035  0.1391  0.2609
  206MOL0     C27680  10.867   1.975   0.294  0.3799  0.1022  0.3098
  206MOL0     C27681  10.743   2.018   0.240  0.4854  0.7388 -1.1535
  206MOL0     C27682  10.616   1.962   0.284  0.5608  0.3570 -1.1001
  206MOL0     O27683  10.495   2.002   0.223  0.6151  0.1444  0.0652
  206MOL0     C27684  10.377   1.918   0.238 -0.4023  0.1428 -0.5259
  206MOL0     C27685  10.261   1.985   0.173  0.4371 -0.2217  0.3067
  206MOL0     C27686  10.128   1.906   0.171 -0.2805 -0.8316  0.0865
  206MOL0     C27687  10.034   1.931   0.292 -0.1170 -2.3073  0.4442
  206MOL0     C27688   9.886   1.870   0.274 -0.4717  0.4302 -0.3869
  206MOL0     C27689   9.814   1.922   0.159  0.1540 -0.6465  0.0760
  206MOL0     C27690   9.666   1.880   0.159  0.2270 -0.1433  0.3659
  206MOL0     C27691   9.579   1.950   0.265  0.1728  0.0733  0.2150
  206MOL0     N27692   9.436   1.941   0.233 -0.5589  0.3685  0.9788
  206MOL0     C27693   9.388   2.000   0.121 -0.6901 -0.1998  1.4977
  206MOL0     C27694   9.256   1.971   0.115  0.0262  0.3002  0.3379
  206MOL0     C27695   9.152   1.996   0.010 -0.0753 -0.4478  0.5226
  206MOL0     C27696   9.079   2.130   0.046  0.9028  1.1625  0.5562
  206MOL0     C27697   8.941   2.101   0.109 -0.2920  0.5223 -0.2446
  206MOL0     C27698   8.841   2.204   0.068 -0.6127  0.2967 -0.3462
  206MOL0     O27699   8.906   2.342   0.058 -0.3323 -0.5709 -0.5180
  206MOL0     C27700   8.831   2.442   0.006  0.3278  0.2771  0.1520
  206MOL0     C27701   8.702   2.423  -0.044 -0.3605  0.3247 -0.4620
  206MOL0     C27702   8.624   2.532  -0.087 -0.8590  0.2860 -0.7437
  206MOL0     C27703   8.485   2.489  -0.146 -0.0947  0.3803 -0.7897
  206MOL0     C27704   8.670   2.663  -0.068 -0.4681  0.3512  0.1768
  206MOL0     C27705   8.597   2.791  -0.089 -0.1818  0.0536  0.5386
  206MOL0     O27706   8.630   2.909  -0.026  0.1487 -0.7350 -0.1997
  206MOL0     C27707   8.539   3.015  -0.019  0.4188  0.7730  0.6358
  206MOL0     C27708   8.475   3.074  -0.135  0.2331 -0.0319 -0.2979
  206MOL0     C27709   8.407   3.189  -0.124 -0.0172 -0.4735  0.3258
  206MOL0     C27710   8.393   3.259  -0.001  0.0813  0.0583 -0.3603
  206MOL0     O27711   8.307   3.361  -0.000 -0.6703 -0.1214  0.2981
  206MOL0     C27712   8.345   3.470   0.076  0.2288 -0.0289 -0.8464
  206MOL0     C27713   8.255   3.574   0.032  0.0032 -0.2795 -0.8503
  206MOL0     C27714   8.119   3.578   0.115  0.8773  0.2718 -0.4859
  206MOL0     C27715   8.034   3.698   0.090 -0.6436 -0.7312  0.9474
  206MOL0     C27716   7.910   3.680   0.172 -0.2743 -0.3227  0.1258
  206MOL0     C27717   7.831   3.808   0.195 -0.4719 -0.4339 -1.0559
  206MOL0     C27718   7.759   3.858   0.069 -0.8117 -0.6121 -0.5076
  206MOL0     C27719   7.645   3.953   0.097 -0.1180 -0.1882 -0.5300
  206MOL0    Cl27720   7.511   3.874   0.192 -0.1447 -0.1392  0.5502
  206MOL0     C27721   8.453   3.201   0.118 -0.5894 -0.0520  0.4839
  206MOL0     C27722   8.523   3.084   0.104 -0.0110  0.3883 -0.7748
  206MOL0     O27723   8.492   2.782  -0.149  0.4243 -0.8677  0.4873
  206MOL0     C27724   8.806   2.683  -0.017  0.0807  0.9275 -0.4355
  206MOL0     C27725   8.883   2.571   0.014  0.5018  1.1807 -0.6012
  206MOL0     N27726   9.228   1.896   0.233 -0.0579 -0.2550 -0.1798
  206MOL0     N27727   9.332   1.877   0.298 -0.1582 -0.4655 -0.8937
  206MOL0     C27728  10.621   1.869   0.385 -1.3492 -0.0324 -0.5346
  206MOL0     C27729  10.742   1.826   0.446 -1.0038 -0.1790 -0.2782
  206MOL0     C27730  11.162   1.709   0.525  0.1242  0.8197 -0.1778
  206MOL0     C27731  11.213   1.585   0.544 -0.2703  0.0249 -0.0649
  206MOL0     C27732  11.338   1.565   0.607  0.0107 -0.3178 -0.2949
  206MOL0     C27733  11.420   1.677   0.649  0.2027 -0.7836  0.2751
  206MOL0     O27734  11.538   1.674   0.717  0.8378  0.7090  0.8764
  206MOL0     C27735  11.593   1.547   0.751  0.0100 -0.3517  0.3172
  206MOL0     C27736  11.737   1.565   0.783 -0.0478  0.5188 -0.2187
  206MOL0     C27737  11.816   1.640   0.675 -0.0991  0.6983  0.8089
  206MOL0     C27738  11.924   1.547   0.614 -0.1334 -0.1523  0.9131
  206MOL0     C27739  11.880   1.436   0.524 -0.1186  0.9246 -1.1181
  206MOL0     C27740  11.830   1.367   0.437  0.1110 -0.1194  0.6129
  206MOL0     C27741  11.362   1.805   0.628 -0.4022  0.4562 -0.2294
  206MOL0     C27742  11.231   1.821   0.585  0.0333 -0.5843 -0.7411
  206MOL0     H27743  10.962   2.014   0.258  0.7791 -0.8223  0.3488
  206MOL0     H27744  10.740   2.088   0.158  2.3349  1.4745 -0.6278
  206MOL0     H27745  10.389   1.822   0.187 -1.9061  1.3897 -3.5147
  206MOL0     H27746  10.365   1.902   0.345 -0.2196  0.0802 -0.5145
  206MOL0     H27747  10.250   2.086   0.213 -2.4898 -1.1262  2.0917
  206MOL0     H27748  10.290   2.004   0.069 -1.3097  0.6237 -0.0577
  206MOL0     H27749  10.080   1.934   0.076  2.0383  0.2701 -0.8636
  206MOL0     H27750  10.135   1.799   0.150 -0.0472 -0.7460 -0.3069
  206MOL0     H27751  10.077   1.891   0.385  2.0550 -1.5574 -0.1758
  206MOL0     H27752  10.026   2.040   0.305 -2.0608 -1.8878 -3.1541
  206MOL0     H27753   9.897   1.762   0.266 -1.0419  0.2055  1.3112
  206MOL0     H27754   9.826   1.880   0.365  1.6578  0.6088  1.0803
  206MOL0     H27755   9.830   2.030   0.163  1.3547 -0.7376  5.5279
  206MOL0     H27756   9.856   1.884   0.065  0.5395  2.1442 -0.9677
  206MOL0     H27757   9.628   1.901   0.059 -1.3161  0.2613  1.0128
  206MOL0     H27758   9.668   1.772   0.173  1.8627 -0.1748  0.1538
  206MOL0     H27759   9.596   2.058   0.268 -0.2355  0.1939 -1.1647
  206MOL0     H27760   9.607   1.919   0.366  0.7400 -0.4871 -0.1106
  206MOL0     H27761   9.443   2.057   0.048 -2.7805 -1.7069 -1.4629
  206MOL0     H27762   9.195   2.018  -0.088  0.7660 -2.3594  0.4035
  206MOL0     H27763   9.098   1.900   0.005  1.9626 -1.6359  0.0166
  206MOL0     H27764   9.072   2.192  -0.044 -2.2480 -0.5037 -0.4973
  206MOL0     H27765   9.139   2.186   0.118  0.0065  0.8618  1.5689
  206MOL0     H27766   8.960   2.092   0.217  0.2805  0.0282 -0.3843
  206MOL0     H27767   8.900   2.003   0.081 -4.3297  1.3664  1.8752
  206MOL0     H27768   8.755   2.203   0.135 -0.4646 -2.7222 -0.0705
  206MOL0     H27769   8.820   2.170  -0.034  2.8032 -0.2712 -1.0105
  206MOL0     H27770   8.660   2.324  -0.057  2.6409 -0.9282 -1.4291
  206MOL0     H27771   8.444   2.554  -0.223 -3.0252 -1.3073 -0.8156
  206MOL0     H27772   8.476   2.391  -0.193 -0.5624 -0.9010  1.7489
  206MOL0     H27773   8.407   2.493  -0.070 -0.2819 -4.9878 -0.3000
  206MOL0     H27774   8.493   3.026  -0.231  0.9008 -0.6733  0.1373
  206MOL0     H27775   8.347   3.231  -0.204  1.4886  0.6132 -0.2897
  206MOL0     H27776   8.337   3.451   0.184 -4.6431  1.0664 -0.7716
  206MOL0     H27777   8.445   3.504   0.046 -0.2987  0.4822 -2.0853
  206MOL0     H27778   8.303   3.670   0.051 -0.2688 -0.4233  0.7207
  206MOL0     H27779   8.234   3.557  -0.074 -2.5383 -0.9859 -0.3094
  206MOL0     H27780   8.137   3.561   0.222 -0.8228  0.9188 -0.0523
  206MOL0     H27781   8.065   3.486   0.089  0.2313  0.8045 -1.0451
  206MOL0     H27782   8.095   3.781   0.126  0.3053 -0.9037 -0.1947
  206MOL0     H27783   8.007   3.719  -0.014 -1.8790  0.4864  1.4845
  206MOL0     H27784   7.932   3.644   0.273 -0.2268  0.2985  0.3368
  206MOL0     H27785   7.843   3.601   0.137  1.2409 -3.2016  3.1791
  206MOL0     H27786   7.760   3.787   0.276 -0.0568 -1.1116 -0.8534
  206MOL0     H27787   7.906   3.878   0.232 -2.1683  0.0421  1.7948
  206MOL0     H27788   7.724   3.769   0.015  0.0954 -0.7203 -0.9426
  206MOL0     H27789   7.825   3.912   0.001 -2.8258  4.3756  1.0293
  206MOL0     H27790   7.603   3.985   0.002  0.9963 -2.2772 -1.7981
  206MOL0     H27791   7.687   4.041   0.147 -3.1486  1.6009 -0.9124
  206MOL0     H27792   8.437   3.244   0.216 -0.5051  1.6121 -0.1905
  206MOL0     H27793   8.564   3.041   0.195 -0.8096  0.7476 -0.2365
  206MOL0     H27794   8.847   2.783  -0.005 -3.1048  2.2521  0.5644
  206MOL0     H27795   8.981   2.571   0.061 -0.1055  2.1628  0.7588
  206MOL0     H27796  10.528   1.832   0.427 -0.6361  1.6804  3.0331
  206MOL0     H27797  10.743   1.763   0.534  1.1752  0.1858  0.0175
  206MOL0     H27798  11.150   1.499   0.521 -0.9113 -0.2489  2.4146
  206MOL0     H27799  11.372   1.462   0.606  0.4357 -0.2074  0.8152
  206MOL0     H27800  11.544   1.501   0.837 -0.9271  0.2925  0.1380
  206MOL0     H27801  11.599   1.479   0.666  1.9201  0.1032  0.0536
  206MOL0     H27802  11.771   1.461   0.790 -3.4458 -0.7243 -0.3255
  206MOL0     H27803  11.757   1.610   0.880 -0.5721 -0.3205  0.2916
  206MOL0     H27804  11.870   1.725   0.718  0.8080  0.0577  0.9691
  206MOL0     H27805  11.746   1.676   0.600 -1.8703  2.4949  3.1705
  206MOL0     H27806  11.997   1.522   0.691  1.5531  0.6912 -0.3302
  206MOL0     H27807  11.988   1.603   0.544  0.0267 -0.7859  0.5443
  206MOL0     H27808  11.777   1.304   0.369 -4.8989  1.9214  2.1953
  206MOL0     H27809  11.421   1.893   0.650 -0.1538  0.3755 -0.5728
  206MOL0     H27810  11.179   1.917   0.584 -0.4986 -0.8673 -0.5900
  207MOL0     O27811   3.756   7.481   7.036 -0.7982  0.4729 -0.0685
  207MOL0     C27812   3.734   7.365   6.998 -0.1732  0.4614  0.5040
  207MOL0     O27813   3.774   7.256   7.063 -0.7340 -0.4560 -0.3239
  207MOL0     C27814   3.864   7.272   7.161  0.6708  0.2980 -1.3544
  207MOL0     C27815   3.817   7.313   7.288 -0.5367  0.6700 -0.2569
  207MOL0     C27816   3.908   7.330   7.388  1.0062 -0.0533 -0.5112
  207MOL0     C27817   4.043   7.311   7.376 -0.0894  0.3321  0.0566
  207MOL0     O27818   4.104   7.338   7.493 -0.7621  0.4239 -0.1269
  207MOL0     C27819   4.239   7.314   7.522 -0.7138  1.1317  0.6562
  207MOL0     C27820   4.280   7.429   7.617 -0.3703 -0.4286  0.1246
  207MOL0     C27821   4.418   7.393   7.686 -0.4467  0.9211 -0.2467
  207MOL0     C27822   4.390   7.324   7.817 -0.7768  0.3666  0.0267
  207MOL0     C27823   4.512   7.351   7.905  0.5459  0.2643 -0.6381
  207MOL0     C27824   4.501   7.254   8.030  0.7757  0.3626  0.1276
  207MOL0     C27825   4.596   7.283   8.147  0.1790  0.1061  0.1212
  207MOL0     C27826   4.742   7.250   8.104  0.1051  0.3085  0.3167
  207MOL0     N27827   4.844   7.249   8.210 -0.3357 -0.6641 -0.3742
  207MOL0     C27828   4.872   7.348   8.301  1.5186 -0.2564 -0.7357
  207MOL0     C27829   4.960   7.290   8.386  0.1915  0.8512 -0.7026
  207MOL0     C27830   4.991   7.350   8.520 -0.2646  0.0643  0.1806
  207MOL0     C27831   4.915   7.268   8.633 -0.1864  0.3767  0.7896
  207MOL0     C27832   5.004   7.169   8.708 -0.4072  0.4349  0.5349
  207MOL0     C27833   5.055   7.046   8.631 -0.2478 -0.0721 -0.0603
  207MOL0     O27834   5.141   6.973   8.718 -0.3954 -0.8814 -0.0029
  207MOL0     C27835   5.270   7.023   8.740  0.0968 -1.0156 -0.2304
  207MOL0     C27836   5.334   6.994   8.859  0.5070  0.0941  0.9261
  207MOL0     C27837   5.477   7.010   8.885  0.9428 -0.1737 -0.4466
  207MOL0     C27838   5.531   6.977   9.023 -0.0456 -0.0670  0.2543
  207MOL0     C27839   5.553   7.058   8.780 -0.7113 -1.0194  0.1686
  207MOL0     C27840   5.697   7.085   8.785 -0.1080  0.1807  0.8005
  207MOL0     O27841   5.738   7.194   8.711  0.3866  0.1183 -0.5256
  207MOL0     C27842   5.875   7.230   8.689 -0.2270  0.0796  0.4752
  207MOL0     C27843   5.969   7.125   8.677 -0.4386 -0.8513  0.5099
  207MOL0     C27844   6.111   7.157   8.655 -0.3795 -0.5370 -0.7401
  207MOL0     C27845   6.155   7.289   8.668  0.1597 -0.4073 -0.2836
  207MOL0     O27846   6.292   7.319   8.664  0.3141  0.0237  0.6226
  207MOL0     C27847   6.330   7.461   8.668  0.0347  0.3303 -0.2041
  207MOL0     C27848   6.473   7.468   8.640  0.2419  0.1862 -0.5653
  207MOL0     C27849   6.507   7.430   8.491  0.8224  0.7316 -0.1952
  207MOL0     C27850   6.647   7.464   8.443  0.4411 -0.2148  0.2587
  207MOL0     C27851   6.676   7.364   8.332 -0.4752 -0.2012 -0.5499
  207MOL0     C27852   6.785   7.428   8.255 -0.6141  0.1842 -0.2277
  207MOL0     C27853   6.904   7.456   8.339 -0.0841 -0.4377 -0.7052
  207MOL0     C27854   7.032   7.459   8.262 -0.3854  0.0487  0.5829
  207MOL0    Cl27855   7.141   7.559   8.356  0.4075 -0.3571 -0.3461
  207MOL0     C27856   6.059   7.383   8.692  0.2515 -0.6698  0.1154
  207MOL0     C27857   5.922   7.358   8.700 -0.2029  0.7367 -0.2751
  207MOL0     O27858   5.761   7.007   8.854 -0.3843 -0.6426 -0.4989
  207MOL0     C27859   5.490   7.087   8.651  0.2100 -0.4835 -0.6173
  207MOL0     C27860   5.349   7.075   8.634 -0.3145 -0.3001 -0.1841
  207MOL0     N27861   4.991   7.167   8.344 -0.1853  0.1294  0.1811
  207MOL0     N27862   4.912   7.135   8.248 -0.1683  0.7639 -0.5393
  207MOL0     C27863   4.089   7.275   7.248 -0.5033 -0.4229  0.1881
  207MOL0     C27864   4.001   7.257   7.144 -0.3971  1.2766 -0.1338
  207MOL0     C27865   3.659   7.333   6.876  0.0023 -0.4703  0.2676
  207MOL0     C27866   3.589   7.429   6.789 -0.5100  0.5184 -0.2601
  207MOL0     C27867   3.498   7.380   6.695  0.1580  0.4847 -0.0999
  207MOL0     C27868   3.477   7.239   6.676 -0.4958  0.0069  0.3393
  207MOL0     O27869   3.392   7.182   6.581  0.0944  0.4548  0.0690
  207MOL0     C27870   3.265   7.232   6.554  0.0337 -0.1738 -0.3687
  207MOL0     C27871   3.188   7.288   6.677  0.1162 -0.8419 -0.1697
  207MOL0     C27872   3.167   7.170   6.770  0.4781  0.0612  0.1294
  207MOL0     C27873   3.086   7.205   6.900 -0.9034 -0.2291 -0.1152
  207MOL0     C27874   3.026   7.072   6.936 -0.6341  0.4028  0.5723
  207MOL0     C27875   2.990   6.966   6.985 -0.1233 -0.3552 -0.3665
  207MOL0     C27876   3.553   7.151   6.752 -0.4278  0.3025 -0.1641
  207MOL0     C27877   3.651   7.196   6.844  0.0072 -0.5749 -1.0963
  207MOL0     H27878   3.713   7.339   7.307  0.3791  2.2040  3.6413
  207MOL0     H27879   3.865   7.363   7.482  3.7091  0.6145  0.5848
  207MOL0     H27880   4.238   7.214   7.567 -1.5831  1.1545  0.7086
  207MOL0     H27881   4.307   7.320   7.436 -1.0595 -2.1280 -0.0074
  207MOL0     H27882   4.289   7.522   7.560  1.4437 -1.6550 -1.7575
  207MOL0     H27883   4.200   7.433   7.691 -1.3535 -0.6141 -0.9051
  207MOL0     H27884   4.481   7.325   7.629  1.6004 -1.7880  4.6402
  207MOL0     H27885   4.466   7.490   7.698 -0.2012  0.5210  2.7646
  207MOL0     H27886   4.301   7.359   7.871 -1.5481  0.1337 -1.0414
  207MOL0     H27887   4.378   7.218   7.793 -1.5314  0.5294 -0.3547
  207MOL0     H27888   4.606   7.324   7.856  0.8813  1.2149 -0.5321
  207MOL0     H27889   4.522   7.453   7.943 -0.1646 -0.9616  3.3275
  207MOL0     H27890   4.403   7.278   8.071  1.2450  1.1451  0.8267
  207MOL0     H27891   4.503   7.153   7.988 -4.8729 -0.8732  1.9128
  207MOL0     H27892   4.596   7.386   8.183  0.4233  0.2903 -0.3901
  207MOL0     H27893   4.570   7.221   8.233  2.3180  1.4454  1.8530
  207MOL0     H27894   4.769   7.333   8.038 -0.2984  1.4643  1.5572
  207MOL0     H27895   4.748   7.155   8.051  4.1302  2.2597 -3.3737
  207MOL0     H27896   4.826   7.447   8.297  1.1483 -0.4785 -2.7282
  207MOL0     H27897   5.098   7.368   8.535 -0.5399  0.7054  1.5223
  207MOL0     H27898   4.963   7.455   8.536 -0.8318 -0.3083  1.7586
  207MOL0     H27899   4.835   7.212   8.585 -0.9170  0.3086  2.0566
  207MOL0     H27900   4.874   7.337   8.708  2.3996 -0.6069  3.3179
  207MOL0     H27901   4.956   7.126   8.797  0.5423 -1.2479  0.2804
  207MOL0     H27902   5.088   7.224   8.750  0.8496 -1.3829  0.5127
  207MOL0     H27903   5.105   7.074   8.538  1.5329 -2.4605  0.0804
  207MOL0     H27904   4.970   6.986   8.596  2.1949 -1.1889 -4.8855
  207MOL0     H27905   5.274   6.960   8.943 -3.4447  1.1385 -1.1968
  207MOL0     H27906   5.450   6.952   9.092 -1.4587  0.3379 -1.1944
  207MOL0     H27907   5.608   6.899   9.024 -0.6835 -0.7147  0.5560
  207MOL0     H27908   5.587   7.055   9.075 -3.9463  0.7481  3.7501
  207MOL0     H27909   5.950   7.018   8.686  1.1420 -1.1343  0.8764
  207MOL0     H27910   6.182   7.078   8.632 -1.5471 -0.6455 -4.5940
  207MOL0     H27911   6.276   7.519   8.592  2.9898  2.1379 -1.0978
  207MOL0     H27912   6.308   7.502   8.766  0.9680  4.0125 -1.3721
  207MOL0     H27913   6.493   7.576   8.644  0.9557  0.0825 -0.9940
  207MOL0     H27914   6.540   7.411   8.705 -0.3432  2.7111  2.4939
  207MOL0     H27915   6.433   7.467   8.420 -0.0738  1.0194  0.8709
  207MOL0     H27916   6.516   7.321   8.483  2.2703  0.7039  1.2257
  207MOL0     H27917   6.648   7.564   8.399  1.2037 -0.0969  0.5333
  207MOL0     H27918   6.727   7.459   8.517  2.5995  0.3736 -1.9087
  207MOL0     H27919   6.588   7.320   8.283  0.2584  0.8894 -3.0036
  207MOL0     H27920   6.719   7.283   8.392  1.6428  0.0859 -1.5953
  207MOL0     H27921   6.812   7.361   8.173  1.9910  0.2181  0.5212
  207MOL0     H27922   6.752   7.526   8.220  0.6033 -0.2908 -3.0332
  207MOL0     H27923   6.926   7.392   8.425  0.3894  1.9984  1.0794
  207MOL0     H27924   6.871   7.553   8.376 -1.4372 -1.6921  1.5925
  207MOL0     H27925   7.019   7.498   8.161  1.9675  0.2600  0.2980
  207MOL0     H27926   7.076   7.359   8.247 -0.5248  0.2703 -1.7528
  207MOL0     H27927   6.096   7.485   8.694  3.0723 -1.4958 -2.0659
  207MOL0     H27928   5.859   7.446   8.714  2.0464  1.9777  3.4921
  207MOL0     H27929   5.537   7.132   8.564 -0.1033 -1.2360 -1.1948
  207MOL0     H27930   5.304   7.095   8.538 -0.3970  0.8327  0.0697
  207MOL0     H27931   4.195   7.256   7.234 -0.6024  0.1546 -1.5968
  207MOL0     H27932   4.027   7.243   7.039 -1.2576  0.5744 -0.2677
  207MOL0     H27933   3.605   7.535   6.809  0.0805  0.3464  0.2015
  207MOL0     H27934   3.433   7.453   6.648 -1.1835 -0.2592  0.5661
  207MOL0     H27935   3.269   7.304   6.471  4.9517 -1.9972 -2.1033
  207MOL0     H27936   3.216   7.145   6.509  0.0818  0.6700 -2.1722
  207MOL0     H27937   3.099   7.344   6.646  0.1950 -1.2950 -1.2812
  207MOL0     H27938   3.249   7.365   6.726 -0.7131 -1.5414  2.0612
  207MOL0     H27939   3.265   7.128   6.793  0.3142 -0.4542 -0.1048
  207MOL0     H27940   3.123   7.093   6.706  2.7072  1.5278 -3.4719
  207MOL0     H27941   3.006   7.276   6.877 -1.8539 -1.9762 -2.6821
  207MOL0     H27942   3.159   7.239   6.973 -2.4074 -0.2905  1.4881
  207MOL0     H27943   2.949   6.878   7.029 -2.1920  0.7680  0.0650
  207MOL0     H27944   3.543   7.044   6.734  1.2447 -0.0049  0.4714
  207MOL0     H27945   3.702   7.126   6.909 -0.5657  0.1428  0.1671
  208MOL0     O27946   5.374   6.115   2.658  0.2848  0.0188  0.1119
  208MOL0     C27947   5.309   6.221   2.679 -0.8830 -0.6797  0.4969
  208MOL0     O27948   5.351   6.327   2.758  0.4090  0.0391  0.1629
  208MOL0     C27949   5.465   6.329   2.835  0.3236  0.0612 -0.2214
  208MOL0     C27950   5.573   6.245   2.841 -0.2598 -1.0462 -0.3416
  208MOL0     C27951   5.683   6.283   2.918  0.0991  0.1434 -0.2903
  208MOL0     C27952   5.676   6.404   2.993  0.1058  0.1928  0.2189
  208MOL0     O27953   5.786   6.420   3.072 -0.5100 -0.3135  0.1012
  208MOL0     C27954   5.794   6.520   3.182  0.5919  0.6641 -0.5969
  208MOL0     C27955   5.748   6.452   3.318  0.4396 -0.2882  0.1094
  208MOL0     C27956   5.619   6.511   3.367  0.3491 -1.0266 -0.8319
  208MOL0     C27957   5.652   6.620   3.474  1.2338 -0.7629 -0.4933
  208MOL0     C27958   5.528   6.703   3.501  0.2547  0.0068  0.3063
  208MOL0     C27959   5.546   6.831   3.590 -0.3467  1.0637  0.3841
  208MOL0     C27960   5.602   6.798   3.740 -0.2947  0.0054  0.3269
  208MOL0     C27961   5.503   6.718   3.822  0.4664 -0.4076  0.4978
  208MOL0     N27962   5.551   6.676   3.954 -0.0029  0.7664 -0.5329
  208MOL0     C27963   5.571   6.752   4.064 -0.0904  0.0215 -0.2424
  208MOL0     C27964   5.585   6.657   4.165  0.4874  0.8442  0.4740
  208MOL0     C27965   5.624   6.683   4.306  0.4272  0.1528 -0.9841
  208MOL0     C27966   5.569   6.568   4.391  0.4147  0.3283  0.2990
  208MOL0     C27967   5.578   6.581   4.545 -0.4489  0.0823 -0.2362
  208MOL0     C27968   5.716   6.548   4.615  0.6112 -0.4283  0.4961
  208MOL0     O27969   5.711   6.567   4.761 -0.6076  0.1602  0.8608
  208MOL0     C27970   5.749   6.468   4.849  0.3114 -0.4103  0.2147
  208MOL0     C27971   5.673   6.450   4.971 -0.3517 -0.1420 -0.2766
  208MOL0     C27972   5.742   6.354   5.056  0.4047 -1.5415  1.2875
  208MOL0     C27973   5.666   6.326   5.185 -0.6134  0.1288 -0.2178
  208MOL0     C27974   5.864   6.286   5.032  0.1602  0.1640 -0.1290
  208MOL0     C27975   5.942   6.202   5.133 -0.1835 -0.4394 -1.0561
  208MOL0     O27976   5.894   6.186   5.256  0.3697 -0.1164 -0.3280
  208MOL0     C27977   5.956   6.092   5.337  0.5299  0.4375  0.7969
  208MOL0     C27978   5.896   5.966   5.347 -0.2475  0.0094 -0.3494
  208MOL0     C27979   5.961   5.872   5.428 -0.3327 -0.2781  0.4399
  208MOL0     C27980   6.088   5.898   5.493  0.7638  0.1505  0.7155
  208MOL0     O27981   6.143   5.811   5.577  0.6467  0.1054 -0.2047
  208MOL0     C27982   6.062   5.719   5.650 -0.1548  1.0375  0.3529
  208MOL0     C27983   6.132   5.618   5.746  0.5263 -0.3570 -0.3719
  208MOL0     C27984   6.223   5.679   5.847 -0.5717 -0.2330  0.3198
  208MOL0     C27985   6.240   5.575   5.965  0.1385 -0.4233  0.7092
  208MOL0     C27986   6.334   5.649   6.069  1.0453 -0.4741  0.1595
  208MOL0     C27987   6.343   5.571   6.200  0.1413 -0.2824 -0.3866
  208MOL0     C27988   6.422   5.646   6.301  1.0959 -0.2795 -1.2735
  208MOL0     C27989   6.401   5.590   6.441 -0.2955  0.0209 -0.0882
  208MOL0    Cl27990   6.481   5.426   6.457  0.4295 -0.1137 -0.3348
  208MOL0     C27991   6.149   6.019   5.465  0.1447 -0.7752 -0.4870
  208MOL0     C27992   6.081   6.117   5.401  0.4464  0.0764  0.3313
  208MOL0     O27993   6.033   6.134   5.082 -0.2486 -0.0504  0.4305
  208MOL0     C27994   5.920   6.314   4.905  0.6661 -0.8528  0.1308
  208MOL0     C27995   5.858   6.397   4.814 -0.2429  0.6343  0.0532
  208MOL0     N27996   5.574   6.526   4.106  0.6915 -0.7501  0.2068
  208MOL0     N27997   5.547   6.541   3.984 -0.4846  0.2111  0.1773
  208MOL0     C27998   5.560   6.479   2.999 -0.4682  0.2122 -0.1485
  208MOL0     C27999   5.459   6.447   2.918  0.2387  0.2695  1.5184
  208MOL0     C28000   5.168   6.217   2.626  0.4813  0.7925 -0.3112
  208MOL0     C28001   5.108   6.099   2.587  0.3647  0.1409 -0.3723
  208MOL0     C28002   4.974   6.098   2.536  0.0718  0.5995  0.0398
  208MOL0     C28003   4.895   6.212   2.529  0.5619 -0.5563 -0.1021
  208MOL0     O28004   4.769   6.200   2.490 -0.1556  0.4461  0.1702
  208MOL0     C28005   4.676   6.170   2.596 -0.4445  0.2285  0.2192
  208MOL0     C28006   4.654   6.308   2.664  0.3851  0.4675 -0.0563
  208MOL0     C28007   4.526   6.313   2.754 -0.7928  0.4485  0.0214
  208MOL0     C28008   4.394   6.297   2.681 -0.8582  0.6227  0.1096
  208MOL0     C28009   4.283   6.306   2.780  1.1627  0.5009  0.6180
  208MOL0     C28010   4.200   6.322   2.867  0.7613 -0.4687  0.2940
  208MOL0     C28011   4.953   6.327   2.581  0.2153 -0.1408  0.8053
  208MOL0     C28012   5.078   6.330   2.638 -0.6039  0.1003  0.1866
  208MOL0     H28013   5.589   6.150   2.791  0.2809 -1.0905 -0.0849
  208MOL0     H28014   5.773   6.221   2.923  0.3263  0.4285 -0.8093
  208MOL0     H28015   5.899   6.549   3.188  0.0528  3.0188 -1.4053
  208MOL0     H28016   5.737   6.612   3.165 -1.1161 -0.0082  1.0573
  208MOL0     H28017   5.741   6.343   3.315  1.7564 -0.3508 -2.1287
  208MOL0     H28018   5.820   6.478   3.397 -0.3704  2.1890  0.1475
  208MOL0     H28019   5.563   6.557   3.285 -1.6514 -2.4090 -0.3189
  208MOL0     H28020   5.545   6.441   3.410 -0.2317 -1.5587 -2.6126
  208MOL0     H28021   5.679   6.586   3.574  0.5746  0.5525  0.1553
  208MOL0     H28022   5.717   6.697   3.429  2.3979 -0.4064  1.6637
  208MOL0     H28023   5.499   6.739   3.402  1.1100 -2.3990 -0.9016
  208MOL0     H28024   5.439   6.648   3.530 -1.4067 -0.2569 -4.4963
  208MOL0     H28025   5.607   6.901   3.531  0.5298  1.2163  1.4398
  208MOL0     H28026   5.442   6.861   3.604 -1.6367 -2.2980 -0.9795
  208MOL0     H28027   5.705   6.765   3.752 -0.6331 -0.9128  0.8162
  208MOL0     H28028   5.609   6.901   3.776 -1.0298  0.3587 -0.4944
  208MOL0     H28029   5.489   6.620   3.776  1.0223 -0.0119 -0.5464
  208MOL0     H28030   5.408   6.771   3.828  0.7128  0.0319  0.5572
  208MOL0     H28031   5.586   6.860   4.065  1.0565 -0.0540 -2.6348
  208MOL0     H28032   5.729   6.686   4.336  0.2740 -1.4384 -0.1805
  208MOL0     H28033   5.571   6.774   4.336  2.5795  1.6607 -1.5086
  208MOL0     H28034   5.611   6.468   4.376 -0.1651 -0.1399  1.6588
  208MOL0     H28035   5.462   6.566   4.369  0.7430 -2.0953 -1.4673
  208MOL0     H28036   5.509   6.512   4.593  0.4151 -1.3704 -1.0061
  208MOL0     H28037   5.552   6.687   4.555 -0.1140  0.4297 -2.5367
  208MOL0     H28038   5.798   6.611   4.579  0.1486  0.6778  1.3250
  208MOL0     H28039   5.744   6.447   4.582 -0.4563 -0.1996 -1.1865
  208MOL0     H28040   5.583   6.507   4.994 -2.5782 -2.7472 -1.9044
  208MOL0     H28041   5.730   6.372   5.260  2.7082 -3.1286 -0.7817
  208MOL0     H28042   5.572   6.382   5.175  0.4511  1.7117 -1.9714
  208MOL0     H28043   5.638   6.223   5.206 -1.6097  0.7522  1.7329
  208MOL0     H28044   5.797   5.960   5.303 -0.7144  0.9983  0.5194
  208MOL0     H28045   5.899   5.784   5.445 -2.3968  1.6693  4.4927
  208MOL0     H28046   5.976   5.775   5.689 -0.0350  0.0684  2.1200
  208MOL0     H28047   6.021   5.639   5.589  0.1650 -0.1041  1.5950
  208MOL0     H28048   6.052   5.560   5.793  1.7451 -0.2373  2.0159
  208MOL0     H28049   6.192   5.550   5.686 -1.3541 -2.0203 -0.4616
  208MOL0     H28050   6.206   5.782   5.881 -0.8330  0.1310 -0.8613
  208MOL0     H28051   6.320   5.685   5.797 -1.2590  1.4368 -0.9279
  208MOL0     H28052   6.144   5.552   6.011  0.1680 -2.9886 -0.3125
  208MOL0     H28053   6.272   5.477   5.927  0.4213 -0.2713  0.5420
  208MOL0     H28054   6.298   5.750   6.087  2.9199  0.5520 -1.4841
  208MOL0     H28055   6.439   5.651   6.035  1.3021  1.4898  0.9277
  208MOL0     H28056   6.239   5.567   6.234 -0.2309  2.4341 -1.0074
  208MOL0     H28057   6.388   5.472   6.183  2.1426  0.4674  0.2665
  208MOL0     H28058   6.389   5.750   6.310  0.2042 -0.7578  2.8176
  208MOL0     H28059   6.530   5.645   6.283  1.3066  1.5862 -0.2873
  208MOL0     H28060   6.299   5.581   6.478 -0.2361 -0.0997  0.0502
  208MOL0     H28061   6.461   5.657   6.504 -1.5258 -1.1885  2.5585
  208MOL0     H28062   6.246   6.041   5.508 -0.5383  0.6331  0.4126
  208MOL0     H28063   6.129   6.214   5.395  2.3869 -0.8738 -0.2672
  208MOL0     H28064   6.007   6.261   4.866  0.1325 -2.8310  1.4621
  208MOL0     H28065   5.913   6.411   4.722  1.8896 -2.2559  0.7369
  208MOL0     H28066   5.539   6.564   3.063 -0.6136 -0.1252  0.2612
  208MOL0     H28067   5.365   6.499   2.929 -0.8305 -0.6143 -2.0873
  208MOL0     H28068   5.159   6.006   2.610  1.4062  1.0765  1.3337
  208MOL0     H28069   4.941   6.001   2.499 -2.0035  2.4435 -3.4387
  208MOL0     H28070   4.585   6.135   2.545 -1.2441 -2.3711  3.1042
  208MOL0     H28071   4.703   6.088   2.663 -0.9047 -0.1922 -0.0932
  208MOL0     H28072   4.637   6.378   2.582 -1.0213 -1.5736 -1.6092
  208MOL0     H28073   4.742   6.325   2.726  0.0220 -1.2137  0.9684
  208MOL0     H28074   4.534   6.406   2.810  0.4768  1.2385 -1.3874
  208MOL0     H28075   4.533   6.237   2.833 -0.1742 -0.0212 -0.4654
  208MOL0     H28076   4.382   6.199   2.636  2.2996  0.8697 -1.6174
  208MOL0     H28077   4.378   6.364   2.596 -5.3295 -3.5884 -2.8383
  208MOL0     H28078   4.129   6.331   2.947  1.7884  0.1090  1.1716
  208MOL0     H28079   4.903   6.423   2.568 -2.2519 -1.3662  0.6336
  208MOL0     H28080   5.112   6.424   2.679  1.8772 -0.3702 -0.6603
  209MOL0     O28081   5.669   6.178   8.734 -0.3902 -0.4865  0.6354
  209MOL0     C28082   5.745   6.114   8.806  0.8764  0.3119 -0.3500
  209MOL0     O28083   5.731   5.978   8.830  0.0259  0.2128  0.4070
  209MOL0     C28084   5.632   5.905   8.754 -0.0016  0.6759  0.6508
  209MOL0     C28085   5.654   5.889   8.614  0.5037  0.0022 -1.0003
  209MOL0     C28086   5.561   5.827   8.531 -0.0414 -0.8494 -0.0967
  209MOL0     C28087   5.443   5.779   8.579  0.4366 -0.0554 -0.6472
  209MOL0     O28088   5.362   5.709   8.495  0.5954  0.5460  0.4095
  209MOL0     C28089   5.357   5.561   8.503  0.0934  0.3899 -0.2351
  209MOL0     C28090   5.219   5.517   8.431 -0.0994  0.6129  0.3824
  209MOL0     C28091   5.097   5.584   8.485  0.3933  0.0034 -0.3988
  209MOL0     C28092   4.971   5.516   8.440 -0.4002 -0.4786  0.2114
  209MOL0     C28093   4.848   5.544   8.534 -0.7345 -0.4505  0.1069
  209MOL0     C28094   4.733   5.457   8.490 -0.0470 -0.4726  0.3571
  209MOL0     C28095   4.625   5.490   8.594  0.2145 -0.3849 -0.6319
  209MOL0     C28096   4.492   5.404   8.570 -0.0555 -0.0430 -0.2015
  209MOL0     N28097   4.383   5.445   8.661 -0.1165  0.3624 -0.8129
  209MOL0     C28098   4.344   5.380   8.769 -0.3798  0.8995 -0.2272
  209MOL0     C28099   4.247   5.454   8.825  0.5376 -1.3444 -0.1804
  209MOL0     C28100   4.166   5.415   8.949  0.5975 -0.2207 -1.2376
  209MOL0     C28101   4.021   5.386   8.932  0.2059  0.4903  1.9625
  209MOL0     C28102   3.949   5.506   8.885 -0.6682 -0.3370  0.3780
  209MOL0     C28103   3.808   5.480   8.847 -0.8350  0.1023 -0.4757
  209MOL0     O28104   3.755   5.588   8.779 -0.2581 -0.0890 -0.2712
  209MOL0     C28105   3.614   5.588   8.761 -0.3261  0.2349 -0.2963
  209MOL0     C28106   3.555   5.708   8.714 -0.5484 -0.5828  0.0629
  209MOL0     C28107   3.416   5.720   8.695  0.1803 -0.6247  0.6277
  209MOL0     C28108   3.375   5.861   8.649  0.0074  0.3733 -0.0304
  209MOL0     C28109   3.330   5.611   8.729  0.1790 -0.4452  0.3906
  209MOL0     C28110   3.181   5.627   8.723 -0.8231  1.0341 -0.4102
  209MOL0     O28111   3.110   5.514   8.670  0.1278 -0.0870  0.0680
  209MOL0     C28112   2.969   5.526   8.656 -0.2858  0.9556  0.1931
  209MOL0     C28113   2.902   5.643   8.631 -0.1937  0.0194  0.7609
  209MOL0     C28114   2.765   5.639   8.623  0.1008  0.4204  0.9362
  209MOL0     C28115   2.688   5.518   8.636 -0.9290  0.8226 -0.6509
  209MOL0     O28116   2.550   5.513   8.647  0.6502 -0.5086  0.6550
  209MOL0     C28117   2.487   5.641   8.667  0.8137 -0.5318 -0.3172
  209MOL0     C28118   2.451   5.704   8.532 -0.2214 -0.3103  0.8757
  209MOL0     C28119   2.400   5.852   8.530 -0.0630 -0.0056  0.2031
  209MOL0     C28120   2.459   5.934   8.413 -0.0183  0.1187 -0.0056
  209MOL0     C28121   2.385   5.896   8.288  0.0851 -0.9234  0.6952
  209MOL0     C28122   2.436   5.987   8.173  0.4011  0.0962 -0.4513
  209MOL0     C28123   2.403   5.932   8.031  0.4236  1.5670 -0.9005
  209MOL0     C28124   2.376   6.054   7.932 -0.5038  0.0446 -0.5834
  209MOL0    Cl28125   2.520   6.146   7.898  0.4388  0.1779 -0.2297
  209MOL0     C28126   2.759   5.400   8.668  0.5131  0.2402  0.7506
  209MOL0     C28127   2.898   5.414   8.677  0.8373 -0.3099  0.8231
  209MOL0     O28128   3.136   5.712   8.797  0.1813 -0.8562 -0.0561
  209MOL0     C28129   3.386   5.498   8.780  0.8797 -0.0943  0.5979
  209MOL0     C28130   3.526   5.478   8.791  0.4103 -0.4862 -0.5785
  209MOL0     N28131   4.237   5.569   8.747  0.4785 -0.1550  0.7944
  209MOL0     N28132   4.311   5.563   8.647  0.5663 -0.0030 -0.6162
  209MOL0     C28133   5.413   5.790   8.715 -0.2361  0.7425 -0.2057
  209MOL0     C28134   5.504   5.858   8.803 -0.4170 -0.1540 -0.1751
  209MOL0     C28135   5.873   6.176   8.844 -1.0259 -0.1315  0.2547
  209MOL0     C28136   5.921   6.295   8.789  0.5777 -0.9228 -0.8790
  209MOL0     C28137   6.049   6.350   8.824  1.0550 -0.2960  0.5699
  209MOL0     C28138   6.128   6.272   8.912 -0.8342 -0.4830  1.2137
  209MOL0     O28139   6.253   6.303   8.942 -0.4290  0.0860  0.6763
  209MOL0     C28140   6.321   6.406   8.882  0.2390 -0.9874 -0.2484
  209MOL0     C28141   6.446   6.415   8.971 -0.9015  0.5427 -0.0819
  209MOL0     C28142   6.546   6.522   8.929  0.0314 -0.1105  1.1471
  209MOL0     C28143   6.689   6.458   8.941  1.0785 -0.1236  0.3292
  209MOL0     C28144   6.724   6.411   9.070  0.2606  0.0777  0.7557
  209MOL0     C28145   6.764   6.377   9.181 -0.6227  0.6667  0.3164
  209MOL0     C28146   6.074   6.165   8.976 -0.1913  0.6261  0.0440
  209MOL0     C28147   5.943   6.114   8.954  0.3367 -0.4934 -0.2803
  209MOL0     H28148   5.749   5.926   8.577  0.8106  0.4970  0.2176
  209MOL0     H28149   5.596   5.813   8.429 -2.0289  0.1185 -0.9641
  209MOL0     H28150   5.447   5.516   8.460 -0.0265  1.2126 -1.4087
  209MOL0     H28151   5.350   5.531   8.608 -1.0369  0.9739 -0.1305
  209MOL0     H28152   5.226   5.528   8.322 -1.4500 -2.3239 -0.1012
  209MOL0     H28153   5.205   5.410   8.451  0.2246  1.0347  3.2835
  209MOL0     H28154   5.100   5.575   8.594  0.5894 -0.3568 -0.4310
  209MOL0     H28155   5.101   5.691   8.462 -0.9346  0.0620 -0.4121
  209MOL0     H28156   4.939   5.543   8.339  4.0905  0.8241 -1.0947
  209MOL0     H28157   4.990   5.408   8.436  2.7886  0.0175 -1.0551
  209MOL0     H28158   4.888   5.520   8.633 -0.8346 -1.2362 -0.0360
  209MOL0     H28159   4.834   5.652   8.540  2.3893 -0.0363  2.6837
  209MOL0     H28160   4.711   5.490   8.388  1.7465  1.0011  0.4017
  209MOL0     H28161   4.755   5.350   8.503 -0.3101 -0.6599 -0.6867
  209MOL0     H28162   4.657   5.472   8.697 -0.1023 -2.6624 -0.8896
  209MOL0     H28163   4.600   5.597   8.594  0.5891 -0.2823  0.4432
  209MOL0     H28164   4.505   5.297   8.583 -1.2647 -0.2228 -0.3101
  209MOL0     H28165   4.462   5.421   8.466 -2.7191 -0.1404  0.4698
  209MOL0     H28166   4.367   5.275   8.788 -0.9007  0.0096 -3.8217
  209MOL0     H28167   4.216   5.326   8.988 -1.0624 -0.9869 -0.7528
  209MOL0     H28168   4.181   5.499   9.018  1.7875 -1.6863  0.3782
  209MOL0     H28169   3.977   5.343   9.022  2.7562 -2.5331  1.9213
  209MOL0     H28170   4.018   5.302   8.862  1.5606  1.1288  1.0865
  209MOL0     H28171   4.003   5.541   8.797  2.4863 -1.0194  1.8782
  209MOL0     H28172   3.943   5.583   8.963 -0.6708 -0.4743  0.5135
  209MOL0     H28173   3.745   5.456   8.933 -2.7219 -1.4616 -2.1830
  209MOL0     H28174   3.821   5.395   8.779  0.8983  0.9398 -1.2646
  209MOL0     H28175   3.621   5.791   8.694 -0.1628 -0.9820 -0.3506
  209MOL0     H28176   3.358   5.920   8.740 -3.6425 -0.0700 -0.2722
  209MOL0     H28177   3.461   5.902   8.596  1.1787  1.4437  2.5333
  209MOL0     H28178   3.287   5.855   8.584 -0.2947  0.0371  0.4028
  209MOL0     H28179   2.953   5.739   8.618 -1.6246  0.6521 -0.4621
  209MOL0     H28180   2.706   5.727   8.601  0.6662  0.5717 -0.0499
  209MOL0     H28181   2.401   5.616   8.729  0.4570  0.1381 -0.5258
  209MOL0     H28182   2.548   5.712   8.725  0.6541 -1.1071  0.5692
  209MOL0     H28183   2.544   5.696   8.475 -0.4989 -0.0545  0.3752
  209MOL0     H28184   2.375   5.639   8.488  0.0154 -1.5360  2.2190
  209MOL0     H28185   2.438   5.886   8.627 -1.6212 -0.0123  0.8353
  209MOL0     H28186   2.291   5.855   8.531 -0.0884  2.1197 -0.9249
  209MOL0     H28187   2.442   6.039   8.435  2.0754  0.2872  1.0380
  209MOL0     H28188   2.567   5.927   8.396 -0.1012  0.8018 -0.8947
  209MOL0     H28189   2.281   5.928   8.297  0.1941  1.8099 -4.1971
  209MOL0     H28190   2.387   5.789   8.264 -2.3207 -0.9483  0.3505
  209MOL0     H28191   2.403   6.091   8.185  0.6931 -0.0631  2.3238
  209MOL0     H28192   2.546   5.991   8.172  0.4816 -1.5926 -0.2951
  209MOL0     H28193   2.310   5.876   8.043  0.0864  2.4923  1.4142
  209MOL0     H28194   2.477   5.861   7.991  1.4479  1.7610  0.5420
  209MOL0     H28195   2.297   6.105   7.989 -0.4464  1.1492 -1.4779
  209MOL0     H28196   2.352   6.019   7.832  4.0773 -0.6043 -1.6674
  209MOL0     H28197   2.705   5.308   8.686  1.3807 -0.7131 -1.2510
  209MOL0     H28198   2.955   5.323   8.692  0.7050 -0.1268  2.6856
  209MOL0     H28199   3.323   5.414   8.806 -0.0783 -0.5156 -2.5988
  209MOL0     H28200   3.575   5.395   8.842  0.1082 -2.5431 -3.3959
  209MOL0     H28201   5.322   5.745   8.753 -0.3298 -1.9453 -3.1231
  209MOL0     H28202   5.470   5.882   8.903 -0.3392 -0.3224 -0.1077
  209MOL0     H28203   5.858   6.362   8.731 -2.4025 -1.2351  1.7491
  209MOL0     H28204   6.081   6.449   8.793 -2.9198  1.5040  1.5411
  209MOL0     H28205   6.353   6.391   8.779  0.5447  0.5526 -0.3950
  209MOL0     H28206   6.273   6.503   8.902  3.4719  0.8871 -0.8727
  209MOL0     H28207   6.496   6.321   8.947 -0.5010  0.6354  0.3694
  209MOL0     H28208   6.424   6.414   9.078 -1.1383 -0.6427 -0.1304
  209MOL0     H28209   6.529   6.606   8.997 -2.6692 -1.4688  2.2833
  209MOL0     H28210   6.530   6.543   8.823  1.0449 -2.4143  0.4713
  209MOL0     H28211   6.752   6.540   8.906  0.9046 -0.6787 -1.3504
  209MOL0     H28212   6.695   6.373   8.873  3.3239 -0.1080  0.4043
  209MOL0     H28213   6.795   6.349   9.280  2.3529 -0.6101 -0.8596
  209MOL0     H28214   6.131   6.106   9.047  0.5851 -0.1560 -1.1727
  209MOL0     H28215   5.915   6.016   8.991  2.7372 -1.9970 -2.1865
  210MOL0     O28216   5.246   9.426   5.847  0.0960 -0.6657 -0.2305
  210MOL0     C28217   5.132   9.399   5.796 -0.6675  0.3817  0.0290
  210MOL0     O28218   5.110   9.289   5.723  0.2006 -0.0748  0.6360
  210MOL0     C28219   5.197   9.177   5.709  0.9083  0.2862  0.3528
  210MOL0     C28220   5.240   9.134   5.583 -0.0841 -0.5574 -0.1096
  210MOL0     C28221   5.323   9.029   5.572  0.5069  0.2709 -0.2973
  210MOL0     C28222   5.365   8.961   5.687  0.1082  0.3412  1.0569
  210MOL0     O28223   5.458   8.864   5.672 -0.2198 -0.5132 -0.3336
  210MOL0     C28224   5.545   8.836   5.793 -0.0468  0.4588 -0.4567
  210MOL0     C28225   5.478   8.710   5.848 -0.9464 -0.2700  0.3494
  210MOL0     C28226   5.573   8.656   5.963 -0.0413 -0.7488  0.1150
  210MOL0     C28227   5.531   8.510   6.013  0.3029 -0.3629 -0.4824
  210MOL0     C28228   5.390   8.505   6.071 -0.3377  1.1216 -0.8658
  210MOL0     C28229   5.353   8.355   6.107  0.0927  0.0744  0.8749
  210MOL0     C28230   5.338   8.275   5.981  0.1656 -0.2657  1.2926
  210MOL0     C28231   5.208   8.305   5.894  0.0166 -0.7630 -0.3361
  210MOL0     N28232   5.242   8.370   5.766  1.1139 -0.2795 -0.8704
  210MOL0     C28233   5.227   8.503   5.729  0.4938  0.8518 -0.0054
  210MOL0     C28234   5.220   8.510   5.595  1.2263 -0.1595 -0.2490
  210MOL0     C28235   5.204   8.637   5.514 -0.3446 -0.0016 -0.1967
  210MOL0     C28236   5.056   8.682   5.543 -0.0433 -0.6820 -0.3249
  210MOL0     C28237   4.952   8.583   5.474  0.3723  0.4742  0.0855
  210MOL0     C28238   4.807   8.637   5.484  0.4982 -0.6909 -0.2651
  210MOL0     O28239   4.810   8.743   5.387 -0.4529 -0.0432 -0.6743
  210MOL0     C28240   4.701   8.815   5.344  0.1584 -0.4406 -0.4953
  210MOL0     C28241   4.572   8.789   5.386 -0.0981  0.0895  0.1728
  210MOL0     C28242   4.470   8.871   5.352 -0.5305 -0.8195 -0.1371
  210MOL0     C28243   4.326   8.834   5.403  0.1698  0.4839  0.2341
  210MOL0     C28244   4.486   8.991   5.278  0.5335 -0.1546  0.1296
  210MOL0     C28245   4.371   9.085   5.234  0.8407  0.1088 -0.2772
  210MOL0     O28246   4.290   9.126   5.334  0.6208  0.2857  0.1845
  210MOL0     C28247   4.177   9.206   5.319 -0.5888 -0.4297  0.4329
  210MOL0     C28248   4.175   9.318   5.239  0.0235  0.2188  0.4561
  210MOL0     C28249   4.074   9.403   5.246 -0.7056 -0.3682 -0.3241
  210MOL0     C28250   3.973   9.391   5.334 -0.3817 -0.8626 -0.8255
  210MOL0     O28251   3.867   9.472   5.315  0.3413  0.1898  0.4512
  210MOL0     C28252   3.867   9.584   5.407 -0.3601  1.0960 -0.1117
  210MOL0     C28253   3.725   9.598   5.467  0.9408  0.6696 -0.5632
  210MOL0     C28254   3.688   9.485   5.573  0.5807  0.8089  0.7683
  210MOL0     C28255   3.563   9.508   5.650  0.2239 -0.0145 -0.6511
  210MOL0     C28256   3.436   9.541   5.563  0.3342  0.8523  0.6490
  210MOL0     C28257   3.302   9.540   5.645 -1.1059 -0.0126  0.1618
  210MOL0     C28258   3.287   9.426   5.745 -0.1648  0.5440 -0.5052
  210MOL0     C28259   3.289   9.272   5.689  0.8033 -0.7897  0.1272
  210MOL0    Cl28260   3.202   9.174   5.823 -0.1459  0.0398  0.3547
  210MOL0     C28261   3.968   9.276   5.422 -1.0698  0.2462 -0.0475
  210MOL0     C28262   4.071   9.186   5.410 -0.5513  0.1776  0.0796
  210MOL0     O28263   4.358   9.114   5.113 -0.1275  0.2743  0.1252
  210MOL0     C28264   4.614   9.009   5.229 -0.3461 -0.1932 -1.3967
  210MOL0     C28265   4.723   8.928   5.265  0.2505  0.8587  0.6712
  210MOL0     N28266   5.242   8.382   5.547 -0.7914 -0.0006 -0.0021
  210MOL0     N28267   5.244   8.299   5.655 -0.5018  0.0962 -0.1689
  210MOL0     C28268   5.309   9.000   5.815 -0.0305  0.1443 -0.4588
  210MOL0     C28269   5.236   9.111   5.826 -0.2757 -0.3333 -0.1524
  210MOL0     C28270   5.031   9.501   5.796  0.5656  0.5514 -0.3999
  210MOL0     C28271   5.046   9.609   5.884  1.0143  0.1375  0.4025
  210MOL0     C28272   4.945   9.698   5.915  0.2593  0.6177 -0.4902
  210MOL0     C28273   4.816   9.671   5.872 -0.7050 -0.2044  0.8405
  210MOL0     O28274   4.709   9.758   5.901 -1.3111  0.4376  0.4079
  210MOL0     C28275   4.710   9.829   6.024  0.6554 -0.0417 -0.2836
  210MOL0     C28276   4.560   9.849   6.044 -0.0078 -0.5429  0.0573
  210MOL0     C28277   4.484   9.716   6.086  0.2010 -0.0575  0.1951
  210MOL0     C28278   4.329   9.733   6.060  0.4412  0.2511 -0.1694
  210MOL0     C28279   4.256   9.662   6.161 -0.2202 -0.0283 -0.7792
  210MOL0     C28280   4.202   9.597   6.250 -0.0843  0.2688  0.4994
  210MOL0     C28281   4.801   9.567   5.780  0.0229 -0.1289 -1.1208
  210MOL0     C28282   4.904   9.486   5.735  0.1237  0.5865  0.5534
  210MOL0     H28283   5.200   9.185   5.496  1.8206  0.5592 -0.3925
  210MOL0     H28284   5.363   9.007   5.474 -1.6015  1.3123 -1.4547
  210MOL0     H28285   5.651   8.817   5.770  0.1527 -1.1410  1.4184
  210MOL0     H28286   5.556   8.911   5.872  1.3658 -0.9490  0.7713
  210MOL0     H28287   5.373   8.726   5.876 -1.0118  2.8381 -1.2476
  210MOL0     H28288   5.475   8.648   5.757  2.8811  2.9911 -2.3105
  210MOL0     H28289   5.664   8.633   5.906  0.7731 -3.2057  2.2191
  210MOL0     H28290   5.602   8.729   6.039  2.8361 -2.2267  0.5686
  210MOL0     H28291   5.553   8.442   5.930  0.9220 -0.0089 -0.6134
  210MOL0     H28292   5.608   8.480   6.086  1.8880  0.2533 -1.8468
  210MOL0     H28293   5.385   8.571   6.158 -1.5177  1.4153 -1.1414
  210MOL0     H28294   5.317   8.537   5.997  1.2953 -0.6194 -3.4018
  210MOL0     H28295   5.430   8.298   6.161  1.2607  0.3557 -0.4155
  210MOL0     H28296   5.258   8.351   6.160 -0.4448 -2.5237 -0.1176
  210MOL0     H28297   5.428   8.268   5.919  0.4501  1.3294  1.5018
  210MOL0     H28298   5.325   8.171   6.012  1.0441 -1.7423 -2.6407
  210MOL0     H28299   5.144   8.366   5.958  1.6951 -0.4742  1.1474
  210MOL0     H28300   5.158   8.209   5.879 -0.8365 -0.1005 -2.0859
  210MOL0     H28301   5.226   8.583   5.802  3.4067  0.2745  0.7875
  210MOL0     H28302   5.277   8.713   5.542  1.8380 -2.1760  0.3823
  210MOL0     H28303   5.211   8.613   5.407  2.4300 -4.7144  0.7700
  210MOL0     H28304   5.039   8.787   5.517  2.3399 -0.2293 -0.3126
  210MOL0     H28305   5.041   8.667   5.650  0.8151 -0.5440 -0.1759
  210MOL0     H28306   4.972   8.486   5.519  2.8078  0.7902 -0.1984
  210MOL0     H28307   4.973   8.567   5.368 -0.9011  0.3618 -0.1706
  210MOL0     H28308   4.793   8.683   5.582  1.5050  0.4932 -0.6533
  210MOL0     H28309   4.731   8.561   5.463  1.2335 -0.8207 -2.7210
  210MOL0     H28310   4.533   8.710   5.450 -3.3512  0.9755 -0.5377
  210MOL0     H28311   4.246   8.881   5.345  1.3776  2.0619 -0.2025
  210MOL0     H28312   4.303   8.727   5.394 -0.3601  0.5131  1.0980
  210MOL0     H28313   4.316   8.848   5.511 -0.7942 -1.8947  0.5295
  210MOL0     H28314   4.262   9.333   5.175 -0.8256  1.7660 -0.3708
  210MOL0     H28315   4.074   9.478   5.167  1.5693  0.2555  0.2027
  210MOL0     H28316   3.945   9.573   5.484  2.4543  2.4112 -2.5945
  210MOL0     H28317   3.889   9.679   5.359  0.1195  1.8847  1.5949
  210MOL0     H28318   3.716   9.695   5.518  0.8935 -1.2040  3.3768
  210MOL0     H28319   3.653   9.588   5.385  0.7530  2.9380 -0.7299
  210MOL0     H28320   3.773   9.471   5.640 -1.1856 -0.2523  2.9607
  210MOL0     H28321   3.678   9.389   5.521  2.2374  1.4896 -0.8998
  210MOL0     H28322   3.545   9.417   5.709 -2.5395  2.2484  2.3273
  210MOL0     H28323   3.584   9.579   5.730  1.5549 -0.0229 -0.9685
  210MOL0     H28324   3.417   9.487   5.470  0.2336  3.6577 -1.1040
  210MOL0     H28325   3.447   9.644   5.527 -3.4547  0.8286 -1.0921
  210MOL0     H28326   3.300   9.633   5.703 -1.6591 -1.0085  1.8074
  210MOL0     H28327   3.218   9.555   5.576  1.8233 -1.5131 -4.1589
  210MOL0     H28328   3.186   9.435   5.786  0.0011 -2.2195  0.6997
  210MOL0     H28329   3.345   9.445   5.836 -1.4642  3.0990 -0.1114
  210MOL0     H28330   3.390   9.234   5.673  2.6665  2.9000  1.8841
  210MOL0     H28331   3.217   9.270   5.606  0.2756 -0.5054  0.5712
  210MOL0     H28332   3.891   9.267   5.497 -1.1343  3.2806  0.3818
  210MOL0     H28333   4.084   9.102   5.477 -1.1997 -0.5390 -0.6754
  210MOL0     H28334   4.627   9.100   5.172 -0.5272  3.2142  3.3726
  210MOL0     H28335   4.826   8.952   5.242  1.1158 -3.1050 -0.3359
  210MOL0     H28336   5.342   8.940   5.899  1.4009 -0.2154 -1.2335
  210MOL0     H28337   5.198   9.157   5.916 -2.5269 -0.0767 -1.1513
  210MOL0     H28338   5.143   9.629   5.929  0.6728  3.0969 -0.0261
  210MOL0     H28339   4.969   9.785   5.975 -3.3105  0.6815  1.1168
  210MOL0     H28340   4.757   9.763   6.098 -0.0440  0.0865  0.2916
  210MOL0     H28341   4.770   9.919   6.026  1.1530 -0.3467 -0.9975
  210MOL0     H28342   4.510   9.904   5.963 -1.6621 -0.7770  0.8829
  210MOL0     H28343   4.538   9.911   6.131  2.6366 -0.0772  0.4966
  210MOL0     H28344   4.506   9.689   6.190  2.7914 -3.0111 -0.9643
  210MOL0     H28345   4.511   9.631   6.024 -1.5392  0.6959 -1.6909
  210MOL0     H28346   4.301   9.703   5.958  3.0913 -0.5037 -0.7501
  210MOL0     H28347   4.309   9.839   6.079  4.2001  0.6510  2.6463
  210MOL0     H28348   4.168   9.531   6.328  0.4017 -2.7871 -1.6866
  210MOL0     H28349   4.698   9.538   5.758 -1.1847  1.8457  1.4968
  210MOL0     H28350   4.887   9.404   5.666 -0.2946 -1.0139  2.4694
  211MOL0     O28351   7.225   1.447   3.028  0.4861  0.5247 -0.1825
  211MOL0     C28352   7.319   1.503   3.095  0.7394  0.2244 -0.1468
  211MOL0     O28353   7.294   1.586   3.196  0.2097 -0.7462  0.0165
  211MOL0     C28354   7.166   1.626   3.216  0.0627  0.3220  0.1488
  211MOL0     C28355   7.138   1.759   3.202 -0.8732 -0.4899  0.1896
  211MOL0     C28356   7.015   1.815   3.239  0.4916  0.1124 -0.5572
  211MOL0     C28357   6.911   1.728   3.286 -0.1076  0.4971 -0.5743
  211MOL0     O28358   6.783   1.771   3.314 -0.8928 -0.5000  0.2382
  211MOL0     C28359   6.741   1.893   3.266 -0.3920 -0.5084  0.5603
  211MOL0     C28360   6.589   1.910   3.291 -1.2131  0.2968 -0.0841
  211MOL0     C28361   6.526   1.787   3.362  0.1093  0.3338  0.0932
  211MOL0     C28362   6.377   1.813   3.408 -0.8208  0.1221 -0.2393
  211MOL0     C28363   6.341   1.716   3.528 -0.4526 -0.1553  0.3749
  211MOL0     C28364   6.186   1.735   3.563 -0.3779 -0.8376  0.3232
  211MOL0     C28365   6.137   1.647   3.675 -0.7953  0.4183  0.5220
  211MOL0     C28366   6.004   1.695   3.729  1.1003  0.0739  0.0667
  211MOL0     N28367   5.885   1.665   3.651  0.3829 -0.0047 -0.4695
  211MOL0     C28368   5.804   1.549   3.664  0.2657  0.6282 -0.2352
  211MOL0     C28369   5.731   1.541   3.554  0.5955 -0.3769  0.2629
  211MOL0     C28370   5.621   1.434   3.525  0.3215  0.2211 -0.2200
  211MOL0     C28371   5.653   1.312   3.439  0.2966 -0.0504 -0.1154
  211MOL0     C28372   5.541   1.200   3.441  0.3766  0.5760 -0.2095
  211MOL0     C28373   5.394   1.238   3.405  0.5197  0.1592 -0.8474
  211MOL0     O28374   5.382   1.333   3.300 -0.3426  0.2821  0.1634
  211MOL0     C28375   5.261   1.336   3.231 -0.6638 -0.4907  0.7299
  211MOL0     C28376   5.255   1.385   3.104  0.9154 -0.1083  0.4269
  211MOL0     C28377   5.132   1.386   3.030 -0.8110  0.1621 -1.1230
  211MOL0     C28378   5.138   1.426   2.883  0.5437  0.5441 -0.0800
  211MOL0     C28379   5.010   1.372   3.101 -0.5793 -0.4077 -1.3201
  211MOL0     C28380   4.883   1.409   3.042  1.0089  0.2355 -0.7164
  211MOL0     O28381   4.848   1.547   3.071  0.0416  0.2468 -0.2268
  211MOL0     C28382   4.723   1.593   3.047  0.1726 -0.0178 -0.6368
  211MOL0     C28383   4.695   1.628   2.915  0.5311 -0.4918  0.3060
  211MOL0     C28384   4.574   1.686   2.882 -0.0842 -0.2220  0.2466
  211MOL0     C28385   4.498   1.737   2.985 -0.5733 -0.0133  0.0971
  211MOL0     O28386   4.381   1.786   2.945  0.2190  0.4035  0.8252
  211MOL0     C28387   4.372   1.922   2.906  0.2361  0.4088  0.3828
  211MOL0     C28388   4.230   1.956   2.857  1.3958 -0.3422  0.1243
  211MOL0     C28389   4.210   1.928   2.705 -0.2056  0.1000 -0.4681
  211MOL0     C28390   4.063   1.932   2.670  0.0151  0.3342  0.2896
  211MOL0     C28391   4.037   1.897   2.525  0.1671  0.2618 -0.3923
  211MOL0     C28392   4.044   1.740   2.504  1.3966 -0.1157 -0.0057
  211MOL0     C28393   4.026   1.707   2.351 -0.4891 -0.5328  0.6616
  211MOL0     C28394   3.944   1.574   2.325  0.1892  0.2581 -0.0871
  211MOL0    Cl28395   3.930   1.533   2.157 -0.1937  0.2613  0.2860
  211MOL0     C28396   4.529   1.718   3.119  0.4778 -0.1921 -0.0412
  211MOL0     C28397   4.632   1.634   3.149 -0.4967  0.5412  0.0497
  211MOL0     O28398   4.826   1.332   2.961 -0.3899  0.4245 -0.0488
  211MOL0     C28399   5.020   1.315   3.230 -0.9134 -0.2861 -0.3713
  211MOL0     C28400   5.143   1.289   3.290  0.2975 -0.5690  0.1353
  211MOL0     N28401   5.736   1.661   3.484  0.4387 -0.2143 -0.4848
  211MOL0     N28402   5.840   1.723   3.540 -0.2959  0.6611  0.4866
  211MOL0     C28403   6.946   1.589   3.302  0.1563 -0.5660  0.2286
  211MOL0     C28404   7.064   1.532   3.263 -0.0187 -0.4051  0.5168
  211MOL0     C28405   7.459   1.478   3.053  0.9931 -0.2060 -0.1410
  211MOL0     C28406   7.569   1.518   3.132  0.6118  0.0216  0.4406
  211MOL0     C28407   7.703   1.479   3.106  0.6272  0.5672  0.0616
  211MOL0     C28408   7.733   1.400   2.990 -0.3038 -0.2767 -0.0163
  211MOL0     O28409   7.864   1.363   2.950  0.3613 -0.4041  0.4450
  211MOL0     C28410   7.953   1.352   3.067  0.3135 -0.0753  0.1988
  211MOL0     C28411   8.086   1.282   3.028  0.2275 -0.0886 -0.2175
  211MOL0     C28412   8.175   1.353   2.926  0.6922 -0.1308 -0.3456
  211MOL0     C28413   8.321   1.321   2.935  0.6745  1.1005  0.7083
  211MOL0     C28414   8.389   1.366   3.058 -0.0552  0.2973  0.4515
  211MOL0     C28415   8.449   1.357   3.163  0.4893  0.2788 -0.4076
  211MOL0     C28416   7.621   1.367   2.912  0.0816  0.6056  0.1163
  211MOL0     C28417   7.489   1.400   2.941 -0.3877 -0.1066  1.0249
  211MOL0     H28418   7.215   1.828   3.172 -2.5405  0.9639 -0.9902
  211MOL0     H28419   7.001   1.922   3.223 -0.5719 -0.3386 -3.0109
  211MOL0     H28420   6.797   1.976   3.309  0.3566 -1.4107  1.3553
  211MOL0     H28421   6.763   1.909   3.160  2.0550 -0.1983  1.0622
  211MOL0     H28422   6.562   2.007   3.333 -4.4010  0.7832 -2.7441
  211MOL0     H28423   6.535   1.906   3.196 -2.4591 -1.8065  0.6280
  211MOL0     H28424   6.542   1.696   3.304  2.2572  0.8368 -0.1907
  211MOL0     H28425   6.582   1.759   3.451  1.1540 -0.9263 -0.9240
  211MOL0     H28426   6.365   1.914   3.449 -1.2640 -0.4753  1.1704
  211MOL0     H28427   6.317   1.804   3.317  2.7814 -0.0037 -2.7979
  211MOL0     H28428   6.348   1.616   3.485  1.9291  1.2812 -3.1259
  211MOL0     H28429   6.412   1.739   3.608 -0.3951  2.8476 -0.4083
  211MOL0     H28430   6.159   1.837   3.593 -1.3666 -1.2238  0.8029
  211MOL0     H28431   6.129   1.713   3.472  1.5491 -1.3142 -0.8174
  211MOL0     H28432   6.130   1.543   3.643 -1.6186  1.5715 -3.6791
  211MOL0     H28433   6.216   1.662   3.750  2.1367 -0.5020 -2.1723
  211MOL0     H28434   6.010   1.802   3.752 -1.5459 -0.2353  2.8112
  211MOL0     H28435   5.990   1.652   3.829 -2.0321 -2.8997 -1.4492
  211MOL0     H28436   5.816   1.476   3.744  4.2792  3.6134  2.2840
  211MOL0     H28437   5.601   1.397   3.626 -2.5185  1.0172 -0.4135
  211MOL0     H28438   5.533   1.483   3.483  1.5776  3.2660  0.4414
  211MOL0     H28439   5.745   1.259   3.462 -1.5260 -2.4686  2.2806
  211MOL0     H28440   5.662   1.354   3.338  0.9413 -2.2616 -1.0311
  211MOL0     H28441   5.528   1.139   3.530 -1.5181  2.0530  0.5986
  211MOL0     H28442   5.576   1.123   3.371  0.4577 -0.3946  0.8723
  211MOL0     H28443   5.358   1.274   3.502  4.3230  1.8426  0.1092
  211MOL0     H28444   5.337   1.150   3.372  0.4100 -0.2377  0.3447
  211MOL0     H28445   5.343   1.421   3.052  2.2263 -1.6002  1.5445
  211MOL0     H28446   5.108   1.332   2.836 -0.9978 -0.0461  1.9150
  211MOL0     H28447   5.066   1.503   2.854  1.0006  1.1030  0.2445
  211MOL0     H28448   5.239   1.461   2.860  2.7815 -2.4868  3.7759
  211MOL0     H28449   4.773   1.599   2.845 -0.7671 -0.0019 -1.3929
  211MOL0     H28450   4.545   1.702   2.779 -0.7617  0.2271  0.5027
  211MOL0     H28451   4.393   1.984   2.994 -0.7599  0.5692  0.5223
  211MOL0     H28452   4.449   1.952   2.834 -0.1269  3.0247  0.9555
  211MOL0     H28453   4.165   1.898   2.924  1.7628  1.3339  2.0407
  211MOL0     H28454   4.214   2.063   2.874  1.5563 -0.3122  0.0843
  211MOL0     H28455   4.248   1.826   2.697  1.0781  0.2651  2.2478
  211MOL0     H28456   4.270   1.996   2.644 -1.0276  0.9257 -0.3756
  211MOL0     H28457   4.008   1.871   2.741  0.0722 -1.7668 -1.3836
  211MOL0     H28458   4.027   2.033   2.694  0.6638  0.2886  1.5072
  211MOL0     H28459   4.114   1.940   2.460  1.7018 -0.7621  0.6705
  211MOL0     H28460   3.947   1.951   2.495  0.1987  0.4833 -0.0959
  211MOL0     H28461   4.136   1.696   2.544 -0.8456 -3.1895  2.2091
  211MOL0     H28462   3.965   1.687   2.559 -0.4157 -0.7457 -3.0225
  211MOL0     H28463   4.123   1.696   2.300 -1.6565 -0.3147 -1.7258
  211MOL0     H28464   3.976   1.787   2.297  2.2910  0.5735 -0.4979
  211MOL0     H28465   3.839   1.587   2.351  0.1343  2.8727 -1.3325
  211MOL0     H28466   3.983   1.494   2.390 -1.7914 -0.9019 -0.2507
  211MOL0     H28467   4.457   1.760   3.188  2.0068  0.4851  1.1994
  211MOL0     H28468   4.647   1.595   3.249 -1.5871 -0.1025 -0.0204
  211MOL0     H28469   4.931   1.298   3.291 -0.2234 -2.7948  0.0354
  211MOL0     H28470   5.144   1.272   3.397  4.1425 -2.3365 -0.0164
  211MOL0     H28471   6.859   1.527   3.321 -0.8862  0.2556 -1.5335
  211MOL0     H28472   7.084   1.425   3.259 -0.5797 -0.4726 -0.9780
  211MOL0     H28473   7.539   1.586   3.211 -0.5240  3.2499 -2.5196
  211MOL0     H28474   7.773   1.513   3.181  0.7270  0.0925  0.1880
  211MOL0     H28475   7.968   1.448   3.117 -3.7893  0.8866 -0.0551
  211MOL0     H28476   7.897   1.293   3.140 -0.0483  1.6896  1.4086
  211MOL0     H28477   8.074   1.177   2.999  2.7628 -0.3287 -0.6573
  211MOL0     H28478   8.140   1.279   3.123 -1.8188 -0.5582  1.0019
  211MOL0     H28479   8.165   1.456   2.960 -1.6063 -0.3171 -0.3333
  211MOL0     H28480   8.142   1.341   2.823 -1.1428 -1.0681  0.2924
  211MOL0     H28481   8.371   1.369   2.850  0.7938  1.3147  0.8974
  211MOL0     H28482   8.332   1.213   2.924  1.6309  1.2116  0.4872
  211MOL0     H28483   8.501   1.367   3.256 -1.7647 -0.4788  1.0263
  211MOL0     H28484   7.648   1.303   2.828  0.2717 -0.1908  0.7777
  211MOL0     H28485   7.402   1.367   2.886  0.0515  0.4937 -0.0582
  212MOL0     O28486   9.423   0.221   1.545  0.4955  0.0529 -0.1049
  212MOL0     C28487   9.429   0.333   1.587  0.5747 -0.0832 -0.8519
  212MOL0     O28488   9.541   0.403   1.616 -0.3330  0.3640  0.1205
  212MOL0     C28489   9.663   0.340   1.578 -0.1412 -0.2653 -0.0366
  212MOL0     C28490   9.729   0.273   1.682 -0.0904 -0.3364  0.2726
  212MOL0     C28491   9.845   0.201   1.651  0.3027 -0.8167 -0.0579
  212MOL0     C28492   9.893   0.201   1.523 -0.1167 -0.4577 -0.2581
  212MOL0     O28493   9.992   0.124   1.483 -0.8648 -0.2767 -0.5197
  212MOL0     C28494  10.100   0.080   1.574 -0.1221 -0.2132  0.2562
  212MOL0     C28495  10.205   0.038   1.471 -0.1085  0.2804 -0.2307
  212MOL0     C28496  10.340  -0.026   1.522  0.7103  0.5053  0.4535
  212MOL0     C28497  10.409   0.080   1.599  0.2870  0.3211 -0.9637
  212MOL0     C28498  10.478   0.028   1.726  0.2906  0.4742  0.0755
  212MOL0     C28499  10.374   0.006   1.836 -0.6641  0.8667 -0.7043
  212MOL0     C28500  10.420  -0.097   1.942  0.0974 -0.2998 -0.2170
  212MOL0     C28501  10.378  -0.232   1.897  0.2694  0.2693  0.2081
  212MOL0     N28502  10.238  -0.263   1.915 -0.0810  0.3231  1.3240
  212MOL0     C28503  10.170  -0.283   2.037 -0.5366 -1.3198  0.3748
  212MOL0     C28504  10.050  -0.335   1.998 -0.2526  0.6043 -0.0580
  212MOL0     C28505   9.957  -0.370   2.097 -0.2148 -0.6337 -0.0223
  212MOL0     C28506   9.844  -0.276   2.116  1.0027  0.5733  0.6325
  212MOL0     C28507   9.774  -0.289   2.253  0.1616  0.6504  0.5498
  212MOL0     C28508   9.724  -0.433   2.275  0.9326 -0.3142 -0.5358
  212MOL0     O28509   9.645  -0.470   2.160 -0.1795 -0.0700  0.7465
  212MOL0     C28510   9.553  -0.567   2.184 -1.1299  0.1114 -0.5505
  212MOL0     C28511   9.599  -0.690   2.226  0.1484  0.2503  0.5385
  212MOL0     C28512   9.510  -0.795   2.240  0.0059 -0.0555 -0.6201
  212MOL0     C28513   9.561  -0.922   2.290  0.1617  0.0865  0.0019
  212MOL0     C28514   9.371  -0.766   2.216  0.8292  0.0585 -0.3003
  212MOL0     C28515   9.258  -0.871   2.224  0.0677 -0.8517 -1.1435
  212MOL0     O28516   9.122  -0.831   2.195  0.0065  0.2330 -0.7687
  212MOL0     C28517   9.020  -0.927   2.187 -0.9288  0.4838  0.5963
  212MOL0     C28518   9.003  -1.027   2.286  0.6525  0.3931 -0.3961
  212MOL0     C28519   8.906  -1.129   2.274 -0.1346 -0.2473  0.3992
  212MOL0     C28520   8.815  -1.124   2.166  0.1098 -0.4754  1.2670
  212MOL0     O28521   8.712  -1.203   2.144 -0.8615  0.8090  0.2476
  212MOL0     C28522   8.700  -1.309   2.234  0.1547 -0.1723  0.3384
  212MOL0     C28523   8.784  -1.433   2.192 -0.1106  0.9907  0.0955
  212MOL0     C28524   8.768  -1.567   2.266  0.1903 -0.7692 -0.0753
  212MOL0     C28525   8.634  -1.622   2.241 -0.0145 -0.0981 -0.1991
  212MOL0     C28526   8.624  -1.775   2.269  0.4447 -0.3230 -0.3228
  212MOL0     C28527   8.667  -1.810   2.410 -0.1243 -0.1790  0.5082
  212MOL0     C28528   8.643  -1.956   2.435  0.2460 -0.2674  0.5062
  212MOL0     C28529   8.617  -1.980   2.578 -0.1063 -0.1357 -0.3218
  212MOL0    Cl28530   8.665  -2.145   2.618 -0.2314  0.4944 -0.2925
  212MOL0     C28531   8.824  -1.019   2.080 -0.1892  0.7529  0.6196
  212MOL0     C28532   8.925  -0.928   2.084 -0.0859 -0.7282 -0.1947
  212MOL0     O28533   9.292  -0.987   2.252 -0.0895 -0.6830  0.7292
  212MOL0     C28534   9.334  -0.645   2.173 -0.1290 -1.1652  0.0483
  212MOL0     C28535   9.425  -0.540   2.155  0.0234  0.0529 -0.0010
  212MOL0     N28536  10.048  -0.340   1.862  1.1772  0.1469 -0.2026
  212MOL0     N28537  10.157  -0.293   1.808 -0.5189 -0.1178 -0.3662
  212MOL0     C28538   9.832   0.266   1.413  1.5425  0.5260 -0.1760
  212MOL0     C28539   9.710   0.335   1.444 -0.4784 -0.3175 -1.3873
  212MOL0     C28540   9.296   0.395   1.619  0.1061 -0.0672 -0.6712
  212MOL0     C28541   9.288   0.490   1.719 -0.3990 -0.5707  0.6182
  212MOL0     C28542   9.165   0.529   1.763  0.4764  1.0429 -0.5611
  212MOL0     C28543   9.042   0.492   1.703 -0.3743  0.4666 -0.3391
  212MOL0     O28544   8.920   0.531   1.750  0.1746 -0.2797 -1.1085
  212MOL0     C28545   8.908   0.622   1.855  0.2753 -1.0126 -0.2849
  212MOL0     C28546   8.766   0.612   1.885 -0.6607 -0.7607 -0.6247
  212MOL0     C28547   8.714   0.471   1.943 -0.4930 -0.3556  1.2438
  212MOL0     C28548   8.569   0.471   1.998 -0.2252  0.0721  0.2406
  212MOL0     C28549   8.540   0.358   2.084  0.1589  0.5026  0.1407
  212MOL0     C28550   8.521   0.252   2.129 -0.7377 -0.0374 -0.1227
  212MOL0     C28551   9.053   0.404   1.597 -0.0115  0.1690 -0.0740
  212MOL0     C28552   9.178   0.360   1.549  0.0476 -0.2275 -0.0552
  212MOL0     H28553   9.675   0.269   1.776  0.8623 -1.0808  0.8124
  212MOL0     H28554   9.895   0.141   1.726 -1.9357 -2.7289 -0.0051
  212MOL0     H28555  10.137   0.161   1.637  3.2362 -0.6251 -0.9822
  212MOL0     H28556  10.062  -0.006   1.629 -1.1220  0.8740  1.3409
  212MOL0     H28557  10.168  -0.037   1.401  1.4061  1.0078 -1.8662
  212MOL0     H28558  10.222   0.129   1.413  0.8576 -0.7351 -1.6112
  212MOL0     H28559  10.319  -0.122   1.568 -0.3047 -0.3628 -1.6709
  212MOL0     H28560  10.404  -0.040   1.434  0.5481  3.4858 -0.2596
  212MOL0     H28561  10.482   0.126   1.532  0.2987  1.4417 -0.1995
  212MOL0     H28562  10.338   0.158   1.627 -0.9842 -0.5824 -1.6184
  212MOL0     H28563  10.533  -0.066   1.720  2.2204  1.4171  1.7553
  212MOL0     H28564  10.545   0.108   1.759  0.0434 -0.4037  2.9403
  212MOL0     H28565  10.363   0.103   1.884  2.5698  2.0170 -2.0457
  212MOL0     H28566  10.280  -0.025   1.788  0.1659 -2.6252 -0.3520
  212MOL0     H28567  10.526  -0.092   1.967 -0.3133  2.0454  1.3463
  212MOL0     H28568  10.367  -0.075   2.035  0.8842 -1.2844  0.4843
  212MOL0     H28569  10.428  -0.315   1.947  0.6694 -1.5574 -2.9534
  212MOL0     H28570  10.396  -0.248   1.790  1.3837  0.7992  0.3020
  212MOL0     H28571  10.194  -0.255   2.139  1.2267  3.0185 -1.0076
  212MOL0     H28572   9.924  -0.470   2.068  1.4275 -1.8091  1.9136
  212MOL0     H28573  10.011  -0.364   2.192  2.4007 -1.2761 -1.3559
  212MOL0     H28574   9.781  -0.299   2.030  0.9920 -1.4946  1.1287
  212MOL0     H28575   9.888  -0.176   2.117  0.2929  0.8937 -0.0897
  212MOL0     H28576   9.691  -0.217   2.256 -1.0088 -0.5928 -0.3417
  212MOL0     H28577   9.841  -0.270   2.337  0.7318  0.1609  0.2174
  212MOL0     H28578   9.671  -0.443   2.370  0.7864 -1.5977 -0.7250
  212MOL0     H28579   9.806  -0.505   2.289  0.3616 -1.0780 -0.9996
  212MOL0     H28580   9.704  -0.696   2.255 -0.0861  2.0813  2.0013
  212MOL0     H28581   9.542  -0.942   2.395  1.5477  3.6734  1.0619
  212MOL0     H28582   9.524  -1.008   2.233  2.5764 -0.7348 -0.4545
  212MOL0     H28583   9.669  -0.913   2.275  0.1411  1.0847  0.3776
  212MOL0     H28584   9.059  -1.044   2.378  0.6589 -3.1496 -0.9106
  212MOL0     H28585   8.912  -1.209   2.347 -0.0108 -0.0288  0.6317
  212MOL0     H28586   8.720  -1.282   2.338 -0.8134 -0.4102  0.6006
  212MOL0     H28587   8.597  -1.343   2.222  0.3202 -0.4388 -0.3467
  212MOL0     H28588   8.766  -1.447   2.085  2.4608 -0.7005 -0.2104
  212MOL0     H28589   8.889  -1.403   2.194 -0.9523  4.3613  1.4097
  212MOL0     H28590   8.789  -1.550   2.372 -0.5448 -0.9324  0.1063
  212MOL0     H28591   8.839  -1.640   2.226  1.1554  0.8756 -1.4954
  212MOL0     H28592   8.559  -1.566   2.298  0.9724  2.0525 -0.9020
  212MOL0     H28593   8.595  -1.610   2.140 -4.0835  2.6244  1.4486
  212MOL0     H28594   8.680  -1.837   2.199 -0.6413 -1.2012 -0.4385
  212MOL0     H28595   8.523  -1.810   2.247 -1.0606 -0.8964  5.6771
  212MOL0     H28596   8.774  -1.798   2.427  0.4938 -2.2644 -1.3752
  212MOL0     H28597   8.612  -1.756   2.488 -1.2191 -1.8449  0.9502
  212MOL0     H28598   8.741  -1.997   2.406  0.1131  0.3073 -0.8345
  212MOL0     H28599   8.555  -1.990   2.379  0.9422  0.2070 -0.9291
  212MOL0     H28600   8.510  -1.970   2.598 -0.7176 -2.7784 -1.7694
  212MOL0     H28601   8.676  -1.906   2.632 -3.0987  1.4572  1.0362
  212MOL0     H28602   8.755  -1.020   1.996  1.1176 -1.0642 -0.5208
  212MOL0     H28603   8.923  -0.855   2.004  0.5188 -2.0108 -1.4217
  212MOL0     H28604   9.231  -0.612   2.158 -0.2733 -0.9648  1.3400
  212MOL0     H28605   9.404  -0.440   2.121 -0.1336 -0.4394 -1.4199
  212MOL0     H28606   9.869   0.269   1.311 -1.6765 -1.6807 -1.5679
  212MOL0     H28607   9.661   0.407   1.379 -0.3286  1.1959  0.0806
  212MOL0     H28608   9.374   0.539   1.765 -0.0333 -1.3941  0.8261
  212MOL0     H28609   9.155   0.584   1.855  1.3798  0.0192  0.1794
  212MOL0     H28610   8.949   0.609   1.955 -2.2285  1.4157  1.1965
  212MOL0     H28611   8.933   0.723   1.819  0.1547 -0.3128  1.4989
  212MOL0     H28612   8.708   0.637   1.796 -1.6581 -4.5812 -1.2263
  212MOL0     H28613   8.754   0.685   1.965 -0.6952 -0.9501 -0.4569
  212MOL0     H28614   8.783   0.442   2.023  0.3830 -1.2040  0.2095
  212MOL0     H28615   8.718   0.401   1.860 -0.2505  1.7433 -0.6140
  212MOL0     H28616   8.493   0.469   1.919 -0.6482  0.2285  0.6350
  212MOL0     H28617   8.542   0.555   2.064 -1.2959  1.5687 -1.9743
  212MOL0     H28618   8.500   0.155   2.170  0.5597  0.1952  1.1669
  212MOL0     H28619   8.957   0.376   1.556 -1.5216  0.8857  2.7409
  212MOL0     H28620   9.177   0.299   1.459  0.7731  1.6891 -1.4306
  213MOL0     O28621   0.240   4.136  10.464  0.2670 -0.0894 -0.8519
  213MOL0     C28622   0.238   4.086  10.577  0.2931  0.6792  0.6006
  213MOL0     O28623   0.154   4.127  10.680 -0.5920 -0.5190  1.2202
  213MOL0     C28624   0.055   4.223  10.656 -0.2338  0.0960 -0.5725
  213MOL0     C28625   0.086   4.349  10.610 -0.5458 -0.6383 -0.8048
  213MOL0     C28626  -0.019   4.430  10.573  0.4503 -0.5185  0.4891
  213MOL0     C28627  -0.152   4.387  10.600  0.4472 -0.6753 -1.2212
  213MOL0     O28628  -0.252   4.479  10.560 -0.9989  0.5517 -0.0578
  213MOL0     C28629  -0.383   4.463  10.606  0.4752  0.0845 -0.7308
  213MOL0     C28630  -0.432   4.606  10.627 -0.1677  0.3152 -0.6193
  213MOL0     C28631  -0.336   4.683  10.721 -0.3323  0.6182  0.3626
  213MOL0     C28632  -0.366   4.824  10.731  0.3898 -0.2732  0.6184
  213MOL0     C28633  -0.260   4.915  10.784 -0.8098  0.7659 -0.2277
  213MOL0     C28634  -0.292   5.060  10.755  0.6720  0.4080 -0.3271
  213MOL0     C28635  -0.163   5.140  10.798  0.1133  0.3465 -0.1275
  213MOL0     C28636  -0.161   5.292  10.782 -0.4255 -0.9475 -0.1061
  213MOL0     N28637  -0.280   5.351  10.722 -0.5578  0.5974  0.6223
  213MOL0     C28638  -0.404   5.367  10.781  0.8582  0.5975 -0.1413
  213MOL0     C28639  -0.473   5.433  10.682  0.1725  0.6896 -0.0361
  213MOL0     C28640  -0.624   5.468  10.684  0.9075  0.8147 -0.2626
  213MOL0     C28641  -0.656   5.602  10.625 -0.0342  0.5019 -0.9337
  213MOL0     C28642  -0.796   5.653  10.654 -0.1592  0.5617  0.0770
  213MOL0     C28643  -0.915   5.573  10.609 -0.4157  0.8665 -0.0289
  213MOL0     O28644  -1.034   5.632  10.637  0.1683 -0.4350 -0.2493
  213MOL0     C28645  -1.112   5.681  10.536  0.5944 -0.4241  0.1111
  213MOL0     C28646  -1.076   5.724  10.402 -0.1040 -0.3228  0.4937
  213MOL0     C28647  -1.178   5.756  10.306  0.1937  0.1410  0.6859
  213MOL0     C28648  -1.138   5.821  10.176 -0.4268  0.3551 -0.0524
  213MOL0     C28649  -1.312   5.730  10.336  0.6102  0.3275  0.4446
  213MOL0     C28650  -1.420   5.734  10.236  0.3731 -0.7969  0.4448
  213MOL0     O28651  -1.398   5.689  10.103  0.1124 -0.5680  0.0366
  213MOL0     C28652  -1.512   5.680  10.027 -0.4739  0.3539  0.7002
  213MOL0     C28653  -1.516   5.735   9.895 -0.1088 -1.2706 -0.3061
  213MOL0     C28654  -1.624   5.720   9.805 -0.8974 -0.0001 -0.4676
  213MOL0     C28655  -1.733   5.651   9.847  0.2078 -0.2158  0.8150
  213MOL0     O28656  -1.841   5.625   9.768  0.2474  0.2983  0.5482
  213MOL0     C28657  -1.825   5.639   9.623  0.4952 -0.1424 -0.1936
  213MOL0     C28658  -1.746   5.515   9.576  0.0049  0.2729  0.0102
  213MOL0     C28659  -1.743   5.502   9.426 -0.7789  0.3388 -0.8718
  213MOL0     C28660  -1.868   5.438   9.369 -0.6588 -0.3555 -0.1787
  213MOL0     C28661  -1.834   5.451   9.216 -0.3356  0.5279 -0.1460
  213MOL0     C28662  -1.848   5.584   9.149 -0.6844 -0.9382  0.0467
  213MOL0     C28663  -1.762   5.587   9.023  0.1276  0.3619 -0.1164
  213MOL0     C28664  -1.839   5.532   8.900 -0.0283 -0.4129  0.5532
  213MOL0    Cl28665  -1.736   5.544   8.767 -0.0649  0.1150 -0.2555
  213MOL0     C28666  -1.726   5.586   9.971  1.2249  0.2526  0.3916
  213MOL0     C28667  -1.621   5.602  10.070 -0.9506  0.2248  0.3249
  213MOL0     O28668  -1.527   5.783  10.282 -0.5640 -0.0501 -0.5780
  213MOL0     C28669  -1.340   5.700  10.469  0.4497 -0.1503  0.0824
  213MOL0     C28670  -1.243   5.678  10.570  0.0561 -0.5279  0.3765
  213MOL0     N28671  -0.387   5.437  10.563  0.2631 -0.0757 -0.0038
  213MOL0     N28672  -0.272   5.395  10.595 -0.6736  0.6526  0.0101
  213MOL0     C28673  -0.178   4.265  10.661 -0.5591  0.0996 -0.2481
  213MOL0     C28674  -0.072   4.185  10.703 -0.6386  0.2573  0.1030
  213MOL0     C28675   0.328   3.967  10.609 -0.1247 -0.7998 -0.3287
  213MOL0     C28676   0.315   3.911  10.741  0.0182 -0.6034  0.9734
  213MOL0     C28677   0.398   3.811  10.787  0.9815 -0.4416  0.0827
  213MOL0     C28678   0.489   3.753  10.694  0.2433 -0.8958  0.8743
  213MOL0     O28679   0.547   3.638  10.727 -0.5380 -0.0335  0.0844
  213MOL0     C28680   0.648   3.587  10.633 -0.1122  0.7428 -0.9088
  213MOL0     C28681   0.729   3.489  10.708  0.9507 -0.2333 -0.2427
  213MOL0     C28682   0.793   3.538  10.832  0.0596 -0.8079  0.6864
  213MOL0     C28683   0.829   3.419  10.924  0.0803 -0.2609 -0.0777
  213MOL0     C28684   0.942   3.345  10.868 -1.1798 -0.1314 -0.3252
  213MOL0     C28685   1.034   3.277  10.809  0.4754  0.0485  0.3755
  213MOL0     C28686   0.499   3.813  10.563  0.2649 -0.9814 -0.6584
  213MOL0     C28687   0.413   3.909  10.523 -0.3093  0.3017  0.4907
  213MOL0     H28688   0.189   4.382  10.600 -1.5080  2.0995 -2.8665
  213MOL0     H28689  -0.028   4.529  10.530 -0.2656 -1.5961 -2.0157
  213MOL0     H28690  -0.430   4.410  10.522 -0.3018  0.9654 -0.8625
  213MOL0     H28691  -0.401   4.405  10.697 -3.3932 -1.5870 -2.3693
  213MOL0     H28692  -0.426   4.654  10.529  0.4832  0.2946 -0.5934
  213MOL0     H28693  -0.535   4.604  10.663 -0.3400  1.7787 -0.9907
  213MOL0     H28694  -0.343   4.637  10.820  2.4528  1.5295  1.0673
  213MOL0     H28695  -0.230   4.676  10.696 -0.4106 -0.1639  0.2419
  213MOL0     H28696  -0.385   4.857  10.629 -0.9682 -1.0403  0.6009
  213MOL0     H28697  -0.455   4.843  10.791 -0.3968 -0.7905 -0.3678
  213MOL0     H28698  -0.237   4.896  10.890 -1.1519 -2.7645 -0.6628
  213MOL0     H28699  -0.177   4.877  10.724 -2.0534 -2.8615  0.1406
  213MOL0     H28700  -0.310   5.077  10.649  0.9525 -3.5907 -1.1905
  213MOL0     H28701  -0.382   5.086  10.811  1.0499  1.3758 -0.1572
  213MOL0     H28702  -0.136   5.118  10.901  2.5189  1.6452 -0.4001
  213MOL0     H28703  -0.078   5.095  10.746 -1.7883 -2.2865 -1.1682
  213MOL0     H28704  -0.074   5.325  10.726  1.9132 -3.8479  1.5550
  213MOL0     H28705  -0.144   5.334  10.882  0.6104  0.9095 -1.0240
  213MOL0     H28706  -0.433   5.328  10.878 -1.7696 -0.2073 -1.1694
  213MOL0     H28707  -0.670   5.394  10.618  3.3170  2.2029 -3.9000
  213MOL0     H28708  -0.667   5.462  10.784  2.7515  3.3971  0.8050
  213MOL0     H28709  -0.630   5.594  10.519 -3.2182 -1.0962 -1.7179
  213MOL0     H28710  -0.583   5.661  10.681  0.9120 -1.3623 -0.1272
  213MOL0     H28711  -0.803   5.754  10.611 -1.1845 -1.1370 -4.2555
  213MOL0     H28712  -0.803   5.655  10.763 -0.1847  2.1446  0.0777
  213MOL0     H28713  -0.901   5.473  10.651 -1.0197  0.7849 -0.0170
  213MOL0     H28714  -0.903   5.557  10.501 -0.6653 -1.5955  0.2578
  213MOL0     H28715  -0.970   5.736  10.382 -0.9724  0.9182 -5.1166
  213MOL0     H28716  -1.142   5.749  10.094  4.9170 -1.9174  1.2415
  213MOL0     H28717  -1.198   5.908  10.149  0.6899  2.0073  2.4670
  213MOL0     H28718  -1.031   5.844  10.184  0.9509 -4.5967 -0.7166
  213MOL0     H28719  -1.424   5.782   9.863  0.5689 -0.8334  2.0658
  213MOL0     H28720  -1.601   5.766   9.709 -2.6811  3.0926  0.4620
  213MOL0     H28721  -1.923   5.633   9.574  0.5220 -2.3281 -0.0682
  213MOL0     H28722  -1.776   5.733   9.595 -0.5510  0.7459  0.8611
  213MOL0     H28723  -1.647   5.534   9.619  0.7204 -1.1864 -0.9436
  213MOL0     H28724  -1.777   5.423   9.626  1.3958 -0.6751 -0.8333
  213MOL0     H28725  -1.661   5.437   9.397 -0.5599 -0.1134  0.6770
  213MOL0     H28726  -1.713   5.595   9.377 -2.7047 -0.3743 -3.6619
  213MOL0     H28727  -1.882   5.334   9.398  0.9598 -0.9579 -1.3936
  213MOL0     H28728  -1.959   5.497   9.385  0.5698  1.4157  0.6816
  213MOL0     H28729  -1.896   5.383   9.157 -0.0559 -1.3654  1.6334
  213MOL0     H28730  -1.731   5.418   9.197 -1.2501 -1.2474 -2.5836
  213MOL0     H28731  -1.952   5.597   9.117 -0.2394  3.8096 -0.1968
  213MOL0     H28732  -1.827   5.676   9.205  2.6095  0.0652 -2.5650
  213MOL0     H28733  -1.672   5.525   9.036  0.0229  0.4710  1.3254
  213MOL0     H28734  -1.735   5.688   8.992 -3.4342  0.7458 -2.4784
  213MOL0     H28735  -1.933   5.584   8.878 -0.1093  0.0764  1.9529
  213MOL0     H28736  -1.869   5.426   8.903 -0.0254 -0.5181 -1.4489
  213MOL0     H28737  -1.805   5.519  10.006  1.9433 -0.6150  0.3810
  213MOL0     H28738  -1.625   5.560  10.170 -2.1146  3.5684  1.8366
  213MOL0     H28739  -1.443   5.683  10.498  1.2404 -3.6966  1.2863
  213MOL0     H28740  -1.287   5.642  10.662 -1.5315  3.5219  1.4352
  213MOL0     H28741  -0.279   4.235  10.685 -0.5005 -1.0655 -1.3492
  213MOL0     H28742  -0.098   4.089  10.745  1.4727 -1.2077 -1.7086
  213MOL0     H28743   0.230   3.947  10.799 -2.6218 -1.1866 -2.2041
  213MOL0     H28744   0.381   3.752  10.877  2.7731 -0.4146  0.4914
  213MOL0     H28745   0.591   3.541  10.552 -0.2872 -3.2991  1.2818
  213MOL0     H28746   0.706   3.672  10.596 -0.9216  2.2858  1.1455
  213MOL0     H28747   0.805   3.449  10.640  1.2744 -0.2750  0.1386
  213MOL0     H28748   0.660   3.408  10.733  0.9760  0.0945  0.9621
  213MOL0     H28749   0.723   3.608  10.876  0.9568 -1.1982  2.8761
  213MOL0     H28750   0.881   3.594  10.799 -1.1925 -0.5497 -2.5456
  213MOL0     H28751   0.756   3.338  10.932 -0.9282  0.5887 -0.5375
  213MOL0     H28752   0.845   3.449  11.028  4.2550  1.3987 -0.9948
  213MOL0     H28753   1.106   3.213  10.762  1.1794  0.7329  0.5130
  213MOL0     H28754   0.557   3.776  10.479 -0.4302 -1.1611 -1.0754
  213MOL0     H28755   0.432   3.936  10.420  0.6872  2.6165  1.1938
  214MOL0     O28756   3.001   4.037   4.547 -0.0372  0.0673  0.1086
  214MOL0     C28757   2.900   4.052   4.469 -0.2264 -1.5445 -0.9003
  214MOL0     O28758   2.826   4.166   4.467 -0.1573  0.1011 -0.0692
  214MOL0     C28759   2.859   4.275   4.543  0.2123  0.1262 -0.8495
  214MOL0     C28760   2.883   4.401   4.478  0.2674 -0.6598  0.1462
  214MOL0     C28761   2.896   4.516   4.559 -1.0753  0.3089  0.0883
  214MOL0     C28762   2.897   4.514   4.698  0.6900  0.0730 -1.0004
  214MOL0     O28763   2.917   4.628   4.763 -0.3640 -0.7888 -0.1315
  214MOL0     C28764   2.987   4.617   4.893 -1.4501 -1.0493 -0.0831
  214MOL0     C28765   3.035   4.752   4.941  0.2465  0.4026 -0.0195
  214MOL0     C28766   3.183   4.765   4.931 -0.6173  0.2627 -0.1569
  214MOL0     C28767   3.262   4.674   5.030  0.2993  0.6352 -0.5645
  214MOL0     C28768   3.401   4.730   5.041  0.7412 -0.0493 -0.0597
  214MOL0     C28769   3.473   4.688   4.909 -0.2798 -0.8146 -0.3652
  214MOL0     C28770   3.626   4.680   4.912 -0.2994  0.3811 -0.8871
  214MOL0     C28771   3.689   4.811   4.919 -0.7047  0.4045 -0.3380
  214MOL0     N28772   3.835   4.797   4.924  0.0467  0.3267  0.5869
  214MOL0     C28773   3.913   4.807   4.816  0.2636 -0.0372  0.5675
  214MOL0     C28774   4.037   4.788   4.870  0.6822  0.7207 -0.2800
  214MOL0     C28775   4.160   4.798   4.789 -0.2452 -0.1897 -0.7749
  214MOL0     C28776   4.196   4.680   4.700  0.3684 -0.0659  0.7337
  214MOL0     C28777   4.350   4.669   4.673 -0.3480  0.0109  0.1962
  214MOL0     C28778   4.413   4.789   4.605 -0.1493 -0.2732  0.8780
  214MOL0     O28779   4.336   4.808   4.488 -0.0784 -0.1312 -0.0915
  214MOL0     C28780   4.373   4.903   4.399 -0.2881 -0.2276 -0.1108
  214MOL0     C28781   4.307   5.024   4.379  0.5250 -0.2598 -0.2966
  214MOL0     C28782   4.340   5.127   4.295  0.1105  0.0045  0.6722
  214MOL0     C28783   4.264   5.258   4.306 -0.1579  0.3400  0.3272
  214MOL0     C28784   4.448   5.109   4.213 -0.3146 -0.5264  0.4102
  214MOL0     C28785   4.484   5.197   4.113  0.1992 -0.4277 -0.4847
  214MOL0     O28786   4.618   5.227   4.116  0.6290  0.0972  0.1065
  214MOL0     C28787   4.659   5.341   4.052 -0.6137 -0.7859 -0.0825
  214MOL0     C28788   4.762   5.335   3.956  0.3699 -0.1004 -1.6158
  214MOL0     C28789   4.807   5.456   3.895 -0.3112  0.7241 -0.4569
  214MOL0     C28790   4.752   5.580   3.939  0.5829  0.1145  0.2219
  214MOL0     O28791   4.791   5.705   3.891  0.7056  0.4929 -0.0430
  214MOL0     C28792   4.890   5.716   3.791 -0.0722  0.7688  1.1251
  214MOL0     C28793   4.871   5.854   3.725 -0.4691 -0.8064 -0.3484
  214MOL0     C28794   4.930   5.966   3.820 -0.2542 -0.4523 -0.3951
  214MOL0     C28795   4.925   6.094   3.737 -0.0525 -0.2737 -0.1130
  214MOL0     C28796   4.782   6.157   3.762 -0.8230 -0.4342  0.4508
  214MOL0     C28797   4.746   6.285   3.689 -0.2766 -0.5186  0.7208
  214MOL0     C28798   4.752   6.265   3.539 -0.1029  0.4914 -1.1869
  214MOL0     C28799   4.661   6.373   3.478  0.3906  0.4787 -0.4993
  214MOL0    Cl28800   4.490   6.346   3.498 -0.1923  0.0910 -0.0415
  214MOL0     C28801   4.657   5.582   4.046 -0.2243  0.5175 -0.0414
  214MOL0     C28802   4.598   5.463   4.089  0.0435  0.2864 -1.5729
  214MOL0     O28803   4.401   5.245   4.036 -0.5426  0.2729 -0.3265
  214MOL0     C28804   4.532   5.000   4.241  0.0665 -0.1286  0.6780
  214MOL0     C28805   4.496   4.899   4.332 -0.5421 -0.8517 -0.7268
  214MOL0     N28806   4.035   4.783   5.010  0.2599 -0.1316  0.1416
  214MOL0     N28807   3.909   4.790   5.042 -0.7214  0.1412  0.5472
  214MOL0     C28808   2.874   4.385   4.764  0.3303 -0.4427  0.1487
  214MOL0     C28809   2.852   4.274   4.688  0.6212  0.3245  0.2090
  214MOL0     C28810   2.862   3.948   4.367  0.5960  0.5474 -0.2733
  214MOL0     C28811   2.945   3.838   4.344 -0.3380  0.8905  0.5720
  214MOL0     C28812   2.907   3.739   4.248 -0.2339  0.5301  0.1799
  214MOL0     C28813   2.784   3.736   4.183 -0.7485  0.3895  1.1091
  214MOL0     O28814   2.766   3.640   4.086  0.6746  0.3084  0.0742
  214MOL0     C28815   2.648   3.646   4.008  0.1747 -0.6572  0.0568
  214MOL0     C28816   2.630   3.520   3.922  0.3165 -0.5007 -0.2521
  214MOL0     C28817   2.494   3.507   3.857  0.2745  0.4584  0.2476
  214MOL0     C28818   2.496   3.412   3.740  0.2305  0.0638  0.5259
  214MOL0     C28819   2.359   3.371   3.700  0.2102  0.1502  0.7879
  214MOL0     C28820   2.264   3.319   3.653  0.4114  0.3431 -0.5726
  214MOL0     C28821   2.705   3.853   4.207 -0.6187  0.2917  1.2633
  214MOL0     C28822   2.750   3.955   4.292  0.0134  0.1478 -0.6527
  214MOL0     H28823   2.887   4.414   4.371  0.6357 -0.3609  0.1956
  214MOL0     H28824   2.912   4.610   4.507  0.6572  0.2648  0.4966
  214MOL0     H28825   2.927   4.573   4.974 -0.1508 -2.2087  0.2954
  214MOL0     H28826   3.074   4.550   4.891 -0.4591  0.2298 -0.8279
  214MOL0     H28827   2.984   4.820   4.873  1.1496  0.4418 -0.6708
  214MOL0     H28828   3.000   4.777   5.042 -2.9112 -0.8179 -0.6967
  214MOL0     H28829   3.203   4.739   4.827 -1.2313 -1.0332  0.0414
  214MOL0     H28830   3.206   4.870   4.952 -3.7361  0.7793  1.1843
  214MOL0     H28831   3.214   4.683   5.128 -0.8250  0.3119 -1.0708
  214MOL0     H28832   3.269   4.569   5.001 -0.1654  0.9308 -1.7947
  214MOL0     H28833   3.395   4.835   5.071 -2.2111 -0.7902  2.5500
  214MOL0     H28834   3.440   4.677   5.129  1.3174  1.4349  0.6113
  214MOL0     H28835   3.437   4.597   4.861 -0.2488 -0.8003 -0.4157
  214MOL0     H28836   3.452   4.768   4.837 -0.6261 -1.1225 -0.6135
  214MOL0     H28837   3.654   4.619   4.998 -1.1796 -0.4882 -1.1977
  214MOL0     H28838   3.658   4.629   4.821 -1.2823  1.7064 -2.0129
  214MOL0     H28839   3.657   4.843   5.019  0.2159 -1.5080  0.6211
  214MOL0     H28840   3.648   4.892   4.858  0.6583  2.6534  1.5327
  214MOL0     H28841   3.884   4.820   4.713  0.1654  1.1142  0.7278
  214MOL0     H28842   4.154   4.891   4.732 -0.5205  0.0640 -0.3375
  214MOL0     H28843   4.248   4.803   4.854  1.9614  2.8288 -3.6675
  214MOL0     H28844   4.156   4.692   4.599 -0.1512  1.6624  1.0988
  214MOL0     H28845   4.161   4.582   4.732  2.0666 -0.6184  0.9521
  214MOL0     H28846   4.370   4.578   4.616 -2.9367 -2.1760  2.4931
  214MOL0     H28847   4.399   4.653   4.770  2.7725 -4.1882 -1.7680
  214MOL0     H28848   4.517   4.775   4.574 -0.6962  0.0549 -1.2350
  214MOL0     H28849   4.412   4.888   4.652  2.4032 -0.4038  1.3518
  214MOL0     H28850   4.222   5.028   4.447  0.1444 -1.2818 -0.6886
  214MOL0     H28851   4.214   5.249   4.403 -0.6060 -0.7337  0.0129
  214MOL0     H28852   4.330   5.345   4.314  1.0071 -0.2951 -1.8078
  214MOL0     H28853   4.187   5.279   4.231  1.4576  0.1237 -1.4544
  214MOL0     H28854   4.787   5.237   3.918  1.4359  0.1245 -1.5299
  214MOL0     H28855   4.882   5.457   3.817 -2.2814 -1.1260 -2.5418
  214MOL0     H28856   4.989   5.690   3.830 -0.5777 -0.8716  1.3956
  214MOL0     H28857   4.876   5.640   3.714 -2.5180  1.6998  0.5785
  214MOL0     H28858   4.910   5.858   3.622  2.4274  0.4802  0.6849
  214MOL0     H28859   4.764   5.878   3.726 -0.6703 -0.8833 -4.0917
  214MOL0     H28860   5.036   5.940   3.832  0.1225  1.4864  0.8920
  214MOL0     H28861   4.874   5.964   3.914 -0.6964  0.8916 -0.6203
  214MOL0     H28862   4.992   6.171   3.776 -1.2504  0.5119  0.4743
  214MOL0     H28863   4.947   6.070   3.633 -1.0659 -2.4127  0.1113
  214MOL0     H28864   4.756   6.183   3.865  0.7899 -0.1652  0.8253
  214MOL0     H28865   4.720   6.083   3.711 -0.2055 -1.0235  0.5309
  214MOL0     H28866   4.653   6.330   3.725  2.2390  4.4371  1.9640
  214MOL0     H28867   4.820   6.363   3.710  0.0142 -0.5969  0.0024
  214MOL0     H28868   4.709   6.168   3.510 -3.2472  1.4453 -0.0577
  214MOL0     H28869   4.858   6.264   3.514 -0.1225  0.1554 -1.2726
  214MOL0     H28870   4.685   6.374   3.371  2.0811  1.8847 -0.1607
  214MOL0     H28871   4.695   6.473   3.506  2.5414  0.3625 -2.3669
  214MOL0     H28872   4.615   5.676   4.080 -1.4936  0.6842 -1.9283
  214MOL0     H28873   4.511   5.467   4.153  0.0532  0.8547 -1.5936
  214MOL0     H28874   4.620   4.984   4.179 -1.1080 -1.0001 -0.8579
  214MOL0     H28875   4.574   4.824   4.344  1.2466  0.6630 -2.1798
  214MOL0     H28876   2.855   4.389   4.871 -0.4084  3.4299  0.0241
  214MOL0     H28877   2.826   4.186   4.745  0.6173  0.1498 -0.0565
  214MOL0     H28878   3.041   3.821   4.392 -0.2264 -2.1238 -0.4982
  214MOL0     H28879   2.985   3.666   4.228 -0.6757 -0.4280  1.8155
  214MOL0     H28880   2.564   3.650   4.078  1.9380 -2.0419  2.4112
  214MOL0     H28881   2.636   3.738   3.950 -1.3751  0.7291  2.4223
  214MOL0     H28882   2.655   3.433   3.983  1.7884 -0.6568 -1.0192
  214MOL0     H28883   2.704   3.522   3.842  1.4306 -0.4110  0.7543
  214MOL0     H28884   2.447   3.603   3.834  1.9849  1.3150  0.1665
  214MOL0     H28885   2.419   3.472   3.928 -0.2006  0.3797 -0.2912
  214MOL0     H28886   2.556   3.324   3.765 -1.6506 -0.9120  1.8826
  214MOL0     H28887   2.539   3.460   3.652  1.5713 -1.6101  0.2223
  214MOL0     H28888   2.166   3.289   3.624  1.7296 -4.4345 -0.8935
  214MOL0     H28889   2.615   3.870   4.149 -1.5680 -0.3007  2.5099
  214MOL0     H28890   2.690   4.045   4.288 -0.9561 -0.4620 -0.2396
  215MOL0     O28891   7.122   9.707   6.458  0.1868 -0.5996  0.1179
  215MOL0     C28892   7.230   9.676   6.512  0.4239 -0.5427 -1.0352
  215MOL0     O28893   7.264   9.554   6.555  0.1549 -0.7134  0.0487
  215MOL0     C28894   7.183   9.443   6.548 -0.1680  0.5476 -0.1384
  215MOL0     C28895   7.045   9.443   6.562 -0.5422 -0.4135  0.3196
  215MOL0     C28896   6.971   9.329   6.550  0.0110 -0.3334  0.9095
  215MOL0     C28897   7.027   9.203   6.513  0.0148  0.3812 -0.4870
  215MOL0     O28898   6.955   9.089   6.511 -0.5121  0.2590 -0.4760
  215MOL0     C28899   7.016   8.962   6.540  0.1214  0.6282  0.4665
  215MOL0     C28900   7.027   8.945   6.689 -0.4101  0.2393  0.1565
  215MOL0     C28901   7.157   8.869   6.723 -0.4862  0.1268 -0.2006
  215MOL0     C28902   7.151   8.848   6.875 -0.4986 -1.1833 -0.5846
  215MOL0     C28903   7.267   8.763   6.941  0.2074  0.2726  0.3430
  215MOL0     C28904   7.284   8.625   6.883 -0.8587  0.3766  0.3327
  215MOL0     C28905   7.391   8.533   6.959  0.1771  0.2327  0.3843
  215MOL0     C28906   7.350   8.386   6.937  0.0817 -0.1102  0.0327
  215MOL0     N28907   7.427   8.288   7.019 -0.9337  0.8644 -0.2484
  215MOL0     C28908   7.550   8.309   7.068  0.3047  0.3503  0.0071
  215MOL0     C28909   7.587   8.198   7.134 -0.7930  0.4521 -0.1345
  215MOL0     C28910   7.715   8.157   7.205  0.2871 -0.1689 -0.6850
  215MOL0     C28911   7.718   8.204   7.356 -0.7692 -0.5104  0.5641
  215MOL0     C28912   7.620   8.143   7.441 -0.5293 -0.1610 -0.8838
  215MOL0     C28913   7.513   8.258   7.469 -0.0200  0.3871 -0.6086
  215MOL0     O28914   7.440   8.193   7.571  0.0622  0.1395 -0.3140
  215MOL0     C28915   7.306   8.229   7.570  0.0269 -0.0220 -0.1715
  215MOL0     C28916   7.214   8.126   7.571  0.0474  0.6723 -1.0835
  215MOL0     C28917   7.074   8.148   7.582  1.2122 -0.2542 -0.3364
  215MOL0     C28918   7.001   8.020   7.614  0.2384 -0.0775 -0.3691
  215MOL0     C28919   7.026   8.281   7.579 -1.0623  0.4966 -0.1407
  215MOL0     C28920   6.888   8.316   7.614  0.5588 -0.3951  0.2860
  215MOL0     O28921   6.858   8.439   7.578  0.3831  0.1113 -0.4013
  215MOL0     C28922   6.725   8.476   7.587  0.0758  0.4226 -0.0522
  215MOL0     C28923   6.686   8.577   7.674 -0.3854 -0.2474  0.5484
  215MOL0     C28924   6.552   8.620   7.690  0.0422  0.9161  0.4178
  215MOL0     C28925   6.449   8.560   7.610  0.0929  0.2018 -0.1390
  215MOL0     O28926   6.315   8.589   7.613 -1.0113  0.6375 -0.0830
  215MOL0     C28927   6.266   8.659   7.724 -0.4790 -0.2119  1.0210
  215MOL0     C28928   6.117   8.683   7.719  0.0407 -0.0971  0.0037
  215MOL0     C28929   6.070   8.740   7.857 -0.2548 -0.2394  0.3152
  215MOL0     C28930   5.932   8.801   7.835  0.0257 -0.0126 -0.0097
  215MOL0     C28931   5.888   8.849   7.969  0.2655 -0.2523 -0.3673
  215MOL0     C28932   5.743   8.896   7.961 -0.5041  0.1392 -0.0230
  215MOL0     C28933   5.685   8.983   8.084 -0.2304  0.0610  0.0111
  215MOL0     C28934   5.536   8.998   8.096  0.7921 -0.1976 -0.4630
  215MOL0    Cl28935   5.474   8.849   8.147  0.0375 -0.0436  0.1488
  215MOL0     C28936   6.490   8.455   7.524  0.1118 -0.2732  0.3472
  215MOL0     C28937   6.629   8.417   7.507  1.2584 -0.6701 -0.6741
  215MOL0     O28938   6.807   8.237   7.656 -0.0591 -1.6030  0.3131
  215MOL0     C28939   7.120   8.388   7.567 -1.0556  0.2832 -0.1144
  215MOL0     C28940   7.256   8.362   7.562  0.2063 -0.0453 -0.4769
  215MOL0     N28941   7.481   8.112   7.145 -0.6216 -0.4652 -0.5249
  215MOL0     N28942   7.383   8.170   7.081  0.0031  0.8921 -0.4662
  215MOL0     C28943   7.174   9.207   6.502  0.1373  0.6599 -0.2481
  215MOL0     C28944   7.245   9.323   6.513 -0.8540 -0.0754  1.0850
  215MOL0     C28945   7.337   9.779   6.533 -0.6127 -1.0209  0.1879
  215MOL0     C28946   7.342   9.891   6.456  0.7044 -0.2422  0.5566
  215MOL0     C28947   7.427   9.992   6.482  0.4977  0.4949  0.7057
  215MOL0     C28948   7.518   9.996   6.588  0.4148 -0.1922  0.3082
  215MOL0     O28949   7.595  10.099   6.631  0.4166 -0.4938  0.6588
  215MOL0     C28950   7.559  10.222   6.571  0.0090 -0.5248  0.1484
  215MOL0     C28951   7.617  10.346   6.654  0.7305 -0.2096  0.2463
  215MOL0     C28952   7.549  10.476   6.591  0.1370  0.1384 -0.0548
  215MOL0     C28953   7.589  10.594   6.688 -0.2734  0.6792  0.4376
  215MOL0     C28954   7.613  10.724   6.613  0.0952  0.2246 -0.9830
  215MOL0     C28955   7.628  10.823   6.554 -0.2428  0.0951  0.6005
  215MOL0     C28956   7.526   9.877   6.654 -0.5108  0.3428  0.7287
  215MOL0     C28957   7.437   9.774   6.636  0.0873 -0.0292  0.0320
  215MOL0     H28958   6.990   9.529   6.599  0.8478  1.5236 -1.8659
  215MOL0     H28959   6.862   9.336   6.555 -0.2199 -2.2939 -0.3372
  215MOL0     H28960   6.969   8.878   6.490 -1.5989  0.2428  2.5972
  215MOL0     H28961   7.118   8.965   6.498 -0.0567  3.4238 -0.0109
  215MOL0     H28962   7.040   9.045   6.730  0.8944  0.1954 -0.1246
  215MOL0     H28963   6.949   8.881   6.731  0.9935 -1.4715  0.3016
  215MOL0     H28964   7.156   8.772   6.672 -2.7382 -0.0905  0.1147
  215MOL0     H28965   7.252   8.918   6.703  0.1088 -0.4669  1.0428
  215MOL0     H28966   7.147   8.948   6.919  1.5455 -0.8140 -1.1159
  215MOL0     H28967   7.054   8.801   6.893 -2.7558  2.1016 -3.0316
  215MOL0     H28968   7.361   8.816   6.921  0.9780 -0.0019  2.9292
  215MOL0     H28969   7.262   8.767   7.050 -0.4112  4.5941  0.3331
  215MOL0     H28970   7.186   8.578   6.891 -1.4205  1.4191 -0.2893
  215MOL0     H28971   7.318   8.623   6.779  2.6069 -3.1497  1.2802
  215MOL0     H28972   7.492   8.543   6.919 -0.9312 -1.1494 -3.1188
  215MOL0     H28973   7.398   8.541   7.068 -0.7214 -5.7136  1.2109
  215MOL0     H28974   7.361   8.359   6.832  0.6737 -0.8314  0.2724
  215MOL0     H28975   7.246   8.378   6.968  1.0666 -2.2732  3.2005
  215MOL0     H28976   7.616   8.392   7.042  2.1522 -0.0326  2.9605
  215MOL0     H28977   7.715   8.048   7.201 -2.4779 -0.3049  0.6960
  215MOL0     H28978   7.808   8.183   7.153  1.3296 -1.8411  0.2766
  215MOL0     H28979   7.719   8.313   7.356 -0.8840 -0.4884  2.2263
  215MOL0     H28980   7.815   8.163   7.388 -0.9056 -1.6322 -0.3838
  215MOL0     H28981   7.671   8.121   7.536 -2.6499  2.1315  0.9212
  215MOL0     H28982   7.592   8.052   7.387 -1.4124 -0.4037 -0.0635
  215MOL0     H28983   7.460   8.283   7.377  0.0787 -0.0542 -0.7884
  215MOL0     H28984   7.565   8.341   7.519  1.4668 -1.4066  0.9756
  215MOL0     H28985   7.255   8.028   7.550 -3.5099 -0.7096 -2.4806
  215MOL0     H28986   7.049   7.924   7.590 -0.2227  0.0868 -2.1496
  215MOL0     H28987   6.984   7.999   7.720 -0.0710 -2.8362 -0.8923
  215MOL0     H28988   6.910   8.018   7.552 -0.2776 -1.1086  0.3883
  215MOL0     H28989   6.764   8.621   7.735  0.8349  0.2348 -1.2722
  215MOL0     H28990   6.535   8.705   7.755 -1.0563 -0.0234  1.4047
  215MOL0     H28991   6.293   8.611   7.819 -4.5932 -1.1366  1.9016
  215MOL0     H28992   6.321   8.753   7.724 -0.1779 -0.3855  0.9802
  215MOL0     H28993   6.088   8.755   7.641  2.1219  0.2813 -0.4789
  215MOL0     H28994   6.052   8.595   7.710 -1.1248  0.4788  2.1263
  215MOL0     H28995   6.140   8.814   7.897  0.8419 -1.5685  0.9241
  215MOL0     H28996   6.068   8.665   7.936 -0.0016  1.2283  1.7729
  215MOL0     H28997   5.933   8.877   7.755 -0.6993  1.6531  1.4893
  215MOL0     H28998   5.869   8.717   7.804  2.4151 -2.5309  1.5074
  215MOL0     H28999   5.942   8.936   8.008  2.3929 -1.5669 -0.2357
  215MOL0     H29000   5.892   8.761   8.034  1.6582  0.1676  0.1410
  215MOL0     H29001   5.714   8.941   7.865  0.9323 -0.8129 -0.9529
  215MOL0     H29002   5.689   8.801   7.956  0.4504 -0.3788 -3.2212
  215MOL0     H29003   5.733   9.081   8.074 -2.3912  1.0097 -2.4834
  215MOL0     H29004   5.727   8.940   8.175  4.6237  0.0669 -1.9243
  215MOL0     H29005   5.505   9.031   7.997 -0.4324  1.9714  0.5809
  215MOL0     H29006   5.509   9.074   8.170 -1.6135 -1.4948  0.1041
  215MOL0     H29007   6.429   8.399   7.454 -1.3874 -0.1623  1.5069
  215MOL0     H29008   6.646   8.343   7.430 -3.1561 -1.2841 -1.2921
  215MOL0     H29009   7.085   8.490   7.573 -1.0235  0.2071  2.8082
  215MOL0     H29010   7.325   8.445   7.557 -0.9836  1.0603  0.5705
  215MOL0     H29011   7.229   9.118   6.474 -1.0530 -0.8908  2.0270
  215MOL0     H29012   7.353   9.313   6.514 -0.7906  0.3090 -0.1900
  215MOL0     H29013   7.275   9.902   6.372  3.2380 -1.3826 -1.7485
  215MOL0     H29014   7.418  10.068   6.405  1.7084  1.1115  1.1531
  215MOL0     H29015   7.588  10.213   6.466 -1.6535 -2.5093 -0.2023
  215MOL0     H29016   7.451  10.238   6.573 -0.3399 -2.6226  0.2414
  215MOL0     H29017   7.724  10.369   6.648  0.3414  2.3338  1.3167
  215MOL0     H29018   7.591  10.337   6.760  1.6242  0.6574  0.5599
  215MOL0     H29019   7.441  10.467   6.577  0.0800 -1.2941  1.1319
  215MOL0     H29020   7.587  10.482   6.489 -0.3057 -0.6345 -0.2721
  215MOL0     H29021   7.660  10.554   6.761 -0.4966  0.5460  0.5865
  215MOL0     H29022   7.506  10.608   6.759  0.2718  0.0672  1.2179
  215MOL0     H29023   7.639  10.917   6.502 -1.5050  1.3114  2.4014
  215MOL0     H29024   7.605   9.865   6.728 -0.8856 -1.9081  0.8230
  215MOL0     H29025   7.441   9.693   6.708 -1.7140 -2.4721 -2.4349
  216MOL0     O29026  11.306   5.527   7.436 -0.0537 -0.2812 -0.2848
  216MOL0     C29027  11.364   5.550   7.545 -0.4790  0.1233  0.4881
  216MOL0     O29028  11.295   5.563   7.662 -1.0466 -1.0985 -0.0469
  216MOL0     C29029  11.163   5.546   7.651  0.6921  0.1687  0.4296
  216MOL0     C29030  11.117   5.419   7.658  0.5477  0.5537  0.1433
  216MOL0     C29031  10.972   5.390   7.660  0.8389 -0.4999 -0.1822
  216MOL0     C29032  10.887   5.497   7.633  0.7710  0.0841  0.2941
  216MOL0     O29033  10.757   5.469   7.629  0.2096  0.5589 -0.0652
  216MOL0     C29034  10.682   5.549   7.547  0.9120 -0.3325 -0.4235
  216MOL0     C29035  10.545   5.477   7.516 -0.1288 -0.6973 -0.4973
  216MOL0     C29036  10.472   5.440   7.652  0.2547 -0.3523 -0.0848
  216MOL0     C29037  10.418   5.572   7.721  0.6658  1.0647 -0.2345
  216MOL0     C29038  10.317   5.539   7.825 -0.3028  0.7268  0.2516
  216MOL0     C29039  10.373   5.479   7.958  0.0370  0.3623  0.3047
  216MOL0     C29040  10.334   5.330   7.959  0.5588 -0.9023 -0.4145
  216MOL0     C29041  10.381   5.249   8.076 -0.2869 -0.1844  0.1063
  216MOL0     N29042  10.308   5.261   8.202  0.6291  0.2614 -0.1081
  216MOL0     C29043  10.195   5.185   8.230  0.0444  1.0653 -0.3481
  216MOL0     C29044  10.170   5.221   8.352  1.0581  0.1901  0.1777
  216MOL0     C29045  10.041   5.160   8.411  0.6830 -0.2234 -0.6996
  216MOL0     C29046   9.914   5.265   8.391 -0.5272  0.7746  0.4174
  216MOL0     C29047   9.870   5.258   8.247 -0.8468  1.0200  0.1942
  216MOL0     C29048   9.738   5.331   8.222 -0.5862  0.1870  0.1445
  216MOL0     O29049   9.620   5.253   8.241  0.7827  0.6433  0.0599
  216MOL0     C29050   9.589   5.160   8.146  0.4640 -0.2655 -0.7064
  216MOL0     C29051   9.464   5.099   8.155  0.0447  0.6326 -0.6229
  216MOL0     C29052   9.422   5.004   8.056  0.7387 -0.9257 -0.0951
  216MOL0     C29053   9.283   4.946   8.092  0.0476 -0.4155  1.1113
  216MOL0     C29054   9.494   4.986   7.935 -0.8751 -0.2326 -0.5108
  216MOL0     C29055   9.447   4.904   7.823  0.0425  0.3208 -0.2456
  216MOL0     O29056   9.375   4.792   7.851  0.0243  0.4532  0.2804
  216MOL0     C29057   9.326   4.710   7.748 -0.6973  0.7673  0.1001
  216MOL0     C29058   9.199   4.667   7.726 -0.2647  0.2789  0.0983
  216MOL0     C29059   9.162   4.576   7.629 -0.5268  0.1210 -0.0419
  216MOL0     C29060   9.257   4.535   7.533  0.7721 -0.0537  0.3629
  216MOL0     O29061   9.240   4.453   7.425 -0.2443  0.2603  0.5045
  216MOL0     C29062   9.100   4.426   7.394 -0.4184 -0.0544 -0.5550
  216MOL0     C29063   9.084   4.305   7.305  0.2890  0.6553  0.8313
  216MOL0     C29064   8.944   4.239   7.294  0.3753 -0.4156 -0.0390
  216MOL0     C29065   8.823   4.338   7.275 -1.4833 -0.4655  0.1415
  216MOL0     C29066   8.694   4.272   7.298 -0.8909  0.3165  1.2929
  216MOL0     C29067   8.597   4.371   7.355 -1.1916  0.7570 -0.1533
  216MOL0     C29068   8.464   4.298   7.373 -0.7626  1.0017 -0.4939
  216MOL0     C29069   8.369   4.388   7.449  0.6654 -0.1408  0.0404
  216MOL0    Cl29070   8.310   4.531   7.346 -0.1048  0.3678  0.1675
  216MOL0     C29071   9.387   4.573   7.556  0.7315 -0.2141  0.6757
  216MOL0     C29072   9.421   4.667   7.655  0.4893 -0.5667  0.3186
  216MOL0     O29073   9.468   4.948   7.714  0.0310 -0.5503  1.4959
  216MOL0     C29074   9.623   5.052   7.928  0.3482 -0.7345  0.1091
  216MOL0     C29075   9.672   5.131   8.034  0.5825  0.1648 -0.3976
  216MOL0     N29076  10.247   5.329   8.390  0.2000 -0.5089 -0.6926
  216MOL0     N29077  10.341   5.344   8.308 -0.0333 -0.2196  0.5091
  216MOL0     C29078  10.940   5.630   7.626 -0.1006 -0.1095  0.4476
  216MOL0     C29079  11.075   5.657   7.632 -0.7491 -0.5836 -0.2491
  216MOL0     C29080  11.509   5.560   7.545 -0.1131 -0.8999 -0.0980
  216MOL0     C29081  11.561   5.592   7.416 -0.6399 -0.4242 -0.5491
  216MOL0     C29082  11.701   5.615   7.403  0.4384 -0.1955 -0.0719
  216MOL0     C29083  11.790   5.593   7.511 -0.1720 -0.6872  0.0172
  216MOL0     O29084  11.929   5.593   7.478 -0.2690  0.4827 -0.0042
  216MOL0     C29085  12.026   5.559   7.590  0.3141 -0.9742  0.5516
  216MOL0     C29086  12.171   5.552   7.537  0.7344 -0.7229  0.5920
  216MOL0     C29087  12.222   5.688   7.467  0.9690  0.4108  0.2532
  216MOL0     C29088  12.260   5.798   7.571 -0.1284  0.2801 -0.1557
  216MOL0     C29089  12.382   5.762   7.626  0.4744  0.4490 -0.8794
  216MOL0     C29090  12.490   5.716   7.672  0.6980 -0.8181 -0.0218
  216MOL0     C29091  11.733   5.570   7.637  0.2534 -0.1437 -0.1530
  216MOL0     C29092  11.594   5.559   7.658 -0.3190 -0.1689  0.0742
  216MOL0     H29093  11.184   5.335   7.676  2.0837  0.9032 -3.1346
  216MOL0     H29094  10.934   5.289   7.669 -2.0301  0.5338  0.4516
  216MOL0     H29095  10.667   5.648   7.592  0.4439 -0.5639 -0.0623
  216MOL0     H29096  10.729   5.564   7.449 -0.6116  3.2959 -0.7513
  216MOL0     H29097  10.481   5.545   7.459 -0.3535 -0.6972 -0.2518
  216MOL0     H29098  10.581   5.385   7.469 -1.7285 -1.6243  0.0045
  216MOL0     H29099  10.387   5.376   7.625  1.3813 -0.3697 -4.4313
  216MOL0     H29100  10.535   5.377   7.716  1.6795  1.6673  0.5841
  216MOL0     H29101  10.494   5.626   7.777 -0.4643  0.4948  1.9790
  216MOL0     H29102  10.377   5.636   7.642  0.6909 -0.0875 -1.2117
  216MOL0     H29103  10.263   5.631   7.848 -1.8197  0.0489 -0.4128
  216MOL0     H29104  10.240   5.472   7.784 -1.3182  1.8549  0.2511
  216MOL0     H29105  10.481   5.494   7.956  0.0431  0.2714 -0.6552
  216MOL0     H29106  10.333   5.531   8.044  1.7287 -0.3423  1.5760
  216MOL0     H29107  10.225   5.327   7.959  0.3746  2.3977  1.1090
  216MOL0     H29108  10.368   5.290   7.862  0.4257 -2.3694  0.1255
  216MOL0     H29109  10.487   5.273   8.084  0.0556 -1.2690 -0.8488
  216MOL0     H29110  10.385   5.145   8.041  1.8499  0.3154 -1.3133
  216MOL0     H29111  10.152   5.104   8.173 -1.7050  0.6384  1.4842
  216MOL0     H29112  10.020   5.064   8.363  0.3008  0.1020 -1.2012
  216MOL0     H29113  10.056   5.136   8.516 -0.5688 -0.2608 -0.5163
  216MOL0     H29114   9.948   5.365   8.418  1.4533  0.1748  0.2739
  216MOL0     H29115   9.833   5.225   8.453 -0.6828  0.1187 -0.1977
  216MOL0     H29116   9.856   5.150   8.229  0.3851  0.5852  1.6868
  216MOL0     H29117   9.959   5.288   8.190  0.0836 -0.2291  0.9330
  216MOL0     H29118   9.744   5.362   8.117  3.0342 -1.7431 -0.3776
  216MOL0     H29119   9.731   5.423   8.280 -0.3264  1.0385 -1.1170
  216MOL0     H29120   9.398   5.128   8.236  0.2094 -0.5179 -0.0549
  216MOL0     H29121   9.275   4.839   8.115 -1.2483  0.2099  3.9360
  216MOL0     H29122   9.233   4.998   8.174 -2.0386  1.2083 -1.0813
  216MOL0     H29123   9.218   4.968   8.007 -2.0249  0.1965  2.7881
  216MOL0     H29124   9.126   4.704   7.797  0.0295  0.7324  0.1704
  216MOL0     H29125   9.058   4.550   7.612 -0.3906  1.3085 -3.4642
  216MOL0     H29126   9.041   4.395   7.480  0.0100  1.4653  0.3140
  216MOL0     H29127   9.052   4.516   7.355 -0.6013  0.9441  1.8080
  216MOL0     H29128   9.123   4.334   7.208 -0.4828 -0.1552  0.2664
  216MOL0     H29129   9.145   4.224   7.346 -1.5051 -0.9128  0.5361
  216MOL0     H29130   8.924   4.188   7.388 -1.8760  2.8616  1.4281
  216MOL0     H29131   8.950   4.176   7.204 -1.4475  1.0568 -1.2754
  216MOL0     H29132   8.836   4.427   7.338 -0.5184 -0.0927 -0.5372
  216MOL0     H29133   8.825   4.380   7.174 -1.0215 -1.2520 -0.1797
  216MOL0     H29134   8.707   4.192   7.371  0.8315 -0.8278 -0.1966
  216MOL0     H29135   8.655   4.229   7.205 -1.4406  0.8049  1.2861
  216MOL0     H29136   8.643   4.415   7.444  1.6855  0.8816 -1.5685
  216MOL0     H29137   8.583   4.456   7.288  2.4399  2.3811  0.9296
  216MOL0     H29138   8.475   4.200   7.421 -0.7147 -0.2790 -2.9480
  216MOL0     H29139   8.423   4.273   7.275 -1.4297  2.7849 -0.6942
  216MOL0     H29140   8.416   4.422   7.542  1.2077  3.2013 -1.3161
  216MOL0     H29141   8.275   4.339   7.479  1.1852 -0.2686  1.5363
  216MOL0     H29142   9.464   4.544   7.484 -0.6914  1.9795 -1.9178
  216MOL0     H29143   9.524   4.700   7.662 -0.1654  1.5803  0.5485
  216MOL0     H29144   9.685   5.031   7.841  1.0008 -1.1774  0.6771
  216MOL0     H29145   9.775   5.164   8.036 -0.1088  2.6520 -1.7157
  216MOL0     H29146  10.876   5.718   7.630 -1.9596 -1.3098 -1.0450
  216MOL0     H29147  11.123   5.752   7.609  3.2072 -2.1804  0.6427
  216MOL0     H29148  11.498   5.594   7.327 -1.5235 -1.7139  0.0232
  216MOL0     H29149  11.749   5.643   7.309  1.8102  0.4330  0.7745
  216MOL0     H29150  12.025   5.633   7.670  0.1287 -0.2405 -0.1169
  216MOL0     H29151  12.011   5.459   7.633  0.4240 -1.7305 -1.0731
  216MOL0     H29152  12.156   5.474   7.462 -2.1643 -1.2587  1.5824
  216MOL0     H29153  12.244   5.521   7.612  1.1882 -1.5246 -0.1686
  216MOL0     H29154  12.145   5.728   7.401  2.4955  0.6871 -1.4654
  216MOL0     H29155  12.301   5.653   7.400  0.1168 -0.5930 -0.2619
  216MOL0     H29156  12.183   5.803   7.647 -3.2898  2.7090 -3.1966
  216MOL0     H29157  12.265   5.896   7.524  1.5595  1.0517  1.5218
  216MOL0     H29158  12.582   5.680   7.711  0.2216 -0.8797  1.0800
  216MOL0     H29159  11.802   5.567   7.721 -1.8958  1.1683  1.7802
  216MOL0     H29160  11.557   5.536   7.758 -1.0102 -1.1755 -0.3918
  217MOL0     O29161   0.981   3.144   6.159  0.0713 -0.2388  1.1071
  217MOL0     C29162   0.960   3.071   6.069  0.0424  0.3591  0.3422
  217MOL0     O29163   1.024   3.063   5.947  0.4299 -0.2081 -0.3602
  217MOL0     C29164   1.129   3.137   5.912 -0.1675 -0.1609  0.4706
  217MOL0     C29165   1.126   3.214   5.793  0.0526 -0.1132 -0.2846
  217MOL0     C29166   1.246   3.273   5.739  0.5243  0.3127 -0.8764
  217MOL0     C29167   1.363   3.273   5.825 -0.1281  0.0816  0.3032
  217MOL0     O29168   1.476   3.353   5.789  0.5035 -0.0982  0.2577
  217MOL0     C29169   1.599   3.298   5.832 -0.6748  0.2591  0.3602
  217MOL0     C29170   1.704   3.374   5.740  0.2293  0.4761 -0.4583
  217MOL0     C29171   1.705   3.320   5.590 -0.7595 -0.2264  0.5095
  217MOL0     C29172   1.846   3.342   5.529  0.3515  0.5378  0.6770
  217MOL0     C29173   1.850   3.298   5.379 -0.0022 -0.5791 -0.5791
  217MOL0     C29174   1.978   3.348   5.315 -0.1814  0.3388  0.6061
  217MOL0     C29175   2.101   3.264   5.344 -0.5634  0.6051  0.8421
  217MOL0     C29176   2.224   3.295   5.254  0.0105  0.0669  0.4229
  217MOL0     N29177   2.330   3.195   5.284 -0.6065 -0.2439 -0.0564
  217MOL0     C29178   2.431   3.207   5.379  0.2689 -0.2877  0.1161
  217MOL0     C29179   2.513   3.101   5.380 -0.1601 -0.7950 -0.0251
  217MOL0     C29180   2.646   3.082   5.459 -0.0041  0.1333 -0.5625
  217MOL0     C29181   2.626   3.062   5.613  0.1419 -0.3419  0.1041
  217MOL0     C29182   2.538   2.937   5.657  0.3389 -0.3778  0.6568
  217MOL0     C29183   2.388   2.948   5.633 -0.4573 -0.0168  0.7056
  217MOL0     O29184   2.327   2.844   5.710  0.5559  0.5223 -0.9460
  217MOL0     C29185   2.192   2.833   5.692 -0.9908 -1.1074 -0.8078
  217MOL0     C29186   2.128   2.720   5.735  0.5241 -0.3075 -0.0202
  217MOL0     C29187   1.985   2.723   5.752 -1.4800 -0.3974  0.1656
  217MOL0     C29188   1.934   2.592   5.819  0.1560  0.3155  0.3474
  217MOL0     C29189   1.911   2.839   5.731  0.5723 -1.1099 -0.9212
  217MOL0     C29190   1.771   2.864   5.761  0.2778  0.5716 -0.1420
  217MOL0     O29191   1.689   2.755   5.777 -0.0226  0.1799  0.0249
  217MOL0     C29192   1.549   2.753   5.792  0.0531  0.5689  0.4577
  217MOL0     C29193   1.459   2.864   5.789  1.0464 -0.3881 -0.3070
  217MOL0     C29194   1.321   2.847   5.811  0.4555  0.2204 -0.6699
  217MOL0     C29195   1.267   2.725   5.838 -0.8410 -0.0465  0.5446
  217MOL0     O29196   1.126   2.711   5.869  0.1531  0.0110  0.1943
  217MOL0     C29197   1.093   2.637   5.981  1.0850 -0.6317 -0.8955
  217MOL0     C29198   1.102   2.706   6.116 -0.1841  0.0785 -0.2054
  217MOL0     C29199   0.989   2.659   6.215  0.3085 -1.0347  0.0293
  217MOL0     C29200   0.981   2.515   6.239  0.0414  1.6614 -0.4092
  217MOL0     C29201   0.856   2.496   6.316 -0.7054  0.5447 -0.5823
  217MOL0     C29202   0.729   2.493   6.230 -0.4200  0.5209  0.6368
  217MOL0     C29203   0.612   2.434   6.299  0.4707 -0.2416  0.1260
  217MOL0     C29204   0.502   2.422   6.196 -0.9196 -0.2774 -0.2484
  217MOL0    Cl29205   0.356   2.344   6.257 -0.1544 -0.5435 -0.0492
  217MOL0     C29206   1.356   2.617   5.842 -0.5014  0.6253 -0.4983
  217MOL0     C29207   1.495   2.621   5.813  0.2762 -0.9061  0.6048
  217MOL0     O29208   1.735   2.980   5.753 -0.4479 -0.1679 -0.0627
  217MOL0     C29209   1.985   2.946   5.677  1.1608 -0.0870  0.1748
  217MOL0     C29210   2.119   2.945   5.658  0.0917  0.3030 -0.4383
  217MOL0     N29211   2.468   3.018   5.283 -0.2879 -0.0842 -0.1514
  217MOL0     N29212   2.366   3.072   5.224  0.0464 -0.3442 -0.2131
  217MOL0     C29213   1.356   3.210   5.945  0.3667 -0.2528  0.4808
  217MOL0     C29214   1.248   3.138   5.985 -1.1496 -1.1760 -0.0362
  217MOL0     C29215   0.829   2.992   6.074  0.1241  0.3801 -0.1174
  217MOL0     C29216   0.802   2.899   5.973 -0.1827 -0.9676  0.5619
  217MOL0     C29217   0.679   2.833   5.968 -0.1357  0.3239 -0.6611
  217MOL0     C29218   0.575   2.857   6.062 -0.5016  0.2351  0.1387
  217MOL0     O29219   0.457   2.801   6.034 -0.5175  0.1664 -0.1522
  217MOL0     C29220   0.345   2.798   6.125  0.0365  0.6377  0.8129
  217MOL0     C29221   0.239   2.709   6.061  0.3112 -0.1706 -0.4278
  217MOL0     C29222   0.137   2.770   5.975  0.1474  0.1812  0.0463
  217MOL0     C29223   0.019   2.671   5.971 -0.6129  1.0517 -1.2604
  217MOL0     C29224  -0.094   2.728   5.899  0.7352 -0.2837  0.2286
  217MOL0     C29225  -0.191   2.786   5.849 -0.0027  0.5781  0.3712
  217MOL0     C29226   0.602   2.944   6.169 -0.0854 -0.4176  0.3982
  217MOL0     C29227   0.723   3.006   6.172  0.1644 -0.5309 -1.6190
  217MOL0     H29228   1.038   3.217   5.730  0.3425  2.1691 -0.6949
  217MOL0     H29229   1.256   3.322   5.643 -1.4959  1.5682 -0.5085
  217MOL0     H29230   1.618   3.320   5.937  3.3268  3.5637 -0.7668
  217MOL0     H29231   1.604   3.189   5.824 -0.6430  0.3587 -1.2889
  217MOL0     H29232   1.701   3.483   5.744  0.3035  0.4639 -0.0518
  217MOL0     H29233   1.804   3.345   5.773  0.2827  0.7818 -0.3472
  217MOL0     H29234   1.676   3.217   5.611 -0.9311  0.0198  1.5432
  217MOL0     H29235   1.630   3.359   5.520  0.3380 -1.6770 -1.5768
  217MOL0     H29236   1.882   3.445   5.533  3.7165 -0.3681 -1.8869
  217MOL0     H29237   1.914   3.271   5.577 -0.4287 -0.5134  0.2856
  217MOL0     H29238   1.830   3.191   5.363 -2.8129 -0.2630  0.3298
  217MOL0     H29239   1.763   3.350   5.340 -0.0100  2.2873  2.7454
  217MOL0     H29240   1.959   3.352   5.207 -2.0066  0.7282  0.9092
  217MOL0     H29241   1.987   3.453   5.345  1.5220 -0.0340  1.5343
  217MOL0     H29242   2.131   3.271   5.449 -1.4296 -2.1808  1.3751
  217MOL0     H29243   2.083   3.157   5.327 -0.0100  0.5538  0.5559
  217MOL0     H29244   2.270   3.394   5.254  2.2426 -0.9023  0.6324
  217MOL0     H29245   2.191   3.288   5.150  0.9330  0.8335  0.0570
  217MOL0     H29246   2.439   3.302   5.432 -0.5017 -0.1786  0.0542
  217MOL0     H29247   2.694   2.987   5.435 -1.8744 -0.6827 -1.3460
  217MOL0     H29248   2.714   3.167   5.447  0.0535  0.0344 -0.9572
  217MOL0     H29249   2.583   3.150   5.662 -0.0080  0.2031 -0.9625
  217MOL0     H29250   2.724   3.044   5.657 -0.2589  1.6710  2.0109
  217MOL0     H29251   2.559   2.911   5.761 -1.2447 -1.5079  0.7226
  217MOL0     H29252   2.576   2.853   5.597  0.4804  0.1859 -0.0683
  217MOL0     H29253   2.379   2.927   5.526 -4.8823 -0.8651  1.0553
  217MOL0     H29254   2.373   3.053   5.658  2.5130  0.8059 -0.4517
  217MOL0     H29255   2.184   2.637   5.777  1.1779  1.0792  2.0271
  217MOL0     H29256   1.851   2.554   5.760  1.1475 -0.2326 -0.7475
  217MOL0     H29257   2.012   2.516   5.809  0.9300  0.9137  1.5779
  217MOL0     H29258   1.914   2.587   5.927  0.6970 -1.3914  0.3977
  217MOL0     H29259   1.490   2.967   5.776  0.3419 -0.3081 -1.4182
  217MOL0     H29260   1.250   2.929   5.811 -1.6530 -1.4945 -2.1220
  217MOL0     H29261   0.996   2.586   5.979  1.7974 -2.3585  1.9465
  217MOL0     H29262   1.157   2.548   5.974  0.5200 -0.9594 -2.2667
  217MOL0     H29263   1.206   2.689   6.145  0.2053 -0.3669 -1.7500
  217MOL0     H29264   1.099   2.815   6.111 -2.9903  0.0745 -0.4908
  217MOL0     H29265   0.897   2.695   6.166  0.1217 -0.5568  0.7101
  217MOL0     H29266   0.995   2.714   6.309  0.6867 -0.5520 -0.2748
  217MOL0     H29267   0.965   2.468   6.142  3.8655 -1.9226  0.4357
  217MOL0     H29268   1.075   2.484   6.286 -0.9220  1.6924  1.6893
  217MOL0     H29269   0.841   2.561   6.403 -1.3632 -1.4800  0.9133
  217MOL0     H29270   0.884   2.393   6.339  0.4010  0.7434 -0.9900
  217MOL0     H29271   0.710   2.591   6.186 -0.7935 -0.2515 -1.0390
  217MOL0     H29272   0.754   2.440   6.137 -0.3751  3.0298 -0.8797
  217MOL0     H29273   0.574   2.509   6.368 -0.3542 -2.7321  2.5564
  217MOL0     H29274   0.637   2.341   6.351  1.6662  0.4954  0.9164
  217MOL0     H29275   0.534   2.371   6.105 -2.4554  0.6445 -1.3434
  217MOL0     H29276   0.475   2.523   6.164 -1.3454  0.5113  2.3709
  217MOL0     H29277   1.318   2.515   5.847  0.7641  0.1755  0.9243
  217MOL0     H29278   1.564   2.536   5.810 -1.8254 -2.7403  1.3060
  217MOL0     H29279   1.945   3.044   5.653 -2.1584 -0.8905  1.8321
  217MOL0     H29280   2.155   3.042   5.624 -1.7469  0.2366 -2.8527
  217MOL0     H29281   1.440   3.220   6.014 -1.1109  3.0406  2.0497
  217MOL0     H29282   1.251   3.084   6.079 -3.4779  0.7511  1.2546
  217MOL0     H29283   0.873   2.881   5.893 -0.2002 -3.6171  1.0597
  217MOL0     H29284   0.640   2.762   5.897 -0.1024 -0.9404  0.5392
  217MOL0     H29285   0.378   2.751   6.218  0.3665 -3.6968 -1.2426
  217MOL0     H29286   0.309   2.899   6.147  0.1590  0.8262  0.1687
  217MOL0     H29287   0.189   2.676   6.152  2.7962  0.5393  1.3124
  217MOL0     H29288   0.286   2.619   6.021 -2.1808 -1.8316  0.1917
  217MOL0     H29289   0.172   2.780   5.872 -0.0061  1.8768  0.1334
  217MOL0     H29290   0.103   2.868   6.011 -0.0280  0.7202 -1.4941
  217MOL0     H29291  -0.005   2.632   6.070  1.9337 -1.5620 -1.5426
  217MOL0     H29292   0.063   2.589   5.913 -0.2898 -1.3317  2.0682
  217MOL0     H29293  -0.278   2.834   5.809  0.6123  2.4518  1.1882
  217MOL0     H29294   0.541   2.980   6.251 -0.1456  0.5595 -0.0537
  217MOL0     H29295   0.740   3.073   6.256 -1.4067 -1.7403 -0.2568
  218MOL0     O29296   5.270   6.218   9.662  0.2552  0.6342  0.4953
  218MOL0     C29297   5.325   6.322   9.637 -0.3898 -0.2386 -0.0039
  218MOL0     O29298   5.262   6.432   9.591  0.2567  0.1715  0.8911
  218MOL0     C29299   5.125   6.461   9.626  0.3128  0.5062  0.1516
  218MOL0     C29300   5.023   6.396   9.560 -0.0794 -0.1961  0.3546
  218MOL0     C29301   4.883   6.416   9.583  0.7673 -0.8065 -0.4252
  218MOL0     C29302   4.852   6.507   9.694 -0.2959 -1.0949  0.5464
  218MOL0     O29303   4.722   6.527   9.724 -0.0924 -0.3267 -0.0769
  218MOL0     C29304   4.668   6.652   9.777 -0.3127 -0.9665 -0.4251
  218MOL0     C29305   4.615   6.623   9.918  0.2238  0.3334  0.0868
  218MOL0     C29306   4.497   6.529   9.938  0.3680  0.5622  0.1868
  218MOL0     C29307   4.363   6.590   9.904  0.8085  0.3377 -0.7052
  218MOL0     C29308   4.256   6.477   9.884  0.1229  0.0887 -0.7233
  218MOL0     C29309   4.121   6.542   9.863  0.1442 -0.3669 -0.3750
  218MOL0     C29310   4.020   6.426   9.847 -0.5650 -0.3201  0.3624
  218MOL0     C29311   4.031   6.341   9.725 -0.4177  0.0775  1.2200
  218MOL0     N29312   4.027   6.427   9.606 -0.6519 -0.1919  0.2515
  218MOL0     C29313   4.131   6.455   9.515 -1.4646  0.1399 -0.1037
  218MOL0     C29314   4.079   6.557   9.441 -0.0482  0.0951  0.6671
  218MOL0     C29315   4.158   6.629   9.337  0.3270 -0.5843 -0.0625
  218MOL0     C29316   4.221   6.760   9.397 -0.1933 -0.0755 -0.1864
  218MOL0     C29317   4.340   6.733   9.496  0.7859 -0.5185 -0.2729
  218MOL0     C29318   4.413   6.863   9.533 -0.0110  0.5738  0.5585
  218MOL0     O29319   4.468   6.927   9.419  0.3714  0.3060 -0.6901
  218MOL0     C29320   4.595   6.896   9.373 -0.2764  0.5623 -0.4074
  218MOL0     C29321   4.615   6.943   9.243  0.6311 -0.0775 -0.6824
  218MOL0     C29322   4.740   6.925   9.170  0.1572  0.2157  0.2341
  218MOL0     C29323   4.748   6.973   9.031 -0.6250  0.0139 -0.0013
  218MOL0     C29324   4.842   6.845   9.232 -0.0751  0.0127 -0.3176
  218MOL0     C29325   4.973   6.805   9.168  0.1538 -0.8008  0.5056
  218MOL0     O29326   5.030   6.689   9.203 -0.3460 -0.1895  0.2470
  218MOL0     C29327   5.162   6.670   9.182  0.2930  0.6652  0.1352
  218MOL0     C29328   5.218   6.661   9.054 -0.0816 -0.1248 -0.3959
  218MOL0     C29329   5.357   6.652   9.043  0.2066 -0.0228  0.4029
  218MOL0     C29330   5.445   6.633   9.146  0.3725 -0.4707 -0.1492
  218MOL0     O29331   5.580   6.606   9.113 -0.2381  0.2274  0.0752
  218MOL0     C29332   5.670   6.611   9.220 -0.7027  0.4794 -0.4375
  218MOL0     C29333   5.817   6.596   9.160 -0.1822 -0.1750  0.5183
  218MOL0     C29334   5.926   6.599   9.266 -0.0828 -0.7698 -0.6963
  218MOL0     C29335   5.948   6.740   9.337  0.0597  0.6110 -0.1290
  218MOL0     C29336   6.028   6.714   9.465  0.4004  0.8091 -0.2179
  218MOL0     C29337   6.036   6.847   9.548 -0.2181  0.5610 -0.0988
  218MOL0     C29338   6.151   6.924   9.495 -0.2763  0.3616 -0.6765
  218MOL0     C29339   6.156   7.057   9.572 -0.2464 -0.0707  0.8494
  218MOL0    Cl29340   6.277   7.168   9.512  0.3088  0.0221  0.1093
  218MOL0     C29341   5.395   6.646   9.271 -1.0545 -0.3041  0.5716
  218MOL0     C29342   5.257   6.665   9.290  1.0183 -0.0670  0.2929
  218MOL0     O29343   5.034   6.894   9.106  0.7233 -0.6664 -1.4704
  218MOL0     C29344   4.818   6.795   9.358 -0.6552  0.4495  0.6005
  218MOL0     C29345   4.695   6.810   9.425  0.2384  0.7463 -0.0560
  218MOL0     N29346   3.944   6.582   9.475  0.0527 -0.4225  0.8801
  218MOL0     N29347   3.926   6.511   9.582 -0.8973 -0.2581  0.6398
  218MOL0     C29348   4.954   6.563   9.771 -0.9886 -0.4174  0.0701
  218MOL0     C29349   5.092   6.550   9.729  0.6841 -0.0009 -0.2852
  218MOL0     C29350   5.469   6.316   9.638 -0.5522 -0.4541 -0.7027
  218MOL0     C29351   5.555   6.204   9.650  0.1726 -0.5201  0.2196
  218MOL0     C29352   5.687   6.208   9.606  0.3417 -0.3826 -0.6756
  218MOL0     C29353   5.739   6.328   9.559  1.0195  1.4700 -0.3911
  218MOL0     O29354   5.862   6.332   9.513  0.2633  0.0319 -0.0336
  218MOL0     C29355   5.942   6.218   9.471 -0.6732 -0.0139 -0.5282
  218MOL0     C29356   6.054   6.242   9.374 -0.2691  0.4056 -0.1718
  218MOL0     C29357   6.153   6.343   9.442 -0.4711  0.6261 -0.4244
  218MOL0     C29358   6.282   6.357   9.362 -0.4089  0.1209  0.2221
  218MOL0     C29359   6.341   6.477   9.419  0.6388 -0.5804 -0.3740
  218MOL0     C29360   6.386   6.586   9.446 -0.5039 -0.8780  0.7756
  218MOL0     C29361   5.659   6.441   9.560 -0.0269  0.2612  0.1439
  218MOL0     C29362   5.531   6.435   9.609 -0.4143  0.2246  0.2927
  218MOL0     H29363   5.037   6.326   9.477 -1.6033  0.8338 -0.8217
  218MOL0     H29364   4.805   6.374   9.520 -0.4839  1.8060 -0.7363
  218MOL0     H29365   4.750   6.724   9.788 -2.0550  0.8536  1.5569
  218MOL0     H29366   4.591   6.682   9.705 -1.1196  0.1666  0.8578
  218MOL0     H29367   4.702   6.586   9.973 -0.5783 -2.9167 -0.5952
  218MOL0     H29368   4.596   6.712   9.978 -0.5090  0.4595 -0.3203
  218MOL0     H29369   4.511   6.434   9.884 -2.8391  0.5149 -0.7766
  218MOL0     H29370   4.482   6.503  10.043 -3.0096 -2.8512 -0.9248
  218MOL0     H29371   4.342   6.665   9.982  1.0631  0.0159 -0.3248
  218MOL0     H29372   4.366   6.638   9.806 -0.9687 -0.1966 -1.0683
  218MOL0     H29373   4.289   6.422   9.795 -0.9213 -1.1080 -0.3938
  218MOL0     H29374   4.263   6.402   9.963 -3.2659  1.1793  0.7803
  218MOL0     H29375   4.086   6.613   9.939 -0.7774  0.2474 -1.3460
  218MOL0     H29376   4.128   6.592   9.766 -2.0026  1.7391  0.4309
  218MOL0     H29377   4.019   6.374   9.943 -0.2749 -1.0434 -0.0249
  218MOL0     H29378   3.921   6.473   9.849 -0.2680  0.3062  0.8393
  218MOL0     H29379   3.946   6.274   9.709  0.4248 -0.4589 -1.4719
  218MOL0     H29380   4.116   6.272   9.728 -2.0020 -2.0385  0.0613
  218MOL0     H29381   4.232   6.416   9.518 -1.8474 -0.8572  2.0683
  218MOL0     H29382   4.238   6.565   9.298  0.8838  1.4486 -2.5027
  218MOL0     H29383   4.099   6.658   9.249 -0.2543  1.8706  1.0707
  218MOL0     H29384   4.147   6.818   9.453  0.8073  0.2666  0.8227
  218MOL0     H29385   4.257   6.818   9.311 -2.0406  1.5115  0.0350
  218MOL0     H29386   4.417   6.673   9.444  1.0378 -1.1547  0.8088
  218MOL0     H29387   4.311   6.672   9.581  3.8428 -0.7545  0.7274
  218MOL0     H29388   4.499   6.845   9.598 -0.6151  3.4164  2.3440
  218MOL0     H29389   4.348   6.938   9.579  2.6010  2.3839  1.5606
  218MOL0     H29390   4.547   7.004   9.185  0.9827 -0.7703 -1.8402
  218MOL0     H29391   4.824   7.052   9.034 -0.9232  0.2830  0.7073
  218MOL0     H29392   4.785   6.890   8.970  1.5289 -1.2748  2.7835
  218MOL0     H29393   4.650   7.011   9.000  0.0690  1.9700  0.0605
  218MOL0     H29394   5.149   6.667   8.971  0.5108 -0.2582 -0.9011
  218MOL0     H29395   5.390   6.666   8.940 -1.2703  0.6723 -0.0006
  218MOL0     H29396   5.664   6.700   9.283  0.2100 -0.8269  1.6214
  218MOL0     H29397   5.645   6.524   9.281  0.0101 -0.9270 -2.0469
  218MOL0     H29398   5.815   6.503   9.103  0.8943 -1.2464  2.1524
  218MOL0     H29399   5.839   6.679   9.091  0.9206 -2.0539 -1.5060
  218MOL0     H29400   6.017   6.562   9.216 -0.2389 -0.0798 -1.5198
  218MOL0     H29401   5.904   6.521   9.339 -2.8472  1.6329  1.2383
  218MOL0     H29402   6.005   6.793   9.260  2.3978  0.1395  1.1885
  218MOL0     H29403   5.850   6.785   9.356  0.9834  2.7111 -0.1522
  218MOL0     H29404   6.125   6.667   9.449  0.0493 -0.2021  0.5372
  218MOL0     H29405   5.976   6.641   9.528  2.4762 -0.1986  0.4190
  218MOL0     H29406   5.944   6.899   9.522 -1.3904 -1.0688  0.6397
  218MOL0     H29407   6.037   6.839   9.657 -0.0309  0.4935 -0.1035
  218MOL0     H29408   6.135   6.947   9.389  1.1705 -1.3157 -1.3037
  218MOL0     H29409   6.242   6.864   9.505 -0.8235 -1.0915 -3.3913
  218MOL0     H29410   6.165   7.040   9.680 -0.7236  1.2329  1.1192
  218MOL0     H29411   6.058   7.106   9.576 -0.0969  0.1917  1.5788
  218MOL0     H29412   5.460   6.633   9.357  1.9470 -3.1412 -1.8380
  218MOL0     H29413   5.224   6.666   9.393 -0.2639  1.8358 -0.0678
  218MOL0     H29414   4.886   6.728   9.410 -1.4746 -1.5242 -0.7611
  218MOL0     H29415   4.680   6.756   9.518 -0.7560  0.9364 -0.0918
  218MOL0     H29416   4.937   6.633   9.853 -0.0967 -1.2458  1.0024
  218MOL0     H29417   5.166   6.599   9.791 -0.6708  2.0299 -0.2007
  218MOL0     H29418   5.503   6.113   9.679  1.7063 -1.1822  1.0148
  218MOL0     H29419   5.754   6.123   9.606  1.4312  0.3889  1.8358
  218MOL0     H29420   5.984   6.174   9.562 -0.8177  2.2531  0.7163
  218MOL0     H29421   5.878   6.141   9.428 -0.1396 -0.5384 -0.3911
  218MOL0     H29422   6.008   6.284   9.284  0.1403 -1.5603 -1.3561
  218MOL0     H29423   6.097   6.147   9.343 -2.3145 -0.4638 -0.5264
  218MOL0     H29424   6.179   6.301   9.539  0.7971 -0.7781 -1.3397
  218MOL0     H29425   6.101   6.435   9.471  0.9106  0.4872  2.9022
  218MOL0     H29426   6.262   6.376   9.256  1.6056  1.9316  0.1066
  218MOL0     H29427   6.347   6.271   9.381 -0.0786  0.9264  3.4212
  218MOL0     H29428   6.429   6.683   9.458 -0.3279 -1.0510  1.6460
  218MOL0     H29429   5.703   6.536   9.530  0.7017  0.2912  1.2588
  218MOL0     H29430   5.483   6.531   9.598  1.3958  0.9010 -3.5127
  219MOL0     O29431   2.570  10.630   1.960 -0.2493  0.1719 -0.8466
  219MOL0     C29432   2.539  10.672   2.071 -0.4105 -0.0814  1.4418
  219MOL0     O29433   2.608  10.645   2.185  0.0261 -0.6618  0.6750
  219MOL0     C29434   2.704  10.542   2.176 -0.3873 -0.3893 -0.0541
  219MOL0     C29435   2.676  10.418   2.141 -0.2307  0.5803 -0.2532
  219MOL0     C29436   2.775  10.321   2.125 -0.0726  0.4876 -0.3035
  219MOL0     C29437   2.914  10.351   2.144  0.4061  0.4097 -0.2998
  219MOL0     O29438   2.999  10.245   2.130  0.0029  1.2028  0.2481
  219MOL0     C29439   3.132  10.262   2.104  0.4768 -0.4842  0.2129
  219MOL0     C29440   3.146  10.258   1.953  0.0000 -0.2985  0.5356
  219MOL0     C29441   3.291  10.213   1.920  0.0309  0.0020  0.1436
  219MOL0     C29442   3.302  10.215   1.765  0.4130  0.2509  0.4669
  219MOL0     C29443   3.399  10.111   1.711  0.0717 -0.0316 -1.0162
  219MOL0     C29444   3.541  10.153   1.766 -0.4822  0.0600  0.2172
  219MOL0     C29445   3.641  10.046   1.726  0.2250 -0.6858 -0.0880
  219MOL0     C29446   3.660  10.046   1.568 -0.2913 -0.8387  0.0551
  219MOL0     N29447   3.792   9.984   1.530 -0.6348  0.2678  0.4244
  219MOL0     C29448   3.826   9.975   1.398 -0.2890 -0.6243  0.1750
  219MOL0     C29449   3.958   9.933   1.393  0.5860  0.6233 -0.7034
  219MOL0     C29450   4.042   9.934   1.272 -0.0483 -0.1938  0.4636
  219MOL0     C29451   4.118   9.804   1.240  0.6501 -1.0650 -0.0418
  219MOL0     C29452   4.160   9.815   1.095 -1.0506 -0.2519 -0.3258
  219MOL0     C29453   4.272   9.916   1.063 -0.1231 -0.4591  0.3333
  219MOL0     O29454   4.329   9.882   0.939  0.2066 -0.4745 -0.1107
  219MOL0     C29455   4.270   9.903   0.821  0.7402 -0.8799  0.1948
  219MOL0     C29456   4.145   9.975   0.799  0.5401  0.4566  0.7155
  219MOL0     C29457   4.096   9.989   0.670  0.6149 -0.4932 -1.2045
  219MOL0     C29458   3.956  10.052   0.656 -0.0912 -0.5049 -0.1690
  219MOL0     C29459   4.171   9.931   0.560 -0.1380  0.0267  0.2627
  219MOL0     C29460   4.116   9.939   0.421  0.2256  1.0128  0.7547
  219MOL0     O29461   4.107  10.064   0.372  0.3975 -0.8320  0.4062
  219MOL0     C29462   4.056  10.085   0.240  0.0084 -1.5611 -0.5359
  219MOL0     C29463   4.114  10.033   0.124  0.6179 -0.0850 -0.0452
  219MOL0     C29464   4.059  10.059   0.002  0.1301 -0.9808 -0.2630
  219MOL0     C29465   3.936  10.136  -0.005 -0.6706 -0.0068  1.4351
  219MOL0     O29466   3.880  10.183  -0.128 -0.5049 -0.2366 -0.3073
  219MOL0     C29467   3.865  10.098  -0.239 -0.0477  0.3184 -1.2348
  219MOL0     C29468   3.712  10.107  -0.275  0.2235 -0.3696  0.6319
  219MOL0     C29469   3.618  10.019  -0.199 -0.9553  0.2513  0.0628
  219MOL0     C29470   3.479   9.999  -0.260  0.3727 -0.0180 -0.6841
  219MOL0     C29471   3.403   9.888  -0.188 -0.4548 -0.2082 -0.2231
  219MOL0     C29472   3.359   9.937  -0.049  0.2052  0.2674  0.3577
  219MOL0     C29473   3.273   9.817   0.007  0.0006 -0.0086 -1.2908
  219MOL0     C29474   3.336   9.680   0.036  0.3702 -0.0905  0.5617
  219MOL0    Cl29475   3.224   9.572   0.111  0.0780 -0.4237  0.1240
  219MOL0     C29476   3.879  10.197   0.112 -0.1634  0.3198 -0.5512
  219MOL0     C29477   3.947  10.174   0.233  0.6536  0.7874  0.2521
  219MOL0     O29478   4.074   9.835   0.364 -0.1375  0.5123  0.4384
  219MOL0     C29479   4.296   9.876   0.582  0.1373  0.9469 -0.1002
  219MOL0     C29480   4.338   9.856   0.714 -0.7495 -0.6721 -0.0722
  219MOL0     N29481   3.990   9.899   1.525 -0.5373  0.5459 -0.7650
  219MOL0     N29482   3.889   9.929   1.605  0.7217 -0.2691  0.3407
  219MOL0     C29483   2.946  10.480   2.180 -0.5391 -0.0411  0.0959
  219MOL0     C29484   2.841  10.569   2.200 -0.0543  0.1722 -0.1900
  219MOL0     C29485   2.420  10.752   2.086 -0.1202  0.4667  0.5802
  219MOL0     C29486   2.354  10.791   1.968  0.2230 -0.5273 -0.0680
  219MOL0     C29487   2.223  10.837   1.967 -0.2628  0.4450  0.8398
  219MOL0     C29488   2.155  10.865   2.086  0.4824 -1.1339  0.0577
  219MOL0     O29489   2.030  10.922   2.090  0.0394 -0.6511 -0.6938
  219MOL0     C29490   1.933  10.854   2.003  0.4453  0.1546  0.3741
  219MOL0     C29491   1.789  10.909   2.015 -0.0564  1.0917  0.3781
  219MOL0     C29492   1.780  11.053   1.972 -0.1769  0.6107  0.3938
  219MOL0     C29493   1.740  11.075   1.819 -0.3935 -0.0950  0.1359
  219MOL0     C29494   1.868  11.075   1.752 -0.2203  0.1798 -1.1732
  219MOL0     C29495   1.986  11.099   1.704 -0.8669 -0.9309 -0.0191
  219MOL0     C29496   2.230  10.839   2.201 -0.3207 -0.7057 -0.0634
  219MOL0     C29497   2.354  10.776   2.205  0.5362  0.0757  1.3135
  219MOL0     H29498   2.570  10.404   2.122 -0.4802 -1.3581  2.1166
  219MOL0     H29499   2.754  10.217   2.099  0.1563 -0.4291  2.7880
  219MOL0     H29500   3.170  10.357   2.142 -2.5623  0.6360  0.7409
  219MOL0     H29501   3.190  10.184   2.155  1.2730 -1.1993 -1.6740
  219MOL0     H29502   3.065  10.202   1.903 -1.0070  1.9559 -0.5109
  219MOL0     H29503   3.137  10.359   1.914 -0.9686  0.2792  2.1719
  219MOL0     H29504   3.366  10.280   1.963  0.9115 -0.6462 -0.3578
  219MOL0     H29505   3.312  10.117   1.969 -0.1396 -0.3945 -0.5341
  219MOL0     H29506   3.203  10.211   1.718  1.5443  1.9592 -2.2658
  219MOL0     H29507   3.327  10.313   1.723 -2.7329 -0.5771 -4.1201
  219MOL0     H29508   3.368  10.011   1.744  1.6612 -0.0726  0.4839
  219MOL0     H29509   3.404  10.118   1.602  0.0330  1.1345 -0.9591
  219MOL0     H29510   3.565  10.243   1.707  0.7026  1.0529  2.1075
  219MOL0     H29511   3.533  10.169   1.874  1.0432  0.6617  0.2604
  219MOL0     H29512   3.741  10.079   1.757 -0.4882 -0.0864  1.7446
  219MOL0     H29513   3.619   9.948   1.770 -4.1406 -0.3600 -1.1086
  219MOL0     H29514   3.679  10.152   1.545  0.9945 -1.5663 -2.5831
  219MOL0     H29515   3.580  10.004   1.507 -1.7103  1.6860  0.0328
  219MOL0     H29516   3.759  10.018   1.325 -0.3653  0.7168  0.9947
  219MOL0     H29517   3.986   9.969   1.185 -2.2082  0.4346  2.0203
  219MOL0     H29518   4.117  10.012   1.290 -2.2040  2.2725 -0.6188
  219MOL0     H29519   4.051   9.717   1.242  1.5495 -1.7664  0.9326
  219MOL0     H29520   4.207   9.787   1.302 -0.4542 -1.9915  1.3735
  219MOL0     H29521   4.082   9.838   1.022 -0.1969  0.0813 -1.1514
  219MOL0     H29522   4.192   9.716   1.064 -1.0392  0.4323 -2.6969
  219MOL0     H29523   4.360   9.909   1.128  1.2259  0.9871 -1.2216
  219MOL0     H29524   4.238  10.021   1.064 -0.5573 -0.6020  1.6264
  219MOL0     H29525   4.096  10.014   0.888 -0.5362  2.5070 -0.7104
  219MOL0     H29526   3.889   9.982   0.606 -0.4196 -0.7842  0.6548
  219MOL0     H29527   3.910  10.073   0.753  0.5383  1.4774 -0.2550
  219MOL0     H29528   3.971  10.145   0.599 -0.3306  0.1056  0.7429
  219MOL0     H29529   4.195   9.963   0.143  1.7229  1.5379  1.5501
  219MOL0     H29530   4.103  10.017  -0.088 -0.8264 -3.5226  0.3653
  219MOL0     H29531   3.932  10.140  -0.314  1.1506  1.3088  0.3054
  219MOL0     H29532   3.894   9.995  -0.216  1.4489  0.3933 -2.6374
  219MOL0     H29533   3.680  10.211  -0.271  2.4419  0.6218 -2.8154
  219MOL0     H29534   3.708  10.068  -0.377 -2.7801  1.4585 -0.0446
  219MOL0     H29535   3.611  10.047  -0.094 -1.1365 -2.0772  0.7212
  219MOL0     H29536   3.669   9.923  -0.205 -1.0685 -0.1253  3.3754
  219MOL0     H29537   3.430  10.096  -0.250 -0.0411 -0.4643  2.4290
  219MOL0     H29538   3.499   9.977  -0.366  0.4403 -1.9315 -0.3094
  219MOL0     H29539   3.480   9.811  -0.178 -0.2347  0.2804  2.4889
  219MOL0     H29540   3.319   9.855  -0.250 -2.0010  2.7061  0.1493
  219MOL0     H29541   3.452   9.946   0.009  2.0716 -1.0114 -2.1988
  219MOL0     H29542   3.306  10.032  -0.055 -2.0225 -0.9945 -2.5391
  219MOL0     H29543   3.179   9.804  -0.047  0.6010 -0.3127 -2.3006
  219MOL0     H29544   3.248   9.847   0.109 -1.7644 -3.6331 -0.4873
  219MOL0     H29545   3.428   9.699   0.093  0.1948  1.8317  0.2848
  219MOL0     H29546   3.367   9.645  -0.062 -2.2372  1.4470 -0.9218
  219MOL0     H29547   3.794  10.264   0.105 -1.6940 -1.5088 -0.0908
  219MOL0     H29548   3.911  10.221   0.324 -2.2439 -2.6775  1.1624
  219MOL0     H29549   4.365   9.867   0.498  2.9301  1.4844  2.0114
  219MOL0     H29550   4.439   9.820   0.732 -0.5611 -0.2479 -0.2740
  219MOL0     H29551   3.047  10.516   2.198 -0.3987  0.8221 -2.1916
  219MOL0     H29552   2.870  10.671   2.225  3.4066 -0.6411 -0.4442
  219MOL0     H29553   2.397  10.788   1.868  0.7132  1.5270  0.0397
  219MOL0     H29554   2.177  10.860   1.871  1.9184  2.8631  0.2578
  219MOL0     H29555   1.963  10.874   1.900 -0.0518 -0.9147  0.0055
  219MOL0     H29556   1.935  10.750   2.037  0.2783 -0.1657 -0.5609
  219MOL0     H29557   1.756  10.907   2.119 -2.1939  2.2141 -0.2179
  219MOL0     H29558   1.722  10.846   1.956 -3.0138  0.3865  4.1229
  219MOL0     H29559   1.871  11.111   1.992  1.6331 -2.6963  2.9093
  219MOL0     H29560   1.709  11.096   2.042  0.5004  3.1664 -0.3813
  219MOL0     H29561   1.692  11.172   1.800  2.6477  2.3736  3.5357
  219MOL0     H29562   1.674  11.000   1.775 -2.5495  0.6816  1.8469
  219MOL0     H29563   2.085  11.118   1.668 -0.4876 -1.3747  0.7661
  219MOL0     H29564   2.189  10.863   2.299  2.2823 -0.4643  1.0421
  219MOL0     H29565   2.393  10.738   2.299 -1.8301  1.5545  2.9864
  220MOL0     O29566   7.568   2.406   7.320  0.0248 -0.3480 -0.3219
  220MOL0     C29567   7.614   2.494   7.399  1.3741 -0.4343  0.2450
  220MOL0     O29568   7.532   2.578   7.473  0.8147 -0.0916  0.6369
  220MOL0     C29569   7.391   2.570   7.473 -0.9978 -0.7387  0.3212
  220MOL0     C29570   7.316   2.556   7.357 -0.7374  0.1469 -0.0152
  220MOL0     C29571   7.178   2.578   7.349 -0.1654  0.5893  0.2637
  220MOL0     C29572   7.108   2.604   7.466  0.7267  0.2246  0.3575
  220MOL0     O29573   6.976   2.617   7.443 -0.5655  0.3204  0.2038
  220MOL0     C29574   6.892   2.650   7.555 -0.1040  0.0782  0.1932
  220MOL0     C29575   6.739   2.632   7.508  0.1245 -0.1579  0.8383
  220MOL0     C29576   6.648   2.719   7.597  0.5839 -0.3535  0.6018
  220MOL0     C29577   6.528   2.639   7.645 -0.7714  0.4055 -0.6786
  220MOL0     C29578   6.411   2.726   7.707 -0.2115  0.0866  0.2556
  220MOL0     C29579   6.460   2.790   7.832 -0.6114  0.1081  0.4288
  220MOL0     C29580   6.346   2.858   7.908  0.3734 -0.7419 -0.4517
  220MOL0     C29581   6.400   2.945   8.020  0.7634  0.1928  0.3381
  220MOL0     N29582   6.283   3.007   8.077 -0.0080  0.9723  0.2557
  220MOL0     C29583   6.184   2.937   8.149 -0.7758  0.2647  0.9913
  220MOL0     C29584   6.103   3.035   8.202 -0.4298 -0.2438  0.7536
  220MOL0     C29585   5.998   2.989   8.310  0.2727 -0.3117  0.0478
  220MOL0     C29586   5.914   3.117   8.361 -0.7823 -0.4437 -0.3594
  220MOL0     C29587   5.818   3.080   8.475 -0.4583 -1.4880 -0.4579
  220MOL0     C29588   5.747   3.198   8.531  0.0749  0.2273 -0.3106
  220MOL0     O29589   5.647   3.154   8.621 -0.5457  0.0828 -0.7109
  220MOL0     C29590   5.575   3.254   8.683  0.2066 -0.7685  0.8293
  220MOL0     C29591   5.582   3.396   8.655 -0.4603 -0.5312  0.1094
  220MOL0     C29592   5.504   3.485   8.723  0.3316 -0.3346  0.6595
  220MOL0     C29593   5.548   3.632   8.689  0.0205 -0.8930  0.3602
  220MOL0     C29594   5.418   3.451   8.817  0.5570 -0.5756 -0.0136
  220MOL0     C29595   5.350   3.547   8.899 -0.3329  0.0663 -0.4868
  220MOL0     O29596   5.361   3.549   9.036  0.2750  0.4147  0.1871
  220MOL0     C29597   5.305   3.652   9.110  1.3954 -0.8632  0.3913
  220MOL0     C29598   5.299   3.624   9.244 -0.7655 -0.5158 -0.4298
  220MOL0     C29599   5.241   3.717   9.338 -0.6537  0.3373  0.1965
  220MOL0     C29600   5.184   3.832   9.282 -0.7555 -0.2564  0.1464
  220MOL0     O29601   5.120   3.916   9.367 -0.5266 -0.9717  0.2389
  220MOL0     C29602   4.980   3.904   9.391  0.2754  0.2753 -0.2445
  220MOL0     C29603   4.897   3.971   9.271 -0.5078 -0.2474 -1.1867
  220MOL0     C29604   4.747   3.931   9.259 -0.5754  0.3953  0.3958
  220MOL0     C29605   4.665   3.936   9.391  0.4978 -0.2229 -0.6322
  220MOL0     C29606   4.646   4.077   9.455 -0.1682 -0.5764 -0.1918
  220MOL0     C29607   4.589   4.181   9.363 -0.4013  0.6485  0.1540
  220MOL0     C29608   4.491   4.275   9.421  0.8455 -1.2529  0.3634
  220MOL0     C29609   4.432   4.375   9.324 -0.1364  0.4819  0.2509
  220MOL0    Cl29610   4.309   4.480   9.415 -0.4734  0.8384  0.0272
  220MOL0     C29611   5.195   3.863   9.146  0.3926  0.1114 -1.1290
  220MOL0     C29612   5.259   3.782   9.057  0.3097 -0.3253 -0.2770
  220MOL0     O29613   5.269   3.618   8.828 -0.0203  0.6764 -0.0781
  220MOL0     C29614   5.399   3.316   8.843 -0.2657  0.9644  0.3567
  220MOL0     C29615   5.476   3.217   8.776  0.3772  1.0649 -0.6976
  220MOL0     N29616   6.156   3.158   8.163 -0.2567 -0.1361 -0.2077
  220MOL0     N29617   6.268   3.140   8.099 -0.5544  0.3609  0.1787
  220MOL0     C29618   7.179   2.616   7.586 -0.9922  0.9913 -0.2131
  220MOL0     C29619   7.322   2.594   7.586 -0.0890  0.0130 -0.7051
  220MOL0     C29620   7.761   2.502   7.405 -0.2239 -0.8886 -0.1879
  220MOL0     C29621   7.837   2.426   7.315 -0.5621 -0.6196  0.2977
  220MOL0     C29622   7.975   2.421   7.310 -0.1844  0.5802 -0.0501
  220MOL0     C29623   8.049   2.497   7.400 -0.0180  1.0134 -0.3963
  220MOL0     O29624   8.182   2.504   7.407 -0.3216 -0.7355 -0.4749
  220MOL0     C29625   8.259   2.416   7.334 -0.6076 -0.3022  0.4363
  220MOL0     C29626   8.401   2.407   7.401  0.6199 -0.1599  0.1045
  220MOL0     C29627   8.513   2.403   7.293 -0.0495 -0.3123 -0.4908
  220MOL0     C29628   8.655   2.467   7.340  0.4686 -0.9779 -0.8991
  220MOL0     C29629   8.705   2.443   7.472 -0.8465 -0.0918  0.4577
  220MOL0     C29630   8.749   2.416   7.580  0.2385 -0.6822 -0.8429
  220MOL0     C29631   7.984   2.576   7.497  0.8273  0.2505 -0.0629
  220MOL0     C29632   7.841   2.572   7.503  0.6427 -0.4265 -0.2162
  220MOL0     H29633   7.378   2.545   7.269 -2.3854  0.8057 -1.3062
  220MOL0     H29634   7.134   2.560   7.252  0.4563 -1.4420  0.3096
  220MOL0     H29635   6.910   2.576   7.633  0.9057 -2.0224 -1.8871
  220MOL0     H29636   6.919   2.744   7.601  0.5310 -0.1941  0.3830
  220MOL0     H29637   6.726   2.674   7.408 -2.4698  1.2797  1.7056
  220MOL0     H29638   6.722   2.524   7.504  0.9325 -0.2832 -2.3691
  220MOL0     H29639   6.700   2.771   7.677 -0.9044  0.4347  1.0920
  220MOL0     H29640   6.596   2.799   7.543  0.1313 -1.0710 -0.0562
  220MOL0     H29641   6.492   2.564   7.573 -0.7781  1.2435 -1.5701
  220MOL0     H29642   6.570   2.575   7.722 -1.3465 -2.9364 -2.9030
  220MOL0     H29643   6.360   2.797   7.640  0.4786  3.2630  2.8736
  220MOL0     H29644   6.335   2.661   7.751 -1.3864  3.1198  3.1623
  220MOL0     H29645   6.506   2.721   7.903  0.8038 -0.9502 -1.4412
  220MOL0     H29646   6.534   2.863   7.797  0.8162 -1.5608 -0.1341
  220MOL0     H29647   6.291   2.919   7.836  0.5267  0.9366  0.8111
  220MOL0     H29648   6.268   2.788   7.941 -0.0821  0.6007  1.4598
  220MOL0     H29649   6.473   3.019   7.984 -0.4915  1.4524  0.2849
  220MOL0     H29650   6.437   2.882   8.102 -4.8853 -0.7885  2.5276
  220MOL0     H29651   6.197   2.831   8.165  1.8863  0.5011  0.7265
  220MOL0     H29652   5.935   2.908   8.272 -1.1261  0.8244 -0.1421
  220MOL0     H29653   6.052   2.943   8.393  0.5275 -1.2276 -0.6071
  220MOL0     H29654   5.864   3.163   8.275 -0.0138  1.7785  0.3161
  220MOL0     H29655   5.987   3.187   8.403 -2.0204  1.2263 -0.8622
  220MOL0     H29656   5.867   3.030   8.559  0.0063  1.1950  0.9941
  220MOL0     H29657   5.746   3.018   8.422 -2.7831 -0.8725  1.7984
  220MOL0     H29658   5.704   3.255   8.448  0.5187 -1.4035 -1.7379
  220MOL0     H29659   5.826   3.263   8.569  0.0380  0.8074 -1.1970
  220MOL0     H29660   5.655   3.441   8.588  0.1969 -0.4353  0.8782
  220MOL0     H29661   5.655   3.627   8.711  0.6530  2.2330 -1.3626
  220MOL0     H29662   5.543   3.652   8.581  0.4045  1.7776  0.7759
  220MOL0     H29663   5.483   3.709   8.729 -2.8229 -2.1157 -1.5807
  220MOL0     H29664   5.345   3.533   9.281 -0.1081 -0.8769 -2.0501
  220MOL0     H29665   5.253   3.697   9.444  1.1490 -0.2883 -0.0868
  220MOL0     H29666   4.964   3.797   9.407 -0.5863  0.0575 -2.3267
  220MOL0     H29667   4.953   3.969   9.475  1.3172  0.1560  0.1984
  220MOL0     H29668   4.894   4.080   9.279  1.2008 -0.1736 -1.2595
  220MOL0     H29669   4.941   3.944   9.175  0.5020 -0.8087 -0.5819
  220MOL0     H29670   4.735   3.832   9.216  0.1136  0.2553  0.5090
  220MOL0     H29671   4.703   4.008   9.195 -0.6868  2.0927  2.3765
  220MOL0     H29672   4.564   3.907   9.360 -1.4505  3.2010  1.7345
  220MOL0     H29673   4.703   3.860   9.459 -0.9886  0.6204  1.2652
  220MOL0     H29674   4.739   4.108   9.504 -0.0945 -2.2447  0.8065
  220MOL0     H29675   4.576   4.065   9.538  2.2691  0.2326  2.1649
  220MOL0     H29676   4.673   4.245   9.336 -0.0204 -0.0820 -0.4275
  220MOL0     H29677   4.545   4.143   9.270 -0.2948  2.6810 -0.7621
  220MOL0     H29678   4.543   4.335   9.496  0.1363 -0.8716  0.5550
  220MOL0     H29679   4.416   4.212   9.469 -2.2568  2.0707  0.2272
  220MOL0     H29680   4.380   4.320   9.245  0.7150 -1.4856  0.9941
  220MOL0     H29681   4.513   4.437   9.287  1.7291 -0.6432  2.2252
  220MOL0     H29682   5.147   3.955   9.113  0.9528  0.7003 -0.3438
  220MOL0     H29683   5.285   3.833   8.965  4.3708  0.8242  1.2870
  220MOL0     H29684   5.325   3.292   8.918  0.4030  1.1142  1.0696
  220MOL0     H29685   5.469   3.109   8.784 -0.3139  1.1846  0.5044
  220MOL0     H29686   7.133   2.637   7.683 -1.5610  0.2533 -0.3089
  220MOL0     H29687   7.389   2.608   7.670  0.6124  1.6023 -1.4911
  220MOL0     H29688   7.790   2.374   7.232 -2.0947 -2.9658  2.4719
  220MOL0     H29689   8.009   2.363   7.225 -3.1117  0.2698 -1.1355
  220MOL0     H29690   8.226   2.313   7.316  1.9105 -0.8703 -1.6079
  220MOL0     H29691   8.270   2.456   7.232  1.1954 -2.6881 -0.4168
  220MOL0     H29692   8.405   2.323   7.472 -0.7328  1.2925  1.9876
  220MOL0     H29693   8.407   2.495   7.466 -0.1499 -0.0956  0.1049
  220MOL0     H29694   8.479   2.448   7.199 -0.9202  1.1450  0.4958
  220MOL0     H29695   8.522   2.296   7.270 -1.1153 -0.2513 -1.2834
  220MOL0     H29696   8.633   2.574   7.339  0.7336 -0.8792  0.6280
  220MOL0     H29697   8.735   2.441   7.270  0.3897 -1.1607 -0.9220
  220MOL0     H29698   8.798   2.397   7.674  0.0080 -0.9389 -0.7718
  220MOL0     H29699   8.041   2.647   7.556 -0.1181  1.4348 -0.5403
  220MOL0     H29700   7.784   2.632   7.574 -1.3536 -1.1805 -1.1275
  221MOL0     O29701   0.115   9.104   9.604  0.6193 -0.5319 -0.2859
  221MOL0     C29702   0.076   9.216   9.641 -0.4081 -0.0015  0.0143
  221MOL0     O29703   0.139   9.330   9.596  1.0492 -0.4047  0.1186
  221MOL0     C29704   0.262   9.317   9.541 -0.0092 -0.5903 -0.4280
  221MOL0     C29705   0.373   9.351   9.621  0.3645  0.5014 -0.6849
  221MOL0     C29706   0.503   9.342   9.578  0.9246 -0.4867  0.5246
  221MOL0     C29707   0.533   9.314   9.442 -0.2383  0.2060 -0.7389
  221MOL0     O29708   0.655   9.326   9.385 -0.2383  0.5701  0.0840
  221MOL0     C29709   0.745   9.410   9.460 -0.3922 -0.3144 -0.4400
  221MOL0     C29710   0.887   9.414   9.400 -0.4510 -0.2877  0.2586
  221MOL0     C29711   0.898   9.547   9.328 -0.7818  0.2099 -0.2258
  221MOL0     C29712   1.024   9.535   9.236  0.6521  0.0463  0.1767
  221MOL0     C29713   1.077   9.670   9.182  0.2228  0.5593 -0.1982
  221MOL0     C29714   1.149   9.759   9.286  0.1300 -0.2454 -1.3214
  221MOL0     C29715   1.206   9.891   9.227 -0.6524  0.1886 -0.0912
  221MOL0     C29716   1.283   9.962   9.342  0.6240  0.1579 -0.3397
  221MOL0     N29717   1.211  10.060   9.429  0.8323 -0.2547 -0.0249
  221MOL0     C29718   1.130  10.159   9.384 -0.2553 -0.2585  0.3669
  221MOL0     C29719   1.102  10.231   9.495 -0.5718  1.0913  0.3808
  221MOL0     C29720   1.053  10.371   9.504 -0.6371 -0.4169  0.8587
  221MOL0     C29721   0.939  10.401   9.415  0.6699  1.1784  0.1788
  221MOL0     C29722   0.827  10.288   9.415  0.2065 -0.5899  0.2781
  221MOL0     C29723   0.692  10.334   9.368  0.7174  0.2191 -0.1638
  221MOL0     O29724   0.643  10.453   9.444 -0.7250 -0.7303  0.3936
  221MOL0     C29725   0.554  10.439   9.552 -0.2390 -0.5083 -0.0967
  221MOL0     C29726   0.519  10.553   9.626 -1.1014 -0.5066  0.0836
  221MOL0     C29727   0.436  10.545   9.733  0.6948 -1.1823  0.6899
  221MOL0     C29728   0.402  10.678   9.800 -0.4673  0.6168  0.1596
  221MOL0     C29729   0.388  10.428   9.783  1.1704 -0.5915 -0.4819
  221MOL0     C29730   0.320  10.419   9.914  0.7737 -0.1220 -1.1540
  221MOL0     O29731   0.214  10.329   9.919  0.3103  0.6218  0.2690
  221MOL0     C29732   0.137  10.337  10.029 -0.8403 -0.1735  0.0451
  221MOL0     C29733   0.076  10.455  10.083  0.2482 -0.0761  0.6108
  221MOL0     C29734  -0.004  10.444  10.209 -0.2386 -0.4005  0.2843
  221MOL0     C29735  -0.013  10.321  10.283  0.2168 -0.9226 -0.1240
  221MOL0     O29736  -0.080  10.300  10.400  0.0409 -0.5009  0.2640
  221MOL0     C29737  -0.165  10.399  10.451 -0.4509  0.3217  0.5299
  221MOL0     C29738  -0.235  10.339  10.569  0.7678 -0.1124  0.9156
  221MOL0     C29739  -0.243  10.433  10.685 -0.0417 -0.1224 -0.6129
  221MOL0     C29740  -0.297  10.574  10.655 -0.5823  0.6998 -0.0433
  221MOL0     C29741  -0.442  10.575  10.623  0.3156  0.1413 -0.6631
  221MOL0     C29742  -0.466  10.717  10.566  0.1001 -0.1594  0.0215
  221MOL0     C29743  -0.618  10.739  10.527  0.0903  0.4566 -0.2504
  221MOL0     C29744  -0.668  10.871  10.459 -1.3542 -0.1662 -1.0769
  221MOL0    Cl29745  -0.579  10.895  10.312 -0.1885  0.1875 -0.7824
  221MOL0     C29746   0.037  10.204  10.218 -0.5591 -0.2171 -0.3077
  221MOL0     C29747   0.113  10.221  10.103  0.9308  0.4492  0.7795
  221MOL0     O29748   0.374  10.471  10.014 -0.1874  0.2690  0.8608
  221MOL0     C29749   0.428  10.312   9.717 -0.5342 -0.5101  0.1190
  221MOL0     C29750   0.504  10.315   9.598  1.6205 -0.4955  0.0709
  221MOL0     N29751   1.167  10.165   9.601 -0.6617 -0.2068 -1.4790
  221MOL0     N29752   1.238  10.064   9.560  0.4657  0.2493 -0.4644
  221MOL0     C29753   0.421   9.257   9.371 -0.5654 -0.5233 -0.7556
  221MOL0     C29754   0.289   9.260   9.418 -0.9798  0.2923 -0.8664
  221MOL0     C29755  -0.036   9.236   9.749 -0.6448  0.1013  0.1746
  221MOL0     C29756  -0.040   9.356   9.825 -0.1960  0.2052 -0.5409
  221MOL0     C29757  -0.129   9.364   9.932  0.4661 -0.3105 -0.3656
  221MOL0     C29758  -0.228   9.259   9.954 -0.5423  0.5210 -0.3122
  221MOL0     O29759  -0.321   9.256  10.057  0.0404 -0.3514 -0.9600
  221MOL0     C29760  -0.373   9.371  10.128 -0.0912 -0.8178  0.1974
  221MOL0     C29761  -0.478   9.332  10.232 -0.4536  0.1815  0.4511
  221MOL0     C29762  -0.621   9.319  10.172 -1.0277  0.6392 -0.2001
  221MOL0     C29763  -0.636   9.218  10.051 -0.0599  0.1627 -0.4486
  221MOL0     C29764  -0.609   9.295   9.929 -0.8065  0.5483 -0.5764
  221MOL0     C29765  -0.613   9.350   9.816 -0.1165  0.8577 -0.7634
  221MOL0     C29766  -0.225   9.141   9.875 -0.4220 -0.9765 -1.3716
  221MOL0     C29767  -0.124   9.130   9.779 -0.9850  0.4931  0.6984
  221MOL0     H29768   0.351   9.375   9.724 -0.4141 -0.7457 -0.5418
  221MOL0     H29769   0.580   9.352   9.654 -0.6328  4.3042  1.8207
  221MOL0     H29770   0.707   9.512   9.473  2.8232  0.8126  1.5977
  221MOL0     H29771   0.763   9.369   9.560 -0.6890  0.0467 -0.2351
  221MOL0     H29772   0.958   9.415   9.483  2.1102  0.7237 -1.7795
  221MOL0     H29773   0.919   9.338   9.329  0.7240 -2.3839  2.8658
  221MOL0     H29774   0.810   9.576   9.270  1.1091  0.9191 -2.9555
  221MOL0     H29775   0.919   9.624   9.403 -1.0005  1.0353 -0.9955
  221MOL0     H29776   1.102   9.488   9.296  0.2028  2.5471  2.9702
  221MOL0     H29777   0.996   9.463   9.158  0.0957 -2.0165  2.1723
  221MOL0     H29778   1.156   9.650   9.110  1.6191 -1.2074  1.6992
  221MOL0     H29779   0.993   9.730   9.145  0.6364  0.3865 -1.4285
  221MOL0     H29780   1.076   9.795   9.359  0.7117  2.1930 -1.8526
  221MOL0     H29781   1.223   9.700   9.341 -1.7447 -1.7843 -0.3322
  221MOL0     H29782   1.262   9.865   9.137 -1.8933 -0.8329 -0.5957
  221MOL0     H29783   1.126   9.956   9.193 -0.8375  1.2048  2.0770
  221MOL0     H29784   1.367  10.009   9.290  0.4743 -0.8363 -1.5369
  221MOL0     H29785   1.324   9.880   9.403 -3.5454 -2.5457 -0.7282
  221MOL0     H29786   1.109  10.179   9.279 -1.6806 -0.6525  0.5480
  221MOL0     H29787   1.030  10.390   9.609  0.0222 -1.1475  1.1430
  221MOL0     H29788   1.138  10.437   9.485 -0.1369 -1.1377  0.5516
  221MOL0     H29789   0.949  10.419   9.308 -1.5678  1.0197 -0.1153
  221MOL0     H29790   0.895  10.495   9.451 -3.1677  0.6838 -2.5612
  221MOL0     H29791   0.811  10.240   9.512 -2.6394 -1.9601 -0.7578
  221MOL0     H29792   0.846  10.207   9.344 -2.0590 -2.0186  1.1709
  221MOL0     H29793   0.627  10.245   9.374  3.1269 -1.6228  0.1634
  221MOL0     H29794   0.708  10.366   9.265  2.3521  0.4795  0.1409
  221MOL0     H29795   0.568  10.646   9.598 -0.3732 -0.9334 -0.1127
  221MOL0     H29796   0.400  10.754   9.722 -2.4743 -0.8885 -1.3714
  221MOL0     H29797   0.304  10.661   9.845 -1.5560  1.9343 -1.6264
  221MOL0     H29798   0.468  10.708   9.882  1.1845 -2.5919  0.2010
  221MOL0     H29799   0.078  10.545  10.023 -1.0755 -0.1184  0.4744
  221MOL0     H29800  -0.057  10.532  10.242 -3.0010 -0.7828 -2.6661
  221MOL0     H29801  -0.109  10.492  10.466  1.4363 -0.0182 -3.1636
  221MOL0     H29802  -0.239  10.430  10.376 -0.1563  0.4887  0.3045
  221MOL0     H29803  -0.338  10.312  10.546  1.0118 -1.0545  0.8871
  221MOL0     H29804  -0.177  10.252  10.604  0.7456  0.1017  1.4883
  221MOL0     H29805  -0.147  10.447  10.736  0.1857 -0.2322 -1.0019
  221MOL0     H29806  -0.303  10.391  10.765  1.6033 -0.3334  0.5605
  221MOL0     H29807  -0.278  10.629  10.748 -1.0021  1.0216 -0.1439
  221MOL0     H29808  -0.243  10.623  10.574 -2.1229 -0.1018 -1.6357
  221MOL0     H29809  -0.483  10.567  10.724  0.3126  1.3953 -0.5463
  221MOL0     H29810  -0.477  10.497  10.555  2.0070 -0.6111 -0.7207
  221MOL0     H29811  -0.442  10.787  10.646 -1.8151  1.7016 -0.9216
  221MOL0     H29812  -0.419  10.740  10.470 -0.2195 -1.0268 -0.3614
  221MOL0     H29813  -0.674  10.723  10.620  2.2237 -0.8116  0.9143
  221MOL0     H29814  -0.634  10.650  10.465  1.1473 -0.4184  0.6875
  221MOL0     H29815  -0.658  10.955  10.528  2.4845 -0.5010 -1.0155
  221MOL0     H29816  -0.773  10.857  10.433 -1.3623 -0.7671 -0.7372
  221MOL0     H29817   0.020  10.109  10.267 -2.1856  0.7104  1.0641
  221MOL0     H29818   0.164  10.131  10.071 -2.1685 -0.7078 -1.2933
  221MOL0     H29819   0.391  10.217   9.754  1.2092 -0.3722  2.4056
  221MOL0     H29820   0.536  10.221   9.554  3.8139  0.1126  0.2424
  221MOL0     H29821   0.427   9.225   9.268  0.6900  0.3905 -0.9831
  221MOL0     H29822   0.225   9.217   9.342  2.2353 -1.2565 -2.9307
  221MOL0     H29823   0.033   9.434   9.805  1.3938 -1.3422 -0.9972
  221MOL0     H29824  -0.130   9.449   9.999  3.0739 -0.1124 -0.4511
  221MOL0     H29825  -0.292   9.426  10.175 -1.8736  2.1870  0.0001
  221MOL0     H29826  -0.415   9.451  10.066 -0.9523 -1.2193  0.2421
  221MOL0     H29827  -0.475   9.416  10.302 -1.6362 -2.1080  3.4608
  221MOL0     H29828  -0.438   9.241  10.277  3.4099  1.4413 -0.0532
  221MOL0     H29829  -0.651   9.419  10.140  2.2131  0.9668 -2.6737
  221MOL0     H29830  -0.680   9.297  10.262  1.3312  1.7779  1.7528
  221MOL0     H29831  -0.734   9.170  10.056  1.6566 -3.5354  1.6713
  221MOL0     H29832  -0.565   9.136  10.056 -0.1651 -0.3042 -3.9038
  221MOL0     H29833  -0.605   9.393   9.718  0.2707  2.5954 -0.0190
  221MOL0     H29834  -0.304   9.070   9.898  0.2809 -0.9682  1.4247
  221MOL0     H29835  -0.108   9.036   9.727 -1.2831 -1.2672  3.5488
  222MOL0     O29836   7.497   2.538   2.608 -0.7824  0.4783 -0.1943
  222MOL0     C29837   7.513   2.494   2.497 -0.7867 -0.2159 -0.4556
  222MOL0     O29838   7.425   2.429   2.424  0.3953  0.3008 -0.5760
  222MOL0     C29839   7.301   2.415   2.478  0.3737  0.2349 -0.3766
  222MOL0     C29840   7.212   2.361   2.385  0.4838 -0.1528  0.8156
  222MOL0     C29841   7.090   2.305   2.420 -0.3121 -0.2134  0.0974
  222MOL0     C29842   7.036   2.328   2.554  0.1185  0.9913 -1.0768
  222MOL0     O29843   6.909   2.297   2.585  0.0308 -0.2132 -0.1085
  222MOL0     C29844   6.849   2.195   2.506  0.7811  0.1426 -0.5205
  222MOL0     C29845   6.709   2.160   2.568  0.0973  0.4178  0.7274
  222MOL0     C29846   6.585   2.251   2.526  0.1184 -0.6116 -0.2401
  222MOL0     C29847   6.553   2.373   2.618  0.4033  0.8414  0.2802
  222MOL0     C29848   6.406   2.429   2.604  0.1984 -0.5624  0.7437
  222MOL0     C29849   6.395   2.552   2.696 -0.2926  0.2600 -0.4859
  222MOL0     C29850   6.253   2.610   2.710 -0.0400  0.1269 -1.1360
  222MOL0     C29851   6.236   2.726   2.815  0.1000 -0.2037  0.2967
  222MOL0     N29852   6.098   2.779   2.799 -0.5169  0.5438  0.4064
  222MOL0     C29853   6.048   2.880   2.729 -0.3405 -0.2548 -0.4266
  222MOL0     C29854   5.922   2.883   2.770  0.3573 -0.2151  0.0596
  222MOL0     C29855   5.816   2.953   2.693 -0.9936  0.8594  0.6429
  222MOL0     C29856   5.780   3.100   2.737  0.1184 -1.0945 -1.0486
  222MOL0     C29857   5.647   3.156   2.693 -0.2756 -1.0318  0.1885
  222MOL0     C29858   5.646   3.179   2.542  0.1935  0.1057  1.2144
  222MOL0     O29859   5.513   3.165   2.489 -0.2345 -0.2940 -0.8287
  222MOL0     C29860   5.494   3.233   2.369  1.3262 -0.7723  0.7252
  222MOL0     C29861   5.587   3.235   2.260 -0.0106  0.0882  0.0520
  222MOL0     C29862   5.562   3.294   2.134  0.2711  0.1930 -0.0731
  222MOL0     C29863   5.670   3.279   2.027 -0.3694 -0.1957 -0.3236
  222MOL0     C29864   5.433   3.358   2.118 -0.8831  1.5324 -0.8429
  222MOL0     C29865   5.394   3.435   1.992 -0.0811  0.2957  0.5084
  222MOL0     O29866   5.263   3.425   1.938  0.0087  0.2140 -0.5663
  222MOL0     C29867   5.220   3.484   1.829 -0.0983  0.0495 -0.1673
  222MOL0     C29868   5.300   3.525   1.726 -0.3226 -0.8716 -0.7025
  222MOL0     C29869   5.258   3.569   1.602  0.1650  0.1064 -1.0194
  222MOL0     C29870   5.125   3.553   1.576 -0.2755 -0.0057 -0.3644
  222MOL0     O29871   5.095   3.604   1.452 -0.6130  0.8218 -0.3353
  222MOL0     C29872   4.968   3.664   1.419  0.0765 -0.5685 -0.2791
  222MOL0     C29873   4.985   3.813   1.372  0.4723  0.0586  0.4087
  222MOL0     C29874   5.120   3.877   1.411  0.6243 -0.9072 -0.2805
  222MOL0     C29875   5.122   4.035   1.380 -0.1112  0.0298  0.0503
  222MOL0     C29876   5.023   4.115   1.469 -0.4146  0.3635 -0.4895
  222MOL0     C29877   5.025   4.265   1.454 -0.0832  0.7257  1.1562
  222MOL0     C29878   4.923   4.327   1.542  0.2881  0.2259 -0.4598
  222MOL0     C29879   4.942   4.473   1.552  0.4604  0.0107 -0.1358
  222MOL0    Cl29880   5.072   4.510   1.673 -0.3535  0.0542  0.3081
  222MOL0     C29881   5.036   3.502   1.664 -0.5208  0.9645 -0.4431
  222MOL0     C29882   5.082   3.468   1.790 -0.7863  0.2933 -1.5403
  222MOL0     O29883   5.488   3.499   1.943 -0.1648  0.7089 -0.7389
  222MOL0     C29884   5.338   3.354   2.218 -0.3062  0.3837 -0.1664
  222MOL0     C29885   5.365   3.293   2.336 -0.2485 -0.2048 -0.3911
  222MOL0     N29886   5.898   2.805   2.879 -0.2527 -0.7856 -1.1139
  222MOL0     N29887   6.011   2.741   2.886  1.1901  0.9384 -0.1081
  222MOL0     C29888   7.117   2.391   2.651 -1.0576  0.8782 -0.6602
  222MOL0     C29889   7.250   2.433   2.614 -0.2101 -0.1916 -0.2405
  222MOL0     C29890   7.645   2.519   2.438 -0.1423 -0.1297  0.4668
  222MOL0     C29891   7.747   2.584   2.523 -0.4908  0.2171  0.5305
  222MOL0     C29892   7.873   2.610   2.468 -0.3850  1.0622  0.6442
  222MOL0     C29893   7.901   2.576   2.330  0.3217 -0.1255 -0.3730
  222MOL0     O29894   8.016   2.631   2.287 -0.0954  0.4667 -0.9185
  222MOL0     C29895   8.037   2.669   2.153  0.8812  0.5214  0.0822
  222MOL0     C29896   8.075   2.542   2.073 -0.1017 -0.8945  0.2648
  222MOL0     C29897   8.210   2.482   2.114 -0.5408 -0.3314 -0.0630
  222MOL0     C29898   8.258   2.351   2.048 -0.2720 -0.5485 -0.3182
  222MOL0     C29899   8.290   2.363   1.904 -0.9419 -1.2976 -0.1929
  222MOL0     C29900   8.293   2.372   1.784 -0.8688 -0.3224  0.4834
  222MOL0     C29901   7.796   2.522   2.245 -0.3625 -0.1663  0.9671
  222MOL0     C29902   7.676   2.493   2.298  0.2405 -0.8969 -0.5549
  222MOL0     H29903   7.255   2.354   2.286  0.8052  1.7093  0.7824
  222MOL0     H29904   7.031   2.256   2.343  0.4359  0.1562 -0.7329
  222MOL0     H29905   6.843   2.208   2.398 -3.1397 -0.6178 -0.5440
  222MOL0     H29906   6.912   2.109   2.530 -1.5390 -0.4718  4.5778
  222MOL0     H29907   6.679   2.057   2.544 -0.1396  0.7653 -0.5332
  222MOL0     H29908   6.720   2.166   2.677 -0.7125 -1.5903  0.9723
  222MOL0     H29909   6.589   2.287   2.422 -2.2127 -0.8375 -0.4608
  222MOL0     H29910   6.494   2.192   2.526  0.5139 -1.2484 -0.9655
  222MOL0     H29911   6.569   2.327   2.716 -1.6544 -4.1986 -1.4093
  222MOL0     H29912   6.631   2.449   2.608 -2.2498  3.7538 -0.1549
  222MOL0     H29913   6.394   2.470   2.503 -1.7369 -1.8574  0.3829
  222MOL0     H29914   6.327   2.359   2.633 -1.4438  0.1825 -1.6320
  222MOL0     H29915   6.437   2.537   2.796  0.3175  2.7950 -0.3066
  222MOL0     H29916   6.452   2.628   2.642 -2.4798 -1.6152 -6.0739
  222MOL0     H29917   6.228   2.641   2.608  3.0434  2.9167 -1.2265
  222MOL0     H29918   6.183   2.531   2.738 -0.2598  0.6518 -0.1500
  222MOL0     H29919   6.307   2.807   2.794 -2.2810  1.7270 -0.7254
  222MOL0     H29920   6.248   2.694   2.919  3.2116  0.7037  0.3371
  222MOL0     H29921   6.103   2.936   2.654 -0.0120  0.3239  0.2326
  222MOL0     H29922   5.846   2.950   2.588 -0.6123 -1.3976  0.7512
  222MOL0     H29923   5.721   2.898   2.693  0.8423 -2.6363  0.0847
  222MOL0     H29924   5.868   3.159   2.710  1.9514 -3.5942 -0.8562
  222MOL0     H29925   5.789   3.100   2.846 -0.9136 -1.3710 -0.9570
  222MOL0     H29926   5.629   3.253   2.740  2.6551 -0.8180  1.0489
  222MOL0     H29927   5.564   3.096   2.732 -1.3547  1.2001  1.5267
  222MOL0     H29928   5.708   3.099   2.500  0.6547  1.9919 -2.0827
  222MOL0     H29929   5.688   3.278   2.518 -0.9690  0.9308  2.4601
  222MOL0     H29930   5.690   3.200   2.265 -0.3718 -0.9317  0.9287
  222MOL0     H29931   5.631   3.238   1.933  0.5671  1.4211 -1.4863
  222MOL0     H29932   5.730   3.370   2.016  2.2954 -1.9149 -1.1016
  222MOL0     H29933   5.745   3.211   2.068  0.9437  0.5024 -1.4534
  222MOL0     H29934   5.407   3.505   1.727 -0.7067 -3.1668  0.3317
  222MOL0     H29935   5.334   3.614   1.540  1.5277  0.3738  0.7530
  222MOL0     H29936   4.935   3.614   1.328 -3.1043  0.0969  0.3680
  222MOL0     H29937   4.906   3.650   1.508  1.9176  0.1229  1.1927
  222MOL0     H29938   4.977   3.809   1.263  1.3265 -2.6626  0.3683
  222MOL0     H29939   4.901   3.867   1.415 -1.2847 -1.5304 -0.8812
  222MOL0     H29940   5.202   3.833   1.353  2.8897 -0.9206  2.6475
  222MOL0     H29941   5.151   3.856   1.514 -1.4902 -3.1400 -0.0162
  222MOL0     H29942   5.221   4.073   1.408  0.9319 -1.4111 -1.5145
  222MOL0     H29943   5.108   4.046   1.272 -1.6577 -1.6106  0.0508
  222MOL0     H29944   5.049   4.091   1.573 -2.4583 -1.8014 -0.3838
  222MOL0     H29945   4.920   4.079   1.456  0.2092 -1.6304 -0.3079
  222MOL0     H29946   5.126   4.297   1.480 -0.4433  0.6263  2.8256
  222MOL0     H29947   4.998   4.294   1.353  1.4164  1.3779  0.9208
  222MOL0     H29948   4.908   4.276   1.638 -3.5586  0.4270 -0.7882
  222MOL0     H29949   4.824   4.321   1.496  0.2326  0.3979 -0.3633
  222MOL0     H29950   4.855   4.524   1.593  0.5155  0.3557 -0.4426
  222MOL0     H29951   4.956   4.530   1.460  0.7086  2.6004  1.3771
  222MOL0     H29952   4.931   3.501   1.637 -0.6735  0.7634  0.1324
  222MOL0     H29953   5.022   3.426   1.869 -0.2264  0.8507 -0.8012
  222MOL0     H29954   5.243   3.407   2.206  0.4704  2.3859  1.7672
  222MOL0     H29955   5.288   3.301   2.412 -0.2260  0.3823 -0.4241
  222MOL0     H29956   7.076   2.394   2.751 -2.2748 -2.0785 -0.9800
  222MOL0     H29957   7.309   2.458   2.702  0.3141  1.7575 -1.0821
  222MOL0     H29958   7.728   2.598   2.629 -2.2319  0.2281  0.2486
  222MOL0     H29959   7.959   2.637   2.528  1.2332  1.6906 -1.7855
  222MOL0     H29960   7.945   2.710   2.110 -0.2136 -1.1807  0.6989
  222MOL0     H29961   8.114   2.747   2.151  1.4673 -0.0010  1.3466
  222MOL0     H29962   8.080   2.579   1.970 -0.1036 -0.8400  0.2839
  222MOL0     H29963   7.997   2.467   2.083 -0.6180 -0.5374 -0.9106
  222MOL0     H29964   8.217   2.461   2.222 -1.1786  0.8590  0.2274
  222MOL0     H29965   8.291   2.552   2.095 -0.0624 -1.0078 -0.5551
  222MOL0     H29966   8.177   2.278   2.051  0.7719 -1.7519 -0.4120
  222MOL0     H29967   8.350   2.320   2.098 -0.3946  0.4787  0.5797
  222MOL0     H29968   8.297   2.402   1.682  0.0498 -2.7198 -0.2352
  222MOL0     H29969   7.811   2.512   2.138 -1.7670  1.8194  0.5171
  222MOL0     H29970   7.600   2.440   2.242 -0.7317  1.8282 -1.9520
  223MOL0     O29971   6.124   7.722   5.703 -0.4065  0.3662 -0.1231
  223MOL0     C29972   6.117   7.828   5.636  0.0904  0.0199  0.1091
  223MOL0     O29973   6.215   7.871   5.548 -0.6960 -0.3973  0.5154
  223MOL0     C29974   6.348   7.806   5.542 -0.0853  0.5390 -0.3817
  223MOL0     C29975   6.456   7.889   5.516 -0.3226  0.9557 -0.5567
  223MOL0     C29976   6.590   7.844   5.503  0.3045 -0.1584  0.7210
  223MOL0     C29977   6.617   7.706   5.502 -0.5089  0.2576  0.2221
  223MOL0     O29978   6.737   7.648   5.468  0.2734 -0.1665 -0.3909
  223MOL0     C29979   6.860   7.719   5.443  0.2699  0.5010 -0.3406
  223MOL0     C29980   6.973   7.623   5.470  0.0969  1.2589 -0.2053
  223MOL0     C29981   6.952   7.483   5.402  0.3231 -0.0250  0.2012
  223MOL0     C29982   7.059   7.397   5.463  0.4711  0.7923 -1.1708
  223MOL0     C29983   7.035   7.251   5.417  0.1404 -0.6224  0.8076
  223MOL0     C29984   7.094   7.227   5.269 -0.0461  0.4088  0.5360
  223MOL0     C29985   7.045   7.094   5.212 -0.6263  1.4559 -0.4542
  223MOL0     C29986   6.898   7.108   5.151 -0.1497  0.1490 -0.0519
  223MOL0     N29987   6.838   6.988   5.095 -0.2917 -0.0892  0.0771
  223MOL0     C29988   6.871   6.925   4.974 -0.2603 -0.1553 -0.3786
  223MOL0     C29989   6.771   6.842   4.955 -0.5627 -0.4943  0.8013
  223MOL0     C29990   6.762   6.753   4.837  0.3172 -0.2359 -0.8959
  223MOL0     C29991   6.894   6.707   4.776  0.3501  0.2570 -0.1086
  223MOL0     C29992   6.878   6.591   4.679 -0.3760  0.6185  1.2364
  223MOL0     C29993   6.899   6.446   4.731  0.3772 -0.3212  0.6144
  223MOL0     O29994   6.831   6.345   4.653  1.1979  0.6134  0.3321
  223MOL0     C29995   6.903   6.234   4.604  0.2360 -0.6694 -0.0806
  223MOL0     C29996   6.836   6.113   4.612 -0.2277 -0.5783  0.2504
  223MOL0     C29997   6.896   5.989   4.567  0.8270  1.2626  0.1819
  223MOL0     C29998   6.792   5.880   4.547  0.0051 -0.2077  0.6100
  223MOL0     C29999   7.026   5.992   4.508  1.0056  0.0167 -0.3532
  223MOL0     C30000   7.099   5.877   4.448 -0.7398  0.8658  0.4869
  223MOL0     O30001   7.237   5.880   4.452 -0.1912 -0.5470  0.3424
  223MOL0     C30002   7.314   5.804   4.357 -0.1884 -0.8186 -0.2058
  223MOL0     C30003   7.291   5.800   4.221  0.6331  0.4068 -0.0576
  223MOL0     C30004   7.376   5.718   4.142 -0.3532  0.1788 -0.3045
  223MOL0     C30005   7.488   5.642   4.196 -0.7417  0.5751  0.7255
  223MOL0     O30006   7.556   5.545   4.123 -0.6414  0.1543  0.6716
  223MOL0     C30007   7.479   5.440   4.067  0.5246  0.6901  0.6504
  223MOL0     C30008   7.581   5.332   4.028 -0.4639  0.5175 -0.8212
  223MOL0     C30009   7.675   5.270   4.141  0.5858  0.7502 -0.6292
  223MOL0     C30010   7.769   5.160   4.094 -0.0333 -0.1402  0.3040
  223MOL0     C30011   7.830   5.096   4.213  0.1229  0.5470  0.2825
  223MOL0     C30012   7.904   4.970   4.178 -0.1414  0.1088  1.5849
  223MOL0     C30013   7.915   4.871   4.297  0.3491 -0.6415  0.3906
  223MOL0     C30014   7.789   4.810   4.352  0.4658 -1.0322  0.8217
  223MOL0    Cl30015   7.717   4.712   4.219 -0.0740 -0.0393  0.4520
  223MOL0     C30016   7.510   5.650   4.335  0.6145 -0.3704 -0.4158
  223MOL0     C30017   7.415   5.722   4.408  0.6114 -0.5991  1.1917
  223MOL0     O30018   7.030   5.771   4.414 -0.0523 -0.2100 -0.1466
  223MOL0     C30019   7.098   6.120   4.514 -0.4170  0.3548 -0.4103
  223MOL0     C30020   7.028   6.236   4.552 -0.4062  0.3134  0.7380
  223MOL0     N30021   6.688   6.839   5.067  0.1088  0.3709 -0.7409
  223MOL0     N30022   6.735   6.927   5.149  0.1488 -0.3386  0.1635
  223MOL0     C30023   6.506   7.614   5.521 -0.0428 -0.1032 -0.5592
  223MOL0     C30024   6.377   7.666   5.555 -0.9167 -0.6797  0.2013
  223MOL0     C30025   5.996   7.910   5.648  0.2193 -0.3076  0.3545
  223MOL0     C30026   5.976   8.014   5.557 -0.8865 -0.1071 -0.2903
  223MOL0     C30027   5.866   8.099   5.562  0.2514 -0.2609 -0.6178
  223MOL0     C30028   5.765   8.074   5.655  0.6559 -0.5486  0.2852
  223MOL0     O30029   5.652   8.156   5.667  1.0201 -0.7700  0.2617
  223MOL0     C30030   5.591   8.224   5.557 -0.3082 -0.6081 -0.3841
  223MOL0     C30031   5.608   8.378   5.575  0.5768 -0.6565  0.9383
  223MOL0     C30032   5.749   8.438   5.591  0.3473  0.2799  1.2139
  223MOL0     C30033   5.779   8.544   5.483 -0.2253  0.1212 -0.2229
  223MOL0     C30034   5.776   8.495   5.346 -0.1689 -0.2522 -0.0405
  223MOL0     C30035   5.763   8.456   5.235 -1.4343  1.4169 -0.1278
  223MOL0     C30036   5.783   7.974   5.750  0.2257 -0.0421 -0.7505
  223MOL0     C30037   5.898   7.896   5.745 -0.1314  0.9418  0.2835
  223MOL0     H30038   6.443   7.997   5.514  1.7284  1.2465 -0.2571
  223MOL0     H30039   6.671   7.913   5.484 -2.1866  1.7726 -5.6616
  223MOL0     H30040   6.862   7.753   5.339 -2.3337  4.0828  0.5720
  223MOL0     H30041   6.883   7.803   5.510  3.3299  1.2389 -2.1363
  223MOL0     H30042   7.066   7.668   5.433  0.9052 -1.2432 -1.4298
  223MOL0     H30043   6.982   7.606   5.578 -0.6194  2.2981  0.0340
  223MOL0     H30044   6.849   7.451   5.419 -0.7688  1.7326 -2.4845
  223MOL0     H30045   6.963   7.486   5.294 -1.4788  3.0724 -0.0191
  223MOL0     H30046   7.158   7.420   5.424  1.0551 -1.3269 -1.0573
  223MOL0     H30047   7.050   7.403   5.572  1.7738 -0.4912 -0.9670
  223MOL0     H30048   7.088   7.185   5.487  1.9154 -0.8792 -0.7069
  223MOL0     H30049   6.931   7.219   5.431  0.2930 -0.8093  1.5629
  223MOL0     H30050   7.067   7.297   5.190 -0.8719 -0.5649 -0.0768
  223MOL0     H30051   7.203   7.239   5.264 -0.0774  0.2216 -2.3513
  223MOL0     H30052   7.112   7.063   5.132  0.0672  0.6070  0.4310
  223MOL0     H30053   7.047   7.015   5.288  0.6093  2.0257  0.1301
  223MOL0     H30054   6.883   7.189   5.079  0.8591  1.6418  1.3425
  223MOL0     H30055   6.840   7.144   5.236  1.1887 -3.4139  2.6300
  223MOL0     H30056   6.947   6.939   4.898 -0.8583 -2.7582 -1.5611
  223MOL0     H30057   6.711   6.662   4.869 -1.1085  0.8577  0.0466
  223MOL0     H30058   6.705   6.806   4.760 -2.5087  0.8224  1.7371
  223MOL0     H30059   6.948   6.662   4.860 -2.4229 -2.1867  0.5398
  223MOL0     H30060   6.939   6.789   4.720  0.0752  0.5352  0.0737
  223MOL0     H30061   6.950   6.609   4.598 -0.9805 -2.4030 -0.1348
  223MOL0     H30062   6.786   6.584   4.620  0.6168 -0.8813 -0.2386
  223MOL0     H30063   6.857   6.440   4.832 -2.2390  0.6221 -0.3404
  223MOL0     H30064   7.005   6.420   4.735  0.5883  0.2490 -0.7483
  223MOL0     H30065   6.743   6.116   4.668  0.1793  2.2060  0.9124
  223MOL0     H30066   6.759   5.880   4.442  0.3926 -0.0411  0.4878
  223MOL0     H30067   6.825   5.777   4.561 -0.5151 -0.4809 -0.1075
  223MOL0     H30068   6.705   5.889   4.613 -1.1810  0.3891 -0.9574
  223MOL0     H30069   7.206   5.849   4.175  0.1221 -0.7588 -0.3741
  223MOL0     H30070   7.363   5.698   4.036  0.9360 -1.7452 -0.1572
  223MOL0     H30071   7.401   5.396   4.129  0.3856 -3.2792 -2.0383
  223MOL0     H30072   7.432   5.475   3.975 -0.7730  0.4367  1.1986
  223MOL0     H30073   7.526   5.249   3.982  1.6173 -0.9329 -0.8282
  223MOL0     H30074   7.647   5.366   3.947 -2.0176  1.0398 -1.9170
  223MOL0     H30075   7.597   5.227   4.203  1.5085 -0.0551  0.0044
  223MOL0     H30076   7.725   5.347   4.200 -0.3149 -0.2433  1.5339
  223MOL0     H30077   7.706   5.091   4.037 -0.3064  0.6384 -0.3683
  223MOL0     H30078   7.846   5.199   4.027 -0.4959  0.5860  0.1744
  223MOL0     H30079   7.750   5.060   4.279 -1.5244 -0.9994 -2.3773
  223MOL0     H30080   7.886   5.170   4.271 -0.5543 -1.0960  3.2343
  223MOL0     H30081   7.851   4.924   4.094  1.7932  0.4673  0.1021
  223MOL0     H30082   8.003   4.992   4.138 -0.6254 -1.1319 -0.4467
  223MOL0     H30083   7.960   4.928   4.379 -0.4801  0.5061  0.0710
  223MOL0     H30084   7.985   4.789   4.278 -1.2729 -2.8873  3.2521
  223MOL0     H30085   7.713   4.884   4.380  0.0867 -1.2746  0.4333
  223MOL0     H30086   7.822   4.750   4.438 -0.6153 -1.6967  0.7964
  223MOL0     H30087   7.574   5.569   4.368  0.8788 -0.3287 -0.8229
  223MOL0     H30088   7.424   5.697   4.513 -0.1668  1.2507  1.7340
  223MOL0     H30089   7.198   6.131   4.473 -0.3833 -2.0794 -1.1940
  223MOL0     H30090   7.090   6.325   4.554 -1.1083  0.8097  2.5143
  223MOL0     H30091   6.527   7.509   5.505 -1.5270 -0.2706 -1.5293
  223MOL0     H30092   6.313   7.587   5.592 -0.0090 -1.1663  0.7816
  223MOL0     H30093   6.048   8.032   5.478  0.8521  1.5118  1.5333
  223MOL0     H30094   5.847   8.175   5.487  2.8640 -0.8349 -2.0097
  223MOL0     H30095   5.637   8.209   5.459  1.6858 -0.7210  0.5094
  223MOL0     H30096   5.486   8.192   5.557 -0.0249 -2.4776  4.3333
  223MOL0     H30097   5.551   8.396   5.667  0.9664 -2.6190  1.6201
  223MOL0     H30098   5.555   8.430   5.494  1.9483 -0.9729 -0.2022
  223MOL0     H30099   5.827   8.363   5.578  0.7771  1.0484 -1.3807
  223MOL0     H30100   5.770   8.484   5.688  0.4752  4.2363 -0.4661
  223MOL0     H30101   5.875   8.594   5.502  0.2048 -1.0491  0.8501
  223MOL0     H30102   5.704   8.622   5.497 -0.8068  0.6712 -4.8830
  223MOL0     H30103   5.766   8.418   5.135  0.1067 -1.3151  0.8400
  223MOL0     H30104   5.712   7.950   5.829 -0.0836 -1.4508 -1.4276
  223MOL0     H30105   5.908   7.809   5.809 -4.2817  0.2921  0.3533
  224MOL0     O30106   4.908   6.520   1.677  0.4880  0.2783  0.5217
  224MOL0     C30107   4.896   6.401   1.657  0.4306  0.0477  0.6130
  224MOL0     O30108   4.790   6.328   1.681  0.4707  0.1859  0.6057
  224MOL0     C30109   4.693   6.382   1.757  0.4936  0.4279  0.0134
  224MOL0     C30110   4.677   6.336   1.893  0.7064  0.1654 -0.1918
  224MOL0     C30111   4.566   6.395   1.962 -0.6953  1.0380  0.4513
  224MOL0     C30112   4.475   6.486   1.897  0.1790 -0.0530 -0.1722
  224MOL0     O30113   4.370   6.550   1.969  0.3604  0.6306 -0.2434
  224MOL0     C30114   4.254   6.589   1.885  0.0479  0.5134 -0.8758
  224MOL0     C30115   4.135   6.597   1.987 -0.8377  0.6295  0.1594
  224MOL0     C30116   4.004   6.650   1.932  0.9421  0.2685 -0.2859
  224MOL0     C30117   3.900   6.659   2.036 -0.1085  0.1222  0.0351
  224MOL0     C30118   3.756   6.660   1.982 -0.7037 -0.4960  0.0507
  224MOL0     C30119   3.654   6.619   2.097  0.1654 -0.6156  0.2975
  224MOL0     C30120   3.506   6.662   2.079  1.1870 -0.8934 -1.2472
  224MOL0     C30121   3.438   6.580   2.194  0.9053  0.0681  0.0382
  224MOL0     N30122   3.293   6.619   2.186 -0.4528  0.6285 -0.1309
  224MOL0     C30123   3.205   6.564   2.091 -0.8868  0.1944 -0.0275
  224MOL0     C30124   3.077   6.593   2.124  0.4610  0.4527 -0.0440
  224MOL0     C30125   2.962   6.545   2.045  0.8680  0.3200 -0.2536
  224MOL0     C30126   2.878   6.441   2.124 -0.6721 -0.3161  0.1566
  224MOL0     C30127   2.738   6.439   2.075  0.3288  0.2727  0.1449
  224MOL0     C30128   2.665   6.312   2.110 -0.4600 -1.1021 -0.6143
  224MOL0     O30129   2.680   6.212   2.000  0.2371 -0.4655  0.7071
  224MOL0     C30130   2.582   6.185   1.908  1.1941 -0.5300  0.2277
  224MOL0     C30131   2.557   6.058   1.867 -0.0558  0.0752  1.2928
  224MOL0     C30132   2.441   6.026   1.778 -0.5384 -0.7695  0.1040
  224MOL0     C30133   2.429   5.885   1.733 -0.1284 -0.6072 -0.3318
  224MOL0     C30134   2.360   6.138   1.747 -0.0139 -1.1502  0.3612
  224MOL0     C30135   2.223   6.133   1.677  0.7611 -0.5248  0.5936
  224MOL0     O30136   2.142   6.241   1.661  0.1492  0.7495  0.7759
  224MOL0     C30137   2.005   6.218   1.640 -0.0857  0.1987 -0.6212
  224MOL0     C30138   1.934   6.146   1.736 -0.6944  0.1288 -0.2437
  224MOL0     C30139   1.798   6.123   1.719 -0.7608 -0.1691 -0.4164
  224MOL0     C30140   1.726   6.199   1.626 -0.4612 -0.4370  0.2965
  224MOL0     O30141   1.593   6.189   1.640  0.4515 -0.4995  0.4518
  224MOL0     C30142   1.524   6.162   1.518  0.7447 -0.0111  0.5592
  224MOL0     C30143   1.376   6.156   1.549 -0.9644 -0.2695  0.1107
  224MOL0     C30144   1.315   6.074   1.438 -0.4816 -0.5467 -0.3152
  224MOL0     C30145   1.160   6.098   1.428 -0.4286 -0.1046  0.5967
  224MOL0     C30146   1.113   6.239   1.407 -0.0268  1.1581  0.1574
  224MOL0     C30147   0.957   6.245   1.380 -0.3474 -0.3651  0.3548
  224MOL0     C30148   0.906   6.394   1.378  0.9423  0.1440  0.2367
  224MOL0     C30149   0.877   6.448   1.526  0.1775  0.3988  0.3496
  224MOL0    Cl30150   0.873   6.622   1.535 -0.3801 -0.5033  0.0427
  224MOL0     C30151   1.789   6.267   1.526  0.1430 -0.6414  0.0620
  224MOL0     C30152   1.932   6.274   1.541  0.3815 -1.4643 -0.0367
  224MOL0     O30153   2.184   6.022   1.651 -0.5169  0.5068  0.6292
  224MOL0     C30154   2.401   6.265   1.788 -0.9904 -0.1594 -0.7093
  224MOL0     C30155   2.503   6.290   1.880  0.3694  0.3796  0.6861
  224MOL0     N30156   3.085   6.674   2.235  0.1665 -0.0862 -0.1460
  224MOL0     N30157   3.218   6.698   2.264  0.9361  0.4978  0.2298
  224MOL0     C30158   4.502   6.526   1.765  0.4203 -0.2112 -0.2358
  224MOL0     C30159   4.604   6.469   1.694  0.6085 -0.2788  0.2531
  224MOL0     C30160   5.016   6.345   1.583 -0.0286 -0.9926  0.6432
  224MOL0     C30161   5.139   6.415   1.603  0.1497  0.2502 -0.3258
  224MOL0     C30162   5.250   6.364   1.546 -0.0444  0.2495  0.3957
  224MOL0     C30163   5.256   6.242   1.472 -1.1364 -0.0772  0.1676
  224MOL0     O30164   5.371   6.178   1.421 -0.0840  0.0664  0.6892
  224MOL0     C30165   5.489   6.260   1.413 -0.4202  0.0730  0.3133
  224MOL0     C30166   5.611   6.202   1.343  0.2548 -0.3575  0.3159
  224MOL0     C30167   5.715   6.302   1.305 -0.2984 -1.0602 -0.0433
  224MOL0     C30168   5.822   6.259   1.206  0.3271  0.5538 -0.4854
  224MOL0     C30169   5.903   6.162   1.270  0.8247  0.2056 -0.4569
  224MOL0     C30170   5.974   6.078   1.302 -0.8216  1.2294 -0.3166
  224MOL0     C30171   5.132   6.178   1.448  0.9734  0.2614  0.1289
  224MOL0     C30172   5.007   6.235   1.500 -0.1464 -0.0375  0.2406
  224MOL0     H30173   4.754   6.278   1.943 -0.9301 -1.7228  0.2601
  224MOL0     H30174   4.562   6.382   2.070 -0.9957 -2.2239  0.1334
  224MOL0     H30175   4.259   6.692   1.848  0.2589  0.1587 -1.8635
  224MOL0     H30176   4.239   6.520   1.802  0.4877 -0.7332  0.0449
  224MOL0     H30177   4.123   6.494   2.022  1.7562  0.8151  1.8434
  224MOL0     H30178   4.180   6.655   2.068 -0.8631  0.3751  0.3558
  224MOL0     H30179   4.000   6.748   1.883 -3.9088 -1.0888 -3.3263
  224MOL0     H30180   3.966   6.584   1.853 -1.4869  2.0540 -0.7277
  224MOL0     H30181   3.920   6.572   2.099 -3.0062 -0.0178  0.9165
  224MOL0     H30182   3.913   6.742   2.107 -0.1329 -1.6731  2.2666
  224MOL0     H30183   3.745   6.759   1.938  0.1818 -1.4031 -2.4275
  224MOL0     H30184   3.740   6.583   1.905  2.0506 -0.3130 -0.8249
  224MOL0     H30185   3.661   6.511   2.114 -0.9031 -0.6406  0.6526
  224MOL0     H30186   3.690   6.653   2.194 -0.0980 -0.4316  0.3313
  224MOL0     H30187   3.492   6.769   2.094 -2.7527 -1.1723 -1.8529
  224MOL0     H30188   3.463   6.644   1.980 -0.8752  0.1051 -0.5796
  224MOL0     H30189   3.482   6.612   2.288  2.6686  1.2783 -1.1470
  224MOL0     H30190   3.447   6.471   2.188 -0.6895 -0.1151  0.6313
  224MOL0     H30191   3.234   6.497   2.011  1.2425 -0.5053  1.2446
  224MOL0     H30192   2.892   6.626   2.022  0.2159 -0.7625 -2.3391
  224MOL0     H30193   2.997   6.498   1.953  0.3093 -2.9571  1.0511
  224MOL0     H30194   2.864   6.480   2.226 -1.5662  1.7665 -0.7089
  224MOL0     H30195   2.922   6.341   2.126  0.6078  0.2415  0.6990
  224MOL0     H30196   2.745   6.445   1.966  0.3084  0.3571  0.1479
  224MOL0     H30197   2.688   6.522   2.126 -1.1284  0.1911 -1.0588
  224MOL0     H30198   2.559   6.328   2.130 -0.6829 -1.4476 -1.4822
  224MOL0     H30199   2.707   6.275   2.204 -1.6767  2.0548  1.3156
  224MOL0     H30200   2.633   5.985   1.890  0.1757 -0.0925  0.0426
  224MOL0     H30201   2.466   5.868   1.632  0.8946  2.5875 -0.5869
  224MOL0     H30202   2.479   5.814   1.800 -2.0153 -1.9590 -0.2566
  224MOL0     H30203   2.327   5.846   1.747 -0.7445  0.9055 -0.3620
  224MOL0     H30204   1.993   6.090   1.808 -2.1312 -1.8205 -0.4967
  224MOL0     H30205   1.743   6.053   1.781  0.7017 -0.1518  0.9566
  224MOL0     H30206   1.534   6.245   1.447  1.1642 -0.4493  0.1000
  224MOL0     H30207   1.562   6.072   1.469  1.2166  2.6301 -4.6885
  224MOL0     H30208   1.372   6.111   1.649  3.5103 -3.6783 -0.9075
  224MOL0     H30209   1.338   6.258   1.550 -3.9016 -1.2263  2.0788
  224MOL0     H30210   1.332   5.967   1.453  0.1022 -0.5443 -0.9038
  224MOL0     H30211   1.356   6.091   1.338 -1.0979  1.6324 -0.2358
  224MOL0     H30212   1.131   6.026   1.351 -0.0109 -1.9124  2.0530
  224MOL0     H30213   1.128   6.062   1.526 -0.2808 -0.5858  0.4748
  224MOL0     H30214   1.172   6.267   1.319  2.0707  0.2964  1.2100
  224MOL0     H30215   1.149   6.304   1.488  0.9055  2.0458 -0.9373
  224MOL0     H30216   0.946   6.199   1.281 -0.5906 -0.3283  0.3635
  224MOL0     H30217   0.895   6.184   1.445 -0.6312  1.2877  1.7009
  224MOL0     H30218   0.819   6.403   1.313  1.6559 -1.1064 -0.9636
  224MOL0     H30219   0.974   6.454   1.316 -1.9489  2.0796 -1.2892
  224MOL0     H30220   0.953   6.415   1.597  3.8965  2.7461 -2.2083
  224MOL0     H30221   0.775   6.415   1.546  0.8046 -1.7289  0.3106
  224MOL0     H30222   1.733   6.324   1.453 -0.3221 -1.3743 -0.1669
  224MOL0     H30223   2.000   6.308   1.464  0.9364 -4.3952 -1.0042
  224MOL0     H30224   2.338   6.352   1.772 -1.9357 -1.0729 -2.1868
  224MOL0     H30225   2.533   6.392   1.900  1.5008  0.4812 -1.2524
  224MOL0     H30226   4.439   6.606   1.729  1.7817  0.3433 -1.4601
  224MOL0     H30227   4.628   6.491   1.590  3.6384  0.6309  1.0486
  224MOL0     H30228   5.145   6.498   1.673 -1.5281 -0.4098  0.6282
  224MOL0     H30229   5.347   6.406   1.573  0.1498 -1.3775  2.4830
  224MOL0     H30230   5.458   6.349   1.357 -1.4690 -0.1000  0.5923
  224MOL0     H30231   5.519   6.273   1.517  0.2785 -0.7480  0.2343
  224MOL0     H30232   5.575   6.141   1.259 -2.6230 -1.7469  2.3839
  224MOL0     H30233   5.656   6.129   1.411 -0.1371 -0.8124  0.1001
  224MOL0     H30234   5.771   6.346   1.388  0.8246 -1.6318 -0.4793
  224MOL0     H30235   5.668   6.390   1.260  0.5108 -0.9467 -0.6723
  224MOL0     H30236   5.883   6.348   1.188  0.5506  0.6506  0.6731
  224MOL0     H30237   5.793   6.218   1.109  0.6210  3.3950 -1.8813
  224MOL0     H30238   6.054   6.010   1.325 -1.4884  0.6034  0.1931
  224MOL0     H30239   5.135   6.086   1.390  0.8238 -2.1396  3.6447
  224MOL0     H30240   4.916   6.181   1.475 -0.4730  0.6201  0.0115
  225MOL0     O30241   1.558   5.148   8.818 -0.3788 -0.3023 -0.3920
  225MOL0     C30242   1.541   5.029   8.845 -0.8927  0.4758  0.1893
  225MOL0     O30243   1.460   4.939   8.771 -1.0246 -0.3630  0.4695
  225MOL0     C30244   1.354   4.978   8.704 -0.2130  0.0811 -1.4036
  225MOL0     C30245   1.332   4.923   8.579 -1.0436 -0.0709  0.5703
  225MOL0     C30246   1.232   4.981   8.506 -0.0937 -0.6071 -0.8211
  225MOL0     C30247   1.150   5.087   8.560 -0.3468 -0.5182 -0.2084
  225MOL0     O30248   1.046   5.128   8.482  0.2871 -0.3625 -0.4320
  225MOL0     C30249   0.920   5.136   8.545  0.6663 -0.1328 -0.2928
  225MOL0     C30250   0.815   5.069   8.462  1.5278  0.3863 -0.1197
  225MOL0     C30251   0.677   5.070   8.516 -0.3264  0.3502 -0.5285
  225MOL0     C30252   0.579   5.012   8.408  0.1607 -0.0087  0.4549
  225MOL0     C30253   0.447   5.074   8.446 -0.4712 -0.5823 -0.5979
  225MOL0     C30254   0.319   5.030   8.369 -0.0921  1.0349 -0.2641
  225MOL0     C30255   0.182   5.085   8.417  0.5337 -0.4736  0.9726
  225MOL0     C30256   0.170   5.236   8.408 -0.6949  0.3776  0.6122
  225MOL0     N30257   0.045   5.295   8.447  0.1846 -0.6605  0.5923
  225MOL0     C30258  -0.061   5.275   8.372  0.2948  0.9715 -0.0477
  225MOL0     C30259  -0.160   5.335   8.440 -0.1406  0.2439  0.2045
  225MOL0     C30260  -0.307   5.336   8.395 -0.0789 -0.2823  0.3627
  225MOL0     C30261  -0.392   5.334   8.522  0.5217 -0.6040 -0.5306
  225MOL0     C30262  -0.535   5.292   8.491 -0.9784 -0.3293 -0.1169
  225MOL0     C30263  -0.617   5.285   8.620  0.6173  0.1905 -0.5168
  225MOL0     O30264  -0.754   5.285   8.565 -0.2335  0.3272  0.0066
  225MOL0     C30265  -0.839   5.178   8.595 -0.1954 -0.8552 -0.1397
  225MOL0     C30266  -0.802   5.055   8.648  0.3043  0.1773 -0.5965
  225MOL0     C30267  -0.895   4.958   8.686  0.4011  0.5829  0.4475
  225MOL0     C30268  -0.845   4.816   8.722  0.1804  0.0779 -0.4063
  225MOL0     C30269  -1.031   4.997   8.686  0.1912 -0.6730  0.6091
  225MOL0     C30270  -1.141   4.916   8.730  0.7886  0.8217 -0.2347
  225MOL0     O30271  -1.272   4.952   8.708 -0.5638 -0.1482 -0.0313
  225MOL0     C30272  -1.356   4.860   8.757 -0.7172 -0.3807  0.7029
  225MOL0     C30273  -1.377   4.735   8.685 -0.7227 -0.3805  0.6970
  225MOL0     C30274  -1.471   4.649   8.738 -0.0114  0.6774  0.2222
  225MOL0     C30275  -1.559   4.690   8.839  0.4911  0.5829  0.4482
  225MOL0     O30276  -1.652   4.596   8.881 -0.3892  0.0431 -0.8995
  225MOL0     C30277  -1.722   4.612   9.001 -0.0822  0.2704  0.4081
  225MOL0     C30278  -1.815   4.486   9.006  0.4186  0.1704 -0.1302
  225MOL0     C30279  -1.887   4.477   9.140 -0.7139  0.4072 -0.2562
  225MOL0     C30280  -2.026   4.412   9.140 -0.6925 -0.1857 -0.3485
  225MOL0     C30281  -2.085   4.365   9.279 -0.3036 -0.6193  0.2937
  225MOL0     C30282  -2.197   4.273   9.261  0.2224  0.2437 -0.5077
  225MOL0     C30283  -2.241   4.222   9.402 -0.0065 -0.1597  0.8279
  225MOL0     C30284  -2.355   4.118   9.405  0.2937 -0.8534  0.0739
  225MOL0    Cl30285  -2.509   4.201   9.444  0.5496 -0.0813  0.4907
  225MOL0     C30286  -1.546   4.810   8.899 -0.3629  0.2351 -0.2773
  225MOL0     C30287  -1.439   4.898   8.863 -0.0628  0.9166 -1.0834
  225MOL0     O30288  -1.116   4.823   8.802  0.6857  0.8577  0.0275
  225MOL0     C30289  -1.065   5.120   8.632  0.1758  0.7339  1.2495
  225MOL0     C30290  -0.971   5.209   8.585 -0.0211 -0.6212 -0.0643
  225MOL0     N30291  -0.108   5.387   8.557 -0.1029  0.5773 -1.0943
  225MOL0     N30292   0.015   5.364   8.559  0.2775 -0.9754 -0.0087
  225MOL0     C30293   1.162   5.126   8.699  0.0184  0.4181  1.2864
  225MOL0     C30294   1.270   5.071   8.767  0.4810 -0.3142  0.2471
  225MOL0     C30295   1.635   4.953   8.938  0.3346 -0.5252  0.0720
  225MOL0     C30296   1.652   4.816   8.939 -0.2484 -0.8907  0.6243
  225MOL0     C30297   1.743   4.753   9.029 -0.5152  0.6109 -0.0563
  225MOL0     C30298   1.824   4.831   9.117 -0.2071  0.7771 -0.0058
  225MOL0     O30299   1.910   4.778   9.220  0.4840 -0.6870 -0.2112
  225MOL0     C30300   1.925   4.641   9.242 -0.7837  0.2475 -0.2082
  225MOL0     C30301   1.999   4.624   9.369 -0.0418  0.0751 -0.2612
  225MOL0     C30302   1.987   4.476   9.421 -0.5123 -0.3107  0.8734
  225MOL0     C30303   2.099   4.449   9.525  0.1665  0.0240  0.5639
  225MOL0     C30304   2.083   4.535   9.648  0.2925  0.1860  0.2813
  225MOL0     C30305   2.072   4.575   9.766  0.8958 -0.9973 -1.1671
  225MOL0     C30306   1.806   4.966   9.111 -0.3724 -0.1646  0.1966
  225MOL0     C30307   1.709   5.023   9.027  0.1473  0.1418  0.3787
  225MOL0     H30308   1.410   4.856   8.545 -2.5806 -2.3040  1.1382
  225MOL0     H30309   1.218   4.931   8.411  2.9402 -1.0572 -1.1079
  225MOL0     H30310   0.916   5.080   8.639 -1.5053  0.0129 -0.2576
  225MOL0     H30311   0.891   5.237   8.576 -0.9559 -1.5046  3.2670
  225MOL0     H30312   0.811   5.116   8.363  0.3158  2.2721  0.7577
  225MOL0     H30313   0.856   4.967   8.455  0.0023 -0.4342  1.8194
  225MOL0     H30314   0.667   5.014   8.610 -1.6926  0.7269 -0.4287
  225MOL0     H30315   0.647   5.171   8.544 -1.5308 -0.2076  0.3079
  225MOL0     H30316   0.610   5.038   8.306 -0.6072 -3.0962 -0.6656
  225MOL0     H30317   0.589   4.903   8.409 -0.5336 -0.0933 -0.4170
  225MOL0     H30318   0.434   5.057   8.554 -0.2622  0.1936 -0.4458
  225MOL0     H30319   0.458   5.182   8.439  1.1970 -0.6379  0.6089
  225MOL0     H30320   0.330   5.047   8.261  0.2280  1.9410 -0.0973
  225MOL0     H30321   0.317   4.921   8.378  1.4129  0.8097 -1.9868
  225MOL0     H30322   0.104   5.030   8.365 -0.5775  0.0003  2.0945
  225MOL0     H30323   0.157   5.060   8.520 -0.1260  3.3019  1.8954
  225MOL0     H30324   0.184   5.239   8.300 -0.7160  0.3027  0.6081
  225MOL0     H30325   0.245   5.291   8.467 -3.0572  2.1888  2.1060
  225MOL0     H30326  -0.052   5.235   8.271  3.5615  0.4155  0.3293
  225MOL0     H30327  -0.325   5.429   8.341 -1.2227  0.0524  1.2621
  225MOL0     H30328  -0.332   5.246   8.339  1.1959 -0.1626 -0.4245
  225MOL0     H30329  -0.384   5.430   8.574 -3.5800 -0.7344  0.6756
  225MOL0     H30330  -0.352   5.260   8.593  1.7449 -0.7339 -1.3259
  225MOL0     H30331  -0.537   5.193   8.445 -0.0302  0.1622 -1.2561
  225MOL0     H30332  -0.571   5.369   8.422  1.1129  3.5019  2.6687
  225MOL0     H30333  -0.603   5.368   8.690  2.3134 -2.2118  2.2045
  225MOL0     H30334  -0.588   5.192   8.670 -0.2950 -1.2239 -2.4818
  225MOL0     H30335  -0.699   5.031   8.671  0.0092 -0.9160 -0.3599
  225MOL0     H30336  -0.889   4.737   8.661  2.2551  0.5967 -2.7673
  225MOL0     H30337  -0.737   4.808   8.702  0.2954 -0.5882  0.4340
  225MOL0     H30338  -0.851   4.809   8.831  0.0879  0.1000 -0.4112
  225MOL0     H30339  -1.311   4.691   8.610  0.4815 -0.2728  1.6671
  225MOL0     H30340  -1.479   4.556   8.683 -2.6864  0.8850  0.1148
  225MOL0     H30341  -1.654   4.620   9.086  0.3419  1.3236 -0.0262
  225MOL0     H30342  -1.785   4.701   9.006 -2.3219 -1.2387  0.8053
  225MOL0     H30343  -1.884   4.496   8.921  2.5891 -0.6295 -2.1007
  225MOL0     H30344  -1.759   4.393   9.001 -1.2597 -1.0230  1.8658
  225MOL0     H30345  -1.908   4.576   9.180  2.2327  0.4284  1.5428
  225MOL0     H30346  -1.822   4.421   9.208  3.0591  1.5420 -2.6087
  225MOL0     H30347  -2.101   4.472   9.088 -0.2823  0.6802  0.0323
  225MOL0     H30348  -2.006   4.319   9.085  3.7396 -0.3164  1.1261
  225MOL0     H30349  -2.116   4.457   9.329  0.3451  0.3754 -1.0697
  225MOL0     H30350  -2.012   4.304   9.333 -1.6074 -3.8148 -1.3074
  225MOL0     H30351  -2.286   4.315   9.212 -2.5919 -3.6126  0.7300
  225MOL0     H30352  -2.166   4.181   9.210 -1.7473 -2.1296  2.2492
  225MOL0     H30353  -2.268   4.317   9.448 -1.0241 -0.3024  0.5547
  225MOL0     H30354  -2.147   4.183   9.444  1.9196  1.6213 -1.5484
  225MOL0     H30355  -2.340   4.044   9.484 -1.3806 -1.2643  0.0333
  225MOL0     H30356  -2.350   4.056   9.315  2.8382 -1.0072  0.2423
  225MOL0     H30357  -1.616   4.843   8.975 -3.5459  1.8986 -3.6160
  225MOL0     H30358  -1.446   5.003   8.889 -1.2811  0.6953 -0.4491
  225MOL0     H30359  -1.167   5.157   8.624  0.6753  1.9380 -0.0042
  225MOL0     H30360  -1.006   5.307   8.552 -1.9364 -1.8582 -1.9523
  225MOL0     H30361   1.098   5.206   8.735  1.6017  2.5741 -0.4095
  225MOL0     H30362   1.294   5.104   8.868  0.3752 -0.8211  0.4428
  225MOL0     H30363   1.596   4.752   8.872 -3.6380 -1.9170  4.0529
  225MOL0     H30364   1.745   4.644   9.032  0.4339  0.5701 -1.2894
  225MOL0     H30365   1.824   4.601   9.256 -0.0208 -1.5324  0.6017
  225MOL0     H30366   1.963   4.578   9.162  0.1879 -0.8854  1.0819
  225MOL0     H30367   1.958   4.696   9.441 -0.7894  0.9807 -1.5559
  225MOL0     H30368   2.104   4.652   9.354  0.0588  1.0748  1.8236
  225MOL0     H30369   1.998   4.409   9.335 -0.3322 -0.6926  1.1902
  225MOL0     H30370   1.894   4.458   9.477 -0.2611 -0.5575  1.2159
  225MOL0     H30371   2.193   4.480   9.477 -0.7560  2.0990 -0.0143
  225MOL0     H30372   2.099   4.343   9.550 -0.0980  0.4504  2.5554
  225MOL0     H30373   2.048   4.598   9.868 -0.4136 -3.3198 -0.8936
  225MOL0     H30374   1.868   5.036   9.165  0.9857  1.2861 -2.9456
  225MOL0     H30375   1.698   5.130   9.040 -2.2753  0.4160 -2.7048
  226MOL0     O30376   9.650   3.211   8.066 -0.2316  0.2517  0.2251
  226MOL0     C30377   9.697   3.326   8.056 -0.0996 -0.5075  0.5698
  226MOL0     O30378   9.630   3.449   8.082 -0.4497  0.2448 -0.0336
  226MOL0     C30379   9.497   3.437   8.099 -0.4460 -0.0084  0.0783
  226MOL0     C30380   9.442   3.446   8.224 -0.0254  0.5570 -0.0766
  226MOL0     C30381   9.304   3.451   8.232  0.1003  0.1151  0.3903
  226MOL0     C30382   9.224   3.455   8.116  0.7133 -0.4234 -0.1943
  226MOL0     O30383   9.083   3.453   8.108 -0.2371  0.1442  0.3416
  226MOL0     C30384   9.005   3.517   8.207  0.3739 -0.2574 -0.6535
  226MOL0     C30385   8.927   3.420   8.295 -0.3607  0.8247  0.9138
  226MOL0     C30386   8.833   3.495   8.383 -0.3563 -0.6873 -0.2409
  226MOL0     C30387   8.737   3.408   8.462 -0.0904  0.3958  0.6391
  226MOL0     C30388   8.809   3.296   8.534 -0.4722  0.1863  0.5238
  226MOL0     C30389   8.713   3.203   8.605  0.2979 -0.2449  0.2039
  226MOL0     C30390   8.615   3.125   8.525 -0.0070 -0.2260  0.1054
  226MOL0     C30391   8.673   3.034   8.415 -0.8425  0.2140 -1.1754
  226MOL0     N30392   8.557   2.950   8.368  0.7085  0.0704 -0.0938
  226MOL0     C30393   8.434   2.988   8.311 -0.0899  0.3382 -0.6822
  226MOL0     C30394   8.375   2.870   8.312 -0.3802  0.3151  0.6284
  226MOL0     C30395   8.236   2.859   8.272 -0.6010 -0.5611  0.0683
  226MOL0     C30396   8.155   2.981   8.226 -0.1026  0.2690 -0.0406
  226MOL0     C30397   8.011   2.932   8.195  0.7860 -0.2932 -0.2615
  226MOL0     C30398   7.917   2.900   8.320 -0.4411  0.4044  0.4098
  226MOL0     O30399   7.853   3.021   8.356 -0.5881  0.2726 -0.3521
  226MOL0     C30400   7.741   3.059   8.278 -1.2108 -0.7142  0.1360
  226MOL0     C30401   7.647   3.142   8.343  0.3925 -0.6360  0.2564
  226MOL0     C30402   7.537   3.196   8.268  0.9883 -0.1561  0.2268
  226MOL0     C30403   7.449   3.300   8.340  0.0381 -0.0382  0.0409
  226MOL0     C30404   7.512   3.152   8.137 -0.2149 -0.2097  1.0571
  226MOL0     C30405   7.396   3.202   8.056  0.1128  0.3505 -0.2604
  226MOL0     O30406   7.417   3.278   7.943  0.1012  0.4289  0.0214
  226MOL0     C30407   7.306   3.343   7.892  0.0682 -0.8921  0.7474
  226MOL0     C30408   7.275   3.322   7.761  0.5999 -0.4058  0.5545
  226MOL0     C30409   7.181   3.410   7.695  0.1993  0.4117 -0.1813
  226MOL0     C30410   7.100   3.501   7.770  0.6998  0.1647  0.1440
  226MOL0     O30411   7.000   3.582   7.724  0.7795 -0.4170  0.5108
  226MOL0     C30412   6.972   3.573   7.583  0.7058  0.4413  0.2178
  226MOL0     C30413   6.847   3.653   7.552 -0.0944 -0.0533 -0.4266
  226MOL0     C30414   6.865   3.686   7.402  0.0346 -0.8369  0.1005
  226MOL0     C30415   6.760   3.792   7.369  0.3065  0.0304  0.2150
  226MOL0     C30416   6.742   3.819   7.217  0.3775 -0.1541 -0.8456
  226MOL0     C30417   6.657   3.702   7.166  0.0082  0.2821  0.3411
  226MOL0     C30418   6.626   3.721   7.014 -0.5344  0.0361 -0.4908
  226MOL0     C30419   6.564   3.587   6.943 -0.0398 -1.3567  0.2266
  226MOL0    Cl30420   6.397   3.574   6.992 -0.2919  0.2021 -0.1567
  226MOL0     C30421   7.115   3.495   7.904 -0.5657 -0.8161 -0.1279
  226MOL0     C30422   7.217   3.426   7.963 -0.5151  0.0299  0.4316
  226MOL0     O30423   7.287   3.164   8.097 -0.5804 -0.9799 -0.5047
  226MOL0     C30424   7.591   3.062   8.079 -0.7008  0.4071  0.3648
  226MOL0     C30425   7.702   3.017   8.146 -1.2909  0.4109 -0.5247
  226MOL0     N30426   8.448   2.761   8.367  0.4654 -0.4911 -0.6415
  226MOL0     N30427   8.558   2.814   8.397 -0.6160  0.9459 -0.1553
  226MOL0     C30428   9.286   3.439   7.998  0.7762 -0.2351 -0.6903
  226MOL0     C30429   9.418   3.431   7.986  0.0482  0.5348 -0.3122
  226MOL0     C30430   9.842   3.346   8.015  0.7185 -0.1027  0.1066
  226MOL0     C30431   9.910   3.467   8.043 -0.1429 -0.3782  0.3233
  226MOL0     C30432  10.040   3.480   8.005  0.4030  0.2977 -0.3663
  226MOL0     C30433  10.105   3.372   7.932 -0.1650 -0.2613 -0.2568
  226MOL0     O30434  10.242   3.372   7.897  0.3222 -0.4091 -0.6359
  226MOL0     C30435  10.321   3.485   7.935  0.1904 -0.2704 -0.0766
  226MOL0     C30436  10.479   3.459   7.933  0.4048  0.2918  0.1144
  226MOL0     C30437  10.557   3.597   7.962  0.3935 -0.0019  0.4350
  226MOL0     C30438  10.699   3.564   8.019 -0.5415 -0.1628  0.4767
  226MOL0     C30439  10.781   3.689   8.008 -0.5869 -0.6257 -0.6314
  226MOL0     C30440  10.833   3.799   7.992  0.7187  0.1912  0.3554
  226MOL0     C30441  10.035   3.262   7.891 -0.0068 -0.2804  0.4181
  226MOL0     C30442   9.899   3.253   7.924 -0.6431  0.3860 -0.3364
  226MOL0     H30443   9.514   3.453   8.304 -0.4605  3.3044  0.1651
  226MOL0     H30444   9.257   3.462   8.330 -1.7320 -1.6975 -0.2217
  226MOL0     H30445   9.075   3.579   8.264  0.2499 -0.1967 -0.5660
  226MOL0     H30446   8.935   3.591   8.166 -0.4689 -1.4872 -1.5240
  226MOL0     H30447   8.868   3.361   8.224  0.5994 -0.0344  0.8039
  226MOL0     H30448   9.002   3.353   8.338 -0.2583  0.7803  0.6702
  226MOL0     H30449   8.889   3.556   8.455 -2.3427  0.9262  0.0125
  226MOL0     H30450   8.765   3.569   8.341  1.4393  0.5911 -1.0398
  226MOL0     H30451   8.683   3.472   8.532  2.3346  1.1314  1.9723
  226MOL0     H30452   8.660   3.373   8.393 -0.1969 -0.9025  1.3823
  226MOL0     H30453   8.858   3.246   8.450 -1.0015  4.4380 -2.6721
  226MOL0     H30454   8.885   3.338   8.600  1.4209 -0.8477 -0.9250
  226MOL0     H30455   8.773   3.137   8.669  1.7784 -0.1679 -1.0252
  226MOL0     H30456   8.665   3.275   8.671 -1.2661  0.5388 -1.6890
  226MOL0     H30457   8.556   3.065   8.595  1.0441  1.2622  2.3956
  226MOL0     H30458   8.547   3.201   8.483  1.0927  2.5957  2.9942
  226MOL0     H30459   8.754   2.969   8.447 -1.2142 -1.4387 -3.3372
  226MOL0     H30460   8.704   3.100   8.334 -2.7556  1.2156 -1.1482
  226MOL0     H30461   8.412   3.085   8.270 -1.2617 -0.2803 -1.5632
  226MOL0     H30462   8.248   2.800   8.181 -2.4964 -0.9980  0.0548
  226MOL0     H30463   8.190   2.794   8.347 -0.7521 -0.9250 -0.3341
  226MOL0     H30464   8.198   3.030   8.138  0.2227  0.0809  0.0111
  226MOL0     H30465   8.159   3.050   8.311 -1.4459 -1.7482  1.7767
  226MOL0     H30466   8.011   2.836   8.143  0.7492 -0.7108  0.4900
  226MOL0     H30467   7.957   3.006   8.136  3.1892  4.0996  2.4891
  226MOL0     H30468   7.977   2.866   8.405 -1.1486 -2.2132 -0.0457
  226MOL0     H30469   7.836   2.829   8.305  1.7166 -2.7174  2.3257
  226MOL0     H30470   7.664   3.150   8.450  1.7254 -1.9229  0.1886
  226MOL0     H30471   7.347   3.260   8.336 -0.5236  1.3607 -0.1551
  226MOL0     H30472   7.468   3.295   8.448 -4.4788 -1.1243  1.0271
  226MOL0     H30473   7.460   3.399   8.296 -1.4605  1.6673  3.1423
  226MOL0     H30474   7.314   3.246   7.694 -0.5920  0.3287 -1.0344
  226MOL0     H30475   7.164   3.408   7.587  1.9464  2.8386 -0.5899
  226MOL0     H30476   7.059   3.611   7.528  2.0496 -2.5572  0.0325
  226MOL0     H30477   6.947   3.475   7.542  0.7940  0.4579  0.1239
  226MOL0     H30478   6.752   3.612   7.586  0.2440 -1.5478 -1.2332
  226MOL0     H30479   6.869   3.747   7.605  2.0744  0.4720 -2.0933
  226MOL0     H30480   6.847   3.592   7.350 -4.1629 -0.0879 -0.1609
  226MOL0     H30481   6.966   3.725   7.383 -0.9987  1.2319 -1.6501
  226MOL0     H30482   6.659   3.786   7.410 -2.1368  0.3884 -4.9104
  226MOL0     H30483   6.814   3.880   7.405  4.7527 -0.8695 -3.3173
  226MOL0     H30484   6.837   3.838   7.166 -0.6176  0.7956 -2.4407
  226MOL0     H30485   6.694   3.917   7.214  1.0552  0.5849  4.1181
  226MOL0     H30486   6.711   3.608   7.176 -2.5676 -1.4995 -1.2790
  226MOL0     H30487   6.558   3.692   7.212  0.2422 -1.5480  0.5084
  226MOL0     H30488   6.716   3.753   6.962  1.5083 -1.6388  1.7900
  226MOL0     H30489   6.559   3.806   7.000 -0.7633  0.1278  1.0421
  226MOL0     H30490   6.620   3.496   6.968  0.6775 -1.0488 -0.2070
  226MOL0     H30491   6.575   3.600   6.835  1.2540  3.0641  0.6614
  226MOL0     H30492   7.057   3.569   7.959  1.7202  0.6892  0.3953
  226MOL0     H30493   7.246   3.448   8.065  0.8473 -0.9840  0.2857
  226MOL0     H30494   7.567   3.018   7.983 -2.7082 -0.1694  1.0630
  226MOL0     H30495   7.761   2.939   8.100 -1.0198 -0.1867  0.7792
  226MOL0     H30496   9.217   3.458   7.917  1.2098  4.2757 -0.2598
  226MOL0     H30497   9.472   3.414   7.894  1.1292 -1.6232  0.6507
  226MOL0     H30498   9.857   3.544   8.097 -1.8743 -0.2213 -1.4838
  226MOL0     H30499  10.091   3.574   8.021  0.2150  0.0898  1.8547
  226MOL0     H30500  10.306   3.577   7.878 -2.0262  1.0608  2.3885
  226MOL0     H30501  10.299   3.521   8.037  3.4014  1.3646  0.1674
  226MOL0     H30502  10.516   3.423   7.836 -1.8284  1.5954 -1.3068
  226MOL0     H30503  10.497   3.385   8.011 -0.4261  1.6679  1.6711
  226MOL0     H30504  10.501   3.660   8.031  0.2254  1.1787 -0.7590
  226MOL0     H30505  10.568   3.657   7.872 -0.3180  3.5878  2.5732
  226MOL0     H30506  10.753   3.489   7.960  1.7970 -0.0439  2.2942
  226MOL0     H30507  10.690   3.518   8.118  0.5078 -1.4566 -0.0071
  226MOL0     H30508  10.860   3.902   7.982  0.0508  0.3085 -0.3026
  226MOL0     H30509  10.079   3.177   7.840  2.8281  1.4490 -0.2168
  226MOL0     H30510   9.833   3.176   7.886 -1.7853  1.5684 -0.8297
  227MOL0     O30511   7.401   2.448   9.828  0.8051  0.7359 -0.2964
  227MOL0     C30512   7.481   2.406   9.914  0.3153 -0.1818 -0.8041
  227MOL0     O30513   7.452   2.384  10.048 -0.2262 -0.4540 -0.4238
  227MOL0     C30514   7.332   2.418  10.106  0.2969 -1.0656 -0.2706
  227MOL0     C30515   7.334   2.449  10.243 -0.1887  0.0754  0.6305
  227MOL0     C30516   7.216   2.488  10.313 -0.5711 -0.2161  0.4601
  227MOL0     C30517   7.090   2.465  10.250 -0.1327  0.9005  0.5824
  227MOL0     O30518   6.976   2.493  10.322 -0.4410 -0.3246  0.0892
  227MOL0     C30519   6.848   2.499  10.261  0.6238 -0.1137 -0.4915
  227MOL0     C30520   6.732   2.544  10.354 -0.5841 -0.5773 -0.2591
  227MOL0     C30521   6.618   2.592  10.275 -0.2519 -0.7187  0.7710
  227MOL0     C30522   6.494   2.620  10.350  0.8400  0.0510 -0.1345
  227MOL0     C30523   6.514   2.739  10.448 -0.2166 -0.2446  0.0719
  227MOL0     C30524   6.397   2.747  10.542  0.3942  0.0823  0.3522
  227MOL0     C30525   6.388   2.644  10.660  0.3376  0.9472 -0.0686
  227MOL0     C30526   6.300   2.694  10.771 -0.2711  0.0675 -0.0713
  227MOL0     N30527   6.162   2.664  10.753 -0.3516  0.5654  0.2825
  227MOL0     C30528   6.072   2.766  10.740 -0.0180  0.4751  0.5538
  227MOL0     C30529   5.945   2.704  10.769 -0.6619  0.3617  0.4926
  227MOL0     C30530   5.819   2.786  10.744  0.6342 -0.1309 -0.0187
  227MOL0     C30531   5.735   2.729  10.631  0.6048  0.0223  0.4449
  227MOL0     C30532   5.762   2.802  10.496  0.2718 -0.0612 -0.4939
  227MOL0     C30533   5.898   2.769  10.441 -0.6097 -0.7013 -0.6350
  227MOL0     O30534   5.890   2.793  10.298  0.2079  0.2184 -0.2758
  227MOL0     C30535   6.014   2.822  10.253 -1.1087 -0.5040  0.6726
  227MOL0     C30536   6.082   2.934  10.302 -0.1564  0.0762 -0.0478
  227MOL0     C30537   6.215   2.978  10.253  0.7563  1.0069 -0.0262
  227MOL0     C30538   6.263   3.112  10.302 -0.5310  0.6753  0.1332
  227MOL0     C30539   6.289   2.894  10.168 -0.5081 -0.1216  0.7275
  227MOL0     C30540   6.424   2.924  10.108 -0.3237 -0.0124  0.0158
  227MOL0     O30541   6.515   2.999  10.181  0.1729 -0.0552  0.2254
  227MOL0     C30542   6.629   3.058  10.133 -0.5963  0.5268 -0.0801
  227MOL0     C30543   6.720   2.988  10.058 -0.0478  0.3575 -0.1053
  227MOL0     C30544   6.838   3.054  10.011 -0.0850 -0.2609 -0.2176
  227MOL0     C30545   6.861   3.185  10.039  1.0768 -1.1133 -0.1894
  227MOL0     O30546   6.974   3.258  10.008  0.1749  0.5264  0.4010
  227MOL0     C30547   7.064   3.195   9.917 -0.3547 -0.2505  0.3032
  227MOL0     C30548   7.171   3.295   9.850 -0.3246 -0.1497 -0.6891
  227MOL0     C30549   7.244   3.378   9.961  0.0014  0.3553 -1.0973
  227MOL0     C30550   7.396   3.377   9.958  0.5593 -0.2045  0.6481
  227MOL0     C30551   7.467   3.487   9.868 -1.0620  1.4457  0.1884
  227MOL0     C30552   7.405   3.523   9.729  0.4644  0.8590 -0.4562
  227MOL0     C30553   7.487   3.611   9.633 -0.0549 -0.0571  0.4588
  227MOL0     C30554   7.396   3.679   9.528  1.2410  0.0365  0.0528
  227MOL0    Cl30555   7.505   3.780   9.424 -0.6859 -0.4737  0.4558
  227MOL0     C30556   6.771   3.255  10.120 -0.2477 -0.2106  0.7538
  227MOL0     C30557   6.658   3.183  10.173 -0.8612  0.3593 -0.0168
  227MOL0     O30558   6.449   2.879   9.995 -0.0081 -0.7592 -0.5732
  227MOL0     C30559   6.218   2.785  10.114  0.1219  0.4090  0.1782
  227MOL0     C30560   6.089   2.756  10.157  0.0274  0.2187  1.0695
  227MOL0     N30561   5.971   2.568  10.783 -0.0541 -0.1677 -0.6292
  227MOL0     N30562   6.102   2.548  10.775  0.8764 -0.6611  0.2263
  227MOL0     C30563   7.087   2.424  10.113 -0.6693  0.5304  1.1953
  227MOL0     C30564   7.208   2.412  10.043  0.3948  0.4308  0.0142
  227MOL0     C30565   7.625   2.368   9.874  0.1659  0.1272 -0.1720
  227MOL0     C30566   7.714   2.359   9.975 -1.0985  0.1470  0.9178
  227MOL0     C30567   7.849   2.321   9.947  0.0867 -0.4494 -0.2031
  227MOL0     C30568   7.893   2.295   9.814  0.3795  0.5624  0.8386
  227MOL0     O30569   8.022   2.262   9.777  0.7989  0.1157 -0.1668
  227MOL0     C30570   8.127   2.291   9.872  0.1594  0.4775 -0.3092
  227MOL0     C30571   8.263   2.227   9.825  0.1888 -0.1902  0.9114
  227MOL0     C30572   8.372   2.221   9.930  0.1381  0.0854  0.4129
  227MOL0     C30573   8.499   2.143   9.879  0.3580  0.8337 -0.2782
  227MOL0     C30574   8.597   2.219   9.803 -0.0661 -0.2169 -0.0717
  227MOL0     C30575   8.670   2.288   9.732  0.7227 -0.2799 -0.3310
  227MOL0     C30576   7.792   2.302   9.710 -0.1730 -0.0794  0.1184
  227MOL0     C30577   7.664   2.345   9.733  0.6045  0.2501 -0.3250
  227MOL0     H30578   7.431   2.449  10.293 -0.1338 -2.4893  0.6812
  227MOL0     H30579   7.223   2.540  10.409  1.4840  3.6433 -1.5216
  227MOL0     H30580   6.850   2.568  10.176 -2.4349 -1.2454 -1.5942
  227MOL0     H30581   6.815   2.398  10.235  0.7226  0.3819 -2.6644
  227MOL0     H30582   6.703   2.465  10.424 -0.7522 -1.6270 -1.4657
  227MOL0     H30583   6.763   2.632  10.412  0.5284 -1.0156 -0.1579
  227MOL0     H30584   6.654   2.683  10.226  0.0990 -0.7841  0.9065
  227MOL0     H30585   6.583   2.523  10.197 -3.1396 -0.8846  2.0878
  227MOL0     H30586   6.405   2.627  10.287  2.1441  0.1061 -2.0351
  227MOL0     H30587   6.486   2.529  10.410  1.7653  0.2970  0.3862
  227MOL0     H30588   6.603   2.738  10.512  1.1506  0.0071 -1.7636
  227MOL0     H30589   6.529   2.834  10.397 -0.5038  0.6033  1.4834
  227MOL0     H30590   6.402   2.850  10.577 -1.2957 -0.5922  2.8634
  227MOL0     H30591   6.306   2.733  10.483  0.9529  0.2567 -0.5616
  227MOL0     H30592   6.340   2.553  10.621  0.7649  1.6900 -2.5380
  227MOL0     H30593   6.491   2.619  10.686  1.3191  2.5169 -2.1271
  227MOL0     H30594   6.316   2.802  10.780  1.6748 -0.0068 -1.9855
  227MOL0     H30595   6.327   2.635  10.859  2.7454 -1.6966 -1.9910
  227MOL0     H30596   6.094   2.869  10.716 -0.8810  0.3046 -1.1376
  227MOL0     H30597   5.754   2.780  10.832 -1.4941  0.8145 -1.4388
  227MOL0     H30598   5.831   2.891  10.717 -1.5389 -0.0593 -0.9317
  227MOL0     H30599   5.628   2.744  10.648 -0.2894 -3.6600 -0.9432
  227MOL0     H30600   5.749   2.622  10.617  0.7876  0.3161 -2.2180
  227MOL0     H30601   5.741   2.909  10.505  0.9496  0.2933 -2.5190
  227MOL0     H30602   5.679   2.764  10.434  0.1091  0.9329 -0.8974
  227MOL0     H30603   5.924   2.664  10.455 -0.3287 -0.5576 -0.0841
  227MOL0     H30604   5.971   2.825  10.499  0.0895  1.2220 -3.1519
  227MOL0     H30605   6.037   3.004  10.371  1.5733 -0.4365  1.6627
  227MOL0     H30606   6.311   3.100  10.399 -2.3557 -0.4318  0.9511
  227MOL0     H30607   6.331   3.159  10.231 -2.9295  1.0830 -2.0612
  227MOL0     H30608   6.181   3.182  10.323 -0.1424  0.2291  3.7020
  227MOL0     H30609   6.710   2.884  10.032  1.5804  0.0641  0.3034
  227MOL0     H30610   6.916   3.012   9.949  0.4052 -0.4697  0.5312
  227MOL0     H30611   7.124   3.120   9.970 -0.0131  1.2840  2.1916
  227MOL0     H30612   7.006   3.142   9.841 -1.2396  0.4327  0.4883
  227MOL0     H30613   7.251   3.239   9.801  1.2098  1.7129 -0.4472
  227MOL0     H30614   7.129   3.358   9.771  1.0625 -1.0068 -2.1700
  227MOL0     H30615   7.228   3.333  10.060  2.3253 -0.7518 -1.1613
  227MOL0     H30616   7.226   3.486   9.967  0.2359  0.3495  0.0682
  227MOL0     H30617   7.435   3.408  10.055  2.5063  1.3296 -0.5436
  227MOL0     H30618   7.434   3.275   9.940  3.3821  1.0899 -1.6842
  227MOL0     H30619   7.567   3.447   9.848 -0.2293  0.4102  5.0817
  227MOL0     H30620   7.494   3.573   9.930  2.0971  0.2823  0.5954
  227MOL0     H30621   7.370   3.433   9.678  1.2237  0.6495 -0.6252
  227MOL0     H30622   7.320   3.586   9.755  0.8764 -0.1546  4.2643
  227MOL0     H30623   7.562   3.549   9.581  2.6050  2.3301  1.2097
  227MOL0     H30624   7.544   3.688   9.686 -0.4773  0.6284 -0.0688
  227MOL0     H30625   7.322   3.737   9.585  1.7214  0.7085  0.0078
  227MOL0     H30626   7.344   3.609   9.462  3.0671 -1.3534  0.0233
  227MOL0     H30627   6.786   3.362  10.130 -0.7249 -0.0138 -0.4868
  227MOL0     H30628   6.596   3.245  10.238 -0.3956  1.5328 -0.6584
  227MOL0     H30629   6.261   2.722  10.036  0.4763 -0.5432  1.1085
  227MOL0     H30630   6.043   2.661  10.133 -1.4620  1.1430  0.1160
  227MOL0     H30631   6.995   2.402  10.058 -0.0735  2.1483 -0.5737
  227MOL0     H30632   7.201   2.394   9.936  2.4951 -1.3533  0.1153
  227MOL0     H30633   7.694   2.372  10.081 -1.1893  0.9839  0.8044
  227MOL0     H30634   7.908   2.333  10.037 -1.1578 -2.0540  0.8673
  227MOL0     H30635   8.125   2.401   9.879  1.9378  0.7992 -3.3339
  227MOL0     H30636   8.115   2.238   9.967 -1.0852 -3.0844 -2.2634
  227MOL0     H30637   8.301   2.293   9.746  0.0198 -0.0466  0.9489
  227MOL0     H30638   8.248   2.130   9.778  2.2313  0.7827 -2.0354
  227MOL0     H30639   8.346   2.171  10.024  3.2801  0.9211  1.8745
  227MOL0     H30640   8.404   2.323   9.949  3.8765 -0.7176 -0.6716
  227MOL0     H30641   8.466   2.067   9.808 -0.5669  1.9409 -1.0821
  227MOL0     H30642   8.554   2.089   9.956 -1.4041 -1.1848 -0.3604
  227MOL0     H30643   8.733   2.361   9.685 -0.5617  0.1851 -1.4073
  227MOL0     H30644   7.824   2.268   9.612  0.7596  1.8712 -0.3001
  227MOL0     H30645   7.589   2.366   9.657 -1.0416  0.4972  1.3129
  228MOL0     O30646   3.476   0.161   9.039  0.1240 -0.0418 -0.1251
  228MOL0     C30647   3.460   0.228   9.139  0.4943  0.4506 -1.0429
  228MOL0     O30648   3.563   0.278   9.222 -0.2108  0.2335 -0.3317
  228MOL0     C30649   3.697   0.254   9.193  0.4724  0.9780  0.1883
  228MOL0     C30650   3.763   0.146   9.252  1.0671  0.3491  0.3254
  228MOL0     C30651   3.898   0.113   9.236  0.5719 -0.1232  1.2716
  228MOL0     C30652   3.966   0.192   9.141  0.3057 -0.3184  1.1370
  228MOL0     O30653   4.094   0.154   9.111  0.1845  1.0285  0.4283
  228MOL0     C30654   4.102   0.054   9.011  0.0026  0.4148 -0.7481
  228MOL0     C30655   4.237   0.047   8.944  0.1277  1.1033 -0.9805
  228MOL0     C30656   4.337  -0.010   9.040  0.7600  0.6618  0.4461
  228MOL0     C30657   4.414   0.096   9.122  0.0240 -0.4462 -0.0764
  228MOL0     C30658   4.465   0.037   9.250  0.6200 -0.0730  0.4557
  228MOL0     C30659   4.545  -0.093   9.237  0.2333 -1.0421  0.2370
  228MOL0     C30660   4.594  -0.131   9.380 -0.3601 -0.1999  0.3822
  228MOL0     C30661   4.487  -0.145   9.487  0.2025  0.9653  0.2847
  228MOL0     N30662   4.379  -0.239   9.442 -0.1293  1.1408  0.1553
  228MOL0     C30663   4.251  -0.200   9.415  0.0987 -0.2756 -0.2546
  228MOL0     C30664   4.182  -0.315   9.413  0.1277 -0.1044  0.9634
  228MOL0     C30665   4.036  -0.328   9.386  1.0724  0.0813 -0.1937
  228MOL0     C30666   4.002  -0.380   9.247 -0.5871 -0.3935 -0.8508
  228MOL0     C30667   3.864  -0.369   9.192  0.0255  0.0984  1.1323
  228MOL0     C30668   3.794  -0.244   9.233 -0.4459 -0.2673  0.0647
  228MOL0     O30669   3.689  -0.219   9.138 -0.4752 -0.2297  0.2858
  228MOL0     C30670   3.567  -0.230   9.197 -0.2734  0.6791 -0.1456
  228MOL0     C30671   3.525  -0.344   9.274  0.4830  0.0228  0.0029
  228MOL0     C30672   3.400  -0.345   9.324  0.1390  0.5649 -0.7710
  228MOL0     C30673   3.375  -0.445   9.435 -0.8848  0.6347  0.7323
  228MOL0     C30674   3.301  -0.245   9.295  0.0957 -0.8368  0.3883
  228MOL0     C30675   3.158  -0.252   9.335  0.1061 -0.3784 -0.9568
  228MOL0     O30676   3.069  -0.152   9.292  0.0025 -0.1447  0.2464
  228MOL0     C30677   2.933  -0.147   9.335 -1.2528 -0.0773 -0.4646
  228MOL0     C30678   2.838  -0.112   9.242  0.0464  0.4809  1.5430
  228MOL0     C30679   2.709  -0.080   9.289 -0.7424  1.1083 -0.7986
  228MOL0     C30680   2.675  -0.072   9.424 -0.1849 -0.3600 -0.3492
  228MOL0     O30681   2.544  -0.027   9.456 -0.0982 -0.0759 -0.2616
  228MOL0     C30682   2.528   0.040   9.583 -0.6018  0.4069  0.1108
  228MOL0     C30683   2.395   0.109   9.572  0.8685  0.2689  0.4027
  228MOL0     C30684   2.366   0.189   9.701 -0.5045 -0.4379 -0.3830
  228MOL0     C30685   2.212   0.208   9.727 -0.3014 -0.1310  0.3527
  228MOL0     C30686   2.192   0.264   9.867 -0.4856 -0.4124  0.0127
  228MOL0     C30687   2.041   0.288   9.902 -0.1400  0.6676  0.2326
  228MOL0     C30688   2.014   0.387  10.019  0.4138  0.5080 -0.2757
  228MOL0     C30689   1.884   0.460   9.997 -0.6060 -0.9540  0.0650
  228MOL0    Cl30690   1.845   0.593  10.125  0.0992  0.3750  0.0394
  228MOL0     C30691   2.767  -0.126   9.520 -0.6398  0.3466 -0.3988
  228MOL0     C30692   2.899  -0.146   9.470  0.9588  0.6162  0.0991
  228MOL0     O30693   3.123  -0.344   9.399 -0.4022  0.3964 -0.0838
  228MOL0     C30694   3.349  -0.126   9.226 -0.1829 -0.6728  0.0542
  228MOL0     C30695   3.482  -0.124   9.184  0.1670  0.0891  0.4221
  228MOL0     N30696   4.269  -0.422   9.423  0.5011  0.6977  0.2356
  228MOL0     N30697   4.391  -0.377   9.436  0.1429  0.1213 -0.4867
  228MOL0     C30698   3.903   0.295   9.070  0.1380  0.9971 -0.1852
  228MOL0     C30699   3.771   0.335   9.103 -0.4277 -0.3754  0.2912
  228MOL0     C30700   3.314   0.254   9.164 -0.6586  0.1089 -0.2259
  228MOL0     C30701   3.207   0.232   9.076  0.4885  0.1889 -0.4434
  228MOL0     C30702   3.072   0.262   9.120 -0.2362 -0.4384  0.0873
  228MOL0     C30703   3.056   0.324   9.245 -1.1522  0.1303 -0.5631
  228MOL0     O30704   2.935   0.359   9.292  0.1386  0.2886  0.4204
  228MOL0     C30705   2.851   0.248   9.323 -0.4208  0.6579  0.5071
  228MOL0     C30706   2.702   0.296   9.348  0.0189  0.8854 -0.4212
  228MOL0     C30707   2.641   0.361   9.224 -0.6412  0.1990  0.1635
  228MOL0     C30708   2.599   0.257   9.115 -0.7003  0.8153  0.6016
  228MOL0     C30709   2.692   0.259   8.999 -0.1576 -0.6192  0.0191
  228MOL0     C30710   2.782   0.266   8.916 -0.0587 -0.5180 -0.0114
  228MOL0     C30711   3.166   0.350   9.330 -0.7369  0.6462 -0.0517
  228MOL0     C30712   3.289   0.311   9.292 -0.2317 -0.6264 -0.1267
  228MOL0     H30713   3.707   0.085   9.322 -0.6999  2.0194  0.4528
  228MOL0     H30714   3.947   0.023   9.274  1.9163 -1.5658 -3.3070
  228MOL0     H30715   4.085  -0.043   9.060  1.3234  0.8349  0.5912
  228MOL0     H30716   4.026   0.079   8.936 -0.8927  5.0367  1.3802
  228MOL0     H30717   4.223  -0.033   8.870 -1.0002  0.2836  0.0885
  228MOL0     H30718   4.272   0.127   8.878 -1.0646 -0.2849 -3.4340
  228MOL0     H30719   4.294  -0.079   9.113  1.0800  0.2577  0.2557
  228MOL0     H30720   4.407  -0.070   8.982 -2.9295 -2.7610 -0.9737
  228MOL0     H30721   4.489   0.135   9.052  0.6299  2.6853  2.0785
  228MOL0     H30722   4.352   0.184   9.140 -4.4215 -2.4131 -3.6721
  228MOL0     H30723   4.510   0.120   9.306 -3.2002  1.0665  2.1739
  228MOL0     H30724   4.377   0.013   9.309  1.8580 -0.8244  2.0565
  228MOL0     H30725   4.473  -0.169   9.204 -0.8687  0.1216 -0.1347
  228MOL0     H30726   4.632  -0.085   9.171  0.6816 -0.9851  0.8273
  228MOL0     H30727   4.649  -0.224   9.368  2.4300  0.6529  4.4421
  228MOL0     H30728   4.670  -0.059   9.414  0.9793 -1.7687  0.8301
  228MOL0     H30729   4.442  -0.047   9.506  0.7131  1.3159 -0.2764
  228MOL0     H30730   4.545  -0.179   9.572  3.3050 -1.4020 -2.5114
  228MOL0     H30731   4.220  -0.096   9.421  2.4522  0.5248 -0.6856
  228MOL0     H30732   3.998  -0.396   9.462  1.0619  1.8519  1.4726
  228MOL0     H30733   3.987  -0.232   9.401  1.3385  0.8092 -3.1977
  228MOL0     H30734   4.029  -0.486   9.246  1.4154  0.0498  0.2983
  228MOL0     H30735   4.068  -0.327   9.179  0.1190  0.7181  0.6422
  228MOL0     H30736   3.818  -0.465   9.215  0.9846 -1.4316 -2.5906
  228MOL0     H30737   3.885  -0.379   9.085  0.7905 -2.2873  1.4613
  228MOL0     H30738   3.863  -0.159   9.229  0.2562 -0.8117  0.4308
  228MOL0     H30739   3.749  -0.256   9.332 -2.8395 -2.1344 -1.1474
  228MOL0     H30740   3.581  -0.435   9.294  0.8723  0.5133  1.2028
  228MOL0     H30741   3.339  -0.530   9.378  0.9984  1.1160 -1.3047
  228MOL0     H30742   3.466  -0.480   9.485  0.8877  1.2496 -1.8701
  228MOL0     H30743   3.305  -0.411   9.512 -1.4234  2.5435 -0.5281
  228MOL0     H30744   2.860  -0.098   9.136 -1.9906 -0.6165  0.9028
  228MOL0     H30745   2.622  -0.067   9.224 -0.3898 -1.1301 -1.8014
  228MOL0     H30746   2.531  -0.034   9.664  0.4529 -0.1977 -0.4594
  228MOL0     H30747   2.615   0.105   9.583  1.1297 -1.6292 -2.9645
  228MOL0     H30748   2.395   0.180   9.489  1.3092 -1.3635 -1.0453
  228MOL0     H30749   2.329   0.024   9.557  0.9439  0.4862 -1.4664
  228MOL0     H30750   2.421   0.283   9.698 -0.0952 -0.6713 -0.1891
  228MOL0     H30751   2.408   0.134   9.786  1.1538  0.4366 -0.6118
  228MOL0     H30752   2.184   0.281   9.650  2.4123  2.4355  1.5864
  228MOL0     H30753   2.167   0.113   9.697  1.4498 -0.6788 -0.7129
  228MOL0     H30754   2.251   0.355   9.878  0.0030 -0.2622 -3.0753
  228MOL0     H30755   2.231   0.200   9.947 -1.0216 -0.2593  0.4063
  228MOL0     H30756   2.001   0.332   9.810  1.2895 -2.2754 -1.9566
  228MOL0     H30757   1.978   0.199   9.912  4.9025 -3.2068  1.5857
  228MOL0     H30758   2.085   0.470  10.014  1.4248 -0.3618 -0.5243
  228MOL0     H30759   1.991   0.338  10.114 -4.6828 -2.1307 -2.4442
  228MOL0     H30760   1.804   0.386   9.997 -0.0640 -1.5519 -0.4525
  228MOL0     H30761   1.874   0.516   9.903  0.3737 -0.1188  0.4405
  228MOL0     H30762   2.736  -0.146   9.622  1.2280 -1.9833 -0.1949
  228MOL0     H30763   2.977  -0.153   9.545  0.2084 -2.1824  0.7496
  228MOL0     H30764   3.305  -0.027   9.235 -2.6221 -1.7049  0.2426
  228MOL0     H30765   3.530  -0.045   9.127  1.8915 -0.4488  1.0754
  228MOL0     H30766   3.969   0.351   9.005 -0.8909  1.8237 -0.5413
  228MOL0     H30767   3.736   0.425   9.053  0.5260  0.2447  0.6951
  228MOL0     H30768   3.224   0.191   8.976 -0.0918  0.9302 -0.8581
  228MOL0     H30769   2.976   0.240   9.075 -2.6847  0.7813  4.2034
  228MOL0     H30770   2.851   0.177   9.240  0.5924 -0.2730  1.2606
  228MOL0     H30771   2.893   0.195   9.409 -2.2437  1.2627  1.8533
  228MOL0     H30772   2.704   0.360   9.436  1.1084 -2.5012  2.2216
  228MOL0     H30773   2.636   0.212   9.372  1.7135 -1.0573 -2.1493
  228MOL0     H30774   2.718   0.420   9.173  2.5078 -3.1503  0.6274
  228MOL0     H30775   2.561   0.430   9.251 -1.1810 -0.1191 -0.5774
  228MOL0     H30776   2.501   0.287   9.076 -0.2040  0.6962 -0.8041
  228MOL0     H30777   2.582   0.160   9.161  0.4675  2.3121  4.5705
  228MOL0     H30778   2.864   0.251   8.848  1.3123 -0.8358  1.6497
  228MOL0     H30779   3.153   0.409   9.421 -1.0376  2.7404 -1.3909
  228MOL0     H30780   3.360   0.343   9.368 -0.8374  2.8131 -0.8356
  229MOL0     O30781   0.227  11.029   4.802 -0.0649 -0.2534  0.0108
  229MOL0     C30782   0.293  11.045   4.902 -0.1973 -0.2923 -0.4525
  229MOL0     O30783   0.254  11.035   5.030 -0.4721  0.4240  0.3540
  229MOL0     C30784   0.137  10.973   5.060 -0.4318 -0.0371  0.0861
  229MOL0     C30785   0.144  10.876   5.156 -0.8169 -0.3619 -0.2022
  229MOL0     C30786   0.042  10.788   5.191  0.2300 -0.5508 -0.6044
  229MOL0     C30787  -0.083  10.806   5.126 -0.1557 -0.2051  0.1377
  229MOL0     O30788  -0.183  10.720   5.168 -0.0918 -0.1550  0.1462
  229MOL0     C30789  -0.312  10.712   5.105 -0.0983 -0.2608 -0.4912
  229MOL0     C30790  -0.325  10.608   4.992  0.2772  0.3354  0.6829
  229MOL0     C30791  -0.242  10.641   4.869 -0.6176  0.8788  0.2631
  229MOL0     C30792  -0.281  10.564   4.741 -0.0620 -0.7509 -0.1093
  229MOL0     C30793  -0.272  10.412   4.759  0.7671 -0.6270 -0.3376
  229MOL0     C30794  -0.335  10.339   4.641  0.6139  0.5320 -0.5319
  229MOL0     C30795  -0.488  10.356   4.629  0.3010  0.4117 -0.6450
  229MOL0     C30796  -0.554  10.256   4.542  0.1634 -0.2091  0.1587
  229MOL0     N30797  -0.539  10.128   4.606  0.6215 -0.2471  0.0882
  229MOL0     C30798  -0.585  10.104   4.736 -0.2321  0.2207 -0.0498
  229MOL0     C30799  -0.589   9.969   4.743 -1.0989 -0.9071  0.0255
  229MOL0     C30800  -0.626   9.906   4.878 -0.3069 -0.6308  0.2017
  229MOL0     C30801  -0.770   9.942   4.908 -0.2569  0.3532  0.0769
  229MOL0     C30802  -0.822   9.879   5.032  0.2160 -0.5826 -0.5669
  229MOL0     C30803  -0.968   9.908   5.066  1.4721  0.0553  0.3739
  229MOL0     O30804  -1.000  10.044   5.050 -0.6913 -0.0093  0.6504
  229MOL0     C30805  -1.129  10.095   5.031 -0.7030 -0.4901 -0.9009
  229MOL0     C30806  -1.234  10.019   4.973  0.5101  0.7544 -1.0349
  229MOL0     C30807  -1.368  10.082   4.962  0.2509  0.1930 -0.3206
  229MOL0     C30808  -1.480  10.008   4.904 -0.3942 -0.5792  0.5643
  229MOL0     C30809  -1.382  10.215   5.009 -0.4447 -0.2767 -0.1057
  229MOL0     C30810  -1.508  10.296   4.994 -0.0656  0.4697 -0.1503
  229MOL0     O30811  -1.547  10.352   5.111 -0.3996 -0.6519  0.3613
  229MOL0     C30812  -1.677  10.395   5.102  0.0050  0.7406 -0.1962
  229MOL0     C30813  -1.791  10.321   5.094 -0.5167  0.0652  0.0464
  229MOL0     C30814  -1.918  10.376   5.106  0.0741 -0.0298  0.5185
  229MOL0     C30815  -1.941  10.508   5.135 -0.8601 -0.1207 -0.1688
  229MOL0     O30816  -2.058  10.579   5.153 -0.0166  0.7418  0.3512
  229MOL0     C30817  -2.128  10.588   5.273 -0.0470 -0.0350 -0.1426
  229MOL0     C30818  -2.280  10.574   5.267 -0.3864  0.7223 -0.4183
  229MOL0     C30819  -2.342  10.589   5.406 -0.7894  1.6099  0.6968
  229MOL0     C30820  -2.488  10.637   5.397 -0.3762 -0.3574 -0.0905
  229MOL0     C30821  -2.547  10.648   5.535 -0.0632  0.1029 -0.3613
  229MOL0     C30822  -2.693  10.700   5.543 -0.0890  0.4487  0.4833
  229MOL0     C30823  -2.790  10.587   5.528 -0.4166  0.3660  0.2403
  229MOL0     C30824  -2.942  10.624   5.494  0.3617  1.1047 -0.0694
  229MOL0    Cl30825  -3.023  10.465   5.498  0.1500  0.0729  0.5098
  229MOL0     C30826  -1.824  10.585   5.134  0.1991 -0.0544  0.6288
  229MOL0     C30827  -1.698  10.527   5.121  0.1718  0.2228  0.0574
  229MOL0     O30828  -1.544  10.323   4.879  1.0076  0.0247  0.1746
  229MOL0     C30829  -1.272  10.283   5.062 -0.0577  0.1627 -1.5583
  229MOL0     C30830  -1.146  10.226   5.071  0.1138  0.2094 -0.0990
  229MOL0     N30831  -0.543   9.912   4.624  0.0588  0.1505 -0.3626
  229MOL0     N30832  -0.521  10.010   4.537 -0.0671 -0.4166  0.2160
  229MOL0     C30833  -0.092  10.905   5.028 -1.0571  0.3841  0.7201
  229MOL0     C30834   0.018  10.988   4.992 -0.9015 -0.1523 -0.1366
  229MOL0     C30835   0.435  11.080   4.891 -0.2009 -0.8951  0.8078
  229MOL0     C30836   0.486  11.106   4.757 -0.1380 -0.0759  0.1419
  229MOL0     C30837   0.628  11.130   4.738  0.3932  0.0047  0.3287
  229MOL0     C30838   0.712  11.139   4.850  1.9661  0.0901 -0.4068
  229MOL0     O30839   0.843  11.157   4.852 -0.4819  0.2418 -0.2991
  229MOL0     C30840   0.923  11.170   4.734 -0.4928  0.5457  0.3980
  229MOL0     C30841   0.953  11.037   4.656 -0.5350 -0.1075  0.2455
  229MOL0     C30842   1.084  10.969   4.688 -0.1537 -1.1619  0.5258
  229MOL0     C30843   1.093  10.819   4.652  0.2246 -0.1841 -0.0997
  229MOL0     C30844   1.121  10.798   4.507  0.2042 -0.0089 -1.1234
  229MOL0     C30845   1.138  10.792   4.388  0.7829 -0.3015 -0.3179
  229MOL0     C30846   0.657  11.109   4.976  0.2280 -0.0099  0.6620
  229MOL0     C30847   0.525  11.085   4.994  0.4955  0.2753 -0.6903
  229MOL0     H30848   0.241  10.859   5.203 -1.0026 -0.4275  0.1625
  229MOL0     H30849   0.044  10.719   5.275  2.6805  1.5309  1.1834
  229MOL0     H30850  -0.387  10.683   5.178 -1.3113 -0.3970 -1.7571
  229MOL0     H30851  -0.347  10.812   5.076  0.6471 -0.1974 -1.2253
  229MOL0     H30852  -0.314  10.505   5.026 -2.7781 -1.1830 -2.3307
  229MOL0     H30853  -0.431  10.615   4.965 -0.2548 -0.1793  2.5174
  229MOL0     H30854  -0.248  10.745   4.837 -1.3375  0.0388 -2.5883
  229MOL0     H30855  -0.136  10.618   4.884  0.0382  2.8956 -0.9102
  229MOL0     H30856  -0.384  10.591   4.715  0.3989  1.2713  0.0550
  229MOL0     H30857  -0.218  10.614   4.666 -0.4309 -1.6623 -1.0579
  229MOL0     H30858  -0.171  10.376   4.782  1.4297  0.1348 -1.9378
  229MOL0     H30859  -0.335  10.388   4.845 -0.9394  3.8571 -0.0843
  229MOL0     H30860  -0.292  10.364   4.543 -0.8753 -0.4104 -1.4807
  229MOL0     H30861  -0.324  10.231   4.657  2.4677  0.4564 -1.8835
  229MOL0     H30862  -0.533  10.359   4.728 -0.2402  0.0605 -0.8739
  229MOL0     H30863  -0.507  10.448   4.574 -2.0917 -1.6196 -3.5593
  229MOL0     H30864  -0.506  10.254   4.443  2.5734  2.7305  1.1143
  229MOL0     H30865  -0.661  10.276   4.528  0.0773 -2.2400 -3.4073
  229MOL0     H30866  -0.605  10.170   4.819 -0.9653 -1.7240  1.3817
  229MOL0     H30867  -0.608   9.799   4.861 -0.6601 -0.7129  0.3401
  229MOL0     H30868  -0.569   9.937   4.966 -0.0255  0.2763 -0.2821
  229MOL0     H30869  -0.835   9.914   4.825 -0.4067 -0.3750  0.4259
  229MOL0     H30870  -0.768  10.049   4.927  1.5279  0.6420 -1.5085
  229MOL0     H30871  -0.757   9.896   5.118  1.2260 -2.0852 -0.9953
  229MOL0     H30872  -0.825   9.772   5.011 -2.5963 -0.3565 -1.8973
  229MOL0     H30873  -0.997   9.870   5.164  0.2644  0.0356  0.0258
  229MOL0     H30874  -1.031   9.849   4.998  1.5802 -0.6833  0.8956
  229MOL0     H30875  -1.216   9.920   4.932 -0.8621 -0.1461  0.3907
  229MOL0     H30876  -1.534   9.963   4.987 -0.2353 -0.1182  0.9239
  229MOL0     H30877  -1.546  10.055   4.830  1.3104 -0.7707 -1.1506
  229MOL0     H30878  -1.439   9.930   4.839  0.5192  0.8212 -0.6109
  229MOL0     H30879  -1.769  10.215   5.089 -0.6945  0.0951 -2.5313
  229MOL0     H30880  -2.005  10.311   5.101  1.2607 -1.7127  0.9070
  229MOL0     H30881  -2.098  10.504   5.336 -0.3566  0.4759  0.7058
  229MOL0     H30882  -2.093  10.678   5.325  2.3241 -1.3997  0.7757
  229MOL0     H30883  -2.318  10.644   5.192  0.7223 -1.1788 -2.9113
  229MOL0     H30884  -2.302  10.475   5.225  3.7638  0.1833 -1.8182
  229MOL0     H30885  -2.285  10.662   5.464  0.9876  1.8621 -1.2472
  229MOL0     H30886  -2.330  10.493   5.457 -0.5860  1.3326  0.1443
  229MOL0     H30887  -2.472  10.740   5.363  1.6772 -1.3429 -2.4102
  229MOL0     H30888  -2.547  10.572   5.331 -0.8217 -0.8785  0.8151
  229MOL0     H30889  -2.486  10.717   5.594  0.5309 -1.6472  1.1813
  229MOL0     H30890  -2.546  10.551   5.585  0.5257  0.7760  0.9888
  229MOL0     H30891  -2.711  10.744   5.641  1.2539  0.5481  0.7000
  229MOL0     H30892  -2.708  10.774   5.464  2.1807 -1.5641 -2.0398
  229MOL0     H30893  -2.790  10.527   5.619  2.7004 -2.9742 -1.6618
  229MOL0     H30894  -2.738  10.521   5.457  1.1310  3.9560 -2.2988
  229MOL0     H30895  -2.965  10.672   5.399 -3.2437  1.5682  0.9037
  229MOL0     H30896  -2.970  10.703   5.564  1.9795  0.3596  1.5183
  229MOL0     H30897  -1.842  10.692   5.142 -1.1117 -0.0587 -1.6332
  229MOL0     H30898  -1.609  10.587   5.139 -0.1260  0.5447  0.4768
  229MOL0     H30899  -1.276  10.387   5.092  2.4794  0.2491 -1.2510
  229MOL0     H30900  -1.068  10.288   5.113  0.5798  0.3396 -1.1281
  229MOL0     H30901  -0.182  10.925   4.970  0.9317 -0.7557 -3.1081
  229MOL0     H30902  -0.008  11.060   4.915 -4.3156 -1.4314 -0.3593
  229MOL0     H30903   0.423  11.079   4.674  0.3817  0.6584 -0.5093
  229MOL0     H30904   0.658  11.167   4.641 -0.6679  0.3523  0.1122
  229MOL0     H30905   0.864  11.225   4.660  0.9951  0.8961 -0.5607
  229MOL0     H30906   1.018  11.221   4.749 -1.5037  2.1255  1.6528
  229MOL0     H30907   0.965  11.072   4.553 -2.4451 -0.0017  0.0130
  229MOL0     H30908   0.872  10.964   4.656 -0.0797 -0.7051 -2.2278
  229MOL0     H30909   1.106  10.986   4.794 -1.1651  1.2915  0.4087
  229MOL0     H30910   1.172  11.016   4.643  0.8862 -0.0753  3.4801
  229MOL0     H30911   0.997  10.782   4.689 -0.7918  2.2281 -0.1042
  229MOL0     H30912   1.166  10.774   4.720 -1.0658 -0.1385  1.3913
  229MOL0     H30913   1.146  10.787   4.282  0.2147  1.6202 -0.4892
  229MOL0     H30914   0.724  11.110   5.062  2.2442  1.5814 -0.8414
  229MOL0     H30915   0.476  11.074   5.091 -0.7495 -0.0114 -1.3263
  230MOL0     O30916   7.167   0.441   4.976  0.7856 -0.0708  0.6236
  230MOL0     C30917   7.119   0.526   5.053  0.5003 -0.7014  0.1088
  230MOL0     O30918   7.055   0.642   5.014  0.1670  0.5770 -0.9909
  230MOL0     C30919   7.066   0.680   4.888  0.7101  0.5002 -1.6243
  230MOL0     C30920   7.172   0.672   4.797  0.2764  0.3878  0.4895
  230MOL0     C30921   7.150   0.718   4.667  0.3130  0.2039  1.3074
  230MOL0     C30922   7.034   0.775   4.633 -0.5477 -0.3233 -0.4839
  230MOL0     O30923   7.019   0.836   4.506  0.3282  0.0210 -0.7461
  230MOL0     C30924   7.021   0.741   4.403  0.8500 -1.1740  0.2041
  230MOL0     C30925   6.943   0.804   4.283 -0.7581 -0.9573 -0.7442
  230MOL0     C30926   6.906   0.684   4.182  0.7479 -0.2841  0.2879
  230MOL0     C30927   6.772   0.617   4.227  0.6935 -0.9760  0.7691
  230MOL0     C30928   6.728   0.546   4.105 -0.2615  0.5948 -0.1288
  230MOL0     C30929   6.608   0.451   4.128  1.1835  0.7523 -0.8398
  230MOL0     C30930   6.517   0.412   4.009  0.8846 -0.0799  0.1433
  230MOL0     C30931   6.582   0.296   3.932  0.0605 -0.3336 -0.1235
  230MOL0     N30932   6.491   0.230   3.835 -0.5900 -0.0770  0.1359
  230MOL0     C30933   6.497   0.247   3.697  0.3523 -0.4260 -0.2353
  230MOL0     C30934   6.378   0.195   3.654 -0.7535 -0.0680 -0.4241
  230MOL0     C30935   6.341   0.203   3.510 -1.2016  0.1800 -0.3639
  230MOL0     C30936   6.459   0.160   3.410  0.0309 -0.7826  0.1804
  230MOL0     C30937   6.411   0.149   3.260  0.5301  0.0543  1.3811
  230MOL0     C30938   6.440   0.277   3.187 -1.5719 -0.4462  0.0114
  230MOL0     O30939   6.386   0.385   3.255  0.5311 -0.3147 -0.1238
  230MOL0     C30940   6.247   0.403   3.245 -0.7358  0.2498  0.7589
  230MOL0     C30941   6.194   0.495   3.330  0.0811 -0.5352 -0.1830
  230MOL0     C30942   6.058   0.526   3.336  0.1319  0.2720  0.1610
  230MOL0     C30943   6.010   0.627   3.439 -0.6134  0.3604 -1.4559
  230MOL0     C30944   5.969   0.469   3.244  0.7448  0.0101 -0.1306
  230MOL0     C30945   5.825   0.480   3.263 -0.0193  0.5806 -0.3947
  230MOL0     O30946   5.752   0.535   3.158 -0.3309  0.0338 -0.0042
  230MOL0     C30947   5.621   0.562   3.180 -0.1811 -0.4569 -1.0077
  230MOL0     C30948   5.582   0.698   3.187 -0.7755  0.0322  0.6416
  230MOL0     C30949   5.445   0.750   3.199 -0.1432  0.5019 -0.0325
  230MOL0     C30950   5.354   0.651   3.206  1.3022 -0.3048  0.4066
  230MOL0     O30951   5.224   0.684   3.204  0.9137  0.1218  0.0770
  230MOL0     C30952   5.127   0.601   3.261 -0.3482 -0.0968  0.0716
  230MOL0     C30953   4.992   0.662   3.260 -0.5692 -0.3648  0.9956
  230MOL0     C30954   4.972   0.804   3.320  0.3442 -0.2900  0.1432
  230MOL0     C30955   4.833   0.843   3.351 -0.7210 -0.2602 -0.3258
  230MOL0     C30956   4.827   0.990   3.376 -0.2961  0.3251 -0.7412
  230MOL0     C30957   4.678   1.030   3.376  0.1684 -0.3219  0.4279
  230MOL0     C30958   4.630   1.045   3.232 -0.6206  0.2822  0.1926
  230MOL0     C30959   4.541   1.172   3.205  0.4275  0.1175 -0.4446
  230MOL0    Cl30960   4.617   1.319   3.259  0.3128 -0.5230  0.1957
  230MOL0     C30961   5.383   0.514   3.206 -0.4561  0.8771 -0.4605
  230MOL0     C30962   5.517   0.470   3.188  1.2096 -0.1580  0.1318
  230MOL0     O30963   5.770   0.432   3.366  0.3019 -0.6078 -0.2350
  230MOL0     C30964   6.024   0.380   3.144  0.1580  0.1634 -0.2672
  230MOL0     C30965   6.159   0.351   3.139  0.2207 -0.5568 -0.1250
  230MOL0     N30966   6.308   0.143   3.759 -0.1364  0.5297  0.5140
  230MOL0     N30967   6.367   0.175   3.873 -0.4420  0.2692 -0.4337
  230MOL0     C30968   6.934   0.797   4.728  0.2163  0.7215  0.5678
  230MOL0     C30969   6.944   0.743   4.850 -0.5416  0.4601  0.0689
  230MOL0     C30970   7.124   0.489   5.194  0.2247 -0.1027 -0.0043
  230MOL0     C30971   7.088   0.578   5.289  0.5406 -0.4011  0.0965
  230MOL0     C30972   7.082   0.541   5.422  1.7174 -0.3368 -1.0719
  230MOL0     C30973   7.128   0.424   5.472 -0.4170  0.2339 -0.2223
  230MOL0     O30974   7.114   0.397   5.603  0.5250  0.2068 -0.0074
  230MOL0     C30975   7.148   0.261   5.648  0.0520  0.2841 -0.5414
  230MOL0     C30976   7.117   0.250   5.800 -0.2733 -0.6851  0.0276
  230MOL0     C30977   7.231   0.324   5.878  0.1461 -0.0228 -0.0088
  230MOL0     C30978   7.209   0.309   6.031  0.9381  1.4299 -0.1044
  230MOL0     C30979   7.221   0.167   6.078  0.1436 -0.3043  0.4003
  230MOL0     C30980   7.244   0.050   6.106  0.6145 -0.7757 -0.1914
  230MOL0     C30981   7.177   0.330   5.378  1.5173  0.0599  0.0989
  230MOL0     C30982   7.169   0.365   5.237 -0.8322  0.3878 -0.1147
  230MOL0     H30983   7.256   0.611   4.828  0.9238  1.7746  1.6028
  230MOL0     H30984   7.229   0.721   4.592 -0.7126  0.3064  0.1878
  230MOL0     H30985   7.125   0.709   4.390  0.1319 -3.5983  0.0091
  230MOL0     H30986   6.972   0.646   4.424 -2.3259  0.0343 -1.1510
  230MOL0     H30987   6.848   0.841   4.321  0.2743 -1.3351  2.4764
  230MOL0     H30988   7.013   0.869   4.230 -0.1910 -0.3766  0.6709
  230MOL0     H30989   6.895   0.731   4.083  1.4993 -2.4822 -0.9066
  230MOL0     H30990   6.975   0.600   4.173 -1.3939 -1.9974 -1.3732
  230MOL0     H30991   6.788   0.565   4.321  1.2002  0.3245  1.4271
  230MOL0     H30992   6.700   0.696   4.252  0.9493 -0.1933 -0.8317
  230MOL0     H30993   6.712   0.624   4.029  1.3622 -0.2457 -1.3985
  230MOL0     H30994   6.808   0.480   4.071  0.0001  1.2035 -0.7273
  230MOL0     H30995   6.636   0.363   4.187  1.0494 -0.9060 -3.0836
  230MOL0     H30996   6.552   0.513   4.198 -0.4806 -2.4708  0.9136
  230MOL0     H30997   6.418   0.386   4.050  0.0980 -0.2873 -1.7819
  230MOL0     H30998   6.494   0.499   3.948  3.2704 -0.7299 -1.8355
  230MOL0     H30999   6.606   0.217   4.003  2.6928 -0.5248 -1.1312
  230MOL0     H31000   6.674   0.319   3.877 -1.3829 -4.2925 -4.8714
  230MOL0     H31001   6.577   0.301   3.646  0.1803  2.0012  1.8889
  230MOL0     H31002   6.264   0.126   3.511 -1.3209  0.2918  0.7914
  230MOL0     H31003   6.285   0.294   3.485 -2.0997 -0.3630 -0.3655
  230MOL0     H31004   6.492   0.057   3.429  0.3480 -1.9045 -5.0659
  230MOL0     H31005   6.547   0.222   3.426 -0.3831  0.6399 -2.4786
  230MOL0     H31006   6.309   0.118   3.237  1.3021 -0.2650 -2.0904
  230MOL0     H31007   6.478   0.072   3.221 -1.7096 -0.7411 -1.1554
  230MOL0     H31008   6.418   0.283   3.080 -3.3220  1.6943  0.4141
  230MOL0     H31009   6.547   0.293   3.203 -0.7445 -4.1886 -0.8950
  230MOL0     H31010   6.264   0.548   3.394 -1.5502  0.6204  0.7214
  230MOL0     H31011   6.073   0.715   3.420  0.8248 -0.2582  0.1633
  230MOL0     H31012   5.903   0.647   3.437 -0.7223 -0.0791 -0.6445
  230MOL0     H31013   6.034   0.581   3.536 -0.5020  0.7894 -1.2771
  230MOL0     H31014   5.663   0.770   3.184 -0.7917  0.0191 -0.3775
  230MOL0     H31015   5.403   0.849   3.186 -3.4648 -1.0439 -2.3688
  230MOL0     H31016   5.131   0.500   3.218 -1.2542 -0.2533  0.3494
  230MOL0     H31017   5.150   0.582   3.366  1.0747  0.6028 -0.0895
  230MOL0     H31018   4.965   0.657   3.155 -1.4546  0.6157  1.1608
  230MOL0     H31019   4.925   0.591   3.309 -0.2005 -2.2154 -1.0620
  230MOL0     H31020   5.013   0.874   3.247  0.2470  1.9704  2.1359
  230MOL0     H31021   5.039   0.807   3.407  0.4396 -3.5232  0.2978
  230MOL0     H31022   4.774   0.828   3.260  0.3983 -0.0271 -1.1150
  230MOL0     H31023   4.798   0.785   3.437  1.6448  2.2503  2.6016
  230MOL0     H31024   4.894   1.051   3.314  0.6705 -0.0513 -0.0825
  230MOL0     H31025   4.858   1.008   3.479 -2.3089 -0.8372  0.1137
  230MOL0     H31026   4.614   0.964   3.436 -0.3009 -0.7671 -0.5426
  230MOL0     H31027   4.676   1.129   3.423 -3.0522 -1.1165  2.2590
  230MOL0     H31028   4.570   0.955   3.217  0.6547 -1.0797  2.6296
  230MOL0     H31029   4.716   1.030   3.165 -0.5348 -2.5239  0.7808
  230MOL0     H31030   4.448   1.167   3.262  1.3811 -0.3637  1.1387
  230MOL0     H31031   4.500   1.177   3.103  0.9007  0.1928 -0.6344
  230MOL0     H31032   5.317   0.430   3.190  1.4177 -0.9671  0.8720
  230MOL0     H31033   5.538   0.366   3.166  1.1635  0.4745 -3.6280
  230MOL0     H31034   5.962   0.325   3.074 -2.4226  0.0740  1.9259
  230MOL0     H31035   6.203   0.296   3.057 -0.4961 -0.2768 -0.7094
  230MOL0     H31036   6.844   0.849   4.697  0.5560  1.8670  1.4360
  230MOL0     H31037   6.861   0.763   4.918 -1.6258  2.4111 -1.7383
  230MOL0     H31038   7.081   0.683   5.262 -2.4719  0.2859  2.8728
  230MOL0     H31039   7.061   0.609   5.504 -0.6856 -4.4622  2.1045
  230MOL0     H31040   7.079   0.191   5.599  1.2418 -0.3151 -1.3922
  230MOL0     H31041   7.251   0.240   5.619  0.8644 -0.5635  2.5388
  230MOL0     H31042   7.098   0.145   5.827 -2.0467 -0.5128 -0.4522
  230MOL0     H31043   7.021   0.299   5.813 -0.2313 -0.5818 -0.0541
  230MOL0     H31044   7.232   0.427   5.842  2.7577 -0.7554 -2.3819
  230MOL0     H31045   7.325   0.275   5.853  0.1543 -0.7761  1.3513
  230MOL0     H31046   7.109   0.342   6.061  0.4630 -0.0127 -0.0233
  230MOL0     H31047   7.288   0.367   6.080 -0.9700  2.3334  2.0529
  230MOL0     H31048   7.279  -0.048   6.129 -0.1168 -0.7248  1.3062
  230MOL0     H31049   7.201   0.228   5.409 -2.2139 -1.6706 -1.9530
  230MOL0     H31050   7.210   0.284   5.176 -0.5497 -0.6689  1.4232
  231MOL0     O31051   1.682   3.234   3.031  0.3263 -0.0003  1.1216
  231MOL0     C31052   1.675   3.174   3.139  1.2147 -0.0542 -0.5294
  231MOL0     O31053   1.558   3.143   3.200  0.5775  0.1159  0.2706
  231MOL0     C31054   1.433   3.201   3.157 -0.4422  0.4371  0.1750
  231MOL0     C31055   1.415   3.341   3.168  0.2022  0.5226 -0.1123
  231MOL0     C31056   1.286   3.391   3.132 -0.2041  0.9094 -0.5526
  231MOL0     C31057   1.184   3.311   3.078 -1.0327  0.2320  0.2136
  231MOL0     O31058   1.063   3.356   3.045  0.5459 -0.1733  0.1543
  231MOL0     C31059   1.008   3.448   3.143  0.6343 -0.5769 -0.2674
  231MOL0     C31060   0.860   3.482   3.120  0.2406 -0.6091  0.1906
  231MOL0     C31061   0.761   3.369   3.147 -0.2211 -0.7763 -0.2924
  231MOL0     C31062   0.616   3.407   3.161  0.1632  0.6960 -0.0254
  231MOL0     C31063   0.517   3.298   3.165  0.3058 -1.4455 -0.0744
  231MOL0     C31064   0.371   3.346   3.194  0.2615  0.4261  0.2549
  231MOL0     C31065   0.287   3.208   3.210  0.5828 -0.6822 -0.6448
  231MOL0     C31066   0.152   3.233   3.278 -0.2086  1.0412 -0.4524
  231MOL0     N31067   0.068   3.109   3.282 -0.0930 -0.3109 -0.1067
  231MOL0     C31068   0.028   3.022   3.178  0.0626  0.3263 -0.0004
  231MOL0     C31069  -0.062   2.940   3.233 -0.5254 -0.0003 -1.2864
  231MOL0     C31070  -0.138   2.832   3.171 -0.2823 -0.7792 -0.2834
  231MOL0     C31071  -0.238   2.894   3.080  0.1135  0.7298 -0.0707
  231MOL0     C31072  -0.324   2.784   3.007 -0.5374 -0.2843  0.5667
  231MOL0     C31073  -0.426   2.844   2.906 -0.1777 -0.4716  0.8804
  231MOL0     O31074  -0.478   2.963   2.961 -0.4240 -0.0655  0.2526
  231MOL0     C31075  -0.573   2.946   3.059  0.1329 -0.8230  0.7209
  231MOL0     C31076  -0.605   3.065   3.127  0.0337  0.0453 -0.7127
  231MOL0     C31077  -0.696   3.063   3.236  0.5092  0.4790  1.4206
  231MOL0     C31078  -0.719   3.200   3.297 -1.2169  0.3843  0.4744
  231MOL0     C31079  -0.770   2.944   3.266 -0.3163 -0.8219  0.7691
  231MOL0     C31080  -0.869   2.941   3.367  0.6714  0.8052 -0.4971
  231MOL0     O31081  -0.970   2.856   3.349 -0.4712  0.4294 -0.5365
  231MOL0     C31082  -1.048   2.821   3.458 -1.1422  0.4350  0.2390
  231MOL0     C31083  -1.069   2.678   3.479 -0.3645 -0.4565  0.5106
  231MOL0     C31084  -1.155   2.636   3.581  0.6154 -0.1449 -0.0639
  231MOL0     C31085  -1.214   2.729   3.668 -0.1272  1.0477  0.9409
  231MOL0     O31086  -1.278   2.692   3.777  0.6937 -0.3804  0.0583
  231MOL0     C31087  -1.403   2.628   3.753 -0.4052  0.5422 -1.1058
  231MOL0     C31088  -1.499   2.737   3.720 -0.3717  0.0051 -0.3383
  231MOL0     C31089  -1.518   2.746   3.572 -0.2248 -0.9557  0.3993
  231MOL0     C31090  -1.611   2.862   3.540 -0.7911  0.0225 -0.0043
  231MOL0     C31091  -1.679   2.844   3.394  0.9628  0.7947  0.6348
  231MOL0     C31092  -1.829   2.884   3.396 -0.0870 -0.4689 -0.1625
  231MOL0     C31093  -1.866   2.887   3.252  0.6946  0.1334  0.6041
  231MOL0     C31094  -2.016   2.922   3.237  0.2932 -0.1880 -0.8992
  231MOL0    Cl31095  -2.086   2.871   3.093  0.1282  0.4951 -0.4655
  231MOL0     C31096  -1.187   2.871   3.642  0.4650  0.0950 -0.5313
  231MOL0     C31097  -1.102   2.917   3.541 -0.3197  0.5855  0.0639
  231MOL0     O31098  -0.835   2.999   3.473  0.1657  0.2030  0.0232
  231MOL0     C31099  -0.749   2.828   3.189 -0.2548  0.1681 -0.3975
  231MOL0     C31100  -0.651   2.827   3.081  0.2871 -0.4714  0.4138
  231MOL0     N31101  -0.065   2.968   3.369  0.1810 -0.0327  0.3046
  231MOL0     N31102   0.014   3.069   3.395  0.7605 -0.2710  0.0818
  231MOL0     C31103   1.203   3.170   3.067  0.1884 -0.6110  0.0422
  231MOL0     C31104   1.329   3.117   3.103 -0.0964  0.4955  0.5689
  231MOL0     C31105   1.801   3.137   3.221  0.8162  0.1077 -0.3052
  231MOL0     C31106   1.932   3.168   3.168  1.0647  0.5358 -0.5224
  231MOL0     C31107   2.048   3.130   3.240  0.4719 -0.5705  0.5160
  231MOL0     C31108   2.032   3.102   3.379 -1.1143  0.3813  0.0197
  231MOL0     O31109   2.143   3.100   3.457  0.8497 -0.3435  1.2802
  231MOL0     C31110   2.222   2.983   3.426  0.3651 -0.4166  0.3980
  231MOL0     C31111   2.357   3.029   3.382 -0.5327  0.3837  1.4726
  231MOL0     C31112   2.425   2.913   3.310  0.3178 -0.2526  0.1729
  231MOL0     C31113   2.579   2.932   3.308  1.1737  0.8815  0.2947
  231MOL0     C31114   2.644   2.801   3.317 -1.3996 -0.1222 -0.7433
  231MOL0     C31115   2.685   2.687   3.339  0.1221  0.4080 -0.4707
  231MOL0     C31116   1.905   3.098   3.436 -0.4971 -0.1029 -0.2561
  231MOL0     C31117   1.793   3.098   3.358  1.1594 -0.2644 -0.3165
  231MOL0     H31118   1.490   3.415   3.196 -0.4198  1.4463 -0.8148
  231MOL0     H31119   1.270   3.497   3.147 -0.9335  0.5390  1.8473
  231MOL0     H31120   1.025   3.407   3.243 -1.3622  1.0877  0.8420
  231MOL0     H31121   1.057   3.546   3.134 -2.9037  1.2412 -1.5135
  231MOL0     H31122   0.831   3.570   3.178  1.9265  1.5794 -2.0838
  231MOL0     H31123   0.854   3.507   3.014 -1.9675 -0.2904  0.3335
  231MOL0     H31124   0.767   3.299   3.063  0.4062 -1.4739  0.3219
  231MOL0     H31125   0.790   3.329   3.245 -1.4856  0.8012  0.7761
  231MOL0     H31126   0.607   3.469   3.251  0.4807 -1.0342  1.2394
  231MOL0     H31127   0.588   3.473   3.078 -2.2746 -2.2609 -1.7438
  231MOL0     H31128   0.532   3.259   3.064  3.8017 -0.1577 -0.1817
  231MOL0     H31129   0.545   3.222   3.238  0.3257  0.2428  1.7658
  231MOL0     H31130   0.345   3.404   3.283 -2.1868 -0.9260  0.5202
  231MOL0     H31131   0.330   3.392   3.103  0.1953 -1.3448 -0.6548
  231MOL0     H31132   0.257   3.170   3.111 -0.6210  0.6929 -0.8387
  231MOL0     H31133   0.335   3.130   3.271 -0.3894  0.2544  1.3707
  231MOL0     H31134   0.097   3.315   3.229 -1.4170  0.1981 -0.5434
  231MOL0     H31135   0.163   3.281   3.376  4.3225  1.1414 -0.8329
  231MOL0     H31136   0.057   3.029   3.073 -3.1136  1.3598 -0.9322
  231MOL0     H31137  -0.067   2.762   3.126  0.4738 -1.2846  1.6203
  231MOL0     H31138  -0.187   2.773   3.249  0.9483 -0.1953  0.9628
  231MOL0     H31139  -0.192   2.943   2.994  1.2121 -0.2058 -0.0310
  231MOL0     H31140  -0.292   2.965   3.143  1.5625 -1.1452  3.5770
  231MOL0     H31141  -0.377   2.729   3.086 -2.1306  1.3892  0.7276
  231MOL0     H31142  -0.266   2.708   2.954 -3.4206 -1.2045 -1.5010
  231MOL0     H31143  -0.502   2.775   2.867 -1.8989  0.8536  1.7253
  231MOL0     H31144  -0.373   2.882   2.818  1.2281 -0.0608  1.8689
  231MOL0     H31145  -0.555   3.156   3.099  1.9845 -0.1492  1.7370
  231MOL0     H31146  -0.693   3.192   3.403 -0.9912  1.3723  0.5096
  231MOL0     H31147  -0.648   3.272   3.254  1.6535 -4.3101 -3.6478
  231MOL0     H31148  -0.824   3.230   3.297 -1.0282  1.0680  0.1272
  231MOL0     H31149  -1.025   2.608   3.410  2.8076  2.2540 -0.4823
  231MOL0     H31150  -1.176   2.531   3.598 -0.6037 -0.8648 -4.5929
  231MOL0     H31151  -1.391   2.550   3.677  2.2072 -0.2977  0.0695
  231MOL0     H31152  -1.444   2.575   3.839  1.4482 -1.2245 -1.2551
  231MOL0     H31153  -1.593   2.716   3.772  0.9088 -0.1829  1.9771
  231MOL0     H31154  -1.463   2.831   3.763 -0.6496  0.1584 -0.4331
  231MOL0     H31155  -1.552   2.652   3.526  1.7265 -2.6029  2.1676
  231MOL0     H31156  -1.417   2.764   3.534  0.9050 -0.5358  3.3360
  231MOL0     H31157  -1.691   2.867   3.613 -1.9476 -2.3685 -0.9670
  231MOL0     H31158  -1.550   2.953   3.537  3.2657 -2.4162 -2.1342
  231MOL0     H31159  -1.688   2.739   3.367  0.6439  1.5263 -2.5224
  231MOL0     H31160  -1.631   2.906   3.317 -1.7895  0.8324 -1.1716
  231MOL0     H31161  -1.887   2.802   3.439  1.3841 -1.2174  0.4738
  231MOL0     H31162  -1.845   2.984   3.437  0.2071  0.1996 -1.5966
  231MOL0     H31163  -1.854   2.790   3.203  1.2416  0.2787  0.4456
  231MOL0     H31164  -1.813   2.959   3.188  1.5994  1.0168  2.2992
  231MOL0     H31165  -2.032   3.029   3.257  0.0105  0.6234 -4.7070
  231MOL0     H31166  -2.055   2.867   3.323  2.0797 -0.0788  0.0458
  231MOL0     H31167  -1.227   2.938   3.718 -1.0608 -0.8409 -0.4760
  231MOL0     H31168  -1.078   3.022   3.530  0.5685  0.2552 -1.5015
  231MOL0     H31169  -0.801   2.740   3.227 -1.2434  0.7166 -0.4625
  231MOL0     H31170  -0.649   2.740   3.017 -2.7617  1.0018 -1.9919
  231MOL0     H31171   1.131   3.100   3.026  0.7714 -0.2544 -1.6962
  231MOL0     H31172   1.352   3.014   3.079 -1.5339 -0.5128  3.1399
  231MOL0     H31173   1.916   3.215   3.071 -5.1898 -1.4507 -0.9155
  231MOL0     H31174   2.142   3.145   3.190  0.5457  1.5575  1.1798
  231MOL0     H31175   2.230   2.933   3.523  0.4261  0.6427  0.9603
  231MOL0     H31176   2.178   2.916   3.352  0.5592 -2.6771  2.2097
  231MOL0     H31177   2.413   3.038   3.475 -0.0632  2.7061  1.0116
  231MOL0     H31178   2.356   3.118   3.318 -1.5784 -0.9511 -0.4767
  231MOL0     H31179   2.389   2.913   3.207 -1.0185 -0.3735  0.6096
  231MOL0     H31180   2.409   2.826   3.375  0.4409 -0.3608  0.0588
  231MOL0     H31181   2.618   2.987   3.395  1.1247  1.6812 -0.1805
  231MOL0     H31182   2.604   2.976   3.211 -0.4917  0.7214 -0.2384
  231MOL0     H31183   2.736   2.600   3.375  1.2349  1.6565  1.1170
  231MOL0     H31184   1.913   3.067   3.540 -3.5641 -1.3631 -0.3013
  231MOL0     H31185   1.697   3.074   3.402 -0.4213  2.6667 -1.9050
  232MOL0     O31186   2.408   2.859   4.597 -0.3606  0.2341  0.0163
  232MOL0     C31187   2.394   2.984   4.592  0.1685  0.7377  0.5244
  232MOL0     O31188   2.279   3.047   4.548  0.8154  0.3694 -0.1888
  232MOL0     C31189   2.158   2.977   4.537 -0.2109 -0.0221  0.0029
  232MOL0     C31190   2.054   2.996   4.639 -1.4319 -0.1031 -0.0043
  232MOL0     C31191   1.937   2.929   4.617  0.5961  0.1351 -0.5985
  232MOL0     C31192   1.908   2.854   4.497  0.4918 -0.2190 -0.8668
  232MOL0     O31193   1.780   2.798   4.490 -0.8551  0.4919  0.1938
  232MOL0     C31194   1.790   2.652   4.496  0.2119  0.4331 -0.0654
  232MOL0     C31195   1.648   2.598   4.520 -0.4044  0.8812  0.1948
  232MOL0     C31196   1.563   2.639   4.404 -0.1388  0.5184  0.6165
  232MOL0     C31197   1.424   2.586   4.423  0.6083 -0.7943 -0.8171
  232MOL0     C31198   1.346   2.581   4.301  0.5993 -0.0612 -0.1224
  232MOL0     C31199   1.198   2.542   4.317  0.0408  0.7060 -0.0693
  232MOL0     C31200   1.110   2.551   4.196  0.1588  0.8851  0.3314
  232MOL0     C31201   1.017   2.427   4.194 -0.0521 -0.4937 -0.6907
  232MOL0     N31202   0.916   2.437   4.299  0.0869  0.6376  0.0989
  232MOL0     C31203   0.784   2.414   4.273  0.4800 -0.0965 -0.3292
  232MOL0     C31204   0.737   2.351   4.382 -0.7942 -0.2332  0.5993
  232MOL0     C31205   0.599   2.296   4.393  0.1589  1.0091 -0.2633
  232MOL0     C31206   0.508   2.337   4.288  0.2782 -0.5700  0.2673
  232MOL0     C31207   0.369   2.303   4.303 -0.3508  0.2813 -0.0166
  232MOL0     C31208   0.331   2.156   4.289 -0.4495  0.4491  0.2685
  232MOL0     O31209   0.208   2.120   4.352  0.2336  0.0096 -0.0827
  232MOL0     C31210   0.209   2.053   4.469 -0.0509  0.6896 -0.0470
  232MOL0     C31211   0.137   1.935   4.482 -0.4504 -0.1414 -1.3272
  232MOL0     C31212   0.130   1.856   4.598 -0.5702  0.1173  0.2206
  232MOL0     C31213   0.045   1.732   4.601  0.8822 -0.0040  0.4903
  232MOL0     C31214   0.212   1.895   4.710  0.2214  0.8155  0.5107
  232MOL0     C31215   0.237   1.810   4.830 -0.2528  0.1568 -0.2287
  232MOL0     O31216   0.325   1.852   4.919 -0.1056 -1.1313  0.6434
  232MOL0     C31217   0.376   1.785   5.028  0.8631 -0.4478  0.2679
  232MOL0     C31218   0.401   1.646   5.024 -0.1351  0.7655 -0.8834
  232MOL0     C31219   0.479   1.593   5.128 -0.1087  0.0166 -0.1827
  232MOL0     C31220   0.541   1.663   5.229 -0.4947 -0.1067  0.5233
  232MOL0     O31221   0.614   1.622   5.339  0.2344  0.1203  0.1049
  232MOL0     C31222   0.687   1.491   5.323  0.1722  0.9811  0.1041
  232MOL0     C31223   0.748   1.448   5.453 -1.0259  0.5409  0.0763
  232MOL0     C31224   0.871   1.360   5.419 -0.0027 -0.3685  0.2312
  232MOL0     C31225   0.967   1.327   5.532  0.0511 -0.4566 -0.1200
  232MOL0     C31226   0.879   1.300   5.662 -0.8457  0.4849  0.5283
  232MOL0     C31227   0.972   1.245   5.770 -0.0557  1.3009 -0.0715
  232MOL0     C31228   0.969   1.089   5.785  0.2579  0.4739 -0.4849
  232MOL0     C31229   1.097   1.048   5.855 -0.8453  0.0313 -0.2056
  232MOL0    Cl31230   1.089   1.092   6.017  0.4693  0.3413 -0.4702
  232MOL0     C31231   0.523   1.804   5.218 -0.5754 -0.0789  0.2029
  232MOL0     C31232   0.435   1.855   5.126 -0.1592 -0.5666 -0.1960
  232MOL0     O31233   0.171   1.704   4.851 -0.2639  0.4203 -0.7386
  232MOL0     C31234   0.271   2.019   4.702  0.6673 -0.3769 -0.4896
  232MOL0     C31235   0.273   2.094   4.585  0.1444  0.2545 -0.0631
  232MOL0     N31236   0.825   2.353   4.476 -0.0740  0.3383 -0.2524
  232MOL0     N31237   0.937   2.404   4.425 -0.0241 -0.7364  0.6110
  232MOL0     C31238   2.006   2.844   4.396  0.6071  0.9707  0.3174
  232MOL0     C31239   2.122   2.916   4.416  0.6951  0.8825  0.1583
  232MOL0     C31240   2.518   3.061   4.623  0.7754 -0.3183  0.2337
  232MOL0     C31241   2.519   3.199   4.654  0.2761 -0.1966  0.7772
  232MOL0     C31242   2.634   3.273   4.680  0.2921 -0.3727 -0.5542
  232MOL0     C31243   2.759   3.213   4.661  0.6815  0.0498  0.7033
  232MOL0     O31244   2.857   3.313   4.662 -0.3350 -0.2426  1.0085
  232MOL0     C31245   2.989   3.291   4.599  0.2477  0.9016 -0.2763
  232MOL0     C31246   3.091   3.394   4.635 -1.1540  0.2136 -1.1441
  232MOL0     C31247   3.049   3.537   4.612  0.2957 -0.1036 -0.6912
  232MOL0     C31248   3.167   3.628   4.588 -0.0146  0.7770  0.4166
  232MOL0     C31249   3.214   3.609   4.447  0.4369  1.0616  0.6815
  232MOL0     C31250   3.246   3.586   4.332 -0.5159 -0.0850  0.1874
  232MOL0     C31251   2.762   3.069   4.635 -0.3316  1.3111 -0.2926
  232MOL0     C31252   2.649   2.996   4.623 -0.7162 -0.0154  0.1587
  232MOL0     H31253   2.067   3.058   4.727  0.3425 -0.6671  0.1688
  232MOL0     H31254   1.853   2.940   4.684  0.9984  0.9589 -0.2177
  232MOL0     H31255   1.845   2.608   4.413  0.1130 -1.6731  0.9385
  232MOL0     H31256   1.835   2.638   4.594 -2.0605 -1.4672  0.7944
  232MOL0     H31257   1.658   2.491   4.541  2.4709  1.6427  3.8038
  232MOL0     H31258   1.607   2.636   4.614  0.4534 -0.7506  1.2779
  232MOL0     H31259   1.548   2.747   4.397  0.0343  0.5387  0.5729
  232MOL0     H31260   1.609   2.603   4.312 -3.2761 -4.5828  0.6833
  232MOL0     H31261   1.422   2.481   4.451  2.1642 -0.9921 -1.3576
  232MOL0     H31262   1.367   2.642   4.498  0.2226 -4.0475  1.4966
  232MOL0     H31263   1.339   2.678   4.251 -0.2659  0.1227  0.3436
  232MOL0     H31264   1.396   2.512   4.233 -0.6263  1.0909 -2.2942
  232MOL0     H31265   1.191   2.446   4.368  0.3582  1.0829  0.7030
  232MOL0     H31266   1.164   2.615   4.392  0.5408 -0.1107  0.9748
  232MOL0     H31267   1.060   2.647   4.201 -0.6842  0.4879 -0.2259
  232MOL0     H31268   1.167   2.555   4.103 -2.9002  0.4775 -1.7145
  232MOL0     H31269   1.076   2.335   4.204 -1.5101 -1.3628  0.3060
  232MOL0     H31270   0.962   2.427   4.100 -3.0798  4.3695  0.6773
  232MOL0     H31271   0.726   2.434   4.183 -1.2099 -1.0275  0.4975
  232MOL0     H31272   0.603   2.187   4.379  0.6662  1.2879 -2.7891
  232MOL0     H31273   0.556   2.313   4.492 -0.0080  1.7009 -0.4509
  232MOL0     H31274   0.543   2.293   4.194 -1.2955 -0.7529 -0.2688
  232MOL0     H31275   0.514   2.445   4.271  1.6340 -0.8152 -1.1249
  232MOL0     H31276   0.311   2.350   4.222  2.4667  2.1313 -1.1307
  232MOL0     H31277   0.332   2.343   4.398  1.7611 -1.3608  1.6015
  232MOL0     H31278   0.414   2.094   4.323  1.0659  2.3573  0.2125
  232MOL0     H31279   0.313   2.127   4.185  0.0911  1.5999 -0.1686
  232MOL0     H31280   0.079   1.902   4.397 -2.0902 -0.3418 -0.1779
  232MOL0     H31281  -0.020   1.729   4.514  2.3213  1.9408 -0.7125
  232MOL0     H31282   0.108   1.643   4.614 -0.6607 -1.6388 -2.3371
  232MOL0     H31283  -0.028   1.737   4.683  0.3755 -0.6680  0.0842
  232MOL0     H31284   0.370   1.582   4.941  2.0052  0.8504 -1.8107
  232MOL0     H31285   0.492   1.486   5.112 -0.2795 -0.0292 -0.0172
  232MOL0     H31286   0.619   1.409   5.297 -0.1788  0.9264  1.1419
  232MOL0     H31287   0.767   1.511   5.251 -0.6646  1.6058 -0.6713
  232MOL0     H31288   0.772   1.536   5.514  1.7772 -0.0745  0.0273
  232MOL0     H31289   0.672   1.390   5.505 -2.8571  0.4037 -2.5723
  232MOL0     H31290   0.922   1.395   5.329 -1.3589  0.8236 -0.1053
  232MOL0     H31291   0.827   1.268   5.381 -1.4820 -0.5827  2.3293
  232MOL0     H31292   1.028   1.240   5.505  2.0800  0.2582  1.8250
  232MOL0     H31293   1.032   1.415   5.540  0.8677 -1.1085  0.6590
  232MOL0     H31294   0.804   1.223   5.644 -0.0405  0.1691 -1.8577
  232MOL0     H31295   0.833   1.391   5.701 -0.0292  0.9175  0.5083
  232MOL0     H31296   1.077   1.267   5.748  0.4598 -0.5933  0.3249
  232MOL0     H31297   0.962   1.291   5.869  1.4309  1.2920  0.1071
  232MOL0     H31298   0.940   1.023   5.702 -1.3813 -1.3231  1.4082
  232MOL0     H31299   0.891   1.063   5.857  0.0685 -0.4776 -1.0072
  232MOL0     H31300   1.186   1.085   5.802  0.2099  0.4307  1.7445
  232MOL0     H31301   1.096   0.939   5.866 -4.8607 -0.1501 -0.8016
  232MOL0     H31302   0.571   1.864   5.294  0.6038  0.7155 -1.1335
  232MOL0     H31303   0.429   1.961   5.105  0.6974 -0.8585 -2.1499
  232MOL0     H31304   0.342   2.043   4.780 -0.3196  1.5218 -0.1140
  232MOL0     H31305   0.325   2.189   4.592 -0.9761  1.0692 -2.0784
  232MOL0     H31306   1.977   2.829   4.293  1.8022  0.3497  0.0469
  232MOL0     H31307   2.184   2.949   4.334 -2.4260  1.6219 -2.0811
  232MOL0     H31308   2.422   3.248   4.651  0.0298 -0.7134 -0.6409
  232MOL0     H31309   2.629   3.375   4.717  0.9159 -1.5517  3.1799
  232MOL0     H31310   3.028   3.197   4.638  0.9985  1.5983  0.7169
  232MOL0     H31311   2.981   3.286   4.490  1.4587  0.1325 -0.3490
  232MOL0     H31312   3.174   3.377   4.565  0.3373  3.1710 -0.2438
  232MOL0     H31313   3.122   3.383   4.739 -1.2898  2.0122 -0.8853
  232MOL0     H31314   3.005   3.574   4.704  1.7811 -0.4818  0.2109
  232MOL0     H31315   2.967   3.534   4.540 -1.6770 -0.1603  1.4580
  232MOL0     H31316   3.252   3.601   4.652 -0.1093  1.4044  0.8169
  232MOL0     H31317   3.135   3.732   4.593 -3.3930 -0.2008  1.0993
  232MOL0     H31318   3.282   3.559   4.234 -0.8586  0.8178 -0.1992
  232MOL0     H31319   2.859   3.020   4.632 -0.4010  1.1752 -0.2977
  232MOL0     H31320   2.661   2.888   4.624  0.1227  0.0666 -0.2418
  233MOL0     O31321   2.283   9.431  10.835  0.3035  0.0544 -0.3302
  233MOL0     C31322   2.186   9.504  10.854 -0.0706 -0.3855  0.5498
  233MOL0     O31323   2.108   9.504  10.963 -0.4342 -0.6715  0.3171
  233MOL0     C31324   2.102   9.417  11.068 -0.9821  0.0116  0.3082
  233MOL0     C31325   2.027   9.468  11.182 -0.3770  0.1057 -0.6614
  233MOL0     C31326   1.993   9.386  11.292  0.4136  0.2192  0.2408
  233MOL0     C31327   2.066   9.269  11.311  0.6598  0.1628  0.3244
  233MOL0     O31328   2.078   9.202  11.435  0.4491  0.3091  0.1216
  233MOL0     C31329   2.110   9.271  11.555 -0.9534 -0.2854  0.6603
  233MOL0     C31330   2.090   9.183  11.682 -0.3254 -0.5167 -0.3539
  233MOL0     C31331   1.942   9.143  11.690  0.2237 -0.4325 -0.7821
  233MOL0     C31332   1.919   9.003  11.627 -0.3498  0.3245 -0.3086
  233MOL0     C31333   1.767   8.963  11.638 -0.4019  0.3320 -0.7964
  233MOL0     C31334   1.735   8.831  11.556  0.5488 -0.1673 -0.6819
  233MOL0     C31335   1.714   8.855  11.412  0.3154  0.2821  0.0746
  233MOL0     C31336   1.751   8.728  11.321 -0.2387 -0.5036 -0.4790
  233MOL0     N31337   1.899   8.717  11.290  0.3393  0.2099  0.1746
  233MOL0     C31338   1.985   8.819  11.259 -0.2091 -0.2236 -0.5778
  233MOL0     C31339   2.099   8.749  11.221 -0.0808 -0.4617 -0.7258
  233MOL0     C31340   2.229   8.818  11.189 -0.3207 -0.7425 -0.1966
  233MOL0     C31341   2.357   8.741  11.235  1.1822  0.5407  0.5945
  233MOL0     C31342   2.489   8.805  11.195 -0.1229  0.8131 -0.3405
  233MOL0     C31343   2.513   8.936  11.264 -0.8710  0.6527 -0.5972
  233MOL0     O31344   2.471   9.047  11.182 -0.6297 -0.3752 -0.2511
  233MOL0     C31345   2.565   9.097  11.086 -0.3785 -0.2440 -0.0597
  233MOL0     C31346   2.706   9.056  11.084 -0.2844 -0.6535  0.7734
  233MOL0     C31347   2.789   9.100  10.979 -0.2106 -0.0981  1.0187
  233MOL0     C31348   2.934   9.063  10.984 -0.9543 -0.5864 -0.2282
  233MOL0     C31349   2.731   9.182  10.872  0.2229 -0.8315  0.2513
  233MOL0     C31350   2.796   9.218  10.737 -0.2220 -0.1129 -0.6199
  233MOL0     O31351   2.932   9.193  10.730  0.8265  0.3711  0.2389
  233MOL0     C31352   2.988   9.263  10.628 -0.0344  0.5790  0.4945
  233MOL0     C31353   3.084   9.356  10.669  0.5657 -0.3505  0.4989
  233MOL0     C31354   3.163   9.425  10.572  0.2214  0.2932 -0.0245
  233MOL0     C31355   3.148   9.390  10.437 -0.1547 -0.0670  0.3722
  233MOL0     O31356   3.212   9.471  10.344 -0.3070  0.4994  0.0906
  233MOL0     C31357   3.124   9.548  10.257 -0.8864  0.1674  0.5057
  233MOL0     C31358   3.205   9.607  10.141 -0.2396 -0.2744 -0.2935
  233MOL0     C31359   3.119   9.665  10.031  0.0928  0.2838  0.5882
  233MOL0     C31360   3.200   9.686   9.892  0.2437 -0.4930  0.1789
  233MOL0     C31361   3.094   9.734   9.792 -0.3929 -0.4230  0.3648
  233MOL0     C31362   3.143   9.782   9.651 -0.7519 -0.3874  0.0439
  233MOL0     C31363   3.211   9.673   9.580  0.6603 -0.1919 -0.5324
  233MOL0     C31364   3.241   9.690   9.432 -0.2795 -0.2748  0.7006
  233MOL0    Cl31365   3.364   9.816   9.410  0.6572 -0.0874 -0.7536
  233MOL0     C31366   3.065   9.284  10.393  0.3743  0.6942 -0.6503
  233MOL0     C31367   2.994   9.221  10.496 -0.0813  0.7839  1.1301
  233MOL0     O31368   2.731   9.276  10.655  0.9498  0.0163  0.0248
  233MOL0     C31369   2.592   9.217  10.879 -0.2351  0.4283 -0.6479
  233MOL0     C31370   2.514   9.182  10.989  0.0638 -1.2785 -0.2170
  233MOL0     N31371   2.070   8.610  11.217 -0.5426 -0.5961 -0.0378
  233MOL0     N31372   1.950   8.598  11.263 -0.7909 -0.7822  0.3759
  233MOL0     C31373   2.137   9.215  11.200 -0.0737 -0.6182  0.1422
  233MOL0     C31374   2.148   9.278  11.075  0.5924  0.2579  0.7523
  233MOL0     C31375   2.169   9.611  10.750  0.6596 -0.2400 -0.8185
  233MOL0     C31376   2.233   9.607  10.630 -0.3300 -0.1932  0.4700
  233MOL0     C31377   2.231   9.721  10.540  0.2787  0.0019  0.3958
  233MOL0     C31378   2.152   9.830  10.575 -0.7156  0.3579 -0.2700
  233MOL0     O31379   2.148   9.939  10.494  0.6319 -0.3596 -0.3876
  233MOL0     C31380   2.026   9.945  10.408 -0.1962  0.6285  0.6531
  233MOL0     C31381   2.078   9.960  10.260  0.2276 -0.3637 -0.2101
  233MOL0     C31382   2.152   9.842  10.195  0.2317 -0.0397 -0.1659
  233MOL0     C31383   2.084   9.705  10.181  0.0747 -0.9364 -0.2117
  233MOL0     C31384   1.975   9.717  10.088  0.1559  0.1461 -0.1501
  233MOL0     C31385   1.891   9.723  10.002  0.6043  0.9566 -0.2312
  233MOL0     C31386   2.071   9.830  10.687  0.0714  0.9870  0.2356
  233MOL0     C31387   2.081   9.723  10.777 -0.8073  1.0566 -0.3414
  233MOL0     H31388   1.994   9.571  11.175  2.7266  1.1444 -1.6127
  233MOL0     H31389   1.943   9.433  11.376  1.1539  1.7508 -0.1416
  233MOL0     H31390   2.209   9.316  11.557 -1.9514  2.1894 -0.5674
  233MOL0     H31391   2.041   9.356  11.555  0.6458  1.0693  0.6990
  233MOL0     H31392   2.160   9.099  11.694 -0.6551 -0.5838  1.2727
  233MOL0     H31393   2.113   9.244  11.770 -0.7960 -1.0037  0.1135
  233MOL0     H31394   1.917   9.128  11.796  2.9229 -1.5586 -0.2423
  233MOL0     H31395   1.873   9.218  11.648  0.0570  0.6843  1.3259
  233MOL0     H31396   1.966   8.988  11.529  0.9273 -1.6216  0.5338
  233MOL0     H31397   1.982   8.950  11.698  0.1245 -1.5663 -2.0460
  233MOL0     H31398   1.729   8.958  11.740  0.3793 -0.6553 -0.5306
  233MOL0     H31399   1.720   9.053  11.597  0.7301  1.6839  0.7384
  233MOL0     H31400   1.822   8.768  11.574  0.6636  0.0165 -0.5893
  233MOL0     H31401   1.647   8.787  11.603 -0.4689 -2.2717 -4.2299
  233MOL0     H31402   1.605   8.865  11.411  0.3127  0.2178 -0.8015
  233MOL0     H31403   1.760   8.943  11.366 -1.3060  0.2435 -1.7398
  233MOL0     H31404   1.691   8.731  11.229  0.2042 -0.2918 -0.7623
  233MOL0     H31405   1.719   8.643  11.381 -1.5371  0.9241  0.9533
  233MOL0     H31406   1.972   8.926  11.274 -2.6871 -0.5990  0.6427
  233MOL0     H31407   2.228   8.829  11.080  0.2173  2.0277 -0.0134
  233MOL0     H31408   2.234   8.913  11.244  0.1668 -1.0656  0.3164
  233MOL0     H31409   2.362   8.641  11.190  1.6546  1.1232 -0.7010
  233MOL0     H31410   2.352   8.730  11.344  1.0510  2.4309  0.8055
  233MOL0     H31411   2.490   8.810  11.086 -1.0799  0.1495 -0.3953
  233MOL0     H31412   2.574   8.739  11.211  0.8264  1.8645 -0.8940
  233MOL0     H31413   2.613   8.948  11.307 -0.7562  1.2623 -1.0063
  233MOL0     H31414   2.438   8.939  11.343 -1.3247 -0.3993 -0.9673
  233MOL0     H31415   2.746   8.984  11.155 -0.2145  0.7016  2.1655
  233MOL0     H31416   2.968   9.001  10.900  1.0975 -1.4762  1.1764
  233MOL0     H31417   3.002   9.148  10.988 -1.6187 -0.0512 -0.2993
  233MOL0     H31418   2.964   9.008  11.074 -1.6576  0.1617  0.4773
  233MOL0     H31419   3.108   9.386  10.770  2.8340  0.3896 -0.1793
  233MOL0     H31420   3.235   9.502  10.597  1.5629 -0.3443 -1.6824
  233MOL0     H31421   3.045   9.481  10.222 -0.2285  0.4341 -1.6229
  233MOL0     H31422   3.070   9.626  10.311 -2.1801  0.3454 -0.9856
  233MOL0     H31423   3.266   9.686  10.185 -0.1619 -1.2652  1.4731
  233MOL0     H31424   3.271   9.528  10.104  1.8644  1.5180 -0.5789
  233MOL0     H31425   3.095   9.767  10.064  2.1637  0.7454  0.8136
  233MOL0     H31426   3.029   9.605  10.015 -1.1090  1.5884  2.0344
  233MOL0     H31427   3.284   9.756   9.899 -1.1035  1.0708  1.6178
  233MOL0     H31428   3.248   9.592   9.865 -1.0569 -0.6839 -1.6183
  233MOL0     H31429   3.031   9.810   9.838 -0.5761 -0.1786 -0.2758
  233MOL0     H31430   3.023   9.652   9.775  0.8964 -1.9864  2.0546
  233MOL0     H31431   3.048   9.790   9.597 -1.2275  0.6848  0.9951
  233MOL0     H31432   3.190   9.880   9.636 -2.9677  0.5521 -1.2132
  233MOL0     H31433   3.146   9.588   9.603  1.0145 -0.9931 -2.2989
  233MOL0     H31434   3.303   9.650   9.635  0.2487 -0.4103  0.0837
  233MOL0     H31435   3.150   9.707   9.373 -0.2855  0.8866  1.0247
  233MOL0     H31436   3.276   9.597   9.385 -0.8725  0.2342 -0.8076
  233MOL0     H31437   3.064   9.246  10.291 -4.0209 -0.8894 -0.2196
  233MOL0     H31438   2.928   9.139  10.469  2.9684 -1.6002  0.2480
  233MOL0     H31439   2.542   9.285  10.812 -1.6747 -1.3503 -1.4674
  233MOL0     H31440   2.415   9.224  11.002  0.7838  0.6155 -0.5779
  233MOL0     H31441   2.189   9.120  11.208 -1.2692 -1.2083  1.5640
  233MOL0     H31442   2.185   9.229  10.986 -0.0655  0.3284  0.4322
  233MOL0     H31443   2.294   9.523  10.601 -0.4349  0.2743 -1.2225
  233MOL0     H31444   2.288   9.721  10.448 -0.2244 -0.1315  0.0771
  233MOL0     H31445   1.964   9.856  10.418 -1.4593  1.7268  3.5523
  233MOL0     H31446   1.960  10.027  10.436 -1.0687 -0.0231  0.5477
  233MOL0     H31447   2.149  10.041  10.278  0.1862 -0.6572  1.4361
  233MOL0     H31448   2.002   9.998  10.192  0.0150 -2.4377 -1.2147
  233MOL0     H31449   2.239   9.815  10.255 -0.4818 -4.1161 -0.6744
  233MOL0     H31450   2.189   9.859  10.094  2.0791 -1.6074  0.1813
  233MOL0     H31451   2.054   9.659  10.276 -0.2579  0.3824  0.3387
  233MOL0     H31452   2.157   9.638  10.135  1.5921  0.0204  0.6952
  233MOL0     H31453   1.808   9.731   9.934  0.7113 -1.6602 -0.7982
  233MOL0     H31454   2.000   9.909  10.709 -1.0627  0.4493 -1.3195
  233MOL0     H31455   2.019   9.727  10.866  0.6851  0.7384  0.7517
  234MOL0     O31456   5.277   7.127   4.168  0.3816  0.5571  0.5317
  234MOL0     C31457   5.288   7.069   4.067 -0.6077 -0.6704  0.4343
  234MOL0     O31458   5.241   6.948   4.040  0.8890 -0.5620  1.0859
  234MOL0     C31459   5.165   6.873   4.128  1.5277  0.3229  0.5375
  234MOL0     C31460   5.206   6.744   4.155 -0.3222  0.0860 -0.3418
  234MOL0     C31461   5.125   6.670   4.250 -0.1799  0.2257  0.0991
  234MOL0     C31462   5.008   6.721   4.313  0.5405  0.5443  0.7625
  234MOL0     O31463   4.932   6.638   4.396 -0.1538  0.1453  1.0516
  234MOL0     C31464   4.883   6.510   4.346  0.0580 -0.6532  0.0376
  234MOL0     C31465   4.738   6.487   4.384 -0.1132  0.6354 -0.8449
  234MOL0     C31466   4.734   6.459   4.536 -0.4874 -0.1515  0.6704
  234MOL0     C31467   4.599   6.525   4.588  0.8889  0.1054 -0.0249
  234MOL0     C31468   4.589   6.502   4.741 -0.1988 -0.0441  0.2776
  234MOL0     C31469   4.547   6.358   4.783  0.2216  0.1595  0.3387
  234MOL0     C31470   4.507   6.338   4.930 -0.2747  1.0447 -0.0592
  234MOL0     C31471   4.501   6.180   4.959  0.0576  0.5343  0.2878
  234MOL0     N31472   4.450   6.171   5.098 -0.9233  0.1026  0.5468
  234MOL0     C31473   4.476   6.251   5.202  1.0912 -1.0541 -0.2919
  234MOL0     C31474   4.402   6.221   5.309  0.4521 -0.4880  0.5464
  234MOL0     C31475   4.398   6.280   5.442  0.1391  0.8394  0.0903
  234MOL0     C31476   4.321   6.191   5.553 -0.1080  0.7050 -0.9722
  234MOL0     C31477   4.407   6.080   5.617  0.4739 -0.5606 -0.8269
  234MOL0     C31478   4.333   6.001   5.731  0.6700 -0.3261 -0.5586
  234MOL0     O31479   4.440   5.929   5.801  0.6832  0.0202  0.7845
  234MOL0     C31480   4.415   5.885   5.924 -0.3184 -0.2239 -0.5033
  234MOL0     C31481   4.528   5.872   6.011  1.0723 -0.7650 -0.1226
  234MOL0     C31482   4.508   5.820   6.134 -0.8573  0.0159 -0.8388
  234MOL0     C31483   4.638   5.797   6.211 -0.5131  0.1000 -1.5592
  234MOL0     C31484   4.372   5.786   6.179  0.2111  0.0292 -0.0469
  234MOL0     C31485   4.337   5.737   6.319  0.1012 -0.1791 -0.4433
  234MOL0     O31486   4.221   5.655   6.328 -0.4044 -0.1585 -0.8059
  234MOL0     C31487   4.161   5.636   6.451 -0.0021  0.4271 -0.0888
  234MOL0     C31488   4.226   5.571   6.551 -0.0058 -0.6928  0.2878
  234MOL0     C31489   4.168   5.542   6.673  0.1903 -0.0379  0.4072
  234MOL0     C31490   4.026   5.555   6.677 -0.1976  0.4280 -0.7738
  234MOL0     O31491   3.953   5.534   6.793  0.0545  0.6487  0.3533
  234MOL0     C31492   4.010   5.444   6.895  0.0677 -0.4295  1.0864
  234MOL0     C31493   3.894   5.383   6.980 -0.9622  0.3007  0.8192
  234MOL0     C31494   3.826   5.487   7.069  1.1390  0.5800  0.4267
  234MOL0     C31495   3.731   5.416   7.158  0.3633  0.1643 -0.5043
  234MOL0     C31496   3.662   5.510   7.253 -0.1635 -0.1363  0.2478
  234MOL0     C31497   3.558   5.438   7.340 -0.2663  0.3565 -0.5444
  234MOL0     C31498   3.429   5.397   7.259 -0.1673  0.0692 -0.9113
  234MOL0     C31499   3.359   5.281   7.321 -0.2379  1.2301 -0.5641
  234MOL0    Cl31500   3.270   5.205   7.195  0.4007 -0.0811 -0.3088
  234MOL0     C31501   3.956   5.600   6.559  0.8766 -0.0788 -0.5030
  234MOL0     C31502   4.018   5.666   6.463 -0.2485  0.1530 -0.0654
  234MOL0     O31503   4.411   5.769   6.405  0.0601  0.3726 -0.4469
  234MOL0     C31504   4.263   5.791   6.089 -0.1048  0.2187 -0.2394
  234MOL0     C31505   4.285   5.840   5.967 -0.0577 -0.0849 -0.1315
  234MOL0     N31506   4.324   6.123   5.262  0.9199 -0.8827 -0.7726
  234MOL0     N31507   4.362   6.081   5.140  0.3052  0.1339 -0.0216
  234MOL0     C31508   4.979   6.859   4.293 -0.1927 -0.0679 -0.3359
  234MOL0     C31509   5.048   6.928   4.191 -0.1071  1.4535  0.7378
  234MOL0     C31510   5.365   7.135   3.959 -0.8522  0.3028  0.8412
  234MOL0     C31511   5.447   7.253   3.974 -0.8827  0.4034 -0.2458
  234MOL0     C31512   5.510   7.313   3.867 -0.3163  0.3827  0.1282
  234MOL0     C31513   5.507   7.256   3.739  0.5609  0.0641 -0.8208
  234MOL0     O31514   5.567   7.314   3.633 -0.0942 -0.7246 -0.0749
  234MOL0     C31515   5.632   7.225   3.533  0.6174 -0.0388 -0.3819
  234MOL0     C31516   5.670   7.318   3.419 -0.5203  0.0272 -0.2880
  234MOL0     C31517   5.544   7.353   3.344 -0.9925  0.1038 -0.1740
  234MOL0     C31518   5.561   7.474   3.254  0.1193  0.2661 -0.8138
  234MOL0     C31519   5.440   7.515   3.178 -1.0321 -0.6656  0.9057
  234MOL0     C31520   5.339   7.547   3.119 -1.2345 -0.1777  0.6101
  234MOL0     C31521   5.425   7.138   3.724  0.6683  0.1058 -0.2214
  234MOL0     C31522   5.351   7.080   3.824 -0.0685 -0.0865  0.1698
  234MOL0     H31523   5.294   6.695   4.114 -0.3399  0.4377 -0.8069
  234MOL0     H31524   5.148   6.564   4.246 -1.0071  0.0604 -3.2602
  234MOL0     H31525   4.867   6.512   4.238 -5.9826  0.3573  0.6145
  234MOL0     H31526   4.954   6.435   4.382 -2.1166 -1.8373  2.1249
  234MOL0     H31527   4.672   6.563   4.341  1.3076 -0.0046 -4.5460
  234MOL0     H31528   4.703   6.391   4.346 -1.4925  0.9897 -0.5371
  234MOL0     H31529   4.729   6.352   4.559 -1.8922 -0.3557 -0.4216
  234MOL0     H31530   4.819   6.513   4.580 -1.4530  2.1857 -0.1534
  234MOL0     H31531   4.609   6.632   4.570  3.1322  0.0050  0.3662
  234MOL0     H31532   4.505   6.501   4.536  0.4782 -1.2675  1.2736
  234MOL0     H31533   4.692   6.515   4.775  0.8798 -1.8776 -2.0494
  234MOL0     H31534   4.523   6.578   4.784  0.1676  1.7542 -2.0853
  234MOL0     H31535   4.467   6.319   4.719  2.6469 -2.2524 -1.4619
  234MOL0     H31536   4.632   6.292   4.764 -0.5540 -1.0372  0.9488
  234MOL0     H31537   4.589   6.385   4.986  0.5111 -0.0567 -0.2566
  234MOL0     H31538   4.408   6.378   4.952 -1.3740 -2.7963  3.0713
  234MOL0     H31539   4.606   6.153   4.945  0.7648  2.9742  0.3970
  234MOL0     H31540   4.427   6.132   4.895  1.3277 -3.2762  1.4327
  234MOL0     H31541   4.556   6.325   5.204 -1.6437  2.1785 -0.1243
  234MOL0     H31542   4.502   6.298   5.468  0.6434  0.9175 -1.8666
  234MOL0     H31543   4.346   6.376   5.444 -0.8051  0.3379  0.5659
  234MOL0     H31544   4.223   6.151   5.524 -0.7868  0.7236  1.1092
  234MOL0     H31545   4.286   6.253   5.637  0.2087 -2.3734  1.6487
  234MOL0     H31546   4.505   6.118   5.648 -1.1768  1.9051  1.9224
  234MOL0     H31547   4.422   6.004   5.540  2.8159 -0.9078 -0.0988
  234MOL0     H31548   4.265   5.936   5.675 -1.6028  0.2706  1.3073
  234MOL0     H31549   4.279   6.078   5.789  0.4191  0.8811 -2.3127
  234MOL0     H31550   4.618   5.898   5.957  0.2683 -0.2390 -1.2343
  234MOL0     H31551   4.622   5.732   6.297  0.6799  0.6341 -0.9168
  234MOL0     H31552   4.725   5.767   6.151  2.9839  1.0184  2.5485
  234MOL0     H31553   4.678   5.886   6.260 -1.9399  0.2687 -0.6532
  234MOL0     H31554   4.327   5.539   6.527  0.2181  0.6713 -0.7160
  234MOL0     H31555   4.216   5.490   6.755 -1.3408 -4.8974 -1.4055
  234MOL0     H31556   4.065   5.360   6.853  2.1177  0.1601  2.4337
  234MOL0     H31557   4.089   5.494   6.951  1.8744 -1.6551 -0.2624
  234MOL0     H31558   3.832   5.317   6.918  1.3583 -0.2934 -1.0331
  234MOL0     H31559   3.939   5.309   7.047 -2.5139 -1.5412 -0.0457
  234MOL0     H31560   3.770   5.558   7.008  0.1762 -0.8119 -0.3969
  234MOL0     H31561   3.898   5.542   7.129  1.5583  1.4599 -0.8554
  234MOL0     H31562   3.649   5.373   7.099 -1.0173  1.6183  0.2631
  234MOL0     H31563   3.775   5.327   7.205  0.7746 -0.2055 -1.5618
  234MOL0     H31564   3.612   5.589   7.197  1.9396  3.1710  2.6971
  234MOL0     H31565   3.737   5.566   7.309  0.9977 -1.0245 -0.3799
  234MOL0     H31566   3.609   5.343   7.360 -0.6010 -0.7325 -4.1102
  234MOL0     H31567   3.531   5.515   7.413 -0.4809  1.2900 -1.5845
  234MOL0     H31568   3.454   5.370   7.156  2.5358  2.9434 -1.1696
  234MOL0     H31569   3.359   5.480   7.272  0.3298  0.5442 -1.2232
  234MOL0     H31570   3.301   5.310   7.409  0.9115  4.5256 -0.7424
  234MOL0     H31571   3.429   5.204   7.356  0.9577  2.9669  1.1051
  234MOL0     H31572   3.851   5.625   6.558  0.4913 -1.5281  0.5833
  234MOL0     H31573   3.971   5.726   6.386 -1.2802 -1.7481 -0.9755
  234MOL0     H31574   4.159   5.774   6.117 -1.4456  0.5243 -4.3203
  234MOL0     H31575   4.201   5.841   5.899  0.7062  0.4661 -1.1043
  234MOL0     H31576   4.904   6.916   4.347  2.2361  0.7628  2.3896
  234MOL0     H31577   5.015   7.028   4.164 -2.2435  0.0850 -2.2724
  234MOL0     H31578   5.451   7.301   4.071 -0.1345  1.4895 -0.7859
  234MOL0     H31579   5.561   7.409   3.872  0.8346 -0.2229  0.2878
  234MOL0     H31580   5.726   7.190   3.577  0.2875 -1.1731 -0.5695
  234MOL0     H31581   5.590   7.137   3.485  1.3281  0.2856 -1.6242
  234MOL0     H31582   5.739   7.271   3.349 -0.0935  1.8823 -1.1567
  234MOL0     H31583   5.721   7.403   3.466  2.2648 -1.6228 -0.1112
  234MOL0     H31584   5.455   7.368   3.405 -2.0978 -1.2774 -1.3698
  234MOL0     H31585   5.525   7.277   3.267  0.1677 -1.7444  1.2683
  234MOL0     H31586   5.642   7.450   3.185  0.4343 -1.4868  0.1062
  234MOL0     H31587   5.578   7.558   3.322  1.2506 -1.8240  1.7100
  234MOL0     H31588   5.246   7.569   3.070 -1.1869  0.3992  0.7742
  234MOL0     H31589   5.412   7.102   3.622  4.1747 -0.4579 -0.5839
  234MOL0     H31590   5.298   6.987   3.801  0.8837 -0.5359 -0.2573
  235MOL0     O31591   7.068  10.431  11.341 -0.4621  0.4470  0.0280
  235MOL0     C31592   7.040  10.333  11.408  0.3784  0.0637 -0.1934
  235MOL0     O31593   7.077  10.214  11.377 -0.2668 -0.4516  0.0605
  235MOL0     C31594   7.145  10.189  11.254  0.6086  0.4979 -1.0585
  235MOL0     C31595   7.066  10.190  11.138 -0.1652 -0.7328 -0.8261
  235MOL0     C31596   7.123  10.172  11.014  0.2744 -0.1286 -0.4163
  235MOL0     C31597   7.258  10.159  11.003  0.8573  0.3858 -0.3010
  235MOL0     O31598   7.322  10.148  10.882  0.3241 -0.2351  0.3303
  235MOL0     C31599   7.247  10.185  10.767 -0.2753  0.0926 -0.4359
  235MOL0     C31600   7.333  10.176  10.637  0.2047  0.0593 -0.3237
  235MOL0     C31601   7.262  10.207  10.502  0.2685  0.6993 -0.2128
  235MOL0     C31602   7.168  10.328  10.508 -0.1502  0.2241  0.5364
  235MOL0     C31603   7.091  10.341  10.377  0.2504  1.0583 -0.5188
  235MOL0     C31604   7.031  10.484  10.363 -0.5552  0.3115  0.7517
  235MOL0     C31605   6.894  10.477  10.294 -0.0922 -0.2956 -0.5967
  235MOL0     C31606   6.884  10.605  10.207  0.2042  0.1435 -0.1147
  235MOL0     N31607   6.763  10.596  10.128 -0.4051  0.4486  0.0354
  235MOL0     C31608   6.707  10.490  10.060  0.4579 -0.4205 -0.5169
  235MOL0     C31609   6.579  10.525  10.031  0.3261  0.6096 -0.6963
  235MOL0     C31610   6.484  10.427   9.968  0.3370  0.6439  0.6020
  235MOL0     C31611   6.331  10.434  10.016  0.8329 -0.3408 -0.1805
  235MOL0     C31612   6.226  10.400   9.904  0.6207  0.0702 -0.1256
  235MOL0     C31613   6.074  10.404   9.946  0.4710  0.3935 -0.4223
  235MOL0     O31614   5.995  10.340   9.850 -0.3282 -0.1426  0.4130
  235MOL0     C31615   5.861  10.368   9.849 -0.1650  0.1003 -0.2882
  235MOL0     C31616   5.789  10.352   9.737  0.0217 -0.0013 -0.3609
  235MOL0     C31617   5.654  10.369   9.726  0.4765 -0.1801 -0.6212
  235MOL0     C31618   5.596  10.336   9.594 -0.1558 -0.0589 -0.8830
  235MOL0     C31619   5.586  10.414   9.837 -0.1169 -1.0108  0.6332
  235MOL0     C31620   5.438  10.420   9.842 -1.1504  0.4422 -0.0559
  235MOL0     O31621   5.371  10.356   9.942 -1.2643 -0.2872  0.1701
  235MOL0     C31622   5.242  10.302   9.913 -0.0952 -0.6021  0.4304
  235MOL0     C31623   5.156  10.278  10.026 -0.4590  0.4637  0.4082
  235MOL0     C31624   5.020  10.254  10.004  0.4320  0.3096  0.8587
  235MOL0     C31625   4.963  10.236   9.875 -0.1338 -0.2457 -0.6765
  235MOL0     O31626   4.826  10.219   9.878 -0.2257  0.3687 -0.3315
  235MOL0     C31627   4.750  10.201   9.760 -0.1997  0.5666 -0.3169
  235MOL0     C31628   4.604  10.178   9.787 -0.5064  0.4580  1.0288
  235MOL0     C31629   4.576  10.055   9.884  0.3517  0.5501 -0.0864
  235MOL0     C31630   4.426  10.054   9.926  0.3243 -0.4675 -0.0961
  235MOL0     C31631   4.362   9.929   9.978  0.1091  0.1682 -0.0597
  235MOL0     C31632   4.444   9.849  10.079  0.3329 -0.0193 -0.0298
  235MOL0     C31633   4.381   9.711  10.106 -0.7950 -1.0121  0.6007
  235MOL0     C31634   4.468   9.661  10.220 -0.1478  0.4841 -0.7781
  235MOL0    Cl31635   4.424   9.500  10.265 -0.2600  0.3645  0.1572
  235MOL0     C31636   5.051  10.242   9.763 -0.2803 -0.8209 -0.2509
  235MOL0     C31637   5.184  10.274   9.787 -0.8579  0.1393 -0.4468
  235MOL0     O31638   5.384  10.486   9.755 -0.1354 -0.2240  0.4131
  235MOL0     C31639   5.648  10.440   9.956 -0.5661 -0.0531 -0.3795
  235MOL0     C31640   5.788  10.419   9.962  0.1695  0.3377 -0.0471
  235MOL0     N31641   6.563  10.656  10.061  0.5392  0.0749  0.0551
  235MOL0     N31642   6.664  10.685  10.132 -0.3380 -0.9708 -0.5995
  235MOL0     C31643   7.339  10.148  11.120 -0.9797  0.4608  0.2426
  235MOL0     C31644   7.282  10.158  11.247  0.1618 -0.8718  0.2495
  235MOL0     C31645   6.963  10.349  11.523 -0.4387 -0.5282  0.4949
  235MOL0     C31646   6.934  10.242  11.616  0.1113 -0.4964 -0.3942
  235MOL0     C31647   6.868  10.275  11.734  1.2585  0.2568 -0.2795
  235MOL0     C31648   6.819  10.399  11.754 -0.7266 -0.6485  0.3927
  235MOL0     O31649   6.727  10.415  11.850 -0.2585  0.7140 -0.3959
  235MOL0     C31650   6.723  10.536  11.922  0.6603  1.1927  0.4230
  235MOL0     C31651   6.700  10.517  12.073 -0.2632  1.0326 -0.4197
  235MOL0     C31652   6.585  10.410  12.107 -0.1159 -0.5596 -0.0336
  235MOL0     C31653   6.542  10.410  12.255  0.1906  0.7601  0.5321
  235MOL0     C31654   6.520  10.546  12.298  0.7700 -0.2693  0.2247
  235MOL0     C31655   6.519  10.651  12.345  0.3567 -0.4190  0.0881
  235MOL0     C31656   6.848  10.501  11.667 -0.4715  0.2849  0.4961
  235MOL0     C31657   6.922  10.479  11.561 -0.2896  0.8765 -0.2609
  235MOL0     H31658   6.962  10.215  11.155 -0.2159 -0.4106 -1.5941
  235MOL0     H31659   7.054  10.174  10.929 -0.0720 -1.6735 -0.1994
  235MOL0     H31660   7.170  10.108  10.758 -1.7024  1.2631  1.1587
  235MOL0     H31661   7.208  10.285  10.786  1.5210  1.0660 -1.5178
  235MOL0     H31662   7.415  10.248  10.643 -0.2652  0.5178  3.7768
  235MOL0     H31663   7.373  10.074  10.636  0.4179  0.1465 -0.9330
  235MOL0     H31664   7.344  10.211  10.430 -0.4172 -2.3632 -1.3196
  235MOL0     H31665   7.215  10.118  10.460  1.7304  0.8526 -2.2951
  235MOL0     H31666   7.085  10.322  10.580 -1.2530  1.2351 -0.5999
  235MOL0     H31667   7.225  10.420  10.520  1.2603 -0.1390 -2.3904
  235MOL0     H31668   7.157  10.341  10.289 -0.4259  0.8255 -1.0359
  235MOL0     H31669   7.033  10.252  10.350  1.5221  0.8676 -3.0025
  235MOL0     H31670   7.028  10.527  10.463  1.4834 -0.8310  1.3581
  235MOL0     H31671   7.105  10.547  10.312  2.7795 -2.9792  1.0379
  235MOL0     H31672   6.880  10.378  10.249  0.1988 -0.6043 -0.0318
  235MOL0     H31673   6.833  10.472  10.385  2.0523 -3.4304  0.8681
  235MOL0     H31674   6.971  10.601  10.140  2.0308 -1.5862  2.2005
  235MOL0     H31675   6.891  10.699  10.263  1.2471  0.4772 -0.7809
  235MOL0     H31676   6.753  10.393  10.040 -0.0072 -0.2487 -2.7477
  235MOL0     H31677   6.468  10.437   9.860 -0.1713 -0.6111  0.5389
  235MOL0     H31678   6.521  10.327   9.994  1.8014  1.2158  0.7879
  235MOL0     H31679   6.306  10.539  10.035 -0.9915 -0.9860  1.2783
  235MOL0     H31680   6.297  10.360  10.089 -2.4680  0.8682 -0.3193
  235MOL0     H31681   6.243  10.301   9.859 -0.2813 -0.6809  1.1168
  235MOL0     H31682   6.218  10.468   9.820 -1.6434  1.7669  1.3570
  235MOL0     H31683   6.051  10.511   9.954  0.6949  0.3643  1.0100
  235MOL0     H31684   6.056  10.363  10.046  1.3944  1.4233  0.2019
  235MOL0     H31685   5.838  10.309   9.650 -1.2151 -0.5512 -0.8249
  235MOL0     H31686   5.517  10.403   9.558 -1.2654 -0.0548  1.3557
  235MOL0     H31687   5.676  10.319   9.521 -0.8807 -2.9033 -1.1449
  235MOL0     H31688   5.540  10.243   9.608 -0.1269 -0.1894 -1.6291
  235MOL0     H31689   5.198  10.275  10.126  1.3308 -0.4557 -0.3315
  235MOL0     H31690   4.947  10.229  10.080  0.6169  0.7756  1.1922
  235MOL0     H31691   4.759  10.284   9.690 -0.0808  0.5060 -0.3731
  235MOL0     H31692   4.779  10.112   9.702 -1.0307  0.3145 -0.3668
  235MOL0     H31693   4.575  10.272   9.834 -4.4429  0.1251 -0.3287
  235MOL0     H31694   4.541  10.166   9.699 -2.5335 -0.7069  2.5268
  235MOL0     H31695   4.641  10.066   9.972 -0.5420 -0.5731  0.7479
  235MOL0     H31696   4.595   9.962   9.830 -0.8328  0.1683  0.1393
  235MOL0     H31697   4.411  10.130  10.002 -1.1686  0.1491 -0.9689
  235MOL0     H31698   4.356  10.086   9.848 -1.7275 -3.0138  0.5837
  235MOL0     H31699   4.352   9.865   9.889 -1.7099 -0.3376  0.4659
  235MOL0     H31700   4.264   9.952  10.021  0.7989 -0.7928  2.1584
  235MOL0     H31701   4.549   9.829  10.056  0.5195  2.2473 -1.5235
  235MOL0     H31702   4.441   9.911  10.169 -1.5775  2.7011 -1.7845
  235MOL0     H31703   4.411   9.648  10.021  2.6403  2.6228 -1.2219
  235MOL0     H31704   4.276   9.713  10.138 -0.6406 -1.3731  1.1205
  235MOL0     H31705   4.472   9.729  10.305  0.0334  0.7574 -1.0029
  235MOL0     H31706   4.571   9.649  10.185  0.8830 -3.3021  2.8061
  235MOL0     H31707   5.014  10.226   9.663  1.6899 -4.0339 -0.6231
  235MOL0     H31708   5.252  10.282   9.703  1.8237 -3.2381  1.1473
  235MOL0     H31709   5.588  10.480  10.038 -1.4707 -0.0230 -1.0505
  235MOL0     H31710   5.839  10.444  10.054  0.6502 -3.0230  0.7091
  235MOL0     H31711   7.442  10.117  11.108 -1.1651 -1.0363  2.0673
  235MOL0     H31712   7.337  10.149  11.340 -1.1865  2.0411  1.4121
  235MOL0     H31713   6.968  10.143  11.590  0.0931 -0.4680 -0.5231
  235MOL0     H31714   6.835  10.202  11.808  0.2181  0.0875 -0.8798
  235MOL0     H31715   6.816  10.590  11.902  1.0592 -0.3073 -2.2255
  235MOL0     H31716   6.636  10.594  11.890  0.2159  1.2396  1.6694
  235MOL0     H31717   6.671  10.616  12.111 -2.5077 -0.0043  0.7746
  235MOL0     H31718   6.796  10.494  12.120 -0.2319 -2.2451 -1.8009
  235MOL0     H31719   6.622  10.310  12.085 -0.7806 -1.4438  2.5867
  235MOL0     H31720   6.494  10.423  12.048  0.3152  0.0009 -0.5904
  235MOL0     H31721   6.617  10.366  12.322 -0.3533  2.9737  2.7274
  235MOL0     H31722   6.457  10.344  12.268  2.6874 -2.7384  0.5702
  235MOL0     H31723   6.502  10.748  12.385 -1.3265 -0.6147 -0.0728
  235MOL0     H31724   6.824  10.606  11.680  2.6742  1.7781 -3.7542
  235MOL0     H31725   6.958  10.560  11.498  4.9204  0.2636  1.4489
  236MOL0     O31726   5.592   8.027   8.312  0.1889 -0.7737 -0.3536
  236MOL0     C31727   5.615   8.124   8.384 -0.3364  0.6567 -0.4846
  236MOL0     O31728   5.519   8.182   8.472  0.1355  0.1714 -0.5030
  236MOL0     C31729   5.382   8.173   8.468 -0.0339 -0.0713 -0.0558
  236MOL0     C31730   5.300   8.083   8.391 -0.8764 -0.2211 -0.5737
  236MOL0     C31731   5.164   8.078   8.390  0.1983  0.6931 -0.4846
  236MOL0     C31732   5.097   8.177   8.461 -0.4244  0.3106  0.7529
  236MOL0     O31733   4.968   8.182   8.481  0.5935  0.1308 -0.4872
  236MOL0     C31734   4.879   8.081   8.423  0.3522 -0.5336  0.6474
  236MOL0     C31735   4.739   8.139   8.425  0.3705 -1.4730  0.3415
  236MOL0     C31736   4.685   8.149   8.566 -0.2467 -0.2456  0.6773
  236MOL0     C31737   4.563   8.245   8.574  0.5263  0.7531  0.0186
  236MOL0     C31738   4.488   8.233   8.705  0.3867  0.0111  0.8423
  236MOL0     C31739   4.393   8.358   8.728 -0.5526 -0.2921 -0.3892
  236MOL0     C31740   4.290   8.327   8.836  0.2365 -0.4104  0.4259
  236MOL0     C31741   4.196   8.446   8.868 -0.3226 -0.0162  0.2789
  236MOL0     N31742   4.091   8.451   8.756  0.3513  0.3370  0.1298
  236MOL0     C31743   4.101   8.522   8.635 -0.4073  0.8943  0.0836
  236MOL0     C31744   3.977   8.539   8.580 -0.4389  1.0487 -0.2730
  236MOL0     C31745   3.938   8.624   8.461  0.2233  0.2529 -0.2798
  236MOL0     C31746   3.922   8.537   8.335  0.3536  0.0912  0.6910
  236MOL0     C31747   4.061   8.491   8.286  0.6775 -0.6760 -0.2962
  236MOL0     C31748   4.067   8.341   8.318 -0.2909 -0.0389  1.3328
  236MOL0     O31749   4.193   8.280   8.282 -0.0207 -0.0360  0.2412
  236MOL0     C31750   4.195   8.223   8.150  0.4090 -0.4847  0.6210
  236MOL0     C31751   4.151   8.097   8.130 -0.1183 -0.3088  0.5241
  236MOL0     C31752   4.160   8.037   8.002 -0.7425 -0.4645 -0.1903
  236MOL0     C31753   4.110   7.895   7.990 -0.2073 -0.0607  0.7695
  236MOL0     C31754   4.216   8.101   7.894  0.7202 -1.5075  0.2867
  236MOL0     C31755   4.235   8.051   7.753  0.3594 -1.2297 -0.1248
  236MOL0     O31756   4.293   8.135   7.659 -0.0905 -0.8147  0.1509
  236MOL0     C31757   4.230   8.130   7.536  0.7029 -0.2413 -0.4165
  236MOL0     C31758   4.164   8.246   7.495  0.2187  0.2668 -0.3626
  236MOL0     C31759   4.099   8.246   7.372  0.3418 -0.2464  0.2229
  236MOL0     C31760   4.088   8.127   7.292  0.5759 -0.0177 -0.6332
  236MOL0     O31761   4.012   8.107   7.178  0.1092  0.1843 -0.3523
  236MOL0     C31762   3.943   8.223   7.130  0.3888  0.0129  0.3621
  236MOL0     C31763   3.829   8.203   7.037  0.0911  0.5614 -0.0284
  236MOL0     C31764   3.777   8.339   6.978 -0.5480  1.1338 -0.7104
  236MOL0     C31765   3.868   8.376   6.857 -0.2299 -0.2056  0.0898
  236MOL0     C31766   3.857   8.522   6.814  0.9045 -0.4876  0.0960
  236MOL0     C31767   3.932   8.546   6.686  0.1134 -0.1478 -1.2988
  236MOL0     C31768   3.941   8.691   6.649 -1.3347  0.0334 -0.2284
  236MOL0     C31769   4.026   8.708   6.515  0.7672  0.0589 -0.8572
  236MOL0    Cl31770   3.920   8.643   6.385  0.1693  0.2969 -0.1469
  236MOL0     C31771   4.154   8.012   7.334  0.7265  0.5166 -0.4693
  236MOL0     C31772   4.234   8.018   7.449 -0.0270  0.0069  0.1834
  236MOL0     O31773   4.186   7.943   7.722  0.0093 -0.0707 -0.4481
  236MOL0     C31774   4.259   8.236   7.918  0.3441  0.5528  0.2878
  236MOL0     C31775   4.256   8.287   8.047 -0.6865 -0.5199 -0.0920
  236MOL0     N31776   3.886   8.473   8.675  0.1975 -0.1447  0.3133
  236MOL0     N31777   3.958   8.421   8.773 -0.2060  0.1615  0.5349
  236MOL0     C31778   5.167   8.265   8.538 -0.2001  0.2956  0.3825
  236MOL0     C31779   5.308   8.261   8.551  0.7678  0.0279  0.9339
  236MOL0     C31780   5.762   8.167   8.395 -0.2553 -0.4944  0.6963
  236MOL0     C31781   5.862   8.109   8.315 -0.0261  0.1948 -0.1559
  236MOL0     C31782   5.997   8.160   8.315 -1.1008  0.2136 -0.7366
  236MOL0     C31783   6.023   8.262   8.404 -0.6709 -0.0171 -0.2792
  236MOL0     O31784   6.155   8.296   8.405 -0.2317  0.0515  0.1346
  236MOL0     C31785   6.191   8.393   8.508 -0.1377 -0.2445 -1.1696
  236MOL0     C31786   6.340   8.411   8.501 -0.7074 -0.1416  0.7996
  236MOL0     C31787   6.399   8.494   8.608  0.0921  0.5848  0.1656
  236MOL0     C31788   6.368   8.645   8.580 -0.2699 -0.2092  0.3909
  236MOL0     C31789   6.457   8.738   8.654 -0.4187 -0.2410 -0.2933
  236MOL0     C31790   6.532   8.835   8.675  1.2237  0.0908 -0.9623
  236MOL0     C31791   5.926   8.305   8.490  0.8340  0.2092 -0.0100
  236MOL0     C31792   5.796   8.267   8.489  0.4843 -0.4220  0.5794
  236MOL0     H31793   5.347   8.003   8.334 -1.3145 -0.9546  0.0776
  236MOL0     H31794   5.116   8.002   8.330  0.6025  0.2879 -0.3046
  236MOL0     H31795   4.898   8.060   8.318  0.0195  1.4092  0.1638
  236MOL0     H31796   4.887   7.989   8.482  2.2718 -0.1341  1.0777
  236MOL0     H31797   4.729   8.235   8.375 -2.1303 -2.6346 -1.5744
  236MOL0     H31798   4.677   8.075   8.361 -2.3071  1.8587 -0.6534
  236MOL0     H31799   4.679   8.055   8.622  0.8847 -1.1145 -0.6094
  236MOL0     H31800   4.756   8.217   8.614  0.5542 -1.0070  0.6010
  236MOL0     H31801   4.576   8.351   8.549  0.5240  0.4843 -1.1518
  236MOL0     H31802   4.492   8.214   8.497 -0.8332  1.5647  0.8863
  236MOL0     H31803   4.424   8.145   8.713 -1.3995  1.2312  0.5185
  236MOL0     H31804   4.563   8.236   8.785  0.5012 -1.1973  0.8102
  236MOL0     H31805   4.461   8.442   8.749  1.7048 -2.3724  1.2469
  236MOL0     H31806   4.336   8.375   8.636 -1.5434 -0.6078  0.1551
  236MOL0     H31807   4.234   8.241   8.799  1.5089 -0.4099 -1.6517
  236MOL0     H31808   4.348   8.311   8.928 -0.0103  1.3877  0.9346
  236MOL0     H31809   4.254   8.539   8.867  0.2729 -0.3144  2.1578
  236MOL0     H31810   4.146   8.435   8.965 -0.2641 -0.6357  0.2423
  236MOL0     H31811   4.192   8.560   8.590 -0.4915  0.4174 -0.4910
  236MOL0     H31812   3.851   8.686   8.482 -0.8646 -0.4876 -2.3770
  236MOL0     H31813   4.011   8.703   8.437 -0.1192  1.6084  2.6117
  236MOL0     H31814   3.867   8.590   8.256 -0.6944 -2.2503 -0.2553
  236MOL0     H31815   3.857   8.455   8.368  0.6605 -1.0034 -1.2427
  236MOL0     H31816   4.145   8.542   8.334 -1.7045  0.6930  2.7138
  236MOL0     H31817   4.056   8.503   8.177  0.2829  0.5910 -0.1462
  236MOL0     H31818   3.986   8.284   8.271 -2.5058  2.3648  2.0168
  236MOL0     H31819   4.048   8.319   8.423  1.1607 -0.0306  1.6146
  236MOL0     H31820   4.117   8.045   8.219  0.4131 -0.9498  0.3601
  236MOL0     H31821   4.200   7.834   7.984 -1.2398 -1.7102  1.3505
  236MOL0     H31822   4.063   7.863   8.084 -1.2910 -1.3311 -0.1676
  236MOL0     H31823   4.040   7.880   7.907 -0.2973 -0.1642  0.8632
  236MOL0     H31824   4.170   8.343   7.543 -4.8186  0.4101  0.5128
  236MOL0     H31825   4.048   8.339   7.348 -2.4929 -1.0836  2.3698
  236MOL0     H31826   3.880   8.265   7.209  0.7905  2.4252 -0.5017
  236MOL0     H31827   4.015   8.299   7.099 -0.4832  1.3034  1.3731
  236MOL0     H31828   3.856   8.144   6.949 -0.1034  2.8261 -1.6911
  236MOL0     H31829   3.758   8.137   7.088  1.6181 -2.1815 -1.2235
  236MOL0     H31830   3.782   8.417   7.054 -0.9171 -2.2865  3.1252
  236MOL0     H31831   3.670   8.331   6.955 -0.8486 -0.6747  1.1035
  236MOL0     H31832   3.972   8.353   6.878  0.4057  3.8367  2.4598
  236MOL0     H31833   3.837   8.304   6.781 -0.5487 -1.0121  0.9649
  236MOL0     H31834   3.883   8.594   6.893 -0.7103  3.8561 -2.9270
  236MOL0     H31835   3.759   8.555   6.779  1.7360  1.0983 -0.8682
  236MOL0     H31836   4.034   8.506   6.693 -0.4845 -1.5677  0.0049
  236MOL0     H31837   3.877   8.488   6.611 -1.3344  0.6430 -0.8732
  236MOL0     H31838   3.992   8.748   6.727 -3.3190  1.2620  0.2495
  236MOL0     H31839   3.839   8.725   6.631 -2.5860 -2.7819  0.8875
  236MOL0     H31840   4.126   8.663   6.522 -1.3073 -4.9306  2.7722
  236MOL0     H31841   4.039   8.816   6.502 -0.6600  0.2611 -0.7233
  236MOL0     H31842   4.144   7.925   7.270  0.6554 -2.2435  2.9754
  236MOL0     H31843   4.289   7.931   7.483 -1.6786 -1.5692 -1.0218
  236MOL0     H31844   4.296   8.291   7.832 -0.6181  1.1312  0.2333
  236MOL0     H31845   4.295   8.385   8.073 -0.2706  0.3864 -3.5849
  236MOL0     H31846   5.112   8.339   8.596 -1.2462  2.1655 -2.7794
  236MOL0     H31847   5.360   8.323   8.624  0.8535  1.2686 -0.1328
  236MOL0     H31848   5.829   8.031   8.247  1.6312  0.8830 -1.8432
  236MOL0     H31849   6.072   8.137   8.241  2.8497  2.6709  2.1138
  236MOL0     H31850   6.145   8.492   8.507  1.1297  0.3649 -1.5835
  236MOL0     H31851   6.171   8.349   8.607  2.1942  1.8840  0.3855
  236MOL0     H31852   6.363   8.441   8.399 -1.8677 -0.1471  0.5266
  236MOL0     H31853   6.373   8.312   8.536  0.9415 -0.0492 -0.3571
  236MOL0     H31854   6.506   8.476   8.604 -0.3380 -2.0372 -1.7325
  236MOL0     H31855   6.366   8.460   8.707 -2.1313  2.1429  0.0435
  236MOL0     H31856   6.263   8.670   8.597 -1.1369 -0.5877 -3.4221
  236MOL0     H31857   6.380   8.673   8.475 -0.3055 -0.1243  0.4098
  236MOL0     H31858   6.618   8.898   8.682  2.1961 -1.0966 -1.8739
  236MOL0     H31859   5.948   8.383   8.562 -3.2706 -1.4868  3.4870
  236MOL0     H31860   5.721   8.308   8.556 -0.4356  1.6827 -1.5879
  237MOL0     O31861   4.071   7.422  10.992 -0.1733  0.7153 -0.5140
  237MOL0     C31862   3.972   7.477  11.029  0.2005 -0.1277 -0.6320
  237MOL0     O31863   3.855   7.494  10.953 -0.1679 -0.3038 -0.2616
  237MOL0     C31864   3.826   7.419  10.844  1.3517 -0.2860 -0.3788
  237MOL0     C31865   3.867   7.290  10.809 -0.1089 -0.5910  0.8155
  237MOL0     C31866   3.811   7.228  10.687 -0.6901 -0.1057 -0.3319
  237MOL0     C31867   3.732   7.299  10.596  0.0862 -0.3442  0.0054
  237MOL0     O31868   3.709   7.235  10.475 -0.7448  0.1252  0.6461
  237MOL0     C31869   3.636   7.313  10.366 -0.6406  1.0107 -0.2831
  237MOL0     C31870   3.723   7.421  10.304 -1.2096 -0.1120  0.3157
  237MOL0     C31871   3.658   7.495  10.185  0.4051  0.8544  1.3875
  237MOL0     C31872   3.521   7.555  10.239  0.4985  0.8279  0.2876
  237MOL0     C31873   3.424   7.599  10.128 -0.4635  0.3458 -0.3126
  237MOL0     C31874   3.484   7.727  10.064  0.3905 -0.4144 -0.3501
  237MOL0     C31875   3.497   7.865  10.142 -0.0507  0.6659 -0.6044
  237MOL0     C31876   3.556   7.978  10.060 -0.2343 -0.1250  0.1892
  237MOL0     N31877   3.581   8.107  10.138 -0.7871  0.1276  0.6833
  237MOL0     C31878   3.656   8.127  10.256 -0.0368  0.9060  0.6102
  237MOL0     C31879   3.641   8.255  10.277 -0.5682 -1.9633  0.6613
  237MOL0     C31880   3.672   8.331  10.404 -0.3768  0.5959 -0.4185
  237MOL0     C31881   3.830   8.366  10.392  0.8831  0.0488  0.2763
  237MOL0     C31882   3.871   8.418  10.528  0.0179 -0.4652  1.1168
  237MOL0     C31883   4.022   8.443  10.543  0.0648  0.5492 -0.6057
  237MOL0     O31884   4.071   8.508  10.427  0.4886  0.3322  0.1844
  237MOL0     C31885   4.191   8.570  10.435 -1.4136  0.8227 -1.3408
  237MOL0     C31886   4.303   8.497  10.427  0.7153 -0.5389 -0.5433
  237MOL0     C31887   4.436   8.546  10.458  0.1621  0.6525  0.4244
  237MOL0     C31888   4.547   8.443  10.457  0.5187  0.8714  0.2717
  237MOL0     C31889   4.454   8.681  10.501 -0.0045  0.5137 -1.2588
  237MOL0     C31890   4.591   8.753  10.533  0.2037 -0.5854  0.6059
  237MOL0     O31891   4.588   8.890  10.565 -0.0297 -0.3130  1.0894
  237MOL0     C31892   4.702   8.966  10.566  0.3684 -0.2210 -0.6119
  237MOL0     C31893   4.818   8.919  10.636  0.4549  0.5247  0.5760
  237MOL0     C31894   4.934   9.004  10.636  0.5184 -0.3657  0.0338
  237MOL0     C31895   4.920   9.135  10.582  0.0253 -0.0046  0.1561
  237MOL0     O31896   5.028   9.227  10.584  0.5371  0.3904 -0.5279
  237MOL0     C31897   5.149   9.171  10.516  0.4657 -0.6755  0.3371
  237MOL0     C31898   5.255   9.252  10.583 -0.7368 -0.1888 -0.4291
  237MOL0     C31899   5.395   9.222  10.528  0.4067  0.1606  0.6837
  237MOL0     C31900   5.481   9.128  10.615 -0.3283  0.5083 -0.1454
  237MOL0     C31901   5.642   9.160  10.616  0.4010  0.6249  0.0982
  237MOL0     C31902   5.727   9.039  10.613  0.6579 -0.2704 -0.2866
  237MOL0     C31903   5.756   8.978  10.749 -0.3022  0.2193 -0.4438
  237MOL0     C31904   5.805   8.833  10.754  0.1721 -0.4018 -0.8292
  237MOL0    Cl31905   5.848   8.773  10.925 -0.2355  0.4415  0.1533
  237MOL0     C31906   4.805   9.183  10.538  0.6998  0.7609 -0.4274
  237MOL0     C31907   4.695   9.102  10.525 -0.6772 -0.8355 -1.4176
  237MOL0     O31908   4.690   8.679  10.538  0.3309 -1.6752  0.5014
  237MOL0     C31909   4.335   8.756  10.511 -0.5560 -0.6585 -1.0366
  237MOL0     C31910   4.215   8.707  10.478  1.0055  0.5311 -0.2612
  237MOL0     N31911   3.575   8.322  10.178 -0.4330 -0.9347  0.8348
  237MOL0     N31912   3.530   8.227  10.100 -0.0152 -1.1229  0.0046
  237MOL0     C31913   3.690   7.429  10.637  0.3124 -0.1561  0.0589
  237MOL0     C31914   3.741   7.483  10.756  0.0010 -0.6541  0.5922
  237MOL0     C31915   3.977   7.549  11.161 -0.3205  0.0526  0.4398
  237MOL0     C31916   3.873   7.630  11.202 -0.1733  0.3170  0.7726
  237MOL0     C31917   3.883   7.701  11.333 -1.1251  0.5920  0.7505
  237MOL0     C31918   3.990   7.680  11.424  0.4524 -0.2169  0.0151
  237MOL0     O31919   3.993   7.753  11.542  0.1629 -0.4172 -0.2631
  237MOL0     C31920   4.118   7.777  11.601 -1.1425  0.0001  0.0223
  237MOL0     C31921   4.095   7.859  11.729 -0.0045 -0.6346  1.0281
  237MOL0     C31922   4.007   7.978  11.722  0.1375 -0.0584 -0.1778
  237MOL0     C31923   3.990   8.051  11.858 -0.7112  0.0394  1.4067
  237MOL0     C31924   4.111   8.125  11.890  0.7128  0.0583 -0.3417
  237MOL0     C31925   4.215   8.181  11.920 -0.0048 -0.2359  1.0544
  237MOL0     C31926   4.098   7.592  11.376  0.2443  0.1651  0.9040
  237MOL0     C31927   4.084   7.525  11.248 -0.3461 -0.1078 -0.3115
  237MOL0     H31928   3.942   7.238  10.869 -0.4905 -2.4413 -0.2333
  237MOL0     H31929   3.846   7.127  10.668  2.9740  0.5831  1.6475
  237MOL0     H31930   3.610   7.234  10.295 -3.6948 -0.5714  2.3391
  237MOL0     H31931   3.538   7.339  10.406 -1.9489  0.1841 -2.7293
  237MOL0     H31932   3.749   7.492  10.383 -1.5271  0.1401  0.1975
  237MOL0     H31933   3.818   7.383  10.264 -1.9946  0.6314 -2.4941
  237MOL0     H31934   3.725   7.574  10.150 -1.0872  2.5359  2.1765
  237MOL0     H31935   3.632   7.425  10.105  2.4082  1.3212  0.2574
  237MOL0     H31936   3.467   7.480  10.297 -0.9329  0.5821 -1.2818
  237MOL0     H31937   3.534   7.646  10.299 -0.1001  0.1288  1.5131
  237MOL0     H31938   3.402   7.524  10.052 -0.9495 -0.9476  1.0531
  237MOL0     H31939   3.337   7.624  10.190  1.1235 -1.6437  2.9874
  237MOL0     H31940   3.587   7.708  10.032  1.1160  3.1204 -0.5070
  237MOL0     H31941   3.427   7.761   9.977  1.6657  3.2437  0.0874
  237MOL0     H31942   3.396   7.888  10.176  0.1162 -0.9476  1.1870
  237MOL0     H31943   3.559   7.863  10.232 -0.6896  1.8953 -0.1212
  237MOL0     H31944   3.491   7.999   9.975 -3.3368 -1.7242  1.9996
  237MOL0     H31945   3.653   7.948  10.019 -1.1740 -0.8886 -1.5721
  237MOL0     H31946   3.700   8.057  10.327 -1.0106  0.7611  1.0941
  237MOL0     H31947   3.607   8.418  10.405 -2.2078 -0.7196 -0.0401
  237MOL0     H31948   3.647   8.262  10.486  0.1995 -1.9906 -2.2808
  237MOL0     H31949   3.843   8.448  10.320 -0.9863  2.3465  2.4004
  237MOL0     H31950   3.894   8.284  10.359  2.1643  1.2589 -0.3434
  237MOL0     H31951   3.845   8.333  10.593  1.5866 -0.8230  1.3165
  237MOL0     H31952   3.810   8.502  10.562 -2.5887 -2.0147  0.6406
  237MOL0     H31953   4.064   8.341  10.541 -2.6558 -0.8027  2.7310
  237MOL0     H31954   4.050   8.491  10.636 -0.1152 -1.4468  0.5405
  237MOL0     H31955   4.285   8.397  10.391 -2.4018 -0.4589  0.5105
  237MOL0     H31956   4.606   8.463  10.547  0.5334 -0.1860  0.5139
  237MOL0     H31957   4.506   8.342  10.465  1.1066  0.6467  0.4844
  237MOL0     H31958   4.606   8.450  10.366  1.0433  0.2678  0.5541
  237MOL0     H31959   4.813   8.821  10.681 -1.8487  0.6781  0.7731
  237MOL0     H31960   5.030   8.974  10.677  1.1819  0.7530 -0.6516
  237MOL0     H31961   5.167   9.063  10.520  0.8517 -0.6396 -0.1904
  237MOL0     H31962   5.156   9.203  10.411 -1.1603  2.2268  1.0170
  237MOL0     H31963   5.225   9.355  10.560 -3.5893 -0.7693  0.2935
  237MOL0     H31964   5.255   9.235  10.691  1.8500  1.0792 -0.1560
  237MOL0     H31965   5.453   9.306  10.489  2.3559 -2.7553 -3.5133
  237MOL0     H31966   5.374   9.168  10.435 -1.8263  1.5623  0.3032
  237MOL0     H31967   5.439   9.118  10.715 -0.1637  1.1677 -0.0049
  237MOL0     H31968   5.474   9.031  10.564 -0.7366  0.8040 -0.6574
  237MOL0     H31969   5.661   9.210  10.712  2.8437 -0.6854  0.3820
  237MOL0     H31970   5.669   9.230  10.536  1.8551 -0.9726 -0.8811
  237MOL0     H31971   5.682   8.967  10.545 -0.8807  1.9337 -1.7366
  237MOL0     H31972   5.827   9.067  10.578  0.1942  0.7216 -0.8529
  237MOL0     H31973   5.664   8.988  10.807  0.3394  0.4518  0.5749
  237MOL0     H31974   5.834   9.037  10.799 -1.3559  2.9461 -1.8206
  237MOL0     H31975   5.891   8.819  10.688 -0.3778 -0.0615 -1.6235
  237MOL0     H31976   5.731   8.768  10.707 -2.3535  1.2132  0.6470
  237MOL0     H31977   4.796   9.286  10.508 -0.6127 -0.0925 -3.2656
  237MOL0     H31978   4.610   9.142  10.470  0.1474  1.6270 -1.0476
  237MOL0     H31979   4.342   8.861  10.534  0.5713 -0.9363 -0.0349
  237MOL0     H31980   4.119   8.753  10.499 -1.8418 -5.1990  1.6208
  237MOL0     H31981   3.629   7.491  10.572  1.2185 -1.5546 -2.2431
  237MOL0     H31982   3.710   7.578  10.798 -0.6703 -1.2254  1.4176
  237MOL0     H31983   3.793   7.648  11.132 -2.0809 -1.5973  2.3523
  237MOL0     H31984   3.797   7.762  11.358 -0.2707  1.3948  1.8158
  237MOL0     H31985   4.155   7.679  11.634 -1.3671  0.4629  1.7766
  237MOL0     H31986   4.183   7.828  11.529 -0.3262 -0.2409  0.5713
  237MOL0     H31987   4.184   7.894  11.782 -1.0350  1.7408  1.3167
  237MOL0     H31988   4.050   7.786  11.797 -1.0941  0.2189  1.2575
  237MOL0     H31989   3.905   7.954  11.691 -0.9228  1.3316  2.0072
  237MOL0     H31990   4.053   8.046  11.649 -0.6474 -0.1852 -0.8003
  237MOL0     H31991   3.959   7.985  11.940 -0.7070 -0.9528  0.6174
  237MOL0     H31992   3.916   8.130  11.841 -0.6439  0.2409  2.0250
  237MOL0     H31993   4.300   8.245  11.932  0.9209 -0.4957 -2.7601
  237MOL0     H31994   4.182   7.574  11.443 -0.5377 -0.2064  1.8095
  237MOL0     H31995   4.161   7.452  11.225  1.6299  0.7281  3.0697
  238MOL0     O31996   8.098   0.333   0.525  0.2711  0.2849  0.3138
  238MOL0     C31997   7.998   0.328   0.598  0.0935 -0.3467 -0.3309
  238MOL0     O31998   7.959   0.223   0.676  0.3762  0.2495  0.5533
  238MOL0     C31999   8.038   0.109   0.679 -0.5359  0.0020 -0.2664
  238MOL0     C32000   8.049   0.038   0.796 -0.2923  0.4384  0.6809
  238MOL0     C32001   8.122  -0.079   0.804  0.2482  0.7793 -0.7354
  238MOL0     C32002   8.211  -0.114   0.702  0.0968 -0.5654 -1.0218
  238MOL0     O32003   8.300  -0.218   0.720  0.1872  0.3811  0.7807
  238MOL0     C32004   8.289  -0.310   0.834 -1.2035  0.1537 -0.1043
  238MOL0     C32005   8.378  -0.435   0.799 -0.2594  0.2766  0.5256
  238MOL0     C32006   8.525  -0.412   0.844 -0.1453  0.3548  0.7809
  238MOL0     C32007   8.534  -0.483   0.980 -0.4931 -0.3736  0.1537
  238MOL0     C32008   8.675  -0.483   1.024 -0.1629 -0.8404  0.4007
  238MOL0     C32009   8.666  -0.506   1.174 -0.8881  0.2573 -0.5212
  238MOL0     C32010   8.806  -0.537   1.241  0.1247 -0.5928  0.8217
  238MOL0     C32011   8.903  -0.414   1.214  0.3176 -0.7774  0.1212
  238MOL0     N32012   8.982  -0.378   1.331 -0.0007 -0.5413  0.1732
  238MOL0     C32013   9.082  -0.449   1.397  0.2599  0.2997  0.8636
  238MOL0     C32014   9.134  -0.362   1.484 -0.0137 -1.0692 -0.4843
  238MOL0     C32015   9.235  -0.396   1.587  0.8286  0.3466  0.0767
  238MOL0     C32016   9.177  -0.480   1.695  0.2207  0.4556  0.0002
  238MOL0     C32017   9.272  -0.482   1.818  0.4235 -0.1692 -0.8621
  238MOL0     C32018   9.415  -0.528   1.797  1.0844 -0.1598  0.4138
  238MOL0     O32019   9.408  -0.669   1.787  0.4345 -0.2722 -0.6069
  238MOL0     C32020   9.500  -0.747   1.854  0.0372 -0.5485 -0.0679
  238MOL0     C32021   9.634  -0.707   1.860  0.2926  0.3899 -0.9155
  238MOL0     C32022   9.734  -0.791   1.912  0.2084  0.6406  0.1813
  238MOL0     C32023   9.874  -0.731   1.938 -0.3989  0.7736 -0.1507
  238MOL0     C32024   9.686  -0.920   1.965 -0.9528 -0.4148  0.2885
  238MOL0     C32025   9.781  -1.007   2.036 -0.0039  0.5198 -1.0215
  238MOL0     O32026   9.720  -1.109   2.111 -0.0740 -0.0064 -0.3844
  238MOL0     C32027   9.797  -1.191   2.184 -0.4031 -0.2313  0.7229
  238MOL0     C32028   9.816  -1.159   2.318 -0.7078  0.1577 -0.0352
  238MOL0     C32029   9.898  -1.255   2.396  0.0595 -0.3612  0.7311
  238MOL0     C32030   9.967  -1.358   2.335  0.3828  0.6483 -0.2160
  238MOL0     O32031  10.043  -1.440   2.422 -0.2368  1.2401  0.2084
  238MOL0     C32032  10.165  -1.495   2.376 -1.0161  0.0356  0.6175
  238MOL0     C32033  10.259  -1.493   2.501 -0.7477  0.1936  1.6468
  238MOL0     C32034  10.367  -1.603   2.472 -0.3308  0.5070  0.2624
  238MOL0     C32035  10.502  -1.561   2.551  0.4038 -0.0683  0.1369
  238MOL0     C32036  10.468  -1.563   2.704  0.1980  0.0739  1.2740
  238MOL0     C32037  10.547  -1.446   2.751  0.0663 -0.1920 -0.3637
  238MOL0     C32038  10.696  -1.464   2.735  0.2975 -0.3637  0.0173
  238MOL0     C32039  10.756  -1.553   2.841 -0.7750  0.4511  0.5536
  238MOL0    Cl32040  10.911  -1.620   2.774  0.3196 -0.1187 -0.4608
  238MOL0     C32041   9.947  -1.388   2.206  0.8337 -0.2484  0.1946
  238MOL0     C32042   9.863  -1.304   2.130 -0.3022 -0.2923  0.3000
  238MOL0     O32043   9.898  -0.990   2.026  0.1044  0.1453 -0.4571
  238MOL0     C32044   9.554  -0.958   1.951  0.4687  0.3654  0.1918
  238MOL0     C32045   9.460  -0.877   1.901 -0.0825 -0.7248  0.8455
  238MOL0     N32046   9.071  -0.238   1.475 -0.2164  0.2559 -0.0966
  238MOL0     N32047   8.970  -0.255   1.396 -0.0127  0.4351 -0.6292
  238MOL0     C32048   8.201  -0.048   0.580  0.7827 -0.5409  0.0712
  238MOL0     C32049   8.111   0.065   0.571 -0.1016  0.3318  0.0400
  238MOL0     C32050   7.908   0.446   0.581 -0.8769 -0.3219  0.6593
  238MOL0     C32051   7.805   0.450   0.672 -0.3427  0.0242  0.8174
  238MOL0     C32052   7.718   0.568   0.675 -0.9775  0.0159  0.0603
  238MOL0     C32053   7.740   0.675   0.584 -0.3557 -0.7045 -0.1417
  238MOL0     O32054   7.659   0.784   0.582  0.0028  0.9792  0.7472
  238MOL0     C32055   7.632   0.864   0.701  0.2504  0.8052  0.2900
  238MOL0     C32056   7.747   0.927   0.781 -0.4097 -0.3958  0.3423
  238MOL0     C32057   7.849   0.999   0.687  0.6122 -0.6017 -0.1148
  238MOL0     C32058   7.968   1.064   0.769  0.3213  0.3682 -0.0673
  238MOL0     C32059   7.923   1.147   0.881  0.1550  0.3050  0.6831
  238MOL0     C32060   7.876   1.215   0.968  0.1848  0.1834  0.7653
  238MOL0     C32061   7.842   0.661   0.485 -0.3375  0.0491 -0.2341
  238MOL0     C32062   7.926   0.551   0.478  0.2381 -0.0115 -0.8020
  238MOL0     H32063   7.998   0.065   0.887  1.4492  2.5872  1.1102
  238MOL0     H32064   8.119  -0.143   0.892  1.8601 -1.2549 -2.0414
  238MOL0     H32065   8.331  -0.259   0.921  2.4937  4.0375 -3.6521
  238MOL0     H32066   8.188  -0.350   0.847 -2.0030  1.5358 -1.7313
  238MOL0     H32067   8.322  -0.514   0.847 -1.4042 -1.1285 -2.8245
  238MOL0     H32068   8.379  -0.454   0.691  3.0412  1.1210  0.2800
  238MOL0     H32069   8.594  -0.455   0.771  0.6282  1.9461  0.5369
  238MOL0     H32070   8.555  -0.307   0.841 -2.2140  0.9963  0.8944
  238MOL0     H32071   8.470  -0.429   1.051  0.9460 -0.0924  1.2789
  238MOL0     H32072   8.494  -0.585   0.969 -0.3420 -0.4843  0.6063
  238MOL0     H32073   8.735  -0.554   0.967  1.7225  1.0742 -0.1350
  238MOL0     H32074   8.717  -0.385   1.000 -1.0759 -0.4322  0.4148
  238MOL0     H32075   8.612  -0.433   1.234  0.8423  0.8211  0.4098
  238MOL0     H32076   8.612  -0.599   1.196  0.1344 -0.5012 -1.0694
  238MOL0     H32077   8.799  -0.539   1.350 -0.3463  1.1077  0.8562
  238MOL0     H32078   8.844  -0.628   1.194  1.9977  1.4096 -1.8262
  238MOL0     H32079   8.840  -0.332   1.180  2.3368  0.4637 -0.7637
  238MOL0     H32080   8.970  -0.441   1.132  0.7506 -0.7546  0.4653
  238MOL0     H32081   9.114  -0.552   1.386 -0.0548  0.3975 -1.7665
  238MOL0     H32082   9.315  -0.451   1.536 -0.0554  0.7315 -1.7828
  238MOL0     H32083   9.269  -0.297   1.617  0.1201  0.2110  1.4003
  238MOL0     H32084   9.162  -0.587   1.674  2.3370  0.3585 -1.2812
  238MOL0     H32085   9.089  -0.421   1.723  1.4208  1.7973  1.0494
  238MOL0     H32086   9.215  -0.540   1.891  0.1608  1.4239  0.2672
  238MOL0     H32087   9.275  -0.380   1.857 -2.9850 -0.4925  0.6021
  238MOL0     H32088   9.470  -0.484   1.880 -0.7252  1.4660  0.8103
  238MOL0     H32089   9.457  -0.478   1.709 -2.5531  2.4299 -0.1048
  238MOL0     H32090   9.660  -0.605   1.833 -0.6736  1.1539  0.8550
  238MOL0     H32091   9.942  -0.772   1.863 -1.0507 -0.8145  0.0828
  238MOL0     H32092   9.870  -0.622   1.928  1.1859  0.6648 -3.0930
  238MOL0     H32093   9.898  -0.760   2.041 -3.2386 -0.3301  0.2974
  238MOL0     H32094   9.760  -1.077   2.363 -0.5650  0.5539 -0.5694
  238MOL0     H32095   9.908  -1.243   2.503 -0.5932  0.1221  0.7488
  238MOL0     H32096  10.155  -1.602   2.352 -2.2820  0.3865 -0.5115
  238MOL0     H32097  10.207  -1.437   2.294  0.3740 -0.7514  0.7360
  238MOL0     H32098  10.300  -1.396   2.529 -0.7403  0.2799  1.3391
  238MOL0     H32099  10.200  -1.510   2.592  2.3000  1.4055  4.0146
  238MOL0     H32100  10.396  -1.601   2.366  4.3464  0.4277  1.3231
  238MOL0     H32101  10.351  -1.705   2.508  3.1099 -0.9802 -1.9004
  238MOL0     H32102  10.579  -1.638   2.535 -1.7769 -2.7152  1.6044
  238MOL0     H32103  10.522  -1.462   2.508  1.0976 -0.4574 -0.4608
  238MOL0     H32104  10.499  -1.651   2.759 -0.4183 -0.4507  0.8067
  238MOL0     H32105  10.367  -1.541   2.739  0.6479 -0.7284  3.2044
  238MOL0     H32106  10.516  -1.358   2.694 -3.5399 -0.8238  0.4137
  238MOL0     H32107  10.524  -1.427   2.856  1.3774  1.9163 -0.4057
  238MOL0     H32108  10.742  -1.369   2.762  0.9346 -0.6583 -0.0129
  238MOL0     H32109  10.717  -1.489   2.630 -1.0423  2.7811 -1.1275
  238MOL0     H32110  10.705  -1.648   2.861  2.8689 -2.5740 -2.8004
  238MOL0     H32111  10.770  -1.499   2.935  1.6486  0.2307  0.3811
  238MOL0     H32112   9.968  -1.482   2.156 -0.7531 -0.3311 -0.3910
  238MOL0     H32113   9.853  -1.318   2.022  0.9376 -0.2033  0.1574
  238MOL0     H32114   9.517  -1.055   1.983 -0.5443  0.5448 -0.4071
  238MOL0     H32115   9.354  -0.897   1.884 -0.5254  2.0561 -0.2664
  238MOL0     H32116   8.265  -0.076   0.497 -1.1191  0.5117 -1.8537
  238MOL0     H32117   8.094   0.099   0.469 -2.4714  1.5663  0.7806
  238MOL0     H32118   7.787   0.367   0.740 -0.5355 -3.2148 -2.8415
  238MOL0     H32119   7.634   0.567   0.744  0.0778  0.7671  1.4027
  238MOL0     H32120   7.562   0.945   0.677  0.1903  1.1728  1.6221
  238MOL0     H32121   7.582   0.791   0.765  5.3814 -2.3739  1.2179
  238MOL0     H32122   7.809   0.849   0.827  0.4410 -0.2444 -0.5277
  238MOL0     H32123   7.714   0.992   0.862  0.3259  1.5891 -0.8951
  238MOL0     H32124   7.790   1.077   0.637  2.2334  0.9549  0.2867
  238MOL0     H32125   7.894   0.935   0.610  1.1558 -0.9654  0.4912
  238MOL0     H32126   8.029   1.116   0.694  2.3690  1.2052  2.0626
  238MOL0     H32127   8.035   0.997   0.823 -0.3412  0.0823  0.4161
  238MOL0     H32128   7.832   1.293   1.025 -1.3349 -0.6271  0.7523
  238MOL0     H32129   7.851   0.747   0.419  3.0010  0.0507  0.0394
  238MOL0     H32130   7.997   0.526   0.400 -0.6064 -3.6266 -0.5919
  239MOL0     O32131   7.227   3.040   1.547 -0.0033 -0.9177  0.1988
  239MOL0     C32132   7.106   3.022   1.560 -0.1199 -0.0543 -0.2890
  239MOL0     O32133   7.026   3.072   1.663 -0.4260  0.3226 -1.2055
  239MOL0     C32134   7.094   3.143   1.764  0.1969 -1.1481  0.2152
  239MOL0     C32135   7.098   3.093   1.888  0.5690 -0.3657 -1.1707
  239MOL0     C32136   7.159   3.168   1.995  0.0490 -0.4351  0.7111
  239MOL0     C32137   7.219   3.287   1.965  0.4065 -0.6160  0.3361
  239MOL0     O32138   7.312   3.332   2.056  0.0680 -0.5226 -0.9047
  239MOL0     C32139   7.324   3.466   2.086 -0.3311 -0.4223 -0.4716
  239MOL0     C32140   7.397   3.485   2.216  0.4906  0.7629  0.2810
  239MOL0     C32141   7.417   3.630   2.264  0.2737 -0.5126  1.5042
  239MOL0     C32142   7.494   3.722   2.160  0.1433  0.2655 -0.0412
  239MOL0     C32143   7.490   3.877   2.195 -0.1333 -0.0757 -0.0102
  239MOL0     C32144   7.554   3.916   2.325  0.5456 -0.0656 -0.4209
  239MOL0     C32145   7.536   4.067   2.353 -0.1646 -0.6646  0.2190
  239MOL0     C32146   7.602   4.106   2.490 -1.0582  0.0824 -0.3956
  239MOL0     N32147   7.738   4.168   2.483  0.6655 -0.2070  0.7608
  239MOL0     C32148   7.844   4.143   2.398  0.4249  0.6216 -0.2165
  239MOL0     C32149   7.941   4.242   2.436  0.4436  0.6929 -0.3462
  239MOL0     C32150   8.077   4.271   2.375 -0.5295 -0.1890  0.0761
  239MOL0     C32151   8.195   4.197   2.443  0.9339  0.1025 -0.3645
  239MOL0     C32152   8.224   4.262   2.579  0.0676  0.2833  0.0050
  239MOL0     C32153   8.329   4.174   2.665  0.6226 -0.4584  0.1260
  239MOL0     O32154   8.410   4.257   2.748 -0.2407 -0.3161 -0.2005
  239MOL0     C32155   8.364   4.290   2.874  0.0232  0.1949 -0.0401
  239MOL0     C32156   8.443   4.383   2.941 -0.0826 -0.5519  0.0341
  239MOL0     C32157   8.426   4.406   3.077 -0.4600 -0.1395  0.0749
  239MOL0     C32158   8.516   4.501   3.153  0.6345  0.3724  0.4062
  239MOL0     C32159   8.313   4.341   3.132 -0.3685 -0.3439 -0.0566
  239MOL0     C32160   8.270   4.363   3.274 -0.0845  0.5484 -1.0166
  239MOL0     O32161   8.363   4.339   3.371 -0.3077 -0.1420  0.5340
  239MOL0     C32162   8.331   4.359   3.507 -0.1856  0.2900 -0.6540
  239MOL0     C32163   8.284   4.238   3.574  0.4191  0.0590  0.9052
  239MOL0     C32164   8.256   4.253   3.707 -0.0143  0.4757 -0.0015
  239MOL0     C32165   8.287   4.367   3.781  0.8154  0.2064  0.5876
  239MOL0     O32166   8.263   4.357   3.916  0.1974 -0.5525  0.4799
  239MOL0     C32167   8.240   4.483   3.984  1.2015 -0.4905 -0.1809
  239MOL0     C32168   8.105   4.545   3.953 -0.3906 -0.9226  0.5858
  239MOL0     C32169   8.005   4.519   4.056 -0.6552  0.2706 -0.2178
  239MOL0     C32170   7.996   4.370   4.098 -0.7335  0.2890  0.1827
  239MOL0     C32171   7.942   4.284   3.984  0.6032 -0.5016 -0.2375
  239MOL0     C32172   7.855   4.159   4.032  0.0469  0.0791  0.4495
  239MOL0     C32173   7.711   4.165   3.993  0.2695 -0.0473  0.0021
  239MOL0     C32174   7.638   4.262   4.088  0.2079 -0.2732 -0.3588
  239MOL0    Cl32175   7.462   4.301   4.043  0.3001  0.1196 -0.1485
  239MOL0     C32176   8.331   4.483   3.712 -0.4854 -0.6943  0.2931
  239MOL0     C32177   8.358   4.476   3.581  0.3014 -0.8472  0.3150
  239MOL0     O32178   8.148   4.359   3.295  0.4129 -0.6768  0.1681
  239MOL0     C32179   8.230   4.253   3.060 -0.3546  0.1747  0.2438
  239MOL0     C32180   8.260   4.230   2.930 -0.1304 -0.1655 -0.0997
  239MOL0     N32181   7.887   4.329   2.523 -0.0062  0.1450 -0.1425
  239MOL0     N32182   7.771   4.278   2.555  0.2542  0.3882  0.2691
  239MOL0     C32183   7.201   3.343   1.837 -0.4716 -0.2201  1.0247
  239MOL0     C32184   7.124   3.278   1.738  0.6500 -0.2378  0.2398
  239MOL0     C32185   7.037   2.923   1.467 -0.7265 -0.3561  0.2410
  239MOL0     C32186   7.105   2.886   1.354  0.1252 -0.1375 -0.7576
  239MOL0     C32187   7.044   2.807   1.256  0.1144  0.0114 -0.1729
  239MOL0     C32188   6.910   2.768   1.269  0.9676 -0.2797  0.1963
  239MOL0     O32189   6.862   2.715   1.155  0.3501 -0.3365  0.1409
  239MOL0     C32190   6.722   2.741   1.133 -0.6412 -0.2409  0.6233
  239MOL0     C32191   6.666   2.682   1.012 -0.2069 -0.5020 -0.2249
  239MOL0     C32192   6.713   2.766   0.889  0.0363 -0.2845 -0.5439
  239MOL0     C32193   6.601   2.738   0.782 -0.4665 -0.7100  1.2815
  239MOL0     C32194   6.646   2.768   0.643 -1.2807 -0.5253 -0.3523
  239MOL0     C32195   6.693   2.780   0.533  0.1827  0.5565 -0.4789
  239MOL0     C32196   6.833   2.802   1.385 -0.6797  0.7179 -0.1355
  239MOL0     C32197   6.899   2.882   1.475 -0.3088 -0.2300 -0.0476
  239MOL0     H32198   7.061   2.993   1.910  1.0092  0.1622  2.5658
  239MOL0     H32199   7.179   3.123   2.092  1.7696 -0.9485  0.1606
  239MOL0     H32200   7.384   3.513   2.007  1.6443 -0.7857  0.7457
  239MOL0     H32201   7.221   3.503   2.089 -0.2427  0.1083 -2.5080
  239MOL0     H32202   7.330   3.442   2.291 -4.6625  2.4481 -2.8333
  239MOL0     H32203   7.499   3.446   2.205 -0.4270 -0.9781 -3.4236
  239MOL0     H32204   7.325   3.688   2.273  1.1319  1.1276  0.2864
  239MOL0     H32205   7.478   3.619   2.354  1.4254 -0.6786  0.7228
  239MOL0     H32206   7.597   3.685   2.156  0.2785  0.1412  2.7380
  239MOL0     H32207   7.450   3.711   2.060  1.2703  0.6925 -0.5978
  239MOL0     H32208   7.540   3.935   2.117 -1.7185  2.1424  0.5102
  239MOL0     H32209   7.384   3.903   2.189 -0.7818 -2.6756 -1.3000
  239MOL0     H32210   7.507   3.867   2.411 -0.8409  1.5504 -0.2124
  239MOL0     H32211   7.658   3.883   2.312  0.0434 -1.5951 -0.7226
  239MOL0     H32212   7.583   4.128   2.276 -2.5006  0.2632 -0.5502
  239MOL0     H32213   7.429   4.086   2.364 -0.0609 -0.6166  1.2524
  239MOL0     H32214   7.612   4.024   2.562 -2.3671  1.2547  1.2035
  239MOL0     H32215   7.534   4.169   2.548 -0.8248  0.2372 -0.2866
  239MOL0     H32216   7.857   4.069   2.319 -0.7476  0.7728 -0.5612
  239MOL0     H32217   8.068   4.227   2.275 -4.3629 -0.4546  0.3687
  239MOL0     H32218   8.086   4.377   2.350 -2.4447 -0.2251 -0.9602
  239MOL0     H32219   8.280   4.196   2.375 -1.5926 -1.0642 -3.8009
  239MOL0     H32220   8.161   4.096   2.468  4.1508 -0.7233  1.1665
  239MOL0     H32221   8.130   4.269   2.635 -1.5191 -2.2488 -2.0994
  239MOL0     H32222   8.278   4.353   2.551  1.7377 -1.3428 -2.5766
  239MOL0     H32223   8.406   4.133   2.598  1.3516  0.3679  0.4335
  239MOL0     H32224   8.281   4.087   2.711  0.5841 -1.5216 -1.7940
  239MOL0     H32225   8.516   4.440   2.884  2.7032 -2.1898  1.7323
  239MOL0     H32226   8.571   4.561   3.080 -1.1346  0.3495 -1.0130
  239MOL0     H32227   8.463   4.566   3.224  0.1558  2.3928 -1.6501
  239MOL0     H32228   8.589   4.449   3.215 -0.3047  0.1075  1.3200
  239MOL0     H32229   8.263   4.151   3.513 -1.4141  1.6577 -0.8971
  239MOL0     H32230   8.211   4.166   3.753 -2.0949  2.5742  2.2249
  239MOL0     H32231   8.253   4.470   4.092 -0.8879 -0.1880  0.1557
  239MOL0     H32232   8.320   4.549   3.950 -0.3442  0.3653 -2.3531
  239MOL0     H32233   8.115   4.652   3.935 -0.1019 -0.6687  2.1045
  239MOL0     H32234   8.067   4.496   3.863 -0.2137 -1.6881  0.9179
  239MOL0     H32235   7.908   4.561   4.028 -0.0358  1.3359 -0.8674
  239MOL0     H32236   8.050   4.576   4.138  0.6917  0.4462 -1.0497
  239MOL0     H32237   8.091   4.327   4.130  0.8440  2.7349 -0.9100
  239MOL0     H32238   7.936   4.365   4.189 -0.4656  0.6277  0.3793
  239MOL0     H32239   8.034   4.253   3.933 -0.8447  0.0815 -3.4914
  239MOL0     H32240   7.884   4.344   3.913 -0.0225 -1.0487 -0.1959
  239MOL0     H32241   7.901   4.072   3.984 -0.1431 -0.8838  1.9440
  239MOL0     H32242   7.865   4.137   4.138  1.1115 -0.6086  0.2211
  239MOL0     H32243   7.663   4.068   4.010  0.5311  0.0523  1.4474
  239MOL0     H32244   7.708   4.196   3.888 -2.2993 -0.9394 -0.2806
  239MOL0     H32245   7.691   4.357   4.088 -1.9887  1.0141 -0.5363
  239MOL0     H32246   7.626   4.220   4.189 -1.9507  1.6837  0.2983
  239MOL0     H32247   8.356   4.580   3.755 -0.1861 -0.2336 -0.8765
  239MOL0     H32248   8.404   4.559   3.528 -0.4794 -0.4914  0.1815
  239MOL0     H32249   8.151   4.210   3.122  1.1017  1.4515  3.2071
  239MOL0     H32250   8.197   4.160   2.876 -0.5979 -0.2892  0.5899
  239MOL0     H32251   7.261   3.428   1.807 -1.6865 -0.4468 -2.4671
  239MOL0     H32252   7.100   3.316   1.639  1.2383  1.9212  0.8623
  239MOL0     H32253   7.208   2.918   1.353  0.4109 -0.9843  0.3767
  239MOL0     H32254   7.101   2.764   1.174 -0.3584  1.6054 -1.4066
  239MOL0     H32255   6.670   2.694   1.217 -1.0325 -1.1183 -0.0989
  239MOL0     H32256   6.692   2.844   1.154  0.3088  0.3186 -0.6051
  239MOL0     H32257   6.557   2.682   1.024  0.0172 -0.1232  2.4994
  239MOL0     H32258   6.700   2.579   1.000 -0.1744 -0.3607 -1.4532
  239MOL0     H32259   6.813   2.737   0.856 -0.4942  0.1566 -2.7286
  239MOL0     H32260   6.725   2.873   0.911 -0.3250 -0.1933 -0.7666
  239MOL0     H32261   6.508   2.796   0.785 -0.7749 -0.8765 -1.9027
  239MOL0     H32262   6.577   2.632   0.785 -0.7601 -0.6406  1.4807
  239MOL0     H32263   6.718   2.766   0.430  2.4705  1.9877 -0.2087
  239MOL0     H32264   6.731   2.775   1.413 -0.1292 -1.6439 -0.1957
  239MOL0     H32265   6.846   2.920   1.562 -1.1499  0.1824 -0.7274
  240MOL0     O32266   6.534   5.676   9.659  0.0816 -0.9354  0.3624
  240MOL0     C32267   6.505   5.626   9.554 -0.0638 -0.0519  0.4274
  240MOL0     O32268   6.369   5.596   9.529 -0.1589  0.1643  0.8218
  240MOL0     C32269   6.269   5.620   9.614  0.0585  0.3603 -0.2251
  240MOL0     C32270   6.244   5.524   9.701 -0.3915 -0.1779 -0.9023
  240MOL0     C32271   6.147   5.539   9.803 -0.6825 -0.4679  0.1163
  240MOL0     C32272   6.080   5.660   9.818  0.7369  0.0626 -0.1261
  240MOL0     O32273   5.985   5.662   9.918  1.0536  0.0798 -0.3171
  240MOL0     C32274   5.921   5.787   9.948 -0.4501  0.1516 -0.4997
  240MOL0     C32275   5.820   5.768  10.069  0.1376 -0.2435  0.0644
  240MOL0     C32276   5.789   5.903  10.135 -0.2651 -0.3697 -0.3963
  240MOL0     C32277   5.728   5.998  10.039  0.7598  0.1468 -0.1030
  240MOL0     C32278   5.683   6.124  10.102  0.5310 -0.1286  0.2604
  240MOL0     C32279   5.588   6.209  10.009  0.1928 -0.1541 -0.0544
  240MOL0     C32280   5.464   6.140   9.952  0.1364 -0.1200  0.1417
  240MOL0     C32281   5.371   6.073  10.066  0.6983  0.1794 -0.1607
  240MOL0     N32282   5.251   6.014  10.003  0.4710 -1.0578 -0.1886
  240MOL0     C32283   5.160   6.088   9.930  0.4461  0.7086  0.9869
  240MOL0     C32284   5.054   6.007   9.923  0.0254 -0.5898 -0.2820
  240MOL0     C32285   4.920   6.032   9.859 -0.2662 -0.1776 -0.5255
  240MOL0     C32286   4.936   6.027   9.707 -0.7220  0.7792  0.0794
  240MOL0     C32287   4.804   6.036   9.625 -0.6613 -0.3400  0.3578
  240MOL0     C32288   4.734   5.899   9.626 -0.0722 -1.2727  0.4127
  240MOL0     O32289   4.629   5.895   9.520 -0.6001  0.6324 -0.5811
  240MOL0     C32290   4.617   5.787   9.437 -0.5612  0.9805 -0.3735
  240MOL0     C32291   4.691   5.666   9.445 -0.3925  0.0139  0.9365
  240MOL0     C32292   4.665   5.561   9.359 -0.7046  0.7164 -0.6435
  240MOL0     C32293   4.745   5.433   9.379 -0.1933 -0.2635 -0.9030
  240MOL0     C32294   4.558   5.558   9.262 -0.4690  0.4180 -0.0442
  240MOL0     C32295   4.532   5.443   9.168  1.0340  1.0376  0.4083
  240MOL0     O32296   4.566   5.312   9.198 -0.2950 -0.5074  0.0679
  240MOL0     C32297   4.571   5.228   9.087 -0.0726  0.0454  0.7748
  240MOL0     C32298   4.470   5.136   9.075 -0.0438 -0.8612 -0.4277
  240MOL0     C32299   4.464   5.051   8.952 -0.0375 -0.1840 -0.2632
  240MOL0     C32300   4.559   5.056   8.857  0.1238 -0.0409  0.2411
  240MOL0     O32301   4.542   4.986   8.736  0.1074  0.9630  0.3072
  240MOL0     C32302   4.630   5.018   8.627 -0.9893 -0.0300 -0.6029
  240MOL0     C32303   4.602   4.948   8.491  0.0247 -0.3926  0.1735
  240MOL0     C32304   4.489   5.009   8.417  0.6356 -0.0279  0.1145
  240MOL0     C32305   4.340   4.972   8.471 -1.4949  0.2280 -0.0862
  240MOL0     C32306   4.223   5.049   8.426  0.5616  0.0882  0.2216
  240MOL0     C32307   4.205   5.192   8.482  0.3778  0.2735  0.2505
  240MOL0     C32308   4.063   5.241   8.440  0.0758 -0.5557 -0.4583
  240MOL0     C32309   4.039   5.385   8.483 -0.2053 -0.2115 -0.7306
  240MOL0    Cl32310   3.869   5.434   8.478 -0.1266  0.1136 -0.1552
  240MOL0     C32311   4.660   5.152   8.882  0.8226 -0.3780  0.0611
  240MOL0     C32312   4.672   5.230   8.998 -0.1689  0.0175  0.0498
  240MOL0     O32313   4.489   5.477   9.062  0.0448 -1.3788  1.0164
  240MOL0     C32314   4.483   5.679   9.262 -1.0441 -0.1066 -0.4096
  240MOL0     C32315   4.518   5.787   9.343 -0.7118 -0.1172  0.1877
  240MOL0     N32316   5.095   5.884   9.985  0.1164 -0.1999 -0.7254
  240MOL0     N32317   5.205   5.896  10.041  0.1845 -0.0526  0.7677
  240MOL0     C32318   6.111   5.761   9.725  0.5134  0.0314  0.5287
  240MOL0     C32319   6.202   5.742   9.619  0.1003  0.9229  0.1720
  240MOL0     C32320   6.611   5.599   9.456 -0.1460 -0.5525  1.1284
  240MOL0     C32321   6.579   5.539   9.333  0.1981  0.0074 -0.0258
  240MOL0     C32322   6.676   5.513   9.237 -0.6398  0.0369  0.1244
  240MOL0     C32323   6.803   5.570   9.252 -0.6655 -0.4585  0.1069
  240MOL0     O32324   6.901   5.550   9.152 -0.2862 -0.3551 -0.7997
  240MOL0     C32325   6.857   5.507   9.022  0.6538 -0.1493 -0.3592
  240MOL0     C32326   6.976   5.480   8.933 -0.6820  0.2503  0.3599
  240MOL0     C32327   6.938   5.423   8.797  0.0185 -0.3255  0.5161
  240MOL0     C32328   6.853   5.520   8.721 -0.9319  0.2125 -0.0143
  240MOL0     C32329   6.854   5.509   8.576  0.5181 -0.0588 -0.4420
  240MOL0     C32330   6.859   5.523   8.451 -0.6482  0.0039  0.5719
  240MOL0     C32331   6.829   5.636   9.375  0.2663  0.1312 -0.4492
  240MOL0     C32332   6.737   5.653   9.478 -0.1307  0.7882 -0.1014
  240MOL0     H32333   6.297   5.429   9.705 -4.7438 -2.8149  0.1221
  240MOL0     H32334   6.127   5.454   9.867  0.6029 -1.2525 -0.4914
  240MOL0     H32335   5.996   5.863   9.972 -1.4818  1.1535 -0.3752
  240MOL0     H32336   5.866   5.823   9.861  0.7602  2.5633 -0.3663
  240MOL0     H32337   5.729   5.722  10.029 -1.3483  0.2323  2.6921
  240MOL0     H32338   5.855   5.704  10.150 -2.7313 -1.5320  0.4089
  240MOL0     H32339   5.720   5.882  10.217 -0.2144  1.0526  0.0396
  240MOL0     H32340   5.882   5.938  10.180  0.1716  1.0335 -2.2953
  240MOL0     H32341   5.803   6.020   9.963  3.8086 -0.6803  2.4697
  240MOL0     H32342   5.637   5.950  10.002  0.4412 -2.0649  3.1721
  240MOL0     H32343   5.632   6.112  10.198 -2.0123  0.7712 -0.8863
  240MOL0     H32344   5.770   6.187  10.122 -1.5844  2.5835  1.6835
  240MOL0     H32345   5.554   6.298  10.063  1.9870  1.4612 -1.4392
  240MOL0     H32346   5.644   6.249   9.924 -0.7428 -1.5811 -1.3937
  240MOL0     H32347   5.406   6.212   9.894  0.6363  0.9809  0.9577
  240MOL0     H32348   5.508   6.066   9.885  1.5754 -0.9074  1.8743
  240MOL0     H32349   5.339   6.142  10.144 -1.2477 -0.6285 -0.1909
  240MOL0     H32350   5.428   5.989  10.109 -0.2335  0.3196  1.4415
  240MOL0     H32351   5.179   6.186   9.887 -0.1147  1.1770  1.7824
  240MOL0     H32352   4.852   5.952   9.889  1.1845 -0.6777  1.6731
  240MOL0     H32353   4.868   6.125   9.886 -1.3282 -1.2040  1.1605
  240MOL0     H32354   4.988   5.936   9.676  2.3762  1.7641  1.8873
  240MOL0     H32355   4.993   6.119   9.687 -0.5692  0.5290 -0.6628
  240MOL0     H32356   4.822   6.068   9.522  2.3416 -1.3605  0.4529
  240MOL0     H32357   4.735   6.109   9.667 -0.5888  0.2857 -0.5841
  240MOL0     H32358   4.696   5.890   9.729 -2.7432  3.0023  0.0315
  240MOL0     H32359   4.806   5.823   9.594  1.1939  0.7344 -1.8167
  240MOL0     H32360   4.774   5.643   9.511  0.9420  0.1015 -0.6557
  240MOL0     H32361   4.776   5.399   9.279  1.1863 -0.0034 -0.5947
  240MOL0     H32362   4.837   5.449   9.437 -1.0467 -0.7637  0.6342
  240MOL0     H32363   4.694   5.344   9.414 -0.9797  1.0694  1.5939
  240MOL0     H32364   4.385   5.131   9.142  0.7478 -2.1988  0.5194
  240MOL0     H32365   4.369   4.999   8.945 -1.5105  2.4664 -1.5722
  240MOL0     H32366   4.632   5.126   8.611 -2.0282 -0.3586 -3.6667
  240MOL0     H32367   4.731   4.992   8.660 -1.2357 -1.1031 -0.6580
  240MOL0     H32368   4.687   4.962   8.424 -1.3392 -0.8416 -1.7413
  240MOL0     H32369   4.587   4.840   8.503 -4.7634  0.1018  0.4876
  240MOL0     H32370   4.490   4.989   8.309  0.7207  1.7830 -0.2576
  240MOL0     H32371   4.484   5.119   8.415 -1.1939 -0.0941 -0.4919
  240MOL0     H32372   4.336   4.863   8.461 -0.7090  0.4083 -2.9178
  240MOL0     H32373   4.344   4.990   8.579  1.8396  0.7488 -0.1946
  240MOL0     H32374   4.132   4.995   8.453  1.2678 -1.4315 -0.3066
  240MOL0     H32375   4.220   5.063   8.317 -1.7010  0.1606  0.2440
  240MOL0     H32376   4.194   5.184   8.591 -1.8795  0.3553  0.0858
  240MOL0     H32377   4.290   5.251   8.447  0.2168 -0.3893 -1.3694
  240MOL0     H32378   3.988   5.180   8.491  0.1955 -0.8796 -0.6654
  240MOL0     H32379   4.037   5.231   8.335  0.0552  1.4787 -0.6839
  240MOL0     H32380   4.087   5.465   8.426 -3.8538  2.5875 -0.3142
  240MOL0     H32381   4.072   5.399   8.586  0.1949 -0.8919 -0.7570
  240MOL0     H32382   4.732   5.177   8.804  1.4168 -2.0864  0.0107
  240MOL0     H32383   4.751   5.304   9.005  2.6622 -2.8613  0.6255
  240MOL0     H32384   4.405   5.688   9.187  0.0320  4.0609 -1.3206
  240MOL0     H32385   4.447   5.869   9.340  2.0018  2.3700 -1.8743
  240MOL0     H32386   6.066   5.858   9.740  3.7077  1.2068  4.4335
  240MOL0     H32387   6.226   5.822   9.549 -2.3856  2.2052  0.6588
  240MOL0     H32388   6.478   5.502   9.316  1.3653 -2.9014 -1.2252
  240MOL0     H32389   6.649   5.442   9.159  0.9512 -0.7270  0.2145
  240MOL0     H32390   6.819   5.405   9.031  0.1739 -0.0696 -1.2996
  240MOL0     H32391   6.780   5.566   8.971 -0.8420 -1.9743 -0.3265
  240MOL0     H32392   7.037   5.416   8.999  1.7183  1.2106 -0.8082
  240MOL0     H32393   7.028   5.572   8.908 -2.9201  1.8716  1.3164
  240MOL0     H32394   6.890   5.325   8.809 -1.5314  0.4385  0.7352
  240MOL0     H32395   7.024   5.393   8.737 -2.0808  0.2885 -3.1063
  240MOL0     H32396   6.899   5.619   8.734  5.5608 -2.0255 -2.1540
  240MOL0     H32397   6.745   5.521   8.742 -1.2266  0.5490 -1.4481
  240MOL0     H32398   6.859   5.532   8.345  2.7449 -0.1693  0.4524
  240MOL0     H32399   6.930   5.668   9.398  0.4728  0.0562 -1.2015
  240MOL0     H32400   6.754   5.717   9.564 -2.5098 -0.6132  1.5175
  241MOL0     O32401   6.461  10.687   6.436  0.4084 -0.7777  0.4532
  241MOL0     C32402   6.446  10.673   6.316  0.1271 -0.3179  1.4293
  241MOL0     O32403   6.348  10.608   6.263  0.0099  0.1619  0.7517
  241MOL0     C32404   6.243  10.538   6.328  0.8115  0.2892 -0.3862
  241MOL0     C32405   6.240  10.465   6.446 -0.5418  0.0623  0.0865
  241MOL0     C32406   6.121  10.403   6.498 -0.5852  0.1134  1.1888
  241MOL0     C32407   6.001  10.405   6.421  0.1834  0.8710 -0.3153
  241MOL0     O32408   5.880  10.337   6.453 -0.5395  0.2728 -0.0721
  241MOL0     C32409   5.859  10.297   6.588 -0.0906  0.0756  0.8796
  241MOL0     C32410   5.727  10.213   6.596 -0.4741 -0.3417 -0.2904
  241MOL0     C32411   5.593  10.301   6.605 -0.5502  0.5502  0.3981
  241MOL0     C32412   5.554  10.383   6.484  0.5735  0.2879  0.3082
  241MOL0     C32413   5.412  10.446   6.510 -0.1825  0.6828  0.7845
  241MOL0     C32414   5.355  10.484   6.370 -0.1590 -0.4013 -0.2336
  241MOL0     C32415   5.206  10.522   6.384  0.2571  0.1125 -0.0646
  241MOL0     C32416   5.125  10.516   6.252  0.3548  0.1829 -0.2112
  241MOL0     N32417   4.985  10.543   6.275 -0.9440  0.4860 -0.6316
  241MOL0     C32418   4.932  10.653   6.338  0.5753 -0.1853  0.3783
  241MOL0     C32419   4.798  10.621   6.354  0.4375 -0.2745 -0.4614
  241MOL0     C32420   4.697  10.706   6.421  0.7783 -0.3737  0.2708
  241MOL0     C32421   4.563  10.624   6.451 -0.7036 -0.0172 -0.5210
  241MOL0     C32422   4.453  10.694   6.537 -0.1874 -0.3388  0.4357
  241MOL0     C32423   4.328  10.720   6.468 -0.4711  0.1501  1.0016
  241MOL0     O32424   4.332  10.823   6.375  0.0215 -0.3844  0.0937
  241MOL0     C32425   4.213  10.863   6.311 -0.5544  0.0429 -0.5981
  241MOL0     C32426   4.100  10.910   6.386  0.4941 -0.1326 -0.2992
  241MOL0     C32427   3.976  10.939   6.324 -0.4201 -1.1769 -0.0983
  241MOL0     C32428   3.868  11.005   6.416 -0.1492  0.3493  0.2590
  241MOL0     C32429   3.955  10.931   6.183 -0.5448  0.0058 -0.2768
  241MOL0     C32430   3.846  10.994   6.112  0.7312  1.6830 -0.1544
  241MOL0     O32431   3.741  10.912   6.082 -0.1545  0.7818 -0.9212
  241MOL0     C32432   3.639  10.969   6.011  0.4196 -0.0324 -0.6247
  241MOL0     C32433   3.566  11.067   6.081  0.2471  0.4888  0.6290
  241MOL0     C32434   3.469  11.142   6.015 -0.1793 -0.3893 -0.8646
  241MOL0     C32435   3.424  11.114   5.883  0.1705 -0.0536 -0.9541
  241MOL0     O32436   3.302  11.165   5.840 -0.4231  0.1501  0.1436
  241MOL0     C32437   3.284  11.173   5.695 -0.1844 -0.2456 -0.1060
  241MOL0     C32438   3.159  11.254   5.646 -0.2606 -0.3072  0.1444
  241MOL0     C32439   3.017  11.204   5.664  0.4920  0.3915 -0.2746
  241MOL0     C32440   2.912  11.304   5.609 -0.1379  0.4263 -0.5530
  241MOL0     C32441   2.771  11.242   5.619  0.2378 -0.1223 -0.2052
  241MOL0     C32442   2.661  11.348   5.582 -0.3013 -0.2316  0.2501
  241MOL0     C32443   2.537  11.328   5.672 -0.6590 -0.1362 -0.0910
  241MOL0     C32444   2.421  11.410   5.632  0.2058 -0.0752 -0.3322
  241MOL0    Cl32445   2.410  11.434   5.454  0.2888  0.3363 -0.7570
  241MOL0     C32446   3.505  11.019   5.818 -0.7588 -0.1001  0.1088
  241MOL0     C32447   3.618  10.954   5.876 -1.0580  0.0582  0.3753
  241MOL0     O32448   3.857  11.115   6.095  0.7504 -0.1690 -0.1162
  241MOL0     C32449   4.064  10.882   6.114 -0.4001  1.0330 -0.0964
  241MOL0     C32450   4.189  10.854   6.174 -0.3025  0.2735  0.0204
  241MOL0     N32451   4.774  10.506   6.282  0.7442  0.1429 -0.2001
  241MOL0     N32452   4.885  10.459   6.244 -0.4170 -0.1162  0.3488
  241MOL0     C32453   5.999  10.476   6.305 -0.2085 -0.7355  0.2767
  241MOL0     C32454   6.119  10.539   6.249  0.2292 -0.6651  0.1113
  241MOL0     C32455   6.546  10.722   6.215 -0.6414  0.7059  0.2767
  241MOL0     C32456   6.626  10.840   6.233  0.0578  0.2698 -0.4206
  241MOL0     C32457   6.705  10.886   6.127 -0.4830 -0.8914  0.2572
  241MOL0     C32458   6.717  10.819   6.007  0.2336 -1.2557 -0.0976
  241MOL0     O32459   6.798  10.887   5.918 -0.1392  0.5281  0.1650
  241MOL0     C32460   6.814  10.822   5.791  0.1303 -0.6377 -0.1872
  241MOL0     C32461   6.695  10.862   5.693 -1.1626  0.5164 -0.2017
  241MOL0     C32462   6.668  10.773   5.570 -0.6088  0.6463 -0.1672
  241MOL0     C32463   6.630  10.625   5.598 -0.4960  0.4440 -0.4036
  241MOL0     C32464   6.494  10.619   5.655  0.5122 -0.7001  0.0655
  241MOL0     C32465   6.378  10.620   5.688  0.3930  0.0786 -0.0193
  241MOL0     C32466   6.641  10.700   5.990 -0.0190  0.4893  0.4844
  241MOL0     C32467   6.558  10.654   6.091  0.5985 -0.2025 -0.0456
  241MOL0     H32468   6.335  10.441   6.493  0.1570 -0.9614 -1.7287
  241MOL0     H32469   6.126  10.340   6.586 -2.6147  1.1256  2.0830
  241MOL0     H32470   5.939  10.227   6.611  0.5539  0.7448  0.7132
  241MOL0     H32471   5.860  10.387   6.651  1.7934  0.0255  0.9783
  241MOL0     H32472   5.723  10.154   6.504 -0.3872 -0.6981 -0.0708
  241MOL0     H32473   5.737  10.141   6.678  0.3606 -0.0897 -0.1583
  241MOL0     H32474   5.514  10.226   6.616 -0.0144  0.2573  2.9320
  241MOL0     H32475   5.602  10.356   6.699  0.1261  0.5708  0.3258
  241MOL0     H32476   5.631  10.460   6.473  0.9266  0.0590  1.0797
  241MOL0     H32477   5.555  10.317   6.397 -3.7328  0.7592 -0.3133
  241MOL0     H32478   5.341  10.377   6.557 -0.8449  1.3078  0.7092
  241MOL0     H32479   5.420  10.528   6.582 -3.1133  1.1709  0.6808
  241MOL0     H32480   5.421  10.567   6.343 -0.2920  0.7118  2.5564
  241MOL0     H32481   5.361  10.393   6.310 -0.7131 -1.4451  1.2231
  241MOL0     H32482   5.155  10.448   6.447  2.1646 -1.9400 -0.8117
  241MOL0     H32483   5.196  10.621   6.428  1.2532  0.7139 -1.1433
  241MOL0     H32484   5.139  10.414   6.214  0.7574  0.4430 -0.7693
  241MOL0     H32485   5.164  10.581   6.174 -1.4125  0.7531 -0.6631
  241MOL0     H32486   4.974  10.745   6.377 -1.4978  1.4249 -0.9528
  241MOL0     H32487   4.734  10.756   6.511  2.8799 -0.1866 -0.6405
  241MOL0     H32488   4.663  10.787   6.356  1.5584  0.4368  0.8537
  241MOL0     H32489   4.584  10.531   6.506 -1.4997  0.0424 -0.1030
  241MOL0     H32490   4.521  10.592   6.356  1.3399 -0.7067 -1.2493
  241MOL0     H32491   4.489  10.793   6.567 -0.1347  0.3556 -1.7850
  241MOL0     H32492   4.429  10.641   6.630 -1.2391 -1.6333 -0.5487
  241MOL0     H32493   4.255  10.745   6.546 -2.3308 -1.1918 -0.2300
  241MOL0     H32494   4.285  10.630   6.423 -2.6724  2.2263 -1.3207
  241MOL0     H32495   4.120  10.935   6.490  0.7820  0.0617 -0.4008
  241MOL0     H32496   3.768  10.968   6.393  1.2996 -3.0204 -1.2853
  241MOL0     H32497   3.901  10.965   6.513  1.7342 -1.9718 -1.2419
  241MOL0     H32498   3.873  11.114   6.408  1.3392  0.2491 -0.5790
  241MOL0     H32499   3.596  11.098   6.181  1.7510 -2.9137  1.4108
  241MOL0     H32500   3.421  11.210   6.085 -0.7164 -1.1357 -0.4924
  241MOL0     H32501   3.360  11.240   5.653 -3.2628  2.4101 -1.8376
  241MOL0     H32502   3.300  11.077   5.644 -0.0985  0.3301 -1.2126
  241MOL0     H32503   3.175  11.349   5.697 -1.3875 -0.5773  1.0535
  241MOL0     H32504   3.177  11.269   5.539  3.7487 -2.0696  0.3851
  241MOL0     H32505   2.997  11.190   5.771 -1.6066  1.0113 -0.5551
  241MOL0     H32506   3.016  11.107   5.613 -1.8362 -1.6554  3.2597
  241MOL0     H32507   2.918  11.394   5.671 -3.3939 -0.8090  1.8228
  241MOL0     H32508   2.927  11.332   5.504 -3.2987 -0.0807 -1.2466
  241MOL0     H32509   2.754  11.205   5.720 -2.6695  2.4391  0.3734
  241MOL0     H32510   2.750  11.163   5.546 -3.1811 -1.2571  1.8154
  241MOL0     H32511   2.681  11.456   5.580 -5.4558  0.9828 -1.5151
  241MOL0     H32512   2.643  11.329   5.476  0.2779  0.3255  0.0422
  241MOL0     H32513   2.575  11.329   5.774 -2.7615  2.7614  0.7925
  241MOL0     H32514   2.496  11.227   5.662 -3.1043  0.8849 -1.0694
  241MOL0     H32515   2.441  11.502   5.688  1.2290  0.4667 -1.5410
  241MOL0     H32516   2.325  11.366   5.660 -0.7341 -0.5979 -3.9007
  241MOL0     H32517   3.488  10.996   5.713  1.3849 -2.7564  0.2343
  241MOL0     H32518   3.675  10.884   5.816 -0.9347  0.3692  0.1262
  241MOL0     H32519   4.055  10.878   6.006 -0.8399 -1.9819 -0.0339
  241MOL0     H32520   4.282  10.825   6.125  0.9167  0.1011  2.2743
  241MOL0     H32521   5.907  10.509   6.259 -0.2876 -1.3797 -0.0312
  241MOL0     H32522   6.121  10.603   6.161  0.5089 -4.4287 -2.8827
  241MOL0     H32523   6.614  10.894   6.327 -1.3396 -3.7616  1.9669
  241MOL0     H32524   6.758  10.980   6.138 -2.5693  0.1222  3.0435
  241MOL0     H32525   6.906  10.863   5.750 -0.0024  0.4402  0.5532
  241MOL0     H32526   6.828  10.714   5.802  0.8328 -0.4246  1.2707
  241MOL0     H32527   6.731  10.949   5.638  2.3491  0.3174  1.5476
  241MOL0     H32528   6.606  10.879   5.755 -0.0385 -2.8164  2.7166
  241MOL0     H32529   6.766  10.772   5.522 -0.0359  2.5735  0.8450
  241MOL0     H32530   6.599  10.814   5.497 -2.5877 -2.8393 -0.4650
  241MOL0     H32531   6.693  10.585   5.678 -2.3672  0.6996  1.2920
  241MOL0     H32532   6.643  10.561   5.511 -1.1424 -2.6748  1.6135
  241MOL0     H32533   6.272  10.618   5.701 -0.0959  3.5186 -2.2799
  241MOL0     H32534   6.656  10.642   5.900 -0.4301  2.5385 -0.9631
  241MOL0     H32535   6.501  10.565   6.066  1.1898  0.0495 -2.5895
  242MOL0     O32536   1.749   7.781   2.384 -1.0613 -0.4668 -0.8537
  242MOL0     C32537   1.801   7.668   2.375 -0.2422 -0.7574 -0.2562
  242MOL0     O32538   1.935   7.639   2.347 -0.2735 -0.2038 -0.6719
  242MOL0     C32539   2.013   7.737   2.305 -0.2750 -0.4250 -0.5139
  242MOL0     C32540   2.140   7.737   2.368 -0.4534 -0.3927 -0.1947
  242MOL0     C32541   2.233   7.830   2.316  0.3367 -0.1867  0.2438
  242MOL0     C32542   2.205   7.917   2.205 -0.2511  0.2802 -0.2076
  242MOL0     O32543   2.294   8.019   2.179 -0.1861  0.3888  0.3577
  242MOL0     C32544   2.271   8.095   2.059 -0.0036 -0.5039 -0.5733
  242MOL0     C32545   2.384   8.213   2.059  0.5997  1.3052 -0.9463
  242MOL0     C32546   2.515   8.134   2.014 -0.7587 -0.3557 -0.6215
  242MOL0     C32547   2.633   8.238   2.007 -1.2717  0.3980 -0.2784
  242MOL0     C32548   2.772   8.199   1.949  0.5588  1.0792 -1.0245
  242MOL0     C32549   2.839   8.321   1.885 -0.0579  0.5504 -0.2769
  242MOL0     C32550   2.986   8.292   1.850 -0.0294 -0.2126 -0.7306
  242MOL0     C32551   3.080   8.300   1.970 -0.3715 -0.8417  0.3982
  242MOL0     N32552   3.083   8.424   2.043  0.1152  0.3071  0.1782
  242MOL0     C32553   3.040   8.550   2.002  0.0022 -0.1927  0.7433
  242MOL0     C32554   3.091   8.627   2.102 -0.6545 -0.1456  0.1725
  242MOL0     C32555   3.102   8.775   2.099  0.7318 -0.7459  0.2174
  242MOL0     C32556   3.040   8.841   2.222  0.5593 -0.7105  0.3153
  242MOL0     C32557   2.899   8.878   2.200  0.1100 -0.9291 -0.8556
  242MOL0     C32558   2.869   9.002   2.120  0.0236 -0.3867 -0.2009
  242MOL0     O32559   2.731   9.032   2.143  0.6838  0.1857 -0.2082
  242MOL0     C32560   2.680   9.141   2.089  0.3092 -0.4253  0.2549
  242MOL0     C32561   2.749   9.231   2.012  0.1705 -0.7124 -0.0261
  242MOL0     C32562   2.695   9.356   1.971  0.7500 -0.1488 -0.7939
  242MOL0     C32563   2.773   9.444   1.879 -0.2591 -0.6181  0.4363
  242MOL0     C32564   2.560   9.382   2.010  0.1672  0.4781  0.1231
  242MOL0     C32565   2.485   9.508   1.974  1.3031 -0.2493 -0.1433
  242MOL0     O32566   2.351   9.502   2.011 -0.8101  0.3392 -0.1141
  242MOL0     C32567   2.274   9.614   2.010  0.1498  0.1128  0.6692
  242MOL0     C32568   2.319   9.744   2.049  0.3422 -0.2252  0.4857
  242MOL0     C32569   2.224   9.842   2.075 -0.6831  0.7586 -0.3452
  242MOL0     C32570   2.087   9.810   2.081  0.1334 -0.0953 -0.0258
  242MOL0     O32571   2.002   9.907   2.127 -0.5090  0.5171  0.2061
  242MOL0     C32572   1.900   9.856   2.210  0.6593  0.2419  0.1689
  242MOL0     C32573   1.853   9.960   2.313  0.3918 -0.8163  0.4241
  242MOL0     C32574   1.882  10.103   2.269  0.1417 -0.1082  0.6513
  242MOL0     C32575   1.802  10.198   2.354 -0.6206  0.8025 -0.1945
  242MOL0     C32576   1.657  10.217   2.312 -0.7580 -0.4440  0.5445
  242MOL0     C32577   1.590  10.335   2.381  0.5373  0.1180 -0.5995
  242MOL0     C32578   1.615  10.463   2.307 -0.9121  0.5197 -0.3071
  242MOL0     C32579   1.549  10.590   2.353  0.8312  0.3430  0.0698
  242MOL0    Cl32580   1.546  10.731   2.231 -0.1003  0.6988  0.0985
  242MOL0     C32581   2.037   9.682   2.049  0.3309  0.2864 -0.4293
  242MOL0     C32582   2.133   9.590   2.010 -0.4720 -1.1566 -0.6060
  242MOL0     O32583   2.540   9.607   1.924 -0.6671  0.2188 -0.2655
  242MOL0     C32584   2.490   9.280   2.078 -0.8105  0.6586  0.1471
  242MOL0     C32585   2.552   9.165   2.121  0.6827  0.4059  0.0438
  242MOL0     N32586   3.165   8.555   2.192  0.8077 -0.2181 -0.1980
  242MOL0     N32587   3.148   8.436   2.159 -0.7003  0.7240  0.0748
  242MOL0     C32588   2.078   7.913   2.147  0.4739  0.1118 -0.1566
  242MOL0     C32589   1.988   7.822   2.201  0.2384  0.1926  0.9954
  242MOL0     C32590   1.708   7.551   2.385  0.8636 -0.2544 -0.1622
  242MOL0     C32591   1.750   7.414   2.388  0.3537 -0.1195  0.9685
  242MOL0     C32592   1.652   7.314   2.393  0.3751  0.1189 -0.3875
  242MOL0     C32593   1.512   7.344   2.400 -0.6556 -0.3963 -0.2688
  242MOL0     O32594   1.421   7.253   2.377  0.2329 -0.0568  0.0336
  242MOL0     C32595   1.428   7.121   2.431  0.7334 -0.4584  0.3696
  242MOL0     C32596   1.289   7.085   2.490  0.0413 -0.0263 -0.0741
  242MOL0     C32597   1.200   7.198   2.521  0.6011 -0.5967  0.1398
  242MOL0     C32598   1.065   7.147   2.576  0.4800 -0.0934  0.7003
  242MOL0     C32599   1.077   7.096   2.715  0.5359 -0.7772  1.0202
  242MOL0     C32600   1.085   7.062   2.829 -0.1614  0.4560 -0.8751
  242MOL0     C32601   1.474   7.481   2.419  0.8592  0.0702  0.9806
  242MOL0     C32602   1.565   7.583   2.405 -0.4275 -0.0319 -0.5601
  242MOL0     H32603   2.160   7.669   2.451 -1.8788 -0.4215  0.1576
  242MOL0     H32604   2.321   7.840   2.378 -0.1976  0.1914  0.9599
  242MOL0     H32605   2.282   8.033   1.970  1.8428 -1.2198  0.1118
  242MOL0     H32606   2.176   8.148   2.064  1.9869  3.3723  0.4695
  242MOL0     H32607   2.357   8.293   1.989 -0.5201  0.5127 -1.4695
  242MOL0     H32608   2.396   8.244   2.163  1.2015 -2.5792  0.2935
  242MOL0     H32609   2.534   8.056   2.089 -3.7257  0.2741  0.9234
  242MOL0     H32610   2.499   8.095   1.913 -0.8143  1.1330 -1.2135
  242MOL0     H32611   2.598   8.323   1.948  1.1586  1.2456 -0.6168
  242MOL0     H32612   2.652   8.270   2.109  1.7384  2.0944 -1.2415
  242MOL0     H32613   2.833   8.160   2.031 -0.7275 -0.7018 -0.8688
  242MOL0     H32614   2.756   8.117   1.878 -0.9025 -0.3137  0.8192
  242MOL0     H32615   2.780   8.357   1.801 -0.5845 -0.5373 -0.3896
  242MOL0     H32616   2.834   8.401   1.959  2.8449  0.4624  0.1346
  242MOL0     H32617   2.990   8.188   1.817 -1.2853 -0.5074 -0.0211
  242MOL0     H32618   3.012   8.359   1.768  1.0521  0.7199  0.3327
  242MOL0     H32619   3.182   8.281   1.934 -0.7448  3.2509 -3.7247
  242MOL0     H32620   3.062   8.230   2.051  1.9627  0.9201  2.6144
  242MOL0     H32621   2.996   8.585   1.909  0.9857  2.9051  1.3172
  242MOL0     H32622   3.207   8.805   2.087  0.5566  0.1499  0.8847
  242MOL0     H32623   3.046   8.812   2.013  0.7820  1.9153  1.2612
  242MOL0     H32624   3.090   8.936   2.245 -0.0333 -0.8913  2.5329
  242MOL0     H32625   3.060   8.780   2.310  1.5428 -1.0054 -0.1000
  242MOL0     H32626   2.865   8.911   2.298 -2.8555  3.0208 -2.8900
  242MOL0     H32627   2.838   8.797   2.159 -0.2350 -1.3924  0.5260
  242MOL0     H32628   2.884   8.982   2.014  1.0232 -1.4460  0.1097
  242MOL0     H32629   2.925   9.093   2.146 -2.7615  1.1983  0.5854
  242MOL0     H32630   2.850   9.210   1.979 -0.5946 -1.1656 -2.2410
  242MOL0     H32631   2.864   9.389   1.852 -0.7248 -0.6871 -1.0471
  242MOL0     H32632   2.718   9.466   1.787  4.1679 -2.1366 -2.9458
  242MOL0     H32633   2.804   9.535   1.932 -0.3635 -2.1542  3.3744
  242MOL0     H32634   2.424   9.760   2.071  0.1732 -0.8287  1.7630
  242MOL0     H32635   2.274   9.931   2.113  1.7734 -0.9948  0.7646
  242MOL0     H32636   1.818   9.819   2.149  0.6142 -0.8062  0.8281
  242MOL0     H32637   1.931   9.770   2.271 -1.2707  0.4136  1.4843
  242MOL0     H32638   1.749   9.942   2.341  0.0339 -0.9903 -0.9793
  242MOL0     H32639   1.902   9.942   2.409 -1.5437 -0.2039  1.5879
  242MOL0     H32640   1.861  10.113   2.162 -1.4349  2.5382  1.1005
  242MOL0     H32641   1.989  10.126   2.269  0.0093  0.5982 -0.5235
  242MOL0     H32642   1.819  10.167   2.458  1.7676 -0.5429 -0.8896
  242MOL0     H32643   1.837  10.302   2.351 -0.3824  0.7225 -0.1967
  242MOL0     H32644   1.597  10.126   2.326 -2.4103  0.4198 -0.5874
  242MOL0     H32645   1.665  10.239   2.205 -0.2185 -1.2449  0.4059
  242MOL0     H32646   1.481  10.321   2.386  0.5012  0.5281 -0.2100
  242MOL0     H32647   1.624  10.351   2.484  3.6521 -2.6472 -1.0298
  242MOL0     H32648   1.558  10.453   2.215 -2.0762  2.7927  0.0976
  242MOL0     H32649   1.719  10.481   2.278 -0.3789 -0.5610  0.8332
  242MOL0     H32650   1.577  10.629   2.451 -1.8112 -2.9774  2.3839
  242MOL0     H32651   1.443  10.571   2.370  0.8210  0.9950  0.7536
  242MOL0     H32652   1.931   9.660   2.052  0.6689 -1.3722  0.6905
  242MOL0     H32653   2.109   9.488   1.984 -2.1207 -1.0330  0.2935
  242MOL0     H32654   2.391   9.298   2.118 -1.4228 -1.9822  0.0154
  242MOL0     H32655   2.490   9.092   2.172  0.4737 -0.5943 -1.5852
  242MOL0     H32656   2.043   7.982   2.071 -0.0159  0.6436  0.5503
  242MOL0     H32657   1.891   7.809   2.155  0.9703 -0.5353 -0.4592
  242MOL0     H32658   1.856   7.392   2.387  0.1638 -1.2353 -1.0127
  242MOL0     H32659   1.674   7.209   2.381  1.6059  0.1236  1.3926
  242MOL0     H32660   1.454   7.044   2.358  1.4682 -0.1211  0.2611
  242MOL0     H32661   1.499   7.118   2.514 -0.2128 -3.3141  1.2137
  242MOL0     H32662   1.296   7.021   2.578 -0.5193 -1.7963 -1.2696
  242MOL0     H32663   1.231   7.028   2.417  1.5979 -0.4973 -0.9671
  242MOL0     H32664   1.175   7.260   2.435 -0.7325  0.7445  1.4389
  242MOL0     H32665   1.255   7.256   2.595 -3.2814  0.0206  2.8196
  242MOL0     H32666   1.028   7.074   2.503  1.1653  2.5273 -2.5380
  242MOL0     H32667   0.993   7.229   2.567 -0.0856 -0.7368 -1.2851
  242MOL0     H32668   1.117   7.026   2.924  4.6635 -1.9548 -3.0736
  242MOL0     H32669   1.370   7.511   2.431 -0.2650 -0.5865 -4.4604
  242MOL0     H32670   1.530   7.685   2.424 -1.0532 -0.2327 -0.6090
  243MOL0     O32671  11.094   1.274   6.644 -0.2088 -0.5901  0.3063
  243MOL0     C32672  11.017   1.181   6.621  0.6494  0.7239 -0.1433
  243MOL0     O32673  10.986   1.130   6.494  0.4837 -0.1235  0.1056
  243MOL0     C32674  11.049   1.179   6.391 -0.3569 -0.4062  0.8131
  243MOL0     C32675  10.979   1.266   6.311  0.1428 -0.0697 -0.0982
  243MOL0     C32676  11.035   1.319   6.190 -0.5410 -0.1061  0.2673
  243MOL0     C32677  11.168   1.278   6.159  0.1764 -0.2798 -0.5285
  243MOL0     O32678  11.211   1.280   6.029  0.2432 -0.4640  0.6791
  243MOL0     C32679  11.220   1.405   5.962 -0.0095 -0.9408  0.3694
  243MOL0     C32680  11.261   1.379   5.819 -0.2049 -0.2363  0.3371
  243MOL0     C32681  11.161   1.306   5.732  1.3643  0.4511 -0.3137
  243MOL0     C32682  11.230   1.298   5.592 -0.7481  0.4115 -0.6416
  243MOL0     C32683  11.124   1.240   5.497  0.2427  1.0526  0.2727
  243MOL0     C32684  11.174   1.177   5.368 -1.1659  0.4745  0.3056
  243MOL0     C32685  11.268   1.275   5.279 -0.7069  0.2964 -0.1988
  243MOL0     C32686  11.206   1.371   5.181  0.8584 -0.4273 -0.5067
  243MOL0     N32687  11.157   1.299   5.055 -0.7616 -0.7288 -0.0515
  243MOL0     C32688  11.034   1.318   4.991  0.2082  0.3182  0.6496
  243MOL0     C32689  11.056   1.254   4.876 -0.5982 -0.5384  0.3576
  243MOL0     C32690  10.966   1.257   4.759  0.3162 -0.3296 -0.2397
  243MOL0     C32691  10.845   1.166   4.780  0.0812 -0.1891 -0.4375
  243MOL0     C32692  10.743   1.223   4.882  0.6658 -0.8060  0.6784
  243MOL0     C32693  10.617   1.145   4.895  0.3593  0.0429 -0.5721
  243MOL0     O32694  10.523   1.153   4.788  0.0772 -0.2984 -0.4194
  243MOL0     C32695  10.400   1.101   4.798  0.3762  0.1086  0.0201
  243MOL0     C32696  10.362   1.025   4.910  0.0200  0.0317  0.4127
  243MOL0     C32697  10.229   0.963   4.905  0.6039 -1.0557  0.0583
  243MOL0     C32698  10.189   0.865   5.020 -0.0671 -0.0143 -0.2252
  243MOL0     C32699  10.136   0.994   4.794 -0.5799  0.1857 -0.7044
  243MOL0     C32700  10.007   0.929   4.771 -0.1819 -0.1707 -0.8615
  243MOL0     O32701   9.973   0.814   4.836 -0.5478 -0.6494 -0.0324
  243MOL0     C32702   9.862   0.756   4.777  0.6156  0.0794 -0.5954
  243MOL0     C32703   9.756   0.744   4.871  0.4960  0.1563  0.1543
  243MOL0     C32704   9.635   0.677   4.824 -0.5844 -0.0464  0.7352
  243MOL0     C32705   9.618   0.640   4.691  0.4779 -0.6627 -0.3186
  243MOL0     O32706   9.495   0.631   4.638 -0.2718  0.1134 -0.4475
  243MOL0     C32707   9.465   0.518   4.556  0.1571 -0.6765  0.9023
  243MOL0     C32708   9.314   0.536   4.523  0.2795  0.5606  0.0814
  243MOL0     C32709   9.271   0.451   4.404 -0.4278  0.1405  0.0165
  243MOL0     C32710   9.193   0.317   4.447  1.0974 -0.1099 -0.3940
  243MOL0     C32711   9.159   0.218   4.337  0.4021 -0.3466  0.3967
  243MOL0     C32712   9.084   0.107   4.400 -0.1838 -0.4097 -0.1942
  243MOL0     C32713   8.964   0.050   4.309 -0.0843 -0.1485  0.1671
  243MOL0     C32714   9.021  -0.010   4.185 -0.1569  0.5200  1.3501
  243MOL0    Cl32715   8.910   0.005   4.052  0.2115 -0.2059  0.3371
  243MOL0     C32716   9.729   0.655   4.607  1.1935  0.5111  0.2182
  243MOL0     C32717   9.850   0.698   4.652 -0.1136  1.0763 -0.7927
  243MOL0     O32718   9.931   0.993   4.707  0.1205  0.1297 -0.0773
  243MOL0     C32719  10.185   1.077   4.689 -0.4800 -0.1948  0.3951
  243MOL0     C32720  10.311   1.128   4.691 -0.6882 -0.3731 -0.6993
  243MOL0     N32721  11.180   1.197   4.859 -0.2613 -0.5168 -0.6264
  243MOL0     N32722  11.239   1.231   4.976  0.0855 -0.3886  0.1045
  243MOL0     C32723  11.239   1.196   6.246 -0.2495 -0.2087 -0.3829
  243MOL0     C32724  11.179   1.144   6.358 -0.5491 -0.0301 -0.1168
  243MOL0     C32725  10.944   1.110   6.726 -0.1019 -0.0319 -0.5352
  243MOL0     C32726  10.947   1.156   6.862  0.1403 -0.0929 -0.0946
  243MOL0     C32727  10.873   1.091   6.963  0.8189 -0.4759  0.1603
  243MOL0     C32728  10.778   0.991   6.933  0.0280  0.0808  1.2146
  243MOL0     O32729  10.703   0.954   7.044 -0.9586  0.5647  0.9122
  243MOL0     C32730  10.599   0.858   7.029  1.0198  0.2784  0.5133
  243MOL0     C32731  10.466   0.935   7.052 -0.0818  0.2543  0.2665
  243MOL0     C32732  10.415   0.994   6.922 -0.0159  0.2677  0.4210
  243MOL0     C32733  10.260   1.012   6.910  0.0154  0.4066  1.2652
  243MOL0     C32734  10.202   1.104   6.998  0.7361  0.5286  0.0818
  243MOL0     C32735  10.156   1.179   7.086 -0.1042 -0.6357 -0.0434
  243MOL0     C32736  10.774   0.941   6.802 -0.5586  1.0940 -0.7569
  243MOL0     C32737  10.862   1.002   6.703 -0.5052 -0.7160  0.4027
  243MOL0     H32738  10.877   1.299   6.328  0.2071  0.2895 -0.3994
  243MOL0     H32739  10.985   1.397   6.133  0.6501  0.8600  0.5099
  243MOL0     H32740  11.126   1.461   5.969  0.1306 -0.6791  0.1694
  243MOL0     H32741  11.301   1.465   6.006 -1.3350  3.7957 -2.8850
  243MOL0     H32742  11.285   1.472   5.768 -0.4151 -0.0292  0.6115
  243MOL0     H32743  11.351   1.317   5.827 -0.5586 -0.5916  2.0248
  243MOL0     H32744  11.151   1.203   5.768  0.8903  0.4544 -0.4242
  243MOL0     H32745  11.063   1.355   5.732  1.4530  0.6732  1.2125
  243MOL0     H32746  11.269   1.391   5.549  1.9060 -0.3608 -0.0600
  243MOL0     H32747  11.311   1.225   5.602 -0.5601  0.4931 -1.4621
  243MOL0     H32748  11.058   1.164   5.539  0.1698  2.3923  2.7464
  243MOL0     H32749  11.082   1.335   5.462 -0.4737  0.0300 -1.8353
  243MOL0     H32750  11.224   1.082   5.385 -1.4533  0.1512 -0.6048
  243MOL0     H32751  11.092   1.154   5.299 -0.4021  1.7076 -1.0877
  243MOL0     H32752  11.345   1.329   5.336 -1.4660 -0.1067  1.2673
  243MOL0     H32753  11.330   1.203   5.224 -0.3085  0.8697 -0.5038
  243MOL0     H32754  11.276   1.454   5.168 -0.2234  0.5109 -0.5132
  243MOL0     H32755  11.112   1.409   5.222  0.6869  0.7472 -1.8914
  243MOL0     H32756  10.951   1.374   5.032  2.0208  2.8706  1.0630
  243MOL0     H32757  10.933   1.359   4.739  0.6450 -0.3056 -0.6824
  243MOL0     H32758  11.017   1.220   4.670  1.7787  0.2101  0.3361
  243MOL0     H32759  10.892   1.072   4.812 -2.6069 -0.6487  2.6852
  243MOL0     H32760  10.793   1.157   4.684 -3.0055  0.8730  1.0296
  243MOL0     H32761  10.719   1.323   4.845  0.3773 -0.6569  1.2550
  243MOL0     H32762  10.789   1.226   4.981  0.2919  1.1579  0.8297
  243MOL0     H32763  10.572   1.189   4.985 -2.2397 -3.4196  0.0713
  243MOL0     H32764  10.641   1.041   4.921 -0.1147  0.5223  2.1507
  243MOL0     H32765  10.416   1.008   5.003  0.3079 -2.5464 -0.1287
  243MOL0     H32766  10.085   0.866   5.054  0.4183  0.9944  1.3188
  243MOL0     H32767  10.215   0.764   4.989  1.4750  0.0805  0.7023
  243MOL0     H32768  10.251   0.886   5.107 -1.3073 -0.4704  0.8040
  243MOL0     H32769   9.763   0.784   4.971 -1.2964  0.6319  0.1291
  243MOL0     H32770   9.546   0.658   4.883 -0.2845  1.1429  1.6089
  243MOL0     H32771   9.527   0.529   4.466 -0.2100 -0.9368  0.6197
  243MOL0     H32772   9.484   0.425   4.610 -0.6469 -1.9700 -0.9639
  243MOL0     H32773   9.256   0.501   4.609  1.6577  1.0407  1.2613
  243MOL0     H32774   9.298   0.644   4.514 -2.0119  0.1645 -1.2030
  243MOL0     H32775   9.367   0.426   4.358 -0.1410 -0.2356  0.8125
  243MOL0     H32776   9.213   0.504   4.328  0.2370 -0.1540 -0.7128
  243MOL0     H32777   9.258   0.268   4.520 -0.0840 -0.7609  0.2634
  243MOL0     H32778   9.095   0.340   4.491  0.8845 -1.4858 -0.1116
  243MOL0     H32779   9.259   0.196   4.299 -0.5648 -1.2148 -1.8476
  243MOL0     H32780   9.093   0.260   4.260 -1.2695 -3.9834 -0.3433
  243MOL0     H32781   9.159   0.033   4.428  2.4968  0.0470 -5.1864
  243MOL0     H32782   9.035   0.147   4.489  0.6676  2.4408 -0.9079
  243MOL0     H32783   8.912   0.142   4.280  0.7318  0.5673  0.9175
  243MOL0     H32784   8.897  -0.019   4.362 -2.1124  2.0640  0.6595
  243MOL0     H32785   9.055  -0.114   4.197  0.3864  0.4061 -0.8527
  243MOL0     H32786   9.109   0.043   4.151 -0.1639  0.1107  0.6836
  243MOL0     H32787   9.726   0.645   4.499  3.4784 -0.0889  0.1565
  243MOL0     H32788   9.935   0.694   4.585  2.0533  0.0429  1.8223
  243MOL0     H32789  10.122   1.099   4.604 -0.5077 -2.8711 -0.3457
  243MOL0     H32790  10.350   1.202   4.621  0.8935 -0.4813  0.0318
  243MOL0     H32791  11.341   1.164   6.227  0.3061 -1.9517  4.2692
  243MOL0     H32792  11.223   1.080   6.433  0.5736 -0.3423 -1.0124
  243MOL0     H32793  11.012   1.241   6.882 -1.2773  1.4157 -1.5322
  243MOL0     H32794  10.901   1.108   7.067  1.7974  1.2908 -0.3333
  243MOL0     H32795  10.605   0.797   6.938  0.0776 -1.0982  1.3334
  243MOL0     H32796  10.625   0.789   7.110 -1.4648  0.9139  1.9553
  243MOL0     H32797  10.473   1.013   7.129 -3.1392  0.2785  0.6471
  243MOL0     H32798  10.386   0.880   7.104  1.4099  0.7821  3.3297
  243MOL0     H32799  10.449   0.943   6.832 -3.6144  2.5059 -2.4960
  243MOL0     H32800  10.449   1.098   6.919  2.0816 -0.3432  1.0232
  243MOL0     H32801  10.215   0.913   6.925  1.0771 -0.7339 -2.1137
  243MOL0     H32802  10.234   1.037   6.807 -0.8733 -1.1470  1.0783
  243MOL0     H32803  10.109   1.249   7.153  2.6796  1.3331  0.0312
  243MOL0     H32804  10.704   0.860   6.784 -3.0111  2.6850  0.9127
  243MOL0     H32805  10.873   0.980   6.598  0.2673  2.2534 -0.2456
  244MOL0     O32806   9.768   5.537  10.730  0.2820 -0.6493  0.3839
  244MOL0     C32807   9.826   5.463  10.651 -1.1514  0.0552  0.2897
  244MOL0     O32808   9.789   5.420  10.531  0.0396  0.5585 -0.1326
  244MOL0     C32809   9.661   5.463  10.497 -0.4868  0.1416  0.0762
  244MOL0     C32810   9.636   5.598  10.457  0.2063  0.1933 -0.2008
  244MOL0     C32811   9.499   5.633  10.447  0.2946  0.5147  1.2409
  244MOL0     C32812   9.397   5.541  10.481  0.0412  0.1985 -0.1689
  244MOL0     O32813   9.259   5.569  10.494 -0.2671 -0.5510  0.9314
  244MOL0     C32814   9.204   5.689  10.429  0.1756  0.2638 -0.2948
  244MOL0     C32815   9.053   5.670  10.448 -0.5163  0.2921 -0.0153
  244MOL0     C32816   8.988   5.777  10.371  0.9241 -0.3108 -0.3766
  244MOL0     C32817   8.957   5.749  10.227 -0.7023 -0.1580 -0.5757
  244MOL0     C32818   8.859   5.639  10.201 -0.7982  0.3717 -0.7862
  244MOL0     C32819   8.856   5.549  10.068 -0.6174 -0.7942 -0.3951
  244MOL0     C32820   8.872   5.644   9.946 -0.8262 -0.7785  0.2943
  244MOL0     C32821   8.844   5.573   9.812 -0.3014  0.1347  0.5819
  244MOL0     N32822   8.940   5.465   9.794 -0.0687  0.2220 -0.3186
  244MOL0     C32823   9.050   5.468   9.705 -0.2489 -0.2907  0.3022
  244MOL0     C32824   9.097   5.345   9.698 -0.3202  1.1438 -0.3676
  244MOL0     C32825   9.202   5.303   9.603 -1.1771 -0.4004 -0.2779
  244MOL0     C32826   9.347   5.316   9.658  0.0388  0.8346  0.4880
  244MOL0     C32827   9.371   5.205   9.770 -0.4859 -0.5022 -0.9000
  244MOL0     C32828   9.511   5.219   9.830  0.9881  0.1883 -0.1787
  244MOL0     O32829   9.525   5.173   9.966 -0.0526  0.8991  0.3153
  244MOL0     C32830   9.653   5.167  10.018 -0.0479 -0.2780  1.0548
  244MOL0     C32831   9.674   5.120  10.149 -0.6774  0.2806  0.2704
  244MOL0     C32832   9.804   5.120  10.211 -0.6370 -0.0576 -0.6423
  244MOL0     C32833   9.799   5.073  10.348 -0.2153  0.1841 -0.7211
  244MOL0     C32834   9.909   5.190  10.146  0.3634 -0.0447  0.1228
  244MOL0     C32835  10.044   5.231  10.205  0.3273  0.2321  0.2690
  244MOL0     O32836  10.128   5.315  10.138 -0.9411  0.3005  0.1011
  244MOL0     C32837  10.261   5.330  10.172 -0.6330 -0.0571  0.5927
  244MOL0     C32838  10.318   5.451  10.142 -1.0105 -0.4701 -1.1387
  244MOL0     C32839  10.454   5.462  10.169 -0.3436 -1.0181 -0.0143
  244MOL0     C32840  10.539   5.366  10.229 -0.6007  0.1819 -0.0576
  244MOL0     O32841  10.672   5.384  10.268 -0.3660 -0.2538  0.8037
  244MOL0     C32842  10.749   5.499  10.212  0.8926 -0.0394  0.8002
  244MOL0     C32843  10.891   5.495  10.264  0.3121  0.3622 -0.1169
  244MOL0     C32844  10.974   5.403  10.158  0.1966 -0.7560 -0.4140
  244MOL0     C32845  11.128   5.432  10.164  0.3246  0.3026 -0.6542
  244MOL0     C32846  11.208   5.334  10.077  0.4533 -0.0943  1.3641
  244MOL0     C32847  11.226   5.205  10.153  1.1435 -0.8226  0.6326
  244MOL0     C32848  11.324   5.213  10.266  0.1568 -0.4231 -0.3307
  244MOL0     C32849  11.328   5.087  10.348  0.2155  0.3754  0.0926
  244MOL0    Cl32850  11.370   4.936  10.245  0.0528  0.3235  0.0206
  244MOL0     C32851  10.481   5.240  10.262  0.3338 -0.2329  0.5170
  244MOL0     C32852  10.349   5.226  10.222  0.1941  0.1664 -0.3343
  244MOL0     O32853  10.064   5.189  10.320 -0.3077 -0.1895  0.3472
  244MOL0     C32854   9.888   5.241  10.015  0.5923  0.1216 -0.5400
  244MOL0     C32855   9.767   5.224   9.955  0.3131  0.2065  0.2499
  244MOL0     N32856   9.021   5.267   9.781  0.0356  0.0109 -1.4525
  244MOL0     N32857   8.927   5.335   9.838 -0.4476 -0.0436 -0.0312
  244MOL0     C32858   9.432   5.408  10.515 -0.3419  0.5272 -0.1482
  244MOL0     C32859   9.561   5.369  10.521 -0.1310  0.7053  0.4325
  244MOL0     C32860   9.966   5.434  10.684  0.3531 -0.8049 -0.4433
  244MOL0     C32861  10.020   5.463  10.807  0.1582  0.3445 -0.1267
  244MOL0     C32862  10.153   5.435  10.833  0.4020  0.1647 -0.9231
  244MOL0     C32863  10.227   5.357  10.750 -0.0346  0.3517  0.6852
  244MOL0     O32864  10.353   5.302  10.761 -0.3400  0.1004  0.7993
  244MOL0     C32865  10.410   5.312  10.888 -0.0665  0.0307  0.8221
  244MOL0     C32866  10.512   5.200  10.886  0.5512  0.6316 -0.2783
  244MOL0     C32867  10.593   5.191  11.022  0.2146  0.5235 -0.0348
  244MOL0     C32868  10.725   5.275  11.014  0.5901 -0.2224  0.5996
  244MOL0     C32869  10.797   5.271  11.133 -0.7401 -0.0662  0.1736
  244MOL0     C32870  10.859   5.255  11.242  0.3586 -0.2156  0.2191
  244MOL0     C32871  10.180   5.329  10.621  0.4747 -0.0759  0.5036
  244MOL0     C32872  10.046   5.361  10.590 -0.4146  0.6520 -0.4501
  244MOL0     H32873   9.713   5.667  10.424 -0.3886 -0.6481 -3.7824
  244MOL0     H32874   9.480   5.732  10.404  1.8880 -0.5564 -2.3195
  244MOL0     H32875   9.238   5.780  10.479  2.8242  0.1864 -1.7341
  244MOL0     H32876   9.243   5.696  10.327  0.7471 -2.6738 -0.3831
  244MOL0     H32877   9.033   5.576  10.396  0.3709  0.4072 -0.5690
  244MOL0     H32878   9.022   5.662  10.553 -2.2172 -1.2248 -0.5822
  244MOL0     H32879   8.891   5.797  10.418 -0.0164 -1.8356 -1.5784
  244MOL0     H32880   9.046   5.869  10.383  1.8976 -1.2554  3.9434
  244MOL0     H32881   8.934   5.845  10.180  2.9222  0.9700 -0.4003
  244MOL0     H32882   9.054   5.717  10.187 -0.7725 -0.3194 -0.6146
  244MOL0     H32883   8.870   5.566  10.283  2.6885 -0.2734 -1.6852
  244MOL0     H32884   8.758   5.679  10.216 -0.9186  0.0402 -0.6915
  244MOL0     H32885   8.943   5.483  10.078  1.4113  1.6982 -0.5947
  244MOL0     H32886   8.772   5.479  10.062 -3.6167  2.6373 -2.8474
  244MOL0     H32887   8.807   5.731   9.957 -1.1119 -0.8215 -0.9200
  244MOL0     H32888   8.975   5.679   9.935 -0.5508 -1.9954 -1.4090
  244MOL0     H32889   8.869   5.650   9.740 -0.2788  1.3402  1.8420
  244MOL0     H32890   8.744   5.529   9.817  0.2538 -1.1061  1.5214
  244MOL0     H32891   9.084   5.545   9.637  1.3418 -1.3895 -0.1916
  244MOL0     H32892   9.185   5.202   9.566  1.3500 -0.7492 -0.6642
  244MOL0     H32893   9.195   5.374   9.521 -1.7090 -1.1909 -0.9254
  244MOL0     H32894   9.366   5.415   9.699  1.1513 -0.1264  2.4412
  244MOL0     H32895   9.414   5.292   9.574  0.2795  1.8745  0.3697
  244MOL0     H32896   9.349   5.102   9.742 -1.2124 -1.0667  1.4380
  244MOL0     H32897   9.305   5.216   9.857  1.1607 -2.7152  0.7091
  244MOL0     H32898   9.546   5.323   9.823 -0.4244  0.6071 -1.7013
  244MOL0     H32899   9.584   5.161   9.773  0.4588 -1.3938  0.7192
  244MOL0     H32900   9.587   5.082  10.201 -1.8989 -0.0025 -1.8524
  244MOL0     H32901   9.700   5.071  10.394 -0.4765 -0.2488 -1.2901
  244MOL0     H32902   9.834   4.970  10.343  0.3998  0.3897 -0.7911
  244MOL0     H32903   9.869   5.114  10.421 -0.8088 -1.2674  0.7223
  244MOL0     H32904  10.274   5.540  10.098  1.6638  0.5293 -1.9979
  244MOL0     H32905  10.492   5.561  10.144  1.6342 -1.6208  0.4039
  244MOL0     H32906  10.749   5.514  10.103 -0.1329  1.2181  0.9561
  244MOL0     H32907  10.709   5.589  10.258  0.5106 -0.1303  0.6555
  244MOL0     H32908  10.933   5.595  10.252  0.0404  0.4668 -0.1933
  244MOL0     H32909  10.897   5.461  10.368 -0.3757 -2.6588 -0.9393
  244MOL0     H32910  10.941   5.432  10.058  1.1101  1.2534 -0.1983
  244MOL0     H32911  10.945   5.299  10.170 -2.8575 -0.2087 -2.0072
  244MOL0     H32912  11.142   5.533  10.123 -1.3177  1.1848  0.7799
  244MOL0     H32913  11.157   5.434  10.270  0.8954 -1.7405 -0.7328
  244MOL0     H32914  11.308   5.361  10.042 -0.8012  0.0185 -2.7805
  244MOL0     H32915  11.160   5.299   9.985  1.8209 -0.5931  0.8200
  244MOL0     H32916  11.125   5.173  10.178 -0.0374  0.3644 -2.1377
  244MOL0     H32917  11.273   5.137  10.081  0.9310 -0.7076  0.3806
  244MOL0     H32918  11.298   5.298  10.329  0.5903 -1.8734  1.9641
  244MOL0     H32919  11.422   5.221  10.219 -0.8069  0.4152 -2.2901
  244MOL0     H32920  11.224   5.075  10.380  0.9792 -3.6301  1.5619
  244MOL0     H32921  11.390   5.101  10.437 -2.1227  0.4726  1.8032
  244MOL0     H32922  10.542   5.160  10.303 -1.1556 -0.4212  2.4732
  244MOL0     H32923  10.305   5.127  10.218  0.6436 -0.1407  1.4215
  244MOL0     H32924   9.953   5.314   9.967 -1.7465  2.6216 -0.1883
  244MOL0     H32925   9.765   5.275   9.860 -2.5235 -1.0510 -0.4822
  244MOL0     H32926   9.357   5.334  10.539 -0.1052 -1.1082 -3.8059
  244MOL0     H32927   9.593   5.272  10.559 -0.7969  0.5194  0.5352
  244MOL0     H32928   9.957   5.505  10.885  0.8052  0.2606  0.4549
  244MOL0     H32929  10.183   5.459  10.935 -1.2130  1.0289 -0.6096
  244MOL0     H32930  10.463   5.407  10.895  3.3112 -1.5115 -1.0454
  244MOL0     H32931  10.337   5.296  10.968 -1.6388  1.3407 -0.2713
  244MOL0     H32932  10.581   5.217  10.803  0.4063  5.9941  0.3702
  244MOL0     H32933  10.463   5.102  10.882  0.9977  0.4409 -2.1398
  244MOL0     H32934  10.625   5.087  11.033 -0.1637  0.2926 -0.9827
  244MOL0     H32935  10.530   5.222  11.105 -2.1693 -0.5619 -1.3314
  244MOL0     H32936  10.712   5.379  10.986 -1.8670 -0.1978  1.5863
  244MOL0     H32937  10.796   5.231  10.942 -1.0967 -1.0888 -0.5988
  244MOL0     H32938  10.902   5.245  11.339 -1.2996 -0.9163  0.9221
  244MOL0     H32939  10.237   5.273  10.547 -0.6562  2.3660 -2.3989
  244MOL0     H32940  10.009   5.310  10.501  2.9482  0.3547 -1.8088
  245MOL0     O32941   7.657   5.370   3.660  0.5129  0.5695  0.3741
  245MOL0     C32942   7.573   5.452   3.696 -0.2797 -0.5965  0.0550
  245MOL0     O32943   7.442   5.429   3.704  0.0103  0.2723 -0.4291
  245MOL0     C32944   7.383   5.323   3.646  0.0324  0.1442 -0.5309
  245MOL0     C32945   7.420   5.271   3.527 -0.6251  0.0357 -0.0771
  245MOL0     C32946   7.353   5.170   3.464 -0.0783 -0.5589  0.5499
  245MOL0     C32947   7.244   5.111   3.526  0.8551 -0.1561  0.7071
  245MOL0     O32948   7.174   4.992   3.486  0.3399 -0.0444  0.1980
  245MOL0     C32949   7.202   4.931   3.355 -0.1779 -0.6762 -0.5504
  245MOL0     C32950   7.113   4.812   3.321  0.1737 -0.1675  0.6114
  245MOL0     C32951   6.959   4.838   3.321  0.0866 -0.6436  0.7050
  245MOL0     C32952   6.892   4.704   3.309  1.3348  0.3121  0.3573
  245MOL0     C32953   6.745   4.703   3.280  0.0233  0.3148  0.7246
  245MOL0     C32954   6.681   4.572   3.237 -0.5009 -0.0649  1.1469
  245MOL0     C32955   6.549   4.581   3.174  0.9558 -0.3511 -0.3027
  245MOL0     C32956   6.500   4.444   3.155 -1.5769  0.9329 -0.1240
  245MOL0     N32957   6.364   4.434   3.102 -0.8109  0.8691 -0.2677
  245MOL0     C32958   6.293   4.545   3.062  0.1977 -0.6888 -0.1285
  245MOL0     C32959   6.175   4.498   3.024  0.0040 -0.8062  0.0617
  245MOL0     C32960   6.078   4.583   2.945 -0.1931  0.2068 -0.2846
  245MOL0     C32961   6.106   4.548   2.801 -0.0773 -0.7536 -0.9646
  245MOL0     C32962   6.011   4.614   2.700  0.4128 -0.5009  0.1783
  245MOL0     C32963   6.048   4.567   2.555  0.4905  0.0102 -0.0379
  245MOL0     O32964   5.971   4.633   2.456 -0.3119 -0.4513  0.1786
  245MOL0     C32965   5.861   4.572   2.417 -0.7412 -0.6135  0.4026
  245MOL0     C32966   5.787   4.625   2.310  0.2578 -0.0339 -0.2171
  245MOL0     C32967   5.665   4.588   2.258 -0.2609  0.9377  0.2565
  245MOL0     C32968   5.612   4.660   2.138 -0.2220  0.5978 -0.2503
  245MOL0     C32969   5.608   4.474   2.333 -0.3694  0.4101  0.3848
  245MOL0     C32970   5.475   4.414   2.314  0.3597 -0.7035 -0.5225
  245MOL0     O32971   5.431   4.310   2.404  0.5883 -0.2926  0.7235
  245MOL0     C32972   5.303   4.258   2.408  0.4994  0.2295 -0.3998
  245MOL0     C32973   5.187   4.297   2.335  0.2254  0.8041  0.1156
  245MOL0     C32974   5.070   4.225   2.346 -0.6700  0.3242 -0.3339
  245MOL0     C32975   5.056   4.115   2.430  0.1622  0.9567  0.4457
  245MOL0     O32976   4.937   4.053   2.410 -0.3467 -0.3305  0.1785
  245MOL0     C32977   4.935   3.930   2.476  1.1136  0.1678  0.5394
  245MOL0     C32978   4.788   3.886   2.464 -0.4589  0.3597 -0.3777
  245MOL0     C32979   4.759   3.835   2.324 -0.1918  0.3986  0.2129
  245MOL0     C32980   4.616   3.791   2.320 -0.3187 -0.3473 -0.4724
  245MOL0     C32981   4.546   3.820   2.190 -0.4052 -1.6568  0.6258
  245MOL0     C32982   4.420   3.726   2.170 -0.4483  0.1351  0.2915
  245MOL0     C32983   4.461   3.580   2.134 -0.3329  0.1691  0.3786
  245MOL0     C32984   4.332   3.499   2.112  1.0674 -0.1009  0.2049
  245MOL0    Cl32985   4.347   3.326   2.066 -0.4463  0.1599  0.2112
  245MOL0     C32986   5.170   4.077   2.516  0.9890 -0.4718  0.1004
  245MOL0     C32987   5.294   4.149   2.498  0.4727 -0.7821 -0.6984
  245MOL0     O32988   5.405   4.476   2.235  0.0506 -0.3031  1.4457
  245MOL0     C32989   5.681   4.406   2.434 -0.1217 -0.6459 -0.9077
  245MOL0     C32990   5.802   4.460   2.479  0.4327 -0.7205 -0.2582
  245MOL0     N32991   6.170   4.360   3.048  0.1706  0.6715 -0.5348
  245MOL0     N32992   6.289   4.316   3.093  0.3426 -0.4082  0.6612
  245MOL0     C32993   7.202   5.170   3.640  0.5422 -0.1240 -0.9097
  245MOL0     C32994   7.266   5.267   3.704  0.1977 -0.5608 -0.4671
  245MOL0     C32995   7.614   5.582   3.756 -0.7724  1.2147  0.3411
  245MOL0     C32996   7.745   5.609   3.766 -0.9169 -0.0835 -0.2208
  245MOL0     C32997   7.795   5.730   3.829 -0.8204  0.8253 -0.3329
  245MOL0     C32998   7.709   5.827   3.867  1.5801  0.1347  0.5093
  245MOL0     O32999   7.728   5.945   3.939  0.4921 -0.4733 -0.6960
  245MOL0     C33000   7.851   5.986   3.994 -0.7277 -0.3435  0.4777
  245MOL0     C33001   7.899   5.893   4.105 -0.3298 -0.0977  0.5306
  245MOL0     C33002   8.015   5.953   4.189  0.3491 -0.0967  0.2462
  245MOL0     C33003   8.045   5.868   4.310 -0.1499 -0.9460 -0.2887
  245MOL0     C33004   7.946   5.914   4.410  0.2838  0.4529 -0.1822
  245MOL0     C33005   7.853   5.930   4.492  0.6340  0.4810  0.6994
  245MOL0     C33006   7.569   5.800   3.853 -0.2290 -0.1021 -0.0502
  245MOL0     C33007   7.522   5.678   3.797  0.5313 -0.5664  0.9335
  245MOL0     H33008   7.512   5.297   3.475 -1.1742 -0.7340 -1.5044
  245MOL0     H33009   7.395   5.135   3.370 -0.2907  0.9887 -0.1623
  245MOL0     H33010   7.188   5.006   3.277 -0.8370  1.0929  1.1700
  245MOL0     H33011   7.310   4.916   3.348  0.0335 -0.1715  1.1413
  245MOL0     H33012   7.139   4.777   3.220  1.9134  2.1979  0.1600
  245MOL0     H33013   7.132   4.728   3.388  2.6961 -1.4863 -1.5306
  245MOL0     H33014   6.930   4.892   3.412 -0.2230 -0.6577  0.6181
  245MOL0     H33015   6.940   4.899   3.232  1.5236  0.0025  0.8217
  245MOL0     H33016   6.938   4.643   3.231 -2.0328 -1.4295 -0.4880
  245MOL0     H33017   6.906   4.663   3.409 -0.7480 -0.7631  0.2786
  245MOL0     H33018   6.694   4.747   3.367  0.7696 -2.2581  2.5973
  245MOL0     H33019   6.734   4.776   3.199 -0.5954  0.0906  0.6066
  245MOL0     H33020   6.750   4.525   3.167 -2.1680  0.3716 -0.8917
  245MOL0     H33021   6.681   4.519   3.333  0.4525 -1.6069  0.3476
  245MOL0     H33022   6.481   4.638   3.239 -0.3317 -2.8216  0.6688
  245MOL0     H33023   6.557   4.629   3.076  1.0687  0.6940  0.2039
  245MOL0     H33024   6.503   4.389   3.249 -1.6085  0.4930 -0.3779
  245MOL0     H33025   6.568   4.392   3.086 -1.2752  0.2819  0.6545
  245MOL0     H33026   6.342   4.638   3.035 -0.2775  0.2347  1.9838
  245MOL0     H33027   5.974   4.560   2.969 -0.6556  0.4393 -1.9714
  245MOL0     H33028   6.080   4.692   2.954  2.7280  0.3741 -1.6587
  245MOL0     H33029   6.096   4.440   2.789  1.9542 -1.0778 -0.0607
  245MOL0     H33030   6.209   4.580   2.780 -0.9218  2.9037 -0.2644
  245MOL0     H33031   6.011   4.722   2.720 -0.8152 -0.5051  0.2997
  245MOL0     H33032   5.906   4.587   2.713 -0.0206  0.0900 -1.7692
  245MOL0     H33033   6.043   4.459   2.537  0.0306  0.6815 -6.0541
  245MOL0     H33034   6.154   4.591   2.540  0.2991  0.0377 -1.4765
  245MOL0     H33035   5.833   4.719   2.280  0.6498  0.0415  0.5902
  245MOL0     H33036   5.687   4.719   2.085 -0.0237 -1.9204 -3.0400
  245MOL0     H33037   5.585   4.579   2.069 -0.2681  1.0372 -0.7510
  245MOL0     H33038   5.535   4.734   2.157  1.5069  2.1524  1.0459
  245MOL0     H33039   5.181   4.379   2.263  1.8544 -0.1469 -1.1540
  245MOL0     H33040   4.985   4.254   2.284 -0.8512  2.1522  0.6882
  245MOL0     H33041   5.000   3.852   2.436  1.5268  1.4034 -1.3440
  245MOL0     H33042   4.964   3.938   2.581 -1.5942  0.2211  1.3596
  245MOL0     H33043   4.758   3.807   2.533 -4.0619  0.0896 -2.0395
  245MOL0     H33044   4.719   3.968   2.483 -0.2553 -0.0916  2.8905
  245MOL0     H33045   4.821   3.747   2.306  0.2050  0.5622  0.7644
  245MOL0     H33046   4.804   3.902   2.251  2.8893 -0.4667  1.1649
  245MOL0     H33047   4.621   3.686   2.347 -2.9268 -0.8487 -1.6071
  245MOL0     H33048   4.552   3.846   2.390 -1.5617 -0.3580 -1.5570
  245MOL0     H33049   4.618   3.790   2.113  0.1232  0.3852  0.2496
  245MOL0     H33050   4.506   3.922   2.182 -0.4873 -1.7510 -0.3099
  245MOL0     H33051   4.351   3.734   2.254  0.2432  0.7709  0.8125
  245MOL0     H33052   4.375   3.765   2.078  1.6489  3.2132  0.4322
  245MOL0     H33053   4.521   3.533   2.213  1.2133 -0.5567 -1.1661
  245MOL0     H33054   4.527   3.581   2.047 -0.2209 -1.6856  0.4036
  245MOL0     H33055   4.262   3.544   2.040  1.2456 -3.7072 -2.4782
  245MOL0     H33056   4.273   3.492   2.204  2.6577 -1.9345  1.1594
  245MOL0     H33057   5.151   4.006   2.595  0.9565  1.7074  2.1669
  245MOL0     H33058   5.379   4.120   2.558  0.7992  1.4406  0.0076
  245MOL0     H33059   5.635   4.326   2.492 -0.3550  0.3096  0.2574
  245MOL0     H33060   5.830   4.410   2.571  2.0355 -2.0406 -1.4120
  245MOL0     H33061   7.118   5.125   3.692  0.6506  2.0217  1.2908
  245MOL0     H33062   7.232   5.300   3.802 -0.8080  1.5096 -1.4533
  245MOL0     H33063   7.826   5.539   3.746 -1.3614 -1.3633  2.0965
  245MOL0     H33064   7.902   5.737   3.845 -0.5156 -2.5694 -0.2544
  245MOL0     H33065   7.929   5.976   3.918  1.8225  0.6366  2.8302
  245MOL0     H33066   7.837   6.091   4.021  1.8940  0.4737 -1.0256
  245MOL0     H33067   7.929   5.795   4.066  1.4447  0.5854  0.0797
  245MOL0     H33068   7.820   5.870   4.176  0.0666  1.3770  1.4850
  245MOL0     H33069   7.999   6.058   4.212 -1.1794 -0.5397  1.3873
  245MOL0     H33070   8.110   5.953   4.133  1.0152 -0.7883  1.3348
  245MOL0     H33071   8.142   5.888   4.355 -0.0534 -1.4359 -0.2731
  245MOL0     H33072   8.037   5.763   4.280  1.5496 -0.3231 -3.2909
  245MOL0     H33073   7.768   5.945   4.556  2.8237  1.5673  3.5348
  245MOL0     H33074   7.490   5.869   3.878 -1.8816 -1.7363 -0.5371
  245MOL0     H33075   7.415   5.665   3.786  0.8323 -1.0091 -3.2915
  246MOL0     O33076   1.150   8.400   4.943 -0.1955  0.2918 -0.0847
  246MOL0     C33077   1.159   8.283   4.976  0.7667  0.0587  0.3053
  246MOL0     O33078   1.052   8.188   4.975 -0.0111  0.0143 -0.7098
  246MOL0     C33079   0.931   8.211   4.913 -0.9773 -0.0417  0.5053
  246MOL0     C33080   0.823   8.148   4.970  0.7808 -0.0145  0.5196
  246MOL0     C33081   0.697   8.166   4.915 -0.9052  0.8913 -0.0322
  246MOL0     C33082   0.668   8.259   4.811 -0.0444  0.1581 -0.0398
  246MOL0     O33083   0.544   8.288   4.764 -0.6881 -0.0616 -0.1332
  246MOL0     C33084   0.441   8.301   4.863  1.1139  0.7446 -0.6227
  246MOL0     C33085   0.354   8.175   4.845 -0.0014  0.3253  0.5708
  246MOL0     C33086   0.258   8.189   4.722 -0.5477  0.0633 -0.6514
  246MOL0     C33087   0.215   8.049   4.681 -0.0254  0.5043 -0.7551
  246MOL0     C33088   0.110   8.054   4.580  1.3034 -0.7707 -0.0386
  246MOL0     C33089   0.089   7.911   4.535  0.0270  0.3395 -0.3252
  246MOL0     C33090  -0.037   7.901   4.439  0.0310 -0.3753 -0.5575
  246MOL0     C33091  -0.018   7.954   4.297 -0.0431  0.2274 -0.2507
  246MOL0     N33092  -0.129   7.903   4.208  0.0322 -0.8570  1.1509
  246MOL0     C33093  -0.264   7.933   4.196 -0.1323 -0.0167  0.7074
  246MOL0     C33094  -0.319   7.842   4.106  1.7518  0.7256  0.0964
  246MOL0     C33095  -0.469   7.839   4.059 -0.2862 -0.2949 -0.1188
  246MOL0     C33096  -0.497   7.951   3.971  1.0358  0.4262  0.3027
  246MOL0     C33097  -0.614   7.928   3.870 -0.4494 -0.1908 -0.5049
  246MOL0     C33098  -0.740   7.885   3.935 -0.2470  0.3993 -0.5351
  246MOL0     O33099  -0.842   7.902   3.843  0.1730  0.0821  0.4521
  246MOL0     C33100  -0.971   7.851   3.879  0.8956  0.0249  0.0723
  246MOL0     C33101  -1.081   7.906   3.816  0.1020 -0.9425  0.9976
  246MOL0     C33102  -1.213   7.857   3.825  0.8703 -0.4811 -0.1942
  246MOL0     C33103  -1.312   7.939   3.746 -0.5157 -1.0062  0.2990
  246MOL0     C33104  -1.247   7.753   3.916  0.5962 -0.3580  0.2988
  246MOL0     C33105  -1.389   7.693   3.927 -0.2813  0.0432  0.6816
  246MOL0     O33106  -1.392   7.564   3.968 -0.1969  0.0547 -1.0960
  246MOL0     C33107  -1.500   7.516   4.034  0.2431  0.9863 -0.3881
  246MOL0     C33108  -1.497   7.383   4.064 -0.0499  0.0497  0.5980
  246MOL0     C33109  -1.608   7.315   4.123  0.4659 -0.1583  0.1832
  246MOL0     C33110  -1.727   7.378   4.144  0.8690 -0.5463  0.3770
  246MOL0     O33111  -1.826   7.301   4.205  0.5023  0.0405  0.2626
  246MOL0     C33112  -1.964   7.346   4.190 -0.1493 -0.6330  0.2591
  246MOL0     C33113  -2.079   7.247   4.224 -0.1844  0.0674  0.3852
  246MOL0     C33114  -2.202   7.268   4.135 -0.5760 -0.2333  0.7156
  246MOL0     C33115  -2.322   7.182   4.170 -0.5523  0.0482  0.7032
  246MOL0     C33116  -2.391   7.219   4.300 -1.2710 -0.5484 -0.2286
  246MOL0     C33117  -2.534   7.179   4.304 -0.3746  0.5243  0.6390
  246MOL0     C33118  -2.584   7.166   4.445 -0.2751 -0.4432 -0.2724
  246MOL0     C33119  -2.729   7.105   4.448  0.0077 -0.0007  0.5475
  246MOL0    Cl33120  -2.852   7.214   4.392 -0.2758 -0.2058 -0.2453
  246MOL0     C33121  -1.731   7.515   4.119  0.1935 -0.5238  0.9970
  246MOL0     C33122  -1.622   7.585   4.063 -0.2456 -0.4434  0.3284
  246MOL0     O33123  -1.487   7.754   3.878 -1.1241 -0.2239 -0.2740
  246MOL0     C33124  -1.134   7.695   3.975  0.5132 -0.5027 -0.8689
  246MOL0     C33125  -1.005   7.748   3.967 -0.2891 -0.9988 -1.1124
  246MOL0     N33126  -0.217   7.748   4.070 -0.6921  0.2632 -0.1355
  246MOL0     N33127  -0.104   7.796   4.126  1.2110  0.8729  0.3231
  246MOL0     C33128   0.775   8.327   4.758 -0.5534  0.3564 -0.5568
  246MOL0     C33129   0.908   8.305   4.810  0.2669  0.2580  0.2072
  246MOL0     C33130   1.292   8.239   5.028 -0.0127 -0.9212  0.8753
  246MOL0     C33131   1.307   8.102   5.056 -0.4721  0.4010  0.1836
  246MOL0     C33132   1.440   8.053   5.075  0.4057  0.3773 -1.1577
  246MOL0     C33133   1.547   8.135   5.088  0.6666  1.4309  0.3493
  246MOL0     O33134   1.670   8.078   5.116  0.5390 -0.1876  0.7023
  246MOL0     C33135   1.781   8.158   5.163 -0.4716 -0.8404  0.3219
  246MOL0     C33136   1.903   8.080   5.121 -0.5450 -0.2200  0.1131
  246MOL0     C33137   1.904   7.936   5.185 -0.1099  0.4609 -0.4825
  246MOL0     C33138   2.022   7.857   5.140  0.9179  0.1877  0.4450
  246MOL0     C33139   2.153   7.910   5.163  0.4635  0.6260 -0.0053
  246MOL0     C33140   2.258   7.954   5.191 -0.6653 -0.3006  0.5214
  246MOL0     C33141   1.533   8.269   5.061 -0.0391  0.2637  0.3456
  246MOL0     C33142   1.403   8.323   5.036  0.5179 -0.5510  1.0079
  246MOL0     H33143   0.840   8.071   5.044 -3.6717 -0.3054  1.5118
  246MOL0     H33144   0.618   8.102   4.953  2.1331 -3.5164 -0.2925
  246MOL0     H33145   0.478   8.289   4.965  0.8893  0.8312 -0.5286
  246MOL0     H33146   0.372   8.386   4.857 -0.6197 -0.6122 -0.7210
  246MOL0     H33147   0.412   8.082   4.838 -2.0172 -0.8731 -2.1413
  246MOL0     H33148   0.302   8.161   4.940  2.1508 -1.2214  1.5916
  246MOL0     H33149   0.172   8.247   4.759 -0.0578 -0.5624  1.6604
  246MOL0     H33150   0.308   8.236   4.637 -0.0066 -0.4623 -0.6285
  246MOL0     H33151   0.309   7.995   4.664  0.3737  1.7517 -2.8308
  246MOL0     H33152   0.170   7.983   4.756 -1.1305 -1.7499 -3.2551
  246MOL0     H33153   0.019   8.097   4.624  0.7019 -1.5569 -0.4858
  246MOL0     H33154   0.139   8.120   4.498  2.2747 -1.4930 -0.2899
  246MOL0     H33155   0.173   7.868   4.479 -1.5193 -1.6730 -1.2604
  246MOL0     H33156   0.071   7.842   4.618  1.6155 -1.3937 -1.3503
  246MOL0     H33157  -0.066   7.797   4.427 -0.7088 -0.3152  0.5175
  246MOL0     H33158  -0.123   7.950   4.486  0.9516 -0.3604  1.1852
  246MOL0     H33159   0.075   7.899   4.274  0.7997 -0.5003  4.0664
  246MOL0     H33160  -0.004   8.062   4.301 -0.6807  0.2840  2.6344
  246MOL0     H33161  -0.321   8.017   4.235  0.4743  0.5837  0.3187
  246MOL0     H33162  -0.484   7.753   3.993  2.3333 -0.6194 -0.4027
  246MOL0     H33163  -0.541   7.838   4.141 -2.5588 -1.8899 -2.0146
  246MOL0     H33164  -0.413   7.986   3.910  1.3054 -0.6687  0.0221
  246MOL0     H33165  -0.526   8.027   4.045 -1.5459 -2.1761  2.1954
  246MOL0     H33166  -0.583   7.859   3.791  0.4239  0.5024 -0.7766
  246MOL0     H33167  -0.642   8.023   3.824 -1.8068 -1.3208 -2.1644
  246MOL0     H33168  -0.747   7.959   4.016 -0.3877 -0.7500  0.5295
  246MOL0     H33169  -0.739   7.783   3.974  0.7561  0.4704 -0.3431
  246MOL0     H33170  -1.057   7.979   3.740 -1.7497 -2.7653 -1.4818
  246MOL0     H33171  -1.404   7.967   3.798 -0.7994 -1.2135 -0.0827
  246MOL0     H33172  -1.257   8.032   3.726 -0.6941 -1.1587 -1.0378
  246MOL0     H33173  -1.337   7.891   3.650  1.6501  0.9399 -1.3631
  246MOL0     H33174  -1.412   7.328   4.024 -1.8370 -1.4083 -1.3467
  246MOL0     H33175  -1.594   7.208   4.138  1.0342 -0.8992 -4.3099
  246MOL0     H33176  -1.987   7.437   4.247 -1.5639 -0.4574 -0.5291
  246MOL0     H33177  -1.976   7.374   4.085  1.1111  0.1773  0.3200
  246MOL0     H33178  -2.046   7.145   4.200  0.7506  0.2146  0.9783
  246MOL0     H33179  -2.100   7.246   4.331  2.0452 -0.6281  0.8698
  246MOL0     H33180  -2.179   7.241   4.032 -1.0774 -0.0934  0.5616
  246MOL0     H33181  -2.240   7.371   4.130 -1.4467 -0.5652  0.1941
  246MOL0     H33182  -2.384   7.199   4.082  3.1183  2.4423 -1.6928
  246MOL0     H33183  -2.288   7.078   4.167  0.5283  0.3767 -2.8463
  246MOL0     H33184  -2.376   7.326   4.320 -2.0161 -0.2422 -1.2302
  246MOL0     H33185  -2.334   7.165   4.376  0.5534  2.7246  0.9074
  246MOL0     H33186  -2.593   7.261   4.260  0.7904  0.9443 -0.1984
  246MOL0     H33187  -2.544   7.092   4.239 -0.3524 -0.1392  1.5239
  246MOL0     H33188  -2.583   7.269   4.482  1.2281  0.0445 -1.5782
  246MOL0     H33189  -2.517   7.107   4.509 -0.1419 -0.6672 -0.6137
  246MOL0     H33190  -2.751   7.078   4.551 -0.2149 -1.1351  0.2109
  246MOL0     H33191  -2.731   7.020   4.379  4.1050 -1.9341  2.4847
  246MOL0     H33192  -1.821   7.572   4.142  1.3614  1.3811  1.0798
  246MOL0     H33193  -1.642   7.691   4.050  1.2444 -0.1544  0.1769
  246MOL0     H33194  -1.154   7.605   4.032 -0.2013 -2.0883 -3.4605
  246MOL0     H33195  -0.926   7.706   4.028  0.6958  0.3175 -1.4258
  246MOL0     H33196   0.757   8.397   4.677  0.0883  0.8620 -0.2670
  246MOL0     H33197   0.998   8.348   4.768  0.1716  1.0036  0.7402
  246MOL0     H33198   1.222   8.035   5.051  0.3274 -0.5552 -1.1530
  246MOL0     H33199   1.463   7.949   5.094  1.1058  0.8538  0.7406
  246MOL0     H33200   1.783   8.256   5.116 -2.1260 -1.0723 -0.3150
  246MOL0     H33201   1.763   8.182   5.268  1.0095  1.3167  0.1272
  246MOL0     H33202   1.996   8.129   5.151 -1.0290 -0.0602  1.4069
  246MOL0     H33203   1.905   8.060   5.013  2.6016 -0.3581  0.1046
  246MOL0     H33204   1.820   7.873   5.156  2.0545 -1.7744 -2.3204
  246MOL0     H33205   1.901   7.953   5.294 -1.6267 -0.4468 -0.3643
  246MOL0     H33206   2.012   7.837   5.033 -0.7004  1.7013  0.2837
  246MOL0     H33207   2.015   7.755   5.181 -3.1519 -0.8417 -2.2595
  246MOL0     H33208   2.349   8.003   5.220 -0.8787  1.0383 -0.9327
  246MOL0     H33209   1.616   8.338   5.048  0.8447 -0.6221  1.0643
  246MOL0     H33210   1.402   8.429   5.014  0.0267 -0.8006 -0.2529
  247MOL0     O33211   6.326   0.751   5.833  1.1177  0.0878  0.0089
  247MOL0     C33212   6.290   0.766   5.716 -0.2303 -0.7729  0.0481
  247MOL0     O33213   6.341   0.859   5.630  0.2640 -0.2847  0.6204
  247MOL0     C33214   6.458   0.913   5.670 -0.1265  0.2209 -0.1063
  247MOL0     C33215   6.581   0.857   5.618 -0.5717 -0.0392 -0.3961
  247MOL0     C33216   6.700   0.911   5.657 -0.2504  0.3013 -0.5020
  247MOL0     C33217   6.709   1.031   5.732  0.5139  0.1878 -0.5074
  247MOL0     O33218   6.834   1.084   5.759  0.0660 -0.1152  0.4460
  247MOL0     C33219   6.892   1.036   5.871 -0.5102  0.0940 -0.3459
  247MOL0     C33220   7.032   1.085   5.906  0.5994  0.1439  1.0553
  247MOL0     C33221   7.136   1.076   5.792  0.2247 -0.2297  0.3585
  247MOL0     C33222   7.273   1.111   5.839 -0.0935 -0.3939 -0.3653
  247MOL0     C33223   7.284   1.248   5.882  0.1210  0.2178 -0.7536
  247MOL0     C33224   7.426   1.304   5.907  0.7842 -0.1998 -0.2599
  247MOL0     C33225   7.503   1.316   5.769 -0.2051  0.0431 -0.0019
  247MOL0     C33226   7.632   1.402   5.768 -0.8600 -0.0950  0.1833
  247MOL0     N33227   7.596   1.528   5.722 -1.1691 -0.6696  0.0354
  247MOL0     C33228   7.519   1.614   5.793 -1.2207 -0.4590  0.8119
  247MOL0     C33229   7.492   1.724   5.716  0.1708 -0.0509  0.4752
  247MOL0     C33230   7.381   1.824   5.733  0.3867 -0.5169  0.1034
  247MOL0     C33231   7.383   1.861   5.874 -0.1015 -1.0134  0.2684
  247MOL0     C33232   7.322   2.006   5.909 -0.3315 -0.5868  0.5454
  247MOL0     C33233   7.408   2.132   5.867 -0.7109 -0.5487 -0.5310
  247MOL0     O33234   7.353   2.200   5.755  0.7121 -0.2777 -0.0262
  247MOL0     C33235   7.252   2.294   5.788 -0.3215  0.8085  0.5211
  247MOL0     C33236   7.221   2.382   5.683  0.6433  0.1655  0.2414
  247MOL0     C33237   7.112   2.472   5.692 -1.0289  0.2764 -0.5169
  247MOL0     C33238   7.079   2.543   5.558 -0.1809  1.7003 -1.0706
  247MOL0     C33239   7.041   2.487   5.817  0.1559 -0.5484 -0.1714
  247MOL0     C33240   6.932   2.585   5.852 -0.2388 -0.6761 -0.2763
  247MOL0     O33241   6.871   2.573   5.978 -0.7464  0.3908 -0.7790
  247MOL0     C33242   6.779   2.668   6.004  0.1608 -0.2073  0.2013
  247MOL0     C33243   6.644   2.640   5.983 -0.4583  0.3173  1.0985
  247MOL0     C33244   6.548   2.739   5.999  1.2421  0.6778  0.3081
  247MOL0     C33245   6.578   2.868   6.048  0.5851 -1.1245  1.1863
  247MOL0     O33246   6.480   2.969   6.051 -0.4829  0.2096  0.8711
  247MOL0     C33247   6.392   2.956   6.161 -0.2630  0.5809  0.0210
  247MOL0     C33248   6.290   3.079   6.154  0.1289  0.7114 -0.6858
  247MOL0     C33249   6.327   3.212   6.215  0.4954  0.3496 -0.3253
  247MOL0     C33250   6.218   3.319   6.175  0.2469  0.1515 -0.3085
  247MOL0     C33251   6.243   3.442   6.254 -0.3488  0.2121  0.1408
  247MOL0     C33252   6.127   3.540   6.239 -0.2512  0.0462  1.1724
  247MOL0     C33253   6.154   3.662   6.325 -0.4640  0.2120 -0.3189
  247MOL0     C33254   6.074   3.782   6.297 -0.4417  0.7085  0.6142
  247MOL0    Cl33255   5.901   3.757   6.287 -0.3681 -0.2786 -0.2667
  247MOL0     C33256   6.715   2.894   6.068  1.0132 -0.1801 -0.2728
  247MOL0     C33257   6.813   2.801   6.052 -0.6559 -0.1719 -0.2194
  247MOL0     O33258   6.904   2.661   5.765  0.2245 -0.2980 -0.4312
  247MOL0     C33259   7.073   2.399   5.919  0.9377 -0.8885 -0.9449
  247MOL0     C33260   7.183   2.309   5.909  0.8952 -0.1893  0.8157
  247MOL0     N33261   7.572   1.703   5.599 -0.1590 -0.0850 -1.1533
  247MOL0     N33262   7.635   1.589   5.601  0.1810 -0.1286 -0.2012
  247MOL0     C33263   6.585   1.082   5.778  0.8657  0.0081 -1.0500
  247MOL0     C33264   6.458   1.018   5.752 -0.2323 -0.7545  0.8976
  247MOL0     C33265   6.188   0.673   5.657 -0.3729  0.5416  0.4905
  247MOL0     C33266   6.136   0.678   5.528  0.0250  0.5121  1.2615
  247MOL0     C33267   6.037   0.588   5.477 -0.3925  0.5544 -0.4199
  247MOL0     C33268   5.991   0.482   5.558 -0.4524  0.2659 -0.3332
  247MOL0     O33269   5.899   0.387   5.517  0.4529 -0.1145 -0.4246
  247MOL0     C33270   5.803   0.410   5.417  0.6134 -0.7133 -0.5694
  247MOL0     C33271   5.840   0.351   5.282 -0.3463  0.0653  0.0265
  247MOL0     C33272   5.788   0.434   5.169  0.5675  0.1534  0.8737
  247MOL0     C33273   5.819   0.366   5.027  0.5295  0.6351 -0.1866
  247MOL0     C33274   5.963   0.343   5.014  0.2698 -0.9586  0.1126
  247MOL0     C33275   6.074   0.306   4.993 -0.1876 -0.4892  0.1614
  247MOL0     C33276   6.053   0.471   5.683 -0.0003  0.2019 -0.2988
  247MOL0     C33277   6.148   0.561   5.735  0.4431  0.4276  0.1458
  247MOL0     H33278   6.575   0.778   5.543  0.9056 -2.3868  1.7782
  247MOL0     H33279   6.797   0.868   5.633  0.5397  1.5753  0.2630
  247MOL0     H33280   6.829   1.056   5.958 -0.6246 -0.4586 -0.2978
  247MOL0     H33281   6.903   0.927   5.863  3.1233  0.3847 -0.9183
  247MOL0     H33282   7.026   1.193   5.924  0.0195  0.7874 -2.2528
  247MOL0     H33283   7.071   1.023   5.987  1.2660 -2.9646 -1.4268
  247MOL0     H33284   7.135   0.977   5.745 -0.0825  0.0639 -0.2694
  247MOL0     H33285   7.102   1.145   5.714  0.2491 -0.5621  0.0479
  247MOL0     H33286   7.309   1.041   5.915  1.1237  2.9707  2.3999
  247MOL0     H33287   7.339   1.088   5.755 -1.3041 -5.2308 -0.2877
  247MOL0     H33288   7.228   1.315   5.816  0.5770  1.0044 -0.3532
  247MOL0     H33289   7.237   1.251   5.981  4.6225 -2.1193  1.7468
  247MOL0     H33290   7.422   1.408   5.941  1.9858 -0.0442 -0.5455
  247MOL0     H33291   7.472   1.253   5.992 -3.4009 -2.8410  0.7526
  247MOL0     H33292   7.541   1.215   5.754  1.1702  0.7427 -1.4495
  247MOL0     H33293   7.446   1.344   5.680 -1.4242  0.6516  0.9488
  247MOL0     H33294   7.706   1.349   5.708 -0.0987  1.8694 -0.6778
  247MOL0     H33295   7.661   1.406   5.874 -0.0526 -1.8341  0.0598
  247MOL0     H33296   7.474   1.581   5.886 -1.1284  1.2691  1.5084
  247MOL0     H33297   7.383   1.914   5.670 -5.1264 -0.0256  0.1002
  247MOL0     H33298   7.289   1.767   5.717 -0.2051  0.4347 -0.0286
  247MOL0     H33299   7.483   1.860   5.919  0.3522 -3.7277 -0.5874
  247MOL0     H33300   7.340   1.777   5.929 -0.2119 -1.8935 -1.0956
  247MOL0     H33301   7.303   2.019   6.016  0.4698  2.9347  0.3741
  247MOL0     H33302   7.232   2.013   5.848  2.2484 -0.9337 -3.6612
  247MOL0     H33303   7.506   2.092   5.840 -1.0305 -3.0183  1.5398
  247MOL0     H33304   7.434   2.194   5.953 -1.4271  1.5433 -1.7554
  247MOL0     H33305   7.269   2.369   5.586 -3.4187 -0.4616 -1.9251
  247MOL0     H33306   7.127   2.500   5.470  0.5234 -0.0035  0.1020
  247MOL0     H33307   6.969   2.541   5.554 -0.1937  0.7655 -0.5088
  247MOL0     H33308   7.121   2.644   5.558  0.1594  1.5780  0.2381
  247MOL0     H33309   6.612   2.540   5.957  2.6073  0.3857 -4.5129
  247MOL0     H33310   6.447   2.709   5.974  0.4553  1.5841  2.1929
  247MOL0     H33311   6.360   2.851   6.164  4.0734 -1.0857 -1.8829
  247MOL0     H33312   6.444   2.970   6.256  1.6820 -1.2042 -0.6782
  247MOL0     H33313   6.251   3.087   6.052 -2.9439 -1.3375  0.1957
  247MOL0     H33314   6.202   3.046   6.208 -0.5930 -0.5491 -2.5401
  247MOL0     H33315   6.426   3.233   6.175  1.1778 -1.6368  0.2171
  247MOL0     H33316   6.323   3.190   6.322  1.0014 -2.5649 -0.8318
  247MOL0     H33317   6.219   3.348   6.070  0.8886 -1.7067 -0.8502
  247MOL0     H33318   6.119   3.281   6.201 -0.1911  0.2253 -1.7753
  247MOL0     H33319   6.341   3.480   6.225  0.9142 -1.9645  1.2760
  247MOL0     H33320   6.261   3.422   6.360  1.7403  0.4859 -0.1244
  247MOL0     H33321   6.125   3.584   6.138  0.0948  3.5770  2.5586
  247MOL0     H33322   6.037   3.487   6.274  0.1094 -1.1489  0.3540
  247MOL0     H33323   6.260   3.685   6.315 -0.6690  1.8087  0.6774
  247MOL0     H33324   6.138   3.618   6.424  3.0195 -1.9026 -0.5678
  247MOL0     H33325   6.112   3.803   6.197  1.7973 -1.6475  0.8432
  247MOL0     H33326   6.089   3.856   6.377  0.0103 -0.3555  1.5483
  247MOL0     H33327   6.745   2.997   6.082  0.0172  0.0041  0.7015
  247MOL0     H33328   6.920   2.811   6.061 -0.1149 -1.6936 -3.3983
  247MOL0     H33329   7.012   2.402   6.009  2.1924 -0.5331 -0.0646
  247MOL0     H33330   7.204   2.229   5.979 -0.7239 -2.3067 -0.9643
  247MOL0     H33331   6.580   1.177   5.830 -1.0186  0.7477 -2.4571
  247MOL0     H33332   6.364   1.049   5.796 -1.3769 -0.2103 -1.7558
  247MOL0     H33333   6.170   0.760   5.465 -0.9010 -0.3976 -0.5274
  247MOL0     H33334   5.984   0.595   5.383  0.4816  2.5950 -0.8141
  247MOL0     H33335   5.712   0.367   5.458  0.2669  1.8456  1.6477
  247MOL0     H33336   5.793   0.519   5.412  2.5907 -0.5266 -1.7180
  247MOL0     H33337   5.793   0.252   5.283  0.9319 -0.5616  0.6175
  247MOL0     H33338   5.946   0.325   5.273 -0.5267 -0.0106 -2.6194
  247MOL0     H33339   5.823   0.537   5.178  0.3789  0.2766  0.1894
  247MOL0     H33340   5.679   0.436   5.171  0.5710  1.1273  0.3887
  247MOL0     H33341   5.791   0.423   4.938 -0.6962  2.6822  1.4296
  247MOL0     H33342   5.754   0.279   5.026  0.7600  0.3147  2.7034
  247MOL0     H33343   6.164   0.253   4.968 -0.1032  0.2272 -1.1643
  247MOL0     H33344   6.025   0.386   5.744  0.4694  0.3694  0.1603
  247MOL0     H33345   6.181   0.537   5.836 -1.9187 -2.0565  0.4416
  248MOL0     O33346   3.642   6.488  11.003 -0.0276 -0.7484  0.1368
  248MOL0     C33347   3.597   6.552  10.911 -0.2768 -0.3880 -0.4521
  248MOL0     O33348   3.582   6.691  10.895  0.3874  0.4713 -0.3981
  248MOL0     C33349   3.638   6.777  10.979 -0.4625 -0.3128 -0.1680
  248MOL0     C33350   3.736   6.881  10.939 -0.1335 -0.2583 -0.1735
  248MOL0     C33351   3.775   6.985  11.024 -0.4421 -0.4385 -0.7711
  248MOL0     C33352   3.733   6.983  11.156  0.3050  0.2314 -0.4211
  248MOL0     O33353   3.746   7.078  11.255  0.0165 -0.3229 -0.3581
  248MOL0     C33354   3.770   7.210  11.205  0.3743 -0.1700  1.3318
  248MOL0     C33355   3.740   7.314  11.314 -0.1562 -0.0347  0.3794
  248MOL0     C33356   3.851   7.317  11.417  0.9125  0.1125 -0.7070
  248MOL0     C33357   3.812   7.400  11.542 -0.1143  0.3222  0.1136
  248MOL0     C33358   3.934   7.391  11.642  0.1169 -0.9434  0.2240
  248MOL0     C33359   3.885   7.394  11.785 -0.1215 -0.7182  0.0985
  248MOL0     C33360   3.784   7.512  11.807  0.5161 -0.1731 -0.0783
  248MOL0     C33361   3.754   7.538  11.953 -0.1159 -0.8415  0.6014
  248MOL0     N33362   3.655   7.645  11.965 -0.1661 -0.8561  0.3347
  248MOL0     C33363   3.683   7.776  11.968 -0.4955 -0.2026 -0.0454
  248MOL0     C33364   3.569   7.841  12.017  0.3935  0.2281  0.6871
  248MOL0     C33365   3.579   7.993  12.041  0.0901 -0.2036 -0.3099
  248MOL0     C33366   3.585   8.079  11.920  0.3095  0.0400  0.4671
  248MOL0     C33367   3.482   8.046  11.804 -0.0058 -0.1465  0.0622
  248MOL0     C33368   3.514   8.122  11.679  0.3878 -0.7836 -0.1501
  248MOL0     O33369   3.614   8.046  11.605  0.4177 -0.7131 -0.6182
  248MOL0     C33370   3.568   7.938  11.539 -0.0757 -0.8110  0.4271
  248MOL0     C33371   3.481   7.934  11.428 -0.3947 -0.1004  0.1024
  248MOL0     C33372   3.431   7.818  11.368 -0.5387 -0.1668  0.0954
  248MOL0     C33373   3.347   7.831  11.245 -0.3743  0.3635  0.5156
  248MOL0     C33374   3.473   7.696  11.420  0.0649 -0.5588 -0.5954
  248MOL0     C33375   3.446   7.561  11.354  0.2035 -0.3433  0.5937
  248MOL0     O33376   3.426   7.559  11.223  0.2294  1.0192 -0.8725
  248MOL0     C33377   3.389   7.438  11.156  0.4448  0.2398 -0.2053
  248MOL0     C33378   3.468   7.396  11.056 -0.1960 -0.3943 -0.8013
  248MOL0     C33379   3.430   7.293  10.969  0.4603  0.2784 -0.5383
  248MOL0     C33380   3.312   7.224  11.008 -1.0766  0.9025 -0.2154
  248MOL0     O33381   3.283   7.107  10.939  0.4911 -1.0032  0.3623
  248MOL0     C33382   3.188   7.111  10.833  0.0226 -0.2068 -0.3511
  248MOL0     C33383   3.194   6.990  10.739 -0.3727  0.4184  0.3316
  248MOL0     C33384   3.069   6.978  10.652 -0.2611  0.6798 -0.1839
  248MOL0     C33385   3.082   6.862  10.549  0.2653  0.2112 -0.1845
  248MOL0     C33386   2.957   6.830  10.471  0.3077 -0.4613 -0.4768
  248MOL0     C33387   2.979   6.789  10.329 -0.3355  0.0984  0.1089
  248MOL0     C33388   3.052   6.655  10.309  0.5910 -0.4747  0.0825
  248MOL0     C33389   3.151   6.669  10.196 -0.9266  0.0745 -0.3683
  248MOL0    Cl33390   3.079   6.716  10.041  0.1316  0.1224 -0.0367
  248MOL0     C33391   3.233   7.262  11.122  0.0678 -0.0240  0.9745
  248MOL0     C33392   3.265   7.381  11.181  0.1934 -0.2784  1.1572
  248MOL0     O33393   3.438   7.469  11.426 -0.3561  1.1391 -0.4592
  248MOL0     C33394   3.555   7.695  11.537  0.2867  0.7195  0.5978
  248MOL0     C33395   3.600   7.819  11.594 -0.4130  0.7064 -0.4886
  248MOL0     N33396   3.475   7.748  12.031  0.6344 -0.4322  0.1446
  248MOL0     N33397   3.516   7.635  11.992  0.0571 -0.0976 -0.2848
  248MOL0     C33398   3.646   6.884  11.195  0.3780  0.6356  0.3902
  248MOL0     C33399   3.603   6.784  11.108 -0.2318  0.3622 -0.8129
  248MOL0     C33400   3.562   6.480  10.781 -0.0878 -0.2532 -0.1599
  248MOL0     C33401   3.638   6.371  10.732  0.2304  0.5406 -0.1636
  248MOL0     C33402   3.626   6.323  10.602  0.0179 -0.1081 -0.2989
  248MOL0     C33403   3.531   6.382  10.515  0.5909  0.1777  0.6578
  248MOL0     O33404   3.538   6.339  10.384  0.4015  0.8464  0.1462
  248MOL0     C33405   3.478   6.411  10.277 -0.4015 -0.1966 -0.8907
  248MOL0     C33406   3.524   6.356  10.147 -0.0142 -0.3370  0.9477
  248MOL0     C33407   3.484   6.456  10.030  0.1521  0.1592 -0.5293
  248MOL0     C33408   3.593   6.524   9.956  0.3339  0.7230 -0.1075
  248MOL0     C33409   3.688   6.593  10.044 -0.9388  0.7622 -0.4572
  248MOL0     C33410   3.767   6.669  10.096  0.2647 -0.5694 -0.0342
  248MOL0     C33411   3.439   6.476  10.567 -0.1953 -0.6858 -0.1705
  248MOL0     C33412   3.462   6.529  10.694 -0.5439  0.1879  0.0685
  248MOL0     H33413   3.774   6.865  10.838 -3.3173  0.1133 -1.5503
  248MOL0     H33414   3.859   7.048  10.998  0.6340 -1.2704  0.5703
  248MOL0     H33415   3.876   7.230  11.184  0.4754  0.2497  2.1914
  248MOL0     H33416   3.709   7.242  11.120  1.7903  1.7011  0.9530
  248MOL0     H33417   3.726   7.413  11.270 -2.4699 -0.6629 -0.4922
  248MOL0     H33418   3.645   7.281  11.358  0.1868 -0.9545  0.4552
  248MOL0     H33419   3.871   7.218  11.459 -2.3411  0.4221  2.0232
  248MOL0     H33420   3.948   7.350  11.378 -0.1529  0.0431 -3.6278
  248MOL0     H33421   3.762   7.494  11.515 -0.8757 -0.2725 -0.6338
  248MOL0     H33422   3.730   7.343  11.589 -0.6302  1.5191  0.7013
  248MOL0     H33423   3.982   7.294  11.630  1.5892 -0.4427  1.6561
  248MOL0     H33424   4.018   7.461  11.637  0.2928 -1.1687  0.0424
  248MOL0     H33425   3.831   7.303  11.811 -1.9736  1.1418  3.5053
  248MOL0     H33426   3.961   7.406  11.863 -1.0928 -3.2829  1.5350
  248MOL0     H33427   3.811   7.609  11.766 -2.5066  0.2917 -1.2972
  248MOL0     H33428   3.690   7.482  11.759 -1.1060 -0.1725  2.8311
  248MOL0     H33429   3.848   7.577  11.994 -0.4870  1.3026 -0.4412
  248MOL0     H33430   3.721   7.447  12.002 -0.4590 -1.7594 -1.2445
  248MOL0     H33431   3.774   7.829  11.943 -1.7450  1.0688 -2.2109
  248MOL0     H33432   3.493   8.018  12.105 -1.3132 -1.8965 -1.4589
  248MOL0     H33433   3.668   8.017  12.101  1.8241  1.0167 -3.1454
  248MOL0     H33434   3.690   8.075  11.889 -0.2569 -0.4197 -1.5266
  248MOL0     H33435   3.561   8.181  11.954  1.3921 -0.6716  3.6849
  248MOL0     H33436   3.388   8.083  11.847  1.1754  0.8889  1.8954
  248MOL0     H33437   3.462   7.940  11.787  3.3572 -0.8216 -0.3388
  248MOL0     H33438   3.547   8.223  11.707  2.0723 -0.4941 -2.8321
  248MOL0     H33439   3.418   8.147  11.633  0.8957 -0.5667 -1.1106
  248MOL0     H33440   3.445   8.030  11.393  0.5028  0.0799 -0.3560
  248MOL0     H33441   3.310   7.933  11.233  1.1463  0.8673 -0.1218
  248MOL0     H33442   3.408   7.813  11.156 -0.2586  0.0886  0.6509
  248MOL0     H33443   3.264   7.760  11.233  0.3974 -0.4197 -0.3676
  248MOL0     H33444   3.565   7.442  11.039 -0.2759  0.4469  0.7894
  248MOL0     H33445   3.501   7.263  10.893  3.4689  3.7249  0.6176
  248MOL0     H33446   3.085   7.110  10.870 -0.5676 -1.5145 -1.9191
  248MOL0     H33447   3.216   7.195  10.769  2.5122 -0.7683 -0.1066
  248MOL0     H33448   3.286   7.011  10.683 -0.2084 -0.4075  0.2828
  248MOL0     H33449   3.218   6.901  10.799  3.0248  0.4387 -0.7436
  248MOL0     H33450   3.044   7.071  10.600 -0.2872  0.4928 -0.5064
  248MOL0     H33451   2.984   6.943  10.711 -0.7906 -0.2673 -1.4845
  248MOL0     H33452   3.150   6.897  10.470 -0.1236  2.7245  0.5095
  248MOL0     H33453   3.115   6.769  10.597 -1.8319 -1.2983 -1.5008
  248MOL0     H33454   2.906   6.927  10.461  0.4133 -0.1781  1.3228
  248MOL0     H33455   2.891   6.763  10.527 -1.1964  0.9204 -0.5191
  248MOL0     H33456   2.883   6.769  10.281  0.0535 -1.1305 -0.1862
  248MOL0     H33457   3.020   6.866  10.263 -2.7309  1.8230  0.4983
  248MOL0     H33458   2.984   6.573  10.287 -0.2988  0.5957 -1.3181
  248MOL0     H33459   3.104   6.626  10.401  1.4290  2.9717  0.8556
  248MOL0     H33460   3.205   6.574  10.187 -1.4175 -0.4603  1.8557
  248MOL0     H33461   3.229   6.740  10.224 -0.5901 -0.1418 -0.7445
  248MOL0     H33462   3.150   7.200  11.154 -1.0647  0.7939 -0.2599
  248MOL0     H33463   3.194   7.411  11.257 -1.2793 -2.9280  0.9556
  248MOL0     H33464   3.587   7.599  11.578 -0.9929  0.3051  0.6478
  248MOL0     H33465   3.667   7.820  11.680 -1.3577  3.2599  0.3181
  248MOL0     H33466   3.592   6.901  11.288  0.1941 -0.3198  0.4736
  248MOL0     H33467   3.521   6.719  11.134 -1.9230  2.5860 -0.2902
  248MOL0     H33468   3.713   6.331  10.800 -1.4149  1.6360  2.4843
  248MOL0     H33469   3.692   6.239  10.581  0.5332  0.3815 -0.6727
  248MOL0     H33470   3.369   6.399  10.285 -0.2279 -1.0064  0.4821
  248MOL0     H33471   3.510   6.516  10.282 -0.8462 -0.1123  0.9457
  248MOL0     H33472   3.493   6.251  10.144 -1.6807  0.1378  0.1609
  248MOL0     H33473   3.633   6.365  10.152  0.3416  0.7090 -3.9569
  248MOL0     H33474   3.410   6.529  10.064  0.1001  0.2415 -0.8104
  248MOL0     H33475   3.439   6.399   9.948 -1.6758  0.3922  0.2535
  248MOL0     H33476   3.551   6.597   9.885  1.6922  2.5799  0.8933
  248MOL0     H33477   3.646   6.451   9.896 -2.9749 -2.9881  1.0359
  248MOL0     H33478   3.842   6.729  10.143 -0.4717 -0.2382  0.7519
  248MOL0     H33479   3.360   6.503  10.498  0.8926  1.7709 -0.5206
  248MOL0     H33480   3.392   6.607  10.721  1.8290  2.0953  1.1252
  249MOL0     O33481   7.412   9.547   4.137 -0.1692  0.0926  0.6711
  249MOL0     C33482   7.423   9.524   4.019 -0.0997 -0.1025  0.7524
  249MOL0     O33483   7.416   9.617   3.917  0.2689 -0.7451  0.2361
  249MOL0     C33484   7.368   9.753   3.930 -0.2882  0.6709  0.3207
  249MOL0     C33485   7.393   9.844   3.820 -0.1448 -0.9689 -0.1814
  249MOL0     C33486   7.333   9.973   3.808 -0.5183 -0.9968 -0.5319
  249MOL0     C33487   7.234  10.010   3.896  0.2835 -0.0210  0.4487
  249MOL0     O33488   7.154  10.120   3.883 -0.3496 -0.6409 -0.0377
  249MOL0     C33489   7.158  10.189   3.754  0.2294 -0.2365  0.6382
  249MOL0     C33490   7.086  10.320   3.771  0.4943  0.7772  0.0568
  249MOL0     C33491   6.940  10.308   3.811  0.1476 -0.0363 -0.4695
  249MOL0     C33492   6.883  10.440   3.862 -0.0474 -0.0182  0.0933
  249MOL0     C33493   6.761  10.417   3.943 -0.0044 -0.8138  0.3777
  249MOL0     C33494   6.697  10.554   3.996  0.2055  0.3197 -0.0450
  249MOL0     C33495   6.591  10.522   4.095  0.0709 -1.0521  1.3918
  249MOL0     C33496   6.511  10.642   4.120 -0.3885 -0.2254 -0.2052
  249MOL0     N33497   6.589  10.761   4.137 -0.4621  0.4765  0.0669
  249MOL0     C33498   6.668  10.802   4.247  0.5124 -0.0421 -0.6320
  249MOL0     C33499   6.746  10.901   4.205 -0.4096  0.5055  1.0429
  249MOL0     C33500   6.861  10.954   4.285 -0.2316  0.3938 -0.5934
  249MOL0     C33501   6.997  10.942   4.221  0.0271  0.7560 -0.5556
  249MOL0     C33502   7.012  11.049   4.120 -0.2677  0.9204 -0.5337
  249MOL0     C33503   7.139  11.027   4.037  0.7355 -0.5846 -0.2350
  249MOL0     O33504   7.149  11.127   3.934 -0.2715 -0.2455 -0.8889
  249MOL0     C33505   7.274  11.138   3.880 -0.8699  0.2463  0.1855
  249MOL0     C33506   7.305  11.245   3.802  0.1430 -1.2059  0.5556
  249MOL0     C33507   7.426  11.254   3.736 -1.0169 -0.5111  0.2905
  249MOL0     C33508   7.449  11.374   3.646 -0.4060 -0.3568  0.0314
  249MOL0     C33509   7.518  11.150   3.755 -0.0681 -0.2535  0.8440
  249MOL0     C33510   7.645  11.142   3.681 -0.3572  0.7316  1.2872
  249MOL0     O33511   7.745  11.235   3.700 -0.2523  0.4000 -0.3236
  249MOL0     C33512   7.847  11.254   3.607 -0.4813  0.6255  0.8744
  249MOL0     C33513   7.964  11.179   3.599  0.0401 -0.0559  0.0696
  249MOL0     C33514   8.064  11.210   3.512 -0.0040  0.0835 -0.5793
  249MOL0     C33515   8.065  11.320   3.434  0.5870 -0.0478 -0.8283
  249MOL0     O33516   8.175  11.349   3.359  0.0442 -0.8904  0.2659
  249MOL0     C33517   8.213  11.487   3.344 -0.1039  0.2375 -1.0047
  249MOL0     C33518   8.348  11.506   3.271 -0.2528  0.1197 -0.1918
  249MOL0     C33519   8.344  11.437   3.132  0.1126  0.7241 -0.3287
  249MOL0     C33520   8.251  11.521   3.039 -0.5107 -0.7034  0.0779
  249MOL0     C33521   8.262  11.484   2.890  0.8281 -0.9163  0.9720
  249MOL0     C33522   8.342  11.573   2.803  0.2066 -0.1382  0.6435
  249MOL0     C33523   8.489  11.585   2.829  0.3262  0.7973 -0.4511
  249MOL0     C33524   8.550  11.667   2.717 -0.0209  0.5355 -0.3958
  249MOL0    Cl33525   8.594  11.572   2.575 -0.4510  0.1249 -0.1599
  249MOL0     C33526   7.952  11.395   3.434  0.7159  0.7585 -0.0313
  249MOL0     C33527   7.839  11.355   3.511 -1.2323 -1.3084 -0.3293
  249MOL0     O33528   7.657  11.046   3.603  0.4125  0.2822 -0.5861
  249MOL0     C33529   7.490  11.042   3.824 -1.0500  0.7471  1.6450
  249MOL0     C33530   7.368  11.031   3.885  0.1112  0.7743 -0.9944
  249MOL0     N33531   6.708  10.939   4.084  0.6457  0.1704 -0.2536
  249MOL0     N33532   6.619  10.851   4.046 -0.3475 -0.0490 -0.3138
  249MOL0     C33533   7.202   9.920   4.002 -0.2985 -0.6175 -0.4948
  249MOL0     C33534   7.267   9.805   4.020 -0.4584 -0.4366  0.0141
  249MOL0     C33535   7.478   9.389   3.977 -1.1369 -0.5268  1.0255
  249MOL0     C33536   7.457   9.281   4.068 -0.4915  0.7171  0.7382
  249MOL0     C33537   7.510   9.155   4.034 -0.2677  0.4001 -1.0076
  249MOL0     C33538   7.565   9.128   3.906  0.4903  0.1183  0.5047
  249MOL0     O33539   7.620   9.010   3.880 -1.1686 -0.3094 -0.0519
  249MOL0     C33540   7.546   8.889   3.882  0.3817 -0.3802 -0.0874
  249MOL0     C33541   7.633   8.770   3.940  0.9149  1.0398 -0.8366
  249MOL0     C33542   7.640   8.780   4.088 -0.4436  0.9553 -0.5042
  249MOL0     C33543   7.649   8.641   4.158  0.3509 -0.4104 -0.1822
  249MOL0     C33544   7.774   8.578   4.126 -0.3418  1.0139 -0.6876
  249MOL0     C33545   7.889   8.536   4.122 -0.3370 -0.6706 -0.8137
  249MOL0     C33546   7.575   9.235   3.804  0.2498  0.5973 -0.0302
  249MOL0     C33547   7.546   9.368   3.853 -0.2446  0.5663 -0.4595
  249MOL0     H33548   7.473   9.812   3.755  0.0399  1.1626 -1.0771
  249MOL0     H33549   7.360  10.043   3.730  2.4432 -0.0670  1.1747
  249MOL0     H33550   7.256  10.210   3.710 -1.0780 -0.8854 -2.9569
  249MOL0     H33551   7.104  10.130   3.679 -1.3582  1.3352  0.4830
  249MOL0     H33552   7.150  10.380   3.837  0.7615 -1.5819  2.0500
  249MOL0     H33553   7.082  10.361   3.670 -0.5395  0.6320  0.0210
  249MOL0     H33554   6.875  10.270   3.732 -0.3703 -0.2886  0.0644
  249MOL0     H33555   6.935  10.238   3.895  0.3157 -0.3451 -0.7150
  249MOL0     H33556   6.967  10.489   3.913 -0.8017  2.3435 -0.8423
  249MOL0     H33557   6.852  10.504   3.779 -0.2554  0.0038  0.1875
  249MOL0     H33558   6.679  10.368   3.889 -1.0424 -0.4858  1.5880
  249MOL0     H33559   6.792  10.358   4.029  0.3003  1.3104  1.7947
  249MOL0     H33560   6.780  10.601   4.050 -0.8390  0.6275  1.3553
  249MOL0     H33561   6.659  10.608   3.909 -0.7609 -1.0151 -0.4974
  249MOL0     H33562   6.519  10.448   4.057  1.7381 -2.9332  1.7350
  249MOL0     H33563   6.640  10.481   4.183 -1.7936 -3.3985  1.4533
  249MOL0     H33564   6.433  10.640   4.197 -0.0253  0.2595  0.1810
  249MOL0     H33565   6.450  10.649   4.029 -1.8593  0.8009  0.8043
  249MOL0     H33566   6.655  10.743   4.337 -3.6911 -0.7898 -1.5079
  249MOL0     H33567   6.853  11.062   4.302  0.6251  0.5759 -1.3102
  249MOL0     H33568   6.862  10.915   4.387  0.8753 -0.7180 -1.0107
  249MOL0     H33569   6.990  10.844   4.175 -0.3544  0.5059  0.0230
  249MOL0     H33570   7.071  10.939   4.301  0.6281 -0.9356 -1.1454
  249MOL0     H33571   7.024  11.143   4.174  1.7696  2.2291 -3.0860
  249MOL0     H33572   6.926  11.053   4.052  1.3861  1.7882 -2.6628
  249MOL0     H33573   7.127  10.928   3.992 -1.6184  0.7176 -2.7324
  249MOL0     H33574   7.228  11.024   4.101  1.5435  0.7430 -1.2557
  249MOL0     H33575   7.227  11.318   3.789  0.0400 -1.3578  0.3128
  249MOL0     H33576   7.479  11.353   3.543  1.0195  1.4118  0.0411
  249MOL0     H33577   7.359  11.435   3.652 -1.8939 -2.2827 -1.5671
  249MOL0     H33578   7.513  11.447   3.696 -0.1254  0.4484 -1.4580
  249MOL0     H33579   7.991  11.107   3.676 -0.0886 -0.1853 -0.0050
  249MOL0     H33580   8.160  11.161   3.527 -0.3964  0.2086  3.0434
  249MOL0     H33581   8.145  11.536   3.273 -0.7004 -3.4624 -3.2875
  249MOL0     H33582   8.223  11.527   3.445 -2.4020 -2.0615  0.2695
  249MOL0     H33583   8.371  11.612   3.263 -0.0426  0.3382  2.5369
  249MOL0     H33584   8.433  11.460   3.323 -0.8938 -1.4570 -0.4771
  249MOL0     H33585   8.322  11.331   3.147  3.5344  0.0244  0.8155
  249MOL0     H33586   8.445  11.438   3.091  0.9083  0.9740  1.5023
  249MOL0     H33587   8.150  11.502   3.077 -0.7134  2.3989  1.3594
  249MOL0     H33588   8.287  11.622   3.058  0.5032 -1.1815  0.7333
  249MOL0     H33589   8.165  11.472   2.840  0.0213  2.8333  1.3152
  249MOL0     H33590   8.313  11.388   2.889  1.2929 -0.7212 -1.5860
  249MOL0     H33591   8.312  11.548   2.701  1.4720  1.1091 -0.0725
  249MOL0     H33592   8.312  11.677   2.816  1.4450  0.2387  0.5924
  249MOL0     H33593   8.532  11.484   2.825 -2.1431 -0.3886  0.7614
  249MOL0     H33594   8.500  11.644   2.920 -0.4173 -2.9625  2.3246
  249MOL0     H33595   8.644  11.713   2.750  0.2147 -1.9968  2.9607
  249MOL0     H33596   8.484  11.750   2.690 -1.0309 -0.0736  0.1645
  249MOL0     H33597   7.944  11.482   3.369  3.8294 -0.6793 -2.6734
  249MOL0     H33598   7.750  11.414   3.498 -1.2331 -1.5461 -1.5703
  249MOL0     H33599   7.556  10.956   3.831 -2.0505 -0.0969  0.8157
  249MOL0     H33600   7.352  10.934   3.932  0.1525  1.4789  0.5253
  249MOL0     H33601   7.127   9.958   4.071  0.3970  0.5248 -0.3380
  249MOL0     H33602   7.237   9.746   4.107 -1.0984 -1.2307 -0.7282
  249MOL0     H33603   7.412   9.299   4.165  0.2566  2.2017  0.8283
  249MOL0     H33604   7.493   9.068   4.098 -1.1955  0.1725 -1.5537
  249MOL0     H33605   7.456   8.907   3.942 -1.1448 -1.4572 -1.9720
  249MOL0     H33606   7.512   8.878   3.779 -0.8758  0.8614  0.1603
  249MOL0     H33607   7.737   8.770   3.906  0.2276  1.4411 -3.1429
  249MOL0     H33608   7.590   8.676   3.904 -2.7323  1.0116  2.8871
  249MOL0     H33609   7.554   8.838   4.123 -2.0000 -0.9408 -1.0006
  249MOL0     H33610   7.727   8.835   4.123  0.4036 -1.2775  1.1335
  249MOL0     H33611   7.565   8.571   4.150 -1.1716  1.1143  1.5677
  249MOL0     H33612   7.644   8.665   4.264  0.4612 -3.2625  0.5568
  249MOL0     H33613   7.985   8.491   4.133 -0.8792 -1.6633  0.0075
  249MOL0     H33614   7.639   9.229   3.717 -1.2800  1.6055 -1.2891
  249MOL0     H33615   7.569   9.446   3.781  1.1148 -2.9454 -4.2404
  250MOL0     O33616   5.119   0.246   8.840 -0.3883  0.0818 -0.5844
  250MOL0     C33617   5.191   0.284   8.935  0.2542  0.3495 -0.0699
  250MOL0     O33618   5.275   0.393   8.921  0.0350 -0.4832  0.2496
  250MOL0     C33619   5.310   0.471   8.811  0.6741 -1.0145  0.5764
  250MOL0     C33620   5.217   0.498   8.709 -0.3572 -0.1914 -0.3130
  250MOL0     C33621   5.242   0.556   8.592  0.8231 -0.5335 -0.0426
  250MOL0     C33622   5.369   0.609   8.567  0.5597  1.0907  0.2706
  250MOL0     O33623   5.398   0.661   8.441  0.0458  0.1881 -1.0033
  250MOL0     C33624   5.296   0.688   8.341  0.2830  0.1234 -0.7601
  250MOL0     C33625   5.362   0.731   8.208  0.5810 -0.0679 -0.8764
  250MOL0     C33626   5.455   0.864   8.226  1.3194  0.4100 -0.6248
  250MOL0     C33627   5.553   0.863   8.118 -0.0223 -0.2612  0.5450
  250MOL0     C33628   5.687   0.943   8.143  1.1964  1.7406 -0.3548
  250MOL0     C33629   5.663   1.084   8.151 -0.2795 -0.7951 -0.1526
  250MOL0     C33630   5.778   1.157   8.225 -0.0919 -1.0921 -0.1338
  250MOL0     C33631   5.793   1.306   8.175 -0.5568  0.1595 -0.7386
  250MOL0     N33632   5.689   1.401   8.219 -0.7916 -0.3042  0.6709
  250MOL0     C33633   5.614   1.417   8.334  0.5717 -0.0855  0.4455
  250MOL0     C33634   5.528   1.525   8.312 -0.2016 -0.3500  0.0845
  250MOL0     C33635   5.420   1.580   8.406  1.1106 -0.7741  0.4928
  250MOL0     C33636   5.298   1.485   8.421 -0.6813 -0.8108  0.4981
  250MOL0     C33637   5.316   1.384   8.528  0.1067  1.0174 -0.5471
  250MOL0     C33638   5.174   1.305   8.567  0.0147 -0.2288  0.0306
  250MOL0     O33639   5.097   1.364   8.678  0.9114 -0.0718 -0.2491
  250MOL0     C33640   4.981   1.302   8.718 -0.5032  0.0967  0.2959
  250MOL0     C33641   4.896   1.374   8.797 -0.1234  0.1449  0.0055
  250MOL0     C33642   4.769   1.341   8.834 -0.4019  0.7572 -0.4698
  250MOL0     C33643   4.696   1.441   8.915  0.3300  0.9852  0.2233
  250MOL0     C33644   4.715   1.212   8.797 -0.0388  0.0521  0.2096
  250MOL0     C33645   4.582   1.156   8.828 -0.5678  0.0269 -0.5874
  250MOL0     O33646   4.537   1.054   8.753 -0.0280  0.3692  0.2064
  250MOL0     C33647   4.401   1.017   8.753  0.2014 -0.2221  0.0912
  250MOL0     C33648   4.298   1.113   8.769 -0.3183  0.9446  0.2646
  250MOL0     C33649   4.169   1.060   8.779 -0.6506 -0.6963  0.0713
  250MOL0     C33650   4.131   0.926   8.771 -0.0268  0.0542 -1.1774
  250MOL0     O33651   3.998   0.903   8.776  0.1641 -0.4680 -0.7110
  250MOL0     C33652   3.947   0.774   8.778  0.0480 -0.1251 -1.2015
  250MOL0     C33653   3.975   0.695   8.910 -0.9988  1.6143  1.0918
  250MOL0     C33654   3.858   0.720   9.009 -0.6579  0.4323 -0.0384
  250MOL0     C33655   3.893   0.673   9.156 -0.6404  0.0831 -0.4099
  250MOL0     C33656   3.779   0.705   9.253  0.2585 -0.3539 -0.5247
  250MOL0     C33657   3.823   0.672   9.398  0.7358 -0.7216  0.1746
  250MOL0     C33658   3.870   0.525   9.417 -0.5390  0.1878  0.5115
  250MOL0     C33659   3.874   0.476   9.562 -0.2552 -0.6372 -0.3689
  250MOL0    Cl33660   3.712   0.442   9.639  0.3913 -0.3005  0.2791
  250MOL0     C33661   4.233   0.830   8.740 -1.0600 -0.2686 -0.2339
  250MOL0     C33662   4.366   0.875   8.734 -0.6949 -0.3487  1.0617
  250MOL0     O33663   4.519   1.217   8.905 -0.4640 -0.0319  0.3695
  250MOL0     C33664   4.801   1.135   8.710 -0.5558  0.3818 -0.5681
  250MOL0     C33665   4.926   1.180   8.673 -0.8999 -0.2820 -0.2806
  250MOL0     N33666   5.559   1.575   8.185 -0.1100  0.6604 -0.5756
  250MOL0     N33667   5.647   1.490   8.137  0.0268 -0.0023 -0.0551
  250MOL0     C33668   5.467   0.592   8.674 -0.2897 -0.7267  0.3998
  250MOL0     C33669   5.433   0.524   8.792 -0.0113 -0.2818 -0.5974
  250MOL0     C33670   5.180   0.231   9.077  0.3193  0.9766  0.1446
  250MOL0     C33671   5.246   0.280   9.184  0.8296 -0.3601  0.4079
  250MOL0     C33672   5.235   0.220   9.305 -0.2322  0.0175 -0.6092
  250MOL0     C33673   5.143   0.113   9.333  1.3666  0.1998  1.1501
  250MOL0     O33674   5.135   0.067   9.462  0.6862 -0.3655 -0.0304
  250MOL0     C33675   5.043  -0.035   9.492 -0.4712 -1.0667 -0.4090
  250MOL0     C33676   5.105  -0.169   9.461 -0.5554  1.0828 -0.2218
  250MOL0     C33677   4.987  -0.269   9.453  0.9380  0.0361 -0.5552
  250MOL0     C33678   4.907  -0.289   9.577  0.3031 -0.3142 -0.1935
  250MOL0     C33679   4.802  -0.387   9.565  0.2527 -0.1367 -0.0544
  250MOL0     C33680   4.696  -0.446   9.536  0.1594  0.4887 -0.8491
  250MOL0     C33681   5.062   0.076   9.222  0.3503 -0.5736  0.3616
  250MOL0     C33682   5.100   0.119   9.094  0.1852  0.1684 -0.2297
  250MOL0     H33683   5.114   0.471   8.729  0.0586 -1.7376 -0.1382
  250MOL0     H33684   5.164   0.550   8.517  1.0032  0.3997 -0.3239
  250MOL0     H33685   5.241   0.595   8.321 -0.3768 -0.8120  4.1267
  250MOL0     H33686   5.235   0.756   8.401 -1.9165 -0.6314 -2.0126
  250MOL0     H33687   5.414   0.643   8.172  0.4122 -0.7059  0.3750
  250MOL0     H33688   5.283   0.745   8.134 -0.0229  1.3398 -0.0105
  250MOL0     H33689   5.398   0.957   8.227  1.6411  0.6116 -0.6394
  250MOL0     H33690   5.501   0.870   8.326 -3.3167  1.3249  1.7115
  250MOL0     H33691   5.589   0.760   8.110  0.3912 -0.1361  0.7385
  250MOL0     H33692   5.520   0.898   8.020  3.2443 -0.6155 -0.8106
  250MOL0     H33693   5.729   0.913   8.239 -0.4997  2.2537  0.6009
  250MOL0     H33694   5.760   0.912   8.067 -1.0569 -0.2625 -1.8707
  250MOL0     H33695   5.657   1.117   8.046 -1.2769 -2.3850 -0.6353
  250MOL0     H33696   5.567   1.107   8.199 -1.7755 -4.3922 -1.0342
  250MOL0     H33697   5.750   1.152   8.331 -2.4020  0.4059 -0.5953
  250MOL0     H33698   5.867   1.101   8.195 -0.4676 -0.9972 -1.5152
  250MOL0     H33699   5.814   1.308   8.068  0.4276 -5.0284 -0.9113
  250MOL0     H33700   5.880   1.345   8.231 -0.9041  0.5953 -0.4935
  250MOL0     H33701   5.618   1.349   8.419  0.6527  0.0224  0.5283
  250MOL0     H33702   5.463   1.617   8.499  1.0616  2.4732 -0.6702
  250MOL0     H33703   5.399   1.670   8.348  3.2106 -0.1254  0.6721
  250MOL0     H33704   5.287   1.421   8.332 -1.1302  0.4617 -0.3832
  250MOL0     H33705   5.209   1.547   8.430  1.1311  2.2807 -1.2932
  250MOL0     H33706   5.360   1.427   8.618 -0.8732  0.0696  0.4249
  250MOL0     H33707   5.387   1.310   8.490 -0.7361  0.2171 -0.6047
  250MOL0     H33708   5.212   1.208   8.598 -3.0507 -0.6536  3.0366
  250MOL0     H33709   5.102   1.300   8.485  1.4121  0.8015 -1.3333
  250MOL0     H33710   4.939   1.469   8.829 -2.3253  2.7505 -3.9613
  250MOL0     H33711   4.661   1.405   9.013 -0.4723 -0.5588 -0.5829
  250MOL0     H33712   4.752   1.534   8.911 -1.2833  1.9941 -3.3335
  250MOL0     H33713   4.602   1.460   8.862 -0.4856 -3.3706 -0.3371
  250MOL0     H33714   4.337   1.213   8.789  0.8097  0.4153  0.7617
  250MOL0     H33715   4.088   1.132   8.776  1.2801  1.6092 -0.0495
  250MOL0     H33716   3.840   0.787   8.758  0.0991  2.1213 -0.3332
  250MOL0     H33717   3.994   0.721   8.695 -2.2447  0.4848 -2.9915
  250MOL0     H33718   3.974   0.588   8.888 -1.4081  2.1073 -1.6701
  250MOL0     H33719   4.070   0.723   8.957  0.4246  0.5606 -0.9992
  250MOL0     H33720   3.777   0.659   8.966 -1.7412  0.0833  2.3659
  250MOL0     H33721   3.834   0.827   9.006  0.5583  0.7069 -0.4722
  250MOL0     H33722   3.913   0.566   9.162 -3.2807 -0.9448 -5.0875
  250MOL0     H33723   3.985   0.721   9.192 -2.0905  0.9781  2.3820
  250MOL0     H33724   3.682   0.662   9.228 -2.2235  5.5945 -3.1602
  250MOL0     H33725   3.751   0.810   9.244 -0.0675 -0.4591 -0.7180
  250MOL0     H33726   3.900   0.744   9.427 -1.5246  1.6679  0.5760
  250MOL0     H33727   3.739   0.682   9.467  2.7410  1.3664  2.5351
  250MOL0     H33728   3.968   0.514   9.371 -1.2156  0.4386 -1.0412
  250MOL0     H33729   3.809   0.456   9.358  1.6254 -2.1582  0.8396
  250MOL0     H33730   3.894   0.568   9.618 -1.2594  0.3380 -1.5300
  250MOL0     H33731   3.937   0.390   9.583 -0.3742 -0.5879  0.2059
  250MOL0     H33732   4.208   0.725   8.725  0.7262 -0.8394  0.5698
  250MOL0     H33733   4.451   0.810   8.716  0.3698  1.1487  0.4896
  250MOL0     H33734   4.781   1.035   8.675  2.9490 -0.1381 -1.4790
  250MOL0     H33735   4.985   1.120   8.604 -0.2768 -1.4426  1.2002
  250MOL0     H33736   5.568   0.631   8.664 -0.9810  1.6550  1.9563
  250MOL0     H33737   5.514   0.500   8.860  0.8281  0.1634 -1.4424
  250MOL0     H33738   5.310   0.365   9.165 -0.2848  0.5744  0.7545
  250MOL0     H33739   5.289   0.261   9.390 -2.2434  0.2844  0.6035
  250MOL0     H33740   5.011  -0.038   9.597 -0.2701  0.5544 -0.2712
  250MOL0     H33741   4.954   0.001   9.440  2.1062  5.9290 -1.0285
  250MOL0     H33742   5.181  -0.190   9.537 -0.1000  0.4777 -0.8264
  250MOL0     H33743   5.152  -0.176   9.363 -0.4185  0.6164 -0.1251
  250MOL0     H33744   5.042  -0.361   9.430  1.8177 -0.2273  2.2117
  250MOL0     H33745   4.908  -0.254   9.379 -0.1873  0.7056  0.7189
  250MOL0     H33746   4.858  -0.195   9.606 -2.3902 -1.1452 -1.7035
  250MOL0     H33747   4.974  -0.321   9.658  1.9342 -0.5353 -1.5679
  250MOL0     H33748   4.607  -0.491   9.498  1.0895 -2.2335 -0.0395
  250MOL0     H33749   4.974   0.012   9.223  0.6392 -0.9769  0.3598
  250MOL0     H33750   5.038   0.087   9.010 -1.1041  0.2180  0.6700
  251MOL0     O33751  10.867   3.517   0.821  0.4607  0.2629  0.6488
  251MOL0     C33752  10.792   3.426   0.780 -0.9254  0.5474 -0.7140
  251MOL0     O33753  10.740   3.419   0.658  0.3741  0.8397 -0.1024
  251MOL0     C33754  10.789   3.516   0.575 -0.2287 -0.0740 -0.2427
  251MOL0     C33755  10.904   3.493   0.506  0.3161 -0.5134  0.0329
  251MOL0     C33756  10.953   3.600   0.426  0.1623  0.5217 -0.4896
  251MOL0     C33757  10.884   3.719   0.420  0.1039 -0.2487  0.5902
  251MOL0     O33758  10.929   3.831   0.353  0.3281  0.4931 -0.1507
  251MOL0     C33759  11.060   3.840   0.299  0.1564 -1.1925 -0.6991
  251MOL0     C33760  11.117   3.979   0.259  0.3168  0.3085  0.2150
  251MOL0     C33761  11.253   3.971   0.187 -0.6016 -0.0089 -0.1255
  251MOL0     C33762  11.321   4.110   0.177 -0.0411  0.9540 -0.8905
  251MOL0     C33763  11.452   4.099   0.107 -0.0750 -0.4433  1.2656
  251MOL0     C33764  11.444   4.083  -0.044 -0.5902  0.4155 -0.2280
  251MOL0     C33765  11.592   4.085  -0.105 -0.4153  0.2103  0.5856
  251MOL0     C33766  11.591   4.084  -0.259  0.0547  0.2192  0.4380
  251MOL0     N33767  11.534   3.960  -0.308  0.3930  0.0740  0.2923
  251MOL0     C33768  11.606   3.857  -0.373 -0.6578  0.0997 -0.1674
  251MOL0     C33769  11.509   3.788  -0.442  0.4243 -0.7938 -1.0877
  251MOL0     C33770  11.536   3.673  -0.524  0.5711  0.0839  0.1659
  251MOL0     C33771  11.590   3.566  -0.441  0.1332  0.5569 -0.1697
  251MOL0     C33772  11.508   3.514  -0.325 -0.4784 -0.3241 -0.1206
  251MOL0     C33773  11.361   3.490  -0.348 -0.0330 -0.4744 -0.8405
  251MOL0     O33774  11.334   3.403  -0.451 -0.5227  0.2995  0.1274
  251MOL0     C33775  11.202   3.398  -0.497  0.0209 -0.4095  0.5137
  251MOL0     C33776  11.196   3.316  -0.609  1.2330 -0.1361 -0.4299
  251MOL0     C33777  11.075   3.295  -0.674 -0.1775 -0.7952  0.8221
  251MOL0     C33778  11.072   3.186  -0.777 -0.5253  0.3980 -0.4476
  251MOL0     C33779  10.963   3.381  -0.648 -0.8594 -0.0941  0.2820
  251MOL0     C33780  10.832   3.377  -0.729 -0.5297 -0.8884 -0.3646
  251MOL0     O33781  10.737   3.457  -0.687  0.6855  0.0941  0.7045
  251MOL0     C33782  10.611   3.457  -0.734  0.3640 -0.0354 -0.1761
  251MOL0     C33783  10.582   3.526  -0.851  0.3203 -0.3534 -0.4745
  251MOL0     C33784  10.455   3.514  -0.906 -0.0498  0.0542 -0.2243
  251MOL0     C33785  10.361   3.432  -0.840 -0.3983  0.1243  0.3881
  251MOL0     O33786  10.233   3.442  -0.895 -0.2806  0.3877 -0.6964
  251MOL0     C33787  10.158   3.322  -0.900  0.1784  0.7471 -0.7173
  251MOL0     C33788  10.221   3.213  -0.981 -0.6092 -0.5098 -0.3486
  251MOL0     C33789  10.119   3.102  -1.013 -0.4111  0.4719  0.3802
  251MOL0     C33790   9.988   3.139  -1.096  0.0236  0.4253 -0.0053
  251MOL0     C33791  10.019   3.162  -1.246 -0.6666  0.2575  0.2757
  251MOL0     C33792   9.887   3.142  -1.325 -0.3661  0.1761 -0.2713
  251MOL0     C33793   9.905   3.175  -1.476  0.1497 -0.6529 -0.1943
  251MOL0     C33794   9.981   3.074  -1.557 -0.5527 -1.1933 -0.3406
  251MOL0    Cl33795   9.892   2.932  -1.579 -0.2029 -0.2751 -0.1979
  251MOL0     C33796  10.391   3.365  -0.723  0.3352  0.0538  0.2211
  251MOL0     C33797  10.516   3.375  -0.668  0.0518 -0.2390 -0.3396
  251MOL0     O33798  10.830   3.325  -0.834 -0.2599 -0.0547  0.3031
  251MOL0     C33799  10.975   3.477  -0.542  0.9760  0.0549  0.6921
  251MOL0     C33800  11.090   3.481  -0.461  0.4971 -0.1686 -0.1841
  251MOL0     N33801  11.386   3.855  -0.423  0.8859 -0.1626  0.7906
  251MOL0     N33802  11.404   3.956  -0.352 -0.6311 -0.7699  0.9091
  251MOL0     C33803  10.767   3.739   0.492  0.0293 -0.5696  0.2165
  251MOL0     C33804  10.718   3.638   0.573 -0.1486  0.0298  0.4523
  251MOL0     C33805  10.758   3.326   0.872 -0.1150  0.9900 -0.1905
  251MOL0     C33806  10.840   3.302   0.984  0.8921  0.3428 -0.1854
  251MOL0     C33807  10.808   3.215   1.088  0.5710  0.3431  0.3877
  251MOL0     C33808  10.682   3.153   1.079 -0.0104 -0.5362 -0.1558
  251MOL0     O33809  10.629   3.077   1.183 -0.0740  0.3979  0.1399
  251MOL0     C33810  10.697   3.057   1.305 -1.2004  0.4689 -0.2260
  251MOL0     C33811  10.595   3.001   1.409 -0.4354  0.2086 -1.0547
  251MOL0     C33812  10.472   3.081   1.427 -0.4020  0.5763  0.4233
  251MOL0     C33813  10.399   3.026   1.552 -0.1964 -0.2286  0.2371
  251MOL0     C33814  10.280   3.105   1.592  0.0508 -0.6608  0.5549
  251MOL0     C33815  10.195   3.172   1.640  0.2625 -0.1951 -0.5101
  251MOL0     C33816  10.599   3.175   0.971  0.9912  0.2118 -0.0041
  251MOL0     C33817  10.634   3.264   0.865 -0.3853 -1.2520  0.3012
  251MOL0     H33818  10.956   3.398   0.507  0.1903 -0.5831 -0.0133
  251MOL0     H33819  11.045   3.597   0.368 -0.1543  2.0851 -1.1211
  251MOL0     H33820  11.131   3.796   0.369  3.3899  1.4021 -2.0742
  251MOL0     H33821  11.051   3.786   0.205 -1.0179  1.8429 -2.4906
  251MOL0     H33822  11.046   4.022   0.188  1.1806 -2.1681 -2.3313
  251MOL0     H33823  11.136   4.021   0.358  2.4396 -1.1029  0.4669
  251MOL0     H33824  11.319   3.912   0.251 -0.7874  1.3942  1.4327
  251MOL0     H33825  11.247   3.918   0.091  1.1800  1.1284 -0.9225
  251MOL0     H33826  11.252   4.185   0.137 -1.7731  1.1863  2.2754
  251MOL0     H33827  11.351   4.148   0.275  2.0092  1.3769 -1.6227
  251MOL0     H33828  11.511   4.188   0.130 -2.6571  1.8248 -0.2236
  251MOL0     H33829  11.502   4.014   0.154 -1.1803 -0.1120  3.1377
  251MOL0     H33830  11.410   3.981  -0.061 -0.3228  0.5374 -1.6316
  251MOL0     H33831  11.385   4.163  -0.089 -0.7021  0.4041 -0.1009
  251MOL0     H33832  11.628   4.184  -0.073  0.2152  0.2562 -0.2166
  251MOL0     H33833  11.665   4.010  -0.073  1.1588  1.6490  0.5692
  251MOL0     H33834  11.694   4.089  -0.295  0.0362 -3.3343 -0.4252
  251MOL0     H33835  11.531   4.169  -0.294  0.5943  0.2126 -0.5220
  251MOL0     H33836  11.713   3.845  -0.362 -0.5080  0.9290 -0.6966
  251MOL0     H33837  11.441   3.646  -0.571 -0.1352  2.1797  0.2686
  251MOL0     H33838  11.603   3.710  -0.602 -1.5918  1.8402 -0.9832
  251MOL0     H33839  11.685   3.599  -0.399 -0.9985  2.2768  1.1682
  251MOL0     H33840  11.602   3.487  -0.516 -0.9200 -0.2236  0.4620
  251MOL0     H33841  11.511   3.588  -0.245 -0.5214 -0.3297 -0.1138
  251MOL0     H33842  11.550   3.429  -0.271 -0.4867  0.2495  0.8007
  251MOL0     H33843  11.314   3.588  -0.363  0.0661 -0.2525  0.1956
  251MOL0     H33844  11.316   3.441  -0.261 -0.0135 -2.0915 -1.6900
  251MOL0     H33845  11.277   3.252  -0.643  0.4275  0.3397 -3.5760
  251MOL0     H33846  11.089   3.224  -0.878 -4.1387 -2.1188 -2.2118
  251MOL0     H33847  11.156   3.119  -0.757  1.0713  2.6684  0.9433
  251MOL0     H33848  10.979   3.130  -0.776 -0.7398  0.7478 -0.7031
  251MOL0     H33849  10.649   3.597  -0.900 -3.8073  2.4257 -2.6344
  251MOL0     H33850  10.426   3.580  -0.987  0.4062  3.8985  2.4755
  251MOL0     H33851  10.143   3.276  -0.802 -0.8869  1.3103 -0.6005
  251MOL0     H33852  10.059   3.347  -0.940 -1.8369 -1.2845  2.5405
  251MOL0     H33853  10.271   3.238  -1.075 -1.8415 -0.5960 -1.0520
  251MOL0     H33854  10.292   3.169  -0.911 -2.6304 -2.3479  0.6964
  251MOL0     H33855  10.089   3.056  -0.919  1.8260  2.6825  2.3186
  251MOL0     H33856  10.168   3.029  -1.079  0.4508  2.1644 -0.9198
  251MOL0     H33857   9.912   3.061  -1.088  0.0706  0.2115 -1.4896
  251MOL0     H33858   9.935   3.228  -1.061 -1.0995 -0.4382  0.5748
  251MOL0     H33859  10.085   3.086  -1.289  0.1177  0.2618  1.4051
  251MOL0     H33860  10.071   3.257  -1.259  1.3824 -0.7749  0.4583
  251MOL0     H33861   9.840   3.043  -1.322  1.4829 -0.7545 -0.5138
  251MOL0     H33862   9.818   3.218  -1.285 -1.0869 -0.8262  0.4528
  251MOL0     H33863   9.955   3.272  -1.486 -1.3350  0.2466  0.7493
  251MOL0     H33864   9.805   3.193  -1.516  0.2002  0.2149  0.0533
  251MOL0     H33865  10.078   3.053  -1.512  0.3758 -0.1535 -1.7552
  251MOL0     H33866  10.001   3.123  -1.653 -0.6485  0.6604  0.5491
  251MOL0     H33867  10.329   3.300  -0.661  4.0459 -3.1738  0.9254
  251MOL0     H33868  10.545   3.317  -0.581  0.8815  0.9109  0.1729
  251MOL0     H33869  10.899   3.552  -0.524  1.1352  0.4831 -0.3761
  251MOL0     H33870  11.092   3.559  -0.385  1.2565 -2.0386  1.8195
  251MOL0     H33871  10.720   3.836   0.493  0.7931 -0.1749  1.8261
  251MOL0     H33872  10.641   3.678   0.639 -0.5220 -0.2699  0.2017
  251MOL0     H33873  10.934   3.357   0.981  0.3520  1.2759 -0.5142
  251MOL0     H33874  10.876   3.183   1.167  1.3855  2.2129  0.4791
  251MOL0     H33875  10.787   2.995   1.298 -1.9768 -0.9155  1.4321
  251MOL0     H33876  10.733   3.151   1.348  1.6065  0.3318 -2.0450
  251MOL0     H33877  10.644   3.000   1.507  2.0688 -2.7367 -2.1685
  251MOL0     H33878  10.573   2.897   1.386  2.2279 -1.3478  2.4395
  251MOL0     H33879  10.395   3.071   1.351 -1.3043  0.8766  1.2802
  251MOL0     H33880  10.500   3.187   1.431  1.0492  0.1998  2.7515
  251MOL0     H33881  10.456   3.022   1.645  0.4335  0.4089 -0.1078
  251MOL0     H33882  10.377   2.922   1.528  2.5168 -0.4935 -1.5548
  251MOL0     H33883  10.120   3.236   1.681 -1.7409 -1.2824 -2.2858
  251MOL0     H33884  10.503   3.126   0.980  0.5278  1.2168  0.7006
  251MOL0     H33885  10.565   3.304   0.792 -1.7609  1.6198  2.9717
  252MOL0     O33886   2.296   2.652   3.565  0.0851  0.8602  0.2469
  252MOL0     C33887   2.273   2.565   3.653  1.1937  0.0318  0.6296
  252MOL0     O33888   2.160   2.490   3.661  0.9643 -0.4707  0.6337
  252MOL0     C33889   2.056   2.520   3.572 -0.8453  0.3100  0.2709
  252MOL0     C33890   1.989   2.642   3.578  0.3206 -0.0624 -0.3771
  252MOL0     C33891   1.886   2.674   3.490 -0.2370 -0.3394 -0.7416
  252MOL0     C33892   1.825   2.575   3.410 -0.0318 -0.3072 -0.4192
  252MOL0     O33893   1.706   2.585   3.343 -0.0509 -0.0023 -0.9814
  252MOL0     C33894   1.651   2.713   3.297 -0.9492  1.2049  0.1273
  252MOL0     C33895   1.505   2.734   3.351  0.6240 -0.5572  0.3446
  252MOL0     C33896   1.497   2.747   3.504  0.0829 -0.4233  0.4080
  252MOL0     C33897   1.347   2.730   3.548 -0.1928 -0.5002 -0.2327
  252MOL0     C33898   1.321   2.828   3.667 -0.3074 -0.2633  0.6762
  252MOL0     C33899   1.360   2.782   3.807 -0.1878  0.3714  0.1485
  252MOL0     C33900   1.507   2.782   3.848  0.5354  0.2686 -0.2236
  252MOL0     C33901   1.531   2.712   3.977  0.4529 -0.9859  0.9840
  252MOL0     N33902   1.673   2.692   4.004  0.5123  0.2518 -0.7957
  252MOL0     C33903   1.755   2.623   3.933 -0.1054  0.1958 -0.1212
  252MOL0     C33904   1.869   2.618   4.000 -0.7855 -0.1901 -0.1284
  252MOL0     C33905   1.993   2.547   3.958  0.9753  0.9092  0.0265
  252MOL0     C33906   1.995   2.407   4.021 -0.1812 -0.6056 -0.2512
  252MOL0     C33907   1.898   2.314   3.941  0.9888  0.2308  0.6108
  252MOL0     C33908   1.804   2.242   4.041  0.0654 -0.0641 -0.6485
  252MOL0     O33909   1.701   2.153   3.993 -0.6268 -0.2308  0.2150
  252MOL0     C33910   1.606   2.221   3.923 -0.5565 -0.6085  0.4073
  252MOL0     C33911   1.621   2.252   3.782  0.4615 -0.9037  0.1232
  252MOL0     C33912   1.505   2.300   3.714  0.1966 -0.1752  0.7423
  252MOL0     C33913   1.528   2.337   3.570  0.0316 -0.2130  0.8220
  252MOL0     C33914   1.390   2.332   3.788  0.4284 -0.4674  0.3871
  252MOL0     C33915   1.256   2.382   3.739 -0.7612  0.1240 -0.8849
  252MOL0     O33916   1.168   2.439   3.825  0.3145 -0.2849  0.4836
  252MOL0     C33917   1.058   2.503   3.779  0.2374 -0.3020  1.3117
  252MOL0     C33918   1.019   2.630   3.819  0.5434  1.0326 -0.5490
  252MOL0     C33919   0.908   2.698   3.760  0.0099 -0.2282  0.3807
  252MOL0     C33920   0.835   2.639   3.654 -0.2876 -0.4700  0.3863
  252MOL0     O33921   0.726   2.695   3.598  0.1554 -0.2339 -0.2331
  252MOL0     C33922   0.680   2.827   3.643 -0.6300 -0.4874  0.1671
  252MOL0     C33923   0.544   2.829   3.589 -0.2755 -0.6479 -0.8879
  252MOL0     C33924   0.455   2.942   3.653  0.1541 -1.0661  0.1499
  252MOL0     C33925   0.502   3.077   3.586  0.8085  0.2635  0.4422
  252MOL0     C33926   0.409   3.183   3.639 -0.5692  0.3300 -0.3937
  252MOL0     C33927   0.433   3.231   3.785 -0.0272 -0.5643  0.3704
  252MOL0     C33928   0.384   3.376   3.820  0.2091  0.8078  0.8692
  252MOL0     C33929   0.395   3.391   3.975  0.0166 -0.2728 -0.7466
  252MOL0    Cl33930   0.323   3.552   4.038  0.2263  0.0116  0.1444
  252MOL0     C33931   0.873   2.520   3.614  0.2245  0.0976  0.0166
  252MOL0     C33932   0.978   2.450   3.673  1.0535 -0.5355 -0.3546
  252MOL0     O33933   1.252   2.376   3.614 -0.1886 -0.5215  0.3340
  252MOL0     C33934   1.390   2.298   3.926  0.6379 -0.1265  0.0322
  252MOL0     C33935   1.490   2.241   3.994  0.3892  0.2282  0.3690
  252MOL0     N33936   1.858   2.692   4.119 -0.1073  0.2333  0.1831
  252MOL0     N33937   1.739   2.730   4.119  0.1715  0.2520 -0.2853
  252MOL0     C33938   1.891   2.456   3.410  0.6268  0.1404  0.7132
  252MOL0     C33939   1.998   2.430   3.487  0.5006  0.2274 -0.6293
  252MOL0     C33940   2.380   2.519   3.742  0.0530  0.5827 -0.5777
  252MOL0     C33941   2.358   2.424   3.850 -0.2959 -0.1690  1.0528
  252MOL0     C33942   2.455   2.404   3.943  0.4300  0.1019  0.9656
  252MOL0     C33943   2.591   2.442   3.935 -0.0072  0.6792  0.3926
  252MOL0     O33944   2.681   2.402   4.034  0.4712 -0.3540  0.4766
  252MOL0     C33945   2.821   2.415   4.011 -0.0372  0.1873  0.4499
  252MOL0     C33946   2.867   2.321   3.901  0.2340  0.3887 -0.2654
  252MOL0     C33947   2.846   2.171   3.925 -0.1856 -0.7512  0.3323
  252MOL0     C33948   2.708   2.117   3.891 -0.7718 -0.6059 -0.2677
  252MOL0     C33949   2.689   1.983   3.828  0.9998 -0.0521 -0.0993
  252MOL0     C33950   2.671   1.878   3.768  0.1303  0.1976 -0.7809
  252MOL0     C33951   2.618   2.527   3.818 -0.0999 -0.4200 -0.4567
  252MOL0     C33952   2.509   2.575   3.731 -0.5160  0.4739 -0.4427
  252MOL0     H33953   2.023   2.716   3.649  3.3173 -1.4227 -0.2613
  252MOL0     H33954   1.845   2.774   3.502 -0.7573 -0.4922 -1.2266
  252MOL0     H33955   1.716   2.792   3.334 -0.0865 -0.2220  1.7568
  252MOL0     H33956   1.635   2.719   3.189 -0.2451 -0.0757 -0.0704
  252MOL0     H33957   1.470   2.823   3.299  1.7029 -0.0062  0.5317
  252MOL0     H33958   1.436   2.661   3.309  0.1206  2.2996 -4.5433
  252MOL0     H33959   1.559   2.668   3.548 -2.3841 -2.5584  0.3822
  252MOL0     H33960   1.518   2.850   3.533 -0.8019 -0.1138 -0.0314
  252MOL0     H33961   1.288   2.768   3.464  2.0498 -0.3940 -1.8528
  252MOL0     H33962   1.305   2.631   3.568 -0.1266 -0.0084  2.7794
  252MOL0     H33963   1.353   2.928   3.639 -1.3560 -0.1849 -0.3367
  252MOL0     H33964   1.212   2.816   3.673 -0.0288 -2.9263  2.7408
  252MOL0     H33965   1.294   2.835   3.877 -0.6620  1.3460 -1.0030
  252MOL0     H33966   1.345   2.674   3.814  2.8305 -0.3427 -2.3282
  252MOL0     H33967   1.550   2.742   3.755 -0.6611 -1.3967 -0.0970
  252MOL0     H33968   1.544   2.884   3.862 -2.1001  1.1866  0.4564
  252MOL0     H33969   1.470   2.620   3.977 -1.6828  0.1623 -3.5301
  252MOL0     H33970   1.486   2.776   4.054 -1.0816  0.3444 -0.9191
  252MOL0     H33971   1.738   2.585   3.833 -0.8840 -1.6889  0.6750
  252MOL0     H33972   1.992   2.531   3.850 -2.7805 -2.0913  0.2647
  252MOL0     H33973   2.072   2.612   3.994 -0.0574  1.5407  1.2401
  252MOL0     H33974   1.967   2.401   4.126  2.0598 -0.2087  0.4267
  252MOL0     H33975   2.091   2.354   4.015  0.5789  0.8098 -1.3990
  252MOL0     H33976   1.965   2.237   3.900  0.6388  1.0390 -1.6378
  252MOL0     H33977   1.840   2.358   3.859  2.5642 -0.7762 -1.1388
  252MOL0     H33978   1.755   2.320   4.100  0.9850  1.0744 -1.3453
  252MOL0     H33979   1.862   2.185   4.113  1.7528 -0.7907 -2.4792
  252MOL0     H33980   1.712   2.233   3.725  0.3539  1.0504 -0.8159
  252MOL0     H33981   1.624   2.298   3.534 -0.3060  0.2274 -0.6157
  252MOL0     H33982   1.448   2.299   3.506  0.5971 -1.3974  0.7913
  252MOL0     H33983   1.533   2.444   3.551  0.9521 -0.2721  0.6719
  252MOL0     H33984   1.073   2.688   3.893  3.0699 -2.4785  0.6848
  252MOL0     H33985   0.881   2.798   3.793 -1.1656  0.3894 -2.2004
  252MOL0     H33986   0.677   2.830   3.752 -2.5503 -0.7703  0.1548
  252MOL0     H33987   0.743   2.904   3.598 -1.7875 -0.2552 -1.1480
  252MOL0     H33988   0.529   2.835   3.480 -2.8601  2.7260 -0.5435
  252MOL0     H33989   0.503   2.736   3.629  2.0528 -0.1102  3.2473
  252MOL0     H33990   0.485   2.947   3.758  0.0255 -3.1747  0.3319
  252MOL0     H33991   0.349   2.917   3.664  0.0657 -0.7070  0.1296
  252MOL0     H33992   0.605   3.106   3.609  1.0600 -0.2489  0.0013
  252MOL0     H33993   0.498   3.061   3.478  3.6089  1.3567  0.0909
  252MOL0     H33994   0.307   3.143   3.639 -0.1372 -1.1377 -3.5740
  252MOL0     H33995   0.405   3.264   3.566 -0.2346  0.5981 -0.1170
  252MOL0     H33996   0.378   3.168   3.855  0.4740  0.2531  1.5261
  252MOL0     H33997   0.538   3.245   3.812 -1.2037  4.3143  3.7945
  252MOL0     H33998   0.282   3.381   3.781  0.6421  1.8749 -0.1874
  252MOL0     H33999   0.439   3.455   3.769  1.0298  0.3322  0.9905
  252MOL0     H34000   0.504   3.395   3.983  0.0211  1.0726 -1.2299
  252MOL0     H34001   0.342   3.309   4.024 -1.3165 -0.1381 -1.9292
  252MOL0     H34002   0.809   2.478   3.537 -1.9141  1.7629  0.7815
  252MOL0     H34003   1.004   2.356   3.626  0.6078 -1.1083  0.5390
  252MOL0     H34004   1.298   2.311   3.983 -0.1086 -0.1795 -1.1185
  252MOL0     H34005   1.492   2.220   4.100 -0.5866 -1.0349  0.1675
  252MOL0     H34006   1.852   2.373   3.351  2.7180 -0.0452 -0.5121
  252MOL0     H34007   2.022   2.325   3.497  1.4832  0.4333 -0.6890
  252MOL0     H34008   2.263   2.372   3.859 -1.5698  1.9408  0.6704
  252MOL0     H34009   2.426   2.343   4.027  2.2527 -1.2539  0.6714
  252MOL0     H34010   2.835   2.520   3.986  1.4844 -0.3214 -1.0428
  252MOL0     H34011   2.876   2.405   4.104 -1.2863 -0.3901  1.1500
  252MOL0     H34012   2.977   2.322   3.908  0.3706 -3.3776  0.5118
  252MOL0     H34013   2.824   2.342   3.803 -3.6254  0.9155  1.3828
  252MOL0     H34014   2.883   2.128   4.019  0.4302 -1.7817 -0.3706
  252MOL0     H34015   2.917   2.124   3.857 -1.5978 -3.7624  0.7982
  252MOL0     H34016   2.673   2.192   3.819  2.3686  1.4480  0.1605
  252MOL0     H34017   2.651   2.129   3.983 -2.4182  3.2823 -1.5877
  252MOL0     H34018   2.655   1.779   3.729 -0.9556 -0.3179  0.8524
  252MOL0     H34019   2.716   2.567   3.796  0.2542 -1.5479 -0.9810
  252MOL0     H34020   2.531   2.646   3.652  1.3184  0.9096  0.4107
  253MOL0     O34021   0.473   3.220   4.668  0.0735 -0.4111  0.0083
  253MOL0     C34022   0.508   3.299   4.762 -0.0990 -0.0837  0.2125
  253MOL0     O34023   0.431   3.335   4.869 -0.3028  0.4641 -0.6897
  253MOL0     C34024   0.312   3.269   4.887 -0.4238 -0.0835  0.7223
  253MOL0     C34025   0.213   3.282   4.785 -0.0219  0.8656 -0.4309
  253MOL0     C34026   0.081   3.230   4.802 -0.9571  0.5167  0.7145
  253MOL0     C34027   0.053   3.167   4.921 -0.0316  0.3458  1.1154
  253MOL0     O34028  -0.078   3.122   4.936  0.5454 -0.0610  0.3801
  253MOL0     C34029  -0.110   3.017   5.029 -0.0335 -0.4434  0.2974
  253MOL0     C34030  -0.262   3.012   5.044 -0.1673  0.0701 -0.5643
  253MOL0     C34031  -0.341   3.141   5.097 -0.0064 -0.7617 -0.4715
  253MOL0     C34032  -0.488   3.126   5.109  0.4161  0.6301  0.3925
  253MOL0     C34033  -0.552   3.256   5.161 -0.1954  0.2534 -0.7336
  253MOL0     C34034  -0.707   3.252   5.127 -0.2683 -0.4241 -0.3622
  253MOL0     C34035  -0.779   3.368   5.201 -0.0915  0.1422  0.8657
  253MOL0     C34036  -0.928   3.348   5.177 -0.7968 -0.3839  0.7265
  253MOL0     N34037  -0.970   3.418   5.055 -0.8146  0.1645  0.2895
  253MOL0     C34038  -0.999   3.544   5.061  0.6296 -1.4440  0.1488
  253MOL0     C34039  -1.032   3.568   4.930  0.4592  0.8876 -0.7272
  253MOL0     C34040  -1.077   3.699   4.884 -1.0428 -0.8005  0.7114
  253MOL0     C34041  -1.230   3.699   4.891  0.3602 -0.4450 -0.3706
  253MOL0     C34042  -1.277   3.846   4.934 -0.5483 -0.6110 -0.7812
  253MOL0     C34043  -1.431   3.836   4.967  0.1727 -0.5364  0.5928
  253MOL0     O34044  -1.455   3.972   5.015  0.1835 -0.2809 -0.0095
  253MOL0     C34045  -1.589   4.002   5.031  1.0082  0.6137 -0.4512
  253MOL0     C34046  -1.614   4.121   5.094 -0.0433  0.1913 -0.1498
  253MOL0     C34047  -1.747   4.170   5.114 -0.3178  0.0110  0.5223
  253MOL0     C34048  -1.748   4.310   5.188 -0.0249  0.3290 -0.2021
  253MOL0     C34049  -1.854   4.101   5.072  0.4039 -0.6434 -0.3267
  253MOL0     C34050  -1.993   4.142   5.096 -0.2113  0.0787 -0.1067
  253MOL0     O34051  -2.024   4.278   5.090  0.3866  0.0813  0.1421
  253MOL0     C34052  -2.151   4.324   5.114 -0.3810 -0.4895  1.2574
  253MOL0     C34053  -2.177   4.434   5.035  0.4874 -0.4204  0.6110
  253MOL0     C34054  -2.296   4.498   5.048 -0.5025 -0.0735  0.6770
  253MOL0     C34055  -2.386   4.467   5.148 -0.2353  0.4529 -0.7938
  253MOL0     O34056  -2.507   4.543   5.173 -0.6463 -0.8971 -0.8920
  253MOL0     C34057  -2.538   4.569   5.312  0.9187 -0.0925 -0.6567
  253MOL0     C34058  -2.488   4.709   5.354  0.4439 -0.0838 -0.1656
  253MOL0     C34059  -2.526   4.829   5.269 -0.7132 -0.7501  0.3169
  253MOL0     C34060  -2.504   4.966   5.347  0.6810 -0.4872  0.5824
  253MOL0     C34061  -2.574   5.078   5.271  0.2829  0.3506 -0.7030
  253MOL0     C34062  -2.528   5.218   5.320  0.6603  0.1514  0.6892
  253MOL0     C34063  -2.547   5.264   5.463 -1.1432  0.5520 -0.1553
  253MOL0     C34064  -2.687   5.261   5.520  0.9398  0.1644 -0.3217
  253MOL0    Cl34065  -2.796   5.375   5.426  0.6700  0.4043  0.1751
  253MOL0     C34066  -2.361   4.354   5.220  0.2442  0.9756 -0.1388
  253MOL0     C34067  -2.246   4.275   5.204  0.4875  0.3022 -0.1401
  253MOL0     O34068  -2.072   4.052   5.117 -0.6995 -0.0928  0.4138
  253MOL0     C34069  -1.825   3.977   5.012 -0.2927 -0.5480 -0.8132
  253MOL0     C34070  -1.695   3.925   4.988  0.7321 -0.0741 -1.6256
  253MOL0     N34071  -1.037   3.450   4.854  0.1255 -0.5262 -0.1669
  253MOL0     N34072  -0.992   3.364   4.931  0.5086  0.3830 -0.3191
  253MOL0     C34073   0.157   3.147   5.014 -0.8688  0.6079  0.2154
  253MOL0     C34074   0.286   3.189   4.996 -0.3211  0.9491  0.9046
  253MOL0     C34075   0.627   3.378   4.724 -0.9964  0.0727  0.8453
  253MOL0     C34076   0.660   3.482   4.811 -0.2856 -1.8211  1.0156
  253MOL0     C34077   0.759   3.577   4.775  0.6085  0.4904 -0.6871
  253MOL0     C34078   0.826   3.567   4.655  0.1523 -0.1920  0.7437
  253MOL0     O34079   0.909   3.665   4.614 -0.0168 -0.6830  0.3604
  253MOL0     C34080   0.902   3.691   4.475 -0.4375  0.1585  0.1677
  253MOL0     C34081   0.954   3.832   4.456 -0.2358 -0.2766 -0.5271
  253MOL0     C34082   1.098   3.862   4.492  0.4707  0.8110  0.1318
  253MOL0     C34083   1.134   4.005   4.492  0.3952 -0.9837  0.2002
  253MOL0     C34084   1.043   4.088   4.569  0.1242  0.2167 -0.0355
  253MOL0     C34085   0.979   4.171   4.631 -0.0671 -1.3329  0.3817
  253MOL0     C34086   0.816   3.444   4.584  0.8612 -0.9139  0.6807
  253MOL0     C34087   0.709   3.360   4.607 -0.1382  0.1138 -0.0899
  253MOL0     H34088   0.216   3.329   4.687  0.0881 -0.5952 -1.1628
  253MOL0     H34089   0.002   3.250   4.730  1.7444 -0.0973 -2.6739
  253MOL0     H34090  -0.066   2.921   4.999 -0.8920 -0.3962 -1.1833
  253MOL0     H34091  -0.058   3.053   5.118  2.0473  2.7925 -1.9884
  253MOL0     H34092  -0.303   3.000   4.943  2.0783  1.1544 -1.7056
  253MOL0     H34093  -0.284   2.924   5.104 -0.8300  0.6008 -0.0146
  253MOL0     H34094  -0.312   3.170   5.199 -0.6321  0.8887 -0.7312
  253MOL0     H34095  -0.309   3.233   5.047  2.8413  0.0383  2.4453
  253MOL0     H34096  -0.526   3.100   5.010 -1.2937  1.5306  0.7796
  253MOL0     H34097  -0.509   3.043   5.178  4.0498  0.3046  1.2742
  253MOL0     H34098  -0.537   3.278   5.267 -1.8710  0.5583 -0.5290
  253MOL0     H34099  -0.511   3.333   5.094  0.4562 -0.2395 -0.9075
  253MOL0     H34100  -0.717   3.257   5.018  0.0315 -0.3512 -0.3866
  253MOL0     H34101  -0.741   3.160   5.175  4.1043 -1.5390  1.0347
  253MOL0     H34102  -0.755   3.342   5.304 -0.4800 -1.1326  0.6532
  253MOL0     H34103  -0.734   3.459   5.160 -1.5902 -0.4657 -2.5185
  253MOL0     H34104  -0.981   3.397   5.258 -0.1398  1.1678  0.2624
  253MOL0     H34105  -0.945   3.242   5.154  2.3574 -0.8364 -0.0052
  253MOL0     H34106  -0.995   3.613   5.145 -0.3784 -1.1723 -0.0148
  253MOL0     H34107  -1.028   3.785   4.930  2.6257 -0.8823 -2.5052
  253MOL0     H34108  -1.049   3.703   4.778  2.5086  2.0531  1.5652
  253MOL0     H34109  -1.254   3.630   4.973 -0.4767  1.2593  0.8685
  253MOL0     H34110  -1.273   3.662   4.798  0.0010  0.6873 -0.6692
  253MOL0     H34111  -1.268   3.920   4.855 -0.6747  1.1891  0.8167
  253MOL0     H34112  -1.233   3.874   5.030  1.0718 -0.7983 -1.4289
  253MOL0     H34113  -1.469   3.761   5.037  1.0641  1.2526  3.1483
  253MOL0     H34114  -1.489   3.831   4.874 -1.4167 -0.5564  1.5385
  253MOL0     H34115  -1.539   4.194   5.124 -0.0868  1.1591 -2.2241
  253MOL0     H34116  -1.837   4.349   5.237  1.0447  1.5367  0.8703
  253MOL0     H34117  -1.674   4.315   5.268  0.8705  1.0710 -1.0369
  253MOL0     H34118  -1.720   4.385   5.113 -0.6636  1.5549  0.7581
  253MOL0     H34119  -2.112   4.476   4.958 -0.1643  1.8989  1.2534
  253MOL0     H34120  -2.322   4.577   4.978  0.7441 -0.4569 -0.2479
  253MOL0     H34121  -2.647   4.564   5.317  0.8809  0.7571 -0.4515
  253MOL0     H34122  -2.495   4.510   5.394 -2.5210  3.7110  4.5288
  253MOL0     H34123  -2.541   4.731   5.448 -2.0795 -0.5782 -1.3956
  253MOL0     H34124  -2.379   4.712   5.358  0.4760  4.1477  2.1031
  253MOL0     H34125  -2.627   4.838   5.228 -1.3365  2.2391  2.1495
  253MOL0     H34126  -2.463   4.835   5.180 -1.9280  0.2684 -0.5123
  253MOL0     H34127  -2.547   4.953   5.447 -0.6318 -0.8512 -0.0155
  253MOL0     H34128  -2.396   4.982   5.347  0.4682  1.1026  0.1123
  253MOL0     H34129  -2.684   5.079   5.273  0.2722  0.4513 -1.2428
  253MOL0     H34130  -2.543   5.072   5.166 -4.2245 -3.0936 -2.1608
  253MOL0     H34131  -2.419   5.217   5.310  0.8829 -3.3034  1.8793
  253MOL0     H34132  -2.581   5.285   5.252  0.3156 -1.3400 -0.5916
  253MOL0     H34133  -2.515   5.368   5.476 -0.3494  0.4167 -0.9210
  253MOL0     H34134  -2.475   5.213   5.528 -0.1648  0.4152 -1.3061
  253MOL0     H34135  -2.683   5.282   5.627  2.0045 -0.7634 -0.1511
  253MOL0     H34136  -2.727   5.159   5.521  2.3530 -0.5198  3.2442
  253MOL0     H34137  -2.427   4.326   5.302  1.0083  0.4796  0.3244
  253MOL0     H34138  -2.240   4.189   5.270 -2.1537  0.8559  0.9418
  253MOL0     H34139  -1.914   3.920   4.989  0.8898 -3.2090  0.6148
  253MOL0     H34140  -1.689   3.824   4.950 -4.5618 -1.1502 -0.4592
  253MOL0     H34141   0.130   3.101   5.108  0.7276  0.3166  0.5656
  253MOL0     H34142   0.357   3.177   5.077 -2.0793  0.6377  2.4730
  253MOL0     H34143   0.599   3.491   4.901 -2.2739 -1.3342 -0.3148
  253MOL0     H34144   0.777   3.666   4.835 -0.4582  0.0050  0.3913
  253MOL0     H34145   0.963   3.624   4.414 -0.8388  0.4289 -0.5440
  253MOL0     H34146   0.796   3.696   4.448 -1.0397 -1.3662  1.9959
  253MOL0     H34147   0.888   3.890   4.522  1.7700  1.5136  0.0284
  253MOL0     H34148   0.941   3.850   4.349  1.8910  0.5524 -0.6968
  253MOL0     H34149   1.164   3.800   4.430 -3.2242 -2.1083 -1.3155
  253MOL0     H34150   1.111   3.817   4.590  0.7872  1.4525  0.3886
  253MOL0     H34151   1.111   4.037   4.390 -2.6361 -0.3427  0.9836
  253MOL0     H34152   1.241   4.023   4.505 -0.2657  2.9533  1.7831
  253MOL0     H34153   0.927   4.249   4.681  3.5962  2.1611 -0.6800
  253MOL0     H34154   0.887   3.418   4.506  1.1115  1.2869  0.1021
  253MOL0     H34155   0.706   3.271   4.544 -0.6244  1.2013 -1.6489
  254MOL0     O34156   3.791   0.375   6.105  0.1822 -0.0646 -1.3904
  254MOL0     C34157   3.712   0.376   6.017  0.0354  0.3068 -0.0953
  254MOL0     O34158   3.746   0.362   5.883 -0.4529  0.5989  0.7603
  254MOL0     C34159   3.869   0.312   5.845  0.5446 -0.8268 -1.1670
  254MOL0     C34160   3.947   0.229   5.923 -0.0946  1.2692 -0.7922
  254MOL0     C34161   4.068   0.169   5.871  0.2189  0.2861  0.3504
  254MOL0     C34162   4.110   0.202   5.744 -0.5098  0.6914  0.1836
  254MOL0     O34163   4.224   0.166   5.681  0.3754  0.2376  0.1607
  254MOL0     C34164   4.336   0.135   5.763 -0.7685 -0.9975  0.3090
  254MOL0     C34165   4.467   0.113   5.685  0.0151 -0.3501  0.0604
  254MOL0     C34166   4.464  -0.022   5.621 -0.4302 -0.0173  0.5916
  254MOL0     C34167   4.578  -0.038   5.516  0.6820 -0.4460 -0.1935
  254MOL0     C34168   4.570  -0.180   5.453 -0.6192  0.9916  0.3902
  254MOL0     C34169   4.451  -0.196   5.351 -0.1709  0.2675  0.3799
  254MOL0     C34170   4.419  -0.341   5.299 -0.3020  0.3499 -0.2907
  254MOL0     C34171   4.349  -0.427   5.405 -0.3563 -0.0258 -0.1594
  254MOL0     N34172   4.235  -0.363   5.467  0.1103 -0.2545 -0.3507
  254MOL0     C34173   4.221  -0.337   5.606  0.4252 -0.0506 -0.9152
  254MOL0     C34174   4.088  -0.296   5.617  0.7555  0.0455  0.0314
  254MOL0     C34175   3.998  -0.280   5.745 -0.7406 -0.2991 -0.8117
  254MOL0     C34176   3.971  -0.130   5.776 -0.0414 -0.2148 -0.0425
  254MOL0     C34177   3.819  -0.086   5.766  0.5411 -0.1573 -0.2659
  254MOL0     C34178   3.735  -0.093   5.892  1.1606  0.0743  0.4503
  254MOL0     O34179   3.612  -0.021   5.860 -0.7732  0.4366  0.9578
  254MOL0     C34180   3.549   0.019   5.974  0.8965  0.2040  0.6259
  254MOL0     C34181   3.602   0.051   6.101 -0.3621 -0.5558 -0.2946
  254MOL0     C34182   3.521   0.102   6.205 -0.7009 -0.5140  0.1497
  254MOL0     C34183   3.589   0.122   6.341  0.2416 -0.1413 -0.2820
  254MOL0     C34184   3.383   0.130   6.176 -0.5444 -0.0596 -0.2880
  254MOL0     C34185   3.297   0.190   6.272  0.5288 -0.4179  0.0880
  254MOL0     O34186   3.199   0.250   6.219  0.9671  0.6394 -0.3232
  254MOL0     C34187   3.099   0.303   6.296  1.0588  0.8642 -0.3245
  254MOL0     C34188   2.971   0.263   6.244 -0.5297 -0.2696 -0.7607
  254MOL0     C34189   2.855   0.298   6.305  0.8432 -0.5706  0.4082
  254MOL0     C34190   2.850   0.372   6.424 -0.0387  0.2473 -0.0986
  254MOL0     O34191   2.729   0.409   6.471  0.5423 -0.2779 -0.3780
  254MOL0     C34192   2.724   0.484   6.590  0.9641  0.5409  0.5099
  254MOL0     C34193   2.579   0.522   6.632  0.1941 -0.0415  0.5039
  254MOL0     C34194   2.488   0.396   6.629 -0.1207  0.6059  0.3369
  254MOL0     C34195   2.356   0.426   6.711  0.3893  1.1082  1.3058
  254MOL0     C34196   2.324   0.297   6.787 -0.7950 -0.3035 -0.4580
  254MOL0     C34197   2.417   0.282   6.910  0.2759  0.4788  0.0692
  254MOL0     C34198   2.366   0.184   7.015  0.4823  0.4394 -1.1158
  254MOL0     C34199   2.491   0.129   7.095  0.1218  0.8278 -0.2322
  254MOL0    Cl34200   2.558  -0.012   6.998  0.1536 -0.3913  0.2849
  254MOL0     C34201   2.982   0.411   6.469 -0.7975  0.2884 -0.3792
  254MOL0     C34202   3.106   0.380   6.410  0.0454 -0.1550  0.7603
  254MOL0     O34203   3.330   0.192   6.389 -0.0323  0.6844  0.1042
  254MOL0     C34204   3.333   0.098   6.051 -0.3375 -0.2270 -0.5765
  254MOL0     C34205   3.417   0.039   5.958  0.7883 -0.4072  1.0372
  254MOL0     N34206   4.033  -0.287   5.493  1.1543  0.0048 -0.1969
  254MOL0     N34207   4.123  -0.327   5.404  0.8153 -0.3475  0.6808
  254MOL0     C34208   4.033   0.298   5.669 -0.0974  0.4829  0.1117
  254MOL0     C34209   3.914   0.343   5.716 -0.2875 -0.2326  0.3871
  254MOL0     C34210   3.587   0.447   6.042 -0.0476 -0.3892  0.6052
  254MOL0     C34211   3.499   0.470   5.940 -0.1317 -1.1083 -0.2642
  254MOL0     C34212   3.385   0.549   5.962  0.3908 -0.1201 -1.2234
  254MOL0     C34213   3.354   0.603   6.080  0.1285 -1.1556  1.0095
  254MOL0     O34214   3.250   0.695   6.085  0.2126  0.2262 -1.0299
  254MOL0     C34215   3.219   0.758   6.212  0.2045  0.0759 -1.1401
  254MOL0     C34216   3.085   0.818   6.195 -0.6882  0.0877 -0.8112
  254MOL0     C34217   3.039   0.887   6.322  0.0328  0.2205 -0.2422
  254MOL0     C34218   2.974   0.780   6.419  0.1865 -0.0545  0.5682
  254MOL0     C34219   2.871   0.841   6.493  0.3222 -0.3375 -0.1702
  254MOL0     C34220   2.779   0.897   6.552  0.1576  0.0633  0.1585
  254MOL0     C34221   3.444   0.593   6.184 -0.6783  0.5384  0.1232
  254MOL0     C34222   3.551   0.505   6.170 -0.1741  0.4172  0.5796
  254MOL0     H34223   3.922   0.180   6.017  0.5239  1.3458 -0.5824
  254MOL0     H34224   4.122   0.093   5.926  0.9827  0.0958 -0.6398
  254MOL0     H34225   4.353   0.235   5.804 -2.3661 -1.0326  1.1561
  254MOL0     H34226   4.322   0.059   5.841 -0.8525 -2.9342 -1.4812
  254MOL0     H34227   4.478   0.195   5.614 -1.5040  0.9215  1.2314
  254MOL0     H34228   4.552   0.127   5.752 -1.4294  4.9533  1.2576
  254MOL0     H34229   4.464  -0.105   5.692  1.3872 -0.5394  0.0004
  254MOL0     H34230   4.365  -0.024   5.574 -0.4243  1.2783  0.4697
  254MOL0     H34231   4.566   0.036   5.437 -1.3600  3.0700  3.1088
  254MOL0     H34232   4.670  -0.034   5.576 -0.3715 -2.0711  1.6408
  254MOL0     H34233   4.660  -0.216   5.403 -2.3617 -0.0165 -2.2859
  254MOL0     H34234   4.557  -0.262   5.524  1.8514 -1.2591 -1.5583
  254MOL0     H34235   4.354  -0.157   5.384 -2.0473 -1.4241 -2.6160
  254MOL0     H34236   4.482  -0.130   5.270  0.2705  0.6110  0.8297
  254MOL0     H34237   4.351  -0.326   5.214 -2.3242  1.0995  1.3602
  254MOL0     H34238   4.507  -0.397   5.266 -0.9388  0.8628 -3.1611
  254MOL0     H34239   4.421  -0.458   5.481  0.3058  1.2471 -0.2483
  254MOL0     H34240   4.317  -0.517   5.352  1.3191  0.5448 -2.2478
  254MOL0     H34241   4.287  -0.366   5.687 -1.0266 -3.8221 -0.8557
  254MOL0     H34242   3.903  -0.326   5.717 -0.7057 -0.0163 -1.4260
  254MOL0     H34243   4.054  -0.333   5.823 -0.3893 -2.5214 -2.4761
  254MOL0     H34244   4.012  -0.068   5.696 -2.4767  2.2114  0.4562
  254MOL0     H34245   4.025  -0.105   5.867  2.5537  0.7809 -1.7185
  254MOL0     H34246   3.760  -0.147   5.698 -1.0523  0.5648  0.4216
  254MOL0     H34247   3.811   0.017   5.731 -1.5688 -0.2749 -0.2020
  254MOL0     H34248   3.795  -0.044   5.969 -0.6868 -0.5033  2.3724
  254MOL0     H34249   3.713  -0.197   5.918 -0.6288  0.4752  0.6813
  254MOL0     H34250   3.707   0.041   6.125 -0.6450  0.6328  1.6585
  254MOL0     H34251   3.689   0.076   6.342  1.0444  1.4521 -2.1519
  254MOL0     H34252   3.597   0.230   6.351 -0.6772 -0.2113  1.7592
  254MOL0     H34253   3.540   0.074   6.427 -2.0214 -0.8676 -1.8945
  254MOL0     H34254   2.969   0.217   6.146 -1.3450  0.6572 -1.2013
  254MOL0     H34255   2.759   0.274   6.260  2.1576 -1.9433 -1.8649
  254MOL0     H34256   2.780   0.432   6.667  3.0596 -0.6019 -1.6621
  254MOL0     H34257   2.776   0.577   6.564  1.0733  1.0132  2.2881
  254MOL0     H34258   2.575   0.576   6.727  1.8165  3.0296 -1.0457
  254MOL0     H34259   2.533   0.594   6.564  1.3140  1.0463  0.8618
  254MOL0     H34260   2.544   0.313   6.673 -1.1569 -0.3501 -0.1073
  254MOL0     H34261   2.464   0.378   6.524 -1.0527  1.9451  0.3008
  254MOL0     H34262   2.355   0.510   6.781 -1.7197  2.7874 -0.5756
  254MOL0     H34263   2.278   0.452   6.639 -0.4122 -0.1550  1.6787
  254MOL0     H34264   2.337   0.204   6.732 -0.1927 -1.8663  2.1186
  254MOL0     H34265   2.222   0.296   6.827 -0.8268  2.8046 -0.1834
  254MOL0     H34266   2.503   0.228   6.869 -1.4419 -1.9051 -0.5773
  254MOL0     H34267   2.447   0.383   6.940 -2.3799  0.9499  1.4437
  254MOL0     H34268   2.306   0.100   6.980 -0.9818  0.1654  1.7139
  254MOL0     H34269   2.308   0.238   7.091 -0.2709  1.0460 -2.1072
  254MOL0     H34270   2.452   0.090   7.190  1.0283  0.0624 -0.1631
  254MOL0     H34271   2.571   0.198   7.120  0.9749  0.5349 -1.9709
  254MOL0     H34272   2.996   0.484   6.548  1.5723 -0.3551 -0.1507
  254MOL0     H34273   3.203   0.403   6.453  0.0900 -0.1052  0.6332
  254MOL0     H34274   3.227   0.098   6.031 -0.7421  1.9088  1.1291
  254MOL0     H34275   3.369   0.008   5.866  0.4345  1.0585  0.7027
  254MOL0     H34276   4.062   0.330   5.569  1.8919 -0.1093  0.4422
  254MOL0     H34277   3.847   0.402   5.654 -1.2176 -0.3772  1.2312
  254MOL0     H34278   3.510   0.429   5.841 -0.3716  0.3567 -0.9264
  254MOL0     H34279   3.312   0.564   5.883 -3.2978 -2.4187  1.4213
  254MOL0     H34280   3.211   0.689   6.297  2.8371 -2.9713 -3.1277
  254MOL0     H34281   3.288   0.838   6.241  1.5327 -0.6409 -2.2162
  254MOL0     H34282   3.013   0.745   6.156  0.9322 -1.0764 -1.7561
  254MOL0     H34283   3.086   0.885   6.109  1.2920 -3.0982 -3.5230
  254MOL0     H34284   2.964   0.963   6.297 -1.6549 -1.2117  0.2139
  254MOL0     H34285   3.124   0.928   6.378 -0.5946  1.9483 -0.5097
  254MOL0     H34286   3.047   0.735   6.486  2.4668  1.1339 -0.9643
  254MOL0     H34287   2.921   0.705   6.361 -0.2525 -0.8382  1.9478
  254MOL0     H34288   2.693   0.950   6.589 -0.1453  0.2457 -0.7911
  254MOL0     H34289   3.429   0.646   6.277 -0.0084  1.4598 -0.2773
  254MOL0     H34290   3.602   0.484   6.263  0.5278  0.1802  0.1451
  255MOL0     O34291   5.478  10.347  11.015 -0.3574  0.7114  0.4204
  255MOL0     C34292   5.399  10.350  11.110  0.1107 -0.4018  1.0248
  255MOL0     O34293   5.438  10.377  11.244 -0.2830 -0.6657  0.0559
  255MOL0     C34294   5.565  10.420  11.283 -0.1992 -0.0301  0.1867
  255MOL0     C34295   5.673  10.401  11.199 -0.0749 -0.0978  0.6726
  255MOL0     C34296   5.786  10.476  11.226 -0.0707 -0.6507 -0.0022
  255MOL0     C34297   5.805  10.541  11.355  0.6543  0.2348  0.7924
  255MOL0     O34298   5.919  10.616  11.389 -0.0083 -0.0803  0.2981
  255MOL0     C34299   6.040  10.606  11.298 -0.2818 -0.1041  0.5714
  255MOL0     C34300   6.144  10.703  11.364  1.4903  0.1844 -0.9771
  255MOL0     C34301   6.279  10.680  11.298  0.4250 -0.3198  0.1103
  255MOL0     C34302   6.399  10.755  11.366 -0.9994  0.0932  0.2422
  255MOL0     C34303   6.500  10.776  11.253  0.5677 -0.0423 -0.9318
  255MOL0     C34304   6.614  10.872  11.307  0.6691  0.6576 -0.1842
  255MOL0     C34305   6.714  10.913  11.202 -0.3827  0.3111 -0.2277
  255MOL0     C34306   6.844  10.962  11.252 -0.2126  0.4177  0.0396
  255MOL0     N34307   6.929  11.035  11.168  0.3199  1.6144  0.1906
  255MOL0     C34308   7.030  11.114  11.211  0.7412  0.6677 -0.3530
  255MOL0     C34309   7.081  11.181  11.108 -0.2962 -0.3994 -0.0729
  255MOL0     C34310   7.198  11.273  11.104  0.6510  0.0912 -0.2266
  255MOL0     C34311   7.315  11.223  11.194 -0.3430 -0.0949 -0.3256
  255MOL0     C34312   7.449  11.247  11.128 -0.0737 -0.5467 -0.8501
  255MOL0     C34313   7.557  11.181  11.213  0.5762 -0.5398 -0.6310
  255MOL0     O34314   7.582  11.242  11.345 -0.4689  0.0346 -0.2498
  255MOL0     C34315   7.705  11.209  11.395  0.0582 -0.0795  0.2973
  255MOL0     C34316   7.709  11.097  11.468 -0.2291 -0.0917  0.0700
  255MOL0     C34317   7.823  11.050  11.528 -0.2066 -0.5081 -1.3941
  255MOL0     C34318   7.801  10.931  11.622 -0.1645  0.5631  0.3948
  255MOL0     C34319   7.942  11.130  11.517 -1.2433  0.3245 -0.2913
  255MOL0     C34320   8.076  11.081  11.560 -0.2494  0.5746 -0.0721
  255MOL0     O34321   8.082  10.982  11.659 -0.1148 -0.5989 -0.0796
  255MOL0     C34322   8.194  10.965  11.739 -0.9870 -0.6975 -0.8318
  255MOL0     C34323   8.308  11.045  11.757 -0.4337  0.8624 -0.3767
  255MOL0     C34324   8.433  11.000  11.807  1.1649  0.2419 -0.3684
  255MOL0     C34325   8.436  10.871  11.865  0.3268  0.4867  0.1134
  255MOL0     O34326   8.556  10.823  11.911  0.8176 -0.2009 -0.5552
  255MOL0     C34327   8.569  10.701  11.978  0.6213  0.9850  0.1248
  255MOL0     C34328   8.706  10.708  12.059  0.5287 -0.6100 -0.9418
  255MOL0     C34329   8.717  10.593  12.161  0.0126  0.0829  0.1970
  255MOL0     C34330   8.750  10.457  12.098 -0.7422 -0.0326 -0.3663
  255MOL0     C34331   8.766  10.346  12.207  0.0244 -0.0836  0.0042
  255MOL0     C34332   8.783  10.214  12.150 -0.2172 -0.4261  1.0614
  255MOL0     C34333   8.797  10.100  12.243 -0.7199 -1.2004  0.6805
  255MOL0     C34334   8.764   9.964  12.180  0.0356  0.3066  0.1203
  255MOL0    Cl34335   8.846   9.913  12.026 -0.3133 -0.1689 -0.1322
  255MOL0     C34336   8.323  10.797  11.861 -0.6992 -0.6861 -0.8712
  255MOL0     C34337   8.206  10.843  11.799 -0.3177  0.2337 -0.1257
  255MOL0     O34338   8.167  11.147  11.515  0.1594  0.6042  0.2650
  255MOL0     C34339   7.938  11.248  11.434 -0.8183  0.4660  0.0634
  255MOL0     C34340   7.819  11.277  11.375  0.6792  0.0346 -0.1532
  255MOL0     N34341   7.008  11.137  10.997 -0.5649 -0.0158  0.5835
  255MOL0     N34342   6.920  11.049  11.033  0.1354 -0.8112 -0.0898
  255MOL0     C34343   5.696  10.540  11.442 -0.2298 -0.7166 -0.7801
  255MOL0     C34344   5.574  10.490  11.401  0.5279  1.0052 -0.1628
  255MOL0     C34345   5.256  10.355  11.069 -0.3366 -0.5378 -0.1993
  255MOL0     C34346   5.167  10.307  11.165 -0.9257 -0.1242  0.1227
  255MOL0     C34347   5.027  10.299  11.142 -0.0793  1.2373  0.5736
  255MOL0     C34348   4.982  10.336  11.017 -0.5624 -0.7682  0.6140
  255MOL0     O34349   4.851  10.336  11.014  0.9254  0.4909  0.7704
  255MOL0     C34350   4.783  10.409  10.915  0.2248  0.1927  0.0765
  255MOL0     C34351   4.647  10.448  10.965  1.2036  1.0163  0.5982
  255MOL0     C34352   4.565  10.323  10.997 -0.5601 -1.5164  0.1752
  255MOL0     C34353   4.419  10.369  11.011 -0.5366 -1.1314 -0.0836
  255MOL0     C34354   4.359  10.387  10.880  0.3433 -0.1657  0.4609
  255MOL0     C34355   4.301  10.395  10.773  0.1000 -0.1757  0.0013
  255MOL0     C34356   5.071  10.377  10.919 -0.2695  0.4071 -0.1223
  255MOL0     C34357   5.211  10.390  10.939 -0.0916 -0.1396 -0.4982
  255MOL0     H34358   5.677  10.336  11.112 -1.1041 -0.1358  0.6416
  255MOL0     H34359   5.862  10.473  11.148 -0.6200  1.5379 -0.7207
  255MOL0     H34360   6.075  10.503  11.307 -1.1192 -0.5227 -0.7236
  255MOL0     H34361   6.012  10.633  11.196 -0.8294  0.1970  0.7958
  255MOL0     H34362   6.111  10.807  11.368 -1.0429 -0.5924 -0.3537
  255MOL0     H34363   6.159  10.679  11.469  0.1294 -1.5684 -1.1447
  255MOL0     H34364   6.312  10.576  11.305  2.8017  0.1771 -2.1076
  255MOL0     H34365   6.270  10.697  11.191 -1.4415  0.4535  0.3558
  255MOL0     H34366   6.366  10.854  11.398  1.8560  2.0731 -2.3806
  255MOL0     H34367   6.447  10.701  11.448  0.0688  2.8073  1.5112
  255MOL0     H34368   6.537  10.680  11.214 -1.6599 -2.0833  1.5980
  255MOL0     H34369   6.446  10.824  11.171 -0.5527 -0.2717 -0.3524
  255MOL0     H34370   6.572  10.965  11.346  2.1676  1.5739 -0.6781
  255MOL0     H34371   6.668  10.812  11.381  0.3434  0.8799  0.2350
  255MOL0     H34372   6.728  10.836  11.126 -0.0869 -0.9539  1.0709
  255MOL0     H34373   6.666  10.996  11.149 -1.1109  1.7497  2.5139
  255MOL0     H34374   6.891  10.883  11.311 -1.9269  1.3484  2.9111
  255MOL0     H34375   6.820  11.035  11.331 -2.4877 -0.9106  0.6902
  255MOL0     H34376   7.054  11.124  11.317 -3.2822 -1.1552  0.9356
  255MOL0     H34377   7.233  11.292  11.003  2.7909  3.1955  0.9316
  255MOL0     H34378   7.163  11.362  11.157 -0.3277 -0.5915  0.2993
  255MOL0     H34379   7.306  11.116  11.217 -0.3572 -0.3578 -1.4753
  255MOL0     H34380   7.296  11.266  11.293 -2.4927 -1.1620 -0.2275
  255MOL0     H34381   7.476  11.352  11.117  1.6594 -1.0586 -1.9659
  255MOL0     H34382   7.451  11.198  11.030 -0.9036  2.8162 -2.6784
  255MOL0     H34383   7.646  11.185  11.149 -1.0156  1.1415 -2.9039
  255MOL0     H34384   7.546  11.073  11.220  0.3244 -0.4050  2.6946
  255MOL0     H34385   7.615  11.051  11.496 -0.3522  1.4233  2.4293
  255MOL0     H34386   7.709  10.877  11.596  0.7613  0.7219 -4.0775
  255MOL0     H34387   7.886  10.863  11.609 -1.5719 -1.7485  2.4093
  255MOL0     H34388   7.786  10.966  11.724  0.0173 -1.9621  1.3744
  255MOL0     H34389   8.308  11.147  11.721 -1.0904  1.7612  1.9776
  255MOL0     H34390   8.512  11.070  11.781  1.2543 -0.3994 -1.9282
  255MOL0     H34391   8.490  10.694  12.054 -1.6343  1.4974 -2.0544
  255MOL0     H34392   8.560  10.629  11.896 -1.7347  2.8682 -1.4252
  255MOL0     H34393   8.789  10.710  11.987  3.6970  2.5253  2.3840
  255MOL0     H34394   8.712  10.800  12.117  2.5385 -1.8650  1.0077
  255MOL0     H34395   8.621  10.597  12.215  0.9526 -2.2934  2.2782
  255MOL0     H34396   8.794  10.611  12.237 -4.6174 -0.0176  5.6393
  255MOL0     H34397   8.667  10.424  12.034 -0.8071 -0.7569  0.0736
  255MOL0     H34398   8.841  10.470  12.040 -2.1323  2.0428 -2.2222
  255MOL0     H34399   8.681  10.349  12.275 -1.3319 -2.5938 -1.4066
  255MOL0     H34400   8.859  10.365  12.261  0.9464  1.1098 -1.8762
  255MOL0     H34401   8.708  10.194  12.073  3.2982 -3.6689 -1.9199
  255MOL0     H34402   8.879  10.232  12.101 -1.4224  3.4666 -0.2543
  255MOL0     H34403   8.739  10.126  12.332  0.2144 -0.7696  1.1693
  255MOL0     H34404   8.901  10.102  12.275 -0.1260 -0.5384 -1.1872
  255MOL0     H34405   8.659   9.979  12.156 -0.5711  2.5410  3.4517
  255MOL0     H34406   8.780   9.881  12.249  2.9560  0.6709  0.0025
  255MOL0     H34407   8.319  10.696  11.902 -0.4902  0.2330  1.6090
  255MOL0     H34408   8.126  10.772  11.781 -1.5210  1.0408  1.7328
  255MOL0     H34409   8.023  11.314  11.422 -1.0060  2.0554  4.9344
  255MOL0     H34410   7.820  11.364  11.311 -1.0396 -0.7228 -1.2608
  255MOL0     H34411   5.695  10.610  11.525 -2.5195  1.0061 -2.1387
  255MOL0     H34412   5.483  10.502  11.459  1.8005  1.2235  1.8884
  255MOL0     H34413   5.209  10.273  11.259  0.2886  1.2976  0.1284
  255MOL0     H34414   4.954  10.246  11.202  1.7509 -0.2039  1.6133
  255MOL0     H34415   4.834  10.502  10.889  1.9257 -1.5042 -3.2313
  255MOL0     H34416   4.788  10.355  10.820  0.6577 -1.0667  0.8048
  255MOL0     H34417   4.594  10.508  10.890  1.6505  0.4409 -0.1881
  255MOL0     H34418   4.631  10.504  11.057 -1.3249 -0.0119  0.8863
  255MOL0     H34419   4.588  10.283  11.096  2.4786  0.5330  0.4154
  255MOL0     H34420   4.584  10.245  10.922  0.0348 -0.3458 -0.9234
  255MOL0     H34421   4.406  10.463  11.065 -0.3076  0.2140 -2.2545
  255MOL0     H34422   4.375  10.287  11.069 -0.9870  0.4490  1.8970
  255MOL0     H34423   4.245  10.404  10.681  0.7240 -1.2088 -0.5007
  255MOL0     H34424   5.036  10.393  10.817  1.3288  2.3631 -0.4110
  255MOL0     H34425   5.281  10.435  10.870  2.9163  0.0668  2.4618
  256MOL0     O34426   2.269  10.469   7.134  0.3140  0.8925 -0.1549
  256MOL0     C34427   2.215  10.410   7.046 -0.1815  0.1529  0.9559
  256MOL0     O34428   2.083  10.364   7.040 -0.8336  0.0365  0.4523
  256MOL0     C34429   1.999  10.403   7.135 -0.2130 -0.3409 -0.8400
  256MOL0     C34430   2.011  10.343   7.260  0.3835 -0.2105  0.0237
  256MOL0     C34431   1.925  10.391   7.363  0.0785  0.8990  0.2199
  256MOL0     C34432   1.825  10.490   7.338  0.3117 -0.9563  0.1910
  256MOL0     O34433   1.753  10.544   7.447  0.5093  0.1502  0.1694
  256MOL0     C34434   1.656  10.444   7.511 -0.6050  0.5912  0.0474
  256MOL0     C34435   1.546  10.514   7.581 -0.1850  0.7031  0.5742
  256MOL0     C34436   1.599  10.645   7.642  0.8663 -0.5056 -0.3099
  256MOL0     C34437   1.496  10.708   7.739 -0.1343  0.3101  0.1135
  256MOL0     C34438   1.566  10.809   7.836  0.4654  0.3997 -0.0397
  256MOL0     C34439   1.623  10.944   7.777  0.7487 -0.5508 -0.3125
  256MOL0     C34440   1.632  11.054   7.883  0.5675 -0.0804  0.4464
  256MOL0     C34441   1.743  11.026   7.982 -0.1649  0.4839 -1.4516
  256MOL0     N34442   1.779  11.144   8.071 -0.3378 -0.0831 -0.0058
  256MOL0     C34443   1.713  11.189   8.184  0.0395  0.6719  0.7640
  256MOL0     C34444   1.781  11.303   8.223 -0.2398  0.0355  0.7093
  256MOL0     C34445   1.742  11.383   8.337  0.1854 -0.1600  0.1508
  256MOL0     C34446   1.687  11.522   8.303  0.6173  0.3764 -0.7498
  256MOL0     C34447   1.532  11.531   8.317  0.1437 -0.3919  0.7227
  256MOL0     C34448   1.504  11.547   8.467  0.5343  0.3972  0.3865
  256MOL0     O34449   1.390  11.464   8.495  0.2272 -0.1506  0.7563
  256MOL0     C34450   1.258  11.491   8.479 -0.7629 -0.7227  0.6154
  256MOL0     C34451   1.158  11.409   8.539 -0.5680 -0.2060  1.2227
  256MOL0     C34452   1.021  11.439   8.549  0.6737  0.5638 -0.8224
  256MOL0     C34453   0.932  11.343   8.620 -0.5312  0.9193  0.0754
  256MOL0     C34454   0.974  11.553   8.489 -0.8241  0.5877 -0.7108
  256MOL0     C34455   0.841  11.623   8.506  0.0538 -0.5706  0.8400
  256MOL0     O34456   0.745  11.571   8.583  0.1444 -0.5809 -0.6405
  256MOL0     C34457   0.622  11.629   8.572  0.4026 -0.0689  1.2955
  256MOL0     C34458   0.538  11.601   8.462  0.3027  0.0840  0.0158
  256MOL0     C34459   0.413  11.658   8.442  0.2982 -0.6450  0.1071
  256MOL0     C34460   0.356  11.748   8.540 -0.2532 -0.1330 -0.6104
  256MOL0     O34461   0.222  11.804   8.545  0.3858 -0.2134 -0.4522
  256MOL0     C34462   0.134  11.762   8.439 -0.8180  0.0002  0.6303
  256MOL0     C34463   0.011  11.856   8.443  0.3084  0.5268 -0.3803
  256MOL0     C34464  -0.116  11.791   8.384  0.0607  0.4003 -0.3180
  256MOL0     C34465  -0.230  11.881   8.365 -0.1944 -0.1725 -0.1703
  256MOL0     C34466  -0.331  11.820   8.276  0.2887 -0.1406  0.2297
  256MOL0     C34467  -0.462  11.910   8.291 -0.3110 -0.5333  0.0206
  256MOL0     C34468  -0.542  11.903   8.165 -0.4345  1.2871 -0.2420
  256MOL0     C34469  -0.672  11.991   8.174 -0.3580 -0.5589 -0.6148
  256MOL0    Cl34470  -0.632  12.162   8.209  0.1878  0.2386 -0.1125
  256MOL0     C34471   0.444  11.786   8.640  0.1499 -0.3153 -0.0902
  256MOL0     C34472   0.574  11.724   8.657 -0.1159 -0.4280  0.8267
  256MOL0     O34473   0.828  11.731   8.442 -0.3297  0.5590  1.0430
  256MOL0     C34474   1.078  11.628   8.414  0.7806  0.7975 -0.3933
  256MOL0     C34475   1.218  11.597   8.416  0.3567 -0.0897  0.1477
  256MOL0     N34476   1.890  11.314   8.140  0.1638 -0.2730  0.0947
  256MOL0     N34477   1.890  11.221   8.054  0.1600  0.1921 -0.4443
  256MOL0     C34478   1.814  10.553   7.208  0.1660 -1.4985  0.9457
  256MOL0     C34479   1.906  10.515   7.114  0.4058 -0.0527 -0.5000
  256MOL0     C34480   2.292  10.394   6.922 -1.4901  0.2572  0.1687
  256MOL0     C34481   2.410  10.465   6.894 -1.1285  0.1988  0.3770
  256MOL0     C34482   2.475  10.445   6.767 -0.1421  1.2611  0.5724
  256MOL0     C34483   2.428  10.348   6.680 -0.1282  0.1919  0.8519
  256MOL0     O34484   2.476  10.332   6.550  0.3365  0.6387 -0.0234
  256MOL0     C34485   2.541  10.445   6.488 -0.0839  0.1169 -0.7384
  256MOL0     C34486   2.433  10.515   6.407  0.3192  0.0837  0.0546
  256MOL0     C34487   2.494  10.635   6.329  0.3890 -0.6802 -0.0341
  256MOL0     C34488   2.412  10.656   6.200 -0.2853 -0.0277 -0.1335
  256MOL0     C34489   2.410  10.556   6.095 -1.3151  0.5059 -0.0380
  256MOL0     C34490   2.413  10.471   6.009  0.6118  0.3449 -0.7320
  256MOL0     C34491   2.328  10.271   6.716 -0.6679 -0.4680 -0.1993
  256MOL0     C34492   2.251  10.293   6.829 -0.2389  0.3268  0.0349
  256MOL0     H34493   2.088  10.266   7.258 -1.7138 -2.5416 -2.8547
  256MOL0     H34494   1.948  10.352   7.461 -0.6328  0.5757  0.2693
  256MOL0     H34495   1.602  10.374   7.447  1.2871  0.2810 -1.2875
  256MOL0     H34496   1.716  10.386   7.581  0.3810  1.0841 -0.3772
  256MOL0     H34497   1.464  10.535   7.511  2.4633  1.1406 -2.6284
  256MOL0     H34498   1.503  10.448   7.658  1.8103 -3.2731 -1.4038
  256MOL0     H34499   1.699  10.629   7.685  0.5730 -2.2998 -0.2100
  256MOL0     H34500   1.613  10.709   7.554 -1.3427 -0.4744 -0.6797
  256MOL0     H34501   1.404  10.747   7.694  0.1735  1.8215  0.7561
  256MOL0     H34502   1.463  10.627   7.805 -0.1561  0.5036  0.3434
  256MOL0     H34503   1.500  10.828   7.921  3.2902  0.5385  2.2751
  256MOL0     H34504   1.651  10.755   7.879 -0.3547  1.3815  3.0596
  256MOL0     H34505   1.725  10.919   7.745  1.3205 -1.8084  2.2141
  256MOL0     H34506   1.562  10.982   7.694 -0.7798  4.1211  2.5728
  256MOL0     H34507   1.645  11.146   7.825 -2.3613  0.8018  1.0225
  256MOL0     H34508   1.537  11.073   7.934  2.4248  1.6543  3.6346
  256MOL0     H34509   1.829  10.992   7.923  0.2051  1.5833 -1.5734
  256MOL0     H34510   1.712  10.946   8.049 -0.7909  3.5519  2.2143
  256MOL0     H34511   1.621  11.147   8.226 -0.5538  1.4109  0.2319
  256MOL0     H34512   1.668  11.334   8.400 -3.0015  4.0477  0.1397
  256MOL0     H34513   1.834  11.390   8.396 -1.6592  0.2835  3.2209
  256MOL0     H34514   1.714  11.559   8.203  1.7233 -1.2102 -1.0781
  256MOL0     H34515   1.737  11.591   8.371  0.3100  2.0349 -2.1155
  256MOL0     H34516   1.489  11.437   8.281  0.6287 -0.8800  1.3829
  256MOL0     H34517   1.487  11.622   8.276  1.1269  0.4693  1.4814
  256MOL0     H34518   1.477  11.649   8.498 -2.5556  0.3346 -1.6184
  256MOL0     H34519   1.589  11.510   8.525 -0.0476 -0.6586  0.5837
  256MOL0     H34520   1.197  11.328   8.600 -2.4105  1.0719  4.3098
  256MOL0     H34521   0.927  11.380   8.722  2.6124  4.2038 -0.7433
  256MOL0     H34522   0.829  11.347   8.583  0.3768 -0.0797 -2.8714
  256MOL0     H34523   0.970  11.240   8.613 -2.0892  0.4053 -2.2004
  256MOL0     H34524   0.568  11.520   8.396 -2.2491  1.0455 -2.4906
  256MOL0     H34525   0.343  11.641   8.361 -0.6664  2.0729  0.2519
  256MOL0     H34526   0.177  11.743   8.340  1.2802 -2.0084  1.8419
  256MOL0     H34527   0.106  11.662   8.474 -0.4542  0.6006  2.7656
  256MOL0     H34528  -0.016  11.886   8.545  0.6681  1.7821 -0.6336
  256MOL0     H34529   0.042  11.946   8.389 -1.9665  1.2665 -0.5426
  256MOL0     H34530  -0.155  11.706   8.441 -0.3594  2.9164  3.5352
  256MOL0     H34531  -0.088  11.755   8.285  0.5307 -1.8706  0.5871
  256MOL0     H34532  -0.271  11.908   8.464 -3.7870 -3.1215 -0.6181
  256MOL0     H34533  -0.193  11.974   8.322  0.0047  0.9350  2.2417
  256MOL0     H34534  -0.351  11.715   8.300 -2.8697  0.7991  2.4689
  256MOL0     H34535  -0.293  11.819   8.174  0.7648  0.7315  0.3868
  256MOL0     H34536  -0.522  11.877   8.376 -0.5915 -0.8347 -0.2935
  256MOL0     H34537  -0.430  12.014   8.302 -0.0430 -0.5128 -0.8753
  256MOL0     H34538  -0.564  11.796   8.154  1.1138  0.9428 -0.0827
  256MOL0     H34539  -0.474  11.938   8.087 -1.0820 -2.8046 -2.9868
  256MOL0     H34540  -0.748  11.956   8.244  0.4554  2.0341  1.7116
  256MOL0     H34541  -0.728  11.992   8.079  1.3419 -0.5759 -1.6682
  256MOL0     H34542   0.416  11.862   8.712 -0.4286  0.2905 -0.9339
  256MOL0     H34543   0.643  11.764   8.731  2.0059 -0.3988 -1.0606
  256MOL0     H34544   1.053  11.718   8.359  2.2645  3.6830  3.2322
  256MOL0     H34545   1.272  11.672   8.360  4.1382 -1.8071  1.2143
  256MOL0     H34546   1.741  10.624   7.172 -1.3421 -3.4108  0.0896
  256MOL0     H34547   1.909  10.548   7.011  2.2618 -0.4578 -0.6162
  256MOL0     H34548   2.446  10.544   6.959 -0.5436 -0.2917  0.6670
  256MOL0     H34549   2.563  10.504   6.745  1.8313 -1.3283  1.0602
  256MOL0     H34550   2.597  10.515   6.550 -0.5613 -0.1106 -0.0311
  256MOL0     H34551   2.610  10.402   6.415  0.1916  1.6416 -1.4088
  256MOL0     H34552   2.355  10.544   6.479 -0.9434 -2.4455 -0.1776
  256MOL0     H34553   2.387  10.448   6.334 -0.0805  0.3605  0.0451
  256MOL0     H34554   2.600  10.631   6.303  0.3792  2.3087 -0.8927
  256MOL0     H34555   2.488  10.728   6.386  0.3430 -0.5320 -0.2813
  256MOL0     H34556   2.441  10.752   6.157 -1.7183  1.5173  2.1027
  256MOL0     H34557   2.310  10.680   6.230 -0.8437 -1.5172 -0.7188
  256MOL0     H34558   2.404  10.405   5.925 -1.0008 -0.7112  0.2294
  256MOL0     H34559   2.277  10.209   6.643 -0.9633 -1.0104  0.4479
  256MOL0     H34560   2.166  10.227   6.844  2.2931 -3.1183  0.5179
  257MOL0     O34561   8.310   5.098   8.828  0.4362 -0.1090 -0.1360
  257MOL0     C34562   8.275   5.052   8.721  0.6865  0.1112  0.0984
  257MOL0     O34563   8.217   5.121   8.612  0.4919  0.6657  0.3706
  257MOL0     C34564   8.257   5.250   8.606 -0.3629 -1.5149 -0.6335
  257MOL0     C34565   8.203   5.357   8.675  0.6584 -0.0563 -0.1766
  257MOL0     C34566   8.263   5.482   8.665  0.8585  0.2320  0.3670
  257MOL0     C34567   8.364   5.507   8.563  0.3056  0.3002 -0.7696
  257MOL0     O34568   8.409   5.637   8.562 -0.3503 -0.1724  0.4964
  257MOL0     C34569   8.515   5.658   8.465  0.9841 -0.4948 -0.7377
  257MOL0     C34570   8.512   5.816   8.448 -0.3700  0.4392  0.1686
  257MOL0     C34571   8.398   5.867   8.378  0.6412 -0.0862 -0.3232
  257MOL0     C34572   8.384   5.807   8.235 -0.4390 -1.9644  0.6482
  257MOL0     C34573   8.302   5.902   8.153  0.3980 -0.1811 -0.6015
  257MOL0     C34574   8.391   6.012   8.096 -0.1464  0.2646  0.8822
  257MOL0     C34575   8.318   6.120   8.014  0.6945 -0.6604  0.2428
  257MOL0     C34576   8.253   6.224   8.104  0.0785 -0.4354 -0.8291
  257MOL0     N34577   8.208   6.344   8.039 -0.4492 -0.0087  0.4196
  257MOL0     C34578   8.204   6.478   8.073 -0.5698 -0.2871 -0.0205
  257MOL0     C34579   8.117   6.549   7.990  0.2142 -0.3332 -0.3026
  257MOL0     C34580   8.112   6.701   7.978  1.2599  0.4667  0.2008
  257MOL0     C34581   7.982   6.754   8.042 -0.3237 -0.7661 -0.2903
  257MOL0     C34582   7.863   6.714   7.967  0.1202  0.4538  0.4373
  257MOL0     C34583   7.741   6.809   7.994 -0.1496  0.3437 -0.5072
  257MOL0     O34584   7.740   6.932   7.928  0.2945 -0.5405  0.8715
  257MOL0     C34585   7.614   6.983   7.918  0.1562 -0.1501 -0.0725
  257MOL0     C34586   7.572   7.077   8.013 -0.9444  0.0955  0.1077
  257MOL0     C34587   7.448   7.139   8.007  0.2370  0.5505  0.3261
  257MOL0     C34588   7.403   7.223   8.125  0.8744 -0.5175  0.6051
  257MOL0     C34589   7.361   7.097   7.905  0.0799  0.5335  0.4989
  257MOL0     C34590   7.214   7.142   7.898 -0.7045 -1.0647  0.5914
  257MOL0     O34591   7.128   7.064   7.813 -0.8141 -0.1656 -0.5344
  257MOL0     C34592   7.004   7.115   7.778 -0.3320 -0.6651 -0.3682
  257MOL0     C34593   6.977   7.094   7.642  0.8708  0.3714  0.4891
  257MOL0     C34594   6.868   7.150   7.578  0.3512  0.1075 -0.3824
  257MOL0     C34595   6.784   7.231   7.655 -0.0752  0.1160  0.1853
  257MOL0     O34596   6.683   7.290   7.586  0.1814  0.2042  0.6151
  257MOL0     C34597   6.580   7.355   7.666  1.1750  0.5630 -0.0566
  257MOL0     C34598   6.459   7.390   7.578  0.5262  0.7967  0.2936
  257MOL0     C34599   6.345   7.474   7.654  0.5631  0.0360 -0.2989
  257MOL0     C34600   6.208   7.493   7.585  0.1647  0.1434  0.5617
  257MOL0     C34601   6.106   7.569   7.678  0.9488  0.1927 -0.6355
  257MOL0     C34602   5.982   7.600   7.596  0.1827  0.0802 -0.7486
  257MOL0     C34603   5.866   7.499   7.604 -0.7055  0.5723  0.1400
  257MOL0     C34604   5.873   7.381   7.509 -0.4249 -0.3032  0.0094
  257MOL0    Cl34605   5.945   7.418   7.355  0.0535  0.3565 -0.0186
  257MOL0     C34606   6.800   7.242   7.794  0.4003 -0.1372 -0.1046
  257MOL0     C34607   6.910   7.179   7.860 -0.1043  0.1942 -0.0731
  257MOL0     O34608   7.181   7.247   7.950 -0.4552  0.0523 -0.6622
  257MOL0     C34609   7.400   7.003   7.805  0.0319 -0.8211 -0.1144
  257MOL0     C34610   7.529   6.950   7.810 -0.3353 -0.0912  0.3427
  257MOL0     N34611   8.069   6.454   7.907 -0.3777 -0.1039  0.4523
  257MOL0     N34612   8.113   6.340   7.940 -0.2752  0.3743 -0.5083
  257MOL0     C34613   8.417   5.395   8.500 -0.6347  1.0730 -0.5011
  257MOL0     C34614   8.366   5.268   8.520  0.6875 -0.2749 -0.2502
  257MOL0     C34615   8.277   4.901   8.710  0.9452  0.6881 -1.1917
  257MOL0     C34616   8.277   4.834   8.592 -0.1013  0.2527  0.3420
  257MOL0     C34617   8.293   4.690   8.596  0.4198 -0.5831  0.9798
  257MOL0     C34618   8.290   4.619   8.708  0.2253 -1.5012  0.1071
  257MOL0     O34619   8.298   4.485   8.716  0.0062  0.0818 -0.0768
  257MOL0     C34620   8.279   4.402   8.606  0.3377 -0.6723  0.4264
  257MOL0     C34621   8.262   4.256   8.645 -0.7902  0.5871  0.0732
  257MOL0     C34622   8.335   4.216   8.773 -1.1395  0.7599 -0.6350
  257MOL0     C34623   8.315   4.065   8.795 -0.7493  0.8636  0.5923
  257MOL0     C34624   8.387   4.026   8.918  0.2554 -0.3914 -0.5369
  257MOL0     C34625   8.449   3.988   9.015  0.1530  0.2767 -0.0602
  257MOL0     C34626   8.294   4.687   8.832  0.0726 -0.3716  0.3010
  257MOL0     C34627   8.292   4.826   8.835 -0.3721 -1.2396  0.0710
  257MOL0     H34628   8.129   5.333   8.750 -0.3983  1.5120 -0.6620
  257MOL0     H34629   8.221   5.574   8.704  0.6177 -0.0301  0.7318
  257MOL0     H34630   8.609   5.613   8.498  0.9879 -0.6554 -0.9669
  257MOL0     H34631   8.491   5.606   8.372 -1.1462  0.7361 -0.9479
  257MOL0     H34632   8.513   5.863   8.547  1.4114 -0.5692  0.6807
  257MOL0     H34633   8.594   5.846   8.382 -1.5463 -2.7944 -3.1560
  257MOL0     H34634   8.313   5.828   8.435  2.2263 -0.5059  1.8605
  257MOL0     H34635   8.392   5.976   8.392 -1.3934 -0.2394  0.3675
  257MOL0     H34636   8.487   5.807   8.199 -0.5623  3.0717 -0.4236
  257MOL0     H34637   8.337   5.708   8.233 -0.5539 -1.9737 -2.9015
  257MOL0     H34638   8.249   5.844   8.078 -2.9310 -0.3343  1.6820
  257MOL0     H34639   8.223   5.944   8.215 -1.0379 -0.8437 -1.9321
  257MOL0     H34640   8.444   6.068   8.175 -1.0860  1.4341  0.7091
  257MOL0     H34641   8.464   5.969   8.027 -0.6244 -1.5364  1.4501
  257MOL0     H34642   8.385   6.186   7.957  2.1804  1.4466  4.0773
  257MOL0     H34643   8.241   6.073   7.952 -0.0142  0.6462  0.0917
  257MOL0     H34644   8.312   6.242   8.194 -0.4866 -1.7122 -0.1935
  257MOL0     H34645   8.155   6.187   8.136  0.0722  0.6088  0.4201
  257MOL0     H34646   8.270   6.523   8.147 -0.8862 -0.6056  0.4527
  257MOL0     H34647   8.191   6.754   8.032  1.0221 -0.4240  1.4856
  257MOL0     H34648   8.128   6.720   7.872 -0.1831  0.5284 -0.0224
  257MOL0     H34649   7.985   6.862   8.056  0.5184 -0.7524 -0.5185
  257MOL0     H34650   7.971   6.711   8.143  0.5385 -1.9975 -0.6944
  257MOL0     H34651   7.852   6.606   7.984 -0.6315  0.4001 -0.3412
  257MOL0     H34652   7.875   6.714   7.858  0.9680  3.1025  0.4758
  257MOL0     H34653   7.736   6.828   8.102 -2.3834  0.2109 -0.5428
  257MOL0     H34654   7.648   6.759   7.965  0.5214 -0.9038 -0.5805
  257MOL0     H34655   7.645   7.088   8.092  1.7859  0.0182 -2.2736
  257MOL0     H34656   7.295   7.221   8.142  0.7813  2.1830  0.6861
  257MOL0     H34657   7.450   7.198   8.221  2.5432  4.3430  1.3398
  257MOL0     H34658   7.421   7.327   8.098 -1.7038  0.0888  0.9335
  257MOL0     H34659   7.042   7.029   7.586 -1.1563 -0.1397 -1.4128
  257MOL0     H34660   6.850   7.129   7.473  0.1846 -1.9467  0.0151
  257MOL0     H34661   6.534   7.294   7.744  0.4239 -0.0819 -0.9776
  257MOL0     H34662   6.623   7.445   7.711 -0.3502  2.7410 -2.6448
  257MOL0     H34663   6.493   7.446   7.489  3.1278 -0.5782  0.3417
  257MOL0     H34664   6.410   7.300   7.540  3.0010 -1.2051  1.5792
  257MOL0     H34665   6.387   7.570   7.683  0.3863 -0.1339  0.5396
  257MOL0     H34666   6.322   7.419   7.746  0.0400  2.9830  1.4411
  257MOL0     H34667   6.218   7.540   7.487  0.7919 -0.1118  0.4936
  257MOL0     H34668   6.157   7.399   7.566  0.8387  0.2101 -1.8343
  257MOL0     H34669   6.143   7.658   7.729 -1.2812  0.6276  0.3242
  257MOL0     H34670   6.078   7.509   7.765  0.5920  1.2973  0.0310
  257MOL0     H34671   5.940   7.697   7.625 -0.3489 -1.0605  2.7733
  257MOL0     H34672   6.020   7.620   7.496 -0.5511  0.2422 -1.0012
  257MOL0     H34673   5.774   7.552   7.580 -1.7523 -1.0931  0.2980
  257MOL0     H34674   5.852   7.456   7.704  1.4116 -2.5996 -0.7845
  257MOL0     H34675   5.768   7.357   7.490 -2.0654  5.5015 -0.4449
  257MOL0     H34676   5.929   7.297   7.552  1.8169  1.4875  0.8677
  257MOL0     H34677   6.739   7.303   7.859  0.1171 -2.1435  1.6583
  257MOL0     H34678   6.926   7.204   7.964  1.8818  3.7253 -1.0506
  257MOL0     H34679   7.336   6.976   7.722 -0.8007  0.8608 -0.0641
  257MOL0     H34680   7.567   6.898   7.722  4.7751 -0.1416  2.2278
  257MOL0     H34681   8.495   5.400   8.424 -0.2479  1.8319 -0.0587
  257MOL0     H34682   8.393   5.183   8.458  0.1417  0.6539 -1.7989
  257MOL0     H34683   8.273   4.896   8.503  0.1994 -0.7811 -0.4095
  257MOL0     H34684   8.297   4.624   8.510 -1.3053  0.3360  0.1329
  257MOL0     H34685   8.196   4.431   8.540  0.6643  1.4288  0.8661
  257MOL0     H34686   8.369   4.411   8.544 -0.5166 -4.2853 -1.6330
  257MOL0     H34687   8.292   4.189   8.563  2.3434 -1.0009  2.3091
  257MOL0     H34688   8.155   4.238   8.659 -0.2979 -1.6876  1.3959
  257MOL0     H34689   8.299   4.271   8.861  0.8760  1.7602 -0.3713
  257MOL0     H34690   8.439   4.250   8.776 -2.5431  6.0647  2.0127
  257MOL0     H34691   8.344   4.012   8.704  0.4740  1.2760  0.7188
  257MOL0     H34692   8.207   4.053   8.809 -0.7065  0.2798  0.4441
  257MOL0     H34693   8.501   3.961   9.105  0.0896 -1.0753 -0.4077
  257MOL0     H34694   8.284   4.628   8.923 -2.3160  1.4782  1.3618
  257MOL0     H34695   8.297   4.880   8.929  1.3356 -0.0744 -0.6362
  258MOL0     O34696   4.811   7.821   6.306 -0.1045  0.4573 -0.3274
  258MOL0     C34697   4.758   7.895   6.386 -0.3654  0.3839  0.0099
  258MOL0     O34698   4.643   7.965   6.367  0.0006  0.0261 -0.5097
  258MOL0     C34699   4.557   7.939   6.270  1.2079 -0.3460  0.3930
  258MOL0     C34700   4.491   8.049   6.211  0.6743  0.6441  0.0238
  258MOL0     C34701   4.380   8.024   6.119 -0.3000  0.5923  0.1167
  258MOL0     C34702   4.357   7.891   6.069  0.2438  1.2080 -0.8359
  258MOL0     O34703   4.252   7.870   5.983 -0.5091 -0.8118 -0.3429
  258MOL0     C34704   4.144   7.968   5.962  0.8452 -0.0455 -0.4294
  258MOL0     C34705   4.052   7.879   5.880 -0.7432 -0.1235  0.4758
  258MOL0     C34706   3.932   7.955   5.817 -0.4792  0.3370 -0.3841
  258MOL0     C34707   3.838   7.864   5.739  0.3895 -0.0895 -0.4466
  258MOL0     C34708   3.714   7.946   5.705 -0.5229 -0.3396 -0.4322
  258MOL0     C34709   3.599   7.858   5.653  0.8314  0.4769 -1.1548
  258MOL0     C34710   3.490   7.952   5.598  0.5011  0.3033 -0.0014
  258MOL0     C34711   3.413   8.020   5.718  0.7419 -0.6017 -0.1734
  258MOL0     N34712   3.302   8.111   5.670 -0.6781 -0.3400  0.6384
  258MOL0     C34713   3.212   8.170   5.758 -0.1257  0.7947 -0.1889
  258MOL0     C34714   3.123   8.230   5.679 -0.2911 -1.0863  0.1139
  258MOL0     C34715   3.003   8.297   5.722  0.3132 -0.7701 -0.5637
  258MOL0     C34716   3.033   8.447   5.723 -0.1581  0.1783 -0.0829
  258MOL0     C34717   3.146   8.495   5.823 -0.4818  0.8048  1.0157
  258MOL0     C34718   3.137   8.435   5.964  0.2169  0.4626 -0.1122
  258MOL0     O34719   3.228   8.519   6.040 -0.0144  0.1780  0.1435
  258MOL0     C34720   3.284   8.474   6.151 -0.3600  1.1968 -0.4829
  258MOL0     C34721   3.419   8.493   6.186  0.5967 -0.7176  0.2152
  258MOL0     C34722   3.481   8.447   6.304 -0.4573  0.2952 -0.3696
  258MOL0     C34723   3.629   8.484   6.315  0.0722  0.1046 -0.8004
  258MOL0     C34724   3.403   8.356   6.388 -0.0002  0.4102 -0.0027
  258MOL0     C34725   3.436   8.305   6.519 -0.3170 -1.2064 -0.3637
  258MOL0     O34726   3.360   8.209   6.559 -0.0232  0.2723  0.1127
  258MOL0     C34727   3.397   8.129   6.673 -0.1582 -0.3285 -0.8206
  258MOL0     C34728   3.293   8.079   6.760 -0.3286 -0.4396  0.5096
  258MOL0     C34729   3.318   8.024   6.883  0.1307  0.5150 -0.4487
  258MOL0     C34730   3.448   7.982   6.906  0.6529  1.0210  0.9639
  258MOL0     O34731   3.466   7.899   7.014  0.1863  0.0687 -0.3142
  258MOL0     C34732   3.594   7.881   7.067 -1.4144  0.1711  0.0354
  258MOL0     C34733   3.576   7.811   7.207  0.6625 -0.7013 -0.4303
  258MOL0     C34734   3.712   7.749   7.257  0.6703  0.1531 -0.2422
  258MOL0     C34735   3.703   7.729   7.413 -0.1104  0.4124  0.3030
  258MOL0     C34736   3.843   7.710   7.468 -0.2766  0.2455  0.5697
  258MOL0     C34737   3.840   7.665   7.612  1.0079  1.1264  0.1317
  258MOL0     C34738   3.976   7.614   7.668  0.4643 -0.3581 -0.3682
  258MOL0     C34739   3.969   7.526   7.793 -0.4041  0.2559 -0.2235
  258MOL0    Cl34740   3.871   7.621   7.906  0.4963  0.1221  0.3546
  258MOL0     C34741   3.550   8.036   6.825 -0.4093  0.4979  0.7597
  258MOL0     C34742   3.527   8.108   6.708  0.3162  0.4916  0.5138
  258MOL0     O34743   3.528   8.361   6.584 -0.3083 -0.3539  0.8344
  258MOL0     C34744   3.282   8.317   6.334  0.8335  0.0443 -0.3611
  258MOL0     C34745   3.222   8.373   6.222  0.2206 -0.4707 -0.5610
  258MOL0     N34746   3.167   8.211   5.546  0.8549  0.6238  0.4807
  258MOL0     N34747   3.270   8.130   5.541  0.3905  0.3145 -0.5608
  258MOL0     C34748   4.424   7.785   6.121  0.3031 -0.0330 -0.3015
  258MOL0     C34749   4.525   7.809   6.221 -0.7235  1.0474 -0.7894
  258MOL0     C34750   4.822   7.929   6.511 -0.6854 -0.0182  0.0743
  258MOL0     C34751   4.793   8.056   6.565 -0.6869 -0.1400  0.4438
  258MOL0     C34752   4.847   8.103   6.687 -0.1807 -0.0150 -0.4939
  258MOL0     C34753   4.952   8.021   6.751 -0.1772 -0.4861  0.5846
  258MOL0     O34754   5.022   8.072   6.856 -0.6002 -0.4254  0.2771
  258MOL0     C34755   4.967   8.176   6.946  1.2982  0.4338  0.5139
  258MOL0     C34756   4.844   8.124   7.028 -0.2946 -0.4500  0.3203
  258MOL0     C34757   4.889   7.994   7.105 -0.0399  0.5938 -0.1765
  258MOL0     C34758   4.776   7.931   7.187 -0.6275  0.0840  0.4456
  258MOL0     C34759   4.749   8.031   7.288  0.2292 -0.1136 -0.0246
  258MOL0     C34760   4.727   8.110   7.385  0.2080 -1.0271  0.6051
  258MOL0     C34761   4.981   7.895   6.692 -0.7210  0.1735  0.2183
  258MOL0     C34762   4.918   7.849   6.585  0.6502 -0.7171  1.3920
  258MOL0     H34763   4.524   8.149   6.239  0.3592  1.0048 -0.8635
  258MOL0     H34764   4.330   8.108   6.071  1.3780  1.3839 -0.3083
  258MOL0     H34765   4.093   7.992   6.055 -2.3596  2.9380 -2.7063
  258MOL0     H34766   4.178   8.059   5.911 -0.8184  0.3869 -0.8237
  258MOL0     H34767   4.112   7.835   5.800  0.7301  0.5401  1.1817
  258MOL0     H34768   4.024   7.799   5.949 -1.0694 -2.4044 -2.0966
  258MOL0     H34769   3.890   8.014   5.899 -0.0992  0.2421 -0.1162
  258MOL0     H34770   3.965   8.029   5.744 -2.4561  2.1265  0.4259
  258MOL0     H34771   3.892   7.831   5.649 -2.2546 -0.0634 -2.1561
  258MOL0     H34772   3.808   7.774   5.794  3.1125  0.6702  2.5862
  258MOL0     H34773   3.677   8.006   5.789  2.8929 -1.4304  2.0687
  258MOL0     H34774   3.752   8.008   5.624  0.5345  0.7518  0.8378
  258MOL0     H34775   3.621   7.792   5.569 -1.2684 -2.0493  0.1228
  258MOL0     H34776   3.565   7.800   5.740  0.5528  3.7452  1.1153
  258MOL0     H34777   3.522   8.024   5.523 -2.6014  0.4384 -1.3193
  258MOL0     H34778   3.408   7.895   5.555 -0.2251 -1.4502  3.3293
  258MOL0     H34779   3.475   8.088   5.777  0.9926  0.4501 -1.5927
  258MOL0     H34780   3.384   7.946   5.794  1.2033  1.0868  1.7210
  258MOL0     H34781   3.220   8.171   5.867  2.1949 -1.3518 -0.2397
  258MOL0     H34782   2.923   8.276   5.650 -0.3895 -1.9218  0.5068
  258MOL0     H34783   2.990   8.268   5.826  5.1072 -4.9446 -0.7299
  258MOL0     H34784   2.949   8.511   5.754  0.5098  1.3418 -0.5944
  258MOL0     H34785   3.065   8.477   5.623  1.0586  0.7100  0.4436
  258MOL0     H34786   3.145   8.604   5.822  0.7272  0.8341 -0.7551
  258MOL0     H34787   3.243   8.466   5.782 -2.1496 -0.8043 -2.0894
  258MOL0     H34788   3.141   8.326   5.968 -0.3725  0.4614  1.2668
  258MOL0     H34789   3.037   8.458   6.003  0.5393 -2.4669  2.9103
  258MOL0     H34790   3.473   8.562   6.123  0.3915  1.0673  1.9070
  258MOL0     H34791   3.677   8.429   6.397 -1.4066  0.6220  0.4689
  258MOL0     H34792   3.679   8.459   6.221 -1.0781 -2.2215 -0.8563
  258MOL0     H34793   3.649   8.590   6.333  0.3883 -0.2830  1.3941
  258MOL0     H34794   3.190   8.099   6.733 -0.3770 -0.3521  0.7553
  258MOL0     H34795   3.236   8.003   6.950  1.1654 -0.6338  0.4985
  258MOL0     H34796   3.657   7.813   7.008 -3.4866 -1.0769 -0.8237
  258MOL0     H34797   3.638   7.981   7.067 -2.3477  0.6229 -1.9534
  258MOL0     H34798   3.528   7.877   7.280  4.3776  3.4825 -1.3124
  258MOL0     H34799   3.515   7.721   7.192  1.6669 -1.6620  0.9254
  258MOL0     H34800   3.797   7.808   7.222 -0.5111  1.9080 -0.2276
  258MOL0     H34801   3.721   7.647   7.218 -0.9981  0.5655 -1.8020
  258MOL0     H34802   3.653   7.814   7.460 -2.4977 -0.1117 -1.1152
  258MOL0     H34803   3.631   7.647   7.423  0.1763 -0.1397 -1.7776
  258MOL0     H34804   3.900   7.803   7.466  0.7914 -0.3396  1.8468
  258MOL0     H34805   3.891   7.635   7.403 -0.7729  0.7217 -0.3676
  258MOL0     H34806   3.794   7.738   7.679 -1.3330 -1.2172  1.2709
  258MOL0     H34807   3.759   7.592   7.623  1.0753  1.2385  1.4379
  258MOL0     H34808   4.039   7.701   7.685  0.0539  0.0496 -0.8842
  258MOL0     H34809   4.017   7.559   7.582 -0.6027 -2.0512  0.1688
  258MOL0     H34810   4.069   7.513   7.835 -1.3608  1.2269  2.6278
  258MOL0     H34811   3.929   7.424   7.788 -0.3720  0.2085  0.4180
  258MOL0     H34812   3.649   7.999   6.848  0.0182  0.8590 -0.4326
  258MOL0     H34813   3.605   8.138   6.639 -3.3250  1.5789 -3.5628
  258MOL0     H34814   3.228   8.243   6.391  4.1467 -2.6573 -0.4310
  258MOL0     H34815   3.120   8.349   6.197  0.3342  0.4977 -2.1066
  258MOL0     H34816   4.386   7.689   6.088 -0.0898 -0.5196  1.4374
  258MOL0     H34817   4.553   7.721   6.278 -0.2969  1.7728  0.1370
  258MOL0     H34818   4.727   8.122   6.510 -2.2184 -1.6225  0.4013
  258MOL0     H34819   4.831   8.197   6.737  2.6443  0.1457  0.2835
  258MOL0     H34820   5.035   8.200   7.028  0.6023  2.4240  0.5503
  258MOL0     H34821   4.941   8.266   6.889 -0.3015 -0.0248  0.4492
  258MOL0     H34822   4.760   8.102   6.962 -1.9834 -0.8031  2.4841
  258MOL0     H34823   4.808   8.198   7.100 -2.4656 -2.1025  1.0258
  258MOL0     H34824   4.981   8.009   7.161  0.6481  0.2464 -1.1857
  258MOL0     H34825   4.911   7.920   7.027 -0.9573 -1.7915  1.6909
  258MOL0     H34826   4.815   7.840   7.233 -2.0859 -1.5396 -1.3692
  258MOL0     H34827   4.689   7.910   7.125  0.8118 -1.5269 -1.1093
  258MOL0     H34828   4.714   8.174   7.470 -0.7421 -0.5000  0.0872
  258MOL0     H34829   5.034   7.821   6.750  0.6047  0.8545 -0.0934
  258MOL0     H34830   4.933   7.746   6.553  0.4406 -0.1022 -0.7978
  259MOL0     O34831   6.760   2.317   2.162 -0.5784 -0.0235  0.2038
  259MOL0     C34832   6.734   2.296   2.046 -0.1110  0.3324  0.3673
  259MOL0     O34833   6.794   2.355   1.942 -0.4332 -0.2594  0.7850
  259MOL0     C34834   6.888   2.455   1.954 -0.1469  0.2924  0.3198
  259MOL0     C34835   6.892   2.564   1.866  0.0712  0.3869  1.2230
  259MOL0     C34836   6.992   2.666   1.865  0.0531  0.3239 -0.5176
  259MOL0     C34837   7.092   2.663   1.970  0.3780  0.3456 -0.0929
  259MOL0     O34838   7.182   2.766   1.964 -0.2876 -0.1563 -0.2897
  259MOL0     C34839   7.296   2.800   2.052  0.2369  1.5677  0.7434
  259MOL0     C34840   7.230   2.851   2.183 -0.1373  0.2795  0.1808
  259MOL0     C34841   7.322   2.950   2.253 -0.3332 -0.6122  0.8543
  259MOL0     C34842   7.459   2.886   2.288  0.8693  0.2579 -0.5192
  259MOL0     C34843   7.532   2.970   2.389 -0.9895 -0.4664 -0.5633
  259MOL0     C34844   7.660   2.898   2.439 -0.3960 -0.4113  0.1263
  259MOL0     C34845   7.755   3.006   2.505  0.4084  0.6079 -1.0932
  259MOL0     C34846   7.897   2.955   2.534 -1.2118 -1.2100  0.2131
  259MOL0     N34847   7.975   3.067   2.601 -0.2005 -0.0168  0.3122
  259MOL0     C34848   8.096   3.112   2.554  0.0700  0.1368  0.2755
  259MOL0     C34849   8.116   3.226   2.625 -0.4762  0.2934  0.8648
  259MOL0     C34850   8.235   3.320   2.613  0.1593  0.1091  0.3633
  259MOL0     C34851   8.357   3.236   2.658  0.6317  1.1489 -0.6913
  259MOL0     C34852   8.479   3.317   2.676 -0.4752 -0.1569  0.3826
  259MOL0     C34853   8.603   3.229   2.685  0.0722 -0.8192  0.4150
  259MOL0     O34854   8.651   3.169   2.566 -0.0876 -0.1467 -0.6180
  259MOL0     C34855   8.783   3.163   2.545  0.3073 -0.4899  0.1049
  259MOL0     C34856   8.852   3.034   2.517  0.0371  0.0519 -0.2619
  259MOL0     C34857   8.984   3.032   2.469 -0.5740  0.9258 -0.2841
  259MOL0     C34858   9.036   2.883   2.427  0.6521 -0.1875 -0.7085
  259MOL0     C34859   9.062   3.146   2.457 -0.0043 -0.2326  0.3285
  259MOL0     C34860   9.200   3.152   2.403  0.8547 -0.6293  0.5013
  259MOL0     O34861   9.250   3.281   2.392  0.1750 -0.3960  0.5442
  259MOL0     C34862   9.361   3.299   2.309  0.1123 -0.3469  0.2544
  259MOL0     C34863   9.484   3.331   2.365  0.0348  0.0636  0.1292
  259MOL0     C34864   9.602   3.355   2.286  0.5508 -0.0199 -0.0214
  259MOL0     C34865   9.594   3.373   2.154  0.3034 -1.5484 -0.2094
  259MOL0     O34866   9.709   3.423   2.082 -0.2027 -0.0471 -0.7043
  259MOL0     C34867   9.727   3.384   1.948  0.4500  0.4384 -0.9125
  259MOL0     C34868   9.849   3.292   1.940  0.5773  0.3129 -0.4778
  259MOL0     C34869   9.853   3.185   2.056  0.6046  0.4198  0.1282
  259MOL0     C34870   9.962   3.082   2.017 -0.1731 -0.6530 -0.2917
  259MOL0     C34871  10.009   3.006   2.135 -0.5681  0.5844 -0.6135
  259MOL0     C34872  10.139   2.920   2.128 -0.2795  0.3926 -0.6621
  259MOL0     C34873  10.264   3.006   2.099 -0.2043  0.3479 -0.4867
  259MOL0     C34874  10.392   2.925   2.094 -0.2681 -0.2988  0.5452
  259MOL0    Cl34875  10.388   2.824   1.953 -0.0146  0.0974  0.0869
  259MOL0     C34876   9.469   3.350   2.095 -0.4245 -0.3723  0.4308
  259MOL0     C34877   9.354   3.305   2.167 -0.8505  1.0404 -0.3800
  259MOL0     O34878   9.266   3.049   2.384  0.8963  0.7367  0.0983
  259MOL0     C34879   9.002   3.271   2.494 -0.0961  0.1515  0.6366
  259MOL0     C34880   8.866   3.282   2.537 -0.8965  0.4104 -1.0201
  259MOL0     N34881   8.013   3.242   2.705  0.0984 -0.2731 -0.6433
  259MOL0     N34882   7.925   3.148   2.687  1.3276 -0.3606  0.0764
  259MOL0     C34883   7.094   2.560   2.057  0.0674 -0.0022 -0.4344
  259MOL0     C34884   6.987   2.461   2.054  0.2299  0.6366  0.7588
  259MOL0     C34885   6.634   2.197   2.000  0.0598 -0.4767 -0.1476
  259MOL0     C34886   6.509   2.187   2.077 -0.3813  0.2491  0.3962
  259MOL0     C34887   6.408   2.107   2.029  0.4513 -0.3734  0.0153
  259MOL0     C34888   6.420   2.029   1.914 -0.9879  0.2541 -0.0346
  259MOL0     O34889   6.321   1.946   1.868 -0.9360  0.8171  0.0510
  259MOL0     C34890   6.283   1.842   1.950  0.0596  0.0520 -0.5059
  259MOL0     C34891   6.213   1.732   1.865  0.1767 -0.3792 -0.1312
  259MOL0     C34892   6.312   1.667   1.763  1.3724 -0.7345  1.0926
  259MOL0     C34893   6.438   1.586   1.808 -0.0117 -0.2103 -0.0220
  259MOL0     C34894   6.561   1.664   1.810  0.5170 -1.2374 -0.5022
  259MOL0     C34895   6.662   1.732   1.798  0.2576  0.5149 -0.5509
  259MOL0     C34896   6.532   2.051   1.830  0.0712  0.5221 -0.2126
  259MOL0     C34897   6.643   2.127   1.878  0.9819 -0.2802 -0.7004
  259MOL0     H34898   6.809   2.576   1.796  0.4607 -0.2828  0.6383
  259MOL0     H34899   7.002   2.738   1.784  2.8021  2.5752  1.6326
  259MOL0     H34900   7.360   2.712   2.067  1.8279  2.4681 -0.4360
  259MOL0     H34901   7.355   2.880   2.007  1.4283  0.6641  0.6462
  259MOL0     H34902   7.138   2.900   2.149 -0.0993  0.1009 -0.1774
  259MOL0     H34903   7.194   2.762   2.236  0.0896 -0.2643 -0.5779
  259MOL0     H34904   7.345   3.034   2.187 -0.8294 -0.4530  0.8822
  259MOL0     H34905   7.280   2.985   2.348 -1.1825  0.0209  0.2622
  259MOL0     H34906   7.442   2.786   2.330  1.0826  1.8381  3.9365
  259MOL0     H34907   7.522   2.882   2.199 -1.7322 -2.8446 -2.4118
  259MOL0     H34908   7.555   3.062   2.335 -0.8727 -0.5539 -0.6632
  259MOL0     H34909   7.460   2.992   2.468 -3.2260  2.1539 -3.0941
  259MOL0     H34910   7.634   2.804   2.489 -0.1249 -1.4116 -1.5499
  259MOL0     H34911   7.709   2.862   2.348 -1.6440 -1.1393 -0.2781
  259MOL0     H34912   7.752   3.093   2.438  2.0823 -0.3091 -2.4449
  259MOL0     H34913   7.707   3.029   2.600  0.4715 -1.8571 -0.3994
  259MOL0     H34914   7.940   2.941   2.435  2.5459  0.2745  1.4738
  259MOL0     H34915   7.902   2.873   2.606 -1.0473 -1.1463  0.2743
  259MOL0     H34916   8.159   3.064   2.480 -0.3063 -0.2812  0.2202
  259MOL0     H34917   8.253   3.345   2.508  0.3432  1.5691  0.7296
  259MOL0     H34918   8.215   3.415   2.662 -1.7769  0.6416 -1.3520
  259MOL0     H34919   8.384   3.164   2.580 -1.3775 -1.5975  0.9656
  259MOL0     H34920   8.337   3.189   2.755 -0.1770 -2.1352 -2.3117
  259MOL0     H34921   8.465   3.383   2.762  0.3668 -1.5955  1.6780
  259MOL0     H34922   8.503   3.384   2.593  0.3587 -1.1677 -0.2068
  259MOL0     H34923   8.574   3.155   2.760 -2.1306 -1.3046 -0.8221
  259MOL0     H34924   8.679   3.298   2.724 -3.3823  2.1349  2.4993
  259MOL0     H34925   8.787   2.949   2.537  0.5079 -0.8438 -2.3207
  259MOL0     H34926   9.081   2.877   2.327  0.3065 -3.6000 -0.7756
  259MOL0     H34927   9.104   2.855   2.507  1.4656  0.5300 -1.1330
  259MOL0     H34928   8.952   2.812   2.428 -0.6052  1.1913 -2.0924
  259MOL0     H34929   9.503   3.317   2.471  1.5283 -1.2617 -0.2803
  259MOL0     H34930   9.696   3.363   2.341  1.3498  0.8701 -1.4437
  259MOL0     H34931   9.639   3.333   1.907  0.9431 -1.3337  0.1571
  259MOL0     H34932   9.756   3.469   1.885  0.3507  1.1717  0.0004
  259MOL0     H34933   9.850   3.248   1.840  0.9440  1.5499 -1.0453
  259MOL0     H34934   9.937   3.357   1.943 -0.6393  2.0045  0.6818
  259MOL0     H34935   9.755   3.140   2.077 -0.6948  2.6857 -0.7572
  259MOL0     H34936   9.882   3.234   2.149 -0.4362 -0.6674  1.0730
  259MOL0     H34937   9.913   3.015   1.945  2.0238 -2.5735 -0.1285
  259MOL0     H34938  10.036   3.139   1.960 -0.6735 -0.8837 -1.1860
  259MOL0     H34939   9.936   2.927   2.156  2.0333 -1.1934  2.9592
  259MOL0     H34940  10.010   3.072   2.223  0.4829 -1.4388  0.9801
  259MOL0     H34941  10.156   2.881   2.228  1.8643  0.6057 -0.8904
  259MOL0     H34942  10.123   2.836   2.059 -1.0413 -2.8609  3.0971
  259MOL0     H34943  10.269   3.088   2.172 -0.5152 -0.9475  1.0305
  259MOL0     H34944  10.250   3.071   2.012  1.5750  1.6261  0.1204
  259MOL0     H34945  10.410   2.864   2.182  0.2825  0.7943  1.2110
  259MOL0     H34946  10.478   2.989   2.072 -1.4477  0.8061 -1.1463
  259MOL0     H34947   9.454   3.368   1.989 -0.8776 -1.2111  0.3381
  259MOL0     H34948   9.256   3.280   2.129 -0.8036  0.2206  0.0052
  259MOL0     H34949   9.054   3.366   2.491 -0.2061  0.2268  1.0157
  259MOL0     H34950   8.820   3.376   2.565 -2.2248 -0.3519 -0.5697
  259MOL0     H34951   7.167   2.554   2.137 -1.5680 -0.3025  1.1108
  259MOL0     H34952   6.994   2.367   2.108 -0.3314 -1.5512 -2.6565
  259MOL0     H34953   6.500   2.234   2.174 -0.6933 -0.3016  0.6373
  259MOL0     H34954   6.317   2.111   2.087  1.3907 -0.0763  1.5135
  259MOL0     H34955   6.363   1.796   2.009  0.5538  0.5605 -0.7701
  259MOL0     H34956   6.212   1.883   2.022  1.0775  1.1746 -0.0902
  259MOL0     H34957   6.117   1.760   1.822 -1.0502 -1.9738  1.4348
  259MOL0     H34958   6.181   1.644   1.922  0.4236 -3.4170 -4.2805
  259MOL0     H34959   6.342   1.739   1.686 -1.3221 -0.6079  0.0688
  259MOL0     H34960   6.264   1.590   1.702  1.1614 -1.7570  2.4892
  259MOL0     H34961   6.462   1.508   1.735 -0.9289  0.4769 -1.0927
  259MOL0     H34962   6.424   1.544   1.908  4.8626 -2.7888 -0.1598
  259MOL0     H34963   6.749   1.794   1.788 -0.7822  1.9821 -0.8397
  259MOL0     H34964   6.534   2.011   1.729  1.1129 -0.4727  0.1717
  259MOL0     H34965   6.734   2.130   1.819  1.5137 -2.0528 -0.0352
  260MOL0     O34966   7.084   7.057  10.435 -0.7940  0.5436 -0.3257
  260MOL0     C34967   7.185   6.991  10.453 -0.0931 -0.8404  1.1259
  260MOL0     O34968   7.219   6.921  10.565 -0.3584  0.0335 -0.1011
  260MOL0     C34969   7.145   6.965  10.671 -0.3307  1.1124 -0.2494
  260MOL0     C34970   7.201   7.062  10.762  0.7883  1.0667 -0.4189
  260MOL0     C34971   7.130   7.097  10.877  1.2015 -0.7026  0.0536
  260MOL0     C34972   7.015   7.038  10.919  0.6384  0.6010 -0.1524
  260MOL0     O34973   6.962   7.073  11.045  0.1882 -0.1664  0.2455
  260MOL0     C34974   6.846   7.006  11.097 -0.1219 -0.0456  0.1502
  260MOL0     C34975   6.777   7.093  11.206  0.3796 -0.1901  0.3827
  260MOL0     C34976   6.664   7.018  11.278 -0.4420  0.3122  0.5719
  260MOL0     C34977   6.595   7.117  11.377  0.8637 -0.6368 -0.0013
  260MOL0     C34978   6.453   7.070  11.391 -0.2667  0.4210  0.4738
  260MOL0     C34979   6.371   7.190  11.449 -0.5013  0.4250  0.0581
  260MOL0     C34980   6.246   7.153  11.540 -0.3370 -0.0956  0.6454
  260MOL0     C34981   6.147   7.069  11.462 -0.0099  0.0104  0.1900
  260MOL0     N34982   6.018   7.054  11.531 -0.0657 -0.8875  0.6978
  260MOL0     C34983   5.921   7.153  11.550 -1.3275 -1.0216  0.3352
  260MOL0     C34984   5.832   7.110  11.644  0.0506  0.1553 -0.2153
  260MOL0     C34985   5.695   7.170  11.651  1.0322  0.5743  1.0916
  260MOL0     C34986   5.658   7.229  11.780  0.5051 -0.0904 -0.7998
  260MOL0     C34987   5.638   7.124  11.888 -0.3772 -0.3227  0.5336
  260MOL0     C34988   5.561   6.995  11.840 -0.4860 -0.4526 -0.6641
  260MOL0     O34989   5.433   7.011  11.775  0.3651 -0.4026 -0.1571
  260MOL0     C34990   5.327   7.041  11.852  0.6073  0.0044  0.6493
  260MOL0     C34991   5.219   7.105  11.791 -0.0484 -0.9265 -1.1737
  260MOL0     C34992   5.104   7.130  11.878  0.2957 -0.0765  0.5085
  260MOL0     C34993   4.985   7.198  11.817 -0.3099 -0.3198  0.9088
  260MOL0     C34994   5.095   7.077  12.006  0.5443  0.3090  0.1759
  260MOL0     C34995   4.977   7.095  12.096  0.1988 -1.2381  0.0834
  260MOL0     O34996   4.907   7.212  12.086  0.3703  0.3703 -0.2716
  260MOL0     C34997   4.808   7.241  12.173  0.8558  0.4894  0.0439
  260MOL0     C34998   4.693   7.164  12.190  0.6208 -0.3006  0.3400
  260MOL0     C34999   4.591   7.199  12.284 -0.0096 -0.0557  0.1037
  260MOL0     C35000   4.602   7.316  12.356  0.2132  0.2258  0.3962
  260MOL0     O35001   4.506   7.357  12.443  0.0327  0.6143  0.1464
  260MOL0     C35002   4.511   7.288  12.572 -0.1512  0.8795  0.3264
  260MOL0     C35003   4.387   7.332  12.670 -0.0303 -0.4165 -0.7235
  260MOL0     C35004   4.414   7.292  12.806  0.0077  0.1631 -0.6084
  260MOL0     C35005   4.304   7.347  12.906  0.2719  0.0193  0.5098
  260MOL0     C35006   4.191   7.238  12.921 -0.0647  0.6103  0.3449
  260MOL0     C35007   4.100   7.280  13.035  0.1668  0.3658 -1.0713
  260MOL0     C35008   3.975   7.190  13.054 -0.4503  0.3889  1.0496
  260MOL0     C35009   3.890   7.248  13.166  0.1885 -1.3423  0.3127
  260MOL0    Cl35010   3.743   7.155  13.213 -0.2248 -0.0378  0.0411
  260MOL0     C35011   4.718   7.389  12.333  0.3011  0.2335  0.0707
  260MOL0     C35012   4.820   7.367  12.242 -0.6484  0.7119  0.3280
  260MOL0     O35013   4.947   7.007  12.178  0.3567  0.6720  0.3721
  260MOL0     C35014   5.199   6.999  12.057 -0.0437 -0.4882  0.1564
  260MOL0     C35015   5.310   6.983  11.977  0.8282 -0.4271  0.4506
  260MOL0     N35016   5.883   6.988  11.687 -0.1325  0.9070  0.3386
  260MOL0     N35017   5.987   6.957  11.620 -0.3760  0.0158  0.0012
  260MOL0     C35018   6.959   6.933  10.831 -0.0622 -0.1201 -0.1858
  260MOL0     C35019   7.027   6.905  10.712 -0.0956  0.3049  0.3542
  260MOL0     C35020   7.280   6.992  10.342  0.8858 -0.0492 -0.0401
  260MOL0     C35021   7.265   7.075  10.230  0.2647  1.0673  0.2334
  260MOL0     C35022   7.362   7.079  10.132  0.7478 -0.2726 -0.5646
  260MOL0     C35023   7.457   6.979  10.118 -0.5634  1.0144  0.9489
  260MOL0     O35024   7.535   6.993   9.998  0.0421  0.8339  0.6316
  260MOL0     C35025   7.638   6.902   9.976  0.4671 -0.1538  0.1030
  260MOL0     C35026   7.776   6.944   9.924 -0.7375 -0.5853 -0.1626
  260MOL0     C35027   7.775   7.027   9.797  0.2130 -0.3402 -0.5365
  260MOL0     C35028   7.910   7.102   9.768  0.3890  0.4248 -0.8225
  260MOL0     C35029   7.924   7.166   9.631 -0.5899 -0.3771  0.5182
  260MOL0     C35030   7.924   7.237   9.533 -0.3448 -0.8797 -0.5516
  260MOL0     C35031   7.462   6.885  10.222 -0.5188 -0.1084  0.4968
  260MOL0     C35032   7.380   6.897  10.335  0.1005  0.6773 -0.5044
  260MOL0     H35033   7.289   7.118  10.733  0.8101  1.0558 -0.3737
  260MOL0     H35034   7.178   7.169  10.941  1.8551 -1.6189  0.6082
  260MOL0     H35035   6.771   6.979  11.022  1.5731  0.2820 -1.7656
  260MOL0     H35036   6.877   6.912  11.144 -0.7694 -0.6272 -0.5450
  260MOL0     H35037   6.854   7.122  11.278  1.6125  0.6946 -1.2376
  260MOL0     H35038   6.743   7.180  11.148 -1.9530 -0.8819  0.6283
  260MOL0     H35039   6.587   6.964  11.223 -2.8527  3.0204  1.0161
  260MOL0     H35040   6.713   6.953  11.351  0.2752  1.3174  1.0140
  260MOL0     H35041   6.664   7.136  11.459 -1.9048  4.1994  1.6270
  260MOL0     H35042   6.588   7.211  11.322  0.2203 -1.1036 -0.7529
  260MOL0     H35043   6.418   7.054  11.288  2.4320  3.7722 -1.1915
  260MOL0     H35044   6.456   6.984  11.457 -0.0013  0.6858  0.8130
  260MOL0     H35045   6.428   7.249  11.522 -0.6336  0.0633  0.4620
  260MOL0     H35046   6.335   7.256  11.369 -0.5444 -0.3575 -0.5750
  260MOL0     H35047   6.287   7.096  11.624  1.0202  0.2143  0.2174
  260MOL0     H35048   6.206   7.243  11.586  0.6897  0.4002  0.5847
  260MOL0     H35049   6.179   6.967  11.438 -1.0257 -0.3976  0.5380
  260MOL0     H35050   6.126   7.115  11.365  2.1533 -0.5872 -0.6152
  260MOL0     H35051   5.895   7.234  11.482  0.6826 -0.7706 -0.2122
  260MOL0     H35052   5.696   7.250  11.577  0.2472  1.0355  1.5660
  260MOL0     H35053   5.620   7.099  11.615 -0.1034  1.9996  0.5392
  260MOL0     H35054   5.563   7.283  11.775  1.8105  2.4098 -0.2371
  260MOL0     H35055   5.731   7.309  11.797 -0.8182  0.9909 -0.0358
  260MOL0     H35056   5.588   7.164  11.976  0.7545  0.3759  0.8731
  260MOL0     H35057   5.732   7.093  11.933 -0.1211  2.1517  1.8375
  260MOL0     H35058   5.552   6.924  11.923 -2.8291  2.9417  2.3166
  260MOL0     H35059   5.619   6.946  11.761 -1.9644  0.8602 -2.6720
  260MOL0     H35060   5.231   7.158  11.697 -1.1448 -0.1633 -0.9050
  260MOL0     H35061   4.992   7.208  11.708 -1.3449  1.3912  0.9709
  260MOL0     H35062   4.885   7.154  11.825 -0.3770 -0.4206 -0.1973
  260MOL0     H35063   4.972   7.294  11.866  2.3832  1.9740 -2.3573
  260MOL0     H35064   4.690   7.076  12.126  1.8907  2.1672 -3.4415
  260MOL0     H35065   4.505   7.135  12.298 -0.3735  0.6206  1.0629
  260MOL0     H35066   4.490   7.184  12.547  2.0658  0.9728 -2.4173
  260MOL0     H35067   4.609   7.285  12.620  1.2066 -1.4946 -2.2994
  260MOL0     H35068   4.379   7.441  12.668 -1.3001 -0.4972 -1.4239
  260MOL0     H35069   4.294   7.286  12.635 -2.0381  0.1022  3.3698
  260MOL0     H35070   4.500   7.346  12.847 -0.6441 -0.8857  2.4008
  260MOL0     H35071   4.435   7.185  12.815 -1.2807 -0.0647 -0.0701
  260MOL0     H35072   4.369   7.360  12.993  1.1900  0.3350 -0.1983
  260MOL0     H35073   4.265   7.445  12.877 -2.2299 -1.2722 -0.7820
  260MOL0     H35074   4.232   7.139  12.945  0.8715  1.0724  0.7097
  260MOL0     H35075   4.128   7.221  12.833 -0.7897 -0.1679  0.9943
  260MOL0     H35076   4.147   7.282  13.134 -0.8949  0.8949 -0.5581
  260MOL0     H35077   4.077   7.384  13.009  0.8922  0.4920 -1.2307
  260MOL0     H35078   4.009   7.088  13.077  0.6749  0.0951 -1.6094
  260MOL0     H35079   3.915   7.198  12.963 -1.5942  5.3762  1.9194
  260MOL0     H35080   3.864   7.351  13.140 -0.4765 -1.7328 -0.6255
  260MOL0     H35081   3.946   7.245  13.260 -2.9450 -1.3815  2.3681
  260MOL0     H35082   4.727   7.487  12.378  0.0170  1.0738 -1.5943
  260MOL0     H35083   4.907   7.428  12.222  1.6820 -2.7725 -1.2223
  260MOL0     H35084   5.199   6.966  12.160  0.6170  3.8714  1.7800
  260MOL0     H35085   5.383   6.911  12.014  1.8624 -1.1658 -2.6900
  260MOL0     H35086   6.879   6.877  10.880  1.2744  0.3700  2.7524
  260MOL0     H35087   6.979   6.820  10.664 -1.0046  1.7772 -1.4295
  260MOL0     H35088   7.187   7.150  10.239 -2.7322 -1.2670 -3.3012
  260MOL0     H35089   7.350   7.154  10.054  3.8513  2.5570  1.4008
  260MOL0     H35090   7.668   6.858  10.072  2.5191  4.1309  1.6804
  260MOL0     H35091   7.607   6.820   9.910  2.9055  0.7180 -2.2772
  260MOL0     H35092   7.829   6.849   9.910 -0.8336 -0.8805  1.3306
  260MOL0     H35093   7.836   6.985  10.006  0.1627 -1.9307 -0.1145
  260MOL0     H35094   7.693   7.099   9.807  0.8881  0.5449 -1.1735
  260MOL0     H35095   7.752   6.949   9.723  0.9759 -1.1111  0.0178
  260MOL0     H35096   7.994   7.033   9.779 -0.3562 -1.0725 -3.5968
  260MOL0     H35097   7.910   7.179   9.845 -3.1040  1.2394 -1.4527
  260MOL0     H35098   7.928   7.295   9.443 -4.0216  2.2562  1.0095
  260MOL0     H35099   7.514   6.790  10.220  1.3072  0.7867  1.9556
  260MOL0     H35100   7.388   6.825  10.416  0.8277  0.7654 -0.4906
  261MOL0     O35101   7.159  11.434   0.712  0.2010 -0.1408  0.3574
  261MOL0     C35102   7.074  11.367   0.649  0.2058  1.1063 -0.5342
  261MOL0     O35103   7.102  11.272   0.558 -0.5763  0.4250  0.1489
  261MOL0     C35104   7.236  11.224   0.566 -0.5685  0.2567 -0.1544
  261MOL0     C35105   7.268  11.093   0.612  0.7155  0.1401 -0.2678
  261MOL0     C35106   7.395  11.036   0.627 -0.3029 -1.6517 -0.2466
  261MOL0     C35107   7.509  11.126   0.615 -0.2965  0.8868 -0.8370
  261MOL0     O35108   7.638  11.081   0.635  0.1785  0.2222  0.3784
  261MOL0     C35109   7.730  11.170   0.701 -0.2177  0.4945 -0.0888
  261MOL0     C35110   7.848  11.099   0.759  0.0487  0.1768  0.6312
  261MOL0     C35111   7.877  10.953   0.701 -0.1944  0.0268 -0.5019
  261MOL0     C35112   8.012  10.889   0.742  0.3703 -0.6915  0.2166
  261MOL0     C35113   8.026  10.752   0.693 -0.1029 -0.3376 -0.0757
  261MOL0     C35114   8.155  10.696   0.732  0.1458 -0.4725 -0.7184
  261MOL0     C35115   8.165  10.553   0.704 -0.4894  0.9396 -0.3943
  261MOL0     C35116   8.293  10.479   0.763 -0.0473  0.4621  0.2266
  261MOL0     N35117   8.300  10.325   0.738 -0.0515 -0.1678  0.2646
  261MOL0     C35118   8.239  10.228   0.806  0.4203  0.2814 -0.5652
  261MOL0     C35119   8.311  10.117   0.775  0.0080 -1.2999 -1.0785
  261MOL0     C35120   8.270   9.991   0.836 -0.5080  0.3745 -1.1628
  261MOL0     C35121   8.297   9.988   0.982 -0.7941  0.0335 -0.3905
  261MOL0     C35122   8.417   9.896   1.020 -0.4139  0.1252  0.6984
  261MOL0     C35123   8.463   9.915   1.156  0.1108 -0.2951 -0.4592
  261MOL0     O35124   8.533  10.039   1.160  0.3505  0.5022 -0.8746
  261MOL0     C35125   8.668  10.032   1.182  0.2095  0.6843 -0.2967
  261MOL0     C35126   8.711  10.104   1.299 -1.1712 -0.3572  0.0868
  261MOL0     C35127   8.850  10.102   1.332 -0.0685  0.2830  0.3147
  261MOL0     C35128   8.900  10.182   1.450  0.8780  0.0697  0.7770
  261MOL0     C35129   8.942  10.058   1.234 -0.1570  0.1409 -0.2094
  261MOL0     C35130   9.092  10.072   1.239 -0.4012 -0.2473 -0.8675
  261MOL0     O35131   9.156   9.973   1.173 -0.2935 -0.5746 -0.6624
  261MOL0     C35132   9.289   9.983   1.165 -0.8738  0.3152  0.9398
  261MOL0     C35133   9.348  10.054   1.060 -0.0071 -0.1439  0.0821
  261MOL0     C35134   9.489  10.059   1.048  0.0957  0.4363  0.0773
  261MOL0     C35135   9.561   9.964   1.131 -0.0640  0.3564  0.0362
  261MOL0     O35136   9.699   9.953   1.138  0.3667  0.2920  0.1577
  261MOL0     C35137   9.783   9.996   1.021 -0.7430  0.3347 -0.2614
  261MOL0     C35138   9.912   9.918   0.999  1.4468 -1.3081 -0.2686
  261MOL0     C35139   9.875   9.773   0.967 -0.2407 -0.0010  0.6878
  261MOL0     C35140   9.827   9.728   0.832  0.7340 -0.6084 -0.0591
  261MOL0     C35141   9.777   9.586   0.845 -0.4736  0.4379  0.5102
  261MOL0     C35142   9.745   9.542   0.704 -0.1882  1.0603  0.5199
  261MOL0     C35143   9.872   9.508   0.626 -0.1449 -0.9525  0.0065
  261MOL0     C35144   9.839   9.431   0.495 -0.0576 -0.3761  0.2354
  261MOL0    Cl35145   9.752   9.275   0.516  0.1911  0.0972 -0.0424
  261MOL0     C35146   9.493   9.884   1.217  0.3562 -1.3831 -0.1535
  261MOL0     C35147   9.361   9.900   1.249  0.7832  0.0851 -0.7877
  261MOL0     O35148   9.147  10.165   1.301  0.0496  0.6789 -0.0430
  261MOL0     C35149   8.889   9.971   1.135 -0.0125  0.0181 -0.5344
  261MOL0     C35150   8.756   9.965   1.105 -0.2956  0.6314  0.4544
  261MOL0     N35151   8.407  10.147   0.685 -0.1738  0.6861  0.4858
  261MOL0     N35152   8.395  10.271   0.657 -0.3272  0.1199  0.0315
  261MOL0     C35153   7.484  11.260   0.574  0.9131  0.3384  0.7439
  261MOL0     C35154   7.352  11.305   0.547  0.2360 -0.7121  0.8416
  261MOL0     C35155   6.933  11.411   0.665 -0.0577 -0.1562 -0.1222
  261MOL0     C35156   6.911  11.522   0.751  0.7721 -0.4352 -0.0848
  261MOL0     C35157   6.775  11.578   0.764  0.5925  0.1088  0.1517
  261MOL0     C35158   6.670  11.519   0.692 -0.5718 -0.2847  0.3073
  261MOL0     O35159   6.542  11.564   0.683 -0.4417  0.9325  0.2630
  261MOL0     C35160   6.513  11.691   0.745  0.5852  0.3533 -0.0499
  261MOL0     C35161   6.585  11.813   0.675 -0.1831  0.7256  0.1687
  261MOL0     C35162   6.510  11.836   0.540 -0.4790 -0.0444 -0.0834
  261MOL0     C35163   6.371  11.899   0.548  0.0428 -0.2486 -0.5934
  261MOL0     C35164   6.321  11.949   0.422 -0.6417  0.0102 -0.2761
  261MOL0     C35165   6.273  11.990   0.317 -0.2605 -0.1208  0.1458
  261MOL0     C35166   6.705  11.410   0.604  0.8568 -0.1721  0.1708
  261MOL0     C35167   6.825  11.354   0.595  0.3354  0.7468  0.2943
  261MOL0     H35168   7.180  11.032   0.634  2.9566 -3.0513  0.4926
  261MOL0     H35169   7.394  10.929   0.645 -2.0865 -1.5509  0.4672
  261MOL0     H35170   7.775  11.240   0.630  0.4259 -0.2617 -0.4459
  261MOL0     H35171   7.691  11.221   0.790 -1.7347 -1.2927  0.3216
  261MOL0     H35172   7.933  11.165   0.741 -1.3056  1.9483  0.4708
  261MOL0     H35173   7.837  11.091   0.867 -0.7218 -0.2265  0.5332
  261MOL0     H35174   7.800  10.887   0.743 -0.6776  1.5215  1.1102
  261MOL0     H35175   7.866  10.948   0.593 -1.9603  0.9278 -0.4040
  261MOL0     H35176   8.094  10.947   0.700  1.4611 -3.5367 -1.8652
  261MOL0     H35177   8.021  10.899   0.851 -0.4248  0.3961  0.2008
  261MOL0     H35178   7.949  10.686   0.734  1.2253  0.0100  3.2492
  261MOL0     H35179   8.020  10.751   0.583 -3.6056 -1.2876 -0.0030
  261MOL0     H35180   8.230  10.758   0.683  0.1095  0.9888  0.9595
  261MOL0     H35181   8.151  10.701   0.841  2.2982 -1.4195 -0.5422
  261MOL0     H35182   8.076  10.498   0.737  1.0001 -2.0234 -0.9023
  261MOL0     H35183   8.167  10.543   0.595 -0.4230  0.1627 -0.3287
  261MOL0     H35184   8.304  10.504   0.868  0.7264 -0.3605  0.3498
  261MOL0     H35185   8.385  10.521   0.721  0.4584 -0.2156  0.6364
  261MOL0     H35186   8.158  10.228   0.878 -1.7716 -1.1954 -2.8531
  261MOL0     H35187   8.163   9.972   0.820 -0.5095 -5.4041  2.8617
  261MOL0     H35188   8.323   9.910   0.787  0.4776 -0.1051  0.6302
  261MOL0     H35189   8.207   9.948   1.030  0.3933 -2.0346  0.2434
  261MOL0     H35190   8.314  10.092   1.009 -0.2655  0.2986 -1.7037
  261MOL0     H35191   8.507   9.913   0.960 -0.2180 -3.0214 -0.0562
  261MOL0     H35192   8.389   9.792   1.001  0.0558  0.5169 -2.7584
  261MOL0     H35193   8.517   9.826   1.190 -1.0485 -1.6140 -1.9186
  261MOL0     H35194   8.376   9.932   1.220  0.6887  2.0528 -0.2123
  261MOL0     H35195   8.639  10.157   1.360  0.0678  0.8011  0.5867
  261MOL0     H35196   8.975  10.124   1.503  0.6062 -1.4197 -0.4018
  261MOL0     H35197   8.949  10.270   1.408  2.4737 -2.1456 -2.3773
  261MOL0     H35198   8.823  10.221   1.517  0.5861  2.8432 -0.9918
  261MOL0     H35199   9.297  10.122   0.992  1.6724  2.1457  0.9843
  261MOL0     H35200   9.533  10.134   0.984 -1.1839  1.8010  0.7071
  261MOL0     H35201   9.728   9.986   0.927 -0.8392 -0.3367 -0.1374
  261MOL0     H35202   9.804  10.101   1.042  0.8801 -0.2993  1.5891
  261MOL0     H35203   9.970   9.971   0.923 -1.0893  0.7416 -0.9158
  261MOL0     H35204   9.971   9.929   1.091  0.6807  1.3239  0.0049
  261MOL0     H35205   9.794   9.740   1.034  0.5418 -2.9300  0.3162
  261MOL0     H35206   9.968   9.716   0.977  1.6473  2.8540  0.4774
  261MOL0     H35207   9.739   9.786   0.804  0.3266 -1.1987 -0.0346
  261MOL0     H35208   9.898   9.745   0.750 -1.1647  2.7385 -1.1858
  261MOL0     H35209   9.689   9.572   0.909 -1.8706 -0.8757 -1.5605
  261MOL0     H35210   9.852   9.516   0.883  0.5173  0.0075 -2.0689
  261MOL0     H35211   9.672   9.460   0.705 -1.8656  2.4903  1.4272
  261MOL0     H35212   9.697   9.622   0.646 -0.3629  1.2794  0.9638
  261MOL0     H35213   9.937   9.451   0.693  0.2469  0.7672  1.1508
  261MOL0     H35214   9.919   9.603   0.597  1.1803 -0.7733  2.4608
  261MOL0     H35215   9.934   9.413   0.443 -1.3551 -0.4939 -2.2271
  261MOL0     H35216   9.777   9.500   0.437 -3.8585  0.4635  4.7331
  261MOL0     H35217   9.538   9.807   1.280 -0.8443 -1.5437  0.5500
  261MOL0     H35218   9.316   9.833   1.321  1.7647  0.8555  0.6049
  261MOL0     H35219   8.958   9.925   1.065  2.3668  2.7244 -0.1881
  261MOL0     H35220   8.715   9.922   1.013 -0.0319  2.3578 -0.5044
  261MOL0     H35221   7.570  11.325   0.560  1.3182 -0.6085 -1.6906
  261MOL0     H35222   7.332  11.408   0.521  1.8150 -0.8823 -1.3167
  261MOL0     H35223   6.990  11.577   0.801  2.3752 -1.4881 -1.3434
  261MOL0     H35224   6.754  11.663   0.828 -3.0640 -0.7783  0.3616
  261MOL0     H35225   6.405  11.709   0.734  0.9145  1.7912 -1.2405
  261MOL0     H35226   6.542  11.686   0.850 -0.3274  0.6494  0.2299
  261MOL0     H35227   6.692  11.791   0.663 -0.2235 -0.5229  1.7266
  261MOL0     H35228   6.575  11.897   0.743 -1.0451 -0.0416  1.0121
  261MOL0     H35229   6.512  11.744   0.481 -3.0361  0.0127 -0.3795
  261MOL0     H35230   6.576  11.909   0.491  1.0164 -0.6925  0.9000
  261MOL0     H35231   6.366  11.979   0.622 -2.0644  1.0676 -2.0713
  261MOL0     H35232   6.292  11.830   0.580 -0.0881 -0.9732 -2.4032
  261MOL0     H35233   6.255  12.030   0.219  3.1188 -1.9038 -1.3648
  261MOL0     H35234   6.618  11.368   0.554  0.9728 -2.0706  1.4413
  261MOL0     H35235   6.849  11.261   0.546  0.5514  0.4908  0.8742
  262MOL0     O35236   0.888   5.683   9.043  0.3774  0.0939 -0.0932
  262MOL0     C35237   0.948   5.584   9.002  0.7131 -0.2948 -0.5133
  262MOL0     O35238   0.892   5.505   8.907  0.1311  0.1722  0.1622
  262MOL0     C35239   0.754   5.503   8.874 -0.2143 -0.7840  0.1955
  262MOL0     C35240   0.727   5.527   8.735  0.2345 -0.6082  0.3190
  262MOL0     C35241   0.596   5.518   8.693  1.1433 -0.3539 -0.2174
  262MOL0     C35242   0.492   5.482   8.781 -0.0114 -0.5276  1.0087
  262MOL0     O35243   0.363   5.478   8.721  0.0741 -0.3145  0.1132
  262MOL0     C35244   0.250   5.501   8.813 -0.0951 -0.1427  0.8316
  262MOL0     C35245   0.204   5.644   8.765 -0.4408 -0.3602  0.6075
  262MOL0     C35246   0.290   5.760   8.790 -0.1440  0.2696 -0.6123
  262MOL0     C35247   0.338   5.784   8.936 -0.8678  0.1443  0.7603
  262MOL0     C35248   0.426   5.913   8.965 -0.4195 -0.2754  0.0760
  262MOL0     C35249   0.572   5.866   8.969 -0.2270  0.0747  0.4494
  262MOL0     C35250   0.671   5.976   9.001  0.2258  0.1748 -0.3312
  262MOL0     C35251   0.671   6.025   9.142 -0.4405  0.0074  0.0688
  262MOL0     N35252   0.747   6.161   9.142  0.4244  0.5231 -0.2073
  262MOL0     C35253   0.875   6.187   9.107 -0.0352 -0.8205  0.0254
  262MOL0     C35254   0.884   6.321   9.087  0.5234  0.1889 -0.4164
  262MOL0     C35255   1.007   6.397   9.042 -0.0185  0.2533 -0.1830
  262MOL0     C35256   1.033   6.375   8.889 -0.0829 -0.3476 -0.3223
  262MOL0     C35257   0.950   6.461   8.802  0.3025 -0.1254 -0.2917
  262MOL0     C35258   0.976   6.438   8.649  1.0130 -0.3438  0.0959
  262MOL0     O35259   0.924   6.545   8.581  0.6966  0.0132 -0.3574
  262MOL0     C35260   0.789   6.563   8.569  1.0390  0.2153  1.4630
  262MOL0     C35261   0.698   6.461   8.609  0.5755  0.8752 -0.4842
  262MOL0     C35262   0.562   6.476   8.583  0.1768 -0.8808 -0.8625
  262MOL0     C35263   0.470   6.361   8.612  0.0057  0.1918 -0.7790
  262MOL0     C35264   0.510   6.595   8.518 -0.0279  0.7807  0.0078
  262MOL0     C35265   0.371   6.614   8.493 -1.5401 -0.2191  1.2556
  262MOL0     O35266   0.293   6.576   8.598  0.6684 -0.1996  0.4062
  262MOL0     C35267   0.157   6.578   8.586  0.5724 -0.4848 -0.1333
  262MOL0     C35268   0.084   6.642   8.682  0.5010 -0.4005 -0.8211
  262MOL0     C35269  -0.057   6.623   8.689  1.0172 -0.7741  0.7765
  262MOL0     C35270  -0.125   6.577   8.569  0.0157  0.3524 -0.8563
  262MOL0     O35271  -0.259   6.594   8.548 -0.3448  0.5782 -0.2185
  262MOL0     C35272  -0.307   6.728   8.511 -0.2766  0.3871 -0.3171
  262MOL0     C35273  -0.432   6.762   8.609  0.5197  0.2558 -0.2008
  262MOL0     C35274  -0.490   6.893   8.572 -0.5071 -0.6268 -1.3321
  262MOL0     C35275  -0.408   7.006   8.622  0.6437 -0.0730  0.2533
  262MOL0     C35276  -0.440   7.144   8.550  0.0341  0.5669 -0.7237
  262MOL0     C35277  -0.382   7.261   8.624 -0.0378  0.5065  0.3215
  262MOL0     C35278  -0.403   7.398   8.553 -0.1268  0.2056 -1.0259
  262MOL0     C35279  -0.345   7.521   8.614  0.1853  0.0104  0.5291
  262MOL0    Cl35280  -0.174   7.480   8.653  0.7244 -0.4239 -0.4094
  262MOL0     C35281  -0.048   6.511   8.472 -0.9927 -0.3603 -0.4112
  262MOL0     C35282   0.091   6.508   8.484  0.5645  0.4333  0.2385
  262MOL0     O35283   0.341   6.693   8.402  0.3683  0.2128 -0.0539
  262MOL0     C35284   0.600   6.699   8.495 -0.5341  0.1654 -0.1176
  262MOL0     C35285   0.735   6.678   8.517  0.0334 -0.0922  0.0098
  262MOL0     N35286   0.759   6.370   9.120 -0.6147 -0.6256 -0.1337
  262MOL0     N35287   0.678   6.276   9.151 -0.0610  0.0102 -0.6442
  262MOL0     C35288   0.524   5.452   8.909  0.9957  0.2697  0.0814
  262MOL0     C35289   0.654   5.477   8.962 -0.3265 -0.4400 -0.6161
  262MOL0     C35290   1.097   5.564   9.032  0.7420  0.5388 -0.0745
  262MOL0     C35291   1.164   5.464   8.966  0.4119  0.3790  0.2230
  262MOL0     C35292   1.298   5.426   8.989 -0.1871 -0.8266 -1.3257
  262MOL0     C35293   1.362   5.495   9.088 -0.2569 -0.1585  0.7263
  262MOL0     O35294   1.483   5.471   9.149  0.1308  0.0715 -0.0150
  262MOL0     C35295   1.603   5.474   9.078 -0.1645 -0.2096 -0.1019
  262MOL0     C35296   1.656   5.609   9.123  0.0544  0.4600 -0.2317
  262MOL0     C35297   1.683   5.594   9.273 -0.2314 -0.0704 -0.0540
  262MOL0     C35298   1.756   5.714   9.342 -0.5601  0.6723 -0.2167
  262MOL0     C35299   1.664   5.825   9.356 -0.5566  0.5056  0.0025
  262MOL0     C35300   1.590   5.919   9.366 -0.0715 -0.3309 -0.4370
  262MOL0     C35301   1.292   5.594   9.159  0.1490 -0.4309  0.7330
  262MOL0     C35302   1.160   5.624   9.131 -0.0970 -0.6133 -0.1617
  262MOL0     H35303   0.797   5.552   8.656 -1.2165  3.8960  0.1560
  262MOL0     H35304   0.575   5.533   8.587  0.8112 -1.9650 -0.4121
  262MOL0     H35305   0.176   5.424   8.791  3.0725 -3.9008  2.1220
  262MOL0     H35306   0.259   5.504   8.922 -7.6043 -0.1438  1.9514
  262MOL0     H35307   0.196   5.654   8.657 -1.1266 -1.2626  0.5637
  262MOL0     H35308   0.102   5.658   8.803 -0.1306 -0.2162  1.4174
  262MOL0     H35309   0.375   5.756   8.721  0.1917 -2.2929 -0.1165
  262MOL0     H35310   0.230   5.847   8.760  0.9407  0.7110 -1.5765
  262MOL0     H35311   0.250   5.787   9.001 -1.5039  1.5166 -0.1151
  262MOL0     H35312   0.380   5.689   8.971 -1.8718 -0.8747 -0.6759
  262MOL0     H35313   0.405   5.984   8.883  2.0589 -0.1683 -0.5632
  262MOL0     H35314   0.408   5.964   9.060  1.9833  0.7442  0.0662
  262MOL0     H35315   0.589   5.779   9.034  0.3325 -2.1017 -2.4345
  262MOL0     H35316   0.592   5.824   8.870 -3.0116 -1.7721  0.5727
  262MOL0     H35317   0.772   5.951   8.968 -0.2291  1.1551 -2.7064
  262MOL0     H35318   0.641   6.051   8.927  1.4684  0.7121 -0.3030
  262MOL0     H35319   0.717   5.960   9.216 -1.5206 -0.5753  0.2504
  262MOL0     H35320   0.569   6.041   9.179 -0.1910 -0.5693  1.0338
  262MOL0     H35321   0.957   6.118   9.089  1.7240  0.9670  0.7766
  262MOL0     H35322   0.999   6.505   9.056  0.2862  0.3910 -1.0471
  262MOL0     H35323   1.095   6.369   9.101 -0.3737 -3.6415 -1.1862
  262MOL0     H35324   1.024   6.268   8.869  1.1204 -0.3592 -0.8778
  262MOL0     H35325   1.138   6.385   8.861  0.3737 -0.3706  1.2993
  262MOL0     H35326   0.956   6.569   8.822  0.8373  0.1313 -1.7691
  262MOL0     H35327   0.850   6.426   8.831 -0.4155 -1.2704 -3.7158
  262MOL0     H35328   0.947   6.338   8.615  1.1924  0.4731 -2.6357
  262MOL0     H35329   1.085   6.440   8.637  0.9982 -1.0485 -0.2102
  262MOL0     H35330   0.734   6.376   8.665 -4.1316 -0.1725  1.3623
  262MOL0     H35331   0.398   6.381   8.692  0.1916 -1.4840 -0.1521
  262MOL0     H35332   0.417   6.319   8.526 -1.0709 -2.1761  0.9440
  262MOL0     H35333   0.527   6.279   8.656  1.6202  1.8732  0.3857
  262MOL0     H35334   0.130   6.710   8.753  0.5237 -0.0719 -1.1517
  262MOL0     H35335  -0.122   6.677   8.757  1.1811  0.6824 -0.1793
  262MOL0     H35336  -0.233   6.807   8.524 -1.5803  1.1372  4.2243
  262MOL0     H35337  -0.348   6.731   8.410 -1.1692 -0.5477  0.0007
  262MOL0     H35338  -0.493   6.672   8.593  1.7419 -0.6941  0.2724
  262MOL0     H35339  -0.394   6.769   8.711  0.9298  0.9484 -0.3980
  262MOL0     H35340  -0.586   6.891   8.623  0.1903  0.9265  0.1724
  262MOL0     H35341  -0.506   6.892   8.464 -2.9157 -0.7808 -1.0179
  262MOL0     H35342  -0.441   7.026   8.725 -1.2119  1.2595 -0.5432
  262MOL0     H35343  -0.299   6.995   8.628  0.6505  0.1174  0.5219
  262MOL0     H35344  -0.550   7.142   8.554  0.0359 -0.6142  2.5157
  262MOL0     H35345  -0.391   7.129   8.454  1.9317 -1.5394  0.4855
  262MOL0     H35346  -0.428   7.269   8.723 -0.7303  0.5913 -0.0102
  262MOL0     H35347  -0.275   7.240   8.639 -0.3395 -0.3994  1.3319
  262MOL0     H35348  -0.512   7.407   8.539  0.1970  0.8263 -3.6226
  262MOL0     H35349  -0.355   7.374   8.458  2.6487 -0.3417  0.4114
  262MOL0     H35350  -0.395   7.550   8.707 -1.6325 -0.7612 -0.1468
  262MOL0     H35351  -0.357   7.612   8.555 -1.6891 -1.1282 -0.9972
  262MOL0     H35352  -0.089   6.458   8.386 -0.8427 -0.0413 -0.6823
  262MOL0     H35353   0.151   6.459   8.408 -0.0369 -0.0111  0.0389
  262MOL0     H35354   0.570   6.792   8.447  0.8562  0.7248  0.0224
  262MOL0     H35355   0.813   6.740   8.475  0.3673 -1.4679 -1.4766
  262MOL0     H35356   0.452   5.417   8.981  0.3800  0.3123 -0.5032
  262MOL0     H35357   0.701   5.457   9.058 -0.4023  3.3513  0.3920
  262MOL0     H35358   1.109   5.409   8.890 -0.9567  0.7577  0.9146
  262MOL0     H35359   1.341   5.344   8.933 -1.6668  0.0684 -3.8982
  262MOL0     H35360   1.670   5.395   9.114 -0.4676 -0.8062 -0.8101
  262MOL0     H35361   1.593   5.472   8.969  2.1625  1.0611 -0.3884
  262MOL0     H35362   1.593   5.692   9.092 -0.4747 -0.4626 -1.7696
  262MOL0     H35363   1.754   5.621   9.075  2.5951 -3.6344  3.1819
  262MOL0     H35364   1.737   5.501   9.290 -0.8518 -0.1106  2.0117
  262MOL0     H35365   1.592   5.585   9.333 -1.8572  2.1429 -2.0236
  262MOL0     H35366   1.850   5.743   9.294  0.5440  0.9814  2.0006
  262MOL0     H35367   1.782   5.675   9.441 -1.3582 -1.7929 -0.8952
  262MOL0     H35368   1.527   6.005   9.354 -0.9746 -1.0649 -1.1121
  262MOL0     H35369   1.334   5.651   9.241  0.9979 -0.1739  0.1392
  262MOL0     H35370   1.111   5.693   9.200  1.0491  0.3310 -0.2780
  263MOL0     O35371   8.236   2.930   8.920 -0.3122 -0.4513  0.4656
  263MOL0     C35372   8.291   2.853   8.846 -0.4534  0.5409  0.6629
  263MOL0     O35373   8.234   2.797   8.737  0.5319  0.1439  0.1540
  263MOL0     C35374   8.096   2.804   8.707  0.0588  0.4268  0.1990
  263MOL0     C35375   8.042   2.683   8.650 -0.0449 -0.9337 -1.1619
  263MOL0     C35376   7.907   2.674   8.595  1.1407  0.0706 -0.8722
  263MOL0     C35377   7.808   2.760   8.643  0.1810 -0.4031  0.3275
  263MOL0     O35378   7.679   2.737   8.585  0.5417 -0.5166 -0.1581
  263MOL0     C35379   7.594   2.853   8.579 -0.0172 -0.5668 -0.0543
  263MOL0     C35380   7.489   2.796   8.492 -0.4967 -1.1785  0.2949
  263MOL0     C35381   7.364   2.881   8.463  0.1920  0.6019 -0.8282
  263MOL0     C35382   7.249   2.794   8.397 -0.4695  0.1382 -0.7392
  263MOL0     C35383   7.121   2.893   8.382  0.5866 -0.3559 -0.2013
  263MOL0     C35384   7.001   2.818   8.299  0.2583  0.7038 -0.0780
  263MOL0     C35385   6.881   2.907   8.270  0.4545 -0.2621 -0.6718
  263MOL0     C35386   6.761   2.815   8.251  0.0628  0.8128 -0.7319
  263MOL0     N35387   6.763   2.755   8.123  0.5079  0.2754 -0.1204
  263MOL0     C35388   6.798   2.619   8.097 -0.1480 -0.9093 -0.4095
  263MOL0     C35389   6.812   2.601   7.967  0.1781 -0.1153 -0.3991
  263MOL0     C35390   6.835   2.466   7.912  0.3273  0.3109  0.3443
  263MOL0     C35391   6.987   2.440   7.889  0.0779  0.5532 -0.0236
  263MOL0     C35392   7.069   2.466   8.017 -0.4914 -1.0648 -0.3064
  263MOL0     C35393   7.209   2.425   7.999 -0.2217 -0.2557  0.2539
  263MOL0     O35394   7.201   2.282   8.005 -0.3710  0.6093 -0.5110
  263MOL0     C35395   7.300   2.207   8.055  0.4631  0.2066  0.4230
  263MOL0     C35396   7.284   2.066   8.058  0.1276 -0.1819  0.5128
  263MOL0     C35397   7.383   1.981   8.100  0.5677  0.2869  0.6279
  263MOL0     C35398   7.352   1.840   8.069  0.0094 -0.0487  0.5007
  263MOL0     C35399   7.501   2.040   8.154  0.2073 -0.0578 -0.1198
  263MOL0     C35400   7.618   1.958   8.201  1.0206 -0.5222  0.5796
  263MOL0     O35401   7.752   2.006   8.197  0.6667 -0.4728  0.4538
  263MOL0     C35402   7.850   1.930   8.269 -0.4533 -0.4589 -0.3642
  263MOL0     C35403   7.938   1.843   8.200  0.6258  0.6505  0.2366
  263MOL0     C35404   8.034   1.766   8.270 -0.2571 -0.6456 -0.0646
  263MOL0     C35405   8.066   1.805   8.399  0.4042 -0.6349 -0.3464
  263MOL0     O35406   8.169   1.733   8.463  0.9264  0.4889  1.3902
  263MOL0     C35407   8.208   1.768   8.595 -0.0472  0.2791  0.0564
  263MOL0     C35408   8.310   1.883   8.607 -0.6338 -0.7387  0.1526
  263MOL0     C35409   8.443   1.867   8.534 -0.2913 -0.8815 -0.0283
  263MOL0     C35410   8.548   1.981   8.545 -0.1805 -0.1843  0.0131
  263MOL0     C35411   8.687   1.942   8.481 -0.3755 -0.7701 -0.6531
  263MOL0     C35412   8.782   1.841   8.555 -0.5416  0.4503  0.2505
  263MOL0     C35413   8.912   1.841   8.474 -0.9951 -0.3499  0.6461
  263MOL0     C35414   8.993   1.964   8.524 -0.0506 -0.6272 -1.2418
  263MOL0    Cl35415   9.139   1.988   8.417  0.0122  0.2361  0.0825
  263MOL0     C35416   7.983   1.905   8.469 -0.3104 -0.0941  0.3048
  263MOL0     C35417   7.875   1.957   8.401  0.2501 -0.5045  0.6672
  263MOL0     O35418   7.589   1.850   8.243  0.9270 -0.8838 -0.5046
  263MOL0     C35419   7.515   2.175   8.152  0.2612 -0.2340  0.5291
  263MOL0     C35420   7.419   2.263   8.101  0.2024 -0.0040 -0.8050
  263MOL0     N35421   6.797   2.718   7.911 -1.3584 -0.0540  0.0339
  263MOL0     N35422   6.780   2.811   8.006 -0.3307  0.2886  0.5279
  263MOL0     C35423   7.853   2.871   8.728 -1.2724  0.4740 -0.6878
  263MOL0     C35424   7.994   2.894   8.754 -0.7684 -1.1756 -0.1850
  263MOL0     C35425   8.435   2.848   8.852  0.5529  0.8047 -0.9846
  263MOL0     C35426   8.505   2.779   8.751  0.2549 -1.0383  0.6660
  263MOL0     C35427   8.642   2.764   8.752 -1.3739  0.6250 -1.2155
  263MOL0     C35428   8.712   2.804   8.874 -0.9942  0.6529 -0.1493
  263MOL0     O35429   8.848   2.796   8.882 -0.3251 -0.0532  0.0842
  263MOL0     C35430   8.921   2.865   8.776  0.4817  0.2436 -0.4124
  263MOL0     C35431   9.039   2.783   8.738  0.0267 -0.5135  0.4325
  263MOL0     C35432   9.124   2.742   8.861 -0.3572 -0.6466  0.8510
  263MOL0     C35433   9.188   2.857   8.929 -0.4795 -0.3030 -1.2578
  263MOL0     C35434   9.288   2.822   9.029  0.2372  0.3271 -0.0019
  263MOL0     C35435   9.359   2.800   9.125  0.5319 -0.4501  0.3232
  263MOL0     C35436   8.641   2.864   8.976  0.4023 -0.2450 -1.2790
  263MOL0     C35437   8.504   2.886   8.968  0.5599 -0.0608  0.3912
  263MOL0     H35438   8.112   2.600   8.651 -1.0095 -1.7759 -0.1681
  263MOL0     H35439   7.873   2.603   8.521  0.9240 -0.5541 -0.1816
  263MOL0     H35440   7.551   2.882   8.675 -0.6672 -0.7357 -0.2913
  263MOL0     H35441   7.654   2.934   8.535  2.0918 -1.0650  1.7436
  263MOL0     H35442   7.539   2.776   8.397  1.2624 -1.1806  1.1930
  263MOL0     H35443   7.449   2.701   8.529 -2.1964 -0.7042 -0.1874
  263MOL0     H35444   7.336   2.933   8.555  0.2380 -2.3778  1.0165
  263MOL0     H35445   7.379   2.956   8.385  1.3622  2.3718  1.0395
  263MOL0     H35446   7.281   2.746   8.304  1.0186 -0.6041  0.1127
  263MOL0     H35447   7.219   2.711   8.461  1.1755 -2.0643 -2.6569
  263MOL0     H35448   7.086   2.918   8.482 -0.1075 -1.1463 -0.2329
  263MOL0     H35449   7.148   2.987   8.334 -1.0588 -0.4458 -1.4122
  263MOL0     H35450   7.053   2.790   8.208 -2.2719 -0.3824 -1.2897
  263MOL0     H35451   6.979   2.723   8.349  1.1474  0.8183  0.5653
  263MOL0     H35452   6.866   2.960   8.365 -2.1756 -1.3632 -0.3855
  263MOL0     H35453   6.895   2.969   8.181 -0.1121 -1.3869 -1.5736
  263MOL0     H35454   6.662   2.862   8.260 -0.4846 -0.5922  1.1225
  263MOL0     H35455   6.748   2.735   8.324 -2.6884  3.0501  1.5223
  263MOL0     H35456   6.815   2.542   8.171  0.7858 -1.1680 -0.8856
  263MOL0     H35457   6.801   2.389   7.983 -1.6574 -1.6761 -2.5438
  263MOL0     H35458   6.778   2.452   7.820  0.2623  0.0408  0.4256
  263MOL0     H35459   7.037   2.499   7.811 -0.2111 -1.8739 -2.1744
  263MOL0     H35460   6.999   2.334   7.863 -1.3584 -0.6155  3.5065
  263MOL0     H35461   7.031   2.399   8.094  0.9028 -0.0980  1.2913
  263MOL0     H35462   7.067   2.572   8.046  3.6358 -1.5849  2.8873
  263MOL0     H35463   7.268   2.465   8.082 -0.7523 -3.6370  2.4639
  263MOL0     H35464   7.234   2.457   7.897 -1.7367  0.2187  0.0061
  263MOL0     H35465   7.197   2.023   8.010  0.2419 -0.8247  0.8609
  263MOL0     H35466   7.424   1.803   7.996 -0.7388 -0.1360 -0.2026
  263MOL0     H35467   7.349   1.788   8.165  0.0194  1.5953  1.4464
  263MOL0     H35468   7.250   1.827   8.033 -0.1867  1.8198  0.2615
  263MOL0     H35469   7.925   1.810   8.098 -0.5820  1.4698  0.0983
  263MOL0     H35470   8.080   1.682   8.219  0.4120  0.3462 -1.1560
  263MOL0     H35471   8.113   1.794   8.642 -1.5323 -1.6347 -1.7081
  263MOL0     H35472   8.251   1.676   8.635 -0.2185 -0.0690 -0.5401
  263MOL0     H35473   8.268   1.982   8.588 -1.3464 -0.6445  2.0516
  263MOL0     H35474   8.333   1.880   8.714 -0.9656 -0.8367  0.2212
  263MOL0     H35475   8.426   1.874   8.426  0.0305  2.9840  0.0306
  263MOL0     H35476   8.496   1.775   8.562 -0.1888 -0.3745  1.5559
  263MOL0     H35477   8.505   2.064   8.489  2.1651  0.2117 -1.3420
  263MOL0     H35478   8.571   2.018   8.646  1.0401 -1.4032  0.2090
  263MOL0     H35479   8.733   2.041   8.471 -1.9765 -0.0238 -0.9422
  263MOL0     H35480   8.671   1.921   8.376 -3.6465 -0.9753 -0.1982
  263MOL0     H35481   8.802   1.871   8.659  1.9043  0.1052 -0.0567
  263MOL0     H35482   8.744   1.738   8.561  2.5472 -0.7233  2.2297
  263MOL0     H35483   8.889   1.854   8.368  4.3287  0.6514 -0.6832
  263MOL0     H35484   8.964   1.745   8.472  0.5887  0.3673 -3.1466
  263MOL0     H35485   9.021   1.965   8.630  0.5299  1.7243 -1.3622
  263MOL0     H35486   8.932   2.053   8.507  0.0478 -0.7163 -2.0987
  263MOL0     H35487   7.984   1.928   8.575  1.5824 -0.0569  0.3085
  263MOL0     H35488   7.808   2.026   8.452  0.1145  0.6863 -1.0228
  263MOL0     H35489   7.611   2.218   8.180 -0.3666  0.4391  1.6894
  263MOL0     H35490   7.444   2.368   8.110 -0.0267 -0.0805  1.3399
  263MOL0     H35491   7.776   2.937   8.764  0.4687  2.8112 -1.0248
  263MOL0     H35492   8.029   2.989   8.793 -3.1833 -0.1280 -0.4116
  263MOL0     H35493   8.449   2.743   8.666 -1.5674 -2.3056  2.3119
  263MOL0     H35494   8.685   2.715   8.665 -2.6375  0.8405 -1.9853
  263MOL0     H35495   8.858   2.877   8.687  0.8796  1.3404 -0.5657
  263MOL0     H35496   8.939   2.966   8.816 -1.0669 -0.2329  1.6822
  263MOL0     H35497   9.087   2.840   8.657 -2.5040  0.6838 -0.3283
  263MOL0     H35498   9.003   2.688   8.696  0.8732 -1.0345  0.8539
  263MOL0     H35499   9.205   2.683   8.818 -0.4797  0.3220 -0.7898
  263MOL0     H35500   9.071   2.687   8.939  0.0120  0.6807  2.0802
  263MOL0     H35501   9.121   2.929   8.977 -0.3059 -0.4045 -0.8672
  263MOL0     H35502   9.249   2.907   8.853 -0.4939  0.4791 -0.7572
  263MOL0     H35503   9.421   2.771   9.208  2.0952 -1.3385 -1.0958
  263MOL0     H35504   8.674   2.891   9.076 -2.2935 -1.1975 -0.0320
  263MOL0     H35505   8.448   2.927   9.050  1.2692  1.3044  0.2281
  264MOL0     O35506   2.764   1.590  10.022 -0.2166  0.6497 -0.0847
  264MOL0     C35507   2.819   1.546   9.919 -0.3701  0.2337 -0.5718
  264MOL0     O35508   2.770   1.540   9.796 -0.2115  0.4373  0.7344
  264MOL0     C35509   2.640   1.575   9.777  0.3126 -0.5690  0.1836
  264MOL0     C35510   2.596   1.706   9.805 -0.3003  0.8637  0.3128
  264MOL0     C35511   2.470   1.742   9.765  0.7081  1.0464  0.1777
  264MOL0     C35512   2.389   1.654   9.695  0.2354 -0.0267  0.2878
  264MOL0     O35513   2.280   1.708   9.633  0.1836  0.7645 -0.2403
  264MOL0     C35514   2.237   1.648   9.509 -0.4359 -0.2668  0.6130
  264MOL0     C35515   2.146   1.734   9.445  0.3495 -0.0738  0.5017
  264MOL0     C35516   2.199   1.870   9.416 -0.0605  0.8619  0.6222
  264MOL0     C35517   2.330   1.866   9.334 -0.6302 -0.3527  0.3556
  264MOL0     C35518   2.386   2.000   9.284  0.2408 -0.7024  0.3653
  264MOL0     C35519   2.325   2.064   9.166 -0.8845 -0.2267  0.0638
  264MOL0     C35520   2.365   1.988   9.045 -0.7456  1.1556 -1.0166
  264MOL0     C35521   2.292   2.029   8.921 -0.1060  0.0794  0.4256
  264MOL0     N35522   2.160   1.969   8.891  0.4285 -0.0044 -0.0959
  264MOL0     C35523   2.042   2.041   8.910 -0.0041 -0.1828 -0.8958
  264MOL0     C35524   1.950   1.994   8.826  0.0532 -0.2464 -0.7918
  264MOL0     C35525   1.814   2.047   8.815 -0.6978 -0.4542  0.2353
  264MOL0     C35526   1.783   2.164   8.912 -0.1323 -0.4419 -0.9738
  264MOL0     C35527   1.669   2.272   8.860 -0.5425 -0.3308 -0.2679
  264MOL0     C35528   1.716   2.414   8.915  0.4988 -0.9944 -0.2875
  264MOL0     O35529   1.692   2.442   9.050 -0.4038 -0.7616 -0.0899
  264MOL0     C35530   1.573   2.431   9.103  0.8760  0.8176  0.6979
  264MOL0     C35531   1.465   2.511   9.052  0.5178 -0.6171  0.6392
  264MOL0     C35532   1.334   2.477   9.107  0.7500 -1.5995  0.0292
  264MOL0     C35533   1.226   2.558   9.037 -0.6008 -0.1841 -0.0143
  264MOL0     C35534   1.314   2.395   9.218  0.3924  0.4098  1.1858
  264MOL0     C35535   1.185   2.398   9.297  0.5224 -0.9397 -0.1700
  264MOL0     O35536   1.187   2.330   9.412  0.1644 -0.5674  0.2042
  264MOL0     C35537   1.076   2.314   9.493 -0.0648 -0.1566  0.2917
  264MOL0     C35538   1.111   2.262   9.615 -0.0941 -0.1316 -0.1006
  264MOL0     C35539   1.017   2.252   9.720 -0.6937  0.5211 -0.8507
  264MOL0     C35540   0.883   2.274   9.713  0.0503  0.8725 -0.0529
  264MOL0     O35541   0.800   2.241   9.824 -0.2903 -0.5045 -0.7457
  264MOL0     C35542   0.670   2.240   9.784 -0.2993  1.1838 -0.3076
  264MOL0     C35543   0.586   2.202   9.913  0.0424 -0.5449  0.3780
  264MOL0     C35544   0.636   2.071   9.980 -0.0739 -0.2153 -0.7880
  264MOL0     C35545   0.678   1.953   9.891 -0.7159 -0.4210  0.4791
  264MOL0     C35546   0.697   1.820   9.974 -0.1825 -0.4166 -0.1085
  264MOL0     C35547   0.804   1.830  10.084 -0.6430 -0.9203 -0.0547
  264MOL0     C35548   0.935   1.891  10.029 -0.2833  1.2586  0.3450
  264MOL0     C35549   1.034   1.907  10.143 -0.3064  0.1257 -0.2343
  264MOL0    Cl35550   1.078   1.754  10.209 -0.3675  0.3466 -0.0424
  264MOL0     C35551   0.844   2.313   9.583 -0.8427  1.0082  0.4370
  264MOL0     C35552   0.939   2.338   9.479 -0.4030 -0.4860  0.7127
  264MOL0     O35553   1.093   2.470   9.261 -0.1899  0.3236 -0.2210
  264MOL0     C35554   1.420   2.321   9.268 -0.8708 -0.5837 -0.2557
  264MOL0     C35555   1.548   2.341   9.208  0.2909  0.2676  0.4278
  264MOL0     N35556   2.010   1.897   8.753 -0.1828  0.0758 -0.3101
  264MOL0     N35557   2.134   1.886   8.789 -0.4473  0.5793 -0.8887
  264MOL0     C35558   2.427   1.520   9.685  0.4254 -0.5938 -0.7283
  264MOL0     C35559   2.552   1.480   9.725  0.1930 -0.1477  0.0753
  264MOL0     C35560   2.951   1.501   9.945  0.4371 -1.0151  1.1883
  264MOL0     C35561   3.020   1.434   9.851 -0.0923 -0.6463  0.7824
  264MOL0     C35562   3.155   1.406   9.870 -0.0724  0.0543 -0.3568
  264MOL0     C35563   3.226   1.438   9.988 -0.4400  0.9280  0.1239
  264MOL0     O35564   3.351   1.410  10.005 -0.3960  0.0652 -0.3939
  264MOL0     C35565   3.386   1.274  10.040  0.3674 -0.4344  0.3805
  264MOL0     C35566   3.455   1.197   9.928 -0.3575 -1.1873 -0.3333
  264MOL0     C35567   3.412   1.047   9.926 -0.6625  0.1074 -0.4890
  264MOL0     C35568   3.466   0.956  10.042  0.0008 -0.1992 -0.0217
  264MOL0     C35569   3.530   0.831   9.985 -1.1342  0.5240 -0.3494
  264MOL0     C35570   3.595   0.735   9.932  0.1669  0.5127 -0.3195
  264MOL0     C35571   3.144   1.483  10.091 -0.2712  0.2305 -0.5661
  264MOL0     C35572   3.009   1.515  10.070  0.2282  0.6916 -0.4309
  264MOL0     H35573   2.664   1.778   9.849 -0.9627  0.8452  1.3935
  264MOL0     H35574   2.440   1.845   9.787  1.3365  1.4402 -0.7824
  264MOL0     H35575   2.321   1.619   9.446 -1.4811 -4.6006  0.9121
  264MOL0     H35576   2.188   1.553   9.532  0.5885 -1.5150 -1.9904
  264MOL0     H35577   2.116   1.695   9.347  0.1856 -0.9908  0.9135
  264MOL0     H35578   2.055   1.750   9.503 -2.3542  3.2140 -4.0027
  264MOL0     H35579   2.130   1.925   9.351 -0.6477 -1.0990 -0.4764
  264MOL0     H35580   2.200   1.932   9.506 -4.5389  2.1876  0.0434
  264MOL0     H35581   2.404   1.814   9.395 -0.0733 -2.4043 -1.9151
  264MOL0     H35582   2.320   1.804   9.245  0.0581  3.8237 -2.9233
  264MOL0     H35583   2.373   2.075   9.363  2.6278  0.9220 -0.6843
  264MOL0     H35584   2.494   1.984   9.273  0.1485 -0.5014 -0.9611
  264MOL0     H35585   2.216   2.077   9.175 -1.0778 -2.3148  1.4500
  264MOL0     H35586   2.372   2.160   9.143 -0.8516 -0.3720 -0.4980
  264MOL0     H35587   2.474   1.993   9.036 -0.5887 -0.7625 -0.6774
  264MOL0     H35588   2.334   1.886   9.068  0.1077  1.5783  2.5384
  264MOL0     H35589   2.363   1.988   8.848  0.1876 -1.3368  1.4711
  264MOL0     H35590   2.284   2.138   8.914 -1.4047  0.0315  0.9952
  264MOL0     H35591   2.044   2.132   8.969  1.7474 -0.2037 -0.8658
  264MOL0     H35592   1.793   2.080   8.712 -4.0347 -0.6334  0.7213
  264MOL0     H35593   1.746   1.963   8.832 -1.8797  0.4430  0.0675
  264MOL0     H35594   1.871   2.226   8.932 -0.0011 -0.0389 -2.5912
  264MOL0     H35595   1.748   2.131   9.010  1.1788 -0.7338 -0.5797
  264MOL0     H35596   1.573   2.243   8.906 -0.0946 -1.5493 -0.0524
  264MOL0     H35597   1.660   2.273   8.751 -1.8183  0.1113 -0.1774
  264MOL0     H35598   1.668   2.495   8.859  4.0167  1.2215 -0.4042
  264MOL0     H35599   1.820   2.423   8.883 -0.8517 -1.9711 -6.1677
  264MOL0     H35600   1.494   2.589   8.984  0.5236  1.9992  3.4135
  264MOL0     H35601   1.137   2.495   9.027  0.0121 -1.1109  0.2731
  264MOL0     H35602   1.198   2.646   9.095  0.3351 -0.3123  0.6677
  264MOL0     H35603   1.255   2.595   8.938  0.3745  2.1793  1.0788
  264MOL0     H35604   1.218   2.250   9.628  0.0167  2.3438  2.1862
  264MOL0     H35605   1.056   2.209   9.812 -1.2793 -1.5996 -1.5281
  264MOL0     H35606   0.638   2.340   9.756 -0.7812  2.1249  3.2054
  264MOL0     H35607   0.646   2.161   9.712  1.7150 -0.2616  0.5062
  264MOL0     H35608   0.596   2.284   9.984 -1.1934 -1.0576  1.1847
  264MOL0     H35609   0.478   2.203   9.892  0.4393  2.1989 -2.2762
  264MOL0     H35610   0.554   2.031  10.041  3.1643 -0.2259  4.1215
  264MOL0     H35611   0.706   2.100  10.059  1.2673 -1.6330 -1.3973
  264MOL0     H35612   0.607   1.934   9.810 -0.3407  4.9609 -1.5606
  264MOL0     H35613   0.769   1.971   9.832  0.8071 -4.6359  1.2159
  264MOL0     H35614   0.737   1.748   9.902 -0.1400  1.3095 -1.9017
  264MOL0     H35615   0.598   1.794  10.014 -0.4668  0.9306  0.1127
  264MOL0     H35616   0.773   1.898  10.164  0.2491 -1.9966  1.2446
  264MOL0     H35617   0.812   1.732  10.133 -0.7630 -0.0445  1.7912
  264MOL0     H35618   0.917   1.991   9.990  1.8409  0.4983 -2.9728
  264MOL0     H35619   0.984   1.821   9.961  1.0688  1.0893  1.4650
  264MOL0     H35620   0.995   1.969  10.224 -1.6288  1.6729 -1.9730
  264MOL0     H35621   1.126   1.957  10.112 -0.4801  0.7914  0.2937
  264MOL0     H35622   0.741   2.324   9.550 -0.6868 -0.3012 -0.5478
  264MOL0     H35623   0.902   2.372   9.383 -0.1727 -0.8072  0.5044
  264MOL0     H35624   1.404   2.262   9.358 -1.0272 -0.3401 -0.1227
  264MOL0     H35625   1.629   2.290   9.260 -0.1364 -0.2835  0.5615
  264MOL0     H35626   2.370   1.452   9.622  0.0078 -1.5614  0.6427
  264MOL0     H35627   2.573   1.374   9.721 -2.6417 -0.7822  0.3893
  264MOL0     H35628   2.986   1.414   9.750  0.7554  1.2456  0.0762
  264MOL0     H35629   3.206   1.364   9.784  1.3058  0.8603  0.0289
  264MOL0     H35630   3.459   1.262  10.120 -1.1758 -0.8638  1.7847
  264MOL0     H35631   3.296   1.217  10.066 -0.2036  0.3816  0.2346
  264MOL0     H35632   3.564   1.204   9.920 -0.2612 -2.1422 -0.0466
  264MOL0     H35633   3.413   1.237   9.836 -0.2363 -0.7403 -0.1935
  264MOL0     H35634   3.442   1.020   9.824  2.5447  3.1877 -0.5713
  264MOL0     H35635   3.304   1.034   9.936 -0.3195 -1.0229  3.5520
  264MOL0     H35636   3.384   0.930  10.110 -1.0565 -0.4546 -1.3329
  264MOL0     H35637   3.532   1.014  10.107 -2.0117  1.8999  0.2888
  264MOL0     H35638   3.651   0.664   9.875  2.1527  2.5651 -1.0497
  264MOL0     H35639   3.188   1.492  10.190  1.2685  0.1305 -1.2281
  264MOL0     H35640   2.952   1.548  10.157 -1.3633  0.3286 -1.2909
  265MOL0     O35641   1.663   3.689   8.184  0.8724 -0.0641 -0.2165
  265MOL0     C35642   1.678   3.747   8.073  0.6103 -0.5869  0.4022
  265MOL0     O35643   1.578   3.779   7.989  0.4570 -0.3440  0.2910
  265MOL0     C35644   1.442   3.770   8.015 -0.2359 -0.7632  0.4013
  265MOL0     C35645   1.358   3.879   7.984  0.3253 -0.0584  0.1126
  265MOL0     C35646   1.225   3.885   8.033  0.8782 -0.1990  0.1251
  265MOL0     C35647   1.170   3.772   8.101 -0.1505 -0.2216  0.4356
  265MOL0     O35648   1.045   3.793   8.150  0.1301  0.2761  0.0271
  265MOL0     C35649   0.988   3.686   8.226  0.3714  0.7648 -0.1299
  265MOL0     C35650   0.864   3.735   8.298 -0.7375 -0.4509  0.0016
  265MOL0     C35651   0.788   3.632   8.381  0.5917 -0.2287  0.0724
  265MOL0     C35652   0.679   3.713   8.452  0.9876 -0.2907 -0.0249
  265MOL0     C35653   0.565   3.618   8.499  0.1673 -0.0902 -0.0877
  265MOL0     C35654   0.438   3.684   8.575 -0.5443 -0.0930 -0.0177
  265MOL0     C35655   0.330   3.593   8.618 -0.6948  0.4980  0.9521
  265MOL0     C35656   0.194   3.657   8.654 -0.0001 -1.0293 -0.7881
  265MOL0     N35657   0.202   3.748   8.774  0.1647  0.4303  1.2093
  265MOL0     C35658   0.145   3.868   8.784  0.3669 -0.4110 -0.1278
  265MOL0     C35659   0.180   3.918   8.904 -0.1364  0.3579 -0.7544
  265MOL0     C35660   0.142   4.037   8.975 -0.3644 -0.1411 -1.2029
  265MOL0     C35661   0.092   3.996   9.113 -0.2604 -0.2309  0.7521
  265MOL0     C35662  -0.011   4.101   9.157  0.7132 -0.0713  0.2064
  265MOL0     C35663  -0.042   4.101   9.312  0.7553 -0.1369  0.7683
  265MOL0     O35664   0.071   4.167   9.376  0.7298 -0.2214  0.2409
  265MOL0     C35665   0.123   4.121   9.487  0.1108 -0.0138 -0.5069
  265MOL0     C35666   0.081   4.017   9.574 -0.1444  0.6522  0.4741
  265MOL0     C35667   0.140   3.995   9.696  1.3011 -0.0500 -0.2322
  265MOL0     C35668   0.065   3.892   9.775 -1.3513  0.4087  0.1200
  265MOL0     C35669   0.243   4.079   9.739  0.0141 -0.4584 -0.5517
  265MOL0     C35670   0.330   4.069   9.855 -0.3920  1.0923 -0.3677
  265MOL0     O35671   0.390   4.171   9.919  0.4525 -0.2904  0.3460
  265MOL0     C35672   0.465   4.144  10.027  0.2852 -0.2451  0.0851
  265MOL0     C35673   0.590   4.084  10.027  0.9001  1.1323 -0.3994
  265MOL0     C35674   0.670   4.100  10.152 -0.0294 -0.0502 -0.4999
  265MOL0     C35675   0.608   4.147  10.270 -0.3880  1.0853 -0.4970
  265MOL0     O35676   0.678   4.148  10.391  0.0934  0.2373 -0.1170
  265MOL0     C35677   0.648   4.214  10.514  0.4502  0.4671 -0.3023
  265MOL0     C35678   0.748   4.154  10.623  0.4377 -0.9382  0.5211
  265MOL0     C35679   0.703   4.194  10.767  0.5959 -0.4917 -0.3571
  265MOL0     C35680   0.810   4.128  10.871  0.7301 -0.0968 -0.2029
  265MOL0     C35681   0.804   4.191  11.010 -0.4805 -0.1471  0.0022
  265MOL0     C35682   0.679   4.144  11.082 -0.0976  0.3085  0.2467
  265MOL0     C35683   0.676   4.198  11.227 -0.0351  0.5508 -0.0314
  265MOL0     C35684   0.530   4.200  11.270  0.2551 -0.2984 -0.6294
  265MOL0    Cl35685   0.452   4.038  11.277  0.2170  0.1078 -0.1997
  265MOL0     C35686   0.489   4.202  10.262 -0.3544  0.8652 -0.4731
  265MOL0     C35687   0.411   4.201  10.142 -0.7930 -0.2244  0.0305
  265MOL0     O35688   0.335   3.948   9.893  0.6172 -0.4801 -0.3175
  265MOL0     C35689   0.283   4.183   9.656  0.1294 -1.3041 -0.0761
  265MOL0     C35690   0.219   4.209   9.534 -0.2574  0.5098  0.6761
  265MOL0     N35691   0.247   3.807   8.963 -0.7040  0.4812 -0.3179
  265MOL0     N35692   0.272   3.706   8.882 -0.5423  0.1372 -0.6895
  265MOL0     C35693   1.249   3.655   8.116  0.0974  0.3337 -0.6618
  265MOL0     C35694   1.384   3.660   8.086 -0.9439  0.8222  0.6903
  265MOL0     C35695   1.817   3.779   8.037  0.3536  0.4334 -0.5436
  265MOL0     C35696   1.927   3.765   8.130 -0.7036 -0.0988  0.1838
  265MOL0     C35697   2.061   3.780   8.090  0.8785  0.2078  0.0232
  265MOL0     C35698   2.088   3.810   7.960  0.3266 -1.3637  0.2305
  265MOL0     O35699   2.223   3.800   7.923 -0.0886  0.7032  0.4438
  265MOL0     C35700   2.297   3.923   7.944  0.4915 -0.4855 -0.8503
  265MOL0     C35701   2.300   4.019   7.826  0.6404 -0.0847  0.3599
  265MOL0     C35702   2.376   3.967   7.707 -0.1572  0.0883 -0.4449
  265MOL0     C35703   2.522   3.948   7.732  0.5799 -0.0651  0.5744
  265MOL0     C35704   2.599   4.077   7.729  1.1794  0.2772  0.0856
  265MOL0     C35705   2.664   4.178   7.754  0.1189 -0.1619  0.7390
  265MOL0     C35706   1.980   3.825   7.874 -0.5080  0.5401 -0.0421
  265MOL0     C35707   1.850   3.808   7.905  0.3328 -0.4742 -0.1499
  265MOL0     H35708   1.410   3.958   7.932 -0.9976  1.5183  1.0673
  265MOL0     H35709   1.157   3.969   8.022  1.4059  0.3494  0.9343
  265MOL0     H35710   0.953   3.605   8.160  1.1234  2.2596 -2.4909
  265MOL0     H35711   1.060   3.641   8.295 -1.0064 -1.4412 -0.0108
  265MOL0     H35712   0.893   3.829   8.346 -1.4042 -0.3590  0.2429
  265MOL0     H35713   0.800   3.756   8.212 -0.0810  2.4309  0.1093
  265MOL0     H35714   0.733   3.570   8.310 -0.6373  1.8715 -0.9214
  265MOL0     H35715   0.852   3.573   8.447  0.5071  0.5356  0.8516
  265MOL0     H35716   0.721   3.767   8.536 -1.4940  2.5910 -0.4449
  265MOL0     H35717   0.650   3.788   8.378 -0.4681 -1.1136 -0.3426
  265MOL0     H35718   0.529   3.570   8.407  0.7405 -1.3315  0.3159
  265MOL0     H35719   0.601   3.544   8.571  1.7924  1.2163  0.5058
  265MOL0     H35720   0.473   3.736   8.665 -0.7611  0.7969 -0.4306
  265MOL0     H35721   0.393   3.756   8.506 -1.3274 -1.3469 -0.8625
  265MOL0     H35722   0.317   3.509   8.549  0.8766  0.9197  0.0772
  265MOL0     H35723   0.379   3.545   8.703 -0.8943 -0.3261  0.6143
  265MOL0     H35724   0.124   3.578   8.678 -0.7384 -0.2848 -0.4465
  265MOL0     H35725   0.153   3.709   8.566  0.5424  0.4896 -0.1790
  265MOL0     H35726   0.076   3.915   8.714 -2.4790 -0.4127  2.4558
  265MOL0     H35727   0.228   4.103   8.988 -2.4412  2.8865 -1.7737
  265MOL0     H35728   0.059   4.084   8.921 -0.3074  1.4498  0.0331
  265MOL0     H35729   0.175   3.996   9.185 -0.2984  0.4314  0.8010
  265MOL0     H35730   0.050   3.895   9.114 -2.3088  0.4569 -2.4160
  265MOL0     H35731  -0.103   4.087   9.099  0.7329 -2.3848  0.6336
  265MOL0     H35732   0.022   4.201   9.128 -1.4478  1.0252  1.3827
  265MOL0     H35733  -0.057   3.996   9.339  0.9116 -0.0931  1.0254
  265MOL0     H35734  -0.139   4.147   9.332  0.9503  0.0935  1.1774
  265MOL0     H35735  -0.002   3.955   9.541 -0.9234  2.3653 -0.9138
  265MOL0     H35736   0.115   3.881   9.872  2.7841 -1.8260 -1.9961
  265MOL0     H35737  -0.042   3.915   9.776 -1.7045 -0.8826  3.1251
  265MOL0     H35738   0.072   3.793   9.728 -1.0651  1.1810 -1.5614
  265MOL0     H35739   0.629   4.026   9.944  2.0020 -2.8095  2.5983
  265MOL0     H35740   0.767   4.053  10.146 -0.9958 -1.9201 -3.3636
  265MOL0     H35741   0.653   4.323  10.515  0.6123  0.4679 -0.7445
  265MOL0     H35742   0.545   4.189  10.542  0.4351 -0.7431 -1.3142
  265MOL0     H35743   0.757   4.046  10.609 -0.5424 -0.9880  0.1933
  265MOL0     H35744   0.847   4.197  10.603 -0.9395  1.0870 -2.4616
  265MOL0     H35745   0.600   4.161  10.782  0.8370 -0.7697  0.7712
  265MOL0     H35746   0.700   4.302  10.780  1.5539 -0.3466 -1.2195
  265MOL0     H35747   0.778   4.023  10.863  0.0884 -0.1430  2.2507
  265MOL0     H35748   0.910   4.149  10.831  1.4165 -0.7623  1.0958
  265MOL0     H35749   0.804   4.300  10.995 -0.6084 -0.3225 -1.3070
  265MOL0     H35750   0.882   4.157  11.079 -3.2298 -3.0376  1.9721
  265MOL0     H35751   0.591   4.184  11.031 -0.6474  1.1781  1.8246
  265MOL0     H35752   0.682   4.034  11.086 -1.6675  0.2327 -0.1410
  265MOL0     H35753   0.723   4.297  11.231 -0.7951  1.0984 -2.6483
  265MOL0     H35754   0.714   4.126  11.300 -3.6293 -0.2254  1.2626
  265MOL0     H35755   0.474   4.271  11.208  1.6859  2.5912  1.1888
  265MOL0     H35756   0.520   4.256  11.364  1.6882  0.6967 -1.0356
  265MOL0     H35757   0.453   4.256  10.349  0.0383  0.9921 -0.3900
  265MOL0     H35758   0.311   4.238  10.160 -0.9464 -1.4923  2.0476
  265MOL0     H35759   0.360   4.253   9.685  1.2490 -2.7652  0.5986
  265MOL0     H35760   0.241   4.293   9.467  0.6488  0.1779  0.5363
  265MOL0     H35761   1.220   3.563   8.166  1.8426 -0.4352 -0.9906
  265MOL0     H35762   1.454   3.581   8.112  1.2410  2.5710  0.4879
  265MOL0     H35763   1.916   3.732   8.233  4.1133  0.1479  1.0018
  265MOL0     H35764   2.143   3.760   8.158 -0.3380 -0.4182  1.3654
  265MOL0     H35765   2.238   3.976   8.019 -0.9933  0.6302 -2.7083
  265MOL0     H35766   2.401   3.897   7.970  1.4573 -0.0315 -3.9197
  265MOL0     H35767   2.327   4.122   7.851  2.3127 -0.2672 -0.5857
  265MOL0     H35768   2.201   4.029   7.780  1.0631 -0.0855 -0.5826
  265MOL0     H35769   2.368   4.033   7.620  2.8785 -1.0206 -1.7087
  265MOL0     H35770   2.342   3.868   7.677  2.1129 -0.4813 -1.3471
  265MOL0     H35771   2.553   3.900   7.639  1.6189  2.8267 -0.6847
  265MOL0     H35772   2.542   3.889   7.822  1.5459 -0.0962  0.3435
  265MOL0     H35773   2.715   4.273   7.758 -0.8806  0.4321 -0.3024
  265MOL0     H35774   2.003   3.833   7.769 -2.5294  2.4806 -0.4181
  265MOL0     H35775   1.774   3.810   7.827 -0.8561  0.2023  0.9839
  266MOL0     O35776   5.809   0.113   8.512 -0.2217  0.6169 -0.9196
  266MOL0     C35777   5.727   0.208   8.519  0.6928 -0.1285 -0.5771
  266MOL0     O35778   5.624   0.222   8.610  0.4461 -0.0932  0.4877
  266MOL0     C35779   5.597   0.131   8.710  0.2482 -0.8225  0.2873
  266MOL0     C35780   5.551   0.191   8.824  0.4407  0.4997 -1.4863
  266MOL0     C35781   5.526   0.106   8.939  0.5245  0.1874  0.4503
  266MOL0     C35782   5.530  -0.033   8.929 -0.3192  0.9930 -0.6229
  266MOL0     O35783   5.510  -0.119   9.030  0.0620 -0.2351 -0.8712
  266MOL0     C35784   5.372  -0.135   9.070 -0.1217 -0.7619 -0.1821
  266MOL0     C35785   5.331  -0.267   9.020 -0.2616  0.0397  0.0280
  266MOL0     C35786   5.284  -0.360   9.128  0.1154  0.4180  0.2352
  266MOL0     C35787   5.223  -0.483   9.051 -0.7606 -1.1396  0.2415
  266MOL0     C35788   5.178  -0.590   9.155 -0.0429 -0.3070  0.1964
  266MOL0     C35789   5.076  -0.688   9.093 -0.3241 -0.4649 -0.4879
  266MOL0     C35790   4.933  -0.626   9.085  0.3882  0.4011  0.8572
  266MOL0     C35791   4.858  -0.587   9.212 -1.0729  0.4113  0.2329
  266MOL0     N35792   4.738  -0.514   9.178  0.2286  0.0520 -0.2949
  266MOL0     C35793   4.608  -0.561   9.167 -0.0114  1.0904  0.1535
  266MOL0     C35794   4.532  -0.466   9.124 -0.3834  0.0756  0.4484
  266MOL0     C35795   4.384  -0.461   9.111 -0.2970 -0.0384  0.3340
  266MOL0     C35796   4.341  -0.487   8.962 -0.2657  0.0872 -0.3089
  266MOL0     C35797   4.190  -0.488   8.950 -1.2247  0.2870 -0.1127
  266MOL0     C35798   4.141  -0.586   8.846 -0.2847  0.6098 -0.0531
  266MOL0     O35799   3.999  -0.580   8.837 -0.5324  0.2985 -0.7009
  266MOL0     C35800   3.943  -0.678   8.757 -0.0541 -0.1398 -0.4436
  266MOL0     C35801   3.816  -0.719   8.793 -0.9145  0.3958  0.9164
  266MOL0     C35802   3.749  -0.827   8.724  0.7290  0.2645 -0.9361
  266MOL0     C35803   3.620  -0.874   8.792 -0.3601 -0.2941 -0.8610
  266MOL0     C35804   3.801  -0.874   8.603 -0.3210 -0.2619  0.6541
  266MOL0     C35805   3.744  -0.980   8.519  0.3142 -0.6911  0.6203
  266MOL0     O35806   3.833  -1.059   8.449  0.0359  0.5411  0.1873
  266MOL0     C35807   3.786  -1.157   8.358 -0.1038 -0.7742 -0.1206
  266MOL0     C35808   3.726  -1.111   8.237 -0.5605  0.6287  0.7752
  266MOL0     C35809   3.705  -1.211   8.136  0.0889  0.9005  0.1745
  266MOL0     C35810   3.742  -1.344   8.159  0.1947 -0.6845  0.0364
  266MOL0     O35811   3.722  -1.447   8.070  0.0187  0.2198  0.0504
  266MOL0     C35812   3.604  -1.442   7.993 -0.2164  0.2512 -0.4359
  266MOL0     C35813   3.605  -1.561   7.885  0.2401 -0.1136 -0.1700
  266MOL0     C35814   3.542  -1.689   7.948  0.4825  1.1558  0.7776
  266MOL0     C35815   3.499  -1.790   7.836 -0.0456  0.3798 -0.0081
  266MOL0     C35816   3.424  -1.907   7.904  0.2938 -0.8825  0.7348
  266MOL0     C35817   3.511  -2.006   7.980 -0.1139  0.0531  0.7548
  266MOL0     C35818   3.593  -2.091   7.879  0.3866  0.4835 -0.2522
  266MOL0     C35819   3.665  -2.213   7.930  0.9745  0.3917 -0.2184
  266MOL0    Cl35820   3.546  -2.349   7.987  0.1894  0.1266  0.2405
  266MOL0     C35821   3.793  -1.388   8.280 -0.0125 -0.0358 -0.0227
  266MOL0     C35822   3.816  -1.295   8.381  0.9344  0.9483 -0.1784
  266MOL0     O35823   3.623  -0.995   8.526  0.3385 -0.2916 -0.3904
  266MOL0     C35824   3.924  -0.812   8.559  0.2106  0.9150  0.8658
  266MOL0     C35825   3.996  -0.724   8.632  0.7771  1.0185 -0.5997
  266MOL0     N35826   4.611  -0.363   9.084 -0.1937  0.4250 -1.0922
  266MOL0     N35827   4.734  -0.392   9.122  0.5191 -0.4625  0.1346
  266MOL0     C35828   5.591  -0.086   8.818  0.2192  0.5425 -0.3203
  266MOL0     C35829   5.621  -0.010   8.707 -0.1668 -0.6613  0.8611
  266MOL0     C35830   5.773   0.337   8.457  1.1422 -0.6618  0.8739
  266MOL0     C35831   5.900   0.338   8.396 -0.3051  0.6509  0.5940
  266MOL0     C35832   5.931   0.437   8.308  0.7644  0.6668  0.1719
  266MOL0     C35833   5.849   0.550   8.291  0.0672 -0.3499  0.2123
  266MOL0     O35834   5.874   0.654   8.205 -0.3953  0.5709 -0.1645
  266MOL0     C35835   5.963   0.630   8.098  0.4434  0.3872  0.1665
  266MOL0     C35836   6.097   0.683   8.129  0.1184  0.2828 -0.2640
  266MOL0     C35837   6.097   0.841   8.151  0.6563  0.1382 -0.9019
  266MOL0     C35838   6.229   0.900   8.183 -0.0040  0.0787 -0.4238
  266MOL0     C35839   6.218   1.051   8.208  0.0828  0.2882  0.3147
  266MOL0     C35840   6.197   1.168   8.217  0.3067 -0.5040  1.3049
  266MOL0     C35841   5.730   0.563   8.362 -1.2876 -0.5281  0.2207
  266MOL0     C35842   5.690   0.453   8.449  0.8573 -1.1870 -0.5373
  266MOL0     H35843   5.525   0.296   8.828 -1.5263  0.1116 -2.8083
  266MOL0     H35844   5.502   0.163   9.028  0.2374 -0.1781  0.6109
  266MOL0     H35845   5.357  -0.145   9.178  0.3635 -2.6265 -0.2581
  266MOL0     H35846   5.317  -0.048   9.030 -1.7063 -1.2342  0.8674
  266MOL0     H35847   5.257  -0.253   8.941  0.5618 -5.5744 -2.2519
  266MOL0     H35848   5.412  -0.322   8.971 -2.3374 -0.5158 -3.0933
  266MOL0     H35849   5.364  -0.405   9.188  0.0534 -0.8276 -0.6024
  266MOL0     H35850   5.198  -0.319   9.182 -0.5621 -1.7043  0.8290
  266MOL0     H35851   5.138  -0.443   8.994 -3.1760 -1.7524  3.1291
  266MOL0     H35852   5.295  -0.525   8.981 -2.0194 -0.4336 -1.5635
  266MOL0     H35853   5.271  -0.639   9.187  0.0574 -0.6878 -0.6494
  266MOL0     H35854   5.137  -0.559   9.251 -0.6079  1.0920 -0.4675
  266MOL0     H35855   5.108  -0.727   8.996  0.1603 -1.9765  0.2408
  266MOL0     H35856   5.054  -0.776   9.155 -0.6965  0.4828  0.7639
  266MOL0     H35857   4.934  -0.558   9.000  2.3034 -2.3707 -1.5664
  266MOL0     H35858   4.879  -0.714   9.049 -0.6653  0.4168  2.2751
  266MOL0     H35859   4.925  -0.529   9.276 -0.5194 -0.1642  0.1914
  266MOL0     H35860   4.843  -0.681   9.265 -1.0131  0.4940  0.3950
  266MOL0     H35861   4.566  -0.652   9.208 -1.7123  1.1153 -1.4123
  266MOL0     H35862   4.337  -0.543   9.166 -0.5880 -1.0358 -1.3509
  266MOL0     H35863   4.337  -0.369   9.146 -3.4983 -1.8511  1.2087
  266MOL0     H35864   4.387  -0.579   8.923 -0.3772  0.3334 -1.0393
  266MOL0     H35865   4.388  -0.407   8.905 -0.3295 -0.2128 -0.7949
  266MOL0     H35866   4.148  -0.388   8.941  0.4913  1.3468  2.4121
  266MOL0     H35867   4.156  -0.520   9.049 -2.0821  2.2036  0.2512
  266MOL0     H35868   4.181  -0.684   8.872 -0.5659  0.7538  0.9695
  266MOL0     H35869   4.186  -0.563   8.749 -1.2889 -0.2721 -0.7535
  266MOL0     H35870   3.788  -0.672   8.887 -0.8232  3.3421 -0.4222
  266MOL0     H35871   3.597  -0.811   8.879  1.9411  0.9528 -1.0876
  266MOL0     H35872   3.532  -0.868   8.726 -3.1230 -2.7475  2.2220
  266MOL0     H35873   3.616  -0.976   8.833  0.2596  0.2983  0.7625
  266MOL0     H35874   3.697  -1.006   8.235  3.3690  1.8826 -0.2255
  266MOL0     H35875   3.653  -1.173   8.049  0.1502  0.8801  0.1297
  266MOL0     H35876   3.515  -1.453   8.055  1.6467 -0.6279  2.3065
  266MOL0     H35877   3.593  -1.350   7.936  1.5456  0.0810 -1.1219
  266MOL0     H35878   3.541  -1.527   7.804 -2.1097 -1.3609  1.0536
  266MOL0     H35879   3.705  -1.583   7.847 -0.1006  0.5487 -1.4997
  266MOL0     H35880   3.460  -1.657   8.013  0.0045  2.5558 -0.4545
  266MOL0     H35881   3.630  -1.724   8.004  1.2402  1.1425 -0.3877
  266MOL0     H35882   3.439  -1.743   7.758  1.0666  0.4616 -0.8348
  266MOL0     H35883   3.584  -1.819   7.774 -0.3798 -0.5237 -0.0616
  266MOL0     H35884   3.371  -1.961   7.825  0.0502  1.0403 -0.4799
  266MOL0     H35885   3.350  -1.851   7.961  0.2195  4.0514 -3.4933
  266MOL0     H35886   3.580  -1.947   8.040  1.9443  0.6957 -2.0480
  266MOL0     H35887   3.456  -2.063   8.056  1.7217 -0.7314  1.5577
  266MOL0     H35888   3.672  -2.029   7.836 -2.1102  3.0167 -1.5721
  266MOL0     H35889   3.528  -2.114   7.793  0.3266  3.6870 -1.1871
  266MOL0     H35890   3.720  -2.186   8.021  1.4428 -1.3796  0.0788
  266MOL0     H35891   3.728  -2.267   7.859  1.3830 -2.0644  1.8490
  266MOL0     H35892   3.839  -1.487   8.278 -0.4571 -0.2727  1.0024
  266MOL0     H35893   3.868  -1.328   8.470  1.8425  3.5339  0.3372
  266MOL0     H35894   3.970  -0.852   8.469 -0.8501 -0.0190  0.7124
  266MOL0     H35895   4.088  -0.678   8.598  1.4651 -0.8703 -1.4690
  266MOL0     H35896   5.611  -0.192   8.808 -0.9445  0.3629 -0.8602
  266MOL0     H35897   5.667  -0.054   8.619 -0.2633  2.3462 -0.8161
  266MOL0     H35898   5.968   0.254   8.405 -1.6695 -0.9042 -2.0938
  266MOL0     H35899   6.018   0.421   8.245  0.8196 -1.6714  0.7626
  266MOL0     H35900   5.970   0.523   8.078 -1.2529 -0.0232  1.4601
  266MOL0     H35901   5.921   0.663   8.002  0.4811 -0.4323 -0.1413
  266MOL0     H35902   6.139   0.662   8.030 -2.2838  3.6116 -2.1709
  266MOL0     H35903   6.144   0.630   8.213 -2.1790 -0.8895  0.3814
  266MOL0     H35904   6.034   0.876   8.233  2.0271 -0.4083  0.4115
  266MOL0     H35905   6.057   0.894   8.063 -2.4364  2.5682  1.6757
  266MOL0     H35906   6.301   0.876   8.104 -1.5193  0.3918 -1.9582
  266MOL0     H35907   6.260   0.853   8.277 -0.5268 -0.0122 -0.2938
  266MOL0     H35908   6.170   1.270   8.235 -1.7430 -1.0890  1.7260
  266MOL0     H35909   5.669   0.652   8.353 -0.3414  0.0064 -1.1372
  266MOL0     H35910   5.601   0.469   8.511  0.5852 -0.2097 -1.1530
  267MOL0     O35911   7.675   8.403   8.038 -0.5111 -0.2170  0.5345
  267MOL0     C35912   7.616   8.318   7.966  0.2741  0.4162  0.1149
  267MOL0     O35913   7.677   8.235   7.878 -0.8758  0.4326  0.0143
  267MOL0     C35914   7.776   8.287   7.809  1.4183 -0.0876 -0.2896
  267MOL0     C35915   7.779   8.416   7.753  0.5804 -0.3668  0.5941
  267MOL0     C35916   7.888   8.457   7.677 -0.4888  0.0044  0.3621
  267MOL0     C35917   7.992   8.370   7.640 -0.2000  0.0065 -0.4690
  267MOL0     O35918   8.081   8.412   7.542  0.1010 -1.0859  0.0379
  267MOL0     C35919   8.215   8.365   7.565 -0.2766  0.0341  0.0992
  267MOL0     C35920   8.282   8.393   7.436 -0.4178  0.0742  0.2277
  267MOL0     C35921   8.207   8.328   7.311  0.3880 -0.2682 -0.5249
  267MOL0     C35922   8.298   8.318   7.186  0.3612 -0.3040  0.0315
  267MOL0     C35923   8.248   8.233   7.076  0.1349  0.5851  0.5319
  267MOL0     C35924   8.347   8.234   6.950 -0.0560 -0.6468 -0.1061
  267MOL0     C35925   8.355   8.362   6.878 -0.7120  0.8829  0.1865
  267MOL0     C35926   8.225   8.436   6.835 -0.2776 -0.6673 -0.3041
  267MOL0     N35927   8.224   8.558   6.761 -0.4718  0.5981 -0.0626
  267MOL0     C35928   8.313   8.586   6.667  0.1690  0.6729  0.7660
  267MOL0     C35929   8.254   8.682   6.589  0.0612 -0.3324  0.2514
  267MOL0     C35930   8.320   8.750   6.470 -0.3212 -0.0783 -0.1073
  267MOL0     C35931   8.240   8.858   6.391  0.3959  0.5975 -0.3577
  267MOL0     C35932   8.133   8.797   6.296 -0.0267 -0.2728 -0.1004
  267MOL0     C35933   8.062   8.883   6.193  0.6783 -0.7611  0.9846
  267MOL0     O35934   8.154   8.930   6.091 -0.1383 -0.2610 -0.0562
  267MOL0     C35935   8.107   8.990   5.976 -0.7211 -0.5666  0.0287
  267MOL0     C35936   8.205   9.027   5.888  0.0690  0.0573 -0.6699
  267MOL0     C35937   8.175   9.094   5.767 -0.2258  0.4760  0.9425
  267MOL0     C35938   8.291   9.112   5.660  0.0129 -0.1162 -0.4238
  267MOL0     C35939   8.042   9.122   5.734 -0.9728 -0.2058  0.2760
  267MOL0     C35940   7.992   9.205   5.619  0.2476 -0.1247 -0.1558
  267MOL0     O35941   7.856   9.213   5.605 -1.1514  0.1061  0.1369
  267MOL0     C35942   7.822   9.291   5.497 -0.0243  0.6278  0.2213
  267MOL0     C35943   7.832   9.252   5.360 -0.8304 -1.0099 -0.7053
  267MOL0     C35944   7.784   9.326   5.257 -0.3823 -0.0777 -0.7324
  267MOL0     C35945   7.729   9.449   5.275 -0.5744 -0.0938  0.3712
  267MOL0     O35946   7.686   9.515   5.162  0.3464  0.2451  0.3756
  267MOL0     C35947   7.616   9.635   5.178 -0.2697 -0.1623 -0.7337
  267MOL0     C35948   7.600   9.697   5.045  0.4119 -0.7397  0.9283
  267MOL0     C35949   7.502   9.630   4.947 -0.1287  0.5939  0.0509
  267MOL0     C35950   7.361   9.688   4.957  0.1651 -0.4382  0.0697
  267MOL0     C35951   7.356   9.834   4.927  0.4907 -0.1773  0.3484
  267MOL0     C35952   7.213   9.874   4.872  0.1446  0.0577 -0.2256
  267MOL0     C35953   7.209  10.019   4.818  0.0992 -0.3235  0.4671
  267MOL0     C35954   7.078  10.078   4.835 -0.7694 -0.4134 -0.2262
  267MOL0    Cl35955   7.071  10.231   4.732 -0.2136  0.2153  0.1335
  267MOL0     C35956   7.710   9.495   5.409 -0.1991 -0.3826  0.5665
  267MOL0     C35957   7.752   9.415   5.518  0.9419 -0.5919 -1.2014
  267MOL0     O35958   8.072   9.268   5.554 -0.7171 -0.3747  0.0132
  267MOL0     C35959   7.950   9.089   5.830  0.2462 -0.6329 -0.6095
  267MOL0     C35960   7.975   9.035   5.950 -0.3301 -0.2338 -1.1020
  267MOL0     N35961   8.131   8.709   6.637 -0.5202 -0.5172 -0.1305
  267MOL0     N35962   8.113   8.632   6.743  0.0575  0.4187  0.5492
  267MOL0     C35963   7.997   8.243   7.694  0.4309 -0.9803 -0.1367
  267MOL0     C35964   7.885   8.199   7.777 -0.8784  0.4437  0.0239
  267MOL0     C35965   7.470   8.325   7.978 -0.5962 -0.0099  1.0552
  267MOL0     C35966   7.388   8.241   7.899  0.0147 -0.3521 -0.6734
  267MOL0     C35967   7.250   8.240   7.920 -0.4584 -0.2104  0.0477
  267MOL0     C35968   7.192   8.313   8.019  0.3627 -0.2438 -0.3360
  267MOL0     O35969   7.055   8.316   8.047 -0.1731  0.0690 -0.7881
  267MOL0     C35970   6.962   8.280   7.955  0.9721  0.5061  0.6060
  267MOL0     C35971   6.813   8.325   7.991 -0.2914 -0.0724  0.1346
  267MOL0     C35972   6.819   8.427   8.108 -0.5255  0.9431 -0.0068
  267MOL0     C35973   6.688   8.480   8.148  0.7128 -0.4448 -0.0978
  267MOL0     C35974   6.673   8.549   8.278  0.4189  0.1966 -0.4405
  267MOL0     C35975   6.673   8.593   8.387 -0.4317 -0.2215 -0.3463
  267MOL0     C35976   7.274   8.389   8.105  0.4895 -0.3929  0.2077
  267MOL0     C35977   7.405   8.397   8.077  0.2044  0.8204 -0.0725
  267MOL0     H35978   7.689   8.476   7.757 -2.7348 -4.5877 -1.5536
  267MOL0     H35979   7.878   8.556   7.634 -0.9089  0.1274  0.7417
  267MOL0     H35980   8.277   8.428   7.629  2.6767 -0.0672 -2.4002
  267MOL0     H35981   8.225   8.260   7.593 -0.5906 -0.0860 -0.2216
  267MOL0     H35982   8.290   8.502   7.432 -1.5839  0.3435  3.0351
  267MOL0     H35983   8.384   8.354   7.446  1.3172  3.8687 -0.7958
  267MOL0     H35984   8.182   8.225   7.338 -2.1245  0.7008  1.3560
  267MOL0     H35985   8.120   8.391   7.289  1.8062  1.5641 -1.1301
  267MOL0     H35986   8.329   8.414   7.144  0.5671 -0.6045 -0.5248
  267MOL0     H35987   8.388   8.281   7.237 -0.2469 -0.2329  1.1807
  267MOL0     H35988   8.242   8.130   7.111 -0.3057  1.1237  2.0873
  267MOL0     H35989   8.151   8.262   7.035  0.9842 -0.9886 -2.9418
  267MOL0     H35990   8.446   8.201   6.983 -0.4029 -1.9083 -0.2749
  267MOL0     H35991   8.303   8.163   6.880 -0.4470 -0.1444 -0.3730
  267MOL0     H35992   8.421   8.427   6.936 -0.6344 -0.2536  1.3946
  267MOL0     H35993   8.410   8.347   6.785  1.6962 -0.1715  1.7040
  267MOL0     H35994   8.175   8.461   6.929  1.9188  0.0570  0.7533
  267MOL0     H35995   8.173   8.361   6.776 -1.7797  2.0563 -2.6833
  267MOL0     H35996   8.411   8.540   6.675 -0.3215 -0.1156  5.7033
  267MOL0     H35997   8.412   8.806   6.492  0.2570 -0.3682 -1.6309
  267MOL0     H35998   8.351   8.670   6.402  2.4847  0.8721 -0.0761
  267MOL0     H35999   8.309   8.903   6.320  0.9859 -1.5936 -1.2605
  267MOL0     H36000   8.209   8.946   6.448 -0.4956 -0.7477  1.3474
  267MOL0     H36001   8.061   8.757   6.368  0.1217 -0.5469 -0.1048
  267MOL0     H36002   8.185   8.719   6.241 -0.2438 -0.8086  0.4404
  267MOL0     H36003   8.009   8.966   6.241 -1.6655 -0.8199 -1.3097
  267MOL0     H36004   7.982   8.823   6.149 -1.9348  2.4541  0.9526
  267MOL0     H36005   8.310   9.007   5.907 -0.1125 -0.6532 -0.4035
  267MOL0     H36006   8.375   9.046   5.681 -0.5811 -0.1760  2.1418
  267MOL0     H36007   8.256   9.095   5.558  0.1144 -0.3401 -0.4220
  267MOL0     H36008   8.330   9.213   5.672  1.4020 -0.8442  1.7488
  267MOL0     H36009   7.869   9.150   5.352  0.9785 -0.3938 -0.5251
  267MOL0     H36010   7.781   9.289   5.155 -0.6064 -0.1555 -0.6972
  267MOL0     H36011   7.520   9.616   5.227  1.4553  0.6738  3.3574
  267MOL0     H36012   7.667   9.709   5.241  0.1178  0.5664 -1.8743
  267MOL0     H36013   7.566   9.800   5.055 -0.0827 -0.7623 -0.3198
  267MOL0     H36014   7.701   9.704   5.004 -0.1790 -2.7123 -1.0762
  267MOL0     H36015   7.494   9.523   4.968 -0.0895  0.3461 -1.1644
  267MOL0     H36016   7.545   9.628   4.847  0.6183 -2.2228  0.3566
  267MOL0     H36017   7.293   9.645   4.883  1.0209  0.5083 -1.3283
  267MOL0     H36018   7.317   9.663   5.054 -0.5497 -0.2972 -0.2147
  267MOL0     H36019   7.424   9.842   4.842  2.0460 -2.4324  1.3169
  267MOL0     H36020   7.383   9.885   5.020  1.7114 -2.2290  1.1627
  267MOL0     H36021   7.174   9.816   4.789  0.0664  1.4475 -1.2007
  267MOL0     H36022   7.142   9.868   4.955 -0.7700 -1.7557 -1.0917
  267MOL0     H36023   7.235  10.017   4.712 -0.6640  0.6048  0.2451
  267MOL0     H36024   7.292  10.075   4.863  1.2995 -0.9602 -0.8686
  267MOL0     H36025   7.052  10.107   4.937 -0.5191  1.5303 -0.6840
  267MOL0     H36026   7.000  10.013   4.794 -3.1796  1.5986  0.9213
  267MOL0     H36027   7.670   9.592   5.436  0.9056 -0.1189  1.3327
  267MOL0     H36028   7.729   9.458   5.615 -4.3063  1.7386 -3.1238
  267MOL0     H36029   7.850   9.125   5.806 -0.8696  0.0759  4.2374
  267MOL0     H36030   7.889   9.013   6.012  0.1307  1.0269  0.0284
  267MOL0     H36031   8.063   8.163   7.664 -0.6678 -1.9496 -0.0216
  267MOL0     H36032   7.880   8.099   7.820 -3.7173  0.7668  0.6419
  267MOL0     H36033   7.438   8.178   7.826  2.4016  1.7160 -0.9734
  267MOL0     H36034   7.191   8.165   7.869  0.3752 -2.1929  1.8300
  267MOL0     H36035   6.983   8.325   7.858  0.6825 -0.1308  0.2437
  267MOL0     H36036   6.964   8.171   7.942 -1.2703  0.3787  0.8404
  267MOL0     H36037   6.748   8.241   8.018 -0.5145 -0.5354 -1.7599
  267MOL0     H36038   6.760   8.378   7.912 -4.1503  2.1278  3.7619
  267MOL0     H36039   6.894   8.504   8.085  2.3111 -0.7639  2.6666
  267MOL0     H36040   6.864   8.373   8.192  0.3518  0.5782 -0.6896
  267MOL0     H36041   6.632   8.386   8.157  1.9482 -1.5342 -2.6399
  267MOL0     H36042   6.641   8.532   8.064 -0.8958 -0.2549  0.8805
  267MOL0     H36043   6.667   8.620   8.490  3.3137 -1.8678  0.4719
  267MOL0     H36044   7.240   8.453   8.186  0.6061  1.2810 -1.0182
  267MOL0     H36045   7.464   8.454   8.148  0.6618 -1.0448  1.0938
  268MOL0     O36046   8.476  10.844   4.355  0.9796 -0.0836  0.2549
  268MOL0     C36047   8.380  10.922   4.378 -0.5749  0.1853 -0.3490
  268MOL0     O36048   8.287  10.895   4.478 -0.4061  0.4574  0.2203
  268MOL0     C36049   8.291  10.765   4.529 -0.4721  1.0976  0.1488
  268MOL0     C36050   8.390  10.725   4.622 -0.5707 -0.0233 -0.2025
  268MOL0     C36051   8.398  10.593   4.667 -0.7688  0.2800 -1.0300
  268MOL0     C36052   8.301  10.498   4.633  0.2546  0.1840  0.6665
  268MOL0     O36053   8.298  10.377   4.702  0.2464  0.0394  0.3404
  268MOL0     C36054   8.182  10.301   4.715 -0.0454  0.5874  1.0488
  268MOL0     C36055   8.219  10.149   4.746 -1.2265 -0.5542 -0.7716
  268MOL0     C36056   8.081  10.064   4.738  0.5496 -0.1619 -0.4122
  268MOL0     C36057   8.016  10.063   4.597  0.0133 -0.0394  0.1114
  268MOL0     C36058   7.879   9.981   4.597 -0.1151 -0.2506 -0.4459
  268MOL0     C36059   7.846   9.922   4.456 -0.6849  0.2648  0.1392
  268MOL0     C36060   7.753   9.801   4.473  1.0124  0.6342 -0.1102
  268MOL0     C36061   7.611   9.825   4.531 -0.0879 -0.5500 -0.0939
  268MOL0     N36062   7.530   9.919   4.451  0.0190  0.8198  0.1136
  268MOL0     C36063   7.539  10.053   4.468 -0.1874 -0.1439  0.4431
  268MOL0     C36064   7.441  10.110   4.397 -1.4921  0.0039  0.7341
  268MOL0     C36065   7.414  10.256   4.410 -0.4385 -0.5126  0.1174
  268MOL0     C36066   7.413  10.314   4.558 -0.7091 -0.0895  0.3443
  268MOL0     C36067   7.396  10.462   4.546 -0.1005  0.2544 -0.1686
  268MOL0     C36068   7.363  10.537   4.678 -0.7667 -0.0746 -0.0666
  268MOL0     O36069   7.391  10.675   4.686 -0.8231 -0.0382  0.2296
  268MOL0     C36070   7.425  10.740   4.804 -0.6437  0.4832  1.1580
  268MOL0     C36071   7.488  10.860   4.783 -0.3213 -0.2036  0.8714
  268MOL0     C36072   7.539  10.939   4.880 -0.2103 -0.0538  0.7959
  268MOL0     C36073   7.593  11.073   4.839  0.2927 -0.0239 -0.4658
  268MOL0     C36074   7.524  10.889   5.008 -0.9882 -0.5706 -0.1164
  268MOL0     C36075   7.595  10.951   5.128  0.1802  0.5227  0.7153
  268MOL0     O36076   7.634  10.859   5.224  0.1158 -0.2300  0.3040
  268MOL0     C36077   7.650  10.903   5.346  0.4319 -0.1567  0.4784
  268MOL0     C36078   7.579  11.000   5.413 -0.9878 -0.5635  0.0948
  268MOL0     C36079   7.616  11.041   5.542 -0.5720  0.5958 -0.7789
  268MOL0     C36080   7.720  10.973   5.609  0.2168 -1.1173  0.1050
  268MOL0     O36081   7.739  11.006   5.743 -0.3091 -0.8406  0.7874
  268MOL0     C36082   7.766  10.893   5.826  0.5475 -0.6565 -1.9533
  268MOL0     C36083   7.711  10.931   5.963 -0.2012  0.3605 -0.0993
  268MOL0     C36084   7.766  10.825   6.063  0.6027  0.5033  0.1856
  268MOL0     C36085   7.899  10.843   6.113 -1.1277  0.0508  1.2952
  268MOL0     C36086   7.956  10.724   6.200  0.3760 -0.0426 -0.6778
  268MOL0     C36087   8.107  10.738   6.246 -0.7328  0.1341  0.1812
  268MOL0     C36088   8.127  10.851   6.352 -0.1962  0.2968  1.3259
  268MOL0     C36089   8.069  10.820   6.487 -1.3819  0.2098  0.6456
  268MOL0    Cl36090   8.147  10.922   6.619 -0.2901  0.3454 -0.0853
  268MOL0     C36091   7.789  10.866   5.542  0.1625  0.0665  0.1006
  268MOL0     C36092   7.755  10.840   5.413  0.0200 -0.1942 -0.3175
  268MOL0     O36093   7.586  11.069   5.144  0.1582  0.4285 -0.1783
  268MOL0     C36094   7.463  10.767   5.033 -0.3672  0.9157 -0.5815
  268MOL0     C36095   7.404  10.690   4.931  0.4095 -0.9173 -0.2920
  268MOL0     N36096   7.377  10.011   4.325  0.4279  0.6140 -0.0113
  268MOL0     N36097   7.429   9.890   4.367  0.1722  0.0666  0.9306
  268MOL0     C36098   8.195  10.533   4.539 -0.1511 -0.8604  1.1800
  268MOL0     C36099   8.191  10.672   4.491  0.4471  1.3121 -1.3121
  268MOL0     C36100   8.370  11.051   4.300 -0.0609  0.8155  0.3841
  268MOL0     C36101   8.455  11.079   4.193 -0.4335 -0.1920  0.1044
  268MOL0     C36102   8.466  11.201   4.140  0.2314 -0.7987 -0.3835
  268MOL0     C36103   8.370  11.296   4.175  0.1621  1.2687  1.3078
  268MOL0     O36104   8.353  11.420   4.126 -0.6171 -0.5187  0.3566
  268MOL0     C36105   8.457  11.476   4.045 -0.3721  0.5567 -0.0285
  268MOL0     C36106   8.583  11.513   4.124 -0.3348 -0.1470 -0.4593
  268MOL0     C36107   8.564  11.586   4.254  0.0835 -0.7224 -0.2823
  268MOL0     C36108   8.519  11.735   4.229  0.2379 -0.4096 -0.0264
  268MOL0     C36109   8.635  11.805   4.169 -0.9288  0.2281  0.5090
  268MOL0     C36110   8.720  11.881   4.110  1.1443  1.1887 -0.1359
  268MOL0     C36111   8.265  11.268   4.259 -0.9556  0.0951  0.4440
  268MOL0     C36112   8.269  11.145   4.333  1.0988  0.1919  0.4695
  268MOL0     H36113   8.470  10.795   4.643  0.7141 -1.8384  1.2544
  268MOL0     H36114   8.480  10.563   4.732  0.4703  1.2165 -2.1118
  268MOL0     H36115   8.122  10.341   4.797  1.8297  1.1614  2.2061
  268MOL0     H36116   8.126  10.301   4.620  2.3943 -0.4827 -0.4932
  268MOL0     H36117   8.297  10.112   4.679 -0.8594 -1.3760  0.0926
  268MOL0     H36118   8.254  10.143   4.849 -1.2733  0.3537 -0.6933
  268MOL0     H36119   8.101   9.961   4.767  1.1554 -0.3803 -1.5743
  268MOL0     H36120   8.003  10.102   4.805 -0.4218 -2.3736 -0.2016
  268MOL0     H36121   7.985  10.163   4.565 -0.5696  0.0026  0.7868
  268MOL0     H36122   8.085  10.028   4.520 -1.2129 -1.3389 -0.4455
  268MOL0     H36123   7.887   9.906   4.677  0.7071 -0.9479 -1.1628
  268MOL0     H36124   7.798  10.051   4.622  1.0144  1.3538 -1.1487
  268MOL0     H36125   7.805  10.005   4.396  3.9068  1.1498 -2.2012
  268MOL0     H36126   7.940   9.895   4.408  1.0835  2.3699  2.2255
  268MOL0     H36127   7.732   9.758   4.374  0.1881 -2.7961  1.3949
  268MOL0     H36128   7.801   9.725   4.534  6.0032  3.2628 -0.2656
  268MOL0     H36129   7.614   9.841   4.639  0.1503  0.7466 -0.2766
  268MOL0     H36130   7.566   9.725   4.527 -2.8135  0.6211 -1.5783
  268MOL0     H36131   7.599  10.112   4.535 -0.1469  1.3827 -0.8881
  268MOL0     H36132   7.485  10.316   4.352  0.8439 -2.5568 -0.5016
  268MOL0     H36133   7.314  10.264   4.366 -0.4117 -1.1632 -0.0729
  268MOL0     H36134   7.507  10.287   4.608  0.3104  1.2382 -0.7822
  268MOL0     H36135   7.335  10.269   4.621  0.8516 -0.2529  2.2715
  268MOL0     H36136   7.308  10.476   4.482 -0.1563  1.6745  0.1743
  268MOL0     H36137   7.486  10.507   4.503  0.0757  3.2746  2.9210
  268MOL0     H36138   7.428  10.492   4.754 -0.9582  2.1588  1.5046
  268MOL0     H36139   7.264  10.505   4.710 -2.0186  0.6223 -2.9210
  268MOL0     H36140   7.495  10.903   4.683 -0.5291 -0.7240  0.6300
  268MOL0     H36141   7.692  11.088   4.883  1.4779 -3.0082 -1.8639
  268MOL0     H36142   7.601  11.088   4.731 -1.7786  2.3838 -0.3846
  268MOL0     H36143   7.519  11.144   4.877 -0.4708 -0.1422 -1.6516
  268MOL0     H36144   7.494  11.044   5.363  0.3490  1.5828 -0.4194
  268MOL0     H36145   7.557  11.116   5.593  2.3278  2.9338 -0.6079
  268MOL0     H36146   7.726  10.796   5.793  3.3039 -2.3674 -0.6551
  268MOL0     H36147   7.874  10.877   5.837  0.0191 -2.8552  1.5783
  268MOL0     H36148   7.741  11.035   5.979 -0.2694  0.3756 -0.0672
  268MOL0     H36149   7.604  10.920   5.943 -0.5147  0.6212  1.3266
  268MOL0     H36150   7.749  10.727   6.016 -4.7331  0.3410  1.8102
  268MOL0     H36151   7.703  10.834   6.152 -4.4189  2.2769 -3.1200
  268MOL0     H36152   7.969  10.858   6.030 -1.7320 -1.5167  0.4692
  268MOL0     H36153   7.888  10.933   6.174  1.3355  2.6518 -1.7303
  268MOL0     H36154   7.960  10.630   6.144  1.4304  0.3775 -1.3447
  268MOL0     H36155   7.886  10.711   6.283  0.5409 -1.1545 -0.6934
  268MOL0     H36156   8.138  10.644   6.292  2.4348  0.2220 -1.5042
  268MOL0     H36157   8.174  10.764   6.163  0.4746 -1.2197  0.6892
  268MOL0     H36158   8.082  10.944   6.317  0.6575  0.2094 -0.0555
  268MOL0     H36159   8.234  10.863   6.373 -0.1105  0.9734  0.5421
  268MOL0     H36160   8.094  10.714   6.502 -0.5429 -0.4652 -4.0104
  268MOL0     H36161   7.962  10.842   6.495 -1.3242  0.7378 -0.0033
  268MOL0     H36162   7.883  10.832   5.586  0.0496 -0.8391 -0.3609
  268MOL0     H36163   7.809  10.771   5.349  0.7670 -1.0042  1.1224
  268MOL0     H36164   7.441  10.734   5.134 -0.8927  2.8410 -0.0266
  268MOL0     H36165   7.346  10.601   4.952  0.3857 -0.7027  0.5769
  268MOL0     H36166   8.124  10.460   4.501  1.3715 -1.3996 -0.8052
  268MOL0     H36167   8.109  10.696   4.423 -4.7330 -3.9882  2.1508
  268MOL0     H36168   8.530  11.004   4.169 -0.6861 -0.0639 -1.1486
  268MOL0     H36169   8.539  11.219   4.062 -1.4570  1.5646 -1.5568
  268MOL0     H36170   8.493  11.400   3.975  1.6235  0.1119  1.3957
  268MOL0     H36171   8.425  11.568   3.995 -1.7968  1.8320  2.9383
  268MOL0     H36172   8.647  11.565   4.053 -0.6545 -1.1709 -1.5350
  268MOL0     H36173   8.627  11.416   4.150  0.6651  0.8287  1.7941
  268MOL0     H36174   8.655  11.580   4.314 -0.0842 -0.2292  0.0290
  268MOL0     H36175   8.493  11.541   4.324 -1.1393  2.8801  0.9992
  268MOL0     H36176   8.488  11.781   4.323  2.8602  1.4546  0.0096
  268MOL0     H36177   8.431  11.737   4.164  0.7958  0.5773 -0.7778
  268MOL0     H36178   8.794  11.949   4.071  2.7030 -0.5071 -0.2749
  268MOL0     H36179   8.192  11.348   4.268 -0.5558  0.5936 -0.6193
  268MOL0     H36180   8.198  11.135   4.414 -0.0394  1.6137 -0.3025
  269MOL0     O36181  11.199   9.958   2.517  0.3507 -1.4589 -0.4001
  269MOL0     C36182  11.202  10.066   2.452  0.5239  1.0738 -0.3857
  269MOL0     O36183  11.267  10.088   2.337 -0.3553  1.1630  0.4121
  269MOL0     C36184  11.301   9.983   2.257 -0.3399  0.1457 -0.0434
  269MOL0     C36185  11.243   9.848   2.256  0.0906  0.1514 -0.0822
  269MOL0     C36186  11.268   9.759   2.156  0.0861 -0.6845 -0.3658
  269MOL0     C36187  11.353   9.797   2.047 -0.7797 -0.1539  0.8181
  269MOL0     O36188  11.379   9.698   1.944 -0.1662 -0.1370 -0.9253
  269MOL0     C36189  11.349   9.560   1.982 -0.1330 -0.2793  0.5254
  269MOL0     C36190  11.418   9.458   1.879 -0.4333 -0.3171 -1.6369
  269MOL0     C36191  11.381   9.478   1.729  0.3165  0.1903  0.6788
  269MOL0     C36192  11.479   9.410   1.624  0.7006  0.6279  0.0880
  269MOL0     C36193  11.419   9.434   1.494  0.7749 -0.9113  0.4993
  269MOL0     C36194  11.438   9.574   1.433 -0.6701  0.3287 -0.6489
  269MOL0     C36195  11.371   9.590   1.295  0.3894 -0.1055  0.4654
  269MOL0     C36196  11.213   9.609   1.317  0.0463 -0.5195  0.8637
  269MOL0     N36197  11.141   9.635   1.200 -0.3962 -0.3975  0.5234
  269MOL0     C36198  11.129   9.751   1.115 -0.4039  0.4584  0.3542
  269MOL0     C36199  11.050   9.715   1.019  0.6332  0.3636  0.3390
  269MOL0     C36200  10.991   9.806   0.913  0.5742  0.3893 -0.9414
  269MOL0     C36201  11.044   9.776   0.780 -0.3386 -0.4134  0.4475
  269MOL0     C36202  11.022   9.896   0.689 -0.8093  0.0765 -0.3634
  269MOL0     C36203  11.024   9.851   0.542  0.8443  0.3458  0.9123
  269MOL0     O36204  10.926   9.925   0.459 -0.6476  0.2062 -0.3363
  269MOL0     C36205  10.985  10.022   0.384  0.3714 -0.1122  0.1180
  269MOL0     C36206  10.965  10.024   0.244  0.9711 -0.1546  0.1188
  269MOL0     C36207  11.004  10.133   0.158  0.0047 -0.3111  0.0016
  269MOL0     C36208  10.960  10.123   0.010 -0.7321  0.1770  0.5164
  269MOL0     C36209  11.075  10.243   0.218  0.7382 -0.4169 -0.1336
  269MOL0     C36210  11.115  10.373   0.148 -0.3828 -0.7103 -0.6158
  269MOL0     O36211  11.215  10.446   0.213  0.7937  0.5775 -0.3390
  269MOL0     C36212  11.263  10.567   0.176 -0.5859 -0.7051  1.1882
  269MOL0     C36213  11.187  10.672   0.114 -0.2108  0.3550  0.3122
  269MOL0     C36214  11.257  10.786   0.072 -0.1487  0.2073  0.2974
  269MOL0     C36215  11.397  10.801   0.072  0.2992 -0.8576  0.9744
  269MOL0     O36216  11.473  10.900   0.009  0.9482 -0.0880 -0.7242
  269MOL0     C36217  11.415  11.027  -0.008  0.0889  0.3740  0.7150
  269MOL0     C36218  11.516  11.117  -0.085 -0.3501  0.6765 -1.3141
  269MOL0     C36219  11.550  11.069  -0.224  0.3252 -0.6289  0.2873
  269MOL0     C36220  11.662  11.150  -0.274 -0.4800 -0.5291  0.3634
  269MOL0     C36221  11.693  11.123  -0.426 -2.1975 -0.1122  0.4285
  269MOL0     C36222  11.791  11.223  -0.479  0.4914 -0.5778 -0.5856
  269MOL0     C36223  11.934  11.203  -0.430 -0.2695 -0.9822  0.1694
  269MOL0     C36224  12.014  11.332  -0.463 -0.1096 -0.0340 -0.2432
  269MOL0    Cl36225  11.975  11.457  -0.345 -0.5964  0.0937  0.8473
  269MOL0     C36226  11.465  10.705   0.141 -0.9020 -0.2837  0.2790
  269MOL0     C36227  11.398  10.591   0.189 -0.4704  0.8658  0.3154
  269MOL0     O36228  11.078  10.398   0.038  0.0309  0.3428  0.0988
  269MOL0     C36229  11.106  10.230   0.357 -0.6946 -0.1567  0.6781
  269MOL0     C36230  11.054  10.132   0.444  0.0978  0.0501 -0.8844
  269MOL0     N36231  11.012   9.583   1.040 -0.2014 -0.8811 -0.4765
  269MOL0     N36232  11.069   9.536   1.144  0.4016 -0.1391  0.1085
  269MOL0     C36233  11.404   9.928   2.042 -0.3712  0.2216  0.0536
  269MOL0     C36234  11.385  10.020   2.152  0.3789 -0.6289  0.0892
  269MOL0     C36235  11.125  10.173   2.518 -0.0792  0.2962  1.3561
  269MOL0     C36236  11.110  10.298   2.450 -0.2396 -0.4935 -0.4898
  269MOL0     C36237  11.053  10.405   2.522  0.1201 -1.0614  0.7339
  269MOL0     C36238  10.998  10.389   2.644  0.2676  1.0027  0.2053
  269MOL0     O36239  10.961  10.499   2.714  0.1094 -0.0401 -0.3222
  269MOL0     C36240  10.870  10.483   2.812  1.4378 -0.3293 -0.6061
  269MOL0     C36241  10.724  10.440   2.776 -1.3495 -0.2376  0.2667
  269MOL0     C36242  10.644  10.428   2.911  0.1634  0.2568  1.2056
  269MOL0     C36243  10.578  10.558   2.945  0.6641  0.6774  0.0814
  269MOL0     C36244  10.507  10.542   3.073 -0.0377  0.5995  0.3541
  269MOL0     C36245  10.457  10.509   3.177  0.4484  0.1227 -0.5176
  269MOL0     C36246  10.990  10.259   2.699  0.1621 -0.9262  0.6437
  269MOL0     C36247  11.059  10.156   2.639 -0.2932  0.2590 -0.0705
  269MOL0     H36248  11.173   9.821   2.335  0.9397  0.6456  0.8529
  269MOL0     H36249  11.214   9.665   2.160 -2.5089  0.6672  4.2074
  269MOL0     H36250  11.392   9.519   2.073 -0.4661 -1.2560  0.2509
  269MOL0     H36251  11.241   9.545   1.969  0.1391 -0.1835 -2.9216
  269MOL0     H36252  11.528   9.461   1.878 -0.4014 -0.2079 -4.0569
  269MOL0     H36253  11.396   9.354   1.905  2.7366 -0.8192 -0.5518
  269MOL0     H36254  11.286   9.424   1.726  0.7328 -0.5508  0.5467
  269MOL0     H36255  11.369   9.585   1.708  0.0634 -0.0161 -0.2906
  269MOL0     H36256  11.580   9.452   1.630  1.1930 -0.7264  2.2562
  269MOL0     H36257  11.478   9.303   1.644 -0.1213  0.4907 -0.5955
  269MOL0     H36258  11.470   9.372   1.420  1.5467  0.8285 -0.4826
  269MOL0     H36259  11.312   9.411   1.496  0.2121  1.1420 -1.2937
  269MOL0     H36260  11.399   9.657   1.493 -3.3468 -0.8691 -0.6265
  269MOL0     H36261  11.547   9.585   1.421  0.1203 -2.4059  2.6211
  269MOL0     H36262  11.406   9.688   1.261  1.9030 -1.7597 -3.2923
  269MOL0     H36263  11.399   9.525   1.212  1.4455 -0.4511  1.0825
  269MOL0     H36264  11.187   9.691   1.385  0.1717  1.1708 -1.0359
  269MOL0     H36265  11.175   9.515   1.359 -0.3940 -0.3026  0.9566
  269MOL0     H36266  11.178   9.848   1.124  1.2242 -0.2685 -0.4303
  269MOL0     H36267  10.884   9.810   0.933  0.6893  0.4202 -0.2894
  269MOL0     H36268  11.024   9.902   0.955  2.8332 -1.0045  0.7344
  269MOL0     H36269  10.983   9.694   0.741 -2.5697  1.1899  0.3634
  269MOL0     H36270  11.148   9.743   0.779  0.7940  2.5922  2.8641
  269MOL0     H36271  11.097   9.975   0.699 -0.9721  0.2176 -0.2429
  269MOL0     H36272  10.928   9.938   0.725 -1.2493 -2.0392  1.1465
  269MOL0     H36273  10.992   9.747   0.537  0.1862  0.5397  0.9472
  269MOL0     H36274  11.128   9.853   0.509  0.4223  1.0542 -0.4368
  269MOL0     H36275  10.900   9.950   0.196 -1.5275  2.4390 -0.8031
  269MOL0     H36276  10.897  10.213   0.004  1.3247  1.8735  2.5669
  269MOL0     H36277  11.046  10.125  -0.058 -1.9448  0.5141 -1.0641
  269MOL0     H36278  10.896  10.035   0.001 -1.8867  1.1245 -1.2610
  269MOL0     H36279  11.080  10.656   0.109 -0.3468 -0.1696  3.0284
  269MOL0     H36280  11.189  10.858   0.028  1.0445  0.5860 -0.9901
  269MOL0     H36281  11.327  11.008  -0.071  2.3441  2.6240 -3.5307
  269MOL0     H36282  11.391  11.071   0.089 -2.7302  0.7269 -0.0494
  269MOL0     H36283  11.467  11.214  -0.095 -0.6166  0.7154  0.1703
  269MOL0     H36284  11.608  11.137  -0.028 -0.3277  1.9080 -1.7547
  269MOL0     H36285  11.466  11.064  -0.294  0.5913 -1.6054  0.0271
  269MOL0     H36286  11.585  10.965  -0.220  0.6513 -0.4885  1.2258
  269MOL0     H36287  11.632  11.255  -0.267 -1.8333 -0.6664 -2.1416
  269MOL0     H36288  11.749  11.124  -0.213 -2.0679 -1.0086  2.5331
  269MOL0     H36289  11.603  11.147  -0.483 -0.4185  2.7546 -1.4421
  269MOL0     H36290  11.740  11.026  -0.445 -0.3510  1.0049 -1.0879
  269MOL0     H36291  11.785  11.238  -0.588  0.8139  3.5111 -0.1730
  269MOL0     H36292  11.754  11.319  -0.443  0.7345 -1.8848  3.7233
  269MOL0     H36293  11.971  11.117  -0.487 -1.6816 -2.0366  0.7521
  269MOL0     H36294  11.938  11.195  -0.321  0.4772  0.6439  0.2902
  269MOL0     H36295  11.996  11.368  -0.565  4.1438  2.6232 -0.3249
  269MOL0     H36296  12.123  11.319  -0.466  0.1717  1.9989 -0.2960
  269MOL0     H36297  11.572  10.716   0.157 -1.1492  0.0312  1.8831
  269MOL0     H36298  11.460  10.514   0.235 -1.8336 -1.1464 -1.0138
  269MOL0     H36299  11.140  10.321   0.404 -2.4135 -0.1427  1.9970
  269MOL0     H36300  11.066  10.135   0.552 -0.8364 -1.8290 -0.6879
  269MOL0     H36301  11.474   9.931   1.958  1.8362 -3.8054  1.4603
  269MOL0     H36302  11.434  10.117   2.155 -2.2714  0.7729  0.6389
  269MOL0     H36303  11.140  10.324   2.349 -2.1777  4.4022 -0.0352
  269MOL0     H36304  11.061  10.506   2.484  0.1423 -0.8107  1.3842
  269MOL0     H36305  10.908  10.416   2.890 -2.7361 -2.7877 -0.3718
  269MOL0     H36306  10.860  10.585   2.851  1.2922  0.5461 -2.7955
  269MOL0     H36307  10.717  10.343   2.726  1.7207  1.0592 -3.1093
  269MOL0     H36308  10.698  10.521   2.708 -1.1388 -1.8338 -1.7968
  269MOL0     H36309  10.724  10.398   2.979  3.0336 -0.7652 -2.2709
  269MOL0     H36310  10.570  10.348   2.903  2.3294 -1.9679  2.0935
  269MOL0     H36311  10.511  10.586   2.864  1.5756 -0.6718 -1.1843
  269MOL0     H36312  10.658  10.633   2.945  0.2112  1.2164 -2.2284
  269MOL0     H36313  10.412  10.483   3.271  0.3555 -0.8732 -0.8272
  269MOL0     H36314  10.952  10.235   2.798 -2.2038  0.0010  0.0022
  269MOL0     H36315  11.058  10.059   2.688 -0.7827  1.0084  1.4795
  270MOL0     O36316  10.219   4.579  11.400 -0.4011  0.7865 -1.2171
  270MOL0     C36317  10.254   4.675  11.331  0.7044 -0.7091 -1.0702
  270MOL0     O36318  10.192   4.726  11.223  0.2815  0.7191  0.0210
  270MOL0     C36319  10.089   4.659  11.164 -0.0449 -0.9103  0.0501
  270MOL0     C36320  10.096   4.523  11.133  0.0377  0.6200  0.1424
  270MOL0     C36321   9.987   4.465  11.058  0.2078 -0.3574 -0.1916
  270MOL0     C36322   9.878   4.539  11.010  0.4460 -0.4270  0.1572
  270MOL0     O36323   9.780   4.490  10.927  0.2664  0.4801 -0.0601
  270MOL0     C36324   9.749   4.348  10.956 -0.0888 -0.6387 -0.3600
  270MOL0     C36325   9.644   4.295  10.862 -0.1667 -0.0148 -0.5535
  270MOL0     C36326   9.507   4.377  10.898 -0.4576 -0.1187 -1.1901
  270MOL0     C36327   9.395   4.351  10.803 -0.4793 -0.1098  0.3866
  270MOL0     C36328   9.419   4.430  10.675 -0.5485 -0.6207 -0.0242
  270MOL0     C36329   9.325   4.360  10.566 -0.3576  0.1068 -0.6978
  270MOL0     C36330   9.289   4.458  10.450 -0.0567  0.9662 -0.4011
  270MOL0     C36331   9.204   4.576  10.491 -0.2933 -0.5069 -0.5321
  270MOL0     N36332   9.077   4.537  10.557 -0.5176 -0.2599 -0.2503
  270MOL0     C36333   8.957   4.508  10.493 -0.0533 -0.6684  0.4073
  270MOL0     C36334   8.870   4.474  10.594  0.0568  0.5263  0.6652
  270MOL0     C36335   8.724   4.439  10.586  0.4340 -0.5603  0.7990
  270MOL0     C36336   8.676   4.301  10.579  0.2158  1.1031  0.6186
  270MOL0     C36337   8.518   4.290  10.625  0.0427  0.5809 -0.0940
  270MOL0     C36338   8.442   4.171  10.586 -0.3850 -0.6309  0.7417
  270MOL0     O36339   8.396   4.171  10.452  0.2627 -0.1890  0.0604
  270MOL0     C36340   8.276   4.235  10.417 -0.0608  1.1844 -0.0156
  270MOL0     C36341   8.205   4.325  10.501  0.9119  1.1671  0.2790
  270MOL0     C36342   8.080   4.373  10.466  0.4001 -0.6068  0.2935
  270MOL0     C36343   8.012   4.459  10.566  0.0259 -0.6345  0.0920
  270MOL0     C36344   8.029   4.333  10.333  0.6435 -0.2382 -0.3172
  270MOL0     C36345   7.898   4.375  10.288 -0.2283  0.2532  0.1541
  270MOL0     O36346   7.828   4.276  10.226  0.0139  0.0373 -1.1597
  270MOL0     C36347   7.693   4.280  10.212  0.7833 -0.3559 -0.5711
  270MOL0     C36348   7.622   4.318  10.325 -0.0477 -0.4481 -1.0458
  270MOL0     C36349   7.483   4.333  10.314  0.6026  0.1433  0.4884
  270MOL0     C36350   7.415   4.303  10.192  0.1238 -0.4080 -0.2106
  270MOL0     O36351   7.279   4.318  10.200  0.4357 -0.3259  0.3572
  270MOL0     C36352   7.214   4.265  10.083 -0.0082 -0.2637 -0.3933
  270MOL0     C36353   7.059   4.260  10.087  0.1900  0.2835  0.5807
  270MOL0     C36354   6.986   4.159   9.993  0.1714 -0.1114  0.6012
  270MOL0     C36355   6.831   4.162   9.994 -0.0516  0.6050 -0.5294
  270MOL0     C36356   6.761   4.106   9.871  0.0261 -0.9615  0.6792
  270MOL0     C36357   6.609   4.152   9.875  0.3444  0.4053  0.1205
  270MOL0     C36358   6.543   4.068   9.760 -0.2741 -0.4383 -0.0154
  270MOL0     C36359   6.410   4.114   9.722  1.0130 -0.8434 -0.8011
  270MOL0    Cl36360   6.400   4.288   9.674 -0.0450  0.1156  0.1783
  270MOL0     C36361   7.491   4.261  10.086  0.2219 -0.1776  0.4005
  270MOL0     C36362   7.631   4.247  10.095 -0.4759  0.4618  0.4243
  270MOL0     O36363   7.856   4.485  10.312  0.4891 -0.2676 -0.4276
  270MOL0     C36364   8.097   4.244  10.247 -0.4258  0.7232  0.2062
  270MOL0     C36365   8.218   4.197  10.295  1.2799  0.0289  1.3214
  270MOL0     N36366   8.949   4.474  10.706  0.3134 -0.3849  0.1032
  270MOL0     N36367   9.066   4.513  10.686 -0.2357  0.2685  0.3537
  270MOL0     C36368   9.873   4.674  11.044 -0.4176 -0.3023  0.4334
  270MOL0     C36369   9.968   4.732  11.124 -0.5853  0.0959 -0.3126
  270MOL0     C36370  10.371   4.756  11.369 -0.4625 -0.2348  0.4617
  270MOL0     C36371  10.417   4.877  11.306  0.2084  0.1914  1.1791
  270MOL0     C36372  10.533   4.939  11.342 -0.3468  0.0628  0.4161
  270MOL0     C36373  10.612   4.888  11.443  0.1923 -0.8422  0.4764
  270MOL0     O36374  10.722   4.969  11.475 -0.0717  0.5457 -0.6652
  270MOL0     C36375  10.713   5.077  11.572 -0.4393  0.2708  0.0994
  270MOL0     C36376  10.571   5.115  11.639 -0.6683  0.1527 -0.1018
  270MOL0     C36377  10.592   5.240  11.707 -0.1261  0.2655 -0.4914
  270MOL0     C36378  10.470   5.288  11.786 -0.5934 -0.8900 -0.1025
  270MOL0     C36379  10.432   5.180  11.889  1.0696 -0.5600 -0.0032
  270MOL0     C36380  10.387   5.110  11.967  0.2598  0.7558 -0.6086
  270MOL0     C36381  10.569   4.781  11.514  0.7124  0.5897  0.5798
  270MOL0     C36382  10.444   4.713  11.475 -0.1579  0.2634 -1.1321
  270MOL0     H36383  10.167   4.446  11.160 -2.6128 -2.3361 -0.6809
  270MOL0     H36384  10.001   4.358  11.044 -1.8687 -0.6555 -0.3490
  270MOL0     H36385   9.833   4.280  10.940 -0.7899 -1.0694 -2.6824
  270MOL0     H36386   9.718   4.336  11.060  2.5575 -2.9584  0.2807
  270MOL0     H36387   9.681   4.301  10.759  2.4480 -1.3277  0.2277
  270MOL0     H36388   9.625   4.188  10.869 -0.0644 -0.2545 -3.0406
  270MOL0     H36389   9.469   4.343  10.994  0.1461  3.0936  0.3128
  270MOL0     H36390   9.524   4.484  10.910  3.1938 -0.9010  2.5115
  270MOL0     H36391   9.401   4.248  10.765  0.5147  0.5152 -1.2860
  270MOL0     H36392   9.297   4.380  10.842 -0.6601 -0.6966  0.3813
  270MOL0     H36393   9.380   4.532  10.682 -0.0322 -0.3181 -1.4204
  270MOL0     H36394   9.523   4.424  10.643 -0.8171 -1.8546 -0.7197
  270MOL0     H36395   9.366   4.265  10.531  1.8302  0.0376  1.7869
  270MOL0     H36396   9.235   4.325  10.618  2.0010 -1.7816  2.4984
  270MOL0     H36397   9.378   4.486  10.392  3.1414 -1.9418  2.6452
  270MOL0     H36398   9.235   4.394  10.380 -0.8037 -1.0886  1.9145
  270MOL0     H36399   9.198   4.635  10.400  2.4538  2.0608  0.7978
  270MOL0     H36400   9.259   4.642  10.559 -0.3654 -2.0698  1.1279
  270MOL0     H36401   8.928   4.521  10.390 -0.6093 -0.4349  0.5866
  270MOL0     H36402   8.680   4.482  10.676  0.7363 -0.6673  1.0014
  270MOL0     H36403   8.687   4.499  10.502 -0.0367  0.8228  1.9636
  270MOL0     H36404   8.733   4.233  10.642 -1.5424 -2.3308 -1.1883
  270MOL0     H36405   8.686   4.274  10.474  2.1784 -0.0411  1.0493
  270MOL0     H36406   8.472   4.380  10.583  0.2959  0.9780  0.4794
  270MOL0     H36407   8.509   4.286  10.734 -0.5526 -0.3861 -0.1634
  270MOL0     H36408   8.357   4.159  10.653  0.8900  0.3242  2.6106
  270MOL0     H36409   8.510   4.085  10.586  1.2297  0.5557 -1.0193
  270MOL0     H36410   8.236   4.347  10.602  1.5836  3.6796 -0.4084
  270MOL0     H36411   7.916   4.408  10.566  0.7932 -2.1548 -0.6527
  270MOL0     H36412   8.060   4.458  10.665 -0.1194 -0.0340  0.1712
  270MOL0     H36413   7.999   4.557  10.519 -1.1932 -1.2819 -0.9679
  270MOL0     H36414   7.672   4.349  10.416 -3.1545  1.0316  0.3074
  270MOL0     H36415   7.437   4.369  10.405  3.6191 -1.6480  2.9301
  270MOL0     H36416   7.248   4.313   9.992  1.8541 -1.9732 -0.6627
  270MOL0     H36417   7.238   4.158  10.080 -1.8152 -0.7444  0.5930
  270MOL0     H36418   7.030   4.234  10.189 -2.0966  0.7895  0.1135
  270MOL0     H36419   7.028   4.363  10.067 -1.2860  0.2114  2.2875
  270MOL0     H36420   7.012   4.060  10.033  1.0908  1.1051  3.2635
  270MOL0     H36421   7.026   4.165   9.892 -1.4819  0.5249 -0.0435
  270MOL0     H36422   6.801   4.111  10.086  0.3676  2.6188  0.8176
  270MOL0     H36423   6.802   4.267  10.008 -1.4758  0.0132  1.4545
  270MOL0     H36424   6.782   3.999   9.867 -3.5193 -1.7567  0.7770
  270MOL0     H36425   6.808   4.155   9.785  2.5183 -0.8660  1.9779
  270MOL0     H36426   6.563   4.131   9.972  0.5927  1.7269  0.5486
  270MOL0     H36427   6.603   4.261   9.870 -1.0047  0.3828  0.6189
  270MOL0     H36428   6.545   3.963   9.791  1.1310 -0.0960  1.1726
  270MOL0     H36429   6.609   4.082   9.674 -2.4793  0.1566 -1.7103
  270MOL0     H36430   6.381   4.046   9.641  0.7910 -1.4652 -0.2134
  270MOL0     H36431   6.357   4.098   9.817  0.9563  4.0575  0.2391
  270MOL0     H36432   7.441   4.223   9.998  1.6901  1.4684 -1.2279
  270MOL0     H36433   7.696   4.210  10.017  0.3982 -2.8688  2.5115
  270MOL0     H36434   8.067   4.200  10.152 -1.5059 -3.8454  2.3911
  270MOL0     H36435   8.284   4.128  10.242  2.1984  1.0572  1.0814
  270MOL0     H36436   9.783   4.731  11.022 -2.7821 -3.4899  1.0247
  270MOL0     H36437   9.954   4.838  11.141 -1.4334  0.3569 -2.3314
  270MOL0     H36438  10.354   4.927  11.233 -0.2402  0.3720  1.6825
  270MOL0     H36439  10.563   5.021  11.278 -2.4528 -0.7741 -1.8169
  270MOL0     H36440  10.786   5.056  11.650 -2.8382 -1.9391  1.9075
  270MOL0     H36441  10.741   5.168  11.517 -0.3145  1.3704  1.8865
  270MOL0     H36442  10.547   5.030  11.704  0.2029 -2.6000 -3.1126
  270MOL0     H36443  10.495   5.128  11.561 -5.2144  1.3198  3.9887
  270MOL0     H36444  10.619   5.320  11.638 -1.0356  0.0076 -1.1600
  270MOL0     H36445  10.687   5.245  11.762 -1.4018 -1.7482  2.1454
  270MOL0     H36446  10.389   5.313  11.716 -0.3030  0.0760 -0.1063
  270MOL0     H36447  10.498   5.380  11.838 -1.5060 -1.7625  2.0303
  270MOL0     H36448  10.341   5.044  12.037 -1.3079  2.5515  0.1629
  270MOL0     H36449  10.620   4.751  11.605 -0.4084 -1.9409  0.4604
  270MOL0     H36450  10.433   4.623  11.534  0.7990 -0.0905 -1.4657
  271MOL0     O36451   7.632   2.732   3.440 -0.7675 -0.4444  0.3732
  271MOL0     C36452   7.583   2.624   3.457  0.8010  0.1060 -0.6514
  271MOL0     O36453   7.448   2.591   3.437 -0.3588 -0.0067 -0.2691
  271MOL0     C36454   7.354   2.686   3.412 -0.3674 -0.7186  0.8564
  271MOL0     C36455   7.232   2.655   3.444  0.7227  0.1859  0.3763
  271MOL0     C36456   7.122   2.747   3.438 -0.5562 -0.3683  0.4709
  271MOL0     C36457   7.145   2.881   3.399  0.8492 -0.3897  0.5948
  271MOL0     O36458   7.053   2.982   3.391 -0.2280  0.4935 -0.5284
  271MOL0     C36459   6.913   2.953   3.400 -0.4208 -0.0506 -0.8624
  271MOL0     C36460   6.808   3.063   3.420  0.0554  0.5345 -1.2685
  271MOL0     C36461   6.754   3.127   3.296 -0.6548 -1.4374 -0.3369
  271MOL0     C36462   6.647   3.235   3.324 -1.2470 -0.8037 -0.3835
  271MOL0     C36463   6.564   3.282   3.197 -0.2560  1.2771 -0.2461
  271MOL0     C36464   6.650   3.323   3.075  0.2291  0.1589  1.0340
  271MOL0     C36465   6.722   3.458   3.104 -0.7334  0.2225  0.2020
  271MOL0     C36466   6.805   3.494   2.982 -0.2991 -0.3326 -1.4973
  271MOL0     N36467   6.895   3.602   3.022 -0.2617  0.7814  0.3824
  271MOL0     C36468   6.875   3.714   3.105 -0.4736 -0.5219 -0.0324
  271MOL0     C36469   6.994   3.777   3.113 -0.4011 -0.7983 -0.4246
  271MOL0     C36470   7.050   3.892   3.198 -0.4303 -0.1935 -0.7750
  271MOL0     C36471   7.146   3.838   3.318  0.0760 -0.1507  0.2840
  271MOL0     C36472   7.215   3.956   3.389 -0.2873  0.5734  0.3043
  271MOL0     C36473   7.339   3.930   3.479  0.4360  0.3266 -0.1471
  271MOL0     O36474   7.316   3.822   3.569  0.0243  0.3003  0.2486
  271MOL0     C36475   7.419   3.786   3.653  0.0001  0.3326 -0.8937
  271MOL0     C36476   7.422   3.652   3.696 -0.6061 -0.0595 -0.1209
  271MOL0     C36477   7.515   3.605   3.785  0.4178 -0.0536 -0.0093
  271MOL0     C36478   7.511   3.450   3.812  0.3509  0.1196  0.1981
  271MOL0     C36479   7.605   3.702   3.848  0.6071  0.8088  0.0870
  271MOL0     C36480   7.683   3.674   3.973 -0.7161  0.6505  0.2045
  271MOL0     O36481   7.712   3.782   4.049  0.2591 -0.3129 -0.4052
  271MOL0     C36482   7.785   3.770   4.170  0.0232 -0.6578  0.5347
  271MOL0     C36483   7.898   3.848   4.191  0.5435 -0.1396 -0.5395
  271MOL0     C36484   7.972   3.839   4.312 -0.4320  0.0548 -0.7626
  271MOL0     C36485   7.942   3.749   4.415  0.7114 -0.0288  0.5672
  271MOL0     O36486   8.020   3.739   4.527 -0.6538 -0.3691 -0.2176
  271MOL0     C36487   8.076   3.862   4.588 -0.2841  0.2304 -0.1006
  271MOL0     C36488   7.991   3.941   4.685 -0.7368 -0.6822 -0.2509
  271MOL0     C36489   7.844   3.952   4.641 -0.2181  0.2212 -0.5869
  271MOL0     C36490   7.767   4.000   4.769 -0.3242  0.2548  0.8828
  271MOL0     C36491   7.621   4.029   4.735 -0.8908 -0.0605 -0.0840
  271MOL0     C36492   7.532   4.082   4.848  0.6591  0.7814  0.4594
  271MOL0     C36493   7.585   4.206   4.906 -0.7505  0.3859  0.4250
  271MOL0     C36494   7.475   4.275   4.980  0.4470  0.3798  0.1710
  271MOL0    Cl36495   7.344   4.311   4.870  0.1578 -0.5854 -0.4707
  271MOL0     C36496   7.832   3.663   4.388 -0.5998 -0.4737 -0.1882
  271MOL0     C36497   7.753   3.678   4.275 -0.0100 -0.0625 -0.4791
  271MOL0     O36498   7.719   3.558   4.002  1.1266 -0.3847 -0.2811
  271MOL0     C36499   7.610   3.834   3.802  0.9390  0.0973  1.1389
  271MOL0     C36500   7.516   3.877   3.702 -0.7816  0.0373 -0.1789
  271MOL0     N36501   7.075   3.698   3.030 -0.0838  0.8314  0.3980
  271MOL0     N36502   7.024   3.593   2.985  0.3726  0.1211  0.2731
  271MOL0     C36503   7.265   2.909   3.341 -0.9041 -0.5881  0.1096
  271MOL0     C36504   7.371   2.814   3.343 -0.2667 -0.1305  0.2621
  271MOL0     C36505   7.663   2.508   3.511  0.2469 -0.6282  0.6269
  271MOL0     C36506   7.598   2.381   3.531 -0.4132 -0.3257  0.8248
  271MOL0     C36507   7.670   2.273   3.576  0.4201  0.8154  0.2015
  271MOL0     C36508   7.799   2.288   3.627  0.3919  0.2877  0.4409
  271MOL0     O36509   7.856   2.173   3.663  0.6708  0.1428 -0.1483
  271MOL0     C36510   7.982   2.174   3.727  1.3686 -0.0668 -0.0631
  271MOL0     C36511   8.097   2.178   3.613  0.4616  0.2128  0.2832
  271MOL0     C36512   8.236   2.145   3.677  0.0195 -1.0108  0.1339
  271MOL0     C36513   8.271   2.237   3.790  0.1096  0.4426 -1.0045
  271MOL0     C36514   8.266   2.378   3.756 -0.7684 -0.1596 -0.3227
  271MOL0     C36515   8.264   2.496   3.732  1.2051  0.7804  0.8043
  271MOL0     C36516   7.858   2.412   3.612  0.4114  0.6602  0.1210
  271MOL0     C36517   7.795   2.523   3.552 -0.2451  0.6958  0.8635
  271MOL0     H36518   7.220   2.554   3.482 -0.5536  0.4875  0.8381
  271MOL0     H36519   7.023   2.722   3.475 -0.6118  1.3716  1.6281
  271MOL0     H36520   6.883   2.891   3.315  0.6859  0.2503 -1.4928
  271MOL0     H36521   6.895   2.898   3.493  0.0716 -0.0745 -0.7764
  271MOL0     H36522   6.722   3.028   3.478  1.0722  1.9857  1.2297
  271MOL0     H36523   6.860   3.141   3.475  0.2906 -0.4538 -0.0508
  271MOL0     H36524   6.834   3.163   3.231 -2.4163  0.0686 -1.7726
  271MOL0     H36525   6.705   3.047   3.240 -3.1518 -1.8379  2.2194
  271MOL0     H36526   6.569   3.188   3.385 -0.3610 -1.6816  0.0971
  271MOL0     H36527   6.682   3.316   3.388 -2.7306 -0.4522  0.0170
  271MOL0     H36528   6.487   3.209   3.170 -0.1707  1.0780  0.0410
  271MOL0     H36529   6.503   3.369   3.222 -1.3486  0.1055  1.3807
  271MOL0     H36530   6.718   3.243   3.046 -2.7187 -2.4816  0.8520
  271MOL0     H36531   6.582   3.349   2.993 -0.1205  2.4486  1.9791
  271MOL0     H36532   6.650   3.537   3.128 -1.6841 -0.3466 -0.6802
  271MOL0     H36533   6.795   3.446   3.185  1.0185  2.7528 -0.8991
  271MOL0     H36534   6.730   3.530   2.911 -0.5882  2.2052 -0.0134
  271MOL0     H36535   6.854   3.407   2.936 -3.1678 -2.0094 -1.5924
  271MOL0     H36536   6.788   3.742   3.163  0.7280  5.0336 -0.3461
  271MOL0     H36537   7.098   3.970   3.139 -3.0709  2.5447  0.4159
  271MOL0     H36538   6.963   3.943   3.240 -0.1600  1.3571 -2.0021
  271MOL0     H36539   7.221   3.770   3.275 -1.2288 -0.6544 -1.2975
  271MOL0     H36540   7.087   3.782   3.391 -2.6291  1.4366 -0.5316
  271MOL0     H36541   7.142   4.000   3.457 -0.6996  1.2793 -0.5737
  271MOL0     H36542   7.245   4.031   3.316 -1.0148  0.7147  0.1442
  271MOL0     H36543   7.377   4.023   3.522 -0.4900  0.3328  0.6777
  271MOL0     H36544   7.427   3.898   3.422  0.5408 -3.0087  1.6673
  271MOL0     H36545   7.358   3.579   3.647  0.7815 -1.8292  0.6058
  271MOL0     H36546   7.471   3.391   3.729  0.1430  2.6380 -1.6197
  271MOL0     H36547   7.614   3.415   3.820 -0.4779 -4.3390 -3.8414
  271MOL0     H36548   7.460   3.434   3.907  0.4759 -0.0328  0.2402
  271MOL0     H36549   7.943   3.916   4.120  0.5875 -1.0961 -1.4414
  271MOL0     H36550   8.058   3.904   4.324 -0.1743 -0.6197  1.4260
  271MOL0     H36551   8.152   3.821   4.655 -2.5600 -1.4864  1.6055
  271MOL0     H36552   8.125   3.928   4.516  1.3664 -1.6618 -0.8108
  271MOL0     H36553   8.005   3.883   4.777 -1.3128 -0.7304 -0.1868
  271MOL0     H36554   8.037   4.037   4.711 -1.2496 -0.3813 -0.4525
  271MOL0     H36555   7.802   3.857   4.606  0.1561  0.0246 -0.5104
  271MOL0     H36556   7.833   4.029   4.564  3.1018  2.3128  0.7931
  271MOL0     H36557   7.765   3.925   4.848 -4.4864  0.5527  1.2917
  271MOL0     H36558   7.814   4.087   4.815  1.3377 -0.2537  0.2162
  271MOL0     H36559   7.590   3.933   4.693 -0.0766 -0.0513 -0.7235
  271MOL0     H36560   7.614   4.109   4.660  0.5902 -1.1677 -1.4666
  271MOL0     H36561   7.427   4.084   4.816  0.8545 -3.3083 -1.1371
  271MOL0     H36562   7.546   4.006   4.926  0.7116 -0.2593 -0.5436
  271MOL0     H36563   7.626   4.261   4.821  0.4295  0.8524  1.2644
  271MOL0     H36564   7.662   4.184   4.981 -1.9962  0.4392  1.7682
  271MOL0     H36565   7.504   4.362   5.041 -1.3197 -0.9163  3.1135
  271MOL0     H36566   7.439   4.207   5.058  0.0050  1.5094  0.9864
  271MOL0     H36567   7.797   3.590   4.461 -1.0083 -2.5656 -2.3534
  271MOL0     H36568   7.663   3.620   4.257  0.4834 -1.0778  0.1620
  271MOL0     H36569   7.695   3.892   3.839  1.8854 -0.2209 -0.4315
  271MOL0     H36570   7.535   3.975   3.658  0.3596  1.2951  2.8713
  271MOL0     H36571   7.282   3.000   3.284  0.1388 -1.4227 -0.9658
  271MOL0     H36572   7.466   2.845   3.299  0.3619 -0.6241  1.2297
  271MOL0     H36573   7.494   2.354   3.516  0.1765 -1.4752 -1.7028
  271MOL0     H36574   7.628   2.179   3.609  0.1322  0.1852 -1.8643
  271MOL0     H36575   7.986   2.256   3.799 -0.2857  0.0279 -0.0522
  271MOL0     H36576   8.002   2.081   3.781  4.8999 -0.0467 -1.0343
  271MOL0     H36577   8.088   2.277   3.568 -2.4516  1.5818  3.3913
  271MOL0     H36578   8.077   2.112   3.527  2.1199  3.3152 -2.7278
  271MOL0     H36579   8.318   2.153   3.606 -0.6615  4.2603 -0.4540
  271MOL0     H36580   8.232   2.045   3.720  0.1425 -1.3373 -0.6056
  271MOL0     H36581   8.363   2.213   3.844 -0.5142  0.6365  0.1622
  271MOL0     H36582   8.191   2.237   3.864  0.3598 -1.8594 -0.6578
  271MOL0     H36583   8.242   2.592   3.689  0.1265  0.2163  0.0861
  271MOL0     H36584   7.961   2.435   3.635 -0.1658  2.6359  1.0437
  271MOL0     H36585   7.847   2.614   3.524 -2.0517  1.0796 -1.5777
  272MOL0     O36586   0.219   4.489   0.251  0.2278 -0.2044  0.2408
  272MOL0     C36587   0.291   4.586   0.262 -0.8781  0.1986  0.8499
  272MOL0     O36588   0.376   4.642   0.171 -0.2158  0.4587  0.7175
  272MOL0     C36589   0.372   4.600   0.034  0.0905 -0.5799  0.5190
  272MOL0     C36590   0.488   4.624  -0.036  0.4757  0.3608  0.0687
  272MOL0     C36591   0.495   4.587  -0.171 -0.0740 -0.4613 -0.5947
  272MOL0     C36592   0.388   4.530  -0.235 -0.3008  0.8491  0.5121
  272MOL0     O36593   0.400   4.468  -0.368  1.1355  0.2245 -0.0122
  272MOL0     C36594   0.295   4.422  -0.444  0.6488  0.3531 -0.1989
  272MOL0     C36595   0.334   4.412  -0.599  0.0156 -0.0469  0.4357
  272MOL0     C36596   0.358   4.548  -0.650 -1.0587 -0.1258 -0.6157
  272MOL0     C36597   0.411   4.569  -0.793  0.1787  0.0922 -0.0412
  272MOL0     C36598   0.439   4.711  -0.822 -0.1408  0.0942 -0.2605
  272MOL0     C36599   0.312   4.796  -0.841 -0.3703  0.8835  0.1688
  272MOL0     C36600   0.334   4.940  -0.860 -0.2674 -0.3331 -0.1689
  272MOL0     C36601   0.206   5.011  -0.875  1.1800 -0.1911  1.0945
  272MOL0     N36602   0.215   5.154  -0.866  0.1404 -0.4179  0.3046
  272MOL0     C36603   0.241   5.234  -0.970  0.8900 -0.7203  0.2370
  272MOL0     C36604   0.249   5.359  -0.924  0.8407 -0.0949  0.7086
  272MOL0     C36605   0.270   5.485  -1.004  0.1256  0.0564  0.0210
  272MOL0     C36606   0.131   5.541  -1.039  0.5927  0.1093 -0.4779
  272MOL0     C36607   0.151   5.678  -1.112 -0.3769  0.4220  0.5180
  272MOL0     C36608   0.014   5.732  -1.161 -0.1435  0.7947 -0.1849
  272MOL0     O36609  -0.080   5.747  -1.063  0.7499  0.8661 -0.0809
  272MOL0     C36610  -0.209   5.770  -1.100  0.0745 -0.4030 -0.7487
  272MOL0     C36611  -0.256   5.798  -1.225 -0.4673 -1.0975 -0.5762
  272MOL0     C36612  -0.391   5.839  -1.244  1.2715  1.0984 -0.0764
  272MOL0     C36613  -0.431   5.892  -1.385 -0.0383 -0.1918 -0.4113
  272MOL0     C36614  -0.480   5.854  -1.138 -0.4957  0.2104  0.2585
  272MOL0     C36615  -0.622   5.880  -1.147  0.6711  0.0077  0.7773
  272MOL0     O36616  -0.684   5.962  -1.056 -0.2592  0.2737 -0.3507
  272MOL0     C36617  -0.812   6.005  -1.081  0.6434 -0.9776 -0.2972
  272MOL0     C36618  -0.911   5.988  -0.986  0.4070  0.8613  0.1987
  272MOL0     C36619  -1.040   6.035  -0.999  0.7010  0.2432 -0.5331
  272MOL0     C36620  -1.086   6.100  -1.113 -0.4555 -0.2032  0.2515
  272MOL0     O36621  -1.215   6.154  -1.138  0.0732  0.0652 -0.4960
  272MOL0     C36622  -1.315   6.146  -1.031 -0.0236 -0.0319  0.0234
  272MOL0     C36623  -1.441   6.237  -1.078 -0.1964  0.0664 -0.2063
  272MOL0     C36624  -1.560   6.231  -0.980 -0.5517  0.0360  0.5859
  272MOL0     C36625  -1.568   6.362  -0.896  0.3006  0.2411 -0.2461
  272MOL0     C36626  -1.635   6.480  -0.970  0.2609  0.5725 -0.4225
  272MOL0     C36627  -1.780   6.458  -1.006 -0.1255  0.1697 -0.2872
  272MOL0     C36628  -1.812   6.419  -1.158 -0.0835  0.8175  0.1481
  272MOL0     C36629  -1.812   6.532  -1.264 -0.3273  0.2567  0.0437
  272MOL0    Cl36630  -1.899   6.676  -1.215  0.0607  0.0886 -0.0105
  272MOL0     C36631  -0.984   6.126  -1.216 -0.1588  0.5179  0.3391
  272MOL0     C36632  -0.852   6.077  -1.194  0.3413  0.6930  0.5149
  272MOL0     O36633  -0.677   5.838  -1.248  0.3622 -0.0061 -0.2971
  272MOL0     C36634  -0.435   5.814  -1.015  0.5210 -0.2980  1.5860
  272MOL0     C36635  -0.304   5.771  -1.000  0.5814 -0.8719 -0.4697
  272MOL0     N36636   0.236   5.352  -0.780  0.2281  0.3391 -0.6014
  272MOL0     N36637   0.211   5.226  -0.754 -0.5750 -0.6766 -0.0138
  272MOL0     C36638   0.262   4.517  -0.164 -1.4409 -0.2129 -0.2420
  272MOL0     C36639   0.258   4.568  -0.031  0.7511  0.3537  0.1763
  272MOL0     C36640   0.289   4.645   0.398  0.7128 -0.1704  0.2612
  272MOL0     C36641   0.215   4.588   0.502  0.5592  0.2187  0.8218
  272MOL0     C36642   0.234   4.636   0.629  0.9275  0.1389 -0.2416
  272MOL0     C36643   0.304   4.754   0.653  0.1258  0.3704  0.4805
  272MOL0     O36644   0.328   4.810   0.775  0.6680 -0.5608  0.0493
  272MOL0     C36645   0.286   4.753   0.904  0.0448 -0.3328 -0.3019
  272MOL0     C36646   0.304   4.847   1.021  0.5831 -0.1685  0.2205
  272MOL0     C36647   0.405   4.958   1.021 -0.6672  0.2045  0.2367
  272MOL0     C36648   0.547   4.910   1.037  0.0654  0.3770  0.4753
  272MOL0     C36649   0.609   4.845   0.917 -1.2471  0.1258 -0.5287
  272MOL0     C36650   0.664   4.793   0.821  1.2962  0.0447  0.8126
  272MOL0     C36651   0.355   4.831   0.541 -0.9136 -0.3803  0.0794
  272MOL0     C36652   0.356   4.773   0.417  0.6918 -0.0890  0.1577
  272MOL0     H36653   0.566   4.657   0.032 -0.1278  0.3372  0.7962
  272MOL0     H36654   0.597   4.604  -0.206  0.0554  2.0462  0.8035
  272MOL0     H36655   0.261   4.326  -0.403  1.3908  0.1581 -0.0278
  272MOL0     H36656   0.210   4.490  -0.439  1.9794  2.6512 -4.4967
  272MOL0     H36657   0.422   4.347  -0.602  0.3003  0.2880  1.2394
  272MOL0     H36658   0.251   4.359  -0.647 -0.0836 -0.8646  1.4563
  272MOL0     H36659   0.264   4.605  -0.650  1.0548  3.7565  0.1447
  272MOL0     H36660   0.431   4.594  -0.582 -1.8165  3.6054 -2.0804
  272MOL0     H36661   0.504   4.515  -0.815  0.7192  1.6295 -1.7982
  272MOL0     H36662   0.336   4.526  -0.860 -0.1367 -2.6129  1.8579
  272MOL0     H36663   0.504   4.759  -0.748 -1.2923  0.4269  0.5627
  272MOL0     H36664   0.500   4.716  -0.912  0.0966 -2.4849 -0.3215
  272MOL0     H36665   0.253   4.757  -0.924 -3.7292  0.5492  2.4944
  272MOL0     H36666   0.250   4.792  -0.750  0.4668 -0.4542  0.7126
  272MOL0     H36667   0.383   4.988  -0.775  0.0498 -0.5176 -0.2453
  272MOL0     H36668   0.398   4.953  -0.948 -1.2994 -0.9016 -1.0384
  272MOL0     H36669   0.129   4.972  -0.807  1.5068  0.5268  1.8882
  272MOL0     H36670   0.172   4.994  -0.977  2.7632  1.8254  0.1857
  272MOL0     H36671   0.260   5.200  -1.071 -0.2886  3.0654 -1.4383
  272MOL0     H36672   0.330   5.560  -0.952  0.6558 -0.0810 -0.3852
  272MOL0     H36673   0.321   5.463  -1.098  0.1812 -1.8631  0.4626
  272MOL0     H36674   0.073   5.559  -0.948 -0.2604 -2.0512 -0.5386
  272MOL0     H36675   0.074   5.481  -1.110  2.0224 -1.6265 -0.2254
  272MOL0     H36676   0.211   5.643  -1.196 -2.4712 -0.5158 -0.6867
  272MOL0     H36677   0.201   5.754  -1.051  0.3089  1.9796 -1.8553
  272MOL0     H36678  -0.023   5.671  -1.244 -0.3656 -0.0265  0.5133
  272MOL0     H36679   0.030   5.829  -1.209 -1.8189  1.3386  0.2675
  272MOL0     H36680  -0.199   5.800  -1.317  1.6064  0.3573  0.6476
  272MOL0     H36681  -0.353   5.880  -1.460  0.0775 -0.7066 -0.2180
  272MOL0     H36682  -0.520   5.837  -1.420 -2.4396  2.5358  0.9892
  272MOL0     H36683  -0.463   5.996  -1.379 -0.3660 -0.3089  4.8541
  272MOL0     H36684  -0.888   5.940  -0.891 -0.9450  0.2670  0.2475
  272MOL0     H36685  -1.112   6.030  -0.918  0.2928  4.1177 -0.4608
  272MOL0     H36686  -1.360   6.048  -1.011  0.8115  0.1063  3.1086
  272MOL0     H36687  -1.282   6.187  -0.935  0.2757 -0.3244  0.0490
  272MOL0     H36688  -1.412   6.340  -1.097  1.2805 -0.1896  0.4979
  272MOL0     H36689  -1.485   6.197  -1.170 -1.8023  2.7564 -0.6993
  272MOL0     H36690  -1.548   6.147  -0.911 -0.1221 -0.8023 -0.4900
  272MOL0     H36691  -1.652   6.200  -1.030 -0.4865  1.7204 -0.6726
  272MOL0     H36692  -1.627   6.335  -0.808 -2.0111  1.0971 -1.4384
  272MOL0     H36693  -1.465   6.384  -0.870  1.4287  0.7693 -4.4376
  272MOL0     H36694  -1.571   6.531  -1.042 -1.3140  0.5292 -1.9219
  272MOL0     H36695  -1.648   6.553  -0.889 -2.4116  1.7935 -1.8335
  272MOL0     H36696  -1.808   6.369  -0.949  0.3579  0.6563  0.7382
  272MOL0     H36697  -1.826   6.554  -0.979  2.4063  1.0741  1.1433
  272MOL0     H36698  -1.906   6.363  -1.158 -0.6122  1.6800 -0.8113
  272MOL0     H36699  -1.736   6.352  -1.199 -0.0634  1.8329 -1.5532
  272MOL0     H36700  -1.851   6.514  -1.365  1.3794 -0.5060 -0.5259
  272MOL0     H36701  -1.710   6.572  -1.273  0.3220 -1.1880  0.6867
  272MOL0     H36702  -1.016   6.176  -1.307 -0.6617 -0.5595 -0.0979
  272MOL0     H36703  -0.770   6.124  -1.246 -1.4931  1.6247 -1.6999
  272MOL0     H36704  -0.497   5.802  -0.927  0.3255 -0.9848  1.3629
  272MOL0     H36705  -0.268   5.753  -0.899  1.0248  1.6434 -0.1212
  272MOL0     H36706   0.169   4.473  -0.197 -0.0194 -1.3298 -3.1076
  272MOL0     H36707   0.167   4.542   0.022 -0.7541  1.6588 -1.6404
  272MOL0     H36708   0.160   4.499   0.475  0.7892  0.5894 -0.9799
  272MOL0     H36709   0.186   4.581   0.708  1.0933 -1.3220 -1.1226
  272MOL0     H36710   0.183   4.718   0.894  0.3482 -0.8003 -1.9776
  272MOL0     H36711   0.356   4.670   0.911  1.1007  0.6390  1.6135
  272MOL0     H36712   0.307   4.795   1.118 -0.5681 -2.7310 -1.0193
  272MOL0     H36713   0.211   4.903   1.018  0.8429  0.2518 -0.0306
  272MOL0     H36714   0.369   5.018   1.106 -4.7841 -0.6503 -0.6866
  272MOL0     H36715   0.397   5.028   0.938 -1.6946  1.2928  1.2083
  272MOL0     H36716   0.536   4.838   1.119 -1.3639 -1.1623 -0.9851
  272MOL0     H36717   0.620   4.988   1.062  3.6674 -1.6723 -2.4752
  272MOL0     H36718   0.725   4.761   0.740  1.1566  0.6397  0.4696
  272MOL0     H36719   0.413   4.921   0.556 -1.1929  0.0706 -1.3496
  272MOL0     H36720   0.405   4.824   0.334 -1.5970  0.3266 -1.0229
  273MOL0     O36721   9.734   0.708   1.316 -0.1184 -0.3498  0.1039
  273MOL0     C36722   9.694   0.819   1.299 -0.0328  0.2437  0.4962
  273MOL0     O36723   9.768   0.928   1.275 -0.8433  0.3682 -0.7557
  273MOL0     C36724   9.907   0.919   1.242  0.2641 -0.8515 -0.9105
  273MOL0     C36725   9.970   0.825   1.167 -1.3369  0.1185  0.0342
  273MOL0     C36726  10.106   0.836   1.126  0.1811 -0.6867 -0.8417
  273MOL0     C36727  10.181   0.954   1.170  0.3742 -0.2474  0.0268
  273MOL0     O36728  10.307   0.978   1.143 -0.5962 -0.1316 -0.0039
  273MOL0     C36729  10.389   1.006   1.262 -0.1104  0.0594  0.7797
  273MOL0     C36730  10.515   1.071   1.209  1.1301  0.2077  0.3375
  273MOL0     C36731  10.509   1.218   1.191  0.6214  0.0219 -0.2212
  273MOL0     C36732  10.652   1.267   1.168  0.0460  0.6444  0.3077
  273MOL0     C36733  10.738   1.318   1.287 -0.9407  0.0213  0.0948
  273MOL0     C36734  10.817   1.201   1.364 -0.0301  0.2046  0.8633
  273MOL0     C36735  10.951   1.245   1.426 -0.0099 -0.9838  0.2022
  273MOL0     C36736  11.026   1.133   1.476 -0.7734 -0.1705  0.1676
  273MOL0     N36737  10.974   1.076   1.603 -0.2048  0.4573  0.7619
  273MOL0     C36738  10.926   0.947   1.614 -0.0052 -0.5759  0.5479
  273MOL0     C36739  10.880   0.939   1.748 -0.2238 -0.0413  0.7234
  273MOL0     C36740  10.834   0.819   1.822 -0.4784  0.8736 -0.2257
  273MOL0     C36741  10.956   0.741   1.848 -0.6262 -0.1341 -1.3943
  273MOL0     C36742  11.024   0.649   1.740 -0.1753  0.4775 -0.6958
  273MOL0     C36743  11.141   0.553   1.780 -0.6965  0.0601 -0.0966
  273MOL0     O36744  11.175   0.488   1.654  0.3714 -0.2941 -1.0556
  273MOL0     C36745  11.276   0.395   1.656  0.5516 -0.1611  0.5430
  273MOL0     C36746  11.265   0.306   1.554 -0.0433  0.0334 -0.1177
  273MOL0     C36747  11.344   0.193   1.547  0.1572  0.0790  0.0023
  273MOL0     C36748  11.314   0.108   1.428  0.9810 -1.0495  0.3714
  273MOL0     C36749  11.450   0.170   1.639  0.2767 -0.2850 -0.6397
  273MOL0     C36750  11.537   0.057   1.647  0.7655 -0.4421 -0.6471
  273MOL0     O36751  11.665   0.075   1.689  0.8818  0.7982  0.4995
  273MOL0     C36752  11.743  -0.036   1.695 -0.7700 -0.1600 -0.8480
  273MOL0     C36753  11.850  -0.040   1.610  0.5184  0.3929 -0.7182
  273MOL0     C36754  11.933  -0.154   1.610 -0.8050 -0.4364  0.3889
  273MOL0     C36755  11.908  -0.261   1.697 -1.0762 -0.4332 -0.1352
  273MOL0     O36756  12.009  -0.349   1.684 -0.2120  0.0259 -1.0472
  273MOL0     C36757  12.017  -0.456   1.789 -0.2756  0.2175  0.2597
  273MOL0     C36758  12.116  -0.564   1.744  0.7046 -0.7708  0.8327
  273MOL0     C36759  12.256  -0.514   1.708  0.0588  0.1876 -0.9000
  273MOL0     C36760  12.360  -0.623   1.711 -0.1606 -0.1037  0.0208
  273MOL0     C36761  12.497  -0.571   1.681 -0.2138  0.6537  0.1865
  273MOL0     C36762  12.555  -0.480   1.795  0.4685  0.1134 -1.0158
  273MOL0     C36763  12.703  -0.443   1.793 -0.1617  0.4604  0.8154
  273MOL0     C36764  12.795  -0.555   1.837  0.2035  0.6149 -0.5394
  273MOL0    Cl36765  12.768  -0.600   2.001  0.1475  0.4374 -0.2630
  273MOL0     C36766  11.800  -0.256   1.789  0.1378  0.1564 -0.5336
  273MOL0     C36767  11.721  -0.145   1.780  0.4643 -0.4753  0.6908
  273MOL0     O36768  11.496  -0.045   1.600  0.8928 -0.0585  0.1014
  273MOL0     C36769  11.468   0.261   1.743  0.2548 -0.5837 -0.5429
  273MOL0     C36770  11.385   0.378   1.746  0.4724 -0.8687  0.5495
  273MOL0     N36771  10.886   1.065   1.802 -0.1812  0.0933  0.4591
  273MOL0     N36772  10.943   1.146   1.713  1.5329  0.6671 -0.2223
  273MOL0     C36773  10.108   1.055   1.243 -0.3421  0.4936  0.9192
  273MOL0     C36774   9.977   1.031   1.283  0.1087  0.3285 -0.2848
  273MOL0     C36775   9.554   0.838   1.310  0.0384  0.0799 -0.0747
  273MOL0     C36776   9.496   0.955   1.257 -0.2634  0.4132 -0.8326
  273MOL0     C36777   9.361   0.967   1.265  0.4610 -0.8069  0.9013
  273MOL0     C36778   9.276   0.864   1.318  0.6488 -0.4132 -0.6537
  273MOL0     O36779   9.143   0.889   1.333 -0.2225  0.1754 -0.3461
  273MOL0     C36780   9.059   0.806   1.415  0.3413  0.2401 -0.3486
  273MOL0     C36781   9.019   0.673   1.352  0.3879 -0.2621  0.4077
  273MOL0     C36782   8.935   0.689   1.225 -0.5785  0.1353  0.0292
  273MOL0     C36783   8.916   0.537   1.171  0.7760  0.6080  0.6154
  273MOL0     C36784   8.813   0.454   1.244 -1.3310 -0.4678  0.8057
  273MOL0     C36785   8.721   0.396   1.292  0.1606  0.3044 -0.2731
  273MOL0     C36786   9.337   0.749   1.355  1.2114 -0.6714  0.0808
  273MOL0     C36787   9.474   0.739   1.370 -0.2021 -0.1920  0.0480
  273MOL0     H36788   9.931   0.727   1.146 -0.4840 -0.5783  1.5315
  273MOL0     H36789  10.154   0.746   1.090 -0.4024 -2.7617  2.9879
  273MOL0     H36790  10.351   1.060   1.349  1.7746 -0.2004  1.8106
  273MOL0     H36791  10.428   0.910   1.297  1.4098 -0.6727 -2.5478
  273MOL0     H36792  10.595   1.043   1.277  1.4677  1.1577  0.3477
  273MOL0     H36793  10.531   1.024   1.111 -2.6425  2.3689 -1.5836
  273MOL0     H36794  10.446   1.255   1.110  1.3810  0.4755 -0.6213
  273MOL0     H36795  10.465   1.254   1.284 -2.7414 -1.1646 -1.2217
  273MOL0     H36796  10.706   1.184   1.120  4.0860  1.5770  2.7636
  273MOL0     H36797  10.656   1.344   1.091  1.7940 -0.7947 -1.1612
  273MOL0     H36798  10.819   1.375   1.241  1.5852 -3.0145  0.4444
  273MOL0     H36799  10.668   1.368   1.354 -0.9630 -0.6314  0.5704
  273MOL0     H36800  10.750   1.166   1.442 -0.7194 -4.7842 -1.5906
  273MOL0     H36801  10.824   1.112   1.300  1.2527  0.3631  0.7449
  273MOL0     H36802  11.008   1.288   1.344 -1.0054 -1.0522 -0.5509
  273MOL0     H36803  10.940   1.327   1.498 -2.6997  1.0151 -2.2193
  273MOL0     H36804  11.127   1.172   1.491 -0.3319 -0.3008 -2.1150
  273MOL0     H36805  11.052   1.049   1.410  4.9053  1.6704 -0.4920
  273MOL0     H36806  10.945   0.869   1.541  1.6954 -1.0318  1.4213
  273MOL0     H36807  10.789   0.860   1.913 -2.1549  2.0991 -1.5380
  273MOL0     H36808  10.763   0.759   1.764 -1.1320  0.2272  1.1908
  273MOL0     H36809  10.927   0.677   1.932 -2.1599  1.8292 -0.3297
  273MOL0     H36810  11.029   0.810   1.893 -1.0688  0.5374 -1.6957
  273MOL0     H36811  11.049   0.707   1.651 -2.4627  0.6576 -1.2920
  273MOL0     H36812  10.938   0.589   1.707  0.3821  0.7498 -2.8235
  273MOL0     H36813  11.104   0.488   1.859 -1.3298 -1.5845 -1.6801
  273MOL0     H36814  11.221   0.610   1.828 -1.6934  1.4295  0.0279
  273MOL0     H36815  11.184   0.318   1.483  1.3019 -0.9262 -1.9162
  273MOL0     H36816  11.321   0.173   1.340  2.1290 -1.1608  0.3692
  273MOL0     H36817  11.383   0.026   1.408 -0.5775 -2.4690  0.6602
  273MOL0     H36818  11.212   0.069   1.436  0.2139  0.9124  0.6928
  273MOL0     H36819  11.868   0.045   1.544  0.8016 -0.4804 -1.7975
  273MOL0     H36820  12.021  -0.149   1.546 -1.4433 -0.5804 -0.5205
  273MOL0     H36821  12.048  -0.415   1.885 -1.5305 -2.7152  2.0734
  273MOL0     H36822  11.920  -0.506   1.797 -0.7405  1.0638 -0.0528
  273MOL0     H36823  12.108  -0.643   1.819 -0.7217 -1.4001  0.0535
  273MOL0     H36824  12.070  -0.603   1.653 -2.3761 -0.1756  2.0347
  273MOL0     H36825  12.271  -0.430   1.775  0.8528  0.0413 -0.8804
  273MOL0     H36826  12.250  -0.480   1.604  1.6735 -0.0862 -1.1198
  273MOL0     H36827  12.358  -0.663   1.813 -1.3275 -1.4153 -0.4747
  273MOL0     H36828  12.327  -0.706   1.648  0.2241 -2.2168  2.4377
  273MOL0     H36829  12.490  -0.508   1.592  0.0718  0.2468 -0.1279
  273MOL0     H36830  12.558  -0.661   1.669 -0.0723  0.8300 -0.4384
  273MOL0     H36831  12.493  -0.389   1.792  0.2934  0.1067  0.9561
  273MOL0     H36832  12.543  -0.526   1.894  1.4698 -0.8796 -1.3385
  273MOL0     H36833  12.720  -0.365   1.869 -1.4881  2.7718 -1.1292
  273MOL0     H36834  12.744  -0.418   1.695 -1.9281 -3.8785 -1.2922
  273MOL0     H36835  12.900  -0.534   1.816  0.4365 -0.3192 -0.3877
  273MOL0     H36836  12.769  -0.639   1.771 -1.1070  1.1042 -0.6781
  273MOL0     H36837  11.785  -0.327   1.870 -3.5250  2.1819  0.8027
  273MOL0     H36838  11.633  -0.133   1.842  0.8789 -2.1659  1.6394
  273MOL0     H36839  11.550   0.243   1.811 -0.5441 -6.2007 -0.5661
  273MOL0     H36840  11.397   0.460   1.815 -0.1731  0.8831 -1.3169
  273MOL0     H36841  10.162   1.147   1.263  0.8570  0.5936 -2.1392
  273MOL0     H36842   9.921   1.104   1.341 -1.9651 -0.8786 -0.6514
  273MOL0     H36843   9.562   1.030   1.215  0.9078 -1.1252 -1.9056
  273MOL0     H36844   9.320   1.062   1.233  0.8049 -0.7483  0.6290
  273MOL0     H36845   9.095   0.796   1.518  2.2450  0.2358 -0.9712
  273MOL0     H36846   8.965   0.860   1.430  0.0027 -0.0739 -1.2921
  273MOL0     H36847   8.946   0.637   1.425 -0.5236  1.8545  0.6072
  273MOL0     H36848   9.110   0.616   1.332  0.5208  1.0471 -3.8167
  273MOL0     H36849   8.991   0.761   1.165  0.6613  0.6868  1.7566
  273MOL0     H36850   8.835   0.721   1.254 -0.8433 -0.6947  0.0517
  273MOL0     H36851   9.011   0.484   1.185  0.9101  0.6701 -0.0107
  273MOL0     H36852   8.885   0.535   1.066  0.9737 -2.0525  0.5441
  273MOL0     H36853   8.625   0.356   1.317  0.0996  0.9608  0.6056
  273MOL0     H36854   9.285   0.674   1.414  2.6103 -1.2821  0.5756
  273MOL0     H36855   9.521   0.657   1.423  1.7017 -0.0602 -1.3365
  274MOL0     O36856   5.333   7.388   8.354  0.5348  0.0294 -0.0961
  274MOL0     C36857   5.389   7.414   8.250  0.0005 -0.2392 -0.7548
  274MOL0     O36858   5.332   7.481   8.143  0.3800 -0.5350 -0.9121
  274MOL0     C36859   5.209   7.548   8.166  0.3637 -0.1771  0.6444
  274MOL0     C36860   5.102   7.506   8.085 -0.5977 -0.8144 -1.2838
  274MOL0     C36861   4.975   7.567   8.112  0.1465 -0.7248 -1.0114
  274MOL0     C36862   4.954   7.666   8.207  0.0503  0.2170  1.2910
  274MOL0     O36863   4.840   7.736   8.223  0.1749  0.0822  0.4101
  274MOL0     C36864   4.727   7.697   8.143  0.3966  0.0116 -0.3391
  274MOL0     C36865   4.593   7.779   8.169 -0.2412  0.4406  1.3566
  274MOL0     C36866   4.555   7.779   8.315  0.9346 -0.4487  0.0024
  274MOL0     C36867   4.428   7.874   8.331  0.3781 -0.1100  0.7743
  274MOL0     C36868   4.373   7.877   8.466  0.7213 -0.5704 -0.3088
  274MOL0     C36869   4.236   7.932   8.457  0.0389  0.3848  0.1686
  274MOL0     C36870   4.180   7.955   8.601 -0.0148 -0.2130 -0.2939
  274MOL0     C36871   4.055   8.044   8.600 -0.1321 -0.5738 -0.0116
  274MOL0     N36872   3.950   7.992   8.510 -0.0951 -0.4903  0.3225
  274MOL0     C36873   3.890   7.871   8.496 -0.3928  0.7435 -0.2560
  274MOL0     C36874   3.804   7.885   8.391 -0.1642 -0.3737 -0.1977
  274MOL0     C36875   3.718   7.777   8.337 -0.9584 -0.4050 -0.5813
  274MOL0     C36876   3.728   7.776   8.181  0.5994 -0.2853 -0.0808
  274MOL0     C36877   3.621   7.868   8.120  1.1735  0.0678 -0.0690
  274MOL0     C36878   3.661   7.908   7.976 -0.5913 -0.0577 -0.8502
  274MOL0     O36879   3.573   8.011   7.922 -0.0702 -1.1975 -0.2339
  274MOL0     C36880   3.584   8.046   7.789  1.0359  0.6834 -0.2691
  274MOL0     C36881   3.699   8.027   7.710  0.7536 -0.2477 -0.3831
  274MOL0     C36882   3.704   8.079   7.580 -0.6715  0.5425 -0.4271
  274MOL0     C36883   3.829   8.070   7.491 -0.2610 -0.0181  0.3254
  274MOL0     C36884   3.585   8.136   7.522  0.7286 -0.8910 -0.1230
  274MOL0     C36885   3.569   8.200   7.393  0.3433 -0.8265 -0.5132
  274MOL0     O36886   3.462   8.286   7.380 -0.3592 -0.2743  0.0499
  274MOL0     C36887   3.449   8.359   7.263  0.5888 -0.2472 -0.1655
  274MOL0     C36888   3.438   8.296   7.135 -1.4466  0.5878 -0.4553
  274MOL0     C36889   3.430   8.375   7.018  0.1081  0.2924 -0.0901
  274MOL0     C36890   3.445   8.515   7.021 -0.5193 -0.3114 -0.7680
  274MOL0     O36891   3.421   8.602   6.921 -0.7966  0.5791  0.2477
  274MOL0     C36892   3.452   8.559   6.785  0.2142 -0.5627 -0.9627
  274MOL0     C36893   3.502   8.692   6.726  0.1531  0.1577 -0.7144
  274MOL0     C36894   3.410   8.739   6.612 -1.0342  0.1073  0.3289
  274MOL0     C36895   3.429   8.886   6.583  0.0629 -1.1780 -0.5020
  274MOL0     C36896   3.566   8.919   6.524 -0.6390  0.9031 -0.4552
  274MOL0     C36897   3.588   9.067   6.494 -0.1082 -0.4531  0.5588
  274MOL0     C36898   3.528   9.114   6.361 -0.3288  0.0087  0.2833
  274MOL0     C36899   3.535   9.264   6.352  0.0802 -0.0635  0.2773
  274MOL0    Cl36900   3.688   9.348   6.383 -0.0965 -0.2074 -0.4792
  274MOL0     C36901   3.458   8.577   7.149 -0.2357 -0.0731  0.3446
  274MOL0     C36902   3.450   8.502   7.269  0.8758  0.9487  0.0645
  274MOL0     O36903   3.652   8.180   7.305 -0.5697 -0.2407 -0.0966
  274MOL0     C36904   3.471   8.150   7.600 -0.2165  0.0776 -0.7711
  274MOL0     C36905   3.472   8.103   7.734  1.2243 -0.0710 -0.3213
  274MOL0     N36906   3.802   8.018   8.349 -0.2755 -0.5769  0.3392
  274MOL0     N36907   3.898   8.072   8.408  0.5055  0.4055  0.2579
  274MOL0     C36908   5.074   7.710   8.274  0.7869  0.6957 -0.7961
  274MOL0     C36909   5.198   7.651   8.253  0.0751 -0.2664  0.0838
  274MOL0     C36910   5.535   7.388   8.246 -0.3887  0.4425 -0.0367
  274MOL0     C36911   5.610   7.404   8.128  0.8685  0.2708  0.7621
  274MOL0     C36912   5.745   7.379   8.116 -0.3327 -0.6315  0.5092
  274MOL0     C36913   5.806   7.319   8.225 -0.4764  0.2163  0.5154
  274MOL0     O36914   5.935   7.282   8.232  0.1936 -0.3601 -0.0831
  274MOL0     C36915   6.010   7.359   8.138  0.3427  0.0226  0.4855
  274MOL0     C36916   6.154   7.326   8.154 -0.1113 -0.8703  0.4009
  274MOL0     C36917   6.204   7.219   8.068 -0.2501 -1.1635 -0.0683
  274MOL0     C36918   6.344   7.196   8.096 -1.3408  0.2131  0.1200
  274MOL0     C36919   6.427   7.301   8.035 -0.2177  0.9116  1.0438
  274MOL0     C36920   6.502   7.392   7.988  0.6466 -0.1915  0.6318
  274MOL0     C36921   5.739   7.294   8.347 -0.7011  0.3801 -0.1622
  274MOL0     C36922   5.605   7.334   8.357  0.5981 -0.4778 -0.5176
  274MOL0     H36923   5.129   7.421   8.022  0.5612 -1.6078  0.2335
  274MOL0     H36924   4.892   7.532   8.051  0.0520  0.0631 -1.3491
  274MOL0     H36925   4.746   7.678   8.038  2.5781 -0.8882  0.1846
  274MOL0     H36926   4.704   7.598   8.184 -3.5877  2.2198  3.8849
  274MOL0     H36927   4.599   7.876   8.119  1.9656 -0.9624 -1.3775
  274MOL0     H36928   4.524   7.724   8.104  1.8799  2.7583 -3.3399
  274MOL0     H36929   4.523   7.678   8.345  1.0379 -1.7571 -3.7971
  274MOL0     H36930   4.627   7.837   8.373 -1.1447  1.7671  0.5376
  274MOL0     H36931   4.453   7.978   8.308 -0.8182 -0.0264 -0.2686
  274MOL0     H36932   4.349   7.847   8.260  1.0772  1.9368 -0.8663
  274MOL0     H36933   4.381   7.774   8.502  1.9249 -0.1746  0.6101
  274MOL0     H36934   4.428   7.936   8.539 -1.1967  1.1335 -0.1595
  274MOL0     H36935   4.244   8.025   8.400  0.4759  0.1170 -0.2199
  274MOL0     H36936   4.170   7.867   8.399  1.2746 -0.4219 -0.3842
  274MOL0     H36937   4.144   7.857   8.633 -0.1877 -1.2857 -3.3828
  274MOL0     H36938   4.258   7.991   8.669  0.0328  0.0419 -0.4827
  274MOL0     H36939   4.096   8.132   8.549  3.4881 -3.3246 -2.2894
  274MOL0     H36940   4.021   8.069   8.701 -0.4246 -1.8764  0.2246
  274MOL0     H36941   3.916   7.774   8.538 -3.5332 -0.3972 -0.7232
  274MOL0     H36942   3.758   7.682   8.372  3.2065  0.5248 -2.1693
  274MOL0     H36943   3.611   7.781   8.359 -0.4558  1.1062  1.9927
  274MOL0     H36944   3.715   7.674   8.144  0.6877 -0.2086 -0.3244
  274MOL0     H36945   3.828   7.801   8.145  0.5742 -1.1220 -0.7572
  274MOL0     H36946   3.616   7.953   8.189  3.1271  0.0059  0.2003
  274MOL0     H36947   3.522   7.822   8.130  1.9635 -1.2619  2.3261
  274MOL0     H36948   3.683   7.822   7.913  0.0856  0.3003 -1.1150
  274MOL0     H36949   3.756   7.961   7.985 -1.8586  2.2323  0.1746
  274MOL0     H36950   3.791   7.984   7.749 -1.5877 -2.1121  3.7494
  274MOL0     H36951   3.899   8.012   7.552 -0.0963  0.6143  0.7490
  274MOL0     H36952   3.805   8.015   7.400  0.1866 -1.1998  0.9087
  274MOL0     H36953   3.864   8.173   7.475  1.6782 -0.3707  1.8796
  274MOL0     H36954   3.430   8.188   7.130 -2.3897  0.6799 -1.2707
  274MOL0     H36955   3.413   8.329   6.922 -0.6728  1.8818 -0.7455
  274MOL0     H36956   3.534   8.488   6.798 -0.0006 -0.3519  2.4685
  274MOL0     H36957   3.357   8.521   6.747 -1.3974  1.3756  0.8451
  274MOL0     H36958   3.510   8.765   6.808 -1.9881 -2.9934  2.5886
  274MOL0     H36959   3.607   8.685   6.696  0.4061 -0.2768  0.2302
  274MOL0     H36960   3.306   8.728   6.641 -0.8494 -2.8105  0.1647
  274MOL0     H36961   3.430   8.677   6.523  0.4729  1.2531 -0.1855
  274MOL0     H36962   3.354   8.917   6.509 -2.1706  1.0607  2.4581
  274MOL0     H36963   3.425   8.945   6.674 -0.1545 -0.8960 -0.6937
  274MOL0     H36964   3.574   8.869   6.428 -0.3620  0.9480 -0.4553
  274MOL0     H36965   3.645   8.879   6.589  1.0180 -1.3341 -3.5959
  274MOL0     H36966   3.553   9.134   6.573  0.3431  2.3815 -1.4654
  274MOL0     H36967   3.695   9.089   6.484 -0.8289  2.3028 -3.1526
  274MOL0     H36968   3.426   9.076   6.345 -1.2153  1.9295  1.0657
  274MOL0     H36969   3.593   9.068   6.287 -2.0835 -1.2110 -0.5661
  274MOL0     H36970   3.459   9.306   6.419 -2.6012 -2.2226 -1.2139
  274MOL0     H36971   3.526   9.305   6.250  3.3351 -0.2174 -0.1649
  274MOL0     H36972   3.465   8.683   7.129  1.1703 -0.8264 -4.4645
  274MOL0     H36973   3.444   8.558   7.361 -1.0797  3.2430 -1.3232
  274MOL0     H36974   3.370   8.182   7.578  0.0537  1.8793  0.4308
  274MOL0     H36975   3.384   8.110   7.797  1.6724  2.4193  0.1461
  274MOL0     H36976   5.081   7.789   8.348 -0.3604 -0.5863  0.7332
  274MOL0     H36977   5.276   7.691   8.317 -1.1782  1.3374  0.6714
  274MOL0     H36978   5.545   7.436   8.047  2.0859  2.9283  0.7202
  274MOL0     H36979   5.792   7.404   8.021  0.0680 -1.3590  0.5081
  274MOL0     H36980   5.986   7.338   8.034  0.0285 -0.7536  0.7075
  274MOL0     H36981   5.991   7.464   8.160  0.0985  0.0812  0.0088
  274MOL0     H36982   6.174   7.306   8.259 -0.3552 -0.3385  0.5568
  274MOL0     H36983   6.197   7.425   8.133 -1.4715 -0.5033 -0.8716
  274MOL0     H36984   6.188   7.248   7.963 -1.7140  2.5178  0.9919
  274MOL0     H36985   6.148   7.127   8.085 -1.2141 -0.6796 -0.5002
  274MOL0     H36986   6.388   7.103   8.060  1.1957  2.3527 -2.9536
  274MOL0     H36987   6.355   7.199   8.205 -1.2147 -1.3747  0.1665
  274MOL0     H36988   6.565   7.468   7.947  0.6851  0.2647  1.5295
  274MOL0     H36989   5.792   7.255   8.434 -0.4909  1.2201  0.0927
  274MOL0     H36990   5.556   7.321   8.453  3.2259 -1.1032  0.8360
  275MOL0     O36991   9.383   7.522   6.009 -0.5867 -0.2182 -0.1938
  275MOL0     C36992   9.435   7.446   6.094  0.2421 -0.3178 -0.1990
  275MOL0     O36993   9.365   7.354   6.170  0.1282  0.0568 -0.1140
  275MOL0     C36994   9.235   7.326   6.128 -0.7579 -0.4103 -0.6332
  275MOL0     C36995   9.210   7.257   6.011  0.5488 -0.3262  0.3767
  275MOL0     C36996   9.078   7.219   5.976  0.1742 -0.3436 -0.8015
  275MOL0     C36997   8.968   7.239   6.072 -0.5115 -0.5365 -0.2086
  275MOL0     O36998   8.847   7.213   6.031  0.6491 -0.1670 -0.0239
  275MOL0     C36999   8.726   7.259   6.097  0.9841  1.1334  0.1917
  275MOL0     C37000   8.694   7.163   6.218 -0.3037 -0.3933 -0.0548
  275MOL0     C37001   8.680   7.014   6.183  0.1609  0.7725  0.4418
  275MOL0     C37002   8.657   6.915   6.292  0.5107 -0.4374  1.4296
  275MOL0     C37003   8.515   6.900   6.344  0.0768  0.2078  0.0755
  275MOL0     C37004   8.526   6.789   6.465  0.3758 -0.8787  0.8137
  275MOL0     C37005   8.386   6.766   6.526 -0.9707 -0.3675  0.6102
  275MOL0     C37006   8.392   6.649   6.622 -0.9019  0.1495  0.6950
  275MOL0     N37007   8.259   6.643   6.695 -0.3259 -0.7465  0.5248
  275MOL0     C37008   8.146   6.579   6.656 -0.8926  0.7881 -0.5134
  275MOL0     C37009   8.051   6.632   6.731  0.0976 -0.3174  0.3632
  275MOL0     C37010   7.905   6.594   6.735  0.2349 -0.2647 -0.0840
  275MOL0     C37011   7.819   6.637   6.616 -0.0089  0.1867 -0.4778
  275MOL0     C37012   7.800   6.788   6.611  0.1444  0.4775  0.0175
  275MOL0     C37013   7.688   6.829   6.523 -0.2175 -0.5879  0.5513
  275MOL0     O37014   7.691   6.972   6.480 -0.1066  0.4957  0.3839
  275MOL0     C37015   7.578   7.020   6.430  0.1572  0.0445  0.8528
  275MOL0     C37016   7.585   7.134   6.355  0.0132  0.2320 -0.1577
  275MOL0     C37017   7.477   7.194   6.291 -0.2967 -0.2457  0.4146
  275MOL0     C37018   7.491   7.322   6.214 -1.3781  0.5646  0.2015
  275MOL0     C37019   7.342   7.145   6.321  0.7640 -0.8899  0.4671
  275MOL0     C37020   7.219   7.211   6.273  0.4713 -0.0327 -0.0772
  275MOL0     O37021   7.122   7.126   6.209 -0.2152  0.9143  0.1798
  275MOL0     C37022   7.065   7.198   6.106  0.5655  0.1616  0.4150
  275MOL0     C37023   6.943   7.264   6.132 -0.3777 -0.0489 -0.3023
  275MOL0     C37024   6.884   7.336   6.026  0.2919 -0.1717  0.6312
  275MOL0     C37025   6.946   7.342   5.904 -0.3123  1.1136 -0.0681
  275MOL0     O37026   6.897   7.412   5.796  0.0898 -0.0739  0.0566
  275MOL0     C37027   6.784   7.491   5.798  0.3322 -0.0504 -0.7367
  275MOL0     C37028   6.812   7.614   5.883  0.0858  0.2875  0.1899
  275MOL0     C37029   6.696   7.715   5.897 -0.8793 -0.2702  0.4478
  275MOL0     C37030   6.745   7.855   5.947  0.1141  0.3258 -1.5455
  275MOL0     C37031   6.636   7.954   5.980  0.6179  0.4924 -0.1635
  275MOL0     C37032   6.552   7.985   5.855 -0.1971 -0.2527  0.1687
  275MOL0     C37033   6.473   8.107   5.890 -0.1060 -0.0151  0.2864
  275MOL0     C37034   6.343   8.109   5.806 -0.2600  0.4043 -0.0682
  275MOL0    Cl37035   6.358   8.207   5.660 -0.0737 -0.0190 -0.2648
  275MOL0     C37036   7.069   7.272   5.876  0.4400  0.6922 -0.1622
  275MOL0     C37037   7.122   7.199   5.980  0.3355 -1.2485 -0.1014
  275MOL0     O37038   7.197   7.330   6.301  0.0325  0.1032  0.4662
  275MOL0     C37039   7.336   7.024   6.384 -0.5813 -0.3580  0.0245
  275MOL0     C37040   7.452   6.953   6.431 -0.3302  0.0884  0.2606
  275MOL0     N37041   8.104   6.729   6.806 -0.1491 -0.1851 -0.6513
  275MOL0     N37042   8.232   6.725   6.795  1.2253 -0.1869  0.7532
  275MOL0     C37043   8.998   7.316   6.187 -0.4117  1.6076  0.3195
  275MOL0     C37044   9.128   7.358   6.216  0.5899 -0.0207  1.1680
  275MOL0     C37045   9.580   7.427   6.102 -0.3616  0.6108 -0.7138
  275MOL0     C37046   9.637   7.321   6.177  0.6378 -0.3162 -0.7603
  275MOL0     C37047   9.773   7.294   6.175 -0.1491 -0.5572 -0.4010
  275MOL0     C37048   9.865   7.363   6.114  0.3080  0.2440 -0.1447
  275MOL0     O37049   9.988   7.314   6.105  0.2695  0.1448 -0.6710
  275MOL0     C37050  10.087   7.385   6.028 -0.0075 -0.6443  0.3626
  275MOL0     C37051  10.205   7.287   6.007 -0.4196 -1.1213 -0.5225
  275MOL0     C37052  10.320   7.354   5.939 -0.7297 -0.7723 -0.3562
  275MOL0     C37053  10.409   7.244   5.869 -0.6209 -0.2074 -0.5688
  275MOL0     C37054  10.365   7.211   5.734 -0.2724 -0.5299 -0.5503
  275MOL0     C37055  10.344   7.172   5.627  1.0592 -0.6757  1.6817
  275MOL0     C37056   9.815   7.479   6.057  0.5522  1.4684  0.0514
  275MOL0     C37057   9.676   7.507   6.040 -0.0447  0.5899 -0.3074
  275MOL0     H37058   9.294   7.235   5.946 -0.0071 -2.3652  0.2824
  275MOL0     H37059   9.057   7.176   5.879 -0.8658 -0.7316 -0.4136
  275MOL0     H37060   8.722   7.363   6.133 -2.6271  1.0290  0.4743
  275MOL0     H37061   8.641   7.255   6.028  1.0564  1.3121  0.0908
  275MOL0     H37062   8.767   7.172   6.300  2.4022  2.1792 -2.4915
  275MOL0     H37063   8.597   7.193   6.259 -0.8115 -0.9399 -0.8311
  275MOL0     H37064   8.611   7.000   6.099  2.7672 -0.8003 -1.5966
  275MOL0     H37065   8.775   6.979   6.142 -0.4146 -0.9639  0.4717
  275MOL0     H37066   8.687   6.816   6.256 -0.7008  0.8348 -3.8989
  275MOL0     H37067   8.712   6.954   6.378 -0.6906  0.2448  1.9184
  275MOL0     H37068   8.477   6.995   6.382 -1.5256 -0.5339  0.4307
  275MOL0     H37069   8.443   6.854   6.276  1.5605 -1.4144 -0.4601
  275MOL0     H37070   8.563   6.696   6.421  1.5955  0.5178 -1.2826
  275MOL0     H37071   8.596   6.828   6.540  1.1486 -1.4359  0.3979
  275MOL0     H37072   8.345   6.857   6.571 -4.5799 -0.7808 -1.4533
  275MOL0     H37073   8.309   6.748   6.450 -0.7554 -0.8891  0.5079
  275MOL0     H37074   8.469   6.652   6.700  0.7099 -0.9516 -0.7854
  275MOL0     H37075   8.413   6.558   6.565  0.9563 -0.8113  2.7510
  275MOL0     H37076   8.138   6.502   6.581  0.7689  0.6672 -0.5957
  275MOL0     H37077   7.907   6.484   6.733 -1.0353 -0.3538 -3.3995
  275MOL0     H37078   7.868   6.612   6.836 -0.0366 -0.0362 -0.2242
  275MOL0     H37079   7.716   6.600   6.621 -1.6527  4.3354  0.9441
  275MOL0     H37080   7.866   6.603   6.523  1.0584  4.4813 -1.7436
  275MOL0     H37081   7.892   6.835   6.575  0.6851 -1.2297 -0.9465
  275MOL0     H37082   7.766   6.829   6.707 -0.1233  0.7496 -0.1912
  275MOL0     H37083   7.597   6.800   6.577 -1.4206  1.0550 -0.4816
  275MOL0     H37084   7.707   6.764   6.437 -0.5153 -0.0265  0.0512
  275MOL0     H37085   7.677   7.185   6.326  0.0394  0.2351 -0.0670
  275MOL0     H37086   7.435   7.302   6.122  2.5960 -1.3802 -2.0689
  275MOL0     H37087   7.438   7.404   6.263 -3.9818 -1.2816  0.6847
  275MOL0     H37088   7.592   7.357   6.189 -1.5942 -0.2260 -1.9311
  275MOL0     H37089   6.893   7.272   6.228  1.9270  1.0760  0.8881
  275MOL0     H37090   6.788   7.382   6.046 -0.1166 -1.0383  0.7248
  275MOL0     H37091   6.752   7.521   5.699 -2.0733 -0.6046 -0.1984
  275MOL0     H37092   6.701   7.435   5.841  1.4640 -0.6005  0.8485
  275MOL0     H37093   6.845   7.590   5.985 -2.1010 -1.8864  0.4623
  275MOL0     H37094   6.896   7.665   5.835 -0.1172 -0.0395 -0.5198
  275MOL0     H37095   6.632   7.680   5.979  0.4021 -0.8640  1.2356
  275MOL0     H37096   6.644   7.721   5.801  1.9108  1.9560 -1.0764
  275MOL0     H37097   6.808   7.838   6.035 -0.8740 -2.3861 -1.2705
  275MOL0     H37098   6.792   7.900   5.859 -1.4761  2.3385 -1.4437
  275MOL0     H37099   6.664   8.049   6.027 -0.4444  0.4437  0.6048
  275MOL0     H37100   6.564   7.909   6.049  0.3760  1.4631  0.2263
  275MOL0     H37101   6.621   8.015   5.776 -0.2104 -0.6432  0.0047
  275MOL0     H37102   6.502   7.897   5.813  0.2800  0.5225 -2.1693
  275MOL0     H37103   6.534   8.196   5.871 -0.8151  0.1106 -1.5903
  275MOL0     H37104   6.440   8.105   5.994 -0.9709  0.1166  0.0175
  275MOL0     H37105   6.253   8.138   5.862 -2.3173 -1.8231 -2.0098
  275MOL0     H37106   6.319   8.007   5.777 -2.0072  0.5571  0.7190
  275MOL0     H37107   7.116   7.264   5.778 -2.5117 -2.2784 -1.5198
  275MOL0     H37108   7.211   7.142   5.955  2.1962  1.3462  0.2788
  275MOL0     H37109   7.245   6.966   6.397 -1.6954  1.6890  2.0637
  275MOL0     H37110   7.435   6.857   6.479  1.6879 -0.3415  0.2198
  275MOL0     H37111   8.914   7.333   6.254 -1.3604 -0.7184 -0.1751
  275MOL0     H37112   9.134   7.418   6.307 -1.3550  2.4396 -0.1845
  275MOL0     H37113   9.582   7.251   6.239  1.4077  0.2152  0.5593
  275MOL0     H37114   9.809   7.202   6.219 -0.9513 -0.5334  0.3272
  275MOL0     H37115  10.050   7.406   5.927  1.7065 -2.4417 -0.7105
  275MOL0     H37116  10.116   7.481   6.070 -0.9629  0.3690 -1.1755
  275MOL0     H37117  10.170   7.206   5.942 -1.1170 -1.5098  0.3108
  275MOL0     H37118  10.245   7.235   6.094  1.3373  0.8613 -0.0731
  275MOL0     H37119  10.384   7.390   6.020 -0.2337 -3.3884  0.4991
  275MOL0     H37120  10.297   7.441   5.877  2.8915  0.6447  0.0511
  275MOL0     H37121  10.419   7.150   5.922  3.3467 -0.7247 -1.8920
  275MOL0     H37122  10.507   7.293   5.858 -1.5959  1.3338 -3.6609
  275MOL0     H37123  10.320   7.163   5.523 -0.8754  0.8187  1.9449
  275MOL0     H37124   9.889   7.544   6.012 -0.1102  1.8058 -0.5585
  275MOL0     H37125   9.647   7.589   5.975 -1.7694 -0.6379 -1.1716
  276MOL0     O37126   3.041  10.601   9.065  1.1124 -0.0335 -0.0019
  276MOL0     C37127   2.980  10.513   9.003  0.6511  0.3030  0.5701
  276MOL0     O37128   2.847  10.499   8.987 -0.0682  0.2903 -0.2388
  276MOL0     C37129   2.768  10.584   9.057 -0.1152  0.0459 -0.0301
  276MOL0     C37130   2.769  10.575   9.193 -0.8558  0.4844 -0.3934
  276MOL0     C37131   2.689  10.662   9.272  0.2816 -0.0334  0.2570
  276MOL0     C37132   2.598  10.753   9.215 -0.3787  0.0527  0.2114
  276MOL0     O37133   2.528  10.839   9.286 -0.1074  0.2380  0.2718
  276MOL0     C37134   2.606  10.927   9.363  0.1817  0.0406 -0.2564
  276MOL0     C37135   2.528  11.061   9.373 -0.2088 -1.2356  0.6070
  276MOL0     C37136   2.438  11.097   9.250 -0.8675  0.5760  0.1957
  276MOL0     C37137   2.346  11.203   9.299  0.2235 -1.0177 -1.4271
  276MOL0     C37138   2.276  11.274   9.182 -0.9671  0.5750  0.2597
  276MOL0     C37139   2.143  11.337   9.224  0.3036 -0.6289  0.3439
  276MOL0     C37140   2.181  11.459   9.312  0.6522  0.1261  0.4148
  276MOL0     C37141   2.069  11.557   9.314 -0.2543  0.5111  0.1798
  276MOL0     N37142   1.947  11.503   9.366  0.8222  0.3476  0.5010
  276MOL0     C37143   1.915  11.500   9.501  0.8306  0.8754 -0.3750
  276MOL0     C37144   1.809  11.423   9.520  0.1570  1.2144  0.2384
  276MOL0     C37145   1.741  11.372   9.648  0.1964  0.9946 -0.0038
  276MOL0     C37146   1.641  11.471   9.702 -0.0403 -0.5178 -0.0496
  276MOL0     C37147   1.502  11.444   9.632 -0.4508 -0.6218  0.1192
  276MOL0     C37148   1.408  11.542   9.684 -0.1432  0.3264 -0.3514
  276MOL0     O37149   1.266  11.521   9.629  1.0246  0.1116 -0.3744
  276MOL0     C37150   1.174  11.471   9.720  0.3865  0.6167 -0.6121
  276MOL0     C37151   1.196  11.386   9.831 -0.1535 -1.6361  0.5971
  276MOL0     C37152   1.096  11.326   9.908  0.0259 -1.0356  0.4027
  276MOL0     C37153   1.128  11.248  10.033  0.4582  0.4809 -0.9130
  276MOL0     C37154   0.960  11.336   9.870  0.2464 -0.6102 -0.9774
  276MOL0     C37155   0.846  11.275   9.928 -0.1989  0.3956  0.5642
  276MOL0     O37156   0.869  11.147   9.969 -0.3257  0.0268  0.0320
  276MOL0     C37157   0.765  11.080  10.028  0.2854 -0.0980 -0.3509
  276MOL0     C37158   0.771  11.053  10.172 -0.8147 -0.2554 -0.4363
  276MOL0     C37159   0.658  10.995  10.225 -0.4673  0.1728 -0.6042
  276MOL0     C37160   0.548  10.959  10.145  0.6862 -0.4071  0.8339
  276MOL0     O37161   0.440  10.895  10.215 -0.9591 -0.0292 -0.1106
  276MOL0     C37162   0.359  10.793  10.166  0.3409  0.3934  0.2157
  276MOL0     C37163   0.284  10.732  10.289 -0.1493 -0.2012  0.0719
  276MOL0     C37164   0.343  10.604  10.355 -0.0874  0.0815 -0.3917
  276MOL0     C37165   0.277  10.577  10.485 -0.2428 -0.1064 -0.2265
  276MOL0     C37166   0.336  10.446  10.546  0.0150  0.8136  0.6323
  276MOL0     C37167   0.224  10.383  10.628 -0.5851  0.0461 -0.3049
  276MOL0     C37168   0.274  10.245  10.685 -0.3332 -0.4360  0.7038
  276MOL0     C37169   0.164  10.152  10.737 -0.1253 -0.5036  0.3832
  276MOL0    Cl37170   0.235  10.015  10.797 -0.2802 -0.2247 -0.2725
  276MOL0     C37171   0.538  10.996  10.015 -0.1115  0.1050 -0.7402
  276MOL0     C37172   0.644  11.057   9.954 -1.0732  0.3505 -0.0690
  276MOL0     O37173   0.740  11.335   9.924 -0.0286  0.1969 -0.7924
  276MOL0     C37174   0.939  11.417   9.754 -0.1999 -0.3117  0.1117
  276MOL0     C37175   1.041  11.475   9.675 -0.9253  0.5374 -0.7950
  276MOL0     N37176   1.777  11.380   9.392 -1.1295 -0.5973 -0.0407
  276MOL0     N37177   1.859  11.421   9.302  0.5358  0.2623  0.2392
  276MOL0     C37178   2.593  10.754   9.077  0.3212 -0.1119 -0.3724
  276MOL0     C37179   2.675  10.664   8.994 -0.4156 -0.5044  0.0565
  276MOL0     C37180   3.068  10.416   8.929 -0.7072 -0.6088  0.1138
  276MOL0     C37181   3.017  10.304   8.864  0.4674 -0.3654 -0.3987
  276MOL0     C37182   3.102  10.214   8.792 -0.7060 -0.2028 -0.2955
  276MOL0     C37183   3.245  10.236   8.788 -0.3771  0.4349 -1.1379
  276MOL0     O37184   3.329  10.141   8.740 -0.5676 -0.9340  0.6629
  276MOL0     C37185   3.416  10.196   8.638 -0.3870  0.5106  0.1211
  276MOL0     C37186   3.357  10.190   8.498  0.4018  0.3894  0.7919
  276MOL0     C37187   3.433  10.101   8.400 -0.5215  1.0955  0.2242
  276MOL0     C37188   3.450   9.954   8.450 -0.4782 -0.3902  0.1926
  276MOL0     C37189   3.404   9.846   8.360 -0.6024 -0.2512  0.2464
  276MOL0     C37190   3.376   9.755   8.281 -0.4106  0.4906 -0.6176
  276MOL0     C37191   3.297  10.345   8.858  1.0515 -0.0404 -0.6713
  276MOL0     C37192   3.209  10.441   8.911  0.0550  0.1419  0.1655
  276MOL0     H37193   2.823  10.505   9.256 -2.1463  2.9639  3.9034
  276MOL0     H37194   2.682  10.645   9.379 -0.1601 -0.3190  0.1847
  276MOL0     H37195   2.646  10.886   9.455  0.3172 -1.4551 -0.9632
  276MOL0     H37196   2.700  10.953   9.313  0.0965  2.5733  0.7279
  276MOL0     H37197   2.453  11.049   9.452 -0.2886  0.6541  0.8776
  276MOL0     H37198   2.603  11.139   9.389  0.1404 -2.2329  4.9982
  276MOL0     H37199   2.508  11.126   9.171  1.8017  1.5880  2.7568
  276MOL0     H37200   2.382  11.010   9.215 -1.3883  1.1595 -0.4440
  276MOL0     H37201   2.275  11.161   9.371 -1.2887  1.0035 -1.6544
  276MOL0     H37202   2.404  11.280   9.351 -0.6787  0.7988 -3.0018
  276MOL0     H37203   2.341  11.345   9.131  0.6852 -0.4665  0.8300
  276MOL0     H37204   2.243  11.195   9.114 -0.7093 -0.3556  1.1903
  276MOL0     H37205   2.087  11.366   9.136 -1.1150 -1.7321  0.8479
  276MOL0     H37206   2.074  11.271   9.278 -1.3880  2.2567  1.9975
  276MOL0     H37207   2.192  11.433   9.418 -0.2487 -0.1413  0.4472
  276MOL0     H37208   2.275  11.501   9.276 -0.1818  0.8155 -1.0631
  276MOL0     H37209   2.046  11.593   9.213  1.6086  0.4144 -0.3235
  276MOL0     H37210   2.106  11.647   9.365 -2.8596  1.4491  0.5726
  276MOL0     H37211   1.970  11.542   9.586 -1.0424  1.9235  0.3851
  276MOL0     H37212   1.699  11.275   9.622  1.4073  0.6486 -0.7557
  276MOL0     H37213   1.817  11.348   9.723 -1.3330  3.5409  2.5912
  276MOL0     H37214   1.669  11.573   9.674  0.1214 -1.1501 -2.4098
  276MOL0     H37215   1.637  11.467   9.811  3.5709  2.2606  0.3766
  276MOL0     H37216   1.461  11.343   9.626 -0.5511 -0.5343 -0.8359
  276MOL0     H37217   1.523  11.462   9.526  1.3555 -2.4008  0.1187
  276MOL0     H37218   1.448  11.636   9.645 -0.3698  0.3026 -0.6509
  276MOL0     H37219   1.418  11.544   9.793 -1.3966  0.9149 -0.2267
  276MOL0     H37220   1.302  11.368   9.848  0.7280 -2.3834 -4.2193
  276MOL0     H37221   1.053  11.237  10.112  0.0103 -3.5258 -1.6873
  276MOL0     H37222   1.149  11.146   9.998 -0.1594  1.2761 -3.8610
  276MOL0     H37223   1.220  11.292  10.073  0.4630 -0.8347  0.6055
  276MOL0     H37224   0.855  11.093  10.227 -0.5568 -1.9643  0.4830
  276MOL0     H37225   0.649  10.990  10.333 -2.7437  2.4283 -0.6057
  276MOL0     H37226   0.286  10.843  10.101  0.4685  0.7188  0.3242
  276MOL0     H37227   0.414  10.716  10.111 -0.9444 -1.8970  1.9285
  276MOL0     H37228   0.277  10.806  10.369  2.9663 -1.3040  1.5325
  276MOL0     H37229   0.185  10.699  10.257 -1.0930  1.0275  1.5684
  276MOL0     H37230   0.448  10.624  10.379 -0.6840 -0.5635  3.3918
  276MOL0     H37231   0.331  10.520  10.285 -0.5338 -0.4918  0.3600
  276MOL0     H37232   0.294  10.649  10.566 -3.3990  2.1731 -1.4008
  276MOL0     H37233   0.168  10.571  10.475 -0.1300 -2.5213 -0.7286
  276MOL0     H37234   0.422  10.474  10.607  0.2095  3.3619 -0.6476
  276MOL0     H37235   0.358  10.376  10.464 -0.8971  3.0430 -1.6656
  276MOL0     H37236   0.190  10.447  10.710 -1.3710 -1.9975  1.0385
  276MOL0     H37237   0.131  10.362  10.573 -2.3021 -0.0184  2.4375
  276MOL0     H37238   0.335  10.270  10.772 -0.7422  1.6280  0.4361
  276MOL0     H37239   0.325  10.197  10.601 -2.7140  1.8088 -2.2651
  276MOL0     H37240   0.101  10.130  10.650  2.0613  0.6933 -1.5986
  276MOL0     H37241   0.109  10.201  10.818 -1.5131 -0.1945 -0.6968
  276MOL0     H37242   0.446  10.972   9.962 -0.6393 -2.6391  1.2262
  276MOL0     H37243   0.641  11.067   9.846 -2.0192 -2.6969 -0.4066
  276MOL0     H37244   0.839  11.424   9.713 -0.1476 -1.3371 -0.2220
  276MOL0     H37245   1.029  11.511   9.574 -1.9312  1.4649 -0.3623
  276MOL0     H37246   2.524  10.826   9.036  0.0207 -0.6001 -0.7335
  276MOL0     H37247   2.664  10.663   8.886 -1.2859 -0.9402  0.1462
  276MOL0     H37248   2.911  10.281   8.870  0.0844  0.6389 -2.3091
  276MOL0     H37249   3.089  10.121   8.738 -0.1854 -0.2096 -0.4161
  276MOL0     H37250   3.447  10.299   8.659  1.9146 -0.4625  1.8353
  276MOL0     H37251   3.507  10.136   8.633 -2.0830 -2.2045 -0.6713
  276MOL0     H37252   3.343  10.293   8.465 -1.4626  0.4155  1.5528
  276MOL0     H37253   3.257  10.149   8.509 -0.2908  1.6027 -0.6012
  276MOL0     H37254   3.522  10.151   8.361 -0.4327  1.9406  1.4748
  276MOL0     H37255   3.371  10.093   8.310 -0.0155 -0.8547 -0.0110
  276MOL0     H37256   3.377   9.953   8.531 -0.9877  1.7570 -0.1713
  276MOL0     H37257   3.553   9.928   8.478 -0.5749  0.3926  1.3533
  276MOL0     H37258   3.360   9.677   8.209  0.8696  0.6807 -1.1292
  276MOL0     H37259   3.404  10.360   8.867  0.8089  2.5730 -1.1437
  276MOL0     H37260   3.267  10.524   8.950  3.5016 -1.3292 -1.3850
  277MOL0     O37261   2.991   3.173   0.822 -0.0442  0.2812 -0.2279
  277MOL0     C37262   3.114   3.160   0.803  0.4354  0.0577  0.2030
  277MOL0     O37263   3.202   3.087   0.879 -0.2216  0.0575  0.6205
  277MOL0     C37264   3.162   3.049   1.010  1.0581 -0.0199  1.1925
  277MOL0     C37265   3.215   2.927   1.048  0.6933  0.3529 -0.2256
  277MOL0     C37266   3.170   2.866   1.167 -1.2529  1.3609 -0.0275
  277MOL0     C37267   3.081   2.925   1.256  0.8057 -0.2207  0.5054
  277MOL0     O37268   3.053   2.872   1.381 -0.2186  0.6866  0.4518
  277MOL0     C37269   2.910   2.897   1.418 -0.2770 -0.5735 -0.0363
  277MOL0     C37270   2.855   2.814   1.536 -0.4998  0.1245 -0.4937
  277MOL0     C37271   2.707   2.837   1.576  0.0222 -0.2625  0.6377
  277MOL0     C37272   2.659   2.772   1.705  0.1043 -0.0163  0.4573
  277MOL0     C37273   2.521   2.822   1.741 -0.7922 -0.0308  0.6706
  277MOL0     C37274   2.463   2.772   1.873 -0.9414  0.1756  0.3448
  277MOL0     C37275   2.416   2.627   1.883  0.2990 -0.8825 -1.3253
  277MOL0     C37276   2.293   2.585   1.803 -0.5661  0.8378 -0.0061
  277MOL0     N37277   2.176   2.672   1.830 -0.1840 -0.7242  0.2351
  277MOL0     C37278   2.076   2.644   1.920 -0.5476  1.0305 -0.1391
  277MOL0     C37279   1.968   2.721   1.886  0.2092 -0.4539  0.0565
  277MOL0     C37280   1.849   2.756   1.970  0.3940  0.3815 -1.1398
  277MOL0     C37281   1.884   2.831   2.102  0.9053 -0.7509 -0.6461
  277MOL0     C37282   1.981   2.949   2.090 -0.8088  0.0447 -0.2459
  277MOL0     C37283   1.924   3.060   2.004  0.8920 -0.1104  0.8162
  277MOL0     O37284   1.985   3.178   2.013  0.1256 -0.2409  0.0215
  277MOL0     C37285   2.102   3.203   1.945 -0.9274  0.5751  0.5358
  277MOL0     C37286   2.148   3.331   1.948 -0.1242  0.3250 -0.3278
  277MOL0     C37287   2.257   3.377   1.867  1.0755 -0.0362  0.7132
  277MOL0     C37288   2.314   3.513   1.904  0.0195  1.1916 -0.9407
  277MOL0     C37289   2.311   3.294   1.771  0.2506  0.5038 -0.4337
  277MOL0     C37290   2.409   3.341   1.671 -1.0187  1.2818 -0.7573
  277MOL0     O37291   2.494   3.244   1.627 -0.1910  0.6684 -0.3462
  277MOL0     C37292   2.580   3.273   1.529 -0.4304  0.2194  0.6906
  277MOL0     C37293   2.719   3.262   1.557  0.8562  0.3235 -0.4478
  277MOL0     C37294   2.812   3.290   1.454  0.2195 -0.2302  0.0441
  277MOL0     C37295   2.773   3.320   1.322  0.7732 -0.3957  0.2541
  277MOL0     O37296   2.871   3.355   1.232  0.0500 -0.0512 -0.2050
  277MOL0     C37297   2.824   3.416   1.105 -0.0246 -0.1496 -0.1048
  277MOL0     C37298   2.954   3.481   1.057 -0.1922 -0.0780 -0.0751
  277MOL0     C37299   2.915   3.537   0.926  0.0452 -0.6285  0.4216
  277MOL0     C37300   3.044   3.623   0.882 -0.4362  0.3818  0.6288
  277MOL0     C37301   3.035   3.675   0.737  0.2305 -0.3263  0.2217
  277MOL0     C37302   3.163   3.756   0.695  0.1737 -0.4913  0.5917
  277MOL0     C37303   3.255   3.668   0.618 -0.5047  0.8715 -0.8692
  277MOL0     C37304   3.370   3.748   0.576 -0.5451  0.2047  1.7230
  277MOL0    Cl37305   3.327   3.860   0.444 -0.0514 -0.1647 -0.1927
  277MOL0     C37306   2.643   3.329   1.300  0.7853  0.0305  1.0374
  277MOL0     C37307   2.546   3.303   1.396 -0.3314 -0.1026 -0.3594
  277MOL0     O37308   2.406   3.457   1.628  0.3754 -0.2347  0.0523
  277MOL0     C37309   2.271   3.162   1.785  0.9323  0.6763  0.9999
  277MOL0     C37310   2.172   3.114   1.863  0.3558 -0.2301  0.1681
  277MOL0     N37311   2.019   2.798   1.776 -0.5413  0.4903  0.4020
  277MOL0     N37312   2.134   2.756   1.736 -0.1210 -0.0198 -0.1931
  277MOL0     C37313   3.027   3.054   1.210  0.4808  0.9140  0.2882
  277MOL0     C37314   3.064   3.105   1.082 -0.2698 -0.1420 -0.2052
  277MOL0     C37315   3.170   3.219   0.679  0.5194  0.1468  0.6810
  277MOL0     C37316   3.082   3.248   0.570 -0.6288 -0.1667 -0.5306
  277MOL0     C37317   3.134   3.303   0.455 -0.2368  0.5367 -0.4514
  277MOL0     C37318   3.270   3.327   0.441 -0.1310  0.2879 -0.4287
  277MOL0     O37319   3.306   3.357   0.314  0.4148  0.1331 -0.4609
  277MOL0     C37320   3.444   3.401   0.297 -0.1687  0.2959  0.1583
  277MOL0     C37321   3.472   3.417   0.151 -0.2098  0.1057 -0.5084
  277MOL0     C37322   3.382   3.525   0.094 -0.4162 -0.1083  0.3357
  277MOL0     C37323   3.424   3.558  -0.047  0.1228  0.3007 -0.4340
  277MOL0     C37324   3.331   3.646  -0.114 -0.2623 -0.0299  0.0942
  277MOL0     C37325   3.258   3.706  -0.185 -0.2809 -0.4403  0.8286
  277MOL0     C37326   3.362   3.306   0.554 -0.0981 -0.0545 -0.2093
  277MOL0     C37327   3.307   3.231   0.662  1.1402 -0.4470 -0.6606
  277MOL0     H37328   3.289   2.887   0.980  1.6122  0.6454  0.5663
  277MOL0     H37329   3.200   2.765   1.194  2.3133  2.7202  1.7626
  277MOL0     H37330   2.904   3.005   1.439 -2.0081  0.1960 -3.7103
  277MOL0     H37331   2.851   2.876   1.328 -2.0811 -0.7586  1.1571
  277MOL0     H37332   2.872   2.712   1.499  2.4773  1.0588 -2.0617
  277MOL0     H37333   2.920   2.825   1.623  0.9805 -3.8456 -0.9013
  277MOL0     H37334   2.694   2.945   1.581 -0.9631 -0.3276 -0.1921
  277MOL0     H37335   2.649   2.801   1.491 -0.3255  1.4611  0.1196
  277MOL0     H37336   2.670   2.663   1.704 -0.5643 -0.0854  0.0833
  277MOL0     H37337   2.726   2.802   1.786 -0.8538  0.3496  1.1440
  277MOL0     H37338   2.536   2.931   1.750  1.9623 -0.2109 -0.5913
  277MOL0     H37339   2.448   2.796   1.664 -0.6418  0.2931  0.4170
  277MOL0     H37340   2.542   2.796   1.945  0.8617  2.9173 -2.2999
  277MOL0     H37341   2.381   2.842   1.890  0.9917  2.8842 -0.7259
  277MOL0     H37342   2.495   2.559   1.853 -0.7616 -3.5642  1.4292
  277MOL0     H37343   2.394   2.611   1.989 -0.6795 -0.1653 -1.4069
  277MOL0     H37344   2.262   2.483   1.825  0.8435 -0.3354 -2.9063
  277MOL0     H37345   2.316   2.585   1.696  1.8130 -0.2215  0.4572
  277MOL0     H37346   2.065   2.570   1.998  0.3792  1.9184  0.8647
  277MOL0     H37347   1.776   2.819   1.917 -0.6358 -0.7729 -1.1507
  277MOL0     H37348   1.777   2.675   1.987 -0.3576  1.1708 -0.4182
  277MOL0     H37349   1.932   2.768   2.178  2.0835  2.0184  1.0591
  277MOL0     H37350   1.797   2.871   2.155  0.3741 -2.1245 -0.4561
  277MOL0     H37351   2.081   2.913   2.065 -1.3448 -1.0501 -0.9061
  277MOL0     H37352   1.991   2.998   2.186 -1.1434 -1.2202  0.4621
  277MOL0     H37353   1.823   3.077   2.043  0.9248  1.5015  0.2556
  277MOL0     H37354   1.898   3.030   1.902 -1.7863  0.6769  1.1790
  277MOL0     H37355   2.083   3.400   2.002 -1.0471  1.6594 -2.9670
  277MOL0     H37356   2.255   3.553   1.987 -1.9942 -2.4088 -0.4280
  277MOL0     H37357   2.420   3.502   1.926 -0.2126 -0.1370 -0.4158
  277MOL0     H37358   2.299   3.581   1.819  0.3339  1.9413 -0.4081
  277MOL0     H37359   2.743   3.230   1.658 -2.7230  1.4346  0.9096
  277MOL0     H37360   2.919   3.272   1.457  0.2894 -1.2616 -3.6545
  277MOL0     H37361   2.795   3.340   1.033  0.1657 -0.6063  0.2899
  277MOL0     H37362   2.744   3.490   1.117  0.6581  0.5444  0.3175
  277MOL0     H37363   2.990   3.560   1.122  0.7396  0.6431 -1.4321
  277MOL0     H37364   3.034   3.406   1.053 -0.2865 -0.1327 -1.2554
  277MOL0     H37365   2.833   3.608   0.938 -0.6162 -1.5527  1.6503
  277MOL0     H37366   2.905   3.454   0.856  5.0946 -0.7797 -0.4771
  277MOL0     H37367   3.068   3.705   0.950 -1.8855  0.0500  1.5930
  277MOL0     H37368   3.135   3.562   0.878  0.1898  1.3104  0.4238
  277MOL0     H37369   2.952   3.746   0.739  0.5994  0.1292 -0.3826
  277MOL0     H37370   3.018   3.597   0.663 -4.8321  0.2020  0.5172
  277MOL0     H37371   3.139   3.844   0.635  0.1459 -0.9064 -0.0223
  277MOL0     H37372   3.209   3.785   0.790 -0.6597 -4.5335  2.4325
  277MOL0     H37373   3.213   3.608   0.536  2.3246 -1.2352 -0.8952
  277MOL0     H37374   3.290   3.597   0.693  0.0174 -0.3231 -2.1896
  277MOL0     H37375   3.444   3.676   0.538 -0.4737  0.2057  1.8599
  277MOL0     H37376   3.416   3.810   0.653  1.4140  1.3005 -0.2006
  277MOL0     H37377   2.605   3.346   1.200  1.1013 -0.8475  0.7550
  277MOL0     H37378   2.442   3.305   1.366 -0.0869 -1.3047 -1.3829
  277MOL0     H37379   2.325   3.093   1.721 -1.0405  1.3358 -1.5349
  277MOL0     H37380   2.128   3.014   1.862 -2.6601  0.9824 -1.4912
  277MOL0     H37381   2.941   3.110   1.244 -0.3447 -0.3962  0.4323
  277MOL0     H37382   3.021   3.200   1.052 -0.3421  0.1645  0.8051
  277MOL0     H37383   2.974   3.235   0.574 -0.6815 -0.5455 -2.4253
  277MOL0     H37384   3.074   3.314   0.365  1.4062  0.3215 -1.6288
  277MOL0     H37385   3.468   3.494   0.351  1.7641  2.1685 -3.5530
  277MOL0     H37386   3.509   3.320   0.329 -1.5411 -0.5285  0.9751
  277MOL0     H37387   3.464   3.321   0.100  0.6738 -1.5077  2.1510
  277MOL0     H37388   3.574   3.456   0.141  0.3676 -1.2298 -0.1124
  277MOL0     H37389   3.373   3.612   0.160 -2.0810 -0.4308  0.5942
  277MOL0     H37390   3.281   3.484   0.079 -0.1223 -0.4866 -0.7505
  277MOL0     H37391   3.446   3.469  -0.108  6.0452  1.6307 -0.8577
  277MOL0     H37392   3.524   3.601  -0.043  0.3185  0.0751 -2.0427
  277MOL0     H37393   3.181   3.770  -0.223 -0.4011  0.7643  2.9244
  277MOL0     H37394   3.468   3.316   0.535 -0.1510 -1.3898 -1.3663
  277MOL0     H37395   3.381   3.195   0.732  0.1147 -1.3349 -0.0030
  278MOL0     O37396   2.101   8.109   3.275  0.0231  0.5836  0.0892
  278MOL0     C37397   2.154   8.006   3.319 -0.4858 -0.1050 -0.6892
  278MOL0     O37398   2.090   7.885   3.322  0.2353  0.0414  0.1666
  278MOL0     C37399   1.962   7.865   3.301 -0.5202 -0.1366 -0.2388
  278MOL0     C37400   1.932   7.740   3.339 -0.9173  0.4478  0.2170
  278MOL0     C37401   1.808   7.683   3.294 -0.1528  0.1305  0.2457
  278MOL0     C37402   1.715   7.759   3.226 -0.7934 -0.1817  0.1959
  278MOL0     O37403   1.595   7.705   3.200 -0.0780 -0.1187 -0.2665
  278MOL0     C37404   1.529   7.613   3.303  0.0031 -0.3052  0.6850
  278MOL0     C37405   1.388   7.662   3.335  0.3621 -0.4136 -0.5508
  278MOL0     C37406   1.295   7.649   3.216  0.5726  1.1678  0.6438
  278MOL0     C37407   1.155   7.685   3.269  0.2486 -0.4530 -0.0931
  278MOL0     C37408   1.058   7.690   3.147 -0.2416  0.2199 -0.0357
  278MOL0     C37409   0.962   7.799   3.178  0.7031  0.1486  0.7423
  278MOL0     C37410   0.858   7.825   3.065  0.6625  0.4410 -0.4434
  278MOL0     C37411   0.908   7.918   2.955 -0.4781 -0.8107  0.8196
  278MOL0     N37412   0.794   7.960   2.878  0.4578 -0.1919 -1.0323
  278MOL0     C37413   0.756   7.906   2.762  0.2317 -0.3888  0.4011
  278MOL0     C37414   0.681   7.996   2.696  0.1043 -0.4059 -0.4410
  278MOL0     C37415   0.623   8.000   2.557 -0.5734  0.0587  1.0800
  278MOL0     C37416   0.517   7.889   2.525 -0.9534  0.0112 -0.9309
  278MOL0     C37417   0.469   7.902   2.378 -0.3439 -0.5477 -0.0495
  278MOL0     C37418   0.375   7.792   2.345  0.2044  0.5301  0.8555
  278MOL0     O37419   0.337   7.804   2.207  0.2409  0.0518  0.1248
  278MOL0     C37420   0.209   7.806   2.171 -0.1428  0.7601  0.3378
  278MOL0     C37421   0.179   7.864   2.042 -0.3549  0.0215 -0.1461
  278MOL0     C37422   0.049   7.868   1.988  0.0787  0.5345 -0.2973
  278MOL0     C37423   0.034   7.942   1.852  0.6036 -0.5027 -0.2399
  278MOL0     C37424  -0.055   7.811   2.058 -1.0838  0.8042 -0.3084
  278MOL0     C37425  -0.194   7.814   2.004  1.3588  0.1985 -0.6220
  278MOL0     O37426  -0.288   7.733   2.072  0.7153 -0.5447  0.5489
  278MOL0     C37427  -0.409   7.742   2.015 -0.0219 -0.6182 -0.1754
  278MOL0     C37428  -0.463   7.635   1.946  0.1875  1.5777  0.4167
  278MOL0     C37429  -0.597   7.643   1.898  0.0084  0.7606  0.0911
  278MOL0     C37430  -0.678   7.751   1.923 -0.2059  0.4499 -0.4912
  278MOL0     O37431  -0.798   7.766   1.865  1.0023  0.3393 -0.7216
  278MOL0     C37432  -0.899   7.665   1.863  0.7553 -0.0042  1.1902
  278MOL0     C37433  -1.039   7.721   1.835  0.5883  0.7573  0.9229
  278MOL0     C37434  -1.082   7.845   1.915 -0.5734 -0.3769  0.5356
  278MOL0     C37435  -1.221   7.895   1.885  0.4285 -0.2020  0.1266
  278MOL0     C37436  -1.268   8.008   1.976 -0.5193  0.1915 -0.0910
  278MOL0     C37437  -1.415   8.032   1.958 -0.3940 -0.0142 -0.0088
  278MOL0     C37438  -1.500   7.925   2.032 -0.5946  0.1073  0.0077
  278MOL0     C37439  -1.602   7.981   2.131  0.0087  0.6464  0.3346
  278MOL0    Cl37440  -1.724   7.842   2.164 -0.2788  0.4041  0.1234
  278MOL0     C37441  -0.628   7.856   2.001  0.2162  0.9416  0.7767
  278MOL0     C37442  -0.490   7.849   2.043  0.6360  0.0399  0.9985
  278MOL0     O37443  -0.225   7.910   1.931  0.0081  0.3763  0.2458
  278MOL0     C37444  -0.026   7.750   2.179 -0.7084 -0.2278 -0.2714
  278MOL0     C37445   0.103   7.739   2.234 -0.0711  0.0740 -1.0611
  278MOL0     N37446   0.651   8.097   2.784  0.0969  0.5978 -0.1752
  278MOL0     N37447   0.732   8.081   2.877 -0.2937  0.8763 -0.6355
  278MOL0     C37448   1.736   7.894   3.199 -0.4503 -0.2182 -0.4158
  278MOL0     C37449   1.864   7.949   3.243 -0.2591 -1.2250  0.2655
  278MOL0     C37450   2.294   8.011   3.373 -0.4922  1.4361 -0.3618
  278MOL0     C37451   2.356   7.899   3.428  0.2566 -0.0573 -0.3295
  278MOL0     C37452   2.485   7.909   3.485  0.3426 -0.4902 -0.3641
  278MOL0     C37453   2.559   8.032   3.485  0.9632  0.9929 -0.0589
  278MOL0     O37454   2.670   8.055   3.565  0.6240  1.2473  0.1335
  278MOL0     C37455   2.729   7.948   3.646 -0.1279  0.0159  0.1718
  278MOL0     C37456   2.858   7.987   3.726 -0.4111 -0.0780  0.3663
  278MOL0     C37457   2.924   7.860   3.802 -0.2527 -0.2401  0.2831
  278MOL0     C37458   3.072   7.891   3.839 -0.2157  0.5114 -0.0584
  278MOL0     C37459   3.094   8.027   3.891 -0.2518 -0.6890 -0.8331
  278MOL0     C37460   3.125   8.134   3.942 -0.0036  0.1494  0.4872
  278MOL0     C37461   2.501   8.132   3.410  0.4300 -0.7497  0.6520
  278MOL0     C37462   2.376   8.126   3.353 -0.2196  0.4341 -0.4060
  278MOL0     H37463   2.000   7.685   3.403 -2.8571 -1.5027  0.7229
  278MOL0     H37464   1.800   7.576   3.312  1.1859  0.0508  0.4968
  278MOL0     H37465   1.527   7.509   3.267 -3.3254  0.1355 -0.8166
  278MOL0     H37466   1.575   7.616   3.402 -2.4266 -4.4430  2.1968
  278MOL0     H37467   1.353   7.610   3.425  1.3747  0.0510  0.1287
  278MOL0     H37468   1.387   7.765   3.373  0.1021 -0.5080 -0.2943
  278MOL0     H37469   1.322   7.717   3.135  0.6752 -1.1140 -1.3616
  278MOL0     H37470   1.299   7.545   3.181  5.2550  0.9175  1.1831
  278MOL0     H37471   1.118   7.603   3.331 -0.3035 -1.8257 -2.1140
  278MOL0     H37472   1.158   7.774   3.332 -2.2389 -1.7456  2.0427
  278MOL0     H37473   1.101   7.706   3.048 -0.8025  0.5439 -0.2294
  278MOL0     H37474   1.006   7.594   3.148  4.7851 -2.9065 -1.6705
  278MOL0     H37475   0.905   7.778   3.269 -0.2262 -1.2910 -0.1144
  278MOL0     H37476   1.015   7.891   3.203 -0.7198  1.3769 -0.5723
  278MOL0     H37477   0.826   7.727   3.028  0.6387  0.8537 -1.5428
  278MOL0     H37478   0.766   7.869   3.104  0.3479  0.1301 -0.8345
  278MOL0     H37479   0.978   7.870   2.886 -2.1690 -2.3288  0.0593
  278MOL0     H37480   0.952   8.004   3.006 -1.2207 -0.9348  1.6939
  278MOL0     H37481   0.798   7.821   2.709  0.9240  0.0806  0.1868
  278MOL0     H37482   0.576   8.097   2.539 -0.2385  0.5157  2.4785
  278MOL0     H37483   0.710   7.994   2.492 -0.2579  4.1753  0.8099
  278MOL0     H37484   0.428   7.896   2.588 -1.3331  1.6042 -1.5820
  278MOL0     H37485   0.568   7.794   2.541 -0.9424 -0.1229 -1.7217
  278MOL0     H37486   0.554   7.921   2.310  1.2117  0.2242  2.0090
  278MOL0     H37487   0.408   7.993   2.375 -0.3317 -0.5178 -2.9561
  278MOL0     H37488   0.288   7.798   2.411 -1.8237  0.7779 -1.6689
  278MOL0     H37489   0.425   7.698   2.369  0.8418  0.9298  1.1252
  278MOL0     H37490   0.268   7.898   1.990 -1.2144  0.5096 -1.3424
  278MOL0     H37491   0.133   7.966   1.813  1.6472 -0.1829  2.4164
  278MOL0     H37492  -0.010   7.864   1.789  4.3132 -4.6119  1.7345
  278MOL0     H37493  -0.026   8.033   1.852 -2.1526 -2.1768  0.5574
  278MOL0     H37494  -0.398   7.549   1.936 -3.4250 -1.7508  2.3769
  278MOL0     H37495  -0.625   7.560   1.833  0.0941  1.1007 -0.3900
  278MOL0     H37496  -0.882   7.594   1.781 -0.0549  0.2693  0.7778
  278MOL0     H37497  -0.891   7.619   1.962  2.9474  1.0726  1.5863
  278MOL0     H37498  -1.048   7.745   1.729 -0.5810 -0.8228  0.6145
  278MOL0     H37499  -1.112   7.641   1.850  2.1056 -1.0067 -0.5715
  278MOL0     H37500  -1.009   7.924   1.898 -1.8812  0.8007  0.2410
  278MOL0     H37501  -1.088   7.819   2.021  0.4119 -2.7286  0.1018
  278MOL0     H37502  -1.219   7.922   1.779 -0.2788  2.6134  0.7586
  278MOL0     H37503  -1.293   7.814   1.905 -0.8156  0.2254 -2.2696
  278MOL0     H37504  -1.206   8.091   1.941  5.3993 -3.9592 -0.9210
  278MOL0     H37505  -1.258   7.988   2.083  3.6898  0.0095 -0.3534
  278MOL0     H37506  -1.435   8.132   1.999  0.6952 -1.0724  3.4847
  278MOL0     H37507  -1.439   8.039   1.852 -1.1439  0.4099  0.1819
  278MOL0     H37508  -1.442   7.852   2.089 -3.3536 -2.2234  0.0698
  278MOL0     H37509  -1.547   7.861   1.956  1.8189 -1.1359 -0.5340
  278MOL0     H37510  -1.655   8.061   2.079 -0.4302 -0.0487 -0.3123
  278MOL0     H37511  -1.560   8.010   2.228  3.0036 -0.1110 -0.6462
  278MOL0     H37512  -0.674   7.953   2.020  1.6542  1.7696  0.2320
  278MOL0     H37513  -0.448   7.938   2.090  2.2131  0.4057 -0.9738
  278MOL0     H37514  -0.091   7.693   2.246  1.1774 -0.5450  1.3967
  278MOL0     H37515   0.130   7.678   2.320  0.2509  0.7842 -0.6573
  278MOL0     H37516   1.668   7.976   3.177 -1.2202 -1.5597 -3.5454
  278MOL0     H37517   1.881   8.055   3.228  1.8962 -1.6230 -0.4842
  278MOL0     H37518   2.298   7.810   3.450 -0.6745  1.1252  2.4068
  278MOL0     H37519   2.517   7.826   3.547 -3.2274 -0.6798  1.5066
  278MOL0     H37520   2.649   7.897   3.700 -1.6887  2.0947 -0.0326
  278MOL0     H37521   2.756   7.875   3.569  1.3619  0.5776  0.1149
  278MOL0     H37522   2.838   8.069   3.795  1.1611  0.0805  0.6569
  278MOL0     H37523   2.935   8.017   3.655 -0.7384  1.3123  0.5590
  278MOL0     H37524   2.925   7.773   3.736 -1.0197  0.5046 -0.7320
  278MOL0     H37525   2.855   7.830   3.882 -0.7249 -1.4357 -0.5590
  278MOL0     H37526   3.126   7.868   3.747 -1.2826 -2.8514  0.0252
  278MOL0     H37527   3.115   7.812   3.901 -1.0191  0.2487  0.1712
  278MOL0     H37528   3.177   8.224   3.970  2.7553 -0.9065 -0.8438
  278MOL0     H37529   2.556   8.226   3.412  0.8260 -0.6358 -4.3563
  278MOL0     H37530   2.333   8.216   3.310 -2.4049 -1.3027 -2.1080
  279MOL0     O37531  11.168   6.975   7.599  0.0893 -0.4276 -0.0520
  279MOL0     C37532  11.239   6.872   7.616 -0.8210 -0.2458 -0.3504
  279MOL0     O37533  11.216   6.750   7.560 -0.2404 -0.9415  0.6283
  279MOL0     C37534  11.099   6.739   7.494 -0.8595 -0.8807  0.2421
  279MOL0     C37535  10.997   6.654   7.543 -0.4148 -0.0927  0.4399
  279MOL0     C37536  10.879   6.617   7.467  0.5688  0.0576  0.3314
  279MOL0     C37537  10.870   6.689   7.345  0.5963  1.5021  0.8608
  279MOL0     O37538  10.769   6.652   7.266  0.8592  0.0505 -0.0997
  279MOL0     C37539  10.728   6.741   7.163  0.2201 -0.3918 -1.2147
  279MOL0     C37540  10.601   6.699   7.097  0.5653 -0.1135  0.5380
  279MOL0     C37541  10.474   6.732   7.183 -0.4698 -0.0904 -0.1343
  279MOL0     C37542  10.360   6.675   7.104  0.7670 -1.3962  0.2862
  279MOL0     C37543  10.333   6.748   6.971 -1.1971  0.5535  0.1844
  279MOL0     C37544  10.251   6.874   6.993 -0.0958 -0.1443 -0.4588
  279MOL0     C37545  10.206   6.942   6.859  0.2350 -0.0445 -0.7746
  279MOL0     C37546  10.287   7.076   6.820  0.6174  0.0174  1.1817
  279MOL0     N37547  10.433   7.068   6.833 -0.8116  0.0202  0.0384
  279MOL0     C37548  10.523   7.046   6.729 -0.4807  0.2516  0.2923
  279MOL0     C37549  10.644   7.034   6.786 -0.4574  0.3713 -0.1739
  279MOL0     C37550  10.777   7.014   6.719  1.2767 -0.6018 -0.8878
  279MOL0     C37551  10.832   7.140   6.650 -0.0497 -0.3193 -0.6282
  279MOL0     C37552  10.903   7.234   6.752 -0.2984  0.0339  1.0735
  279MOL0     C37553  10.929   7.376   6.685 -0.9161 -0.1817 -0.5891
  279MOL0     O37554  11.016   7.473   6.764  0.4262  0.0651  0.3380
  279MOL0     C37555  11.150   7.439   6.781  0.5236 -0.8547  0.6779
  279MOL0     C37556  11.228   7.329   6.725  0.0883 -0.1239  1.4921
  279MOL0     C37557  11.358   7.305   6.758  0.5984 -0.7507 -0.2966
  279MOL0     C37558  11.446   7.210   6.681  1.5804  0.2321 -0.1388
  279MOL0     C37559  11.415   7.385   6.863 -0.0000 -0.7932  0.2084
  279MOL0     C37560  11.562   7.380   6.910 -0.1292 -0.1765  0.1473
  279MOL0     O37561  11.616   7.263   6.904 -0.2166  0.5437  0.2960
  279MOL0     C37562  11.728   7.245   6.974 -0.2029  0.1133 -1.0529
  279MOL0     C37563  11.821   7.166   6.909  0.7688  0.2597  0.1049
  279MOL0     C37564  11.933   7.114   6.976  0.2871  0.7844 -0.3673
  279MOL0     C37565  11.969   7.159   7.100  0.2751  0.0142 -0.2320
  279MOL0     O37566  12.079   7.099   7.153 -0.7499 -0.3514 -1.0717
  279MOL0     C37567  12.124   7.137   7.287 -0.0208  0.1019 -0.2759
  279MOL0     C37568  12.245   7.059   7.335 -0.3012 -0.8683  0.1780
  279MOL0     C37569  12.362   7.086   7.247  0.0571 -0.3065  0.3986
  279MOL0     C37570  12.412   6.946   7.193 -0.3100 -0.1828 -1.1439
  279MOL0     C37571  12.474   6.868   7.314 -1.2609 -0.0988 -0.3547
  279MOL0     C37572  12.585   6.765   7.281 -0.7538 -0.8740 -0.2084
  279MOL0     C37573  12.620   6.663   7.380  0.2948 -0.1229  0.2643
  279MOL0     C37574  12.674   6.737   7.506 -0.4061  0.1835  0.1992
  279MOL0    Cl37575  12.728   6.622   7.637 -0.1030  0.0529 -0.0806
  279MOL0     C37576  11.880   7.245   7.163 -1.6546 -0.7392 -0.2866
  279MOL0     C37577  11.760   7.285   7.111  0.5083 -0.5995  1.0454
  279MOL0     O37578  11.617   7.484   6.947 -0.3599  0.1671 -0.0603
  279MOL0     C37579  11.336   7.476   6.925 -0.6532 -0.0077  0.1588
  279MOL0     C37580  11.213   7.518   6.876 -0.3683 -0.3918 -0.9546
  279MOL0     N37581  10.635   7.061   6.919 -0.6513  0.2468  0.7043
  279MOL0     N37582  10.510   7.087   6.948  0.0393  0.2324 -0.4004
  279MOL0     C37583  10.972   6.777   7.291  0.4865  0.7957 -0.5444
  279MOL0     C37584  11.079   6.807   7.372  0.1164 -0.3064  0.8514
  279MOL0     C37585  11.359   6.880   7.705  0.7879  0.0176 -0.5537
  279MOL0     C37586  11.440   6.774   7.755  0.0193 -0.0384  0.4203
  279MOL0     C37587  11.544   6.793   7.850 -0.5573 -0.2752 -0.1695
  279MOL0     C37588  11.585   6.920   7.885  0.1400 -0.7641  0.3941
  279MOL0     O37589  11.696   6.952   7.950  0.5130  0.3707  0.6545
  279MOL0     C37590  11.783   6.861   8.015  0.0689 -0.5643  0.5579
  279MOL0     C37591  11.894   6.922   8.086  0.4229  0.5704 -0.3168
  279MOL0     C37592  11.859   6.999   8.220 -0.1295 -0.2021 -0.4013
  279MOL0     C37593  11.750   7.105   8.209 -0.3342  0.9775 -0.2464
  279MOL0     C37594  11.797   7.214   8.114  0.0434  0.2127  0.5375
  279MOL0     C37595  11.829   7.310   8.046  0.0809 -0.1306 -0.4515
  279MOL0     C37596  11.517   7.030   7.831  0.1145  0.1389  0.1100
  279MOL0     C37597  11.407   7.012   7.746  0.3846  0.9480 -0.1452
  279MOL0     H37598  11.018   6.609   7.640 -2.8243  3.4952  2.8945
  279MOL0     H37599  10.816   6.538   7.505  2.6055 -1.5408  0.5200
  279MOL0     H37600  10.730   6.844   7.198 -0.2995 -0.6151 -0.5114
  279MOL0     H37601  10.801   6.721   7.083  0.3052 -2.5722 -0.6615
  279MOL0     H37602  10.597   6.752   7.001  0.9573 -2.3759 -0.7951
  279MOL0     H37603  10.610   6.591   7.083  0.4234  0.0562 -0.9600
  279MOL0     H37604  10.478   6.683   7.281  0.1960 -3.8493 -1.8245
  279MOL0     H37605  10.469   6.841   7.190  2.2968  0.1580 -0.8995
  279MOL0     H37606  10.383   6.574   7.069  0.7303 -0.4264 -2.8519
  279MOL0     H37607  10.268   6.674   7.163  0.4384 -0.2578 -0.1877
  279MOL0     H37608  10.419   6.778   6.910 -0.5634 -1.7779 -0.1865
  279MOL0     H37609  10.268   6.679   6.915 -0.5672 -0.8783  1.1523
  279MOL0     H37610  10.171   6.858   7.066  1.7037  2.4946  2.3521
  279MOL0     H37611  10.303   6.951   7.051  2.0608 -1.1119 -0.9725
  279MOL0     H37612  10.210   6.867   6.780 -1.5003 -0.1244 -0.8292
  279MOL0     H37613  10.102   6.973   6.869  0.3424 -0.3072  2.1885
  279MOL0     H37614  10.242   7.155   6.880 -0.6855  0.9375 -0.9145
  279MOL0     H37615  10.262   7.098   6.716 -0.9594  1.2603  1.7987
  279MOL0     H37616  10.495   7.027   6.626  1.8557  0.4202 -0.4452
  279MOL0     H37617  10.842   6.975   6.798  2.7401  1.0568 -1.1938
  279MOL0     H37618  10.755   6.930   6.653 -1.8827 -0.8918  0.3388
  279MOL0     H37619  10.753   7.194   6.596 -0.3066  2.8486  2.5853
  279MOL0     H37620  10.910   7.113   6.578 -0.5356  0.4881 -1.4838
  279MOL0     H37621  11.002   7.193   6.773  0.0634  0.5681  0.4349
  279MOL0     H37622  10.846   7.257   6.843 -2.0457  0.8979 -0.1750
  279MOL0     H37623  10.834   7.426   6.663  0.7092  3.1169 -0.7391
  279MOL0     H37624  10.985   7.356   6.594  3.7786  3.3094  1.1336
  279MOL0     H37625  11.191   7.269   6.643 -2.4568 -3.4260  4.7186
  279MOL0     H37626  11.402   7.160   6.594  0.1527  0.7208  0.2834
  279MOL0     H37627  11.530   7.273   6.647  2.5763 -0.2196  1.3867
  279MOL0     H37628  11.490   7.135   6.747 -2.0273 -0.2855  1.9331
  279MOL0     H37629  11.810   7.156   6.802 -0.7840 -0.6160  0.3225
  279MOL0     H37630  12.006   7.060   6.918 -0.9393  0.5019 -1.7316
  279MOL0     H37631  12.138   7.245   7.297 -0.3348 -0.0330  2.1171
  279MOL0     H37632  12.035   7.117   7.348 -2.5778  0.4547 -3.6134
  279MOL0     H37633  12.271   7.098   7.434 -1.4294  3.3965 -0.9943
  279MOL0     H37634  12.230   6.951   7.344  0.8140 -1.0885 -0.4566
  279MOL0     H37635  12.443   7.135   7.303  1.9054 -0.3156 -2.0777
  279MOL0     H37636  12.325   7.140   7.159 -1.8717  0.2349  1.4978
  279MOL0     H37637  12.333   6.892   7.140 -1.1549  1.5963 -1.7989
  279MOL0     H37638  12.489   6.964   7.117  1.7847  3.4794  1.4739
  279MOL0     H37639  12.397   6.819   7.374  1.2432 -0.7482  2.5857
  279MOL0     H37640  12.509   6.944   7.385 -0.3660 -0.7124 -0.1195
  279MOL0     H37641  12.567   6.720   7.183 -1.0219  1.7821 -1.4597
  279MOL0     H37642  12.676   6.822   7.257  0.6153 -2.4699  0.9261
  279MOL0     H37643  12.693   6.595   7.335 -1.5843 -2.5272  0.6476
  279MOL0     H37644  12.530   6.608   7.407 -0.4015  0.5234 -0.6579
  279MOL0     H37645  12.589   6.791   7.549 -0.6778 -0.1373  0.0648
  279MOL0     H37646  12.758   6.801   7.478 -1.2675 -0.3403 -4.3097
  279MOL0     H37647  11.896   7.281   7.264 -3.4485 -4.1462  1.4099
  279MOL0     H37648  11.696   7.350   7.169  0.2974  1.1523 -1.0045
  279MOL0     H37649  11.376   7.525   7.013  2.2383 -0.6562 -0.6959
  279MOL0     H37650  11.165   7.590   6.941  2.0645 -0.5242  1.1994
  279MOL0     H37651  10.951   6.826   7.197 -2.9649 -1.7606 -1.3071
  279MOL0     H37652  11.155   6.875   7.335 -0.3114 -1.3164 -2.1827
  279MOL0     H37653  11.410   6.673   7.729  0.9638 -0.6358  1.5816
  279MOL0     H37654  11.589   6.705   7.895 -3.6610 -1.9811 -0.0806
  279MOL0     H37655  11.722   6.813   8.092 -0.8233  1.3158  1.0982
  279MOL0     H37656  11.812   6.779   7.949 -5.7548 -3.0870  0.5585
  279MOL0     H37657  11.931   6.984   8.004 -0.5700 -1.0254 -2.0573
  279MOL0     H37658  11.954   6.831   8.099 -0.8707 -0.0410  1.9696
  279MOL0     H37659  11.932   7.065   8.266 -0.8174  0.1956  0.1392
  279MOL0     H37660  11.825   6.927   8.295  0.5535  0.4932  0.6033
  279MOL0     H37661  11.735   7.142   8.311  0.4899  1.7498 -0.3892
  279MOL0     H37662  11.663   7.051   8.171 -1.6983  2.0242  1.2430
  279MOL0     H37663  11.854   7.386   7.974 -1.5809  1.3521  0.4542
  279MOL0     H37664  11.551   7.132   7.846  2.8451 -0.4208 -1.5865
  279MOL0     H37665  11.341   7.096   7.729 -3.0662 -0.6211  3.7162
  280MOL0     O37666   6.636   9.160   5.012  0.7366  0.9250 -0.0752
  280MOL0     C37667   6.529   9.112   4.965 -0.0496  0.3533 -0.0892
  280MOL0     O37668   6.419   9.077   5.038 -0.5427  0.3449 -0.1286
  280MOL0     C37669   6.438   9.081   5.175 -0.0082  0.4174  0.1747
  280MOL0     C37670   6.362   9.172   5.241  0.3365 -0.0309  0.1756
  280MOL0     C37671   6.365   9.177   5.384 -0.0889  0.0875  0.3546
  280MOL0     C37672   6.456   9.102   5.460 -0.5420 -0.6100  0.9957
  280MOL0     O37673   6.445   9.105   5.593  0.6280 -0.2385 -0.2001
  280MOL0     C37674   6.488   8.998   5.679 -0.3809 -0.1261 -0.1093
  280MOL0     C37675   6.411   9.015   5.808 -0.1684  0.3271 -0.2127
  280MOL0     C37676   6.446   8.926   5.923 -0.2404 -0.5233 -0.6520
  280MOL0     C37677   6.539   8.990   6.014  0.4115 -0.6882 -0.5497
  280MOL0     C37678   6.553   8.893   6.133 -0.4102 -0.9633  0.4202
  280MOL0     C37679   6.662   8.944   6.223 -0.2108  0.0020 -0.6319
  280MOL0     C37680   6.696   8.852   6.339  0.4920  0.3021  0.0136
  280MOL0     C37681   6.756   8.723   6.294  0.3881  0.0061  0.6588
  280MOL0     N37682   6.811   8.652   6.412  0.4267  0.5571 -0.4022
  280MOL0     C37683   6.935   8.586   6.427  0.3367  0.0270  0.5762
  280MOL0     C37684   6.945   8.556   6.560 -0.0391  0.9631 -0.6411
  280MOL0     C37685   7.057   8.480   6.638  0.3394  0.5601  0.0556
  280MOL0     C37686   7.017   8.329   6.632  0.0294 -0.4075 -0.1683
  280MOL0     C37687   7.138   8.245   6.579  0.4740 -0.2913  0.1261
  280MOL0     C37688   7.090   8.103   6.542 -0.2502 -0.8687 -0.2584
  280MOL0     O37689   7.185   8.001   6.495  0.6732 -0.2514 -0.3110
  280MOL0     C37690   7.262   7.939   6.591 -0.0877 -0.5992  0.1441
  280MOL0     C37691   7.332   7.829   6.547 -0.3066 -0.5631 -0.0745
  280MOL0     C37692   7.396   7.744   6.643 -0.1571 -0.6139  0.1449
  280MOL0     C37693   7.460   7.608   6.600  0.3118  0.5678  0.5651
  280MOL0     C37694   7.386   7.778   6.781 -0.6816 -0.2678  0.6156
  280MOL0     C37695   7.430   7.689   6.885 -0.6497 -0.3237  0.2873
  280MOL0     O37696   7.408   7.557   6.885  0.1626 -0.2632 -0.7699
  280MOL0     C37697   7.461   7.492   7.000  0.4540  1.2539  0.5080
  280MOL0     C37698   7.593   7.484   7.037 -0.3058 -0.2358 -0.2411
  280MOL0     C37699   7.640   7.420   7.150  0.7711  1.2644  0.0609
  280MOL0     C37700   7.555   7.365   7.244  0.9023 -0.0514  0.0370
  280MOL0     O37701   7.602   7.293   7.350 -0.4632 -0.9035  1.0578
  280MOL0     C37702   7.530   7.326   7.466  0.1365  0.4837 -0.6136
  280MOL0     C37703   7.601   7.267   7.591 -0.5325  0.1628  0.2864
  280MOL0     C37704   7.541   7.317   7.719 -0.1285  0.0069  0.0589
  280MOL0     C37705   7.583   7.464   7.748  0.4618 -0.8421  0.1611
  280MOL0     C37706   7.536   7.511   7.883 -0.1032  0.2517  0.5513
  280MOL0     C37707   7.394   7.545   7.884 -0.4575 -1.2060  0.5279
  280MOL0     C37708   7.361   7.624   8.007 -0.2563  0.8474 -0.0535
  280MOL0     C37709   7.222   7.696   8.004 -0.7549  0.3162 -0.0063
  280MOL0    Cl37710   7.222   7.854   7.911 -0.4264  0.5401 -0.3234
  280MOL0     C37711   7.415   7.367   7.207  0.3502 -0.4813  1.3251
  280MOL0     C37712   7.375   7.429   7.089  0.2864 -0.2844  0.1368
  280MOL0     O37713   7.466   7.752   6.983 -0.3544 -0.3238 -0.1449
  280MOL0     C37714   7.311   7.890   6.818 -0.2403  0.5079 -0.2870
  280MOL0     C37715   7.254   7.972   6.729  0.0778 -0.0803  1.3245
  280MOL0     N37716   6.821   8.588   6.620  0.3282 -0.2014 -0.2068
  280MOL0     N37717   6.746   8.637   6.531 -0.1517 -0.1381  0.2713
  280MOL0     C37718   6.544   9.015   5.383  0.2934 -0.0576 -1.3476
  280MOL0     C37719   6.534   9.004   5.247 -0.1201  0.1734 -0.2295
  280MOL0     C37720   6.506   9.090   4.812 -0.4861 -0.8207  0.0400
  280MOL0     C37721   6.613   9.081   4.716  0.4785 -0.4132  0.2457
  280MOL0     C37722   6.593   9.077   4.575 -0.1735 -0.4107 -0.0380
  280MOL0     C37723   6.464   9.059   4.520 -0.0879  0.0377 -0.0537
  280MOL0     O37724   6.438   9.047   4.384 -0.0164  0.0085 -0.1219
  280MOL0     C37725   6.535   8.982   4.301  0.4570 -0.4125  0.2240
  280MOL0     C37726   6.629   9.073   4.214  0.2528 -0.4983 -0.1582
  280MOL0     C37727   6.553   9.157   4.102 -0.5696 -0.6072  0.4101
  280MOL0     C37728   6.629   9.284   4.060  0.0306  0.7271 -0.2550
  280MOL0     C37729   6.574   9.345   3.939  0.1212 -0.0292  0.0958
  280MOL0     C37730   6.511   9.378   3.842  0.2357 -0.0215  0.2981
  280MOL0     C37731   6.356   9.060   4.614 -0.2351 -0.3896 -0.3347
  280MOL0     C37732   6.377   9.073   4.753  0.1624 -0.8201 -1.2433
  280MOL0     H37733   6.287   9.233   5.193 -0.9281 -2.5570 -1.2919
  280MOL0     H37734   6.295   9.245   5.434  0.1209 -0.4763  1.4491
  280MOL0     H37735   6.473   8.901   5.631  3.9074 -1.1421  0.2459
  280MOL0     H37736   6.592   9.018   5.705 -1.2984  4.3820  1.0470
  280MOL0     H37737   6.414   9.119   5.840 -1.6094  0.6218 -0.9528
  280MOL0     H37738   6.303   9.001   5.795  0.0584 -1.6565 -0.2681
  280MOL0     H37739   6.355   8.897   5.976 -0.0611  0.3616  0.1470
  280MOL0     H37740   6.505   8.845   5.879  2.4667 -0.6055  2.7615
  280MOL0     H37741   6.636   9.002   5.964  0.0500  1.8106 -0.7999
  280MOL0     H37742   6.496   9.085   6.049 -0.3215 -0.2732 -2.4496
  280MOL0     H37743   6.467   8.887   6.201 -1.4171  4.5512  0.0523
  280MOL0     H37744   6.577   8.792   6.098 -0.5390 -0.8802  0.0830
  280MOL0     H37745   6.758   8.948   6.172  1.1937 -2.6526  1.5154
  280MOL0     H37746   6.637   9.042   6.264 -1.2354 -0.4249 -0.2014
  280MOL0     H37747   6.768   8.904   6.403 -0.6727  1.8706  0.1236
  280MOL0     H37748   6.607   8.836   6.401 -0.8906 -1.3411 -2.2686
  280MOL0     H37749   6.829   8.744   6.216 -0.8377  0.3442 -0.4421
  280MOL0     H37750   6.679   8.657   6.253 -2.4688  2.8612  1.0079
  280MOL0     H37751   7.014   8.572   6.355  0.8867 -0.6230  1.2876
  280MOL0     H37752   7.147   8.512   6.585 -1.0288  2.1406 -1.4484
  280MOL0     H37753   7.049   8.517   6.741 -0.5054  1.8809 -0.4586
  280MOL0     H37754   6.929   8.317   6.568  0.4003  3.6141 -1.7116
  280MOL0     H37755   6.990   8.290   6.730 -0.3044  0.7580  0.2234
  280MOL0     H37756   7.216   8.245   6.657  1.9826  0.5433 -1.3243
  280MOL0     H37757   7.173   8.290   6.486  3.0856  4.2604  2.9535
  280MOL0     H37758   7.033   8.126   6.452 -0.7160 -1.9931 -0.2549
  280MOL0     H37759   7.019   8.065   6.616  0.6643  1.5697  2.0527
  280MOL0     H37760   7.336   7.812   6.440 -2.3750  1.8538 -0.6153
  280MOL0     H37761   7.429   7.576   6.500 -4.1902  3.4160  0.7743
  280MOL0     H37762   7.569   7.623   6.596  0.3155  0.3792 -1.1069
  280MOL0     H37763   7.439   7.523   6.664  0.5670  0.1147  0.0577
  280MOL0     H37764   7.657   7.537   6.967  1.0311 -0.8298  0.4836
  280MOL0     H37765   7.746   7.429   7.169  0.6999  1.9106  0.2008
  280MOL0     H37766   7.514   7.433   7.479  1.2940  0.4320  1.5260
  280MOL0     H37767   7.434   7.272   7.464 -0.7258  1.9884 -1.7241
  280MOL0     H37768   7.586   7.158   7.590 -0.8228  0.1995 -0.8926
  280MOL0     H37769   7.707   7.291   7.581 -0.9414  1.2604 -2.0886
  280MOL0     H37770   7.575   7.258   7.805  0.8789 -1.5343 -1.3335
  280MOL0     H37771   7.433   7.304   7.733  0.1953 -1.8128  1.2511
  280MOL0     H37772   7.692   7.467   7.737  0.7355 -1.2793  2.1966
  280MOL0     H37773   7.553   7.539   7.674  1.2515 -0.0493  0.6306
  280MOL0     H37774   7.595   7.602   7.901  0.2032  0.2938 -0.6052
  280MOL0     H37775   7.560   7.435   7.959 -1.9730 -2.8310 -1.7002
  280MOL0     H37776   7.372   7.614   7.801 -1.3330 -0.5155  1.3069
  280MOL0     H37777   7.324   7.460   7.879 -1.6932 -0.3408  2.1542
  280MOL0     H37778   7.439   7.696   8.032 -0.0228  0.9362 -1.0143
  280MOL0     H37779   7.360   7.554   8.091 -0.2320 -0.1041 -0.8245
  280MOL0     H37780   7.192   7.732   8.103 -3.3058 -1.3118 -0.1046
  280MOL0     H37781   7.143   7.627   7.974 -1.2154  0.4543  0.8822
  280MOL0     H37782   7.346   7.318   7.275 -0.1492 -0.5598  0.7758
  280MOL0     H37783   7.270   7.418   7.062 -0.2981  0.8089  1.7847
  280MOL0     H37784   7.283   7.905   6.922 -1.3111  0.3691 -0.5473
  280MOL0     H37785   7.195   8.057   6.763 -3.7383 -1.0526 -2.1381
  280MOL0     H37786   6.616   8.948   5.429 -0.8965  0.4596  1.4836
  280MOL0     H37787   6.586   8.924   5.196 -1.8253 -0.1757 -1.5243
  280MOL0     H37788   6.712   9.101   4.756 -0.8824  2.1984  2.7386
  280MOL0     H37789   6.678   9.093   4.509 -2.0734 -1.7427 -3.0088
  280MOL0     H37790   6.598   8.923   4.368  2.4706  1.5366  0.1432
  280MOL0     H37791   6.494   8.910   4.229  3.3416 -1.6159 -0.3755
  280MOL0     H37792   6.712   9.014   4.174  0.1455 -1.2122  0.6517
  280MOL0     H37793   6.686   9.144   4.274  0.6682 -1.3365  0.4658
  280MOL0     H37794   6.457   9.192   4.141  0.9568  3.4081  1.0346
  280MOL0     H37795   6.543   9.095   4.012 -0.3742  1.0711 -0.8096
  280MOL0     H37796   6.730   9.249   4.038  0.8286 -0.0963  3.9888
  280MOL0     H37797   6.631   9.350   4.147 -1.2509 -0.4450  0.7032
  280MOL0     H37798   6.454   9.416   3.760  1.0713  1.7655  0.5059
  280MOL0     H37799   6.254   9.076   4.578  0.5336  0.0798 -2.4603
  280MOL0     H37800   6.296   9.088   4.823  0.0441 -0.2658 -1.4877
  281MOL0     O37801   7.276  10.698   4.155  0.0076 -0.4274 -0.2603
  281MOL0     C37802   7.398  10.680   4.151  0.5925  0.0361 -0.6462
  281MOL0     O37803   7.492  10.778   4.171  0.2452  0.4065  0.2504
  281MOL0     C37804   7.453  10.884   4.245 -0.8027 -0.9190  0.3712
  281MOL0     C37805   7.498  11.010   4.200 -0.6972  1.2655  0.5732
  281MOL0     C37806   7.486  11.125   4.278  0.0741 -0.6992  0.2516
  281MOL0     C37807   7.426  11.128   4.398 -0.3084 -0.3906 -0.7563
  281MOL0     O37808   7.410  11.237   4.493 -0.4420  0.7464  0.7859
  281MOL0     C37809   7.503  11.352   4.467 -0.7439  1.1127 -0.0002
  281MOL0     C37810   7.464  11.458   4.573 -0.0827  0.4486 -0.2651
  281MOL0     C37811   7.544  11.436   4.702  0.0239  0.3464 -0.3347
  281MOL0     C37812   7.519  11.562   4.787 -0.7078 -0.0726 -0.5698
  281MOL0     C37813   7.564  11.533   4.931  0.6181 -0.5720  0.5848
  281MOL0     C37814   7.476  11.442   5.004  0.3159  0.1611  0.6078
  281MOL0     C37815   7.490  11.442   5.149 -0.2057 -0.0735 -0.2826
  281MOL0     C37816   7.448  11.565   5.230 -0.2501  0.6908  0.2582
  281MOL0     N37817   7.473  11.551   5.370 -0.4277  0.1581 -0.8201
  281MOL0     C37818   7.601  11.567   5.422  0.3544  0.1004  0.3707
  281MOL0     C37819   7.590  11.541   5.546 -0.7642 -0.2779  0.0743
  281MOL0     C37820   7.703  11.539   5.660  0.1382  1.2820  1.1929
  281MOL0     C37821   7.785  11.414   5.639 -0.9151  0.2067  0.5851
  281MOL0     C37822   7.899  11.395   5.744 -0.4794 -0.7586 -0.2225
  281MOL0     C37823   7.831  11.319   5.860 -0.2682 -0.5430  0.3193
  281MOL0     O37824   7.899  11.322   5.989  1.1771 -0.2964  1.0015
  281MOL0     C37825   8.003  11.232   5.996 -0.0940 -0.3830 -0.3850
  281MOL0     C37826   8.043  11.144   5.894  0.3152  0.8447  0.1396
  281MOL0     C37827   8.162  11.075   5.905  1.1407 -0.0445 -0.2801
  281MOL0     C37828   8.193  10.997   5.774  0.3162 -0.9924  0.8170
  281MOL0     C37829   8.239  11.088   6.028 -0.1927  0.8942 -0.8846
  281MOL0     C37830   8.368  11.029   6.050 -0.2676  0.0276 -0.1088
  281MOL0     O37831   8.445  11.095   6.145  0.0027 -0.6007  0.0470
  281MOL0     C37832   8.573  11.054   6.172  0.0513 -0.0740 -0.2894
  281MOL0     C37833   8.684  11.136   6.180  0.8437 -0.1073 -0.1768
  281MOL0     C37834   8.807  11.088   6.235  0.1997 -0.5582  0.0629
  281MOL0     C37835   8.827  10.961   6.279 -0.5130  0.4312  0.3808
  281MOL0     O37836   8.947  10.926   6.340 -0.1593  0.5796  0.2879
  281MOL0     C37837   8.956  10.786   6.383  0.6383 -0.4383 -0.2862
  281MOL0     C37838   9.080  10.792   6.465 -0.0710  0.3507 -0.4027
  281MOL0     C37839   9.214  10.790   6.398  0.5957  0.3163 -0.3298
  281MOL0     C37840   9.324  10.856   6.489  0.7607  0.7897  0.1323
  281MOL0     C37841   9.450  10.885   6.405 -0.0528  1.1250  0.0995
  281MOL0     C37842   9.531  10.995   6.462  0.2757  0.7540  1.3806
  281MOL0     C37843   9.645  11.015   6.358 -0.6086  0.0411 -0.0897
  281MOL0     C37844   9.739  10.898   6.322 -0.0862  0.0319 -0.3055
  281MOL0    Cl37845   9.890  10.956   6.259  0.2332  0.0669  0.3030
  281MOL0     C37846   8.717  10.869   6.263 -0.0198  0.0441  0.1249
  281MOL0     C37847   8.590  10.920   6.213  0.1437 -0.7224  0.2301
  281MOL0     O37848   8.407  10.927   5.983  0.4171  0.0440 -0.6718
  281MOL0     C37849   8.184  11.161   6.135  0.5750  0.0879 -0.6895
  281MOL0     C37850   8.063  11.231   6.117 -1.0778  0.0276  1.0164
  281MOL0     N37851   7.463  11.509   5.571 -0.2932  0.5809 -0.0617
  281MOL0     N37852   7.381  11.516   5.465 -0.4811  0.2002  0.7978
  281MOL0     C37853   7.376  11.000   4.441 -0.4158 -0.1729  0.0595
  281MOL0     C37854   7.388  10.880   4.373 -0.2136 -0.2559  1.6495
  281MOL0     C37855   7.450  10.556   4.101 -0.0356  0.2879 -0.1895
  281MOL0     C37856   7.368  10.444   4.085 -0.4065  0.1930  0.2295
  281MOL0     C37857   7.417  10.315   4.049 -0.4958 -0.9944  0.1087
  281MOL0     C37858   7.544  10.305   4.005 -0.6318 -0.9506 -0.8038
  281MOL0     O37859   7.594  10.186   3.953  0.4077 -0.3254 -0.2112
  281MOL0     C37860   7.622  10.088   4.051 -0.1537  1.1432 -0.1561
  281MOL0     C37861   7.716   9.980   3.991 -0.0065 -0.0144 -0.0020
  281MOL0     C37862   7.809   9.902   4.088  0.6961 -0.6972 -0.0839
  281MOL0     C37863   7.926   9.839   4.002  0.2930  0.4653 -0.2345
  281MOL0     C37864   8.024   9.768   4.094  1.1187 -1.1972 -0.3115
  281MOL0     C37865   8.110   9.706   4.154  0.5740  0.7894 -0.0107
  281MOL0     C37866   7.632  10.420   4.013  0.8220  0.3680  0.4219
  281MOL0     C37867   7.587  10.548   4.071  0.3437  0.3089 -0.5958
  281MOL0     H37868   7.557  11.016   4.109  1.5902  2.4683  2.0464
  281MOL0     H37869   7.531  11.207   4.222  0.8045 -0.8004  0.6703
  281MOL0     H37870   7.606  11.314   4.460 -1.5569 -1.1186 -0.8305
  281MOL0     H37871   7.475  11.402   4.374 -0.1891 -2.3803 -2.2348
  281MOL0     H37872   7.485  11.558   4.534  1.6299 -1.3100 -4.4360
  281MOL0     H37873   7.355  11.447   4.580  0.0004 -2.3020 -1.9860
  281MOL0     H37874   7.512  11.347   4.758  3.3511 -0.9996 -0.3567
  281MOL0     H37875   7.651  11.424   4.684  0.2416  2.7159 -0.8422
  281MOL0     H37876   7.589  11.636   4.747  1.3577 -1.0090  1.1329
  281MOL0     H37877   7.416  11.598   4.779 -2.4963 -3.7533  2.4567
  281MOL0     H37878   7.663  11.488   4.940  1.1198  0.7144  1.9489
  281MOL0     H37879   7.579  11.629   4.982 -0.9493 -0.3029  0.5802
  281MOL0     H37880   7.373  11.463   4.973  0.6779 -0.1263 -0.8537
  281MOL0     H37881   7.507  11.342   4.971  0.4311  1.3485 -3.5314
  281MOL0     H37882   7.431  11.360   5.190 -4.1628  3.6320  2.2804
  281MOL0     H37883   7.594  11.419   5.173 -0.5738 -1.1408  0.3538
  281MOL0     H37884   7.341  11.565   5.208 -0.3487  2.2528  0.6844
  281MOL0     H37885   7.499  11.659   5.207  0.1156 -0.3070 -3.8607
  281MOL0     H37886   7.688  11.607   5.370  2.1081 -2.4603  1.1301
  281MOL0     H37887   7.774  11.620   5.643  4.2737 -2.5597 -3.0567
  281MOL0     H37888   7.656  11.541   5.759 -0.2115  1.1144  1.0349
  281MOL0     H37889   7.840  11.428   5.546  1.5125  1.2981  2.0678
  281MOL0     H37890   7.715  11.331   5.626 -1.8459  1.2199 -1.2014
  281MOL0     H37891   7.923  11.491   5.791  1.2353 -1.0423 -0.4674
  281MOL0     H37892   7.993  11.351   5.710  0.4444  0.4604  0.6606
  281MOL0     H37893   7.796  11.218   5.836 -3.2105  0.8405 -1.8718
  281MOL0     H37894   7.732  11.366   5.867 -0.2636 -0.7315  5.0374
  281MOL0     H37895   7.983  11.123   5.805 -1.9305 -3.5719  2.3832
  281MOL0     H37896   8.255  10.909   5.791  1.8364  0.0621  0.9868
  281MOL0     H37897   8.108  10.953   5.722 -0.1565  1.3722 -0.5680
  281MOL0     H37898   8.235  11.061   5.695  1.5848 -3.7511 -0.8842
  281MOL0     H37899   8.681  11.241   6.153  2.1194  0.7523  2.6865
  281MOL0     H37900   8.900  11.144   6.238 -0.1959  0.1205 -0.1727
  281MOL0     H37901   8.876  10.744   6.444  0.6316  2.2458  1.7310
  281MOL0     H37902   8.969  10.721   6.296 -2.2482 -0.4773 -0.7632
  281MOL0     H37903   9.063  10.869   6.541 -1.0504  0.9822 -1.2346
  281MOL0     H37904   9.073  10.693   6.511  0.7142 -0.6541 -2.3570
  281MOL0     H37905   9.213  10.852   6.307  0.1736  0.1161 -0.4637
  281MOL0     H37906   9.246  10.689   6.371  0.0031  0.0156  0.0666
  281MOL0     H37907   9.276  10.950   6.519  0.4582  1.1905 -1.4914
  281MOL0     H37908   9.340  10.804   6.584 -0.7350 -1.6407 -0.8695
  281MOL0     H37909   9.427  10.890   6.298 -0.4005 -2.3305 -0.1141
  281MOL0     H37910   9.504  10.790   6.412 -1.6513  0.2066  0.3909
  281MOL0     H37911   9.468  11.084   6.465  0.3892  0.9664 -0.6531
  281MOL0     H37912   9.551  10.959   6.563  2.9745 -1.3392  0.2162
  281MOL0     H37913   9.709  11.092   6.401 -1.0188  0.1246  0.3848
  281MOL0     H37914   9.623  11.041   6.254 -1.0640  2.5034  0.5592
  281MOL0     H37915   9.699  10.825   6.251  2.3564 -1.2987 -0.4458
  281MOL0     H37916   9.762  10.840   6.412  2.2498 -0.4109 -1.1172
  281MOL0     H37917   8.726  10.761   6.274 -1.2426 -0.0066  0.8554
  281MOL0     H37918   8.517  10.839   6.208  1.8554 -2.4979  2.2718
  281MOL0     H37919   8.235  11.178   6.229 -0.1649 -0.4432 -0.1784
  281MOL0     H37920   8.010  11.283   6.196  0.2570  1.2700  1.1395
  281MOL0     H37921   7.324  10.997   4.536  0.1290 -2.0631  0.3366
  281MOL0     H37922   7.359  10.783   4.411  0.4235 -0.5994  1.2614
  281MOL0     H37923   7.262  10.449   4.107 -0.3305 -0.3503  0.7720
  281MOL0     H37924   7.354  10.229   4.068 -1.2375 -0.7803 -1.2244
  281MOL0     H37925   7.679  10.118   4.140  0.9071  0.0567 -0.4399
  281MOL0     H37926   7.530  10.038   4.080  0.7188  0.1863  1.0732
  281MOL0     H37927   7.783  10.031   3.921 -0.7898 -0.5234 -1.1519
  281MOL0     H37928   7.649   9.915   3.934  2.2001 -1.7047 -0.8249
  281MOL0     H37929   7.752   9.824   4.138 -0.8286 -0.2092 -0.9660
  281MOL0     H37930   7.846   9.971   4.164 -1.9677  0.4056  0.3324
  281MOL0     H37931   7.976   9.912   3.938 -0.6324  1.0430 -0.3329
  281MOL0     H37932   7.887   9.773   3.924  0.7766 -0.1750  0.0589
  281MOL0     H37933   8.188   9.655   4.208 -1.7538  1.1553  4.1702
  281MOL0     H37934   7.724  10.419   3.956 -0.1757  1.3855 -1.3203
  281MOL0     H37935   7.652  10.635   4.072 -1.6987  1.9308  0.5811
  282MOL0     O37936   9.930   2.645   2.261 -0.8114 -0.0046 -0.1131
  282MOL0     C37937   9.828   2.677   2.320 -0.7152 -0.9442  0.0444
  282MOL0     O37938   9.811   2.687   2.459 -0.3606 -0.2733  0.2268
  282MOL0     C37939   9.920   2.670   2.540  0.5174 -1.2021  0.7614
  282MOL0     C37940   9.953   2.542   2.588  0.0668 -0.2794 -0.0390
  282MOL0     C37941  10.037   2.516   2.702 -0.1521  0.1672 -0.4079
  282MOL0     C37942  10.103   2.618   2.756 -1.0499  0.8411 -0.1681
  282MOL0     O37943  10.160   2.595   2.886  0.2064  0.0002 -0.0969
  282MOL0     C37944  10.200   2.707   2.964  0.9237 -0.1606  0.8571
  282MOL0     C37945  10.272   2.661   3.084 -0.1466 -0.2956 -0.1827
  282MOL0     C37946  10.406   2.597   3.054 -0.2504  0.3291 -0.2683
  282MOL0     C37947  10.412   2.452   3.082 -0.3332 -1.2886 -0.5929
  282MOL0     C37948  10.552   2.396   3.036  0.5046 -0.1293 -0.6457
  282MOL0     C37949  10.566   2.249   3.072  0.4527  1.1968 -0.2666
  282MOL0     C37950  10.694   2.180   3.033  0.1252 -0.6312 -0.2634
  282MOL0     C37951  10.711   2.035   3.087  0.4589 -0.7145  0.1911
  282MOL0     N37952  10.640   1.946   2.998  0.3984  0.4340  0.8824
  282MOL0     C37953  10.677   1.912   2.870  0.2784 -0.4879 -0.3522
  282MOL0     C37954  10.570   1.850   2.814  0.3361 -0.2497  0.1388
  282MOL0     C37955  10.555   1.808   2.674  0.5644 -0.3167 -0.0290
  282MOL0     C37956  10.501   1.661   2.653  0.4949 -0.1052  1.1269
  282MOL0     C37957  10.503   1.603   2.511  0.5716 -0.7934 -0.5210
  282MOL0     C37958  10.468   1.684   2.387  0.8519  0.7045 -0.3412
  282MOL0     O37959  10.331   1.731   2.381 -0.2291  0.2510  0.1166
  282MOL0     C37960  10.266   1.740   2.258  0.7806 -0.5999  0.2724
  282MOL0     C37961  10.320   1.714   2.125  0.4006 -0.4816 -0.4012
  282MOL0     C37962  10.245   1.727   2.006  0.3008 -0.2574  0.5511
  282MOL0     C37963  10.310   1.695   1.865  0.0958  0.3209 -0.4818
  282MOL0     C37964  10.107   1.772   2.018  0.5810 -0.0552 -0.2720
  282MOL0     C37965  10.022   1.800   1.897  0.4076 -0.6259  0.3026
  282MOL0     O37966   9.895   1.828   1.924 -0.1469 -0.4341  0.6588
  282MOL0     C37967   9.819   1.888   1.826 -0.9833  0.2684  0.7110
  282MOL0     C37968   9.730   1.804   1.740 -0.1962 -1.0275  0.1275
  282MOL0     C37969   9.632   1.868   1.661 -0.2655 -0.3514 -1.0034
  282MOL0     C37970   9.629   2.009   1.644  0.9590  0.1370  1.1470
  282MOL0     O37971   9.555   2.084   1.551  0.3768 -0.4940  1.0159
  282MOL0     C37972   9.496   2.006   1.447 -0.5688 -0.1541 -0.4308
  282MOL0     C37973   9.465   2.093   1.330 -0.2228  0.8040  0.6803
  282MOL0     C37974   9.392   2.236   1.348  0.1479  0.1251  0.1894
  282MOL0     C37975   9.371   2.285   1.207 -0.9353 -0.5781  0.0123
  282MOL0     C37976   9.274   2.415   1.194 -0.6320 -0.3616 -0.7461
  282MOL0     C37977   9.262   2.460   1.052 -0.8157  0.6964 -0.1360
  282MOL0     C37978   9.156   2.568   1.031 -0.2787 -0.1822  0.8281
  282MOL0     C37979   9.145   2.627   0.888 -0.3338  1.1067  0.4265
  282MOL0    Cl37980   9.286   2.735   0.848  0.0422 -0.6917  0.1985
  282MOL0     C37981   9.711   2.085   1.730  0.1423 -0.0579 -0.1910
  282MOL0     C37982   9.793   2.026   1.824 -0.1331  0.6252 -0.3015
  282MOL0     O37983  10.061   1.789   1.781 -0.0994  0.0024  0.0953
  282MOL0     C37984  10.054   1.793   2.151  0.5334  0.5509  1.3290
  282MOL0     C37985  10.126   1.778   2.264 -0.0870  0.8789 -0.3158
  282MOL0     N37986  10.471   1.834   2.904 -0.0786  0.4502  0.1464
  282MOL0     N37987  10.512   1.891   3.010  0.8157 -0.1966  0.1293
  282MOL0     C37988  10.091   2.740   2.703  0.3740 -0.3125  0.1812
  282MOL0     C37989   9.988   2.779   2.604 -0.2973 -0.2411  0.6553
  282MOL0     C37990   9.735   2.746   2.227  0.0944 -0.2280  0.1111
  282MOL0     C37991   9.723   2.702   2.097  0.5773  0.2639  0.0274
  282MOL0     C37992   9.626   2.747   2.016 -0.0674  0.8737  0.5635
  282MOL0     C37993   9.549   2.862   2.051  0.5990  0.8212 -0.6537
  282MOL0     O37994   9.469   2.906   1.950 -0.2612 -0.0885  0.6914
  282MOL0     C37995   9.406   3.020   1.985  0.3943  0.6431  0.1578
  282MOL0     C37996   9.318   3.081   1.870  0.6005  0.0201  1.1127
  282MOL0     C37997   9.209   2.980   1.829 -0.4283 -0.3119  0.6807
  282MOL0     C37998   9.126   3.023   1.720  0.1077 -0.2750  0.1750
  282MOL0     C37999   9.015   2.933   1.683 -0.8313  0.1086  0.7264
  282MOL0     C38000   8.920   2.863   1.674  0.2548  0.2671  0.3899
  282MOL0     C38001   9.558   2.912   2.186  0.6127 -0.0417  0.2692
  282MOL0     C38002   9.638   2.841   2.278 -0.9257 -0.3531 -0.0438
  282MOL0     H38003   9.899   2.456   2.552 -0.7454 -0.8239  2.2962
  282MOL0     H38004  10.056   2.413   2.730 -0.1478 -0.1353 -1.4762
  282MOL0     H38005  10.260   2.774   2.903  1.3351 -1.1121  0.1945
  282MOL0     H38006  10.108   2.759   2.992  0.2511 -1.1648  0.5821
  282MOL0     H38007  10.285   2.742   3.156 -1.3125 -0.1896 -0.0703
  282MOL0     H38008  10.217   2.584   3.139  0.1466  1.1978  2.3768
  282MOL0     H38009  10.424   2.601   2.946 -0.1584 -0.6109 -0.2974
  282MOL0     H38010  10.484   2.656   3.104 -2.0556  1.6577  1.0898
  282MOL0     H38011  10.381   2.442   3.186 -0.3773  1.5400 -0.2411
  282MOL0     H38012  10.337   2.400   3.021 -1.9157  0.6100 -0.3868
  282MOL0     H38013  10.569   2.412   2.929  0.5735  0.0743 -0.6048
  282MOL0     H38014  10.634   2.445   3.090 -1.6118  1.8022  1.0203
  282MOL0     H38015  10.549   2.237   3.179  1.3711  1.2833 -0.0982
  282MOL0     H38016  10.492   2.193   3.014  0.6960 -2.3863  2.5066
  282MOL0     H38017  10.692   2.183   2.923  1.4942  1.4675 -0.2808
  282MOL0     H38018  10.778   2.240   3.069 -0.2193 -2.5365  4.3900
  282MOL0     H38019  10.658   2.033   3.182  2.6355  0.4763  1.5091
  282MOL0     H38020  10.818   2.013   3.101  1.1237  2.7412  1.6401
  282MOL0     H38021  10.773   1.941   2.828 -1.0231 -0.5896 -3.6922
  282MOL0     H38022  10.478   1.872   2.630  1.0574  1.3755  1.4738
  282MOL0     H38023  10.647   1.804   2.614  0.0186 -1.0635 -0.8403
  282MOL0     H38024  10.401   1.670   2.695  0.9012 -0.3599  2.2095
  282MOL0     H38025  10.555   1.586   2.713 -1.4853 -1.6663  1.0411
  282MOL0     H38026  10.438   1.515   2.508 -0.9510  0.2963 -3.6488
  282MOL0     H38027  10.606   1.567   2.502  0.9940 -0.5049  2.1916
  282MOL0     H38028  10.481   1.615   2.303 -1.2759 -0.7092  0.4105
  282MOL0     H38029  10.534   1.771   2.389  0.8139  0.7606 -1.1414
  282MOL0     H38030  10.420   1.675   2.107  1.2029  1.4328 -0.3421
  282MOL0     H38031  10.414   1.663   1.874  0.4222  1.0444 -1.4421
  282MOL0     H38032  10.260   1.622   1.801  0.5408  0.0217 -0.4909
  282MOL0     H38033  10.318   1.785   1.803 -4.6824  1.9362  0.7426
  282MOL0     H38034   9.736   1.697   1.754  2.3881 -0.9516  0.0411
  282MOL0     H38035   9.547   1.808   1.628 -0.3097 -2.9377  3.0211
  282MOL0     H38036   9.556   1.918   1.426 -2.0016 -1.8010  1.8562
  282MOL0     H38037   9.399   1.979   1.489 -0.2764  0.7873  0.9257
  282MOL0     H38038   9.558   2.124   1.281 -2.1899  0.9501 -3.3379
  282MOL0     H38039   9.406   2.032   1.262 -1.4241  1.4143  1.1279
  282MOL0     H38040   9.439   2.317   1.406 -4.1250  1.9229  1.5322
  282MOL0     H38041   9.291   2.221   1.388  0.7701  0.5082  2.0499
  282MOL0     H38042   9.463   2.328   1.166 -2.0176 -1.7833 -4.0893
  282MOL0     H38043   9.321   2.210   1.146 -3.1610  0.8294 -0.0157
  282MOL0     H38044   9.303   2.498   1.259  0.4664 -2.6054  1.8479
  282MOL0     H38045   9.171   2.390   1.220 -0.5285 -1.4171 -1.2921
  282MOL0     H38046   9.364   2.488   1.023  0.5882 -2.2215  1.6480
  282MOL0     H38047   9.232   2.369   0.999 -0.2786  0.8339 -0.6970
  282MOL0     H38048   9.172   2.656   1.093 -1.0265  0.0600  0.6896
  282MOL0     H38049   9.063   2.522   1.066 -0.7375 -0.3608 -0.5462
  282MOL0     H38050   9.048   2.672   0.867 -2.4329 -2.7809  0.8473
  282MOL0     H38051   9.134   2.534   0.831  0.7958 -0.0037  1.9233
  282MOL0     H38052   9.716   2.193   1.728  1.1102 -0.0716 -2.5857
  282MOL0     H38053   9.861   2.087   1.883 -0.6228  1.0544 -0.1655
  282MOL0     H38054   9.949   1.820   2.158  0.1056 -0.3390 -0.6781
  282MOL0     H38055  10.080   1.782   2.363 -1.2994 -1.5560 -0.7085
  282MOL0     H38056  10.140   2.823   2.753  1.6140 -3.1452  4.1287
  282MOL0     H38057   9.968   2.884   2.587  0.0419 -0.6883 -3.3169
  282MOL0     H38058   9.795   2.628   2.062 -1.1031 -1.3264 -0.2149
  282MOL0     H38059   9.622   2.721   1.911  1.8372 -1.0508  0.9109
  282MOL0     H38060   9.341   3.002   2.072  0.3348 -0.4245 -0.0915
  282MOL0     H38061   9.483   3.091   2.015  1.4741  0.5776 -2.2397
  282MOL0     H38062   9.387   3.104   1.788  0.4796 -0.8367  0.7511
  282MOL0     H38063   9.276   3.175   1.906 -2.0263 -1.0616  1.0913
  282MOL0     H38064   9.156   2.957   1.921  2.0080  3.2801  3.2518
  282MOL0     H38065   9.272   2.898   1.793  1.6082  0.7663  1.6341
  282MOL0     H38066   9.187   3.057   1.636 -2.1372  0.3282 -1.3042
  282MOL0     H38067   9.080   3.111   1.765 -1.1934 -1.5597  1.4667
  282MOL0     H38068   8.835   2.800   1.654  1.6917 -0.9983 -2.3679
  282MOL0     H38069   9.503   3.000   2.216 -0.6336 -0.8983  0.5768
  282MOL0     H38070   9.642   2.864   2.384 -1.0235 -0.8726  0.0775
  283MOL0     O38071   9.839   4.872   3.896  0.5745 -0.7358 -0.0663
  283MOL0     C38072   9.909   4.929   3.819 -1.0086  0.0707 -1.0391
  283MOL0     O38073  10.032   4.966   3.840 -0.2173  0.2157 -0.1618
  283MOL0     C38074  10.090   4.925   3.955  0.4174 -0.0703  1.0001
  283MOL0     C38075  10.141   5.028   4.029 -0.7782 -0.4599 -0.1726
  283MOL0     C38076  10.197   5.001   4.156 -0.2407  1.1344 -0.2935
  283MOL0     C38077  10.200   4.870   4.208  1.3205  0.0157  0.4219
  283MOL0     O38078  10.248   4.848   4.330  0.3923 -0.5206 -0.0631
  283MOL0     C38079  10.351   4.746   4.349 -0.5629  0.9913 -0.6045
  283MOL0     C38080  10.456   4.797   4.455 -0.0931  0.0696  1.1910
  283MOL0     C38081  10.397   4.823   4.596 -0.1162  0.4188 -1.3877
  283MOL0     C38082  10.262   4.892   4.611  0.2551 -0.2376  0.0238
  283MOL0     C38083  10.224   4.930   4.751  0.2727 -0.4717 -0.6679
  283MOL0     C38084  10.247   4.822   4.844  0.0541 -0.0579 -0.4368
  283MOL0     C38085  10.183   4.863   4.978 -0.1312  0.2030  0.0267
  283MOL0     C38086  10.034   4.828   5.001  0.4085 -0.4232 -0.4212
  283MOL0     N38087   9.967   4.952   5.067 -0.1009 -0.2110  0.3828
  283MOL0     C38088   9.946   4.981   5.200  1.0906  0.8762 -0.3797
  283MOL0     C38089   9.915   5.111   5.217 -0.3351  0.0312 -0.0186
  283MOL0     C38090   9.888   5.186   5.347 -0.5173 -0.3530  0.1584
  283MOL0     C38091   9.833   5.098   5.455  0.3136  0.0656 -0.1584
  283MOL0     C38092   9.799   5.161   5.589  0.3372 -0.6401  0.1643
  283MOL0     C38093   9.717   5.086   5.688 -0.9740  1.0546 -0.9398
  283MOL0     O38094   9.715   5.154   5.813  0.5580 -0.2331 -0.3299
  283MOL0     C38095   9.681   5.094   5.935 -0.3901  0.9371  0.4445
  283MOL0     C38096   9.714   5.143   6.060 -0.3982 -0.9524 -0.2593
  283MOL0     C38097   9.656   5.102   6.184 -0.1342 -1.0402  0.2666
  283MOL0     C38098   9.700   5.185   6.307 -0.0838 -0.6699 -0.3961
  283MOL0     C38099   9.542   5.001   6.181 -0.5840 -0.7927  0.6456
  283MOL0     C38100   9.452   4.968   6.287  0.0321  0.1295 -0.1683
  283MOL0     O38101   9.488   5.013   6.411  0.2019  0.0065  0.6678
  283MOL0     C38102   9.399   4.998   6.514 -0.6821 -0.1503 -0.7668
  283MOL0     C38103   9.326   5.117   6.552 -0.6496  0.6938  0.3096
  283MOL0     C38104   9.247   5.108   6.665  0.6822 -0.2700  0.4015
  283MOL0     C38105   9.249   4.999   6.752 -0.6201  0.9915 -0.3603
  283MOL0     O38106   9.180   5.003   6.871 -0.2645  0.2449 -0.3698
  283MOL0     C38107   9.193   5.120   6.945 -0.8015 -0.3634  0.0006
  283MOL0     C38108   9.125   5.101   7.080  0.7516 -0.4618 -0.1624
  283MOL0     C38109   8.975   5.076   7.052 -0.0472 -0.2758  0.0406
  283MOL0     C38110   8.887   5.084   7.184  0.1058  0.9355  0.0492
  283MOL0     C38111   8.731   5.085   7.157  0.2547 -0.1257 -1.3466
  283MOL0     C38112   8.657   5.074   7.291  1.1886 -0.3525  0.1956
  283MOL0     C38113   8.630   5.197   7.368  1.1229 -0.2387  0.9277
  283MOL0     C38114   8.538   5.178   7.480  0.6703  0.2335  0.7054
  283MOL0    Cl38115   8.528   5.332   7.556 -0.5002  0.1048  0.0707
  283MOL0     C38116   9.324   4.887   6.708 -0.0079  0.2632 -0.1087
  283MOL0     C38117   9.410   4.890   6.598  0.3087  0.2981 -0.7247
  283MOL0     O38118   9.351   4.897   6.262  0.4028 -0.1081 -0.1928
  283MOL0     C38119   9.516   4.944   6.056 -0.0826  0.2157 -0.4868
  283MOL0     C38120   9.582   4.992   5.937  0.0293 -0.5197  0.5341
  283MOL0     N38121   9.934   5.167   5.089 -0.1118 -0.4524  0.0719
  283MOL0     N38122   9.957   5.073   5.004 -0.2393  0.8087  0.4882
  283MOL0     C38123  10.159   4.759   4.129 -0.9952  0.6297  1.2836
  283MOL0     C38124  10.098   4.790   4.001 -0.3287 -0.4925  0.6177
  283MOL0     C38125   9.845   4.950   3.691  0.3355 -0.2811  0.2943
  283MOL0     C38126   9.924   4.991   3.583 -0.0186  0.3346 -0.1793
  283MOL0     C38127   9.865   5.014   3.458 -0.8317 -0.3001 -0.1385
  283MOL0     C38128   9.728   4.998   3.428 -0.4789  0.3744 -0.4980
  283MOL0     O38129   9.667   5.024   3.307 -0.2049  1.1770 -0.0125
  283MOL0     C38130   9.741   4.982   3.195  0.6873 -0.2777 -0.1762
  283MOL0     C38131   9.644   4.953   3.085  0.1569  0.5716  0.7421
  283MOL0     C38132   9.714   4.956   2.939 -0.0923  0.1654 -0.0820
  283MOL0     C38133   9.606   4.944   2.830 -0.0741 -0.8985  0.5168
  283MOL0     C38134   9.520   5.057   2.828 -0.1549 -0.4474  0.9098
  283MOL0     C38135   9.441   5.145   2.808 -0.3606 -0.3467 -0.5929
  283MOL0     C38136   9.652   4.958   3.540  0.2613  0.4237 -0.9596
  283MOL0     C38137   9.704   4.934   3.667  0.5831  0.6075  0.1523
  283MOL0     H38138  10.152   5.130   3.994  2.7015 -0.4881  0.5512
  283MOL0     H38139  10.229   5.079   4.225  2.0756 -1.5287  1.8962
  283MOL0     H38140  10.302   4.657   4.391  2.4262  0.1404  1.3975
  283MOL0     H38141  10.402   4.703   4.262 -1.6800  0.4502 -1.0125
  283MOL0     H38142  10.534   4.722   4.471 -1.0958 -0.9564  1.4303
  283MOL0     H38143  10.511   4.884   4.417 -0.4723 -1.4844 -3.4992
  283MOL0     H38144  10.379   4.722   4.634 -0.5628 -0.1805 -3.1015
  283MOL0     H38145  10.468   4.875   4.661 -1.0182 -2.0342  1.8037
  283MOL0     H38146  10.250   4.976   4.542 -1.4224  0.5138  1.1596
  283MOL0     H38147  10.192   4.819   4.570  0.8151 -2.4190  2.6256
  283MOL0     H38148  10.286   5.018   4.770  1.5947 -1.5585  0.2762
  283MOL0     H38149  10.122   4.967   4.759  1.5002  3.3178 -0.1772
  283MOL0     H38150  10.233   4.716   4.819 -1.1790  0.1945 -0.8823
  283MOL0     H38151  10.355   4.835   4.859 -0.2439 -0.5698  2.8293
  283MOL0     H38152  10.239   4.817   5.060  1.3471  4.7297  1.9077
  283MOL0     H38153  10.191   4.972   4.986  0.8953  0.4363 -3.0601
  283MOL0     H38154  10.027   4.735   5.058  1.4788  0.1674  0.7342
  283MOL0     H38155   9.981   4.810   4.907 -0.9054  0.9134  0.0288
  283MOL0     H38156   9.951   4.903   5.275 -0.1229 -0.3219 -1.4908
  283MOL0     H38157   9.984   5.227   5.380  1.2623 -1.7288 -2.8638
  283MOL0     H38158   9.824   5.275   5.341 -0.4926 -0.3852 -0.6721
  283MOL0     H38159   9.901   5.015   5.475  0.8094  0.0582 -1.7374
  283MOL0     H38160   9.738   5.058   5.419 -0.7689  2.1646  0.1865
  283MOL0     H38161   9.747   5.255   5.564  0.5974 -0.7411 -0.8079
  283MOL0     H38162   9.890   5.192   5.640 -0.2908  0.9315  0.3820
  283MOL0     H38163   9.766   4.989   5.699 -4.4325 -1.4081 -4.4417
  283MOL0     H38164   9.616   5.066   5.651 -1.2012  0.3642  0.0233
  283MOL0     H38165   9.782   5.227   6.063 -0.3706 -0.9785 -0.1614
  283MOL0     H38166   9.798   5.228   6.285 -0.3745 -0.8032 -2.1130
  283MOL0     H38167   9.627   5.258   6.341  1.9856  0.7502  1.2532
  283MOL0     H38168   9.722   5.124   6.395 -1.2978 -1.8629 -0.8835
  283MOL0     H38169   9.320   5.200   6.483  1.6293  1.3859  0.8454
  283MOL0     H38170   9.181   5.191   6.690 -2.7248 -2.5585 -0.1860
  283MOL0     H38171   9.299   5.142   6.963 -1.8893  3.8557  2.8127
  283MOL0     H38172   9.151   5.207   6.894 -1.1059 -0.1974  0.5258
  283MOL0     H38173   9.179   5.023   7.135  0.7661 -0.8834 -0.7700
  283MOL0     H38174   9.140   5.192   7.139 -0.5574 -0.0856 -0.3783
  283MOL0     H38175   8.961   4.976   7.010 -0.8716 -0.5134  0.8545
  283MOL0     H38176   8.935   5.153   6.985 -0.0869 -2.2171 -2.2834
  283MOL0     H38177   8.917   5.002   7.249  0.5226 -0.8563 -2.2667
  283MOL0     H38178   8.916   5.170   7.245  4.4048 -0.5417  0.4286
  283MOL0     H38179   8.693   5.007   7.091 -3.6566  0.3322  0.1359
  283MOL0     H38180   8.712   5.183   7.111 -1.3763  0.7380  0.9729
  283MOL0     H38181   8.558   5.029   7.275  0.2376  1.3845  0.9070
  283MOL0     H38182   8.712   5.004   7.355  0.5714  0.2525  1.4344
  283MOL0     H38183   8.580   5.275   7.310 -0.9696  0.3271  3.3473
  283MOL0     H38184   8.721   5.231   7.418  0.6569  2.4923  0.0547
  283MOL0     H38185   8.559   5.094   7.547  0.5351  0.2122  0.7233
  283MOL0     H38186   8.437   5.151   7.445  1.7923 -1.2845 -1.6058
  283MOL0     H38187   9.306   4.807   6.780 -1.8650  1.8208  1.2757
  283MOL0     H38188   9.480   4.812   6.568 -1.2853 -2.3411  1.8236
  283MOL0     H38189   9.440   4.868   6.036 -3.1710  3.4348 -2.1145
  283MOL0     H38190   9.553   4.957   5.838  0.9521 -1.5489  0.6227
  283MOL0     H38191  10.175   4.657   4.161 -0.1212 -0.2148 -1.5537
  283MOL0     H38192  10.054   4.706   3.948 -0.3147  0.2785 -0.6723
  283MOL0     H38193  10.020   5.031   3.616 -0.3577 -0.8822  2.6290
  283MOL0     H38194   9.940   5.049   3.389 -0.6524 -1.7717 -0.7182
  283MOL0     H38195   9.807   5.065   3.167  0.4788  0.3931  1.2598
  283MOL0     H38196   9.811   4.900   3.212  0.8758  0.0275  0.5550
  283MOL0     H38197   9.565   5.028   3.095 -2.5857 -1.8761 -0.7503
  283MOL0     H38198   9.605   4.851   3.094  0.2036  0.2812 -1.7073
  283MOL0     H38199   9.772   4.865   2.926  1.3883  0.9255  0.9390
  283MOL0     H38200   9.771   5.049   2.934 -2.3546  1.8205  1.8833
  283MOL0     H38201   9.543   4.864   2.870  1.2857 -0.6597  3.3706
  283MOL0     H38202   9.663   4.916   2.742  2.5287 -1.4926  2.2943
  283MOL0     H38203   9.380   5.229   2.782  2.6307  1.6906 -1.7065
  283MOL0     H38204   9.545   4.954   3.526  0.1918 -0.6481 -0.2967
  283MOL0     H38205   9.638   4.927   3.753  2.4781 -0.3282  1.6060
  284MOL0     O38206   4.045   6.296   2.458 -0.0522 -0.6815 -0.0828
  284MOL0     C38207   4.016   6.222   2.368  0.0564 -0.2859 -0.0789
  284MOL0     O38208   3.892   6.182   2.338 -0.1924 -0.2901  0.8380
  284MOL0     C38209   3.783   6.234   2.405 -0.3676 -0.3580 -0.0120
  284MOL0     C38210   3.770   6.368   2.438  0.4226 -0.9772 -0.0113
  284MOL0     C38211   3.661   6.424   2.509 -0.0407  0.8504 -0.9152
  284MOL0     C38212   3.550   6.333   2.527  0.0596  0.4231 -0.3968
  284MOL0     O38213   3.435   6.362   2.600  0.6576 -0.1964 -0.1710
  284MOL0     C38214   3.371   6.494   2.594 -0.6386  0.1522 -0.1793
  284MOL0     C38215   3.228   6.488   2.535  0.5403 -1.1493  0.2027
  284MOL0     C38216   3.138   6.408   2.627 -0.2174 -0.7754  0.2356
  284MOL0     C38217   3.048   6.515   2.699  1.2077 -0.0599 -0.4482
  284MOL0     C38218   2.941   6.450   2.785  0.3887 -0.3308 -0.0463
  284MOL0     C38219   2.818   6.539   2.798  0.5222 -0.7648  0.1965
  284MOL0     C38220   2.722   6.466   2.888 -1.3576 -0.0607 -0.0959
  284MOL0     C38221   2.586   6.542   2.901 -0.3416  0.3725  0.1968
  284MOL0     N38222   2.491   6.451   2.964  0.3816  0.1729 -0.5885
  284MOL0     C38223   2.408   6.360   2.905 -0.4165 -0.1874  1.0167
  284MOL0     C38224   2.330   6.309   2.996  0.9586  0.4902 -0.5374
  284MOL0     C38225   2.228   6.195   2.971 -0.2525 -0.2473  0.2979
  284MOL0     C38226   2.136   6.176   3.096 -1.1451 -0.4073 -0.5192
  284MOL0     C38227   2.039   6.069   3.072 -0.8333 -0.2929 -0.7903
  284MOL0     C38228   1.947   6.040   3.190  0.0298  0.4646 -0.6198
  284MOL0     O38229   1.834   5.948   3.164 -0.3558 -0.2467  0.5007
  284MOL0     C38230   1.742   5.914   3.268  0.3433  0.1200 -1.0643
  284MOL0     C38231   1.762   5.948   3.406 -0.2439 -0.1837 -0.4207
  284MOL0     C38232   1.682   5.905   3.513 -0.2876  0.3321 -0.7293
  284MOL0     C38233   1.718   5.962   3.650  0.6931 -0.1506 -0.2229
  284MOL0     C38234   1.560   5.834   3.492  0.1928 -0.4586  0.1376
  284MOL0     C38235   1.459   5.789   3.592  0.6350 -0.0363 -0.4863
  284MOL0     O38236   1.362   5.707   3.549  0.1522 -0.4928  0.5504
  284MOL0     C38237   1.277   5.639   3.634 -0.0030  0.3927  0.1797
  284MOL0     C38238   1.273   5.497   3.636  0.4418 -0.5236 -0.2212
  284MOL0     C38239   1.173   5.424   3.695  0.5762 -0.5984  0.1571
  284MOL0     C38240   1.079   5.499   3.775 -0.3006 -0.4648  0.9795
  284MOL0     O38241   0.987   5.422   3.836 -0.1772 -0.1557 -0.1070
  284MOL0     C38242   0.847   5.448   3.793 -0.8382 -0.9805 -0.7783
  284MOL0     C38243   0.819   5.436   3.644  0.3523  0.2536 -0.3872
  284MOL0     C38244   0.676   5.496   3.608 -0.4835  0.8585 -0.1658
  284MOL0     C38245   0.566   5.418   3.696  0.1589  0.8860 -0.1997
  284MOL0     C38246   0.440   5.424   3.617  0.1553  0.0053 -0.6929
  284MOL0     C38247   0.325   5.379   3.699  0.1808 -1.3464 -0.2476
  284MOL0     C38248   0.190   5.383   3.626 -0.9606  0.3125  0.0690
  284MOL0     C38249   0.072   5.375   3.718  0.8190 -0.4169  0.2599
  284MOL0    Cl38250  -0.082   5.379   3.626  0.4524  0.2262 -0.1699
  284MOL0     C38251   1.093   5.644   3.795  0.0659 -0.1341 -0.1545
  284MOL0     C38252   1.187   5.714   3.720 -0.0832 -0.4831  0.0257
  284MOL0     O38253   1.472   5.827   3.709 -0.0026 -0.9052  0.4896
  284MOL0     C38254   1.532   5.801   3.349  0.5988  0.2495 -0.4799
  284MOL0     C38255   1.618   5.837   3.241  0.1633 -0.1854  0.3030
  284MOL0     N38256   2.378   6.358   3.118 -0.5548  0.3023 -0.1899
  284MOL0     N38257   2.470   6.444   3.100 -0.1805  0.2316  0.3103
  284MOL0     C38258   3.549   6.193   2.478  0.4302 -0.0653 -0.1736
  284MOL0     C38259   3.668   6.149   2.415 -0.2774  0.4636 -0.2928
  284MOL0     C38260   4.139   6.177   2.298 -0.1316  1.0863 -0.1438
  284MOL0     C38261   4.269   6.219   2.334 -1.2717 -0.1949 -0.1531
  284MOL0     C38262   4.388   6.158   2.275 -0.1771 -1.0620 -0.5158
  284MOL0     C38263   4.365   6.062   2.171 -0.1285 -0.8652  0.2826
  284MOL0     O38264   4.466   5.985   2.101 -0.0615 -0.0193 -0.8357
  284MOL0     C38265   4.603   6.028   2.115  1.4493  0.0544  0.0584
  284MOL0     C38266   4.655   5.943   2.233 -0.1497 -0.1162 -0.6725
  284MOL0     C38267   4.805   5.934   2.247  0.3112  0.3013 -0.1895
  284MOL0     C38268   4.870   5.856   2.143 -0.1356 -0.0578  0.1120
  284MOL0     C38269   4.905   5.925   2.016 -0.2669  0.9152  0.0457
  284MOL0     C38270   4.930   5.984   1.913 -0.8317 -0.7562  0.4534
  284MOL0     C38271   4.243   6.018   2.141  0.9024 -0.0369 -0.5792
  284MOL0     C38272   4.128   6.068   2.205 -0.1324 -0.4794 -0.0059
  284MOL0     H38273   3.858   6.431   2.427 -0.1721  0.0575  0.9510
  284MOL0     H38274   3.676   6.525   2.545 -1.4370  1.8571 -2.9362
  284MOL0     H38275   3.380   6.544   2.691  0.8246 -1.6478  0.6766
  284MOL0     H38276   3.430   6.553   2.524  1.2486 -0.1425  1.0761
  284MOL0     H38277   3.198   6.593   2.528  1.4873 -0.6056  3.1374
  284MOL0     H38278   3.225   6.444   2.435 -0.7733 -2.1270  0.6463
  284MOL0     H38279   3.081   6.337   2.566  1.5927 -0.6766 -1.6656
  284MOL0     H38280   3.190   6.362   2.711  1.3525 -2.6121 -1.6488
  284MOL0     H38281   3.099   6.598   2.748 -1.4640  2.5597 -1.8223
  284MOL0     H38282   2.996   6.572   2.622  0.1720 -1.2341 -0.6565
  284MOL0     H38283   2.909   6.364   2.726 -2.1853  0.2611  0.3779
  284MOL0     H38284   2.981   6.417   2.882 -0.8118  0.9088  0.9008
  284MOL0     H38285   2.841   6.634   2.847 -0.1519  0.0590 -1.0233
  284MOL0     H38286   2.783   6.567   2.699 -0.6799  1.0119  1.0690
  284MOL0     H38287   2.697   6.365   2.853 -0.6704  0.1133 -1.1329
  284MOL0     H38288   2.775   6.450   2.983 -2.2635 -0.6063  0.3347
  284MOL0     H38289   2.561   6.580   2.802  2.2359  4.4227  0.8492
  284MOL0     H38290   2.590   6.630   2.966  0.9318  1.4213 -1.2344
  284MOL0     H38291   2.383   6.369   2.800 -0.9072  2.7178  1.2842
  284MOL0     H38292   2.166   6.218   2.884 -0.2233  0.3887  0.4420
  284MOL0     H38293   2.279   6.101   2.945  2.2446  0.7070  1.3865
  284MOL0     H38294   2.084   6.265   3.132  0.5787  1.4197 -2.2691
  284MOL0     H38295   2.209   6.143   3.170 -0.3043  1.6535 -0.3516
  284MOL0     H38296   2.096   5.979   3.048  0.5869  0.3334  0.0993
  284MOL0     H38297   1.978   6.104   2.988 -0.4620  0.0824 -0.9062
  284MOL0     H38298   1.921   6.136   3.237  2.0893  0.7552  0.0467
  284MOL0     H38299   2.011   5.994   3.265  0.0810  1.6391  0.0864
  284MOL0     H38300   1.851   6.007   3.429 -1.8075  1.1903  2.7697
  284MOL0     H38301   1.680   6.059   3.680  2.4663  0.3980  0.4064
  284MOL0     H38302   1.703   5.886   3.728  2.8113 -0.0323  0.3662
  284MOL0     H38303   1.826   5.979   3.644  0.3231  2.2485 -1.2242
  284MOL0     H38304   1.341   5.444   3.569  1.3033 -2.5060  2.0997
  284MOL0     H38305   1.153   5.318   3.682  0.5363 -0.4726 -0.8883
  284MOL0     H38306   0.794   5.371   3.850  0.6727 -0.2702  1.7837
  284MOL0     H38307   0.809   5.540   3.838  0.2715 -0.6215 -0.5338
  284MOL0     H38308   0.885   5.503   3.587 -0.4545  2.2453  0.9012
  284MOL0     H38309   0.826   5.335   3.603 -3.5327  0.3017 -1.5743
  284MOL0     H38310   0.649   5.486   3.502  0.4057  0.0383 -0.3309
  284MOL0     H38311   0.686   5.599   3.642  2.3193  0.3768  0.7486
  284MOL0     H38312   0.598   5.314   3.709  0.2954  0.7900 -1.2102
  284MOL0     H38313   0.554   5.471   3.790 -2.6736 -0.2153  0.1456
  284MOL0     H38314   0.448   5.359   3.529 -0.4597 -1.1609  0.0752
  284MOL0     H38315   0.412   5.526   3.592 -0.2347  0.3144  0.9415
  284MOL0     H38316   0.335   5.281   3.748  1.2683 -0.1530  2.0774
  284MOL0     H38317   0.305   5.454   3.776  2.2130  2.4924 -3.1308
  284MOL0     H38318   0.192   5.308   3.546 -1.2217 -1.0567  1.3020
  284MOL0     H38319   0.202   5.480   3.578  3.3272 -0.6261 -1.1916
  284MOL0     H38320   0.069   5.472   3.768  1.1925 -0.2719  0.0031
  284MOL0     H38321   0.078   5.295   3.792  0.6274  0.7952  1.6355
  284MOL0     H38322   1.016   5.684   3.859 -2.1826 -1.2645 -1.9855
  284MOL0     H38323   1.177   5.822   3.715 -3.9004 -0.6748  0.4932
  284MOL0     H38324   1.438   5.754   3.320 -0.4983  2.3930 -0.5985
  284MOL0     H38325   1.608   5.822   3.134  0.6559 -0.6927  0.3239
  284MOL0     H38326   3.474   6.116   2.487  2.3818 -2.0230  0.1982
  284MOL0     H38327   3.692   6.046   2.387  0.8008  0.1602  1.5987
  284MOL0     H38328   4.273   6.293   2.413 -0.2234  0.0938 -0.4597
  284MOL0     H38329   4.488   6.171   2.315  0.6977 -2.0419 -2.2807
  284MOL0     H38330   4.663   6.012   2.025  2.7809  0.2541  0.8890
  284MOL0     H38331   4.613   6.137   2.126  1.3880  0.2580 -1.6366
  284MOL0     H38332   4.614   5.842   2.222 -3.4048  0.4791  3.4197
  284MOL0     H38333   4.603   5.984   2.320  1.3301 -0.4580  0.3921
  284MOL0     H38334   4.817   5.879   2.340  0.3604  0.8226  0.1145
  284MOL0     H38335   4.853   6.031   2.265  0.5151  0.4747 -1.5124
  284MOL0     H38336   4.826   5.762   2.107 -0.1320 -0.3036  0.7484
  284MOL0     H38337   4.968   5.834   2.184 -0.2811  0.6402  0.8632
  284MOL0     H38338   4.953   6.051   1.832 -2.3614 -1.0732 -0.2970
  284MOL0     H38339   4.243   5.940   2.066 -4.9061  0.1306 -1.1973
  284MOL0     H38340   4.026   6.043   2.177 -0.3793 -2.2399  2.1737
  285MOL0     O38341   1.599   4.187   1.364 -0.5272 -0.5100  0.7538
  285MOL0     C38342   1.617   4.105   1.459 -0.3884  0.0338  0.2859
  285MOL0     O38343   1.709   4.115   1.559 -0.1998  0.0229  0.2747
  285MOL0     C38344   1.786   4.233   1.570  0.3300 -0.0784  0.7328
  285MOL0     C38345   1.909   4.231   1.504  0.5093  0.6148 -0.2087
  285MOL0     C38346   1.986   4.346   1.517 -0.0934  0.4484  0.2064
  285MOL0     C38347   1.944   4.464   1.581  0.4124  0.2208  0.1031
  285MOL0     O38348   2.035   4.570   1.583  0.6483  0.0023 -0.2991
  285MOL0     C38349   1.972   4.702   1.569  0.3797  0.8432  0.9559
  285MOL0     C38350   2.087   4.801   1.587 -0.4164  0.5693 -0.4221
  285MOL0     C38351   2.045   4.940   1.633  0.7354 -0.4923  0.5047
  285MOL0     C38352   2.143   5.055   1.615 -0.0210 -0.0321 -0.2593
  285MOL0     C38353   2.286   5.027   1.622  0.1058 -0.3799  0.0695
  285MOL0     C38354   2.328   4.976   1.761  0.0097 -0.3643 -0.0354
  285MOL0     C38355   2.478   4.956   1.775  0.4696 -0.1833 -0.4387
  285MOL0     C38356   2.532   4.840   1.686 -0.2706  0.0500  0.3830
  285MOL0     N38357   2.666   4.804   1.725 -0.4418 -0.0816  0.7799
  285MOL0     C38358   2.700   4.737   1.842  0.3045 -0.1851 -0.6243
  285MOL0     C38359   2.832   4.717   1.826  0.4030  0.0479  1.0842
  285MOL0     C38360   2.913   4.635   1.914  0.8241  0.8117  0.9907
  285MOL0     C38361   3.009   4.720   2.007  0.8381 -0.0227 -0.2345
  285MOL0     C38362   2.930   4.804   2.109 -0.5296 -1.0439 -0.0325
  285MOL0     C38363   2.843   4.740   2.227  0.0187 -0.0891  0.2971
  285MOL0     O38364   2.714   4.699   2.178 -0.8036 -0.0515 -0.4110
  285MOL0     C38365   2.596   4.745   2.234  0.2251  0.7591  1.3458
  285MOL0     C38366   2.477   4.740   2.159 -0.7432 -0.6489 -0.1525
  285MOL0     C38367   2.358   4.782   2.207  0.2614 -0.5717  0.0023
  285MOL0     C38368   2.246   4.777   2.101  0.3415 -0.4052 -0.0832
  285MOL0     C38369   2.344   4.821   2.339  0.4257 -0.2722 -0.5142
  285MOL0     C38370   2.207   4.853   2.395  0.3796 -0.1337  0.1838
  285MOL0     O38371   2.190   4.921   2.514 -0.1572 -1.0328 -1.4085
  285MOL0     C38372   2.060   4.954   2.556 -0.5927 -0.2355 -0.1018
  285MOL0     C38373   1.997   5.073   2.520 -0.3342  0.1867 -0.8816
  285MOL0     C38374   1.864   5.099   2.566 -0.1186  0.4778 -0.5034
  285MOL0     C38375   1.808   5.028   2.672  0.4438 -0.3320  0.2594
  285MOL0     O38376   1.684   5.076   2.725  0.2349  0.2657  0.2904
  285MOL0     C38377   1.594   4.982   2.797  0.9848 -0.0463 -0.1888
  285MOL0     C38378   1.448   5.036   2.757  0.7279  0.4220 -0.7925
  285MOL0     C38379   1.343   4.987   2.869 -0.1454 -0.3485 -0.4450
  285MOL0     C38380   1.202   5.029   2.836 -0.3489  0.7895 -0.6229
  285MOL0     C38381   1.108   4.976   2.938  0.6641  0.6287 -0.3540
  285MOL0     C38382   0.972   5.051   2.934 -0.8607 -0.9391  0.2014
  285MOL0     C38383   0.857   4.956   3.002 -0.3057  0.1365  0.9257
  285MOL0     C38384   0.881   4.966   3.153 -0.0750 -0.2314 -0.1519
  285MOL0    Cl38385   0.830   5.126   3.234 -0.3508  0.4061  0.2090
  285MOL0     C38386   1.868   4.904   2.694  0.3355  0.2253 -0.0961
  285MOL0     C38387   1.995   4.874   2.640 -0.5859 -0.0325  0.3284
  285MOL0     O38388   2.112   4.801   2.341 -0.4268 -0.3200  0.7164
  285MOL0     C38389   2.460   4.829   2.418 -0.0616 -0.5015 -0.3965
  285MOL0     C38390   2.586   4.803   2.364 -0.3689 -0.1720  0.0737
  285MOL0     N38391   2.875   4.753   1.701 -0.3960  0.3785  0.5229
  285MOL0     N38392   2.775   4.814   1.647  0.2746  0.2417 -0.4348
  285MOL0     C38393   1.816   4.461   1.648  0.3127 -0.5906 -0.4160
  285MOL0     C38394   1.740   4.345   1.639 -0.1303 -0.4603  0.0702
  285MOL0     C38395   1.530   3.987   1.471 -0.3476 -0.6988 -0.7224
  285MOL0     C38396   1.575   3.857   1.503  0.3346  1.1543  0.2466
  285MOL0     C38397   1.482   3.752   1.503  0.5537 -1.0807 -0.1400
  285MOL0     C38398   1.352   3.774   1.457 -0.5326 -0.2986  0.6657
  285MOL0     O38399   1.262   3.664   1.455  0.2445  0.5364  0.7471
  285MOL0     C38400   1.159   3.664   1.353  0.5542 -0.2013  1.3097
  285MOL0     C38401   1.127   3.518   1.327 -0.2314  0.3202 -0.0984
  285MOL0     C38402   1.053   3.448   1.442  0.1940  0.0698  0.2267
  285MOL0     C38403   0.977   3.330   1.380  0.8954 -0.0746  0.7307
  285MOL0     C38404   0.897   3.270   1.479  0.4721  0.9492  0.5791
  285MOL0     C38405   0.833   3.205   1.555 -0.6215  1.2332 -0.2075
  285MOL0     C38406   1.313   3.903   1.423 -0.2873  1.0124 -1.2449
  285MOL0     C38407   1.398   4.009   1.438 -0.7114  1.1717  0.0416
  285MOL0     H38408   1.923   4.145   1.439 -1.1190  0.2796 -0.1506
  285MOL0     H38409   2.082   4.346   1.467 -0.3915  0.5866 -0.3754
  285MOL0     H38410   1.941   4.710   1.464  4.6819  0.3898 -0.5531
  285MOL0     H38411   1.889   4.724   1.637 -1.5727 -0.3660 -0.9161
  285MOL0     H38412   2.156   4.758   1.659 -0.5683  0.7666 -0.1568
  285MOL0     H38413   2.131   4.814   1.487  0.0268 -0.1448 -0.3290
  285MOL0     H38414   1.951   4.972   1.587  0.5687  0.0288  1.1783
  285MOL0     H38415   2.040   4.933   1.742  0.5751  0.3392  0.5592
  285MOL0     H38416   2.137   5.092   1.512 -1.4596  2.1014  0.5109
  285MOL0     H38417   2.118   5.137   1.684  0.2140  0.3622 -0.6379
  285MOL0     H38418   2.306   4.949   1.548  2.2053 -0.0469  0.2042
  285MOL0     H38419   2.359   5.101   1.587  1.7562 -3.1115 -2.7797
  285MOL0     H38420   2.279   5.038   1.837 -0.4631  2.2745 -2.3291
  285MOL0     H38421   2.290   4.876   1.784 -2.3824  0.4773  0.0115
  285MOL0     H38422   2.532   5.051   1.766 -0.6442  0.6016  0.7511
  285MOL0     H38423   2.493   4.925   1.879  4.3918  0.8100 -0.5451
  285MOL0     H38424   2.527   4.873   1.582  2.4190 -2.6346 -0.7620
  285MOL0     H38425   2.467   4.752   1.695 -0.4538  0.3421  2.3561
  285MOL0     H38426   2.640   4.732   1.933 -1.5230  2.6869 -1.5399
  285MOL0     H38427   2.852   4.567   1.973  2.8702 -1.4505  0.6506
  285MOL0     H38428   2.967   4.575   1.840 -1.3364  0.6389 -0.5495
  285MOL0     H38429   3.080   4.777   1.946  1.0805 -2.7160 -2.6789
  285MOL0     H38430   3.073   4.651   2.062  1.7788  0.1929 -1.0352
  285MOL0     H38431   2.870   4.874   2.049  3.0561  1.3354 -1.1875
  285MOL0     H38432   3.006   4.865   2.160 -1.4523  0.0673  0.0729
  285MOL0     H38433   2.824   4.816   2.303 -3.1715 -1.0527  0.5907
  285MOL0     H38434   2.903   4.656   2.265  1.6091  1.1566  0.6243
  285MOL0     H38435   2.492   4.707   2.056 -0.4511 -0.8377 -0.0518
  285MOL0     H38436   2.200   4.875   2.084 -2.2068 -1.2939  1.0338
  285MOL0     H38437   2.283   4.754   2.001 -0.7127  4.0913 -1.7393
  285MOL0     H38438   2.173   4.699   2.127 -1.2916  0.8337 -0.7128
  285MOL0     H38439   2.034   5.131   2.436 -0.5642 -0.4732 -1.4497
  285MOL0     H38440   1.819   5.197   2.558 -0.0438  0.7017  1.2810
  285MOL0     H38441   1.609   4.881   2.756 -1.4496 -0.0427 -1.2443
  285MOL0     H38442   1.628   4.978   2.901 -1.3387 -0.9456  0.5826
  285MOL0     H38443   1.447   5.145   2.747  0.5884  0.4981  0.0389
  285MOL0     H38444   1.423   4.987   2.662  1.2534 -2.3773  0.4125
  285MOL0     H38445   1.370   5.030   2.966  1.1794  1.4592 -1.5707
  285MOL0     H38446   1.348   4.879   2.882  1.1668 -0.9868 -4.7376
  285MOL0     H38447   1.203   5.136   2.815  1.2298  0.4164 -2.6946
  285MOL0     H38448   1.174   4.979   2.743 -0.2369 -0.7910  0.1470
  285MOL0     H38449   1.137   4.979   3.043 -0.5806 -0.2991  0.0412
  285MOL0     H38450   1.082   4.871   2.927 -0.9207  1.0402 -0.8261
  285MOL0     H38451   0.980   5.152   2.977 -0.1312 -0.8795 -0.0579
  285MOL0     H38452   0.944   5.064   2.829 -1.4713 -0.2790  0.4323
  285MOL0     H38453   0.860   4.852   2.969 -0.6012 -0.6313  3.1412
  285MOL0     H38454   0.756   4.994   2.981  1.0113  1.5111 -4.5325
  285MOL0     H38455   0.990   4.964   3.167  0.3211  1.8292 -2.3266
  285MOL0     H38456   0.828   4.884   3.201  1.4504 -2.2684 -1.7501
  285MOL0     H38457   1.829   4.831   2.763  1.5621  0.6639  1.0969
  285MOL0     H38458   2.046   4.782   2.666  2.9540  2.0787  1.4812
  285MOL0     H38459   2.454   4.873   2.517 -0.1986  1.3073 -1.1668
  285MOL0     H38460   2.674   4.835   2.419 -0.2147 -0.2119 -0.1473
  285MOL0     H38461   1.782   4.553   1.694 -2.6080 -0.9965 -1.5578
  285MOL0     H38462   1.640   4.346   1.681  0.6964 -0.8881  2.2269
  285MOL0     H38463   1.682   3.840   1.513  0.2627 -0.6658 -1.4298
  285MOL0     H38464   1.509   3.652   1.536  2.7190 -0.8248 -0.9217
  285MOL0     H38465   1.073   3.720   1.391 -0.1267 -1.6279  1.9787
  285MOL0     H38466   1.186   3.700   1.254  2.0482 -0.9031  1.4361
  285MOL0     H38467   1.222   3.471   1.300  0.5275  2.3653 -1.1482
  285MOL0     H38468   1.061   3.519   1.240  0.6185 -1.9365 -0.8559
  285MOL0     H38469   0.978   3.502   1.500 -1.2604 -0.9280 -0.6350
  285MOL0     H38470   1.119   3.392   1.509 -0.2262 -1.1567 -0.3582
  285MOL0     H38471   1.048   3.262   1.333 -1.0212 -1.5157 -0.2296
  285MOL0     H38472   0.911   3.361   1.298  0.1052  0.8164  1.6782
  285MOL0     H38473   0.772   3.145   1.619  0.0374 -1.5677 -2.0389
  285MOL0     H38474   1.212   3.930   1.395 -0.7035 -1.7830 -2.8716
  285MOL0     H38475   1.348   4.103   1.419  2.5656  3.1913  0.6737
  286MOL0     O38476   3.754   8.022   1.402  0.0627 -0.7469 -0.0566
  286MOL0     C38477   3.816   8.086   1.482  0.0079  0.1228  0.5700
  286MOL0     O38478   3.806   8.079   1.614 -0.4837  0.5053 -0.8642
  286MOL0     C38479   3.675   8.052   1.656  0.9646 -0.0578 -0.5732
  286MOL0     C38480   3.627   7.928   1.696 -1.3560  0.0387 -0.4885
  286MOL0     C38481   3.488   7.914   1.740 -0.6775  0.8926  1.1368
  286MOL0     C38482   3.407   8.025   1.755  0.5316 -0.1887 -0.4709
  286MOL0     O38483   3.281   8.019   1.812 -0.6073  0.1963  0.2684
  286MOL0     C38484   3.214   7.896   1.807 -0.1982 -0.0722 -0.6787
  286MOL0     C38485   3.059   7.925   1.848 -0.1800 -1.0059  0.7099
  286MOL0     C38486   2.982   7.805   1.898 -0.0083  0.1453 -0.8379
  286MOL0     C38487   2.847   7.846   1.945  0.5868  0.0735 -0.7995
  286MOL0     C38488   2.773   7.732   2.018 -0.1094 -1.3108  1.0172
  286MOL0     C38489   2.661   7.780   2.094  0.3996 -0.3434 -0.8851
  286MOL0     C38490   2.578   7.672   2.165 -0.0456  0.8718 -0.1720
  286MOL0     C38491   2.651   7.600   2.281  0.5295  0.1230 -0.2976
  286MOL0     N38492   2.562   7.530   2.373  0.2194 -0.8267 -0.1733
  286MOL0     C38493   2.456   7.458   2.332  0.2447 -0.5842  0.6583
  286MOL0     C38494   2.402   7.398   2.442  0.9255 -0.6533  0.2051
  286MOL0     C38495   2.273   7.314   2.435  0.6705  0.2456 -0.5263
  286MOL0     C38496   2.233   7.248   2.564 -0.0708 -0.1587  0.0218
  286MOL0     C38497   2.132   7.132   2.528  0.0458 -0.0152 -1.5700
  286MOL0     C38498   2.089   7.058   2.660 -0.2958  0.1336 -0.8053
  286MOL0     O38499   2.003   7.144   2.737 -0.0469  0.6982 -0.2592
  286MOL0     C38500   1.879   7.086   2.761  0.0951  0.0093  0.3281
  286MOL0     C38501   1.758   7.174   2.774  0.3197 -0.0829  0.4878
  286MOL0     C38502   1.632   7.129   2.810 -0.2018 -0.0511 -0.2835
  286MOL0     C38503   1.522   7.231   2.807 -0.0243 -0.2296  0.5407
  286MOL0     C38504   1.620   6.987   2.845  0.0717  0.4413  0.0336
  286MOL0     C38505   1.488   6.925   2.875 -0.5331 -0.0042  0.2040
  286MOL0     O38506   1.492   6.791   2.918 -0.3120  0.1199  0.1590
  286MOL0     C38507   1.381   6.710   2.906  0.7072 -0.3913 -0.0103
  286MOL0     C38508   1.301   6.699   3.019  0.3820  0.7268 -0.0830
  286MOL0     C38509   1.176   6.638   3.020 -0.3696 -0.0578 -0.3038
  286MOL0     C38510   1.125   6.571   2.916  0.2116  0.7780  0.6413
  286MOL0     O38511   1.002   6.517   2.923  1.6641  0.6640  0.6654
  286MOL0     C38512   0.916   6.518   3.036  0.0158  0.8976  0.1466
  286MOL0     C38513   0.794   6.430   3.009  0.0961  0.1057  0.0790
  286MOL0     C38514   0.668   6.512   2.994 -0.3516 -0.1628  0.3545
  286MOL0     C38515   0.608   6.566   3.120 -0.6032 -0.0009  0.4341
  286MOL0     C38516   0.481   6.641   3.086  0.1853 -0.5525 -0.1066
  286MOL0     C38517   0.427   6.708   3.212 -0.4212 -0.5569  0.5178
  286MOL0     C38518   0.384   6.611   3.316  0.0167  0.3601  0.5121
  286MOL0     C38519   0.294   6.661   3.424 -0.1847  0.1934  0.9017
  286MOL0    Cl38520   0.287   6.536   3.549  0.2327  0.5355 -0.3017
  286MOL0     C38521   1.201   6.588   2.792 -0.2263  0.0738 -0.8921
  286MOL0     C38522   1.331   6.645   2.790  0.0321 -0.8160 -0.8773
  286MOL0     O38523   1.392   6.978   2.827  0.4745 -0.0143  0.5037
  286MOL0     C38524   1.743   6.907   2.840 -0.6280  0.5673  0.8288
  286MOL0     C38525   1.861   6.954   2.799 -0.0449 -0.2483  0.0650
  286MOL0     N38526   2.476   7.438   2.548  0.2373 -0.9803  0.3491
  286MOL0     N38527   2.577   7.514   2.507  0.2259 -0.7649  0.5133
  286MOL0     C38528   3.453   8.149   1.702  0.1609  0.7284 -0.6837
  286MOL0     C38529   3.590   8.161   1.663  0.4001  0.1812  0.1295
  286MOL0     C38530   3.928   8.180   1.439  0.3583  0.0108 -0.4907
  286MOL0     C38531   3.953   8.205   1.304  0.5035  0.1193 -0.4116
  286MOL0     C38532   4.064   8.274   1.266  0.3484  0.6507  0.0773
  286MOL0     C38533   4.152   8.332   1.359  0.9964  0.3213 -0.6107
  286MOL0     O38534   4.261   8.408   1.332  0.5114 -0.1121  0.0672
  286MOL0     C38535   4.324   8.434   1.208  0.2863  0.9225  0.5734
  286MOL0     C38536   4.261   8.565   1.154 -0.5495  0.4098  0.1762
  286MOL0     C38537   4.111   8.560   1.110 -0.3936  0.4751  0.1852
  286MOL0     C38538   4.057   8.678   1.034  0.3254  0.8809  1.4240
  286MOL0     C38539   4.081   8.805   1.091  0.2445 -0.1358  0.0980
  286MOL0     C38540   4.068   8.910   1.148 -0.1985 -0.2434 -1.2995
  286MOL0     C38541   4.114   8.314   1.491 -0.9191  0.6130  0.0682
  286MOL0     C38542   4.009   8.235   1.535 -0.3561  0.3315 -0.2060
  286MOL0     H38543   3.696   7.845   1.702 -0.9622  0.3936  0.0037
  286MOL0     H38544   3.450   7.818   1.773  0.9925 -0.6598 -1.1616
  286MOL0     H38545   3.220   7.854   1.706  0.7676 -1.1221 -0.1971
  286MOL0     H38546   3.255   7.817   1.871 -1.0124 -0.2425 -0.3539
  286MOL0     H38547   3.057   8.002   1.926  0.8317  0.6586 -0.7876
  286MOL0     H38548   3.013   7.965   1.757  0.0899 -2.4698 -0.0935
  286MOL0     H38549   2.972   7.733   1.816 -3.2583 -0.0610 -0.3956
  286MOL0     H38550   3.037   7.747   1.971 -1.2971 -0.1123 -0.0317
  286MOL0     H38551   2.853   7.936   2.007 -0.1296 -0.1789 -0.3490
  286MOL0     H38552   2.795   7.891   1.859 -0.8037  1.2558  0.5863
  286MOL0     H38553   2.736   7.650   1.956  1.4742 -1.1569 -0.2074
  286MOL0     H38554   2.843   7.685   2.088  2.9773  1.2684 -0.1115
  286MOL0     H38555   2.691   7.852   2.171 -2.2870  0.6943 -0.6889
  286MOL0     H38556   2.594   7.837   2.030  2.0539  0.5132 -1.9082
  286MOL0     H38557   2.482   7.715   2.195 -0.5539 -0.2889 -0.0778
  286MOL0     H38558   2.533   7.595   2.101 -1.5813 -2.0742  4.0196
  286MOL0     H38559   2.710   7.670   2.341 -1.3244  0.1352  1.6003
  286MOL0     H38560   2.716   7.522   2.240 -2.2981 -3.0595  0.7964
  286MOL0     H38561   2.411   7.452   2.233 -1.6732  0.6546  1.4197
  286MOL0     H38562   2.187   7.375   2.407  2.4358  2.6810 -1.0094
  286MOL0     H38563   2.296   7.240   2.357  1.1060  0.3911 -0.5373
  286MOL0     H38564   2.188   7.322   2.629 -0.9924  0.0870 -0.8615
  286MOL0     H38565   2.319   7.196   2.608  2.5224  2.7313 -1.2766
  286MOL0     H38566   2.185   7.063   2.461  0.6539 -0.6449 -0.4720
  286MOL0     H38567   2.036   7.156   2.481 -0.7332  0.9684  0.3817
  286MOL0     H38568   2.185   7.029   2.705 -0.6770 -2.1597 -1.3540
  286MOL0     H38569   2.043   6.964   2.630 -0.1063 -0.5222  0.8329
  286MOL0     H38570   1.786   7.276   2.748  2.2514  0.4711  3.9930
  286MOL0     H38571   1.457   7.218   2.894  0.1763  2.5061  1.1829
  286MOL0     H38572   1.567   7.330   2.822  3.3523 -1.8878  2.9676
  286MOL0     H38573   1.469   7.240   2.713  2.1108  1.3625 -0.5969
  286MOL0     H38574   1.329   6.756   3.107 -1.3051  0.5255  0.6212
  286MOL0     H38575   1.119   6.643   3.112  0.4231 -3.1071  0.4861
  286MOL0     H38576   0.967   6.462   3.116  1.7477 -0.7796 -2.0029
  286MOL0     H38577   0.878   6.617   3.064 -1.7118  0.1296  0.6704
  286MOL0     H38578   0.819   6.389   2.911 -1.7130  2.0306 -1.2925
  286MOL0     H38579   0.779   6.344   3.075 -0.0211 -1.2574 -1.6552
  286MOL0     H38580   0.581   6.460   2.952 -0.2387 -0.8438  0.9570
  286MOL0     H38581   0.680   6.601   2.932 -2.4813  1.5512  2.2002
  286MOL0     H38582   0.583   6.482   3.185 -1.2003  0.5461  0.9193
  286MOL0     H38583   0.680   6.627   3.175 -1.4102 -0.3787  1.9664
  286MOL0     H38584   0.395   6.586   3.046 -0.0114 -0.3545  0.0441
  286MOL0     H38585   0.507   6.724   3.020  0.7784 -0.1243  0.6621
  286MOL0     H38586   0.504   6.772   3.256 -1.6127 -0.5413  2.7436
  286MOL0     H38587   0.347   6.779   3.191 -0.3147 -0.5804  0.0203
  286MOL0     H38588   0.470   6.571   3.369 -1.3578 -4.0132 -0.1619
  286MOL0     H38589   0.329   6.530   3.268  0.6038 -0.5263  1.2992
  286MOL0     H38590   0.199   6.681   3.373  1.6913  1.3280 -2.4943
  286MOL0     H38591   0.329   6.760   3.455 -1.6815  2.2261 -3.0534
  286MOL0     H38592   1.164   6.547   2.698  1.6237  1.5762 -2.3337
  286MOL0     H38593   1.389   6.645   2.698  0.7330  1.4688 -0.5142
  286MOL0     H38594   1.742   6.800   2.853  2.6486  0.2356 -0.7272
  286MOL0     H38595   1.948   6.891   2.809  1.6534  2.3563  5.0184
  286MOL0     H38596   3.388   8.236   1.704  0.3141  0.8422 -0.6321
  286MOL0     H38597   3.629   8.256   1.626  2.3109  0.1874  1.9490
  286MOL0     H38598   3.868   8.176   1.242  0.6693  2.1230 -1.6754
  286MOL0     H38599   4.091   8.307   1.166 -2.9722 -0.4642 -1.3443
  286MOL0     H38600   4.430   8.445   1.232  0.0994  1.9771  0.9509
  286MOL0     H38601   4.311   8.355   1.134 -0.2899  1.9773 -0.4843
  286MOL0     H38602   4.313   8.593   1.062 -0.3233 -0.7202 -0.0603
  286MOL0     H38603   4.266   8.633   1.239  1.2334 -0.3192  0.6998
  286MOL0     H38604   4.054   8.551   1.204  0.8341 -4.5503  0.6895
  286MOL0     H38605   4.105   8.474   1.044 -0.8932  2.1762 -2.1214
  286MOL0     H38606   3.948   8.670   1.025  0.2452  1.7255  1.5080
  286MOL0     H38607   4.094   8.674   0.931 -4.2789  0.5693 -0.4326
  286MOL0     H38608   4.049   9.007   1.191  0.3204 -0.7652  0.1475
  286MOL0     H38609   4.179   8.358   1.566  1.7088  0.7033 -2.1277
  286MOL0     H38610   3.990   8.208   1.639 -0.1172  0.5819 -0.0993
  287MOL0     O38611   5.544  10.828   6.739 -0.8514  0.0892  0.2502
  287MOL0     C38612   5.447  10.824   6.666 -0.0539  0.0635  0.1912
  287MOL0     O38613   5.451  10.863   6.531  0.0117 -0.5919  0.2709
  287MOL0     C38614   5.580  10.889   6.479  1.1282 -0.0817  0.8341
  287MOL0     C38615   5.653  10.771   6.449  0.3533  0.0262 -0.2920
  287MOL0     C38616   5.780  10.782   6.399  0.4432  0.6716  0.0494
  287MOL0     C38617   5.847  10.910   6.390 -0.2763 -0.2148  0.3495
  287MOL0     O38618   5.982  10.922   6.350  0.0468 -0.0539  0.0015
  287MOL0     C38619   6.068  10.851   6.445  0.1516  0.2859 -0.3041
  287MOL0     C38620   6.209  10.893   6.415 -0.1943  0.3643  0.1007
  287MOL0     C38621   6.237  11.047   6.410 -0.4141 -0.1438  0.1393
  287MOL0     C38622   6.177  11.115   6.538  0.8710 -0.4070  0.0222
  287MOL0     C38623   6.239  11.256   6.553 -0.4406 -0.7872 -0.4503
  287MOL0     C38624   6.176  11.353   6.654  0.4827 -0.0743 -0.1270
  287MOL0     C38625   6.237  11.488   6.619 -0.2256  0.3652  0.3153
  287MOL0     C38626   6.238  11.582   6.755 -0.1663  0.3460 -0.4300
  287MOL0     N38627   6.102  11.602   6.803 -0.2651  0.5249  0.2446
  287MOL0     C38628   5.994  11.635   6.718  0.0390  0.1353  0.6733
  287MOL0     C38629   5.886  11.625   6.805 -0.2359  0.1544 -0.3548
  287MOL0     C38630   5.739  11.642   6.756 -0.2757  0.4063  0.7282
  287MOL0     C38631   5.721  11.772   6.681  0.3101  0.5065 -0.1208
  287MOL0     C38632   5.724  11.895   6.786 -0.2132 -0.1666  0.5937
  287MOL0     C38633   5.734  12.034   6.720  0.1052 -0.0596  0.1711
  287MOL0     O38634   5.661  12.050   6.598 -0.3900  0.9528  0.1589
  287MOL0     C38635   5.530  12.089   6.600 -0.3320 -1.0455  0.2542
  287MOL0     C38636   5.481  12.132   6.480  0.2433  0.9113 -0.1786
  287MOL0     C38637   5.351  12.185   6.454 -0.8789  0.2277 -0.5910
  287MOL0     C38638   5.312  12.212   6.305 -0.5287  0.7599 -1.1350
  287MOL0     C38639   5.271  12.200   6.570 -0.0055 -0.3059  0.6394
  287MOL0     C38640   5.141  12.271   6.548 -0.2473 -0.1370  0.2462
  287MOL0     O38641   5.134  12.371   6.449 -1.0403  0.8351  0.1755
  287MOL0     C38642   5.019  12.440   6.432 -0.1302  0.2695  0.4334
  287MOL0     C38643   5.009  12.573   6.465 -0.3940 -0.0469 -0.4711
  287MOL0     C38644   4.898  12.653   6.435 -0.1455  0.2457 -0.0265
  287MOL0     C38645   4.784  12.599   6.367  0.2365 -0.0823 -0.0900
  287MOL0     O38646   4.680  12.683   6.335  0.7528 -0.6000  0.0583
  287MOL0     C38647   4.575  12.627   6.256  0.1849 -0.2356  0.4311
  287MOL0     C38648   4.477  12.734   6.239 -0.5580 -1.0664 -0.3378
  287MOL0     C38649   4.365  12.696   6.134  0.5020  1.1012 -0.0936
  287MOL0     C38650   4.341  12.808   6.037  0.5205  0.2680  1.0971
  287MOL0     C38651   4.225  12.781   5.940 -0.0614  0.9487  0.3592
  287MOL0     C38652   4.216  12.896   5.843  0.1038 -0.0185 -0.4635
  287MOL0     C38653   4.117  12.888   5.730 -0.3795  0.2646  0.0778
  287MOL0     C38654   4.131  12.764   5.643 -0.0524 -0.4542 -0.1353
  287MOL0    Cl38655   4.297  12.740   5.581 -0.1749 -0.4531  0.1008
  287MOL0     C38656   4.792  12.465   6.341  0.2457  0.3245  0.0060
  287MOL0     C38657   4.902  12.388   6.368 -0.5020  0.7134  1.1391
  287MOL0     O38658   5.063  12.263   6.648 -0.2837 -0.3123  0.0939
  287MOL0     C38659   5.314  12.143   6.690 -1.0099  0.0481  0.0613
  287MOL0     C38660   5.444  12.101   6.711 -0.7983  0.8316  0.9192
  287MOL0     N38661   5.928  11.598   6.930  0.2633 -0.0537 -0.2614
  287MOL0     N38662   6.057  11.584   6.935  0.0880 -0.0146  0.2951
  287MOL0     C38663   5.776  11.019   6.439 -0.3861 -1.0034 -0.4861
  287MOL0     C38664   5.643  11.016   6.477  0.8548  0.0278  0.2979
  287MOL0     C38665   5.320  10.775   6.718  0.3225  0.6810 -0.2057
  287MOL0     C38666   5.320  10.682   6.827 -0.1686  0.1687 -0.0721
  287MOL0     C38667   5.201  10.611   6.866 -0.1943  0.3619 -1.1490
  287MOL0     C38668   5.075  10.632   6.804  0.3897 -0.6503  0.1604
  287MOL0     O38669   4.981  10.550   6.848 -0.3622 -0.1876 -0.6026
  287MOL0     C38670   4.855  10.528   6.777 -0.6132 -0.9362 -0.0971
  287MOL0     C38671   4.818  10.379   6.788 -0.6272 -1.0158  0.4625
  287MOL0     C38672   4.906  10.302   6.693 -0.2067 -0.0364 -0.0741
  287MOL0     C38673   4.851  10.165   6.657 -0.4038  0.3639 -0.2978
  287MOL0     C38674   4.718  10.147   6.589 -0.1950 -0.2746  0.3821
  287MOL0     C38675   4.600  10.144   6.563  0.0835 -0.0813  0.3750
  287MOL0     C38676   5.074  10.728   6.699 -0.4891  1.1118 -1.0647
  287MOL0     C38677   5.192  10.795   6.656 -0.3636  0.3300  0.9714
  287MOL0     H38678   5.614  10.671   6.461  3.3113 -1.1383  0.5096
  287MOL0     H38679   5.828  10.694   6.358  0.5549  0.9697 -0.4673
  287MOL0     H38680   6.030  10.863   6.547  0.8348  1.6052 -0.1848
  287MOL0     H38681   6.065  10.747   6.409  5.3204  0.3241 -1.5573
  287MOL0     H38682   6.262  10.840   6.494  2.5883 -0.7563 -2.3415
  287MOL0     H38683   6.257  10.850   6.326  5.9712 -1.2621  3.6491
  287MOL0     H38684   6.345  11.059   6.407  0.0478 -3.1818  1.1473
  287MOL0     H38685   6.188  11.094   6.324  0.0709  2.2194  1.0766
  287MOL0     H38686   6.072  11.144   6.524  0.5500 -0.2273  2.3437
  287MOL0     H38687   6.186  11.055   6.629 -1.2291  1.3087  1.4928
  287MOL0     H38688   6.348  11.250   6.564 -0.5883  0.1509  2.4536
  287MOL0     H38689   6.222  11.298   6.453 -1.3046 -3.3463 -1.4533
  287MOL0     H38690   6.067  11.351   6.663 -0.0949 -4.3091 -4.2852
  287MOL0     H38691   6.204  11.336   6.758 -3.2695 -1.0511  0.8551
  287MOL0     H38692   6.338  11.468   6.582 -0.2664 -2.2086  1.3561
  287MOL0     H38693   6.176  11.527   6.537  1.1477  0.9086 -0.4913
  287MOL0     H38694   6.293  11.675   6.743  0.7297 -0.0897  0.1889
  287MOL0     H38695   6.295  11.534   6.835 -0.4740  0.0071 -0.4066
  287MOL0     H38696   5.984  11.661   6.614 -0.3749 -0.7101  0.4979
  287MOL0     H38697   5.714  11.563   6.685  0.8937 -2.0388  2.8739
  287MOL0     H38698   5.675  11.637   6.844 -2.3004 -2.8674 -0.7652
  287MOL0     H38699   5.628  11.756   6.625 -0.4486 -1.5057  1.5741
  287MOL0     H38700   5.799  11.785   6.605  1.8901  1.6423  1.6243
  287MOL0     H38701   5.809  11.882   6.854  0.1493  2.2482  0.6824
  287MOL0     H38702   5.635  11.886   6.849 -0.5247  2.1683  0.5827
  287MOL0     H38703   5.839  12.058   6.702  0.6151 -0.2717  2.5527
  287MOL0     H38704   5.708  12.105   6.799  3.4464  0.5248  0.9047
  287MOL0     H38705   5.546  12.111   6.395 -2.2931 -2.4555 -1.5262
  287MOL0     H38706   5.336  12.313   6.272  4.3771  0.0418 -0.5987
  287MOL0     H38707   5.378  12.145   6.248  0.2615  1.4800 -1.0772
  287MOL0     H38708   5.209  12.186   6.282 -0.1014  0.7643 -3.2316
  287MOL0     H38709   5.085  12.623   6.523 -1.8526  1.8517 -0.1111
  287MOL0     H38710   4.885  12.756   6.468  0.6223  1.0171 -1.9710
  287MOL0     H38711   4.627  12.611   6.161 -1.5728 -2.0507 -0.2933
  287MOL0     H38712   4.523  12.540   6.296 -0.3230 -1.0914 -1.9531
  287MOL0     H38713   4.442  12.755   6.340 -0.7385 -0.0967 -0.5955
  287MOL0     H38714   4.531  12.821   6.200 -1.9001 -0.5164 -0.9971
  287MOL0     H38715   4.265  12.687   6.178 -1.0591  1.9957 -3.1880
  287MOL0     H38716   4.380  12.595   6.093 -4.3351  0.6880 -1.5097
  287MOL0     H38717   4.313  12.897   6.094  0.5988  1.3594 -0.4946
  287MOL0     H38718   4.436  12.823   5.983  0.0092 -0.9714 -0.2009
  287MOL0     H38719   4.127  12.771   5.987 -0.1762  1.6093  0.2671
  287MOL0     H38720   4.242  12.687   5.887  0.2162 -0.4674  2.8261
  287MOL0     H38721   4.194  12.985   5.901 -0.6321 -0.4790 -0.0191
  287MOL0     H38722   4.312  12.912   5.793 -0.8399  2.5820 -1.6123
  287MOL0     H38723   4.139  12.974   5.666  0.6736 -1.7716 -2.4881
  287MOL0     H38724   4.012  12.892   5.762 -1.9600 -0.9089 -4.2437
  287MOL0     H38725   4.068  12.778   5.554  1.2543 -1.0551 -1.1987
  287MOL0     H38726   4.097  12.677   5.699 -1.5768  0.2444  0.0826
  287MOL0     H38727   4.719  12.421   6.272  1.2437  0.1264 -0.9536
  287MOL0     H38728   4.905  12.286   6.333 -1.7902  1.1802 -0.4394
  287MOL0     H38729   5.264  12.130   6.785 -1.3211  0.5262 -0.0345
  287MOL0     H38730   5.490  12.074   6.806  0.0580  1.3928  0.6749
  287MOL0     H38731   5.823  11.116   6.457  0.3112 -1.5402  0.7058
  287MOL0     H38732   5.602  11.111   6.508  0.5096 -0.1475  0.3795
  287MOL0     H38733   5.409  10.670   6.887  1.5497 -2.1143 -2.7704
  287MOL0     H38734   5.210  10.538   6.946 -0.0178 -1.9699 -3.1753
  287MOL0     H38735   4.777  10.587   6.827  0.0943  0.6312 -0.7965
  287MOL0     H38736   4.865  10.577   6.680  0.0502  0.4722  0.6514
  287MOL0     H38737   4.714  10.369   6.756 -0.0251 -2.6136 -1.1367
  287MOL0     H38738   4.835  10.335   6.886  4.1255 -0.8275 -0.0738
  287MOL0     H38739   5.002  10.281   6.740 -0.6066 -1.1155  0.2894
  287MOL0     H38740   4.940  10.352   6.601  2.3291 -2.0379 -0.3466
  287MOL0     H38741   4.829  10.112   6.750 -1.3725 -1.6000 -1.5752
  287MOL0     H38742   4.914  10.097   6.599 -3.9506 -6.4267  2.6475
  287MOL0     H38743   4.497  10.134   6.534  0.6525 -1.1753 -1.4049
  287MOL0     H38744   4.988  10.758   6.639 -1.0611  2.1236  0.2011
  287MOL0     H38745   5.190  10.866   6.574 -3.7012  0.1055  0.7484
  288MOL0     O38746   2.314   3.731   8.342 -0.5150  0.2032 -0.2059
  288MOL0     C38747   2.424   3.766   8.382  0.5585 -0.1479 -0.0705
  288MOL0     O38748   2.460   3.793   8.511  0.4781 -0.1490 -0.0676
  288MOL0     C38749   2.363   3.780   8.612  0.0146  0.7138 -0.8901
  288MOL0     C38750   2.301   3.658   8.627 -0.4760 -0.5376  0.4756
  288MOL0     C38751   2.208   3.655   8.736 -0.2598  0.1435  0.6554
  288MOL0     C38752   2.181   3.766   8.825  0.2312 -0.1131 -0.1344
  288MOL0     O38753   2.104   3.753   8.940  0.5460 -0.1759  0.0362
  288MOL0     C38754   2.006   3.648   8.964  1.8502  0.7694 -0.2412
  288MOL0     C38755   1.929   3.671   9.100 -0.4498  0.1675  0.1046
  288MOL0     C38756   1.858   3.550   9.160  0.7444  0.5836 -0.1511
  288MOL0     C38757   1.813   3.605   9.295  0.5418  0.0558 -0.1217
  288MOL0     C38758   1.737   3.507   9.381 -0.1584 -0.6359  0.9975
  288MOL0     C38759   1.837   3.412   9.457 -0.6031 -0.3701  0.3648
  288MOL0     C38760   1.762   3.319   9.551  1.0713  0.9880 -0.3543
  288MOL0     C38761   1.861   3.233   9.643 -0.1989 -0.8253  0.1453
  288MOL0     N38762   1.881   3.302   9.771  0.0727 -0.4379 -0.4004
  288MOL0     C38763   1.895   3.234   9.891 -0.8278 -0.5963 -0.4818
  288MOL0     C38764   1.915   3.332   9.985  0.2103 -0.2083 -0.1411
  288MOL0     C38765   1.939   3.327  10.136  0.1734  0.2210 -0.0275
  288MOL0     C38766   2.085   3.318  10.164  0.1020  0.1906 -0.5790
  288MOL0     C38767   2.131   3.303  10.311 -0.2021 -0.0396 -0.1552
  288MOL0     C38768   2.145   3.155  10.349 -0.3912  0.7514 -0.5944
  288MOL0     O38769   2.244   3.142  10.453 -0.9211  0.0148 -0.1840
  288MOL0     C38770   2.253   3.017  10.506 -0.6049 -0.2732 -0.1937
  288MOL0     C38771   2.208   2.889  10.463  1.2752  0.5681 -0.7617
  288MOL0     C38772   2.225   2.774  10.551 -0.2251 -0.1976  0.3224
  288MOL0     C38773   2.156   2.658  10.502  0.2493  0.4991 -0.6397
  288MOL0     C38774   2.301   2.786  10.672  0.1049 -0.1593 -0.2834
  288MOL0     C38775   2.338   2.670  10.752  0.4797 -0.1483  0.3053
  288MOL0     O38776   2.464   2.665  10.785 -0.5567 -0.4182 -0.3626
  288MOL0     C38777   2.503   2.567  10.873 -0.1647 -0.6041  0.6008
  288MOL0     C38778   2.614   2.605  10.953  0.4909 -1.0320  0.0572
  288MOL0     C38779   2.669   2.516  11.053  0.2208  0.0621 -0.2166
  288MOL0     C38780   2.625   2.391  11.065 -0.9007 -0.0735 -0.2977
  288MOL0     O38781   2.694   2.319  11.160  0.5042  0.4966  0.3511
  288MOL0     C38782   2.671   2.175  11.182  0.5887  0.5036 -0.1881
  288MOL0     C38783   2.597   2.135  11.315 -0.4630  0.0127 -0.1407
  288MOL0     C38784   2.670   2.195  11.435  0.8194 -0.5356  0.1748
  288MOL0     C38785   2.654   2.114  11.567  0.2215  0.3722 -1.2447
  288MOL0     C38786   2.703   2.195  11.695 -0.4814 -0.0188 -0.2513
  288MOL0     C38787   2.755   2.110  11.809  0.0706  0.3359 -0.1400
  288MOL0     C38788   2.791   2.193  11.933 -0.6112  0.8726 -0.2886
  288MOL0     C38789   2.864   2.125  12.048  0.3114  0.1477  0.0058
  288MOL0    Cl38790   3.033   2.080  12.019  0.0187 -0.2138  0.3569
  288MOL0     C38791   2.525   2.351  10.981  0.2642  1.0984 -0.7991
  288MOL0     C38792   2.455   2.443  10.899 -0.2656  1.3005  0.2042
  288MOL0     O38793   2.246   2.600  10.798 -0.3440 -0.3386 -0.4376
  288MOL0     C38794   2.343   2.915  10.710  1.1103 -0.5350  0.4823
  288MOL0     C38795   2.319   3.027  10.628 -0.1914  0.5571 -0.2737
  288MOL0     N38796   1.922   3.447   9.914  0.2634 -0.2017  0.0193
  288MOL0     N38797   1.908   3.430   9.789  0.2511  0.4605  0.8165
  288MOL0     C38798   2.239   3.888   8.798 -1.4270  0.4741 -0.0631
  288MOL0     C38799   2.344   3.878   8.698  0.6027  1.2646  0.1833
  288MOL0     C38800   2.539   3.751   8.293  0.0889 -0.1425  0.4171
  288MOL0     C38801   2.538   3.659   8.180 -0.8159 -1.0165  0.2047
  288MOL0     C38802   2.632   3.684   8.075 -0.1566  0.4038  1.0961
  288MOL0     C38803   2.737   3.765   8.080 -0.5456 -1.1697  0.2079
  288MOL0     O38804   2.835   3.743   7.984  0.1966  0.2529 -0.0938
  288MOL0     C38805   2.974   3.752   8.011  0.0046 -0.0696 -0.4816
  288MOL0     C38806   3.052   3.866   7.942  0.5890  0.7864  0.4217
  288MOL0     C38807   3.007   3.903   7.799 -0.6801  0.8885 -0.6147
  288MOL0     C38808   3.040   4.051   7.780 -0.5060  0.3203  0.2909
  288MOL0     C38809   3.006   4.083   7.641 -0.3779  0.7125  0.6246
  288MOL0     C38810   2.977   4.119   7.526  0.0188  0.1811  0.1930
  288MOL0     C38811   2.746   3.854   8.191 -0.5393 -0.1825 -0.9066
  288MOL0     C38812   2.647   3.850   8.295 -0.4350 -0.4198  0.4778
  288MOL0     H38813   2.304   3.582   8.550  1.8375  2.1685 -2.3311
  288MOL0     H38814   2.143   3.569   8.743 -2.2393  1.6319  1.7435
  288MOL0     H38815   1.942   3.625   8.878  1.6047 -1.1587  0.4041
  288MOL0     H38816   2.056   3.551   8.962 -1.9081 -1.3752 -2.8354
  288MOL0     H38817   1.997   3.714   9.173  0.1856 -1.4043  0.4670
  288MOL0     H38818   1.858   3.748   9.067 -1.0273 -0.7453 -0.8796
  288MOL0     H38819   1.770   3.517   9.104 -0.6287  0.3024  2.0353
  288MOL0     H38820   1.926   3.466   9.174 -0.4927 -0.3835  0.3049
  288MOL0     H38821   1.895   3.653   9.350  1.9220  0.1519 -2.1285
  288MOL0     H38822   1.741   3.684   9.271 -0.4156 -0.3063  1.4457
  288MOL0     H38823   1.674   3.565   9.449  2.0648  1.2567  1.6009
  288MOL0     H38824   1.673   3.440   9.323 -3.4909  1.3357  2.1148
  288MOL0     H38825   1.901   3.354   9.390  0.7517 -0.0454  1.3453
  288MOL0     H38826   1.903   3.483   9.507 -3.7740  3.0053  0.2168
  288MOL0     H38827   1.683   3.371   9.606 -1.5178 -1.7024 -1.2866
  288MOL0     H38828   1.697   3.246   9.502 -2.8429  2.2859  2.4502
  288MOL0     H38829   1.950   3.216   9.583 -1.6919  2.2534 -3.3323
  288MOL0     H38830   1.818   3.135   9.662  0.8054 -0.6260  4.5820
  288MOL0     H38831   1.898   3.127   9.910 -0.2797 -0.6452 -0.8239
  288MOL0     H38832   1.908   3.425  10.174 -0.0293 -0.4519  1.6241
  288MOL0     H38833   1.894   3.249  10.198  0.6700 -1.2336 -1.4174
  288MOL0     H38834   2.127   3.407  10.118 -1.8554  0.2221 -2.4453
  288MOL0     H38835   2.128   3.229  10.117  2.4767  1.5945 -1.2518
  288MOL0     H38836   2.050   3.344  10.373 -0.4457 -1.8638  0.8296
  288MOL0     H38837   2.213   3.371  10.334  0.9867 -1.3860 -0.2867
  288MOL0     H38838   2.186   3.099  10.264  0.9530  1.1738 -0.2402
  288MOL0     H38839   2.047   3.120  10.383 -1.8764  0.7529 -4.3240
  288MOL0     H38840   2.148   2.880  10.373  0.3780  1.4602 -0.2666
  288MOL0     H38841   2.216   2.587  10.444 -2.9656 -3.2725  0.1955
  288MOL0     H38842   2.130   2.598  10.590  0.4224  3.4800  1.5967
  288MOL0     H38843   2.065   2.674  10.443 -0.6209 -0.5489  0.3633
  288MOL0     H38844   2.651   2.707  10.948  0.0321 -0.7507  1.7249
  288MOL0     H38845   2.755   2.550  11.111 -0.4455  0.3198  0.6448
  288MOL0     H38846   2.639   2.112  11.098  1.1714 -2.0675  1.4196
  288MOL0     H38847   2.773   2.139  11.193 -0.5827 -3.1172  0.2973
  288MOL0     H38848   2.488   2.146  11.312 -0.5265  1.0072  2.5980
  288MOL0     H38849   2.624   2.029  11.318  2.7664  0.7227  3.0555
  288MOL0     H38850   2.638   2.299  11.447  3.9667  0.7425 -1.1080
  288MOL0     H38851   2.775   2.202  11.403  0.0949 -0.4255 -2.4043
  288MOL0     H38852   2.552   2.082  11.590  1.1703 -0.5413  2.1780
  288MOL0     H38853   2.707   2.019  11.559 -0.1356  0.0664 -0.1961
  288MOL0     H38854   2.631   2.264  11.740  0.1850 -0.0967  0.9635
  288MOL0     H38855   2.790   2.253  11.662  0.0233 -2.3156 -3.4187
  288MOL0     H38856   2.685   2.035  11.846 -0.6957  1.2389  0.2881
  288MOL0     H38857   2.851   2.063  11.787 -0.1898 -0.6647  0.8285
  288MOL0     H38858   2.692   2.220  11.970 -0.5985  0.3293  0.1604
  288MOL0     H38859   2.845   2.283  11.904  2.1923 -0.8155 -0.7040
  288MOL0     H38860   2.820   2.027  12.068  1.0503 -0.2445 -0.2599
  288MOL0     H38861   2.854   2.183  12.140  1.5696  1.2589 -0.5329
  288MOL0     H38862   2.491   2.248  10.992  0.7231  1.2558  4.4393
  288MOL0     H38863   2.372   2.401  10.844  2.0355 -0.5336 -2.1450
  288MOL0     H38864   2.394   2.914  10.806  1.2911 -2.3354  0.4019
  288MOL0     H38865   2.345   3.129  10.654  1.9950  0.3881 -1.5433
  288MOL0     H38866   2.233   3.976   8.861 -0.3925 -0.1457  0.9511
  288MOL0     H38867   2.389   3.973   8.670 -0.5988  1.5095 -1.0257
  288MOL0     H38868   2.450   3.596   8.168 -1.0700 -0.5070 -0.6810
  288MOL0     H38869   2.634   3.614   7.991  1.2686  0.4007  1.1092
  288MOL0     H38870   2.988   3.750   8.120  0.0485  3.0100 -0.3578
  288MOL0     H38871   3.002   3.655   7.967 -3.0174 -1.2239 -0.1181
  288MOL0     H38872   3.154   3.831   7.924  0.4012  0.0061  0.7942
  288MOL0     H38873   3.057   3.953   8.008 -1.2642  0.4330  1.0999
  288MOL0     H38874   2.899   3.886   7.798 -0.7066 -1.8222  5.6064
  288MOL0     H38875   3.060   3.841   7.726  0.0974  0.1743  0.5240
  288MOL0     H38876   3.145   4.078   7.797 -0.6508  1.1069  0.0184
  288MOL0     H38877   2.984   4.119   7.845 -0.2805  2.9448 -2.0431
  288MOL0     H38878   2.946   4.135   7.425  1.7274  0.4682 -0.3164
  288MOL0     H38879   2.835   3.917   8.187  0.0881 -1.0444 -0.8842
  288MOL0     H38880   2.649   3.921   8.377 -1.6221 -1.2405  1.2583
  289MOL0     O38881   7.525   3.224   4.642 -0.3778  0.3627 -0.6269
  289MOL0     C38882   7.565   3.341   4.637 -0.5484  0.7884 -0.0427
  289MOL0     O38883   7.502   3.451   4.589 -0.0425 -0.4314  0.2399
  289MOL0     C38884   7.370   3.462   4.547 -0.1073  0.0012 -0.0268
  289MOL0     C38885   7.326   3.600   4.541  0.3493 -0.6299 -0.2074
  289MOL0     C38886   7.192   3.624   4.525 -0.6097  0.4353 -0.1395
  289MOL0     C38887   7.101   3.519   4.491 -0.2664  0.9094  0.1488
  289MOL0     O38888   6.971   3.558   4.462  0.5660 -0.0863  0.6458
  289MOL0     C38889   6.872   3.457   4.507 -0.6667 -0.7231  0.2876
  289MOL0     C38890   6.722   3.499   4.475  0.5551 -0.3819  0.1978
  289MOL0     C38891   6.717   3.545   4.326 -0.4271 -0.7845  0.3795
  289MOL0     C38892   6.724   3.693   4.306  0.6136 -0.2360 -0.5529
  289MOL0     C38893   6.582   3.750   4.312 -0.7319  0.5719 -1.0004
  289MOL0     C38894   6.600   3.903   4.271 -0.9156  0.1005 -0.5508
  289MOL0     C38895   6.464   3.963   4.243 -0.1833  0.5602  0.1367
  289MOL0     C38896   6.380   3.988   4.376  0.0465  0.4206  0.2030
  289MOL0     N38897   6.251   4.045   4.373 -0.0735 -0.3986  0.7693
  289MOL0     C38898   6.131   3.975   4.372  0.1703 -0.3923  0.2009
  289MOL0     C38899   6.034   4.068   4.358  0.6949  0.4510 -0.8054
  289MOL0     C38900   5.879   4.041   4.376  0.6431 -0.0002 -0.5821
  289MOL0     C38901   5.800   4.019   4.248  0.6774  0.3835 -0.3553
  289MOL0     C38902   5.650   3.967   4.278  0.4196  0.5363  0.6364
  289MOL0     C38903   5.599   3.880   4.157  0.1224 -0.1293 -0.0840
  289MOL0     O38904   5.456   3.883   4.141 -0.0354 -0.5999 -0.4586
  289MOL0     C38905   5.381   3.803   4.226  0.0996  0.4499  0.7531
  289MOL0     C38906   5.241   3.801   4.201 -0.4142  0.2877 -0.3173
  289MOL0     C38907   5.152   3.736   4.292  0.4581 -0.5941 -0.3184
  289MOL0     C38908   5.007   3.752   4.276 -0.0129  0.5660 -0.2585
  289MOL0     C38909   5.204   3.668   4.403 -0.1747  0.5656 -0.7654
  289MOL0     C38910   5.126   3.609   4.520 -0.5535  1.0017 -0.0945
  289MOL0     O38911   5.206   3.566   4.638 -0.1913 -0.4966 -0.7286
  289MOL0     C38912   5.143   3.499   4.742  0.3311 -0.2632  0.3959
  289MOL0     C38913   5.187   3.536   4.872 -0.7301 -0.0783  0.2417
  289MOL0     C38914   5.150   3.456   4.980 -0.0849 -0.7262  0.0380
  289MOL0     C38915   5.064   3.346   4.956 -0.3639  0.0225 -0.9957
  289MOL0     O38916   5.027   3.261   5.059  0.4229 -0.7087  0.1954
  289MOL0     C38917   5.122   3.242   5.162 -0.5504 -0.4518  0.2490
  289MOL0     C38918   5.077   3.118   5.249 -0.0406 -1.3211  0.0864
  289MOL0     C38919   4.936   3.130   5.296  0.6363 -0.7404 -0.4864
  289MOL0     C38920   4.925   3.230   5.403  0.7618  1.0884  0.1448
  289MOL0     C38921   4.773   3.263   5.426  0.9206 -0.4942  0.1430
  289MOL0     C38922   4.715   3.373   5.335  0.0032  0.1901 -0.3082
  289MOL0     C38923   4.573   3.401   5.398  0.6814 -0.0679 -0.0265
  289MOL0     C38924   4.503   3.530   5.330  0.0979  0.8370 -0.7169
  289MOL0    Cl38925   4.477   3.511   5.149 -0.0052  0.3351  0.2804
  289MOL0     C38926   5.032   3.305   4.825  0.2900  0.0221 -0.3186
  289MOL0     C38927   5.073   3.387   4.716 -0.5883  0.2004 -0.2492
  289MOL0     O38928   5.004   3.595   4.510 -0.4535 -1.3205  0.8327
  289MOL0     C38929   5.346   3.661   4.414 -0.4146  0.4087  0.0712
  289MOL0     C38930   5.431   3.725   4.325  0.5026 -1.0668 -0.0923
  289MOL0     N38931   6.093   4.193   4.366 -0.1371  0.0317  1.2317
  289MOL0     N38932   6.223   4.178   4.366 -0.5346  0.1789 -0.7882
  289MOL0     C38933   7.146   3.387   4.472  0.0015 -0.5907  0.7799
  289MOL0     C38934   7.282   3.353   4.503  0.1760 -0.0683  0.9211
  289MOL0     C38935   7.695   3.361   4.693  0.4674 -0.0167 -0.3460
  289MOL0     C38936   7.754   3.491   4.694  0.3455 -0.6682  0.0620
  289MOL0     C38937   7.876   3.524   4.762 -0.5498 -0.1945 -1.0725
  289MOL0     C38938   7.942   3.414   4.819  0.2198 -0.2311 -0.3259
  289MOL0     O38939   8.068   3.421   4.871 -0.1306 -0.0442  1.0009
  289MOL0     C38940   8.176   3.473   4.793 -1.0917  0.3376 -0.3427
  289MOL0     C38941   8.202   3.404   4.654 -0.2826  0.6693 -0.4970
  289MOL0     C38942   8.243   3.260   4.660  0.3110  0.0567  0.5046
  289MOL0     C38943   8.389   3.239   4.703  0.8113  0.6953  0.5194
  289MOL0     C38944   8.482   3.227   4.589  0.4919 -0.0574  0.2666
  289MOL0     C38945   8.546   3.224   4.484 -0.6836  0.7569  0.1012
  289MOL0     C38946   7.896   3.285   4.801 -0.0508  0.7682 -0.6184
  289MOL0     C38947   7.770   3.263   4.747  0.0919 -0.0127 -0.2485
  289MOL0     H38948   7.390   3.678   4.582 -1.5816  1.4629 -0.9584
  289MOL0     H38949   7.150   3.724   4.532 -0.5909  0.4980 -0.8968
  289MOL0     H38950   6.890   3.369   4.443  2.4334 -0.5729  0.8284
  289MOL0     H38951   6.884   3.432   4.612  0.2625  1.8412  0.8655
  289MOL0     H38952   6.655   3.412   4.475  0.3071 -0.2293 -1.5466
  289MOL0     H38953   6.673   3.567   4.546 -2.6883 -1.7095 -0.5718
  289MOL0     H38954   6.801   3.498   4.273 -0.1144  1.3379 -1.1711
  289MOL0     H38955   6.620   3.518   4.285 -0.1036  0.2264 -1.1542
  289MOL0     H38956   6.787   3.748   4.376 -1.7332  1.0155  0.6862
  289MOL0     H38957   6.761   3.717   4.206 -2.7525 -2.6978 -2.6066
  289MOL0     H38958   6.504   3.710   4.246 -0.6449 -1.3841  0.0133
  289MOL0     H38959   6.551   3.750   4.416  1.8049 -0.5871 -0.1657
  289MOL0     H38960   6.663   3.963   4.337 -1.3369 -1.2377  1.1365
  289MOL0     H38961   6.661   3.907   4.180 -0.8684 -3.2766 -0.8155
  289MOL0     H38962   6.467   4.058   4.188 -1.7951  1.6629  1.8271
  289MOL0     H38963   6.414   3.895   4.174  1.9359  0.6290 -1.5998
  289MOL0     H38964   6.441   4.062   4.430  2.1573 -0.5333 -0.7447
  289MOL0     H38965   6.366   3.893   4.428 -1.0432  0.6796  0.3939
  289MOL0     H38966   6.109   3.868   4.371  0.8504 -0.6681 -3.6834
  289MOL0     H38967   5.856   3.954   4.438 -2.0623  0.9520 -0.1118
  289MOL0     H38968   5.834   4.124   4.431  1.9190 -1.7930  3.5674
  289MOL0     H38969   5.857   3.955   4.180  0.6974  0.6720 -0.6154
  289MOL0     H38970   5.799   4.112   4.190 -0.9364  0.4020 -0.3705
  289MOL0     H38971   5.582   4.050   4.298 -1.1512 -0.4938 -0.1684
  289MOL0     H38972   5.661   3.890   4.355 -0.6620 -1.1390 -0.8059
  289MOL0     H38973   5.638   3.778   4.163 -0.4313 -0.3611 -0.3304
  289MOL0     H38974   5.645   3.922   4.066 -0.3373  1.9342  0.5774
  289MOL0     H38975   5.201   3.856   4.117 -1.3644  2.0627  1.2092
  289MOL0     H38976   4.974   3.785   4.177 -0.5564 -2.7696 -1.2935
  289MOL0     H38977   4.966   3.651   4.279 -0.2490  0.6715  0.2553
  289MOL0     H38978   4.978   3.819   4.358 -0.8919  2.0456 -1.7117
  289MOL0     H38979   5.253   3.621   4.887 -0.8159  0.0215  0.0678
  289MOL0     H38980   5.189   3.489   5.076  0.0987  0.8912 -0.5624
  289MOL0     H38981   5.221   3.222   5.120 -0.2808 -2.0289  1.5061
  289MOL0     H38982   5.130   3.335   5.218 -0.6722 -0.0442 -0.3944
  289MOL0     H38983   5.109   3.027   5.197  1.5593 -3.1399  3.8709
  289MOL0     H38984   5.150   3.116   5.330  2.1541 -1.2618 -1.7784
  289MOL0     H38985   4.914   3.028   5.329 -1.6280 -0.5211 -1.1783
  289MOL0     H38986   4.865   3.148   5.214  1.6942  2.5994 -0.8153
  289MOL0     H38987   4.969   3.189   5.494  3.6793 -0.3880 -1.7523
  289MOL0     H38988   4.976   3.323   5.375  0.0074  1.0027 -1.6549
  289MOL0     H38989   4.761   3.290   5.531  0.3601 -2.7167  0.7104
  289MOL0     H38990   4.719   3.172   5.399  2.3934 -1.5119  0.5187
  289MOL0     H38991   4.776   3.463   5.324  0.1318 -0.0540 -1.9005
  289MOL0     H38992   4.709   3.330   5.234 -3.3864 -3.2021  1.0761
  289MOL0     H38993   4.570   3.430   5.503 -1.0901 -1.0402  0.2333
  289MOL0     H38994   4.516   3.309   5.385 -0.7367  0.8221 -0.2888
  289MOL0     H38995   4.562   3.622   5.335 -0.2213  1.0940 -1.5701
  289MOL0     H38996   4.402   3.551   5.369  1.0773  1.8323  1.5081
  289MOL0     H38997   4.982   3.211   4.809  1.4118 -0.2806 -2.4372
  289MOL0     H38998   5.052   3.355   4.614 -0.5797  2.8794 -1.1583
  289MOL0     H38999   5.399   3.611   4.494  1.7773 -1.4105 -2.3409
  289MOL0     H39000   5.536   3.710   4.348 -0.2342 -3.4586  2.1201
  289MOL0     H39001   7.091   3.303   4.431  1.6643 -1.6019  0.5515
  289MOL0     H39002   7.322   3.253   4.503  0.3143 -0.0123  0.5520
  289MOL0     H39003   7.695   3.569   4.647  0.3387  0.2208  1.5160
  289MOL0     H39004   7.925   3.621   4.763  2.1995 -1.4717  0.9077
  289MOL0     H39005   8.168   3.580   4.770  1.9839  0.9803  1.1139
  289MOL0     H39006   8.269   3.467   4.851 -2.4369 -0.1053  1.8864
  289MOL0     H39007   8.286   3.453   4.604 -0.0225  0.1335 -0.6010
  289MOL0     H39008   8.118   3.411   4.584  0.4101  1.9780 -1.2439
  289MOL0     H39009   8.227   3.200   4.570 -1.3666 -1.7289  1.9172
  289MOL0     H39010   8.161   3.228   4.725 -1.3956  0.4964 -1.3073
  289MOL0     H39011   8.400   3.143   4.755  3.0887  1.2839  1.2159
  289MOL0     H39012   8.422   3.318   4.770 -2.8384  2.2956  0.6851
  289MOL0     H39013   8.590   3.202   4.389  0.2025  0.6106  0.5339
  289MOL0     H39014   7.943   3.198   4.844 -1.7537 -0.0388 -0.3140
  289MOL0     H39015   7.738   3.159   4.746 -0.6836  0.2110  0.2045
  290MOL0     O39016   6.444   6.886   1.851 -0.1156  0.5566 -0.0846
  290MOL0     C39017   6.515   6.975   1.909 -0.0022 -0.0142  1.3413
  290MOL0     O39018   6.480   7.106   1.930 -0.4436 -0.5592 -0.0650
  290MOL0     C39019   6.360   7.143   1.884  0.2778 -1.2100  0.0586
  290MOL0     C39020   6.356   7.216   1.768  0.1252 -0.3969 -0.3704
  290MOL0     C39021   6.232   7.253   1.712  0.0062 -0.6709 -0.3781
  290MOL0     C39022   6.110   7.224   1.781 -0.4263 -1.0013 -0.2962
  290MOL0     O39023   5.981   7.260   1.741 -0.0736  0.7932 -0.1440
  290MOL0     C39024   5.987   7.373   1.660  0.0705 -0.0648 -0.0998
  290MOL0     C39025   5.844   7.426   1.643 -0.1573 -0.0692  0.4095
  290MOL0     C39026   5.852   7.556   1.556 -0.0003 -0.6074 -0.0408
  290MOL0     C39027   5.724   7.616   1.506  0.6855  0.0245  1.6588
  290MOL0     C39028   5.611   7.659   1.608 -0.0152  0.2687 -0.0990
  290MOL0     C39029   5.483   7.699   1.535 -0.5056  0.3717 -0.4177
  290MOL0     C39030   5.402   7.797   1.610  0.0648  0.3358 -0.9917
  290MOL0     C39031   5.284   7.847   1.523  0.0955 -0.7309 -0.6282
  290MOL0     N39032   5.247   7.976   1.588  0.5525  0.6687  0.4237
  290MOL0     C39033   5.170   7.988   1.698  1.1365 -0.4682 -0.4188
  290MOL0     C39034   5.156   8.124   1.718 -0.6073  0.0599  0.3059
  290MOL0     C39035   5.091   8.204   1.813  0.1814 -0.3259 -0.4422
  290MOL0     C39036   4.970   8.123   1.863  1.6543 -0.0343 -0.2205
  290MOL0     C39037   4.862   8.102   1.752  0.0136 -0.0261 -0.4288
  290MOL0     C39038   4.746   8.031   1.810  0.5158  0.6125 -1.0004
  290MOL0     O39039   4.675   7.958   1.699 -0.0392  0.1280 -0.3109
  290MOL0     C39040   4.563   7.887   1.732 -0.5058 -1.4395  0.4649
  290MOL0     C39041   4.466   7.862   1.636 -0.3221 -0.0244 -1.0824
  290MOL0     C39042   4.346   7.794   1.662  0.1578 -0.7481  0.0441
  290MOL0     C39043   4.244   7.773   1.553 -0.6884  0.6559 -0.5733
  290MOL0     C39044   4.311   7.760   1.793 -0.0273 -0.2022 -0.2631
  290MOL0     C39045   4.185   7.707   1.842 -0.7313 -0.4153 -0.9773
  290MOL0     O39046   4.184   7.575   1.864 -0.6257  0.0201 -0.6151
  290MOL0     C39047   4.069   7.527   1.918  0.3955  0.9804  0.8796
  290MOL0     C39048   3.939   7.559   1.864  0.9416  0.2988  0.0819
  290MOL0     C39049   3.829   7.515   1.934 -1.1112 -0.4728  0.2072
  290MOL0     C39050   3.831   7.439   2.047  0.0246  0.0551  0.2495
  290MOL0     O39051   3.712   7.413   2.117 -0.6498  0.1642 -0.0735
  290MOL0     C39052   3.689   7.272   2.121 -0.7220  0.3000 -0.0154
  290MOL0     C39053   3.549   7.247   2.173 -0.4110  0.1460 -0.1788
  290MOL0     C39054   3.446   7.268   2.063 -0.5188  0.5196  0.3313
  290MOL0     C39055   3.306   7.279   2.111 -0.2052 -0.2095 -0.7242
  290MOL0     C39056   3.193   7.295   2.002 -0.4451 -0.0599 -0.2665
  290MOL0     C39057   3.166   7.173   1.909 -0.3609 -0.5138  0.0226
  290MOL0     C39058   3.124   7.043   1.983 -1.0944 -0.7204 -0.0016
  290MOL0     C39059   3.001   7.049   2.078 -1.7329  0.2863  0.6337
  290MOL0    Cl39060   2.836   7.053   1.997 -0.2639 -0.1126 -0.1943
  290MOL0     C39061   3.957   7.404   2.093 -0.2470 -0.6127  0.1702
  290MOL0     C39062   4.070   7.438   2.019 -0.4207 -0.2369 -0.5247
  290MOL0     O39063   4.093   7.790   1.875 -0.9569 -0.3342  0.0826
  290MOL0     C39064   4.408   7.790   1.896 -1.0919 -0.3167  1.2961
  290MOL0     C39065   4.533   7.845   1.859  0.9984  0.2849 -0.4310
  290MOL0     N39066   5.224   8.193   1.611  0.2860  0.2206  0.2375
  290MOL0     N39067   5.278   8.097   1.533  0.0127 -0.7859  0.0429
  290MOL0     C39068   6.123   7.142   1.899  0.1932  0.1755  0.8790
  290MOL0     C39069   6.246   7.106   1.944  0.8658 -0.1620 -0.2068
  290MOL0     C39070   6.648   6.943   1.941  0.5348 -0.0230 -0.1011
  290MOL0     C39071   6.731   7.011   2.033 -1.4241  0.3605  0.1091
  290MOL0     C39072   6.857   6.963   2.060 -0.1533 -1.0309  0.0339
  290MOL0     C39073   6.916   6.848   1.999 -0.2956  0.0385 -0.5229
  290MOL0     O39074   7.040   6.807   2.039 -0.3301  0.3409  0.7485
  290MOL0     C39075   7.079   6.673   1.998  1.1425 -0.8878 -1.2058
  290MOL0     C39076   7.152   6.605   2.118  0.0330  0.9152  0.8612
  290MOL0     C39077   7.286   6.651   2.163  0.1119  0.6712  0.0334
  290MOL0     C39078   7.399   6.632   2.068  1.1270  0.5380  0.3432
  290MOL0     C39079   7.519   6.672   2.141  0.1087 -0.1838  0.2039
  290MOL0     C39080   7.621   6.712   2.182 -0.6369  0.1716 -0.4618
  290MOL0     C39081   6.836   6.787   1.896  0.4111  0.0810 -0.1569
  290MOL0     C39082   6.705   6.833   1.867  0.7884  0.8591 -0.2568
  290MOL0     H39083   6.436   7.242   1.699 -0.4661 -2.3893 -1.8702
  290MOL0     H39084   6.235   7.313   1.622  0.6375 -0.6665 -0.3593
  290MOL0     H39085   6.047   7.450   1.710 -1.2049 -0.2342  1.8194
  290MOL0     H39086   6.035   7.358   1.563  1.5201  2.6280  0.1028
  290MOL0     H39087   5.786   7.363   1.574 -0.9168  0.1120  0.8715
  290MOL0     H39088   5.798   7.429   1.743 -1.4403 -0.9632 -0.1198
  290MOL0     H39089   5.906   7.623   1.623 -1.6042 -0.4045  1.0902
  290MOL0     H39090   5.915   7.532   1.470  0.2399 -0.5854  0.1276
  290MOL0     H39091   5.755   7.695   1.437  0.2549 -1.3348 -0.1734
  290MOL0     H39092   5.682   7.537   1.442 -1.0916  0.2975  2.4358
  290MOL0     H39093   5.593   7.574   1.674  0.7424  0.2205  0.0492
  290MOL0     H39094   5.641   7.738   1.677 -0.1268  1.9747 -1.8925
  290MOL0     H39095   5.512   7.754   1.445 -0.4986  0.7871 -0.1668
  290MOL0     H39096   5.430   7.611   1.498 -0.2442 -0.6130  1.4289
  290MOL0     H39097   5.363   7.741   1.696 -2.5921 -1.9153 -3.4805
  290MOL0     H39098   5.483   7.866   1.638 -0.7924  0.6360  0.9427
  290MOL0     H39099   5.199   7.778   1.524  1.2720 -2.2566 -0.5489
  290MOL0     H39100   5.310   7.851   1.417 -1.4334 -3.9110 -1.2533
  290MOL0     H39101   5.120   7.914   1.758 -0.5629  3.5822  3.7698
  290MOL0     H39102   5.157   8.235   1.894 -0.2267 -2.9148  0.9868
  290MOL0     H39103   5.071   8.292   1.751 -1.3396 -2.5879 -3.4375
  290MOL0     H39104   4.919   8.167   1.949  3.0973  1.4001 -0.0387
  290MOL0     H39105   4.999   8.025   1.903 -0.1839 -0.3889  0.3318
  290MOL0     H39106   4.897   8.046   1.664 -0.0217  1.7537 -1.6393
  290MOL0     H39107   4.847   8.203   1.712 -1.6698 -0.7196 -1.6554
  290MOL0     H39108   4.667   8.096   1.849 -0.7338 -0.1177 -2.2129
  290MOL0     H39109   4.779   7.956   1.882  0.9700 -0.4450 -2.2730
  290MOL0     H39110   4.497   7.888   1.535  2.2898  0.6925 -0.1772
  290MOL0     H39111   4.204   7.671   1.556  1.9897 -0.5691 -2.5878
  290MOL0     H39112   4.166   7.849   1.547 -0.7421  0.5485 -1.2754
  290MOL0     H39113   4.301   7.792   1.462 -0.4900  1.2267 -0.3336
  290MOL0     H39114   3.939   7.621   1.775  1.2632  2.8347  1.7350
  290MOL0     H39115   3.734   7.555   1.902  0.2491  0.2460 -3.3219
  290MOL0     H39116   3.706   7.225   2.024 -0.0148 -0.3927  0.4367
  290MOL0     H39117   3.760   7.224   2.188 -1.7205 -3.2690 -1.2908
  290MOL0     H39118   3.530   7.149   2.220  1.6019 -0.4049 -0.3820
  290MOL0     H39119   3.546   7.332   2.242  1.7743 -0.0266  0.2036
  290MOL0     H39120   3.451   7.183   1.994  3.2398  0.5197  0.4091
  290MOL0     H39121   3.463   7.354   1.997 -1.8256  1.0537  0.6503
  290MOL0     H39122   3.292   7.181   2.160  0.8136 -1.6790 -3.2181
  290MOL0     H39123   3.296   7.361   2.183  0.3305 -0.8343  0.0900
  290MOL0     H39124   3.199   7.380   1.934 -0.4341  1.2342  1.2821
  290MOL0     H39125   3.100   7.318   2.054 -0.4579  3.2209 -1.4903
  290MOL0     H39126   3.078   7.209   1.856 -2.4734 -1.4272  2.7105
  290MOL0     H39127   3.242   7.146   1.835  0.7346  1.8006  0.2001
  290MOL0     H39128   3.205   7.001   2.043 -0.6850 -3.5756 -2.3237
  290MOL0     H39129   3.110   6.966   1.907  2.8142 -1.1452 -0.4717
  290MOL0     H39130   3.019   7.138   2.140  0.3759  0.7322 -0.5259
  290MOL0     H39131   3.012   6.960   2.141  0.9458 -1.0606 -1.5557
  290MOL0     H39132   3.967   7.343   2.183  0.2394 -3.2913 -1.6026
  290MOL0     H39133   4.173   7.440   2.055  0.7550  3.7963 -3.4746
  290MOL0     H39134   4.399   7.780   2.003  0.4614  0.6453  1.5505
  290MOL0     H39135   4.609   7.849   1.937 -0.7488  1.2042  1.3229
  290MOL0     H39136   6.025   7.120   1.939 -0.9574  3.8961  0.4776
  290MOL0     H39137   6.249   7.056   2.040  2.7201 -3.0175 -1.5773
  290MOL0     H39138   6.693   7.096   2.089 -2.1880  1.1881 -1.5566
  290MOL0     H39139   6.924   7.014   2.129  0.2081 -0.2478 -0.8740
  290MOL0     H39140   6.995   6.603   1.986  0.0013  0.5076 -1.6659
  290MOL0     H39141   7.131   6.676   1.902 -0.6119 -0.9878 -2.1994
  290MOL0     H39142   7.152   6.501   2.085  5.4773  1.6050 -2.4623
  290MOL0     H39143   7.085   6.619   2.204 -0.4587  1.3166  0.4203
  290MOL0     H39144   7.305   6.602   2.259  0.2188 -2.3515 -1.4254
  290MOL0     H39145   7.274   6.760   2.171  0.0560  0.5683  1.5455
  290MOL0     H39146   7.380   6.680   1.972 -1.3410  1.0965  1.0429
  290MOL0     H39147   7.412   6.527   2.042 -1.4763  1.1259 -4.5961
  290MOL0     H39148   7.708   6.752   2.230 -1.0311  2.8113 -1.8024
  290MOL0     H39149   6.868   6.703   1.837 -0.6113 -0.1980 -0.3350
  290MOL0     H39150   6.656   6.772   1.792 -1.3137 -0.5071  2.0573
  291MOL0     O39151   5.787   9.640   7.920  0.5146 -0.2286 -0.3673
  291MOL0     C39152   5.695   9.625   8.002 -0.6345 -0.0947  0.9376
  291MOL0     O39153   5.604   9.521   8.002 -0.1164 -0.8795 -0.5608
  291MOL0     C39154   5.620   9.420   7.909  0.0736  0.6056 -0.3657
  291MOL0     C39155   5.537   9.410   7.799  0.0302  0.7729 -0.3632
  291MOL0     C39156   5.561   9.314   7.704  0.9382  0.3729  0.4339
  291MOL0     C39157   5.667   9.220   7.723  1.0710  0.4240 -1.2664
  291MOL0     O39158   5.710   9.119   7.635  0.0834 -0.6395  0.2335
  291MOL0     C39159   5.614   9.093   7.522 -0.3523  0.7518 -0.0201
  291MOL0     C39160   5.685   9.027   7.397 -0.8983 -0.5646 -0.1083
  291MOL0     C39161   5.719   8.873   7.410 -0.4054 -0.5351 -0.2131
  291MOL0     C39162   5.871   8.871   7.444  0.3052  0.1868 -0.3618
  291MOL0     C39163   5.976   8.863   7.322 -0.3355 -0.3524  0.0189
  291MOL0     C39164   6.112   8.814   7.381 -0.0654 -0.1399 -0.1514
  291MOL0     C39165   6.221   8.803   7.275  0.2499 -0.6624  0.3739
  291MOL0     C39166   6.192   8.686   7.175  0.9461 -0.2748 -0.6970
  291MOL0     N39167   6.308   8.661   7.093  0.5475  0.4460  0.6373
  291MOL0     C39168   6.339   8.727   6.976 -0.7740  0.7072  0.2934
  291MOL0     C39169   6.458   8.665   6.948 -0.6110 -0.3364 -0.4455
  291MOL0     C39170   6.544   8.694   6.833 -0.4354 -0.0749  0.3861
  291MOL0     C39171   6.653   8.800   6.872  0.5316 -0.7361  0.0197
  291MOL0     C39172   6.618   8.943   6.831  0.1267 -1.0716 -0.2625
  291MOL0     C39173   6.610   8.962   6.676 -0.6472 -0.9635  0.2718
  291MOL0     O39174   6.629   9.098   6.654 -0.0205  0.2416 -0.3247
  291MOL0     C39175   6.522   9.170   6.613 -0.2420  0.3084 -0.4806
  291MOL0     C39176   6.406   9.164   6.681  0.5950 -0.6599  1.2266
  291MOL0     C39177   6.298   9.257   6.644  0.8942  0.5841 -0.9636
  291MOL0     C39178   6.170   9.243   6.733 -0.2416 -0.2797 -0.3721
  291MOL0     C39179   6.320   9.345   6.535 -0.1639  0.7366 -0.7175
  291MOL0     C39180   6.224   9.463   6.513 -0.1933  0.0740 -0.0246
  291MOL0     O39181   6.271   9.557   6.445 -0.0663  0.3312 -0.1060
  291MOL0     C39182   6.189   9.659   6.395  0.4252  0.5543 -0.4447
  291MOL0     C39183   6.221   9.796   6.428 -1.1422  0.6175  1.1997
  291MOL0     C39184   6.161   9.905   6.365 -0.1276 -0.1620  0.2346
  291MOL0     C39185   6.051   9.871   6.281 -0.4556  0.4960 -0.1041
  291MOL0     O39186   5.974   9.957   6.214  0.7108  0.4751 -0.0707
  291MOL0     C39187   6.023  10.095   6.210  0.1413 -0.2171  0.8044
  291MOL0     C39188   5.937  10.172   6.100  0.1881 -0.2144  0.1326
  291MOL0     C39189   5.784  10.165   6.126  0.7577 -1.0255  0.1910
  291MOL0     C39190   5.707  10.259   6.026 -0.1731 -0.9517 -1.2952
  291MOL0     C39191   5.554  10.252   6.036 -0.2020 -1.1433  0.2485
  291MOL0     C39192   5.492  10.381   5.984  0.5612  0.0130 -0.2168
  291MOL0     C39193   5.354  10.375   5.905  1.2946 -0.2363 -0.1797
  291MOL0     C39194   5.373  10.300   5.769  0.7437  0.5711 -0.0690
  291MOL0    Cl39195   5.457  10.410   5.655 -0.1272  0.4489 -0.2470
  291MOL0     C39196   6.025   9.746   6.239 -0.1768 -0.2899 -0.3360
  291MOL0     C39197   6.090   9.635   6.293  0.0339  0.0038 -1.1177
  291MOL0     O39198   6.114   9.471   6.568  0.2015  0.2549 -0.8255
  291MOL0     C39199   6.447   9.347   6.474 -0.4878 -0.5842 -0.3468
  291MOL0     C39200   6.540   9.254   6.509 -0.1968  0.0042  0.5863
  291MOL0     N39201   6.503   8.583   7.053  0.0971 -0.7793 -0.0240
  291MOL0     N39202   6.406   8.588   7.137  0.9078 -0.1717 -0.4031
  291MOL0     C39203   5.739   9.229   7.844  0.2680  1.0639 -0.1795
  291MOL0     C39204   5.721   9.331   7.930 -0.4985 -0.3048 -0.4333
  291MOL0     C39205   5.687   9.725   8.101 -0.6446  0.5117 -0.6302
  291MOL0     C39206   5.659   9.701   8.236  0.2024  0.2965  0.4832
  291MOL0     C39207   5.620   9.805   8.313  0.9589  0.1178 -0.0864
  291MOL0     C39208   5.620   9.940   8.267 -0.8818 -0.2587 -0.4429
  291MOL0     O39209   5.598  10.041   8.356  0.3976  0.2192 -0.0754
  291MOL0     C39210   5.543  10.168   8.320  0.1223 -0.1643  0.0887
  291MOL0     C39211   5.652  10.283   8.327 -1.0017  0.3417  0.4294
  291MOL0     C39212   5.720  10.303   8.468  0.9423 -0.1191 -0.5772
  291MOL0     C39213   5.799  10.436   8.474 -0.4999 -0.6797 -0.7283
  291MOL0     C39214   5.869  10.461   8.600 -0.0867 -0.3704 -0.3920
  291MOL0     C39215   5.923  10.486   8.709  0.9371 -0.8632  0.1377
  291MOL0     C39216   5.652   9.966   8.134  0.1735 -0.0509  0.9014
  291MOL0     C39217   5.684   9.858   8.055  0.6885  0.1632  0.3575
  291MOL0     H39218   5.473   9.498   7.797  0.2168  1.0177  1.8664
  291MOL0     H39219   5.486   9.304   7.626 -0.5072  0.4981  1.7758
  291MOL0     H39220   5.531   9.033   7.559  0.4469  0.5517  1.5380
  291MOL0     H39221   5.587   9.190   7.480 -0.8366 -0.1532 -1.8844
  291MOL0     H39222   5.606   9.040   7.323 -0.8963 -2.1884 -0.4109
  291MOL0     H39223   5.771   9.088   7.366  0.2832 -1.6077  1.0340
  291MOL0     H39224   5.659   8.818   7.483  0.5563  2.5808  3.2606
  291MOL0     H39225   5.705   8.816   7.318  0.9756 -2.1439  0.5313
  291MOL0     H39226   5.899   8.957   7.505  1.8285 -0.2426 -0.4140
  291MOL0     H39227   5.904   8.789   7.508  0.3549  2.0020  2.1042
  291MOL0     H39228   5.927   8.790   7.257 -3.5210  0.2891  1.4856
  291MOL0     H39229   5.983   8.955   7.264  4.5037 -0.9856 -0.8706
  291MOL0     H39230   6.147   8.891   7.450  1.5489  0.6874 -1.8196
  291MOL0     H39231   6.105   8.712   7.420  1.0119 -0.0789  0.2127
  291MOL0     H39232   6.246   8.898   7.228 -1.3629  0.6180  1.9621
  291MOL0     H39233   6.312   8.781   7.332 -0.4883 -4.3040  0.3986
  291MOL0     H39234   6.111   8.707   7.105  0.7588 -0.7812 -0.6348
  291MOL0     H39235   6.158   8.595   7.226 -1.9229  0.7021 -0.6640
  291MOL0     H39236   6.294   8.802   6.911  1.9239  2.9240  0.8121
  291MOL0     H39237   6.595   8.600   6.810 -0.9891 -0.4680  0.7214
  291MOL0     H39238   6.482   8.728   6.750  2.2338  0.4743 -1.5031
  291MOL0     H39239   6.749   8.766   6.832  0.9674 -0.0078  0.4109
  291MOL0     H39240   6.661   8.798   6.981 -1.8692  4.1778  0.5660
  291MOL0     H39241   6.705   8.999   6.864 -1.5664  0.8084  1.2772
  291MOL0     H39242   6.531   8.978   6.887 -1.9761 -3.9936 -1.4280
  291MOL0     H39243   6.515   8.927   6.636 -0.2774  1.9600 -3.7382
  291MOL0     H39244   6.683   8.897   6.626  0.3652 -0.3814  0.9396
  291MOL0     H39245   6.365   9.080   6.737 -0.8265 -1.2757 -0.6280
  291MOL0     H39246   6.181   9.192   6.829  0.2123  1.0235  0.2843
  291MOL0     H39247   6.143   9.344   6.763  1.6309  0.6918 -1.7648
  291MOL0     H39248   6.085   9.211   6.671 -0.9175  1.3849 -0.3446
  291MOL0     H39249   6.302   9.812   6.499  0.5021  4.2668 -1.1859
  291MOL0     H39250   6.194  10.007   6.380 -0.7849  0.3154 -1.3380
  291MOL0     H39251   6.019  10.154   6.302  0.0348  0.6730  0.2506
  291MOL0     H39252   6.117  10.116   6.159 -0.9682  0.1335 -1.2127
  291MOL0     H39253   5.975  10.274   6.105  3.0119 -1.1428 -0.6475
  291MOL0     H39254   5.964  10.131   6.002 -1.1107 -0.5174 -0.1244
  291MOL0     H39255   5.757  10.203   6.225 -1.9504  3.0328 -1.8145
  291MOL0     H39256   5.750  10.061   6.121  0.6211 -0.9317 -2.0400
  291MOL0     H39257   5.748  10.360   6.034  2.8349 -2.2467  2.1482
  291MOL0     H39258   5.725  10.221   5.925  0.1516  1.6483 -2.2832
  291MOL0     H39259   5.534  10.221   6.140 -0.9318  1.0533  0.8161
  291MOL0     H39260   5.536  10.163   5.975 -0.9244 -1.4273  0.8431
  291MOL0     H39261   5.483  10.450   6.069  0.2192  1.1430 -1.1316
  291MOL0     H39262   5.564  10.430   5.918 -2.0162 -0.3415 -3.5637
  291MOL0     H39263   5.309  10.473   5.890  0.7467 -0.8136 -2.8009
  291MOL0     H39264   5.277  10.318   5.958 -0.6664 -1.0426 -3.5941
  291MOL0     H39265   5.273  10.285   5.728  0.1503 -0.5708  1.6982
  291MOL0     H39266   5.404  10.196   5.779 -5.0458 -1.3826  1.8664
  291MOL0     H39267   5.942   9.740   6.169  0.4330 -0.9657 -1.0256
  291MOL0     H39268   6.085   9.534   6.253  3.4948 -0.7051 -0.1171
  291MOL0     H39269   6.472   9.427   6.405 -2.2588  1.4871  1.2645
  291MOL0     H39270   6.626   9.247   6.444 -2.8876 -1.6871 -3.2007
  291MOL0     H39271   5.805   9.143   7.843 -1.4979 -0.3926 -2.1313
  291MOL0     H39272   5.784   9.357   8.015  1.4958 -1.4688 -1.4758
  291MOL0     H39273   5.672   9.604   8.283 -1.3484 -0.0929  0.1601
  291MOL0     H39274   5.602   9.786   8.418 -1.1348  2.3914  0.0634
  291MOL0     H39275   5.488  10.164   8.226  1.8855  2.9255 -1.2326
  291MOL0     H39276   5.468  10.201   8.392 -0.2905 -0.2083 -0.3146
  291MOL0     H39277   5.606  10.375   8.289 -1.0896 -1.1750 -3.5262
  291MOL0     H39278   5.728  10.265   8.251 -1.4683 -0.2988  0.1105
  291MOL0     H39279   5.791  10.230   8.506 -1.4677 -1.4354  1.7328
  291MOL0     H39280   5.636  10.296   8.538  0.3570  0.8296 -1.1657
  291MOL0     H39281   5.725  10.515   8.458  0.8306  0.8213  0.2342
  291MOL0     H39282   5.876  10.430   8.397 -1.2632 -1.1135 -1.4781
  291MOL0     H39283   5.963  10.498   8.808  0.6322  0.6945  0.1007
  291MOL0     H39284   5.642  10.067   8.096 -1.1860  0.8345  3.3463
  291MOL0     H39285   5.691   9.874   7.948 -2.7947 -2.2316 -0.4139
  292MOL0     O39286   0.235   9.753   9.422  0.2462  0.2328 -0.3991
  292MOL0     C39287   0.303   9.770   9.320  0.1365  0.8306  0.7823
  292MOL0     O39288   0.397   9.870   9.301  0.9803 -0.1658 -0.0639
  292MOL0     C39289   0.493   9.887   9.395 -0.3625  0.4789  0.8245
  292MOL0     C39290   0.465   9.915   9.526  0.3781 -0.0252 -0.7610
  292MOL0     C39291   0.573   9.939   9.618  0.6660 -0.4521  1.0770
  292MOL0     C39292   0.705   9.953   9.576 -0.0556 -0.0897  0.1350
  292MOL0     O39293   0.805   9.986   9.664  0.0228 -0.8072  0.0443
  292MOL0     C39294   0.937   9.925   9.669 -0.2239 -1.1278  0.4220
  292MOL0     C39295   0.929   9.774   9.705 -0.0984  1.2913  0.1034
  292MOL0     C39296   1.056   9.709   9.747  0.5177 -0.0710  0.0961
  292MOL0     C39297   1.102   9.767   9.877  0.1658 -0.1041 -0.2507
  292MOL0     C39298   1.196   9.665   9.946 -0.0308 -0.7176 -0.2432
  292MOL0     C39299   1.294   9.741  10.040  0.8913 -0.3541  0.2416
  292MOL0     C39300   1.223   9.805  10.167 -0.1641 -0.7289  0.1081
  292MOL0     C39301   1.321   9.836  10.269 -0.1422  0.2083  0.9865
  292MOL0     N39302   1.395   9.723  10.313 -0.4374  0.4242 -0.3295
  292MOL0     C39303   1.533   9.709  10.293  0.0996 -1.0704  0.2962
  292MOL0     C39304   1.576   9.604  10.367  0.6712 -1.0235 -0.5354
  292MOL0     C39305   1.713   9.555  10.395 -0.2266 -0.7809 -0.5245
  292MOL0     C39306   1.790   9.653  10.484 -0.0271  0.5092 -0.4843
  292MOL0     C39307   1.741   9.644  10.629 -0.0401  0.9073 -0.9207
  292MOL0     C39308   1.785   9.523  10.707  0.8645 -0.0913 -0.1521
  292MOL0     O39309   1.749   9.572  10.841 -0.1553 -0.1686 -0.1729
  292MOL0     C39310   1.688   9.476  10.925 -0.1233 -0.1346  0.9365
  292MOL0     C39311   1.752   9.356  10.952  0.4469  0.5191 -0.4065
  292MOL0     C39312   1.686   9.259  11.031 -0.8927  0.4017  0.2482
  292MOL0     C39313   1.736   9.120  11.025 -0.3423 -0.2140  0.8243
  292MOL0     C39314   1.570   9.281  11.106  0.4292 -0.3841  0.2963
  292MOL0     C39315   1.509   9.183  11.203  0.6778  0.0482  0.3835
  292MOL0     O39316   1.378   9.189  11.228 -0.0054 -0.9786  0.0409
  292MOL0     C39317   1.335   9.125  11.346 -0.4358  0.7832  0.0080
  292MOL0     C39318   1.345   8.975  11.367  0.0810 -0.2588 -0.2595
  292MOL0     C39319   1.310   8.921  11.493  0.1221 -0.8353 -0.1383
  292MOL0     C39320   1.263   9.008  11.589 -0.0782 -0.5070 -0.1353
  292MOL0     O39321   1.213   8.961  11.709 -0.4169 -0.3715  0.0478
  292MOL0     C39322   1.181   8.818  11.728  1.1407 -0.0114  0.3499
  292MOL0     C39323   1.128   8.797  11.874  0.0936 -0.1548 -0.2184
  292MOL0     C39324   1.242   8.779  11.978 -0.6369 -0.0139  0.5721
  292MOL0     C39325   1.195   8.710  12.107 -0.0265  0.3858 -0.7964
  292MOL0     C39326   1.191   8.562  12.103  0.0378  1.1517  0.1230
  292MOL0     C39327   1.169   8.501  12.241 -0.2959  0.0349 -0.1947
  292MOL0     C39328   1.028   8.513  12.294  0.5603  0.3125  0.3434
  292MOL0     C39329   0.994   8.387  12.367  1.1060 -0.3790 -0.2617
  292MOL0    Cl39330   0.945   8.245  12.262  0.2701 -0.1508  0.0268
  292MOL0     C39331   1.231   9.143  11.566  0.9277  1.0734 -0.8130
  292MOL0     C39332   1.266   9.190  11.441  0.9834  0.5154 -0.5919
  292MOL0     O39333   1.590   9.114  11.266  0.5395 -0.2358 -0.4104
  292MOL0     C39334   1.511   9.406  11.082 -1.2245 -0.9494 -0.3094
  292MOL0     C39335   1.564   9.497  10.986  0.1190  0.5862  0.9154
  292MOL0     N39336   1.468   9.540  10.427  0.2639 -0.8646  0.2367
  292MOL0     N39337   1.366   9.615  10.396  0.5412  0.2756  0.4233
  292MOL0     C39338   0.733   9.939   9.439 -0.1514  0.0408 -0.7943
  292MOL0     C39339   0.630   9.901   9.345  1.0115 -0.3369 -0.3834
  292MOL0     C39340   0.259   9.709   9.188 -0.1243 -0.1549 -1.1869
  292MOL0     C39341   0.184   9.586   9.203 -1.0373 -0.8442  1.1064
  292MOL0     C39342   0.131   9.529   9.090 -0.7767 -0.1750 -0.5745
  292MOL0     C39343   0.169   9.571   8.966  1.3788  0.2891 -0.3274
  292MOL0     O39344   0.110   9.495   8.870  0.2677 -0.0454 -0.3041
  292MOL0     C39345   0.125   9.513   8.724  0.1519 -0.0253  0.2682
  292MOL0     C39346   0.001   9.601   8.684 -0.3160 -0.0433 -0.3469
  292MOL0     C39347   0.002   9.748   8.717  0.1834 -0.6399  0.5171
  292MOL0     C39348  -0.131   9.807   8.670 -0.6051 -0.0199  0.1811
  292MOL0     C39349  -0.139   9.951   8.707  0.0854 -0.3721 -0.5752
  292MOL0     C39350  -0.154  10.067   8.738  0.3978 -1.1216  0.0102
  292MOL0     C39351   0.256   9.682   8.944  0.7119 -0.2961  0.1136
  292MOL0     C39352   0.300   9.749   9.060  0.0679 -0.0459 -0.0585
  292MOL0     H39353   0.367   9.899   9.570 -0.7768 -1.6173 -3.6512
  292MOL0     H39354   0.535   9.949   9.720 -2.5283 -1.2055  0.0664
  292MOL0     H39355   0.993   9.944   9.577  1.2154 -1.8103  1.1309
  292MOL0     H39356   0.975   9.989   9.750 -4.7722  2.1041  0.4197
  292MOL0     H39357   0.856   9.767   9.786 -1.1040 -1.3729 -0.9117
  292MOL0     H39358   0.892   9.730   9.612 -1.8118  4.4654 -0.8769
  292MOL0     H39359   1.047   9.601   9.754 -5.3984 -0.0893 -1.6033
  292MOL0     H39360   1.125   9.714   9.663  2.1793 -2.6008  1.2115
  292MOL0     H39361   1.148   9.864   9.855 -0.7274  0.8924  1.9880
  292MOL0     H39362   1.020   9.783   9.947  0.8618  0.4096  0.4661
  292MOL0     H39363   1.139   9.587   9.998  0.9583 -0.4600  1.2873
  292MOL0     H39364   1.256   9.622   9.866 -1.1150 -0.7401 -1.0681
  292MOL0     H39365   1.376   9.677  10.076  1.2917  1.5571  3.0343
  292MOL0     H39366   1.340   9.819   9.979 -0.9777  0.5129 -0.1041
  292MOL0     H39367   1.167   9.896  10.141 -0.3918 -0.9522 -0.1836
  292MOL0     H39368   1.159   9.736  10.222  0.6651 -0.1695  1.8775
  292MOL0     H39369   1.275   9.883  10.357 -2.2951 -1.1707  0.6748
  292MOL0     H39370   1.396   9.903  10.227  0.6146  0.1556  2.1822
  292MOL0     H39371   1.596   9.777  10.237 -1.7135  0.2417 -0.2599
  292MOL0     H39372   1.713   9.458  10.445 -2.9286 -0.8082 -0.4584
  292MOL0     H39373   1.762   9.563  10.297  0.9232  1.4957  0.1593
  292MOL0     H39374   1.776   9.758  10.458 -0.9302  0.7757  0.9998
  292MOL0     H39375   1.893   9.617  10.482 -0.7136 -1.6161 -1.0956
  292MOL0     H39376   1.632   9.649  10.628 -0.2197 -1.5943 -0.7282
  292MOL0     H39377   1.774   9.733  10.683 -0.0621 -0.3295  1.2589
  292MOL0     H39378   1.894   9.511  10.695  0.7257  0.4687 -2.5524
  292MOL0     H39379   1.725   9.435  10.683 -1.5182  1.4604 -0.1508
  292MOL0     H39380   1.841   9.340  10.892  1.9574  0.9582  1.6040
  292MOL0     H39381   1.790   9.107  10.931 -1.5150  1.7759 -0.2104
  292MOL0     H39382   1.806   9.117  11.109  0.8836 -0.4557 -0.1902
  292MOL0     H39383   1.654   9.048  11.031 -0.7198 -0.0221 -1.2730
  292MOL0     H39384   1.393   8.920  11.286 -0.1957 -2.1063  0.7745
  292MOL0     H39385   1.332   8.815  11.507  2.3335 -0.4295 -0.0627
  292MOL0     H39386   1.106   8.785  11.656  0.0692 -2.5403  2.4186
  292MOL0     H39387   1.274   8.760  11.723  0.7996 -0.4662 -1.2036
  292MOL0     H39388   1.065   8.879  11.908  1.4427  2.0320 -2.6128
  292MOL0     H39389   1.066   8.707  11.872  0.3271 -0.3273  0.1676
  292MOL0     H39390   1.278   8.879  12.003  0.3737 -0.6217  1.6774
  292MOL0     H39391   1.335   8.732  11.943  0.1261  2.0764 -0.3933
  292MOL0     H39392   1.263   8.748  12.183 -0.6792 -1.0395  0.5627
  292MOL0     H39393   1.097   8.748  12.136 -0.0565 -0.0041 -0.3745
  292MOL0     H39394   1.275   8.507  12.059 -0.5123 -0.2295  0.7467
  292MOL0     H39395   1.109   8.522  12.042  1.6552  1.1677 -2.1865
  292MOL0     H39396   1.199   8.396  12.234  0.7994  0.4199 -2.8585
  292MOL0     H39397   1.236   8.549  12.313 -0.6782  2.9161 -1.5850
  292MOL0     H39398   0.959   8.515  12.209  0.6019  0.9712  0.3178
  292MOL0     H39399   1.010   8.608  12.346  1.4645 -0.8114  2.8539
  292MOL0     H39400   0.905   8.405  12.429  0.0496  1.4750 -2.1578
  292MOL0     H39401   1.074   8.346  12.429  2.5730 -0.1388 -1.9051
  292MOL0     H39402   1.148   9.187  11.621  0.6472  0.1983 -0.5085
  292MOL0     H39403   1.235   9.289  11.408  0.1926  0.1556 -0.9469
  292MOL0     H39404   1.417   9.420  11.136 -2.4025 -0.0286 -2.4617
  292MOL0     H39405   1.499   9.573  10.946 -2.4224 -2.0246 -0.2929
  292MOL0     H39406   0.831   9.970   9.404  1.7772 -0.8083  3.2099
  292MOL0     H39407   0.636   9.893   9.237 -1.8087 -0.5280 -0.6046
  292MOL0     H39408   0.149   9.552   9.300 -2.3473 -2.2624  0.2097
  292MOL0     H39409   0.079   9.434   9.098  1.9273 -1.7834 -0.6360
  292MOL0     H39410   0.216   9.568   8.697  1.0974 -1.2317  0.9159
  292MOL0     H39411   0.116   9.412   8.684  2.4764 -1.6174  3.3485
  292MOL0     H39412  -0.087   9.555   8.731  0.2099 -0.2456  0.4460
  292MOL0     H39413  -0.014   9.590   8.576 -2.1190 -0.7759 -0.0709
  292MOL0     H39414   0.091   9.794   8.673  0.1148  3.4217  4.0080
  292MOL0     H39415   0.018   9.767   8.823  0.8339 -0.7346  0.4399
  292MOL0     H39416  -0.202   9.752   8.732  1.7164 -1.1481  1.9811
  292MOL0     H39417  -0.148   9.788   8.563 -0.6552  0.9076  0.0118
  292MOL0     H39418  -0.157  10.171   8.763  1.1219 -1.0467 -0.1836
  292MOL0     H39419   0.297   9.698   8.845  1.9370 -0.3873  0.5762
  292MOL0     H39420   0.359   9.838   9.045 -2.1898  1.0948 -2.9837
  293MOL0     O39421   1.435  10.937   3.583  0.5038  0.6512  0.5927
  293MOL0     C39422   1.525  11.011   3.565 -0.5647  0.2809  0.5335
  293MOL0     O39423   1.521  11.150   3.540  0.1297  0.8984  0.0285
  293MOL0     C39424   1.402  11.219   3.533 -0.4545  0.0643  0.2980
  293MOL0     C39425   1.283  11.158   3.496  1.1652  0.0462  0.3687
  293MOL0     C39426   1.176  11.242   3.456  0.0429  1.1483  0.1639
  293MOL0     C39427   1.178  11.377   3.452 -0.3484 -0.3895 -0.2522
  293MOL0     O39428   1.063  11.437   3.403 -0.3322 -0.2704 -0.1887
  293MOL0     C39429   1.067  11.567   3.334  0.7404 -0.4769 -0.2317
  293MOL0     C39430   0.972  11.657   3.411  0.6213 -0.2804 -0.2527
  293MOL0     C39431   1.016  11.654   3.560 -0.4585 -0.1410 -0.3951
  293MOL0     C39432   0.911  11.755   3.618  0.0964  0.3544 -0.2996
  293MOL0     C39433   0.923  11.796   3.766 -0.7247 -0.7859  0.3560
  293MOL0     C39434   1.051  11.871   3.798  0.3545 -0.1518 -0.7249
  293MOL0     C39435   1.081  11.895   3.949 -0.9570 -0.9522  0.0771
  293MOL0     C39436   1.172  11.797   4.027  0.9608  0.2150 -0.1191
  293MOL0     N39437   1.140  11.657   4.000 -0.5678 -0.0471 -1.0886
  293MOL0     C39438   1.218  11.579   3.925 -0.0846  0.7090  0.2691
  293MOL0     C39439   1.137  11.473   3.903  0.0168  0.6327  0.6181
  293MOL0     C39440   1.173  11.356   3.825  0.2909  0.1291 -0.4965
  293MOL0     C39441   1.296  11.289   3.862  0.0330 -0.1173  0.2714
  293MOL0     C39442   1.277  11.213   3.997  0.7418  0.7304 -0.5795
  293MOL0     C39443   1.409  11.132   4.031  1.0789 -0.3906 -0.9800
  293MOL0     O39444   1.524  11.214   4.042 -0.0498  0.0634  0.0931
  293MOL0     C39445   1.551  11.274   4.167 -0.1199 -0.1674  0.5292
  293MOL0     C39446   1.582  11.204   4.276  0.1012  0.7531 -0.2772
  293MOL0     C39447   1.590  11.265   4.399 -0.4400 -0.5021 -1.0582
  293MOL0     C39448   1.593  11.186   4.528  0.4767 -0.0212  0.2125
  293MOL0     C39449   1.580  11.407   4.413  0.3412 -0.3230  0.3234
  293MOL0     C39450   1.590  11.492   4.535  0.5975  0.2917  0.4272
  293MOL0     O39451   1.514  11.606   4.552 -0.1057 -0.3462  0.7325
  293MOL0     C39452   1.381  11.585   4.556  0.0694 -0.0835  0.7653
  293MOL0     C39453   1.297  11.650   4.475  0.1479 -0.2002 -0.7086
  293MOL0     C39454   1.156  11.631   4.490 -0.2959 -0.5857 -0.6376
  293MOL0     C39455   1.105  11.561   4.602 -0.6972  0.8052  0.3922
  293MOL0     O39456   0.975  11.553   4.650 -0.3952 -1.0199  0.5488
  293MOL0     C39457   0.886  11.659   4.619  0.1242  0.2297 -0.0171
  293MOL0     C39458   0.899  11.771   4.729 -0.6710 -0.0462  0.7249
  293MOL0     C39459   1.034  11.848   4.714  0.0979 -0.3648  0.0323
  293MOL0     C39460   1.030  11.964   4.815  0.0832 -0.3706  0.1942
  293MOL0     C39461   1.155  12.054   4.800  0.0850 -0.1883 -0.2995
  293MOL0     C39462   1.184  12.106   4.661  0.3779  0.0644 -0.1378
  293MOL0     C39463   1.308  12.197   4.659 -0.4675 -0.6466 -0.0319
  293MOL0     C39464   1.436  12.124   4.715  0.6688  0.1094  0.1195
  293MOL0    Cl39465   1.570  12.232   4.699  0.0738  0.4049  0.2540
  293MOL0     C39466   1.199  11.497   4.679 -0.5976  1.2053 -0.4478
  293MOL0     C39467   1.338  11.504   4.661 -0.2127  1.2069 -0.9015
  293MOL0     O39468   1.685  11.463   4.613  0.5136  0.9244  0.0394
  293MOL0     C39469   1.560  11.477   4.295 -0.3378 -0.4647  0.4111
  293MOL0     C39470   1.547  11.409   4.172  0.6458 -0.0812 -0.5279
  293MOL0     N39471   1.023  11.477   3.980 -0.1995 -0.6810 -0.3636
  293MOL0     N39472   1.028  11.591   4.048  0.4529  0.5932  0.0456
  293MOL0     C39473   1.295  11.441   3.502  0.6206 -0.1157  0.6279
  293MOL0     C39474   1.414  11.363   3.525 -0.3870 -1.0081 -0.1661
  293MOL0     C39475   1.653  10.945   3.565 -0.8491 -0.3864  0.1016
  293MOL0     C39476   1.770  11.006   3.503  0.4597 -0.3716 -1.0196
  293MOL0     C39477   1.894  10.944   3.502  1.0892 -1.0233 -0.1337
  293MOL0     C39478   1.911  10.827   3.577  0.8745 -0.7383 -0.9205
  293MOL0     O39479   2.038  10.766   3.598 -0.5863  0.3276 -0.6204
  293MOL0     C39480   2.155  10.841   3.552 -0.2466 -0.7194 -0.0334
  293MOL0     C39481   2.284  10.766   3.589 -0.0357  0.1282 -0.5214
  293MOL0     C39482   2.322  10.648   3.505  0.2233  0.1102  0.2417
  293MOL0     C39483   2.252  10.517   3.523  0.4925 -0.1657  0.5623
  293MOL0     C39484   2.299  10.448   3.648  0.3485  1.5409 -0.2408
  293MOL0     C39485   2.327  10.367   3.738 -0.6934  0.6620  0.0033
  293MOL0     C39486   1.807  10.771   3.642  0.5612  0.9640  0.2085
  293MOL0     C39487   1.677  10.822   3.638  0.3194 -0.2897  0.0503
  293MOL0     H39488   1.248  11.056   3.508  0.0007  0.4323  0.3102
  293MOL0     H39489   1.082  11.193   3.433  0.5020  0.6087 -0.6279
  293MOL0     H39490   1.164  11.618   3.343 -0.1867  1.2540  0.5266
  293MOL0     H39491   1.034  11.558   3.230 -1.3999 -3.5876  0.5883
  293MOL0     H39492   0.975  11.750   3.354 -1.4187  1.4391  2.2264
  293MOL0     H39493   0.872  11.615   3.395  0.4551 -0.2426  0.6145
  293MOL0     H39494   1.000  11.556   3.606 -2.9369  0.6979  0.7331
  293MOL0     H39495   1.119  11.692   3.561 -0.3615 -0.2998 -1.9305
  293MOL0     H39496   0.923  11.853   3.571 -1.1681  0.4369 -0.4948
  293MOL0     H39497   0.808  11.720   3.602  0.3447 -0.7105  0.3666
  293MOL0     H39498   0.840  11.855   3.806  0.7410  1.4677  0.3031
  293MOL0     H39499   0.925  11.701   3.820  0.5828 -0.8170  0.2801
  293MOL0     H39500   1.133  11.817   3.749  0.2638 -1.2100  0.2551
  293MOL0     H39501   1.042  11.969   3.750 -0.4690  0.0619 -0.1518
  293MOL0     H39502   1.132  11.991   3.964  0.8344 -1.5660 -1.5416
  293MOL0     H39503   0.986  11.914   3.998 -0.2770  3.0541  0.2009
  293MOL0     H39504   1.168  11.808   4.135  0.0686  0.6958 -0.1928
  293MOL0     H39505   1.271  11.824   3.991  0.3740  0.1147 -1.9642
  293MOL0     H39506   1.311  11.600   3.872 -0.3432 -0.9569 -0.9269
  293MOL0     H39507   1.088  11.288   3.833  0.3878 -0.0322 -0.8124
  293MOL0     H39508   1.176  11.395   3.722  0.3143 -0.8939 -0.8911
  293MOL0     H39509   1.381  11.357   3.869 -0.9934  1.0626  1.7246
  293MOL0     H39510   1.309  11.210   3.787 -2.9937  1.0691 -1.6755
  293MOL0     H39511   1.184  11.155   3.996  1.0098  0.2899 -0.2636
  293MOL0     H39512   1.272  11.288   4.077  1.7788  1.5888 -1.2936
  293MOL0     H39513   1.414  11.044   3.967 -2.8990 -1.3854 -0.1997
  293MOL0     H39514   1.396  11.088   4.131  2.3424 -2.1943 -1.5446
  293MOL0     H39515   1.595  11.096   4.273  1.7453  0.9223 -0.3624
  293MOL0     H39516   1.561  11.247   4.614  0.7830  0.7527 -0.2099
  293MOL0     H39517   1.520  11.105   4.514  0.8868 -0.6903  1.7376
  293MOL0     H39518   1.690  11.144   4.554 -0.4418 -2.4822 -0.0803
  293MOL0     H39519   1.326  11.720   4.398 -1.4726 -0.9183 -2.0339
  293MOL0     H39520   1.083  11.684   4.429 -0.3909 -2.3757 -2.1798
  293MOL0     H39521   0.907  11.698   4.519  0.7976  0.3266  0.1619
  293MOL0     H39522   0.782  11.625   4.629  0.0057  1.0729  2.1034
  293MOL0     H39523   0.814  11.837   4.709  0.2797  0.7010 -1.0661
  293MOL0     H39524   0.891  11.727   4.829 -3.6185 -2.0335 -0.2609
  293MOL0     H39525   1.036  11.884   4.611 -1.4514 -2.8907 -0.9835
  293MOL0     H39526   1.119  11.783   4.732  0.9815  0.8656  0.4198
  293MOL0     H39527   0.947  12.031   4.792 -0.3945 -0.3629  1.8213
  293MOL0     H39528   1.017  11.922   4.915 -1.8328  3.3053  1.7080
  293MOL0     H39529   1.244  11.993   4.821  0.8557  0.8204 -0.5089
  293MOL0     H39530   1.137  12.135   4.872 -2.7211 -1.1714  0.2282
  293MOL0     H39531   1.203  12.016   4.602 -1.2932 -3.2850  3.9428
  293MOL0     H39532   1.099  12.161   4.619 -0.9914 -3.1605 -1.8953
  293MOL0     H39533   1.288  12.289   4.714  0.7202 -0.9515  0.9484
  293MOL0     H39534   1.327  12.223   4.554  3.4619  0.4121  0.7884
  293MOL0     H39535   1.446  12.027   4.664  0.4702 -0.9183  1.9431
  293MOL0     H39536   1.428  12.091   4.819  0.4157  4.7174  1.7676
  293MOL0     H39537   1.159  11.449   4.768  1.1558 -2.0588 -1.2826
  293MOL0     H39538   1.402  11.462   4.738 -0.9649  1.0241 -0.3679
  293MOL0     H39539   1.549  11.583   4.279  3.0034 -0.1849 -0.7598
  293MOL0     H39540   1.541  11.460   4.077 -1.4254 -2.4257 -1.7944
  293MOL0     H39541   1.288  11.548   3.518  3.9731  0.2039  0.5467
  293MOL0     H39542   1.513  11.400   3.548 -0.4057 -0.3870 -1.0444
  293MOL0     H39543   1.746  11.100   3.454  0.8391 -0.1495 -0.7812
  293MOL0     H39544   1.979  10.993   3.455  1.2859 -2.5588 -1.5004
  293MOL0     H39545   2.136  10.837   3.444  0.2014 -2.7798 -0.0687
  293MOL0     H39546   2.165  10.942   3.592  2.4262 -0.3876 -1.3077
  293MOL0     H39547   2.275  10.738   3.694 -0.7206 -3.1191 -1.3298
  293MOL0     H39548   2.368  10.836   3.584  2.0238 -2.1004  0.9376
  293MOL0     H39549   2.431  10.640   3.514  0.0722 -1.8478  0.8805
  293MOL0     H39550   2.309  10.676   3.400  2.8897 -1.9157 -0.7588
  293MOL0     H39551   2.264  10.447   3.440  1.2892  0.7513 -0.1217
  293MOL0     H39552   2.144  10.530   3.532  0.3911 -0.1361 -0.5998
  293MOL0     H39553   2.360  10.291   3.805  1.1778 -0.2418 -1.8034
  293MOL0     H39554   1.830  10.681   3.698  3.9638 -0.2688 -2.7501
  293MOL0     H39555   1.594  10.777   3.692  0.5995  0.5054  1.1792
  294MOL0     O39556   9.688   4.076   3.708 -0.2789  0.0932 -0.8751
  294MOL0     C39557   9.771   4.072   3.623  0.3797 -0.5719  0.0438
  294MOL0     O39558   9.882   4.157   3.618 -0.1724 -0.3298  0.1223
  294MOL0     C39559   9.910   4.236   3.732 -0.7303 -0.2908 -0.6473
  294MOL0     C39560   9.908   4.380   3.737  0.2658 -0.3148  0.2989
  294MOL0     C39561   9.948   4.452   3.849  0.2858  0.3087 -0.4806
  294MOL0     C39562   9.995   4.387   3.963  0.4817  0.6915  0.2645
  294MOL0     O39563  10.040   4.465   4.059  0.2616 -0.1233  0.8517
  294MOL0     C39564   9.986   4.431   4.192  0.1141 -0.1802 -0.5541
  294MOL0     C39565   9.983   4.542   4.302 -0.7772  0.1502  0.3072
  294MOL0     C39566   9.898   4.661   4.284 -0.5714 -1.3772 -0.3956
  294MOL0     C39567   9.892   4.732   4.423  1.1097 -0.6681  0.1742
  294MOL0     C39568   9.846   4.883   4.397  0.6275  0.7435  0.0940
  294MOL0     C39569   9.687   4.887   4.383  0.6295  0.0994 -0.2185
  294MOL0     C39570   9.631   5.014   4.324 -0.0013  0.0250  0.4027
  294MOL0     C39571   9.660   5.145   4.407  0.2519  0.7039 -0.3941
  294MOL0     N39572   9.618   5.139   4.549  0.6204 -0.9481  0.0969
  294MOL0     C39573   9.692   5.169   4.656  0.3233 -0.8461 -0.2237
  294MOL0     C39574   9.607   5.206   4.753  0.0061 -0.9476 -0.2224
  294MOL0     C39575   9.643   5.281   4.883  0.6098 -0.2619  0.6990
  294MOL0     C39576   9.639   5.436   4.836  1.2521 -0.3380 -0.5643
  294MOL0     C39577   9.647   5.524   4.956 -0.1583 -0.3005  0.1179
  294MOL0     C39578   9.639   5.671   4.913  0.5155  0.3318 -0.4356
  294MOL0     O39579   9.657   5.747   5.030 -0.5657 -0.0827 -0.1237
  294MOL0     C39580   9.559   5.756   5.129  0.1770 -0.5313 -0.3959
  294MOL0     C39581   9.605   5.837   5.231  0.0735 -0.7972 -0.8516
  294MOL0     C39582   9.525   5.860   5.354 -1.3357  0.0015  0.2838
  294MOL0     C39583   9.594   5.911   5.473 -0.3472 -0.2481 -0.2356
  294MOL0     C39584   9.410   5.786   5.370 -1.0506  0.7587  0.2529
  294MOL0     C39585   9.335   5.782   5.503 -0.9013 -0.3135  0.1276
  294MOL0     O39586   9.370   5.848   5.624 -0.2467 -0.4688 -0.0881
  294MOL0     C39587   9.268   5.863   5.719 -0.2953 -0.3844  1.1018
  294MOL0     C39588   9.261   5.764   5.827 -0.3198 -0.2264  0.3378
  294MOL0     C39589   9.161   5.791   5.926 -0.6948 -0.1379  0.0532
  294MOL0     C39590   9.073   5.902   5.918  0.2835  0.4353 -0.6326
  294MOL0     O39591   8.966   5.922   6.002 -0.3586 -0.6993 -0.0301
  294MOL0     C39592   8.965   5.851   6.120 -0.5171  0.0697  0.1852
  294MOL0     C39593   8.862   5.909   6.212  0.9869  0.8004 -0.3217
  294MOL0     C39594   8.896   6.040   6.271  0.5130 -0.4233 -0.5036
  294MOL0     C39595   8.888   6.161   6.178  0.3519 -0.4283 -0.0756
  294MOL0     C39596   8.902   6.314   6.222  1.3932 -1.2145 -0.7396
  294MOL0     C39597   8.823   6.416   6.139  0.2154  0.2107  0.3897
  294MOL0     C39598   8.670   6.400   6.127  0.7061 -0.2593  0.3750
  294MOL0     C39599   8.601   6.478   6.238  0.0072  0.5597 -0.8262
  294MOL0    Cl39600   8.659   6.432   6.403 -0.0128 -0.3878  0.0993
  294MOL0     C39601   9.073   5.986   5.807  0.3358  0.4760  0.4800
  294MOL0     C39602   9.170   5.964   5.705  1.3904 -1.1006  0.5511
  294MOL0     O39603   9.240   5.701   5.499  0.0290  0.5522  0.5492
  294MOL0     C39604   9.359   5.713   5.261 -0.4100 -0.4304 -0.7651
  294MOL0     C39605   9.431   5.702   5.144 -0.7362 -0.1887 -0.0810
  294MOL0     N39606   9.474   5.189   4.706 -0.1833  0.0077 -0.8072
  294MOL0     N39607   9.493   5.139   4.588  0.7911 -0.1501  0.4188
  294MOL0     C39608  10.003   4.255   3.971  0.5375  0.9702  0.6127
  294MOL0     C39609   9.965   4.176   3.850  0.8507 -0.4227 -0.6597
  294MOL0     C39610   9.750   4.010   3.493 -0.5523  0.8196  0.4227
  294MOL0     C39611   9.677   3.888   3.490 -1.1649  0.0558  0.7863
  294MOL0     C39612   9.653   3.828   3.360 -0.0959  0.2729 -0.1892
  294MOL0     C39613   9.684   3.901   3.241 -0.3331 -0.4746 -0.2378
  294MOL0     O39614   9.662   3.842   3.121 -0.1329  0.2929 -0.5741
  294MOL0     C39615   9.611   3.921   3.014  0.1296  0.0904  0.4766
  294MOL0     C39616   9.724   3.945   2.917 -0.7029  0.2092  0.4430
  294MOL0     C39617   9.670   4.048   2.805  0.1703  0.4257  0.6712
  294MOL0     C39618   9.750   4.052   2.680  0.4420 -0.2386 -0.4088
  294MOL0     C39619   9.701   4.142   2.575 -0.6891 -0.7888  1.2700
  294MOL0     C39620   9.664   4.234   2.494  0.3023  0.7396 -0.1919
  294MOL0     C39621   9.751   4.025   3.247 -0.9210  0.7973 -0.2898
  294MOL0     C39622   9.780   4.080   3.374 -0.0994  0.6623  0.3636
  294MOL0     H39623   9.861   4.419   3.647  1.8179 -0.5662 -0.6519
  294MOL0     H39624   9.940   4.560   3.847  1.1447  0.3707 -0.6362
  294MOL0     H39625   9.878   4.415   4.177  0.1304  0.5908 -1.6715
  294MOL0     H39626  10.039   4.347   4.236 -1.1652 -1.2532 -0.9716
  294MOL0     H39627   9.951   4.484   4.389  2.6648 -0.7383  1.1207
  294MOL0     H39628  10.072   4.581   4.350  0.1857  1.0247 -2.0383
  294MOL0     H39629   9.933   4.718   4.197  1.0695 -0.2079  0.9694
  294MOL0     H39630   9.795   4.627   4.273 -0.4884 -1.6818 -0.2317
  294MOL0     H39631   9.806   4.695   4.480 -2.1235  0.1105 -3.7322
  294MOL0     H39632   9.985   4.743   4.481 -0.2409 -0.9474  2.5190
  294MOL0     H39633   9.873   4.939   4.486  2.3621 -0.1203  0.1505
  294MOL0     H39634   9.890   4.928   4.308  0.4916  2.2895  0.7686
  294MOL0     H39635   9.654   4.808   4.314  0.1595  1.3391 -1.4585
  294MOL0     H39636   9.644   4.872   4.482  1.7670 -1.4144  0.0789
  294MOL0     H39637   9.681   5.023   4.227  3.2476  0.6790  1.9826
  294MOL0     H39638   9.523   5.008   4.308  0.0059  0.3717  0.2173
  294MOL0     H39639   9.607   5.236   4.377  0.2127  1.0525  0.6795
  294MOL0     H39640   9.768   5.156   4.406  0.2017  1.1954 -2.0329
  294MOL0     H39641   9.799   5.191   4.655 -0.0821  1.3803 -1.4531
  294MOL0     H39642   9.571   5.259   4.962 -1.0505  1.3569 -0.2882
  294MOL0     H39643   9.742   5.255   4.922  1.0151 -0.1234 -0.2269
  294MOL0     H39644   9.540   5.458   4.796  0.8356  2.3291  1.6032
  294MOL0     H39645   9.727   5.463   4.777  2.0127 -0.3887  0.5104
  294MOL0     H39646   9.738   5.512   5.015  1.9546 -1.7002 -3.1807
  294MOL0     H39647   9.565   5.500   5.025  0.8382  1.6979  2.1246
  294MOL0     H39648   9.548   5.696   4.857  0.5916 -2.5111 -2.0772
  294MOL0     H39649   9.726   5.692   4.849  2.6844  2.2196  2.8358
  294MOL0     H39650   9.698   5.893   5.229 -0.6662  0.5358  0.1400
  294MOL0     H39651   9.618   5.840   5.553  2.7139  0.5231 -0.3568
  294MOL0     H39652   9.693   5.953   5.453 -0.9812  0.6750 -1.6376
  294MOL0     H39653   9.539   6.001   5.505 -1.4164 -0.2879 -1.8605
  294MOL0     H39654   9.327   5.679   5.820  0.1356  0.2270 -1.1834
  294MOL0     H39655   9.145   5.728   6.013 -0.3200 -1.7442 -1.0113
  294MOL0     H39656   8.935   5.747   6.103 -2.0863  0.3807  0.8494
  294MOL0     H39657   9.062   5.868   6.167 -1.4490  2.4590  1.4791
  294MOL0     H39658   8.777   5.910   6.143  2.6225 -0.5447 -2.4871
  294MOL0     H39659   8.836   5.852   6.301 -1.6959  2.3353  0.0138
  294MOL0     H39660   9.001   6.033   6.301  1.0650 -1.4983 -2.5263
  294MOL0     H39661   8.828   6.069   6.352 -2.2745 -1.5001 -2.2890
  294MOL0     H39662   8.955   6.151   6.092  1.8436 -1.6770  1.1760
  294MOL0     H39663   8.789   6.155   6.132 -1.6595  0.5182  3.7444
  294MOL0     H39664   9.004   6.352   6.228  1.1618 -0.8093  3.0296
  294MOL0     H39665   8.874   6.318   6.328 -0.2518  0.1459 -1.1794
  294MOL0     H39666   8.862   6.516   6.159 -1.0338  1.2768 -2.0201
  294MOL0     H39667   8.854   6.403   6.035 -0.0283  1.9390  0.0679
  294MOL0     H39668   8.634   6.298   6.139  2.0682 -0.9535 -1.0818
  294MOL0     H39669   8.642   6.441   6.030 -2.1129 -1.0638  0.7525
  294MOL0     H39670   8.493   6.464   6.230  0.2264 -1.3154 -0.9159
  294MOL0     H39671   8.622   6.585   6.230  1.0101  0.4953  0.5834
  294MOL0     H39672   8.999   6.065   5.803 -2.0200 -1.5814  0.8052
  294MOL0     H39673   9.177   6.033   5.621  0.8820 -1.4259  0.2349
  294MOL0     H39674   9.268   5.653   5.265 -1.9345  1.5477 -2.7177
  294MOL0     H39675   9.384   5.631   5.078 -0.2559 -2.1146  1.5438
  294MOL0     H39676  10.061   4.218   4.055  3.6673 -0.1042 -1.8102
  294MOL0     H39677   9.983   4.069   3.851  1.0913 -0.5536 -4.4564
  294MOL0     H39678   9.643   3.834   3.578 -2.0157 -2.0813 -0.7590
  294MOL0     H39679   9.630   3.723   3.349  1.2149 -0.1698  0.9721
  294MOL0     H39680   9.535   3.864   2.961 -1.4634  1.2227  1.4728
  294MOL0     H39681   9.562   4.011   3.053  1.1737 -0.3481  2.9773
  294MOL0     H39682   9.751   3.850   2.870  1.0183  2.0031 -2.5009
  294MOL0     H39683   9.812   3.981   2.970  0.3212 -0.0908 -0.9834
  294MOL0     H39684   9.681   4.144   2.856  1.4877 -0.0698  1.3564
  294MOL0     H39685   9.569   4.021   2.771  0.3605 -0.4286  0.7439
  294MOL0     H39686   9.766   3.952   2.640 -0.6334 -0.2832 -0.7629
  294MOL0     H39687   9.849   4.086   2.709 -1.0105  2.3024  2.0625
  294MOL0     H39688   9.621   4.302   2.423 -2.9901 -0.1109  0.7955
  294MOL0     H39689   9.784   4.080   3.159  0.4241  0.3709 -0.0723
  294MOL0     H39690   9.836   4.173   3.379 -0.2845  0.7175  1.9542
  295MOL0     O39691   8.750   1.555   9.165  0.1600 -0.6435  1.0807
  295MOL0     C39692   8.731   1.489   9.062 -0.0686 -0.7848 -0.5708
  295MOL0     O39693   8.612   1.432   9.022 -0.3514  0.4476 -0.7026
  295MOL0     C39694   8.489   1.442   9.082 -0.1017  0.1784 -0.2425
  295MOL0     C39695   8.393   1.350   9.050  0.8381  0.3224  0.6471
  295MOL0     C39696   8.262   1.357   9.106  0.6101  0.3158 -0.2630
  295MOL0     C39697   8.229   1.471   9.177  0.7449 -0.3753 -0.6515
  295MOL0     O39698   8.102   1.490   9.224  0.1870  0.8741 -0.5941
  295MOL0     C39699   8.091   1.522   9.359 -0.5441 -0.5495  0.4982
  295MOL0     C39700   7.973   1.461   9.434  0.1773  0.3845  0.8488
  295MOL0     C39701   7.916   1.543   9.551 -0.4329 -0.0469 -0.1334
  295MOL0     C39702   7.797   1.504   9.640 -0.2439 -0.1342 -0.2219
  295MOL0     C39703   7.660   1.498   9.555  0.0860  0.4231 -0.2285
  295MOL0     C39704   7.537   1.447   9.636  0.6920 -0.4476 -1.1281
  295MOL0     C39705   7.549   1.314   9.710  0.1964 -0.8727 -0.6257
  295MOL0     C39706   7.422   1.261   9.779  0.4375  0.4181  0.9127
  295MOL0     N39707   7.314   1.264   9.682 -0.2192  0.1586 -0.2447
  295MOL0     C39708   7.252   1.153   9.622 -0.6482 -0.7088  0.7122
  295MOL0     C39709   7.141   1.207   9.558 -0.4484 -0.6089 -0.8759
  295MOL0     C39710   7.045   1.131   9.466 -0.6569 -0.4412 -0.0308
  295MOL0     C39711   6.910   1.189   9.468 -0.1549  0.4261 -0.3218
  295MOL0     C39712   6.893   1.300   9.359 -0.5165  0.4811  0.6987
  295MOL0     C39713   6.940   1.263   9.214  0.2085 -0.2461  0.0242
  295MOL0     O39714   6.884   1.139   9.162 -0.1926 -0.1335  0.3859
  295MOL0     C39715   6.747   1.144   9.138 -0.3436  0.9685 -0.4726
  295MOL0     C39716   6.700   1.220   9.031  0.5302  0.2537  0.7118
  295MOL0     C39717   6.560   1.222   9.013  0.4584  0.2619  0.6320
  295MOL0     C39718   6.513   1.289   8.884  0.7282  0.2656 -0.0268
  295MOL0     C39719   6.469   1.172   9.103  0.5862 -0.1720 -0.7554
  295MOL0     C39720   6.317   1.173   9.094 -1.0320 -0.4630  0.7878
  295MOL0     O39721   6.244   1.174   9.212  0.4249 -0.0451 -0.0636
  295MOL0     C39722   6.126   1.250   9.214  0.9162 -0.7568  0.0106
  295MOL0     C39723   6.070   1.329   9.115  0.6453 -0.2867  0.3598
  295MOL0     C39724   5.965   1.408   9.158  0.0481  0.2258 -0.0324
  295MOL0     C39725   5.902   1.407   9.286 -0.3078  0.0817  0.7140
  295MOL0     O39726   5.796   1.488   9.326 -0.1316  0.2457 -0.0907
  295MOL0     C39727   5.781   1.611   9.251  0.7947  0.4859 -0.0295
  295MOL0     C39728   5.689   1.712   9.318  0.0655  0.0656 -0.1785
  295MOL0     C39729   5.642   1.823   9.212  0.6271  0.2905 -0.3780
  295MOL0     C39730   5.521   1.914   9.265 -0.7576  0.4620 -0.3982
  295MOL0     C39731   5.546   2.060   9.222  0.4459 -0.0574  0.3942
  295MOL0     C39732   5.452   2.159   9.291  0.6992  0.8188  0.6999
  295MOL0     C39733   5.310   2.143   9.259 -0.3054  0.1665 -0.4089
  295MOL0     C39734   5.234   2.273   9.316 -0.8162 -0.1912 -0.2686
  295MOL0    Cl39735   5.236   2.391   9.190  0.3442 -0.1987  0.1123
  295MOL0     C39736   5.949   1.311   9.382 -0.0768 -0.3707 -0.7802
  295MOL0     C39737   6.064   1.232   9.341 -0.4479  0.3928 -0.2454
  295MOL0     O39738   6.271   1.147   8.985 -0.0398 -0.5073 -0.1153
  295MOL0     C39739   6.521   1.085   9.210 -0.2865  0.0974  0.2828
  295MOL0     C39740   6.668   1.070   9.220  0.7986  0.3838 -0.1405
  295MOL0     N39741   7.132   1.342   9.598 -0.2627  0.2994 -0.7985
  295MOL0     N39742   7.228   1.372   9.675  0.1250 -0.1425 -0.1829
  295MOL0     C39743   8.331   1.561   9.209  0.1871  0.6638  0.0113
  295MOL0     C39744   8.464   1.542   9.174 -0.1084 -0.0837 -0.1526
  295MOL0     C39745   8.851   1.484   8.978 -0.4749  0.2745  0.4927
  295MOL0     C39746   8.978   1.511   9.024 -0.4122  0.7442 -0.6649
  295MOL0     C39747   9.082   1.528   8.929 -0.2037 -0.5787 -0.0082
  295MOL0     C39748   9.069   1.529   8.790  0.4058  0.0589  1.1140
  295MOL0     O39749   9.163   1.561   8.696 -0.0861 -0.3150 -0.1006
  295MOL0     C39750   9.297   1.590   8.732  0.5211 -0.5647 -0.2224
  295MOL0     C39751   9.296   1.738   8.770  0.6662  0.1890  0.0024
  295MOL0     C39752   9.435   1.812   8.744 -0.0852 -0.7369  0.1851
  295MOL0     C39753   9.419   1.973   8.716 -0.2087  0.1347 -0.1202
  295MOL0     C39754   9.322   2.038   8.800  0.1226  0.2036  0.5837
  295MOL0     C39755   9.234   2.092   8.874 -0.5025  0.6584  0.3902
  295MOL0     C39756   8.935   1.483   8.754 -0.2648  0.9851  0.1394
  295MOL0     C39757   8.831   1.475   8.840 -0.0709  0.2778 -0.3681
  295MOL0     H39758   8.415   1.268   8.981 -2.4393  0.8962 -1.2747
  295MOL0     H39759   8.188   1.285   9.073  0.5083 -0.5366  1.6944
  295MOL0     H39760   8.178   1.505   9.423 -2.7687 -2.0327  3.3734
  295MOL0     H39761   8.081   1.631   9.366 -1.8359 -0.6835  1.2300
  295MOL0     H39762   7.895   1.446   9.360  1.9432  1.0835 -1.2604
  295MOL0     H39763   8.008   1.366   9.476 -1.3704 -0.1250  1.0374
  295MOL0     H39764   8.006   1.560   9.611 -1.3449  1.5978  0.8418
  295MOL0     H39765   7.884   1.638   9.508  0.5775 -0.1982 -1.2643
  295MOL0     H39766   7.806   1.409   9.692 -2.5814 -0.2144  0.1548
  295MOL0     H39767   7.775   1.575   9.721  0.7068 -0.4001  0.2816
  295MOL0     H39768   7.646   1.604   9.531  1.2841 -0.0186 -3.3439
  295MOL0     H39769   7.656   1.439   9.462 -2.9058  0.7177 -0.3757
  295MOL0     H39770   7.516   1.524   9.710  1.4371 -0.8063 -0.5218
  295MOL0     H39771   7.452   1.445   9.567 -1.0763 -1.6931  0.9608
  295MOL0     H39772   7.592   1.227   9.659 -2.7279 -3.0216  0.3099
  295MOL0     H39773   7.620   1.327   9.793 -1.6883  3.5961  0.5610
  295MOL0     H39774   7.401   1.328   9.863 -0.3913 -0.6803  1.5975
  295MOL0     H39775   7.434   1.159   9.817 -0.8820 -0.3689 -0.6738
  295MOL0     H39776   7.281   1.049   9.619  2.5983  0.1240 -1.4523
  295MOL0     H39777   7.083   1.111   9.365  1.7096  0.5594  0.5804
  295MOL0     H39778   7.040   1.030   9.509  0.0143  0.3830  2.0826
  295MOL0     H39779   6.890   1.231   9.567  1.1623 -1.3238  0.7495
  295MOL0     H39780   6.836   1.109   9.453  0.9794 -2.1077  5.1745
  295MOL0     H39781   6.955   1.383   9.394  1.2390 -0.2744 -0.5175
  295MOL0     H39782   6.787   1.330   9.356 -0.5567  0.2847 -0.0519
  295MOL0     H39783   7.047   1.248   9.198  0.3606  1.4801 -0.7336
  295MOL0     H39784   6.918   1.351   9.153 -2.1303  1.8787  3.5540
  295MOL0     H39785   6.770   1.263   8.959 -1.3399  0.1337 -1.2733
  295MOL0     H39786   6.433   1.359   8.910  0.9376  1.4811 -2.3424
  295MOL0     H39787   6.594   1.349   8.841  2.0019 -0.0709  1.8030
  295MOL0     H39788   6.475   1.220   8.808  2.7119  0.4078 -1.2241
  295MOL0     H39789   6.104   1.348   9.014 -1.1580  1.7066  0.0607
  295MOL0     H39790   5.931   1.489   9.094 -1.7803 -0.4164  0.0452
  295MOL0     H39791   5.873   1.668   9.237  1.6741 -1.3935 -2.7750
  295MOL0     H39792   5.749   1.586   9.150  2.1117 -0.8046 -0.1597
  295MOL0     H39793   5.605   1.657   9.359  1.5867 -1.9285  0.4094
  295MOL0     H39794   5.742   1.750   9.406  1.0109 -1.2747 -0.1457
  295MOL0     H39795   5.607   1.769   9.124  0.5803  1.9128 -1.4060
  295MOL0     H39796   5.732   1.879   9.182  0.6632  0.5623  0.2211
  295MOL0     H39797   5.427   1.884   9.218 -0.5760 -0.0414 -0.4463
  295MOL0     H39798   5.529   1.909   9.374  2.6329  2.6641 -0.3901
  295MOL0     H39799   5.549   2.081   9.115  0.8597  2.0249  0.7744
  295MOL0     H39800   5.649   2.081   9.251  0.0554 -0.4677  2.1691
  295MOL0     H39801   5.471   2.141   9.398  1.3049 -1.6526  0.2468
  295MOL0     H39802   5.480   2.260   9.258  1.6414 -0.1655 -1.7322
  295MOL0     H39803   5.268   2.060   9.318  1.6628 -0.7551 -0.2289
  295MOL0     H39804   5.294   2.133   9.151  1.8240  0.3213 -0.7787
  295MOL0     H39805   5.282   2.325   9.399  0.3662  0.4280 -1.2908
  295MOL0     H39806   5.132   2.250   9.347  0.2564 -3.1299  1.4364
  295MOL0     H39807   5.917   1.288   9.483  0.1498 -2.8222 -1.2193
  295MOL0     H39808   6.115   1.169   9.413  0.3865  0.5864 -0.6561
  295MOL0     H39809   6.457   1.015   9.262 -1.8423 -0.4013 -2.1400
  295MOL0     H39810   6.710   0.999   9.291 -2.4754 -1.5218  0.0870
  295MOL0     H39811   8.306   1.651   9.265  1.2943 -0.6188  2.7760
  295MOL0     H39812   8.537   1.609   9.217 -0.6576 -1.7946  3.9982
  295MOL0     H39813   9.006   1.499   9.128  3.1994  2.1258 -1.3184
  295MOL0     H39814   9.182   1.545   8.969 -0.3630  2.7766 -0.7494
  295MOL0     H39815   9.321   1.525   8.816 -1.4927 -0.2849  0.6345
  295MOL0     H39816   9.370   1.584   8.650  1.0099  2.4074 -0.1302
  295MOL0     H39817   9.271   1.745   8.877  1.8406 -2.1592  0.4893
  295MOL0     H39818   9.218   1.785   8.709  2.4702  0.4007 -2.2317
  295MOL0     H39819   9.482   1.779   8.651 -0.3315 -0.5956  0.0078
  295MOL0     H39820   9.500   1.790   8.829  0.3227  2.6223  0.8742
  295MOL0     H39821   9.404   1.991   8.609  1.6305  0.4390 -0.3695
  295MOL0     H39822   9.515   2.015   8.747  0.3586  0.3958 -2.0616
  295MOL0     H39823   9.154   2.136   8.931 -0.6410 -0.0964  0.7936
  295MOL0     H39824   8.916   1.484   8.647 -0.2437  1.4025  0.1369
  295MOL0     H39825   8.736   1.458   8.790 -1.8591  0.7416  2.6369
  296MOL0     O39826  11.396   8.745   9.993  0.0696  0.0605  0.2709
  296MOL0     C39827  11.416   8.831  10.078 -0.8242 -1.2749  0.1036
  296MOL0     O39828  11.367   8.837  10.205  0.3130 -1.2139 -0.0104
  296MOL0     C39829  11.273   8.740  10.235 -0.0738  0.0032  0.8883
  296MOL0     C39830  11.300   8.622  10.291 -1.1289 -0.1091 -0.0121
  296MOL0     C39831  11.193   8.530  10.320 -0.5833 -0.1747 -0.2228
  296MOL0     C39832  11.063   8.567  10.291  1.1091 -0.1693  0.8784
  296MOL0     O39833  10.955   8.480  10.309 -0.1676 -0.4647 -0.5831
  296MOL0     C39834  10.992   8.353  10.364 -0.5030  0.0357 -0.1708
  296MOL0     C39835  10.853   8.288  10.376 -0.0023 -0.1549 -0.6124
  296MOL0     C39836  10.805   8.191  10.265  0.9304 -0.2098 -0.3000
  296MOL0     C39837  10.670   8.230  10.210  0.4128 -0.8718  0.5029
  296MOL0     C39838  10.554   8.164  10.278 -0.1538 -0.0045  0.9209
  296MOL0     C39839  10.419   8.190  10.211  0.1550  0.3073  0.2119
  296MOL0     C39840  10.306   8.169  10.309 -0.4900  0.3862 -0.0917
  296MOL0     C39841  10.273   8.297  10.397 -0.6980 -0.6945  0.7943
  296MOL0     N39842  10.178   8.269  10.509  0.0739  0.3310  0.3336
  296MOL0     C39843  10.061   8.211  10.481  0.1523 -0.2897  0.5169
  296MOL0     C39844  10.021   8.155  10.598  0.4705 -0.2712 -0.3505
  296MOL0     C39845   9.903   8.062  10.616  0.3459  0.6128  0.2157
  296MOL0     C39846   9.778   8.154  10.635 -0.5569 -0.2736  0.0551
  296MOL0     C39847   9.742   8.255  10.521 -0.9370  0.2168 -0.5175
  296MOL0     C39848   9.601   8.312  10.550 -0.2418 -0.1637  0.7052
  296MOL0     O39849   9.511   8.199  10.557 -0.2096  0.6880 -0.7677
  296MOL0     C39850   9.378   8.239  10.540 -0.7380  0.6516 -0.2689
  296MOL0     C39851   9.288   8.147  10.519 -0.4003 -0.7042 -0.4312
  296MOL0     C39852   9.153   8.171  10.486  1.1066  0.0199 -0.2001
  296MOL0     C39853   9.069   8.063  10.438 -0.2302  0.0800 -0.6210
  296MOL0     C39854   9.103   8.300  10.494  0.9499  0.2928 -0.2033
  296MOL0     C39855   8.956   8.341  10.469 -0.7200 -0.9815 -0.3780
  296MOL0     O39856   8.866   8.236  10.474  1.0067 -0.3186 -0.4851
  296MOL0     C39857   8.732   8.260  10.444  0.2173 -0.3608  0.0799
  296MOL0     C39858   8.677   8.217  10.322  0.5131  0.5351 -0.6814
  296MOL0     C39859   8.541   8.242  10.293 -0.1983  0.3139 -1.4303
  296MOL0     C39860   8.463   8.320  10.380 -1.0021 -0.1124  0.7506
  296MOL0     O39861   8.344   8.375  10.356  0.2946 -0.3866  0.2623
  296MOL0     C39862   8.262   8.321  10.250  0.6910  0.6173 -0.2075
  296MOL0     C39863   8.116   8.374  10.278 -0.3753 -0.3352  0.6397
  296MOL0     C39864   8.074   8.343  10.421  0.1065 -0.3742 -1.8713
  296MOL0     C39865   7.926   8.356  10.442  0.2424  0.0154 -0.1384
  296MOL0     C39866   7.878   8.334  10.581 -1.1746 -0.5040  0.2711
  296MOL0     C39867   7.729   8.283  10.575 -0.9667  0.6733 -0.5712
  296MOL0     C39868   7.675   8.230  10.715 -0.1337  0.6122  1.0205
  296MOL0     C39869   7.736   8.296  10.839  0.2727 -0.0760 -0.5971
  296MOL0    Cl39870   7.679   8.466  10.861 -0.2024  0.2776  0.1688
  296MOL0     C39871   8.511   8.354  10.503 -0.0493  0.2067  0.0913
  296MOL0     C39872   8.651   8.331  10.536  1.0446  0.1623  0.0721
  296MOL0     O39873   8.929   8.463  10.460  0.5020  0.1778  0.2829
  296MOL0     C39874   9.189   8.404  10.554 -0.6621  0.3549  1.0814
  296MOL0     C39875   9.321   8.361  10.584 -0.5753 -0.1977 -0.9846
  296MOL0     N39876  10.117   8.198  10.694  0.2079  0.8235  0.3358
  296MOL0     N39877  10.214   8.256  10.636  0.3361  0.7892 -0.3655
  296MOL0     C39878  11.033   8.697  10.252 -0.3813  0.0472  0.5625
  296MOL0     C39879  11.137   8.782  10.220 -0.5722 -0.5976  0.4714
  296MOL0     C39880  11.512   8.939  10.050  0.1773  0.0771 -0.0768
  296MOL0     C39881  11.618   8.925   9.958 -0.0362 -0.8970 -0.5901
  296MOL0     C39882  11.710   9.026   9.940 -0.0403  0.3598  0.4813
  296MOL0     C39883  11.704   9.143  10.023 -0.3458 -0.1894  0.4478
  296MOL0     O39884  11.791   9.249  10.006 -0.2317  0.0903 -0.2657
  296MOL0     C39885  11.887   9.248  10.108 -0.9709  0.1333 -0.9341
  296MOL0     C39886  11.962   9.381  10.105  1.2050  0.9597  0.3255
  296MOL0     C39887  12.085   9.370  10.197 -0.1078  0.1724  0.0789
  296MOL0     C39888  12.157   9.506  10.196  0.2662  0.9702 -0.6087
  296MOL0     C39889  12.231   9.515  10.064  0.0019  0.3972  0.0243
  296MOL0     C39890  12.278   9.497   9.954 -0.0106 -0.2744  0.2384
  296MOL0     C39891  11.585   9.155  10.104 -1.8503  0.2965  0.6925
  296MOL0     C39892  11.490   9.060  10.118 -0.0350  0.8009 -0.2937
  296MOL0     H39893  11.401   8.584  10.305 -2.1039 -2.6106  0.7254
  296MOL0     H39894  11.209   8.426  10.347 -3.0439 -1.7912 -4.0184
  296MOL0     H39895  11.054   8.296  10.294 -0.7067  0.2562 -0.5375
  296MOL0     H39896  11.038   8.365  10.462 -1.3674 -0.5437  0.3205
  296MOL0     H39897  10.865   8.225  10.465 -2.9245 -2.5868 -1.7755
  296MOL0     H39898  10.773   8.360  10.395 -0.9802 -0.5457 -2.9331
  296MOL0     H39899  10.869   8.197  10.177  2.5288  1.8242  0.8857
  296MOL0     H39900  10.797   8.088  10.299  0.3352 -0.0607  0.0320
  296MOL0     H39901  10.662   8.339  10.216 -1.3501 -0.9170 -0.4476
  296MOL0     H39902  10.672   8.194  10.107  4.3080 -1.3404  0.5991
  296MOL0     H39903  10.566   8.056  10.274 -1.2205 -0.1884  1.9739
  296MOL0     H39904  10.546   8.190  10.384 -0.3853 -0.5648  1.0462
  296MOL0     H39905  10.425   8.294  10.177 -2.0226  1.3201  2.5927
  296MOL0     H39906  10.410   8.117  10.130  2.9490 -0.6832  0.6742
  296MOL0     H39907  10.223   8.140  10.244 -0.3753  2.2153 -1.1210
  296MOL0     H39908  10.327   8.084  10.376 -0.8034  1.1738  1.0466
  296MOL0     H39909  10.226   8.369  10.330  1.2746 -0.9729 -0.9729
  296MOL0     H39910  10.367   8.326  10.444 -0.4163 -0.2310 -0.0443
  296MOL0     H39911  10.009   8.199  10.386  2.7456  1.3321 -1.2123
  296MOL0     H39912   9.890   7.993  10.532 -0.6510 -0.6881  1.3861
  296MOL0     H39913   9.915   7.993  10.700 -1.9860 -1.0228 -0.7152
  296MOL0     H39914   9.792   8.210  10.728  0.7740 -2.3418  1.1739
  296MOL0     H39915   9.693   8.086  10.651 -2.4186  2.1844  1.3545
  296MOL0     H39916   9.753   8.201  10.426  1.0911 -0.2589 -0.0747
  296MOL0     H39917   9.818   8.333  10.521  0.4114 -1.0140  1.2442
  296MOL0     H39918   9.563   8.374  10.468 -2.0987  2.6091  3.4146
  296MOL0     H39919   9.608   8.372  10.641 -1.3044 -0.1418  0.7897
  296MOL0     H39920   9.312   8.041  10.512 -1.5569 -1.7953  6.0410
  296MOL0     H39921   9.005   8.017  10.513 -0.6096  1.2064 -0.2226
  296MOL0     H39922   8.994   8.090  10.363 -2.0207 -0.3539  0.9611
  296MOL0     H39923   9.127   7.985  10.388  0.5624  1.3606 -1.8028
  296MOL0     H39924   8.729   8.146  10.258 -1.3473  0.2827 -1.9571
  296MOL0     H39925   8.497   8.205  10.201 -1.6705  1.6060 -1.2804
  296MOL0     H39926   8.300   8.346  10.151  1.3956 -1.2280 -0.4396
  296MOL0     H39927   8.255   8.214  10.270  4.3356  0.3240  0.3410
  296MOL0     H39928   8.088   8.474  10.245 -3.8784 -2.5678 -4.7433
  296MOL0     H39929   8.058   8.309  10.211 -0.9851  0.3826  0.4534
  296MOL0     H39930   8.125   8.417  10.483  0.5855 -2.0732 -0.1345
  296MOL0     H39931   8.111   8.242  10.445  1.1146  0.2761 -0.5216
  296MOL0     H39932   7.879   8.447  10.404 -3.8650 -2.2683 -1.0724
  296MOL0     H39933   7.887   8.288  10.366 -3.3155  0.9154  0.6926
  296MOL0     H39934   7.880   8.431  10.632 -0.7461  2.4345 -4.6389
  296MOL0     H39935   7.938   8.254  10.626  3.8757  1.2321 -2.6259
  296MOL0     H39936   7.665   8.360  10.531 -0.0718  0.3088 -2.6293
  296MOL0     H39937   7.721   8.199  10.506 -2.9784 -0.9480  1.5016
  296MOL0     H39938   7.699   8.123  10.715  1.2444  0.8190 -1.7672
  296MOL0     H39939   7.565   8.237  10.715 -0.2061 -0.3837  0.7010
  296MOL0     H39940   7.845   8.310  10.841  0.3829 -0.8905 -0.6511
  296MOL0     H39941   7.712   8.239  10.929  3.5374 -2.1535 -0.8944
  296MOL0     H39942   8.445   8.416  10.563 -1.8823 -2.5171  1.1114
  296MOL0     H39943   8.687   8.358  10.635  0.9627  1.6810 -0.2832
  296MOL0     H39944   9.162   8.508  10.569 -0.6996  0.3763  0.8579
  296MOL0     H39945   9.383   8.441  10.624 -1.3677  0.6597 -1.4372
  296MOL0     H39946  10.931   8.724  10.229 -0.2146  1.8982  1.7452
  296MOL0     H39947  11.119   8.869  10.158 -1.8765 -2.2538 -1.6601
  296MOL0     H39948  11.634   8.836   9.897  2.2649 -1.0444  0.1474
  296MOL0     H39949  11.793   9.017   9.871  1.6117 -3.2253  2.6241
  296MOL0     H39950  11.844   9.219  10.204  3.8367  0.4402  1.5945
  296MOL0     H39951  11.969   9.176  10.097 -1.1993 -0.2222 -0.3601
  296MOL0     H39952  11.896   9.455  10.152 -1.6899 -1.5269  0.4635
  296MOL0     H39953  11.987   9.420  10.006  1.8029 -0.7499 -0.2286
  296MOL0     H39954  12.151   9.287  10.169  0.4026  0.7222 -0.3568
  296MOL0     H39955  12.046   9.352  10.298 -1.1064 -0.8397 -0.4655
  296MOL0     H39956  12.226   9.514  10.280  1.0792  1.9844 -1.3464
  296MOL0     H39957  12.069   9.571  10.193 -2.1168 -1.8940 -5.8030
  296MOL0     H39958  12.336   9.461   9.872 -0.2201 -1.8456  0.7575
  296MOL0     H39959  11.575   9.249  10.156 -1.5328 -0.0027  1.3148
  296MOL0     H39960  11.396   9.078  10.169  0.1453 -0.5355  0.5675
  297MOL0     O39961   9.353  11.172   7.504 -0.8468  0.3692  0.5257
  297MOL0     C39962   9.326  11.071   7.438  0.4469  0.2276 -0.2172
  297MOL0     O39963   9.208  11.053   7.356 -0.2685 -0.3027 -0.8180
  297MOL0     C39964   9.110  11.142   7.355  0.0779  0.3695 -0.4200
  297MOL0     C39965   8.982  11.097   7.320 -0.0308  0.3434  0.9906
  297MOL0     C39966   8.873  11.185   7.298 -0.4004 -0.4877 -0.6853
  297MOL0     C39967   8.888  11.315   7.314  0.0176  0.1617  0.0067
  297MOL0     O39968   8.775  11.390   7.290 -0.7294  0.1048  0.0436
  297MOL0     C39969   8.729  11.469   7.402 -0.6404 -0.2844 -0.1720
  297MOL0     C39970   8.604  11.547   7.373 -0.5126  0.0736 -0.2539
  297MOL0     C39971   8.603  11.615   7.237  0.1264  0.3221 -0.0497
  297MOL0     C39972   8.473  11.693   7.223 -0.4445 -1.3325 -0.3135
  297MOL0     C39973   8.421  11.710   7.075 -0.1032  0.1588 -0.0322
  297MOL0     C39974   8.340  11.834   7.062 -0.1684  0.0423  0.6665
  297MOL0     C39975   8.232  11.824   6.947 -0.0373  0.0146 -0.9832
  297MOL0     C39976   8.297  11.820   6.809  0.9737 -0.0073 -0.1744
  297MOL0     N39977   8.193  11.812   6.708 -0.0741  0.2560 -0.2522
  297MOL0     C39978   8.066  11.766   6.729  0.5849  0.3522  0.2030
  297MOL0     C39979   7.995  11.807   6.623  0.2844  0.0093  1.0627
  297MOL0     C39980   7.847  11.789   6.600  0.0638 -0.1927  1.0271
  297MOL0     C39981   7.771  11.846   6.715  0.0417  0.0443  0.0663
  297MOL0     C39982   7.615  11.848   6.698 -0.4533  0.9655 -0.0728
  297MOL0     C39983   7.557  11.720   6.750 -1.0332 -0.1813  0.0955
  297MOL0     O39984   7.412  11.720   6.740 -0.0323 -0.2131 -0.9123
  297MOL0     C39985   7.341  11.606   6.774  0.8010 -0.1836 -0.1581
  297MOL0     C39986   7.386  11.485   6.823  0.3181  0.0690 -0.6426
  297MOL0     C39987   7.304  11.383   6.874 -0.0411  0.1199  0.3519
  297MOL0     C39988   7.374  11.267   6.939 -0.8267 -0.4052  0.3733
  297MOL0     C39989   7.163  11.391   6.866 -0.0851  0.3547 -0.1722
  297MOL0     C39990   7.064  11.286   6.904  0.2401 -0.7417 -0.9052
  297MOL0     O39991   7.108  11.163   6.950  0.3615 -0.2229 -0.2810
  297MOL0     C39992   7.017  11.071   6.985  1.0357 -0.3407  0.7468
  297MOL0     C39993   6.956  11.083   7.110  0.3519  1.1996  0.1083
  297MOL0     C39994   6.886  10.975   7.161 -0.9771 -1.3619  0.6889
  297MOL0     C39995   6.874  10.855   7.087  0.3932 -0.4380 -0.3728
  297MOL0     O39996   6.805  10.744   7.131  0.7213  0.9842 -0.5165
  297MOL0     C39997   6.693  10.764   7.221 -0.7610 -0.9962  0.4189
  297MOL0     C39998   6.746  10.757   7.363 -0.5310  0.3845  0.1638
  297MOL0     C39999   6.630  10.754   7.468 -0.4306  0.5840 -0.2552
  297MOL0     C40000   6.629  10.626   7.545  0.2149  0.0927  0.0266
  297MOL0     C40001   6.500  10.608   7.629  0.5547  0.5806 -0.9354
  297MOL0     C40002   6.368  10.582   7.555 -0.1936 -0.3985 -0.1391
  297MOL0     C40003   6.250  10.516   7.640  0.0590  0.8748 -0.2537
  297MOL0     C40004   6.276  10.374   7.680 -0.5002 -0.0159  0.3486
  297MOL0    Cl40005   6.260  10.273   7.535  0.1691  0.2936  0.1851
  297MOL0     C40006   6.928  10.848   6.961  0.2079 -0.7513  0.1786
  297MOL0     C40007   6.999  10.953   6.907  0.2688 -0.4309  0.7276
  297MOL0     O40008   6.949  11.317   6.879  0.6422  0.5458  0.3572
  297MOL0     C40009   7.115  11.511   6.799  0.4762  0.2744  0.0403
  297MOL0     C40010   7.201  11.611   6.750  0.0530 -0.5914 -0.5357
  297MOL0     N40011   8.084  11.852   6.526  0.9798 -0.8261 -0.5742
  297MOL0     N40012   8.197  11.873   6.583  0.3601  1.1797  0.0703
  297MOL0     C40013   9.019  11.365   7.343 -0.3212  0.2160  0.3904
  297MOL0     C40014   9.132  11.283   7.364 -0.0807  1.1148 -0.1242
  297MOL0     C40015   9.425  10.963   7.437 -0.4011 -0.0008  1.6156
  297MOL0     C40016   9.406  10.858   7.346  0.4961  0.6503 -0.4199
  297MOL0     C40017   9.469  10.728   7.370  0.2732 -0.5832 -0.4205
  297MOL0     C40018   9.570  10.730   7.473  0.8396 -0.1110  0.0038
  297MOL0     O40019   9.651  10.623   7.482 -0.4478 -0.1817 -0.4660
  297MOL0     C40020   9.629  10.488   7.419 -0.5335 -0.5674  0.3877
  297MOL0     C40021   9.671  10.371   7.509 -0.2133  0.0973 -1.1500
  297MOL0     C40022   9.824  10.364   7.519 -0.5294 -0.4204 -0.7178
  297MOL0     C40023   9.869  10.247   7.595 -0.9672  0.6832 -0.6857
  297MOL0     C40024  10.015  10.243   7.588 -0.4693 -0.3133  0.0582
  297MOL0     C40025  10.132  10.231   7.580  0.6598 -0.4490 -0.2864
  297MOL0     C40026   9.588  10.843   7.561  0.1961  0.3064 -0.0901
  297MOL0     C40027   9.524  10.955   7.533  0.8118 -0.6007 -0.5607
  297MOL0     H40028   8.954  10.992   7.316 -1.7324  0.7352  1.7818
  297MOL0     H40029   8.777  11.136   7.281 -0.4722 -0.6849  0.2179
  297MOL0     H40030   8.718  11.405   7.490 -3.4046  1.5591  0.9704
  297MOL0     H40031   8.806  11.543   7.422 -4.2560  3.9780 -0.3861
  297MOL0     H40032   8.517  11.481   7.378  1.6872 -2.9091  2.1042
  297MOL0     H40033   8.597  11.614   7.459 -0.1782 -0.3871  0.1401
  297MOL0     H40034   8.687  11.685   7.229  0.9579 -0.6656 -0.1728
  297MOL0     H40035   8.607  11.535   7.162 -1.8329 -0.7011  0.8741
  297MOL0     H40036   8.397  11.647   7.287  0.4429  0.2902  2.0385
  297MOL0     H40037   8.504  11.788   7.266  2.3912 -1.5418 -1.6790
  297MOL0     H40038   8.503  11.724   7.004 -0.5040  3.2495 -0.0113
  297MOL0     H40039   8.359  11.624   7.046  0.7635 -1.1230  1.7749
  297MOL0     H40040   8.288  11.870   7.151  2.0644  1.8737  1.3395
  297MOL0     H40041   8.409  11.917   7.042 -1.2484  0.6181 -0.8810
  297MOL0     H40042   8.178  11.733   6.972 -3.0646  1.8303 -0.3514
  297MOL0     H40043   8.167  11.912   6.950 -1.3328 -0.9318 -0.0759
  297MOL0     H40044   8.376  11.747   6.786  1.9354  1.0126 -0.2242
  297MOL0     H40045   8.354  11.910   6.785  1.5505 -0.6149 -1.1733
  297MOL0     H40046   8.035  11.718   6.821  1.2974  1.8686  1.2656
  297MOL0     H40047   7.800  11.827   6.508 -2.9280 -1.6442  1.8263
  297MOL0     H40048   7.833  11.681   6.595  3.3198 -0.6632 -0.7568
  297MOL0     H40049   7.795  11.952   6.718  2.0767 -0.3442 -1.0515
  297MOL0     H40050   7.798  11.799   6.810  1.6746  2.2087  0.7269
  297MOL0     H40051   7.595  11.858   6.591  0.8942  1.1623 -0.3176
  297MOL0     H40052   7.577  11.929   6.760 -0.1878  0.9722  0.0799
  297MOL0     H40053   7.596  11.696   6.850  1.5411  0.0491 -0.7633
  297MOL0     H40054   7.594  11.642   6.683 -0.4286 -0.4774  0.7638
  297MOL0     H40055   7.493  11.469   6.838  1.1430  1.0386 -4.3429
  297MOL0     H40056   7.379  11.191   6.860  1.2503  1.5165 -1.4759
  297MOL0     H40057   7.476  11.284   6.972 -0.2343  0.4880 -1.7256
  297MOL0     H40058   7.324  11.221   7.025  1.7370 -1.7504  1.2239
  297MOL0     H40059   6.966  11.173   7.169 -1.3368  2.1574 -0.9891
  297MOL0     H40060   6.838  10.995   7.257  1.7669  2.9766  1.4500
  297MOL0     H40061   6.640  10.860   7.215  1.5627  0.6261  3.3450
  297MOL0     H40062   6.618  10.687   7.200 -0.1656 -1.5134  0.1874
  297MOL0     H40063   6.786  10.655   7.368 -1.0434  0.2037  0.5621
  297MOL0     H40064   6.822  10.832   7.386  0.3053 -0.3550 -0.1108
  297MOL0     H40065   6.529  10.750   7.426 -0.7731  2.5476  0.3164
  297MOL0     H40066   6.636  10.839   7.536 -0.3546  1.2064 -1.0226
  297MOL0     H40067   6.628  10.539   7.479  1.4042 -1.2114  1.6225
  297MOL0     H40068   6.720  10.606   7.603  0.8951 -1.4564 -1.4729
  297MOL0     H40069   6.505  10.692   7.699  3.5022  0.1003 -0.4253
  297MOL0     H40070   6.510  10.523   7.697 -2.6444  0.2343 -0.7784
  297MOL0     H40071   6.340  10.678   7.511  1.3662 -0.2313 -0.8198
  297MOL0     H40072   6.378  10.508   7.475 -0.8123  0.5250 -1.0882
  297MOL0     H40073   6.159  10.517   7.580 -0.5466  1.1531  0.6451
  297MOL0     H40074   6.246  10.576   7.731  2.5386 -2.0738  2.0270
  297MOL0     H40075   6.209  10.339   7.759 -0.8786  1.7906  0.8849
  297MOL0     H40076   6.378  10.360   7.715  0.2023  2.6781 -0.3541
  297MOL0     H40077   6.924  10.751   6.913 -1.7197 -0.7948  0.3393
  297MOL0     H40078   7.033  10.947   6.804 -2.1338 -1.4881 -0.0972
  297MOL0     H40079   7.010  11.535   6.780  0.0264 -2.0042 -0.5916
  297MOL0     H40080   7.157  11.697   6.701 -3.6436 -2.8692 -1.5900
  297MOL0     H40081   9.029  11.473   7.347 -3.7504  0.6670 -0.4741
  297MOL0     H40082   9.230  11.330   7.375  0.6966 -0.3483 -0.5509
  297MOL0     H40083   9.338  10.876   7.264 -4.0039  4.0568  3.4741
  297MOL0     H40084   9.459  10.650   7.295  0.5705 -2.4856  1.4360
  297MOL0     H40085   9.521  10.473   7.410 -0.7895 -2.9198  4.9248
  297MOL0     H40086   9.683  10.495   7.324 -0.3810 -1.1159  0.4325
  297MOL0     H40087   9.625  10.277   7.477 -0.8901 -0.3645  1.0097
  297MOL0     H40088   9.643  10.394   7.613  0.3374 -1.5914 -0.5925
  297MOL0     H40089   9.859  10.452   7.574  1.5302 -2.2703  1.0687
  297MOL0     H40090   9.865  10.366   7.417  2.3323  0.0208  0.3672
  297MOL0     H40091   9.834  10.154   7.551 -0.6079  1.5095 -2.8295
  297MOL0     H40092   9.835  10.247   7.699 -1.7126 -0.1486 -0.9171
  297MOL0     H40093  10.239  10.233   7.581  0.6846  2.6174 -0.1083
  297MOL0     H40094   9.653  10.831   7.647 -2.1289 -1.7997  1.5306
  297MOL0     H40095   9.533  11.043   7.596 -1.5105 -1.4503  1.0917
  298MOL0     O40096   2.191   7.891  10.898 -0.2630 -0.0485 -0.1380
  298MOL0     C40097   2.151   7.952  10.803  0.4230 -0.8195  0.5513
  298MOL0     O40098   2.068   7.905  10.700 -0.0761  0.6232 -0.1703
  298MOL0     C40099   2.048   7.768  10.676  0.1713 -1.4488  1.1074
  298MOL0     C40100   1.926   7.737  10.612 -0.8500 -0.0519 -0.6358
  298MOL0     C40101   1.890   7.608  10.582 -0.3758  0.2627  0.3508
  298MOL0     C40102   1.979   7.503  10.608  0.4373  0.0110  0.8850
  298MOL0     O40103   1.936   7.377  10.569 -0.4116  0.1034 -0.4104
  298MOL0     C40104   2.032   7.274  10.581 -0.0510 -0.4285 -0.0944
  298MOL0     C40105   1.978   7.133  10.545  0.6547  0.6572 -0.1491
  298MOL0     C40106   2.077   7.046  10.466 -0.3984 -0.9090  0.3206
  298MOL0     C40107   2.087   7.076  10.319  0.2433  0.1262  0.6633
  298MOL0     C40108   2.206   7.007  10.240 -0.1353 -1.5080 -1.3860
  298MOL0     C40109   2.186   7.016  10.082  0.1790 -0.7425  0.7808
  298MOL0     C40110   2.301   6.958  10.004 -0.1291 -1.1157  0.8735
  298MOL0     C40111   2.301   6.807  10.001  0.4992  0.0149 -0.6816
  298MOL0     N40112   2.418   6.774   9.920 -0.5403 -0.4511 -0.1615
  298MOL0     C40113   2.436   6.821   9.792  0.5574  0.1707 -0.6036
  298MOL0     C40114   2.562   6.774   9.754  0.1193  0.2121 -0.5632
  298MOL0     C40115   2.639   6.781   9.623 -0.1358  1.3932 -0.1159
  298MOL0     C40116   2.615   6.661   9.536 -0.0818 -0.1689 -0.3745
  298MOL0     C40117   2.718   6.667   9.426 -0.3502  0.3150 -0.1076
  298MOL0     C40118   2.678   6.616   9.286  0.3717 -0.3919  0.8664
  298MOL0     O40119   2.566   6.708   9.262 -0.2817  0.2247  0.2723
  298MOL0     C40120   2.475   6.644   9.182 -0.0344  0.2362  0.4969
  298MOL0     C40121   2.350   6.609   9.226  0.0754  1.0545  0.0156
  298MOL0     C40122   2.260   6.533   9.154 -0.6103  0.5543 -0.4049
  298MOL0     C40123   2.132   6.503   9.225 -0.3512  1.2011 -0.1226
  298MOL0     C40124   2.293   6.487   9.023  0.4744 -0.0147  1.1213
  298MOL0     C40125   2.210   6.390   8.946 -0.4025  0.1242 -0.3451
  298MOL0     O40126   2.257   6.363   8.821 -0.4358 -1.0452 -0.2669
  298MOL0     C40127   2.176   6.293   8.729 -0.2753 -0.4723  0.4548
  298MOL0     C40128   2.102   6.370   8.645  0.7156  0.8910  0.2288
  298MOL0     C40129   2.035   6.314   8.541  0.6358  0.0061  0.4654
  298MOL0     C40130   2.036   6.171   8.530  0.4475 -0.3412 -0.4331
  298MOL0     O40131   1.971   6.094   8.436 -0.4769  0.4155 -0.1982
  298MOL0     C40132   1.972   6.142   8.296 -0.9147 -0.8459 -1.2678
  298MOL0     C40133   1.903   6.023   8.222  0.2539 -0.3889 -0.6864
  298MOL0     C40134   1.748   6.018   8.232  0.3030 -0.7559 -0.7072
  298MOL0     C40135   1.680   6.127   8.152  0.3879 -0.1147 -0.4785
  298MOL0     C40136   1.530   6.122   8.160  0.0782 -0.6058 -0.8911
  298MOL0     C40137   1.461   6.229   8.081 -1.0837  0.5344 -0.2888
  298MOL0     C40138   1.317   6.214   8.074  0.6135 -0.7657  0.4080
  298MOL0     C40139   1.254   6.340   8.004 -0.2664  0.6473 -0.4265
  298MOL0    Cl40140   1.071   6.320   8.001  0.0378 -0.0344 -0.5562
  298MOL0     C40141   2.112   6.093   8.616  0.7789  0.7669  0.6228
  298MOL0     C40142   2.186   6.154   8.718 -0.5203 -0.3785  0.0663
  298MOL0     O40143   2.103   6.343   8.991  0.0874  0.2703  0.6746
  298MOL0     C40144   2.407   6.541   8.967  0.0853  0.3587 -0.4771
  298MOL0     C40145   2.504   6.611   9.045  1.3441 -0.2142 -0.5308
  298MOL0     N40146   2.623   6.722   9.865 -0.7184 -0.0847  0.4327
  298MOL0     N40147   2.537   6.723   9.960 -0.0326  0.6100 -0.0050
  298MOL0     C40148   2.102   7.530  10.665 -0.3563 -0.8699  0.6753
  298MOL0     C40149   2.135   7.661  10.708 -0.3438 -0.3788  1.2595
  298MOL0     C40150   2.183   8.099  10.797  0.1592  1.0738  0.2022
  298MOL0     C40151   2.145   8.168  10.674 -0.1170 -0.2318 -0.5525
  298MOL0     C40152   2.151   8.304  10.674  0.3305 -0.6879 -0.0837
  298MOL0     C40153   2.195   8.386  10.785 -0.9399  0.3545  0.2849
  298MOL0     O40154   2.204   8.516  10.768 -0.1636 -0.2302  0.6689
  298MOL0     C40155   2.319   8.581  10.832  0.1163  0.1440 -0.4327
  298MOL0     C40156   2.376   8.704  10.751  0.6744  0.3353  1.0869
  298MOL0     C40157   2.526   8.733  10.770  0.2230 -0.8342 -0.5306
  298MOL0     C40158   2.552   8.878  10.729  0.5655  0.3451  0.9674
  298MOL0     C40159   2.525   8.889  10.582 -0.8908 -0.6925  0.1334
  298MOL0     C40160   2.514   8.918  10.467 -0.3209 -1.0358  0.5468
  298MOL0     C40161   2.227   8.314  10.901 -0.1036  0.5649 -0.9430
  298MOL0     C40162   2.227   8.177  10.910 -1.0480 -0.7491 -0.2452
  298MOL0     H40163   1.860   7.814  10.575 -0.6902  1.0066  1.1703
  298MOL0     H40164   1.797   7.589  10.529  0.4636  2.9324 -2.3108
  298MOL0     H40165   2.111   7.298  10.509  0.5857  0.0277  0.7434
  298MOL0     H40166   2.082   7.274  10.678 -0.4160 -0.5244  0.0960
  298MOL0     H40167   1.952   7.065  10.627  1.0507 -2.2676 -2.2645
  298MOL0     H40168   1.898   7.137  10.470  1.2459 -0.4759 -0.8704
  298MOL0     H40169   2.173   7.067  10.514 -1.3824  1.1132  1.5396
  298MOL0     H40170   2.052   6.940  10.476  0.6747 -1.1601  0.4435
  298MOL0     H40171   1.994   7.032  10.281  0.9681 -1.6011  0.7917
  298MOL0     H40172   2.084   7.185  10.317  0.8675  0.1431  0.5480
  298MOL0     H40173   2.301   7.046  10.277 -1.2056 -2.0964  2.4517
  298MOL0     H40174   2.195   6.899  10.254 -2.1559 -1.0873  0.8878
  298MOL0     H40175   2.097   6.963  10.048  1.5051 -2.0028 -0.8825
  298MOL0     H40176   2.180   7.118  10.046  0.1062 -1.3290 -0.9484
  298MOL0     H40177   2.295   6.995   9.901 -0.0600  1.0120  1.5942
  298MOL0     H40178   2.395   6.993  10.048  0.6433 -2.1809  0.1598
  298MOL0     H40179   2.211   6.763   9.959  0.1950  0.9877 -1.0806
  298MOL0     H40180   2.315   6.766  10.101  0.0836 -0.8759 -0.9760
  298MOL0     H40181   2.366   6.871   9.726 -3.0739  1.8876  4.0263
  298MOL0     H40182   2.609   6.866   9.561  0.2421 -0.7156 -3.4569
  298MOL0     H40183   2.744   6.770   9.651  0.3142 -3.6342 -2.6478
  298MOL0     H40184   2.513   6.663   9.495 -0.1417 -1.7620 -0.3759
  298MOL0     H40185   2.628   6.571   9.596 -0.8625 -0.1692 -0.1858
  298MOL0     H40186   2.812   6.612   9.441 -0.1097 -0.0796 -2.5940
  298MOL0     H40187   2.758   6.769   9.413  0.6696  0.0232  0.6222
  298MOL0     H40188   2.637   6.515   9.282 -0.1588 -0.1889  1.0139
  298MOL0     H40189   2.762   6.639   9.219  0.4894 -0.6442  0.9282
  298MOL0     H40190   2.322   6.645   9.324  1.5214  0.1371  0.8089
  298MOL0     H40191   2.124   6.396   9.243 -3.3939  1.3198 -0.3879
  298MOL0     H40192   2.133   6.553   9.322  3.6781  3.2928 -1.0032
  298MOL0     H40193   2.045   6.527   9.163 -1.7230 -2.2511  0.2912
  298MOL0     H40194   2.096   6.478   8.647 -0.5154  0.8625 -0.7907
  298MOL0     H40195   1.978   6.383   8.479 -0.2210  0.3592  1.6137
  298MOL0     H40196   1.911   6.233   8.296 -0.9220 -0.7008  2.4611
  298MOL0     H40197   2.072   6.163   8.258 -0.3158  1.4063  1.2129
  298MOL0     H40198   1.929   6.050   8.120  0.5564  1.7036 -0.1094
  298MOL0     H40199   1.941   5.922   8.239 -0.7345 -1.5187 -4.3030
  298MOL0     H40200   1.742   6.019   8.341  2.9590  0.1751 -0.4909
  298MOL0     H40201   1.726   5.920   8.188  0.5012 -0.9926 -0.2845
  298MOL0     H40202   1.716   6.226   8.184  0.2880 -0.7523  1.7084
  298MOL0     H40203   1.703   6.101   8.048  0.9909 -2.1583  0.1304
  298MOL0     H40204   1.482   6.135   8.258  1.1920 -3.9795  0.2703
  298MOL0     H40205   1.487   6.026   8.130 -1.7310 -1.2022  2.9146
  298MOL0     H40206   1.484   6.321   8.135  4.4581 -0.7516  0.1034
  298MOL0     H40207   1.507   6.247   7.984 -0.1320  2.2133  0.4174
  298MOL0     H40208   1.277   6.233   8.174  0.5589  2.3026 -0.1113
  298MOL0     H40209   1.289   6.121   8.023 -0.7058 -1.1441  1.7138
  298MOL0     H40210   1.294   6.370   7.907 -0.2839 -0.6060 -0.8440
  298MOL0     H40211   1.253   6.434   8.060 -5.0461 -0.1449  1.3092
  298MOL0     H40212   2.110   5.985   8.610 -1.3058  0.7534  0.5570
  298MOL0     H40213   2.253   6.097   8.782  2.4890  0.8240 -1.7743
  298MOL0     H40214   2.428   6.518   8.863  1.4767  0.7444 -0.3005
  298MOL0     H40215   2.601   6.642   9.006  0.2875  5.2487  0.3983
  298MOL0     H40216   2.172   7.453  10.695 -1.5814 -1.5821  1.7921
  298MOL0     H40217   2.234   7.680  10.748 -0.6643  2.5058  0.9074
  298MOL0     H40218   2.115   8.128  10.578  1.4541 -1.1756 -0.6896
  298MOL0     H40219   2.118   8.351  10.582  0.6040  0.6148  0.4647
  298MOL0     H40220   2.293   8.605  10.936 -4.2761 -6.0394  0.4164
  298MOL0     H40221   2.397   8.505  10.839 -0.3068 -0.3448 -0.8898
  298MOL0     H40222   2.321   8.796  10.776 -0.4867 -0.2061  0.5826
  298MOL0     H40223   2.361   8.691  10.644 -0.7319  0.9610  1.1845
  298MOL0     H40224   2.576   8.660  10.706 -0.5016 -3.4958  1.7265
  298MOL0     H40225   2.549   8.713  10.875  4.8132 -3.4139 -1.7998
  298MOL0     H40226   2.660   8.888  10.745  0.4365  1.0055  1.4997
  298MOL0     H40227   2.500   8.954  10.789  2.2209  0.3299  2.5289
  298MOL0     H40228   2.503   8.934  10.362 -2.3869 -3.4144  0.3180
  298MOL0     H40229   2.266   8.380  10.977 -0.9410 -1.2446  1.1522
  298MOL0     H40230   2.260   8.124  10.999  3.4935 -1.5034 -2.0524
  299MOL0     O40231   1.067   5.078   5.928 -0.8651 -0.3989 -0.0982
  299MOL0     C40232   1.177   5.050   5.867  0.2229 -0.2520  0.0878
  299MOL0     O40233   1.192   5.035   5.728 -0.5946 -1.0999 -0.2568
  299MOL0     C40234   1.078   5.044   5.661 -0.1646  0.3510  0.7503
  299MOL0     C40235   1.063   5.156   5.575 -0.4278 -0.3910 -0.5614
  299MOL0     C40236   0.946   5.166   5.503 -0.4465  0.6041  0.2710
  299MOL0     C40237   0.834   5.079   5.532 -0.0780 -0.4378  0.2537
  299MOL0     O40238   0.720   5.103   5.449  0.3605 -0.7841  1.3246
  299MOL0     C40239   0.613   5.003   5.468  0.2904  0.3120  0.0178
  299MOL0     C40240   0.473   5.024   5.398  0.3983  0.5330  0.7636
  299MOL0     C40241   0.391   4.902   5.418  0.5662 -0.2597 -0.4196
  299MOL0     C40242   0.259   4.887   5.337 -0.3720 -0.4726  0.2737
  299MOL0     C40243   0.156   4.782   5.364  0.9228 -0.3563 -0.3118
  299MOL0     C40244   0.097   4.794   5.506  0.0816 -0.2698  0.6484
  299MOL0     C40245  -0.031   4.728   5.534 -0.0137 -0.0423  0.4219
  299MOL0     C40246  -0.154   4.803   5.501 -1.0507 -0.3633 -0.2290
  299MOL0     N40247  -0.269   4.705   5.515  0.1444 -0.2178  0.4112
  299MOL0     C40248  -0.332   4.679   5.631 -0.4315  0.3610  0.4567
  299MOL0     C40249  -0.414   4.563   5.610 -0.3494  0.0925  0.1189
  299MOL0     C40250  -0.466   4.470   5.711  0.4303 -0.7700  0.4168
  299MOL0     C40251  -0.577   4.526   5.789 -0.5509 -0.8776  0.5249
  299MOL0     C40252  -0.684   4.430   5.834 -0.4943 -0.2530  0.6291
  299MOL0     C40253  -0.812   4.494   5.878 -0.3024 -0.2932  0.9945
  299MOL0     O40254  -0.904   4.393   5.910  0.4571 -0.3463 -0.3427
  299MOL0     C40255  -0.971   4.399   6.032 -0.2591 -0.4988 -0.0114
  299MOL0     C40256  -0.947   4.491   6.132 -0.2870 -0.0238 -0.0269
  299MOL0     C40257  -1.020   4.486   6.252 -0.0898 -0.5491  0.0223
  299MOL0     C40258  -0.973   4.569   6.373 -0.4608 -0.1351  0.4607
  299MOL0     C40259  -1.140   4.409   6.254  0.4149  1.2518 -0.2066
  299MOL0     C40260  -1.233   4.412   6.367 -0.4741  0.1421 -0.2073
  299MOL0     O40261  -1.246   4.533   6.431 -0.6391 -0.1505 -0.0391
  299MOL0     C40262  -1.354   4.544   6.508 -1.0311  0.1296  0.0756
  299MOL0     C40263  -1.353   4.474   6.635  0.6770  0.2446  0.5692
  299MOL0     C40264  -1.476   4.472   6.700  0.0112 -0.0590 -0.3656
  299MOL0     C40265  -1.589   4.539   6.662  0.8653  0.2279 -0.7474
  299MOL0     O40266  -1.700   4.523   6.745 -0.2100 -0.1472  0.2359
  299MOL0     C40267  -1.785   4.635   6.766 -0.0136 -0.2615 -0.1650
  299MOL0     C40268  -1.730   4.741   6.847 -0.2552 -0.4211 -0.6833
  299MOL0     C40269  -1.793   4.879   6.827  0.2562 -0.0272 -0.2914
  299MOL0     C40270  -1.717   4.987   6.899 -0.4840 -0.6599  0.3772
  299MOL0     C40271  -1.804   5.114   6.935 -0.3604  0.9374 -0.2049
  299MOL0     C40272  -1.862   5.170   6.799  0.3158 -0.1979 -0.1561
  299MOL0     C40273  -1.901   5.318   6.829 -0.0591 -0.1401  0.4543
  299MOL0     C40274  -1.935   5.397   6.701 -0.0314 -1.5393  0.3246
  299MOL0    Cl40275  -1.782   5.399   6.578 -0.1687  0.1222  0.3866
  299MOL0     C40276  -1.577   4.620   6.546 -0.6083 -0.7128 -0.9960
  299MOL0     C40277  -1.465   4.620   6.466 -0.2286  0.6794  0.4325
  299MOL0     O40278  -1.313   4.313   6.378 -0.3828 -0.0463 -0.3497
  299MOL0     C40279  -1.162   4.304   6.158  0.1666 -0.0001 -0.2965
  299MOL0     C40280  -1.082   4.305   6.049 -0.3589 -0.3449 -0.1284
  299MOL0     N40281  -0.409   4.538   5.478 -0.2082  0.2302 -0.0075
  299MOL0     N40282  -0.318   4.622   5.418 -0.2613  0.1985 -0.2937
  299MOL0     C40283   0.845   4.979   5.632 -1.1311 -0.3909  0.2862
  299MOL0     C40284   0.973   4.949   5.678 -0.1842  0.4796  0.3007
  299MOL0     C40285   1.287   5.019   5.958 -0.8311  0.6977 -0.4176
  299MOL0     C40286   1.278   5.007   6.099 -0.2464  0.0086  0.1281
  299MOL0     C40287   1.390   4.966   6.169  0.5097 -0.4726 -0.8322
  299MOL0     C40288   1.507   4.937   6.107 -0.1525  0.5546 -1.0669
  299MOL0     O40289   1.601   4.889   6.190 -0.4293 -0.4282 -0.5059
  299MOL0     C40290   1.734   4.898   6.153  0.3912  0.2506  0.0800
  299MOL0     C40291   1.832   4.911   6.273 -0.5111 -0.8644 -1.1461
  299MOL0     C40292   1.829   5.040   6.357  0.2581  0.8408  0.2607
  299MOL0     C40293   1.933   5.031   6.473 -0.9269 -0.1810  0.0635
  299MOL0     C40294   2.066   5.043   6.426 -0.1050  0.5728 -0.0064
  299MOL0     C40295   2.178   5.056   6.370  0.4917  0.1201  0.2084
  299MOL0     C40296   1.509   4.937   5.973  0.5005 -1.3326  0.4667
  299MOL0     C40297   1.410   4.994   5.897  0.7652  0.3462 -0.7122
  299MOL0     H40298   1.144   5.227   5.563 -0.4835 -0.7513 -4.1115
  299MOL0     H40299   0.923   5.238   5.425 -1.6681  0.3273  0.3650
  299MOL0     H40300   0.649   4.907   5.428 -0.6455  0.6658 -1.7950
  299MOL0     H40301   0.581   4.988   5.572  1.9072  0.1495  0.5220
  299MOL0     H40302   0.433   5.119   5.436 -1.3636  0.2466 -0.2305
  299MOL0     H40303   0.490   5.040   5.291 -1.2870 -0.0788  0.3690
  299MOL0     H40304   0.453   4.820   5.380 -0.2263 -1.5394  0.8943
  299MOL0     H40305   0.370   4.891   5.525  4.1487  3.5942  0.9492
  299MOL0     H40306   0.218   4.988   5.341 -1.0784 -0.7069 -0.6493
  299MOL0     H40307   0.286   4.869   5.233 -2.4433  3.0320 -1.0273
  299MOL0     H40308   0.069   4.793   5.298 -0.7703  4.2447  2.2400
  299MOL0     H40309   0.196   4.680   5.357  1.1606 -0.5170  2.3616
  299MOL0     H40310   0.159   4.744   5.581 -0.2067 -1.0652  0.3674
  299MOL0     H40311   0.088   4.899   5.537 -0.5453 -0.4773  1.1930
  299MOL0     H40312  -0.023   4.636   5.475  6.4850  0.4220 -0.1076
  299MOL0     H40313  -0.034   4.705   5.641  0.3326  2.7272  1.0898
  299MOL0     H40314  -0.143   4.834   5.397  1.9091  0.7611  0.3014
  299MOL0     H40315  -0.170   4.889   5.567  0.4552  0.3841 -0.7856
  299MOL0     H40316  -0.311   4.719   5.730 -0.7119 -1.8682  1.4818
  299MOL0     H40317  -0.499   4.378   5.661 -0.1859 -0.4605  0.2443
  299MOL0     H40318  -0.375   4.452   5.770  1.8082 -0.5172 -1.5442
  299MOL0     H40319  -0.628   4.607   5.736  1.3726 -0.1420 -0.2609
  299MOL0     H40320  -0.531   4.569   5.878  0.0462  1.2398 -0.7354
  299MOL0     H40321  -0.641   4.375   5.918  2.1836 -0.1105 -0.5382
  299MOL0     H40322  -0.706   4.364   5.751 -1.7608  0.1521  0.6245
  299MOL0     H40323  -0.860   4.550   5.798 -1.4803 -0.9501  1.2176
  299MOL0     H40324  -0.781   4.562   5.958  1.3131 -1.6808  1.6337
  299MOL0     H40325  -0.865   4.561   6.125 -0.7082  0.4854  0.0323
  299MOL0     H40326  -0.866   4.589   6.363 -0.0914 -2.3733 -0.5381
  299MOL0     H40327  -1.023   4.667   6.375  1.1557  0.8692 -2.3701
  299MOL0     H40328  -1.003   4.521   6.467 -2.6454  1.6565  0.7784
  299MOL0     H40329  -1.273   4.409   6.670 -0.3867  0.7726  4.4241
  299MOL0     H40330  -1.474   4.417   6.793  1.4984  1.2243  0.4214
  299MOL0     H40331  -1.818   4.680   6.672  0.6710  0.6521  0.0198
  299MOL0     H40332  -1.861   4.588   6.828  2.3954 -0.9927  2.4194
  299MOL0     H40333  -1.733   4.709   6.951 -1.8302  0.4846 -0.4251
  299MOL0     H40334  -1.625   4.754   6.817  0.6725  1.8038  2.9617
  299MOL0     H40335  -1.896   4.879   6.862  0.8278  1.9745  1.5914
  299MOL0     H40336  -1.792   4.902   6.720  0.9270 -1.1678 -0.5540
  299MOL0     H40337  -1.682   4.939   6.991  3.4863 -2.7124 -1.9376
  299MOL0     H40338  -1.636   5.024   6.836 -1.6466  0.0994 -0.7345
  299MOL0     H40339  -1.741   5.195   6.972  0.5315  0.3075 -0.3166
  299MOL0     H40340  -1.877   5.091   7.014  0.0560 -0.7613 -0.2754
  299MOL0     H40341  -1.789   5.165   6.718  1.7285  0.6171  1.0257
  299MOL0     H40342  -1.953   5.117   6.768 -0.0385  0.1925  0.1917
  299MOL0     H40343  -1.827   5.375   6.887 -0.0678 -0.1940  0.5190
  299MOL0     H40344  -1.985   5.333   6.897  0.2304 -0.2544  0.8468
  299MOL0     H40345  -1.956   5.502   6.724  1.3952 -1.5626  2.0239
  299MOL0     H40346  -2.021   5.353   6.650 -0.1479 -0.6646 -0.2529
  299MOL0     H40347  -1.663   4.674   6.508 -0.6740 -1.9807 -2.7590
  299MOL0     H40348  -1.470   4.676   6.372 -1.0580  0.9629  0.6371
  299MOL0     H40349  -1.232   4.221   6.151  2.1042 -1.7068 -0.0638
  299MOL0     H40350  -1.116   4.237   5.971 -2.5044  1.2570 -0.6615
  299MOL0     H40351   0.763   4.918   5.667 -1.4194 -0.3229 -0.2653
  299MOL0     H40352   0.991   4.860   5.738 -1.5950  0.8413  1.3145
  299MOL0     H40353   1.180   5.018   6.144  0.0699 -1.9821  1.4474
  299MOL0     H40354   1.372   4.966   6.276 -1.3532  4.6725 -0.8798
  299MOL0     H40355   1.756   4.804   6.101  0.7674  0.5360 -0.2766
  299MOL0     H40356   1.749   4.986   6.091  2.4388  0.4782  0.8077
  299MOL0     H40357   1.935   4.894   6.241  0.7844  1.8677  1.1328
  299MOL0     H40358   1.810   4.828   6.341 -0.8221  0.2789  0.2035
  299MOL0     H40359   1.730   5.053   6.402  0.9273  0.3212  1.9692
  299MOL0     H40360   1.839   5.123   6.288  1.7973 -1.1745 -2.1172
  299MOL0     H40361   1.937   4.935   6.524  2.4968  1.0261  2.4289
  299MOL0     H40362   1.911   5.103   6.552  3.1222 -1.4710  2.6812
  299MOL0     H40363   2.275   5.077   6.329 -0.6724  2.1385 -1.7045
  299MOL0     H40364   1.605   4.917   5.927 -0.5143 -4.3677 -0.5522
  299MOL0     H40365   1.438   5.010   5.793 -0.7624 -1.5338 -1.4499
  300MOL0     O40366   8.321   2.560  10.067 -0.2619 -0.3583 -0.0947
  300MOL0     C40367   8.375   2.621  10.156  0.1374  0.3731 -0.3097
  300MOL0     O40368   8.315   2.692  10.254  0.3875  0.2336 -0.0413
  300MOL0     C40369   8.172   2.697  10.257 -0.7833 -0.3577  0.4185
  300MOL0     C40370   8.115   2.823  10.286 -0.1595  0.5815 -0.5654
  300MOL0     C40371   7.977   2.837  10.314 -0.4279 -0.2559  0.1071
  300MOL0     C40372   7.898   2.729  10.317 -0.1750  0.0511  0.7944
  300MOL0     O40373   7.770   2.739  10.346  0.4111  0.1534 -0.3271
  300MOL0     C40374   7.714   2.654  10.453 -0.3443  0.1342 -0.0204
  300MOL0     C40375   7.561   2.664  10.466 -0.1354  0.5629 -0.0493
  300MOL0     C40376   7.524   2.763  10.576 -0.5119 -0.0046  0.1141
  300MOL0     C40377   7.388   2.817  10.544 -0.2634 -0.4960 -0.1410
  300MOL0     C40378   7.337   2.913  10.655  0.5634  0.5274 -0.3273
  300MOL0     C40379   7.266   2.827  10.769  1.0480 -0.6232 -0.8909
  300MOL0     C40380   7.218   2.910  10.890 -0.2616  0.5212  0.0611
  300MOL0     C40381   7.171   2.814  11.008 -0.6721  0.1322 -0.2846
  300MOL0     N40382   7.027   2.790  10.993  0.2832 -0.2710  0.0779
  300MOL0     C40383   6.968   2.674  10.961  0.9638  0.2851  0.1227
  300MOL0     C40384   6.831   2.699  10.961 -0.5769  0.7896 -0.2053
  300MOL0     C40385   6.727   2.590  10.938 -0.7664  0.1512  0.2242
  300MOL0     C40386   6.725   2.497  11.070 -0.3168  0.3193  0.0120
  300MOL0     C40387   6.691   2.558  11.201  0.3126  1.5077  0.9998
  300MOL0     C40388   6.560   2.632  11.191  0.5339 -0.6979 -0.9096
  300MOL0     O40389   6.460   2.559  11.122  0.2152 -0.5375  0.1080
  300MOL0     C40390   6.340   2.533  11.185 -0.4956  0.1204 -0.1468
  300MOL0     C40391   6.304   2.556  11.320 -0.2080  0.3393 -0.2264
  300MOL0     C40392   6.175   2.528  11.374 -0.5328 -0.1588  0.5101
  300MOL0     C40393   6.165   2.524  11.528  0.2433 -0.6370  0.0217
  300MOL0     C40394   6.076   2.487  11.284 -0.6895 -0.1452  0.1771
  300MOL0     C40395   5.938   2.469  11.326  1.2944  0.8835  0.3580
  300MOL0     O40396   5.894   2.552  11.427 -0.6026  0.3045 -0.1200
  300MOL0     C40397   5.761   2.543  11.462  0.0997 -1.3777 -0.6119
  300MOL0     C40398   5.675   2.651  11.439 -0.1947 -1.2972 -0.0630
  300MOL0     C40399   5.543   2.643  11.488  0.4053 -0.0756 -0.3890
  300MOL0     C40400   5.490   2.526  11.546 -0.7857  0.3767  0.1794
  300MOL0     O40401   5.360   2.512  11.591  0.1164  0.1740 -0.1304
  300MOL0     C40402   5.262   2.615  11.575 -0.8275  0.7110  0.5284
  300MOL0     C40403   5.160   2.574  11.688  0.3295 -0.1929 -0.1676
  300MOL0     C40404   5.043   2.675  11.664 -0.4545 -0.1457  0.2224
  300MOL0     C40405   4.914   2.638  11.719  0.2780 -0.3611 -0.1205
  300MOL0     C40406   4.792   2.720  11.655 -0.1238  0.5873  0.0020
  300MOL0     C40407   4.663   2.679  11.729 -0.0653 -0.8788  0.1224
  300MOL0     C40408   4.546   2.747  11.663 -0.1757  0.6740  0.2546
  300MOL0     C40409   4.541   2.898  11.688 -0.6783 -0.0778  0.6129
  300MOL0    Cl40410   4.411   2.970  11.576 -0.3719  0.5644  0.1623
  300MOL0     C40411   5.576   2.420  11.556 -0.2629  0.1004  0.5395
  300MOL0     C40412   5.709   2.424  11.516 -0.0335  0.5858  0.6848
  300MOL0     O40413   5.874   2.394  11.257  0.0801  0.3389 -0.6934
  300MOL0     C40414   6.110   2.468  11.148  0.2210  0.3643  0.1108
  300MOL0     C40415   6.240   2.488  11.107  0.0519  0.3728  1.1042
  300MOL0     N40416   6.821   2.835  10.987  0.0295 -0.5864 -0.1769
  300MOL0     N40417   6.935   2.883  11.002  0.2976  0.0042 -0.5470
  300MOL0     C40418   7.948   2.608  10.273 -0.3803  0.9146  0.0152
  300MOL0     C40419   8.083   2.590  10.246 -0.6854  0.2941  0.0152
  300MOL0     C40420   8.525   2.609  10.167 -0.2397 -1.2900  0.6378
  300MOL0     C40421   8.594   2.671  10.271 -0.8190  0.3898 -0.0671
  300MOL0     C40422   8.740   2.666  10.272 -0.0014 -0.2710  0.1357
  300MOL0     C40423   8.816   2.594  10.172 -0.5174  0.3809 -0.2677
  300MOL0     O40424   8.951   2.594  10.158  0.0998  0.2127 -0.4968
  300MOL0     C40425   8.994   2.728  10.127 -0.5061 -0.1172  0.0695
  300MOL0     C40426   9.139   2.734  10.109 -0.7717  0.5013  1.2359
  300MOL0     C40427   9.186   2.655   9.984  0.7020  0.2005 -0.1746
  300MOL0     C40428   9.341   2.646   9.977 -0.3323 -0.5134 -0.2553
  300MOL0     C40429   9.400   2.758   9.903  1.0766  0.3474  0.0728
  300MOL0     C40430   9.458   2.847   9.846  0.2960 -0.3261  0.0542
  300MOL0     C40431   8.736   2.530  10.073 -0.6347 -0.6947  0.4464
  300MOL0     C40432   8.600   2.538  10.072  0.4177 -0.0891 -0.3458
  300MOL0     H40433   8.184   2.906  10.274  1.7988 -0.9912 -0.8176
  300MOL0     H40434   7.933   2.936  10.323 -0.6399 -0.4306  1.0454
  300MOL0     H40435   7.731   2.553  10.415 -0.6789  0.4803 -1.1477
  300MOL0     H40436   7.761   2.668  10.551  0.1466 -1.9396  0.0890
  300MOL0     H40437   7.539   2.707  10.368 -0.7487  1.4302  0.4566
  300MOL0     H40438   7.511   2.567  10.470 -0.7971  0.8730 -0.5765
  300MOL0     H40439   7.532   2.698  10.664  2.8218 -0.4270 -0.3652
  300MOL0     H40440   7.589   2.851  10.575  0.6266 -0.7015 -3.6798
  300MOL0     H40441   7.381   2.868  10.448 -0.6037 -0.1649  0.0563
  300MOL0     H40442   7.322   2.730  10.542 -0.5271 -0.3693  1.6246
  300MOL0     H40443   7.410   2.987  10.689 -0.3260  0.8809  0.8680
  300MOL0     H40444   7.259   2.976  10.611  0.4433  1.9948  1.8405
  300MOL0     H40445   7.178   2.774  10.732  0.0654  0.9468 -0.8638
  300MOL0     H40446   7.332   2.753  10.817  0.2022  0.5923  2.3612
  300MOL0     H40447   7.296   2.978  10.924  2.9888 -3.0548  0.5471
  300MOL0     H40448   7.134   2.966  10.849 -2.3172 -3.6983 -2.1253
  300MOL0     H40449   7.205   2.858  11.103 -0.0513 -3.3775  1.2980
  300MOL0     H40450   7.231   2.723  11.000 -1.2801 -0.0792 -3.9032
  300MOL0     H40451   7.016   2.580  10.935  1.4585  1.2313 -2.6980
  300MOL0     H40452   6.625   2.620  10.909  1.0872  4.1999 -3.3256
  300MOL0     H40453   6.765   2.527  10.857 -0.8057 -0.7835  0.9209
  300MOL0     H40454   6.822   2.445  11.072 -0.8739 -0.7600 -0.1289
  300MOL0     H40455   6.655   2.414  11.056 -0.7530  0.7433 -0.3383
  300MOL0     H40456   6.772   2.625  11.233  1.0543  0.3431  1.6019
  300MOL0     H40457   6.682   2.477  11.274  0.5748  0.7893  0.2468
  300MOL0     H40458   6.560   2.732  11.149 -0.6813  1.0386  2.7658
  300MOL0     H40459   6.533   2.647  11.296 -2.9559  1.3106 -1.9436
  300MOL0     H40460   6.369   2.602  11.394  0.1408 -0.4877 -0.0039
  300MOL0     H40461   6.126   2.619  11.566 -2.9918 -1.3023 -1.3335
  300MOL0     H40462   6.082   2.458  11.556 -0.5680  1.1901  2.2663
  300MOL0     H40463   6.261   2.504  11.576  1.5199  2.2648 -1.0872
  300MOL0     H40464   5.715   2.746  11.405 -0.5882 -1.9070 -2.3787
  300MOL0     H40465   5.487   2.736  11.484 -1.1202 -0.9890 -1.1341
  300MOL0     H40466   5.296   2.717  11.595 -1.3463  0.7584  1.1865
  300MOL0     H40467   5.218   2.613  11.475 -2.7899  3.1570  1.2420
  300MOL0     H40468   5.122   2.472  11.677 -0.7936 -0.1034  2.3718
  300MOL0     H40469   5.199   2.583  11.789 -2.3386 -2.3491  1.1779
  300MOL0     H40470   5.018   2.691  11.559  0.1392 -3.2329 -0.4757
  300MOL0     H40471   5.069   2.770  11.713 -0.4554 -1.1136  2.2228
  300MOL0     H40472   4.904   2.530  11.707  0.1549 -0.7791  3.0122
  300MOL0     H40473   4.907   2.649  11.827 -2.4981  1.0992 -0.3280
  300MOL0     H40474   4.787   2.699  11.548  2.3320  2.7497 -0.6405
  300MOL0     H40475   4.824   2.825  11.659 -1.1950  0.9404 -0.3861
  300MOL0     H40476   4.639   2.572  11.739  0.1563 -0.8213  1.5586
  300MOL0     H40477   4.679   2.702  11.835  0.7583  0.3379 -0.2509
  300MOL0     H40478   4.448   2.719  11.700 -1.7402  2.5195 -2.1577
  300MOL0     H40479   4.554   2.722  11.556  0.3546 -3.5100  1.1094
  300MOL0     H40480   4.639   2.942  11.672 -2.4844  3.2215 -2.8738
  300MOL0     H40481   4.526   2.913  11.795  4.0946 -1.4436  1.7140
  300MOL0     H40482   5.541   2.323  11.589  0.0068  0.1674  1.0269
  300MOL0     H40483   5.766   2.332  11.527 -1.8126 -0.6418 -0.0354
  300MOL0     H40484   6.030   2.439  11.081 -0.5889  1.1977  0.6902
  300MOL0     H40485   6.259   2.465  11.003 -0.6751  1.8754  0.6207
  300MOL0     H40486   7.891   2.519  10.251 -2.7104  3.0800 -3.8933
  300MOL0     H40487   8.138   2.500  10.219  0.1076  1.0825 -1.0827
  300MOL0     H40488   8.557   2.730  10.354  1.2157  0.8392  0.5576
  300MOL0     H40489   8.800   2.712  10.350 -1.9846  0.1770  1.4730
  300MOL0     H40490   8.945   2.764  10.036  0.8163 -1.8253 -1.3916
  300MOL0     H40491   8.973   2.798  10.208 -1.1037  0.0625 -0.2332
  300MOL0     H40492   9.186   2.700  10.201 -3.0393  0.7638  2.5608
  300MOL0     H40493   9.174   2.837  10.097  0.3754  0.6192  4.5994
  300MOL0     H40494   9.143   2.691   9.890  0.9567 -1.4878 -0.9696
  300MOL0     H40495   9.140   2.556   9.973  1.1909  0.0052 -0.5161
  300MOL0     H40496   9.359   2.550   9.928 -1.4806 -3.3442  4.2997
  300MOL0     H40497   9.388   2.635  10.075 -0.5505 -0.9965 -0.2007
  300MOL0     H40498   9.520   2.931   9.820  0.6989 -1.1507 -1.7922
  300MOL0     H40499   8.792   2.491   9.989 -0.1564  0.9878 -0.0607
  300MOL0     H40500   8.549   2.482   9.994  0.8710 -2.2105  0.7998
  301MOL0     O40501   8.393   4.846   7.090 -0.3589 -0.0194 -0.3309
  301MOL0     C40502   8.433   4.785   6.999 -0.7320  0.5150 -0.1322
  301MOL0     O40503   8.366   4.750   6.882 -0.2665 -0.7231  0.1089
  301MOL0     C40504   8.235   4.778   6.859  1.0679 -0.0156  0.7140
  301MOL0     C40505   8.124   4.726   6.929  0.1083 -0.0512 -0.7547
  301MOL0     C40506   7.991   4.771   6.917 -0.4392  0.3901 -0.0593
  301MOL0     C40507   7.966   4.869   6.824  0.2036  0.5000  0.0557
  301MOL0     O40508   7.846   4.941   6.812  0.5375 -0.0198 -0.0076
  301MOL0     C40509   7.725   4.891   6.863 -0.4247  1.0115 -0.0344
  301MOL0     C40510   7.623   4.963   6.777 -0.0721 -0.3534  0.9895
  301MOL0     C40511   7.642   5.116   6.784  0.8483  0.4285 -0.3112
  301MOL0     C40512   7.507   5.190   6.771 -0.3104  0.0885 -1.1457
  301MOL0     C40513   7.540   5.340   6.778 -0.8393 -0.6758 -0.2335
  301MOL0     C40514   7.419   5.422   6.835 -0.2310  0.8066  0.6024
  301MOL0     C40515   7.292   5.397   6.755  0.1391 -0.6464 -0.4521
  301MOL0     C40516   7.181   5.497   6.782  0.0853 -0.2892  0.4666
  301MOL0     N40517   7.057   5.458   6.722  0.1379  0.3290  0.9859
  301MOL0     C40518   7.038   5.447   6.586  0.3483 -0.3309 -0.1132
  301MOL0     C40519   6.915   5.399   6.575 -0.2515  0.7646  0.1299
  301MOL0     C40520   6.837   5.335   6.462  0.3232  0.1670 -0.0406
  301MOL0     C40521   6.889   5.203   6.393  0.5333 -0.4969  0.1168
  301MOL0     C40522   6.941   5.103   6.494 -1.6083  1.1152  0.2139
  301MOL0     C40523   6.835   5.054   6.585  0.1494  0.6003 -0.1336
  301MOL0     O40524   6.882   4.939   6.666  0.0150 -0.6138 -0.0360
  301MOL0     C40525   6.963   4.956   6.775  0.2909  0.0020 -0.2786
  301MOL0     C40526   7.025   4.839   6.824  0.1349  0.1492 -0.1789
  301MOL0     C40527   7.119   4.844   6.927 -0.1408 -0.0731  0.2033
  301MOL0     C40528   7.171   4.714   6.991 -0.3839  0.3673  0.7486
  301MOL0     C40529   7.168   4.975   6.964  0.4325 -0.1118  0.2485
  301MOL0     C40530   7.283   5.000   7.060  0.6046  0.4248  1.2556
  301MOL0     O40531   7.320   4.896   7.140 -0.1048  0.6175  0.5877
  301MOL0     C40532   7.446   4.898   7.186 -0.4458  0.8783  0.1178
  301MOL0     C40533   7.495   4.998   7.274  1.3785 -0.3420 -0.1544
  301MOL0     C40534   7.619   4.982   7.331  1.2888  0.3687  0.3255
  301MOL0     C40535   7.712   4.871   7.298  0.1259  0.0915 -0.5880
  301MOL0     O40536   7.828   4.861   7.366 -1.2620 -0.8240 -0.1432
  301MOL0     C40537   7.937   4.821   7.284 -0.0521 -0.1382  1.2471
  301MOL0     C40538   8.058   4.853   7.364 -0.0781 -0.2252 -0.1944
  301MOL0     C40539   8.084   5.001   7.386  0.0347  1.3032  0.5232
  301MOL0     C40540   8.121   5.078   7.259  0.0393 -0.1066 -0.3402
  301MOL0     C40541   8.010   5.177   7.200 -0.5500 -0.1154 -0.4981
  301MOL0     C40542   7.976   5.289   7.293  0.4357  0.1599  0.1238
  301MOL0     C40543   7.874   5.384   7.223  0.8056 -0.1041 -0.2708
  301MOL0     C40544   7.775   5.436   7.332 -0.6182  0.0243  0.5034
  301MOL0    Cl40545   7.871   5.558   7.418 -0.5408  0.2043  0.1655
  301MOL0     C40546   7.665   4.773   7.215 -0.4351  0.1381  0.0235
  301MOL0     C40547   7.534   4.790   7.161  0.3477 -0.2109  0.2214
  301MOL0     O40548   7.325   5.119   7.069  0.6829 -0.4518 -0.1788
  301MOL0     C40549   7.106   5.090   6.912  0.2896  0.0705 -0.8589
  301MOL0     C40550   7.006   5.084   6.815 -0.1581 -0.0996  0.6464
  301MOL0     N40551   6.860   5.390   6.712 -0.0962 -0.0338  0.3804
  301MOL0     N40552   6.950   5.425   6.795 -0.2047  0.3044 -0.1087
  301MOL0     C40553   8.075   4.918   6.742  0.6797  0.3601 -0.2215
  301MOL0     C40554   8.207   4.876   6.768 -0.1451 -0.0703  1.2988
  301MOL0     C40555   8.563   4.726   7.014 -0.0968 -0.0552 -0.3002
  301MOL0     C40556   8.631   4.660   6.908  0.5506  0.8901 -0.7670
  301MOL0     C40557   8.762   4.603   6.937  0.1341  0.2306 -0.9516
  301MOL0     C40558   8.822   4.617   7.066  1.1958 -0.3762 -0.2528
  301MOL0     O40559   8.945   4.583   7.089  0.3303  1.1110  0.2443
  301MOL0     C40560   9.052   4.597   6.993  0.3930 -0.0513 -0.6359
  301MOL0     C40561   9.191   4.593   7.066  0.2858 -0.3476 -0.7092
  301MOL0     C40562   9.206   4.702   7.168 -0.1968 -0.3939  0.2020
  301MOL0     C40563   9.322   4.811   7.160 -0.2405 -0.7460 -0.2223
  301MOL0     C40564   9.456   4.772   7.195 -0.8366  1.3364 -0.1849
  301MOL0     C40565   9.575   4.752   7.221 -0.2842  0.3084  0.2317
  301MOL0     C40566   8.749   4.674   7.169  0.4259 -0.6881 -0.2527
  301MOL0     C40567   8.626   4.731   7.141 -0.7579 -0.0745  0.0766
  301MOL0     H40568   8.145   4.645   6.999 -1.7711 -0.7504 -0.9458
  301MOL0     H40569   7.918   4.734   6.988 -1.8882 -0.9517 -2.1366
  301MOL0     H40570   7.715   4.783   6.856  0.7242  0.8078  1.0756
  301MOL0     H40571   7.729   4.924   6.968  0.0958  3.0946 -0.6458
  301MOL0     H40572   7.640   4.932   6.673  1.7105 -1.1764  1.4820
  301MOL0     H40573   7.522   4.937   6.808 -0.1393  0.6396  1.6414
  301MOL0     H40574   7.681   5.146   6.882  1.2351 -6.6675  2.3084
  301MOL0     H40575   7.702   5.142   6.697 -0.6923 -1.4674 -2.0401
  301MOL0     H40576   7.455   5.180   6.675 -0.0644 -0.6113 -1.2118
  301MOL0     H40577   7.448   5.160   6.858  2.2979  2.3909  1.6576
  301MOL0     H40578   7.622   5.366   6.846  0.8799 -2.3687 -1.5583
  301MOL0     H40579   7.563   5.369   6.675 -0.5566  1.1230  0.3065
  301MOL0     H40580   7.406   5.397   6.940  0.1678 -4.3535 -0.2877
  301MOL0     H40581   7.445   5.527   6.821 -0.2897  0.7385 -0.0746
  301MOL0     H40582   7.317   5.397   6.649  1.0829 -3.3119 -0.2934
  301MOL0     H40583   7.267   5.292   6.774 -1.5802 -0.4568 -1.4162
  301MOL0     H40584   7.213   5.591   6.738  0.5967 -1.1842 -1.1551
  301MOL0     H40585   7.164   5.505   6.890 -2.3575  1.9989  0.0096
  301MOL0     H40586   7.109   5.449   6.504  1.8817 -2.7264  1.0279
  301MOL0     H40587   6.735   5.319   6.498 -0.2227 -0.4220 -1.7401
  301MOL0     H40588   6.828   5.412   6.385 -0.1961 -1.4978 -1.7223
  301MOL0     H40589   6.961   5.219   6.313  0.0710  1.2169  0.0118
  301MOL0     H40590   6.792   5.165   6.357  0.0054  0.9591 -0.0528
  301MOL0     H40591   7.025   5.145   6.551 -0.6515  0.4591 -0.6705
  301MOL0     H40592   6.971   5.029   6.419 -1.1078  3.6228 -2.1944
  301MOL0     H40593   6.753   5.032   6.516  0.6574  0.5666 -0.7386
  301MOL0     H40594   6.796   5.124   6.659  1.7228  0.6589  0.6795
  301MOL0     H40595   6.998   4.739   6.790  0.9844 -0.1459  0.0067
  301MOL0     H40596   7.169   4.717   7.100 -1.8079  0.4073  0.7291
  301MOL0     H40597   7.122   4.621   6.961  0.5792 -0.1362  0.6599
  301MOL0     H40598   7.278   4.715   6.966 -0.5094 -0.1189  0.1859
  301MOL0     H40599   7.432   5.086   7.283 -0.8293 -1.7767 -0.6433
  301MOL0     H40600   7.658   5.062   7.394  2.0298 -0.4376  0.9303
  301MOL0     H40601   7.923   4.717   7.253 -2.3114  0.7229 -0.9775
  301MOL0     H40602   7.940   4.886   7.196 -0.1763  1.4787  2.3990
  301MOL0     H40603   8.052   4.807   7.463 -0.2241 -0.7724 -0.4567
  301MOL0     H40604   8.147   4.813   7.315 -1.0280 -0.0817 -2.1315
  301MOL0     H40605   8.161   5.004   7.464 -0.7300 -0.7072  1.4171
  301MOL0     H40606   7.991   5.043   7.426 -0.5294 -0.9616  1.7771
  301MOL0     H40607   8.200   5.149   7.288  1.5183 -1.2077 -1.4825
  301MOL0     H40608   8.166   5.011   7.185 -0.4311  1.8723 -2.5375
  301MOL0     H40609   7.920   5.115   7.188 -2.5085  2.7985 -2.3219
  301MOL0     H40610   8.052   5.232   7.115  0.8529  2.1792  1.5306
  301MOL0     H40611   7.918   5.245   7.375 -1.1915  0.6238 -0.7476
  301MOL0     H40612   8.063   5.350   7.320 -0.8229  1.8231  0.5490
  301MOL0     H40613   7.797   5.338   7.160  0.9799  0.3629 -0.8308
  301MOL0     H40614   7.915   5.469   7.169 -2.3992  2.4452  0.9320
  301MOL0     H40615   7.740   5.365   7.407  1.1329  0.6712  1.9992
  301MOL0     H40616   7.681   5.470   7.286 -1.4128 -3.4853 -0.8713
  301MOL0     H40617   7.723   4.682   7.201  2.3956  1.3431  2.5635
  301MOL0     H40618   7.492   4.721   7.089 -1.7127  0.5542  0.6147
  301MOL0     H40619   7.134   5.186   6.955 -1.9297  0.1171  0.6539
  301MOL0     H40620   6.964   5.175   6.775  2.3730  0.7516 -0.2786
  301MOL0     H40621   8.048   4.980   6.658  0.1051 -1.3443 -1.3530
  301MOL0     H40622   8.292   4.917   6.715 -1.4214 -1.7731 -2.4278
  301MOL0     H40623   8.592   4.658   6.807 -0.3598  1.3939 -0.4421
  301MOL0     H40624   8.814   4.571   6.847  0.6111 -3.0449  0.3553
  301MOL0     H40625   9.040   4.510   6.926 -0.4483 -1.6544  1.4762
  301MOL0     H40626   9.050   4.694   6.943  2.4193  0.8890  1.0126
  301MOL0     H40627   9.265   4.607   6.986  1.3171 -3.5346 -0.4566
  301MOL0     H40628   9.220   4.495   7.103  3.3305  0.1406 -1.4921
  301MOL0     H40629   9.222   4.653   7.264  1.8532  1.0514  0.6505
  301MOL0     H40630   9.115   4.763   7.172 -0.2447 -0.4427 -0.0905
  301MOL0     H40631   9.294   4.882   7.238  0.3309 -2.3670  1.5305
  301MOL0     H40632   9.323   4.862   7.063 -0.8970 -1.1930 -0.4725
  301MOL0     H40633   9.679   4.733   7.236 -0.6222 -0.0691  2.6730
  301MOL0     H40634   8.789   4.681   7.269 -2.3816 -0.4297  0.9547
  301MOL0     H40635   8.581   4.770   7.231  1.3251 -2.3714  2.2873
  302MOL0     O40636   5.911   1.673   7.973  0.4306  0.2359  0.4723
  302MOL0     C40637   5.849   1.599   7.899  0.4449  0.1925  0.0720
  302MOL0     O40638   5.739   1.637   7.819 -0.2671  0.1168  0.0547
  302MOL0     C40639   5.685   1.759   7.835  0.1261 -0.1929 -0.5850
  302MOL0     C40640   5.671   1.837   7.716 -0.1362  0.2258 -0.0748
  302MOL0     C40641   5.596   1.956   7.718  0.0113  1.0743 -0.0899
  302MOL0     C40642   5.529   1.995   7.838 -0.4692  0.5482  0.3599
  302MOL0     O40643   5.468   2.112   7.854  0.9781  0.4271  0.4567
  302MOL0     C40644   5.514   2.221   7.788  0.3674 -0.6579  0.4115
  302MOL0     C40645   5.475   2.358   7.862  0.6052  0.3178  0.5016
  302MOL0     C40646   5.328   2.379   7.831  0.0695 -0.2159 -0.1709
  302MOL0     C40647   5.272   2.525   7.870  0.3755  0.4666 -0.1989
  302MOL0     C40648   5.346   2.638   7.806  0.4103 -0.7850 -0.5766
  302MOL0     C40649   5.306   2.765   7.869  0.0133 -0.4680 -0.2198
  302MOL0     C40650   5.401   2.886   7.824  0.1300  0.3293  0.7023
  302MOL0     C40651   5.329   2.970   7.720 -0.4250  1.3724  0.2939
  302MOL0     N40652   5.257   3.079   7.778 -0.2760 -0.1289  0.2271
  302MOL0     C40653   5.133   3.060   7.832  0.4747  0.5990  0.0063
  302MOL0     C40654   5.109   3.174   7.914  0.5232  0.1093  0.7112
  302MOL0     C40655   4.982   3.207   7.978  0.3770 -0.2369  0.1361
  302MOL0     C40656   4.873   3.209   7.869 -0.1838  0.3916 -0.0532
  302MOL0     C40657   4.729   3.245   7.921 -0.7609  0.1074  0.0392
  302MOL0     C40658   4.633   3.273   7.807 -0.4977  0.8874  0.8669
  302MOL0     O40659   4.510   3.325   7.868 -0.9301 -0.2567  0.6842
  302MOL0     C40660   4.406   3.361   7.789  0.3444  0.1283  0.3729
  302MOL0     C40661   4.398   3.361   7.654  0.0162 -0.6063  0.0966
  302MOL0     C40662   4.285   3.406   7.589 -0.5861  0.4789  0.1427
  302MOL0     C40663   4.294   3.399   7.432 -0.7272 -0.6193 -1.2753
  302MOL0     C40664   4.175   3.454   7.655  0.8558  1.2559 -0.0906
  302MOL0     C40665   4.054   3.498   7.594  0.4999  0.2175 -0.5825
  302MOL0     O40666   3.960   3.546   7.678 -0.1422  0.8923  0.2854
  302MOL0     C40667   3.852   3.607   7.623  1.0547 -0.0153  0.6212
  302MOL0     C40668   3.748   3.529   7.570 -0.5019 -0.1198  0.1914
  302MOL0     C40669   3.636   3.592   7.521  0.5859 -0.0519  0.0168
  302MOL0     C40670   3.613   3.722   7.548  1.0756 -0.2138 -0.1516
  302MOL0     O40671   3.502   3.783   7.497 -0.4675  0.2326  0.4202
  302MOL0     C40672   3.408   3.839   7.586 -0.0044 -0.1776  0.4316
  302MOL0     C40673   3.324   3.942   7.508 -0.2685 -0.4736 -0.9367
  302MOL0     C40674   3.199   3.882   7.431  0.5871  0.4787  0.1122
  302MOL0     C40675   3.243   3.790   7.312  0.5351 -0.1926 -0.3659
  302MOL0     C40676   3.132   3.763   7.218  0.9857  0.0286  0.7090
  302MOL0     C40677   3.170   3.683   7.097 -0.4127  0.1755  0.0968
  302MOL0     C40678   3.052   3.623   7.010 -0.5511 -0.6383 -1.0988
  302MOL0     C40679   3.045   3.697   6.873  1.1446  0.3212 -0.3671
  302MOL0    Cl40680   2.909   3.631   6.769  0.1054  0.2482 -0.4502
  302MOL0     C40681   3.712   3.798   7.607 -0.2901  0.2507  0.1452
  302MOL0     C40682   3.832   3.742   7.653  0.2627  0.6068  0.0369
  302MOL0     O40683   4.055   3.513   7.470  0.3139 -0.2465 -0.1769
  302MOL0     C40684   4.186   3.457   7.794  0.3354 -0.1408  0.2081
  302MOL0     C40685   4.298   3.410   7.861 -0.7322 -0.2554  0.4150
  302MOL0     N40686   5.226   3.253   7.901  0.0903  0.0263 -0.1865
  302MOL0     N40687   5.316   3.196   7.827  0.0021 -0.2373 -0.3293
  302MOL0     C40688   5.553   1.914   7.953 -1.1903 -0.8112 -0.1083
  302MOL0     C40689   5.624   1.798   7.950 -0.2960 -0.3076 -0.1476
  302MOL0     C40690   5.908   1.464   7.874  0.5135 -0.5002  0.6637
  302MOL0     C40691   6.024   1.420   7.941 -0.0863  0.6926  0.1567
  302MOL0     C40692   6.084   1.295   7.908  0.4456 -0.2553  0.7782
  302MOL0     C40693   6.032   1.219   7.806  0.3520 -0.2847  0.2091
  302MOL0     O40694   6.074   1.093   7.765 -0.1959  0.3478 -0.0756
  302MOL0     C40695   6.204   1.052   7.807  1.0634 -0.2530  1.1132
  302MOL0     C40696   6.216   0.899   7.777  0.7961  0.0210 -0.4339
  302MOL0     C40697   6.358   0.852   7.748 -0.2507  0.5953 -0.5513
  302MOL0     C40698   6.369   0.697   7.723 -0.1885 -0.2402  0.2997
  302MOL0     C40699   6.503   0.651   7.737 -0.0430 -0.1692 -0.2640
  302MOL0     C40700   6.624   0.628   7.742  0.3161  1.3624 -0.9480
  302MOL0     C40701   5.911   1.258   7.738  0.0886 -0.5610  0.2568
  302MOL0     C40702   5.853   1.382   7.768 -0.2534 -0.5478 -0.2793
  302MOL0     H40703   5.718   1.811   7.621 -2.6390 -0.1758 -1.2914
  302MOL0     H40704   5.598   2.000   7.619 -1.4412  1.0356 -0.1573
  302MOL0     H40705   5.624   2.219   7.782  0.5127  2.9539 -0.5487
  302MOL0     H40706   5.491   2.226   7.681 -0.3807 -1.9122  0.5057
  302MOL0     H40707   5.486   2.345   7.970  0.8312  2.0172  0.7177
  302MOL0     H40708   5.529   2.441   7.815 -4.1752  1.5533 -3.6710
  302MOL0     H40709   5.309   2.360   7.725  0.7216 -0.8878 -0.1683
  302MOL0     H40710   5.281   2.303   7.894  0.3582 -0.7042 -0.5403
  302MOL0     H40711   5.167   2.526   7.840  0.3759 -2.1614 -0.5749
  302MOL0     H40712   5.268   2.522   7.979  1.5368 -6.2495  0.1052
  302MOL0     H40713   5.452   2.637   7.834  0.3525 -0.0027 -0.3173
  302MOL0     H40714   5.329   2.619   7.699 -1.0198 -1.8287 -0.1905
  302MOL0     H40715   5.201   2.796   7.865  0.7424  3.0913  2.8407
  302MOL0     H40716   5.333   2.752   7.974  0.1427 -2.0459 -0.4280
  302MOL0     H40717   5.422   2.948   7.912 -2.7872  0.9541  1.0432
  302MOL0     H40718   5.491   2.840   7.780  0.2377  0.2569  0.9929
  302MOL0     H40719   5.265   2.916   7.649  0.1557  0.9157  0.1061
  302MOL0     H40720   5.404   3.013   7.653  0.8249 -1.4311 -0.2662
  302MOL0     H40721   5.054   2.991   7.806 -1.2617  1.8950  1.5231
  302MOL0     H40722   4.950   3.153   8.067  1.1839  0.1766  0.6906
  302MOL0     H40723   4.998   3.310   8.009  2.4383 -1.0836  2.1564
  302MOL0     H40724   4.862   3.111   7.820 -1.8503  0.1144  0.8191
  302MOL0     H40725   4.900   3.285   7.795 -1.3905 -1.1528 -2.2164
  302MOL0     H40726   4.741   3.340   7.975 -3.3537  1.6395 -1.8763
  302MOL0     H40727   4.689   3.165   7.984  1.3835  0.2416  1.7109
  302MOL0     H40728   4.618   3.188   7.740  0.3498  1.6836 -0.3832
  302MOL0     H40729   4.673   3.347   7.737 -3.0444  2.4792  0.9459
  302MOL0     H40730   4.483   3.326   7.596 -0.1746 -1.4586  0.3175
  302MOL0     H40731   4.208   3.351   7.385 -0.2693 -0.7871 -1.9703
  302MOL0     H40732   4.302   3.495   7.381 -0.1136 -0.5129 -0.9883
  302MOL0     H40733   4.370   3.328   7.398  2.9319  2.6273 -0.6339
  302MOL0     H40734   3.749   3.420   7.564  0.0262 -0.0918 -0.3309
  302MOL0     H40735   3.552   3.535   7.482 -0.5915  2.1338 -0.8089
  302MOL0     H40736   3.341   3.771   7.638 -1.0539 -0.5947 -1.3717
  302MOL0     H40737   3.463   3.884   7.670  0.6350  1.8994 -1.0010
  302MOL0     H40738   3.276   4.012   7.576  1.0787  0.0143 -0.4651
  302MOL0     H40739   3.398   3.987   7.441 -1.4220 -0.4149 -2.2266
  302MOL0     H40740   3.141   3.964   7.388 -1.1336 -0.8066 -0.0911
  302MOL0     H40741   3.133   3.835   7.504 -0.9388  2.7663  0.3209
  302MOL0     H40742   3.329   3.827   7.255  0.5599  0.3985  0.0463
  302MOL0     H40743   3.281   3.693   7.349 -0.2200 -0.3050  0.1331
  302MOL0     H40744   3.081   3.850   7.175  0.6333  0.0600  1.1782
  302MOL0     H40745   3.057   3.703   7.270  1.1697 -1.0797 -0.2630
  302MOL0     H40746   3.243   3.740   7.037  0.0063 -0.2364  0.2082
  302MOL0     H40747   3.224   3.592   7.124 -0.0492  0.0924 -0.8602
  302MOL0     H40748   2.962   3.631   7.070 -1.9721 -0.4828 -3.1373
  302MOL0     H40749   3.070   3.516   6.996 -3.7119 -0.9425 -4.3898
  302MOL0     H40750   3.129   3.668   6.808  1.3875 -1.7877  0.8347
  302MOL0     H40751   3.040   3.806   6.884  3.6426  0.5683 -1.0789
  302MOL0     H40752   3.690   3.902   7.626 -0.3802  0.7122 -2.1638
  302MOL0     H40753   3.907   3.803   7.702 -0.4149  2.1811 -0.8124
  302MOL0     H40754   4.113   3.508   7.855 -0.0062  0.1182 -0.4051
  302MOL0     H40755   4.301   3.431   7.968 -0.9162  3.5250 -0.2083
  302MOL0     H40756   5.524   1.953   8.050  4.3225 -1.3839  2.1673
  302MOL0     H40757   5.648   1.737   8.037  3.5544 -0.5519 -1.2139
  302MOL0     H40758   6.062   1.486   8.019 -0.8672 -0.5709  1.6762
  302MOL0     H40759   6.170   1.271   7.970  0.5070  1.5606  1.4295
  302MOL0     H40760   6.285   1.107   7.757 -0.7343  1.8515  0.3138
  302MOL0     H40761   6.216   1.068   7.914 -0.7124 -1.2746  1.4977
  302MOL0     H40762   6.153   0.892   7.688 -2.0829  0.8056  1.4065
  302MOL0     H40763   6.176   0.847   7.865  1.2879 -0.4809 -0.5021
  302MOL0     H40764   6.430   0.876   7.827 -0.8859 -0.4703  0.3815
  302MOL0     H40765   6.384   0.894   7.650  3.2696 -0.8834 -0.3977
  302MOL0     H40766   6.343   0.682   7.618 -0.8719 -0.9218  0.5552
  302MOL0     H40767   6.299   0.644   7.788 -0.5975 -0.5181 -0.3522
  302MOL0     H40768   6.729   0.606   7.749  0.0248 -0.3743 -1.3854
  302MOL0     H40769   5.875   1.200   7.654 -2.7655  3.9570 -1.9613
  302MOL0     H40770   5.763   1.410   7.714  1.4581  1.6836 -2.1793
  303MOL0     O40771   0.688   6.111   0.070  0.6931  0.0614 -0.8223
  303MOL0     C40772   0.664   6.232   0.067 -0.6131  0.2250 -0.5091
  303MOL0     O40773   0.741   6.336   0.029 -0.1099 -0.2173  0.3828
  303MOL0     C40774   0.861   6.312  -0.029 -0.0441 -0.3715 -0.0621
  303MOL0     C40775   0.888   6.212  -0.124 -1.2317 -0.0363  0.4697
  303MOL0     C40776   1.016   6.209  -0.193  0.3862  0.0706 -1.1036
  303MOL0     C40777   1.111   6.309  -0.162 -0.4267 -0.6703  0.4713
  303MOL0     O40778   1.231   6.288  -0.226 -0.9185 -0.2626 -0.1013
  303MOL0     C40779   1.281   6.417  -0.277 -0.5396  0.2853  0.2565
  303MOL0     C40780   1.381   6.397  -0.393  0.0197 -0.4356 -0.8296
  303MOL0     C40781   1.311   6.349  -0.513  1.3309  0.7169  1.0739
  303MOL0     C40782   1.402   6.306  -0.633  0.4155  0.0646  0.5163
  303MOL0     C40783   1.332   6.278  -0.766  0.4740  0.3839  0.2521
  303MOL0     C40784   1.259   6.391  -0.827 -0.5543 -0.0611 -0.0461
  303MOL0     C40785   1.224   6.383  -0.973  0.3929  0.0083 -0.4827
  303MOL0     C40786   1.218   6.526  -1.027  0.2042 -0.8271  0.5896
  303MOL0     N40787   1.184   6.528  -1.170  0.5803  0.4677  0.0182
  303MOL0     C40788   1.056   6.519  -1.229 -0.0957 -0.7888  0.0548
  303MOL0     C40789   1.075   6.540  -1.363  1.1325  0.0916  0.2398
  303MOL0     C40790   0.966   6.534  -1.459  0.2741 -0.3676  0.5713
  303MOL0     C40791   0.836   6.605  -1.409  0.0365  0.3116  1.0398
  303MOL0     C40792   0.732   6.607  -1.521  0.2855  0.3317  1.0562
  303MOL0     C40793   0.590   6.628  -1.473 -0.0487  0.1024  1.2658
  303MOL0     O40794   0.517   6.638  -1.592 -0.5854  0.4961  0.1240
  303MOL0     C40795   0.398   6.697  -1.594  0.1951  0.9054  0.3165
  303MOL0     C40796   0.332   6.761  -1.488  0.3800  0.0868 -0.2074
  303MOL0     C40797   0.194   6.791  -1.490  1.0257 -1.0712 -0.3522
  303MOL0     C40798   0.125   6.844  -1.360 -0.9307  0.5440 -0.1462
  303MOL0     C40799   0.126   6.769  -1.614  0.3020 -0.0573 -0.1186
  303MOL0     C40800  -0.023   6.798  -1.633  0.0544  0.0182  1.2556
  303MOL0     O40801  -0.063   6.753  -1.757  0.5268  0.0269 -0.1989
  303MOL0     C40802  -0.200   6.762  -1.780  0.1937 -0.6226 -0.9756
  303MOL0     C40803  -0.290   6.701  -1.691  0.9421  0.4317 -0.3551
  303MOL0     C40804  -0.426   6.720  -1.697 -1.0542  0.3300 -0.9879
  303MOL0     C40805  -0.473   6.779  -1.813 -0.0488 -0.1152 -0.2613
  303MOL0     O40806  -0.609   6.761  -1.850  0.1105  0.3257 -0.1876
  303MOL0     C40807  -0.691   6.838  -1.768 -0.0993  1.3458  0.0023
  303MOL0     C40808  -0.823   6.833  -1.831  0.1917 -1.1020  0.4777
  303MOL0     C40809  -0.925   6.920  -1.755 -0.0816 -0.3628 -0.0184
  303MOL0     C40810  -1.061   6.915  -1.807  0.1076  0.1999  0.6246
  303MOL0     C40811  -1.166   7.019  -1.747  0.2262  0.5022 -0.2746
  303MOL0     C40812  -1.173   7.001  -1.594 -0.1735 -0.0518 -0.0778
  303MOL0     C40813  -1.268   7.119  -1.545 -0.0075 -0.0046 -0.5159
  303MOL0     C40814  -1.240   7.141  -1.397  0.3561  0.8896 -0.7639
  303MOL0    Cl40815  -1.377   7.242  -1.321 -0.6152  0.3919  0.0866
  303MOL0     C40816  -0.388   6.826  -1.915 -0.2620 -0.6238  0.1729
  303MOL0     C40817  -0.246   6.824  -1.897 -1.2859 -0.3944  0.0924
  303MOL0     O40818  -0.093   6.857  -1.552 -0.0795  0.2782  0.2502
  303MOL0     C40819   0.197   6.729  -1.726 -0.2773 -0.0806  0.1562
  303MOL0     C40820   0.324   6.674  -1.710  0.7584 -0.0168 -0.1738
  303MOL0     N40821   1.209   6.559  -1.388 -0.1035 -1.1691 -0.2728
  303MOL0     N40822   1.274   6.542  -1.275 -0.3539  0.6313  1.8291
  303MOL0     C40823   1.085   6.415  -0.072 -0.3208  0.4344  0.3185
  303MOL0     C40824   0.961   6.409  -0.001 -0.9500  1.1462  0.9802
  303MOL0     C40825   0.533   6.262   0.123  0.3275  0.1095  0.2830
  303MOL0     C40826   0.480   6.394   0.099  0.2523  0.5783  0.7678
  303MOL0     C40827   0.345   6.425   0.138  0.3093 -0.3306  1.0202
  303MOL0     C40828   0.268   6.329   0.206 -0.3263  0.5857 -0.0143
  303MOL0     O40829   0.136   6.361   0.239 -0.6140 -0.0589 -0.2220
  303MOL0     C40830   0.047   6.285   0.328  0.2551  0.5803 -0.2043
  303MOL0     C40831   0.093   6.292   0.476  1.1909  0.0958 -0.4787
  303MOL0     C40832  -0.012   6.217   0.563 -0.0482  0.3972 -0.4482
  303MOL0     C40833   0.015   6.209   0.717  0.0387  0.0779  0.1361
  303MOL0     C40834  -0.093   6.139   0.787 -0.2570 -0.8904  0.0445
  303MOL0     C40835  -0.185   6.097   0.852 -0.2182  0.6420 -0.6889
  303MOL0     C40836   0.330   6.211   0.240  0.1127 -0.0772  0.5597
  303MOL0     C40837   0.456   6.183   0.207  0.4377  0.6266  0.4771
  303MOL0     H40838   0.812   6.136  -0.143  0.0758 -2.0050  2.5759
  303MOL0     H40839   1.053   6.131  -0.259  2.0075 -0.0160 -0.1379
  303MOL0     H40840   1.201   6.474  -0.325  0.1273  0.5861 -0.5104
  303MOL0     H40841   1.344   6.477  -0.210  0.9321 -0.9102 -0.0100
  303MOL0     H40842   1.433   6.488  -0.424  0.5695 -0.3865  0.1932
  303MOL0     H40843   1.457   6.330  -0.352  0.0268  0.6440  1.0471
  303MOL0     H40844   1.278   6.249  -0.481  2.1495 -0.2487 -0.9077
  303MOL0     H40845   1.233   6.419  -0.544 -0.1784  0.1311  3.2998
  303MOL0     H40846   1.469   6.392  -0.645 -1.3307  2.4321  5.2620
  303MOL0     H40847   1.458   6.217  -0.604 -2.4446 -1.0813  2.9547
  303MOL0     H40848   1.418   6.264  -0.832  1.1281  2.7950  0.4719
  303MOL0     H40849   1.272   6.187  -0.767 -0.9013  1.2330  1.6263
  303MOL0     H40850   1.168   6.418  -0.774  0.9118  2.8768  1.2117
  303MOL0     H40851   1.326   6.478  -0.825 -2.0947  1.2709 -2.1153
  303MOL0     H40852   1.296   6.317  -1.023 -0.0748 -2.2871  1.7012
  303MOL0     H40853   1.125   6.338  -0.976 -1.4183  2.8130  4.7542
  303MOL0     H40854   1.303   6.592  -1.005 -0.4298 -0.4429  2.0042
  303MOL0     H40855   1.130   6.570  -0.980  0.2353  0.8639 -0.8381
  303MOL0     H40856   0.964   6.508  -1.173  0.6965 -1.8829  1.1888
  303MOL0     H40857   1.012   6.578  -1.548  2.7697 -0.1967  1.8782
  303MOL0     H40858   0.943   6.431  -1.489 -0.2919 -0.3083  0.7907
  303MOL0     H40859   0.858   6.704  -1.367 -0.9828  0.6455  0.8107
  303MOL0     H40860   0.793   6.536  -1.335  0.2506 -1.0193 -0.0496
  303MOL0     H40861   0.741   6.516  -1.581 -1.7200  2.1414 -2.2476
  303MOL0     H40862   0.758   6.686  -1.592 -3.2012  0.4883 -0.2227
  303MOL0     H40863   0.596   6.722  -1.417  0.9160 -0.1152  1.5486
  303MOL0     H40864   0.548   6.543  -1.418  0.5046  0.0691  1.6528
  303MOL0     H40865   0.393   6.767  -1.398  1.4703  1.3048 -0.9884
  303MOL0     H40866   0.083   6.943  -1.375 -0.0630  1.2495  1.7338
  303MOL0     H40867   0.044   6.776  -1.332  0.7150 -1.3018  0.4339
  303MOL0     H40868   0.194   6.856  -1.275 -1.0174  0.7826 -0.1097
  303MOL0     H40869  -0.244   6.651  -1.606 -0.2930  0.2526  0.2288
  303MOL0     H40870  -0.481   6.657  -1.627 -0.3628  0.5589 -0.2215
  303MOL0     H40871  -0.696   6.796  -1.667 -2.1803  0.0206 -0.5850
  303MOL0     H40872  -0.655   6.941  -1.757  0.0045  1.4035 -0.7675
  303MOL0     H40873  -0.808   6.887  -1.925  2.2756 -0.9101  0.8793
  303MOL0     H40874  -0.868   6.737  -1.857 -3.8758  1.5546 -3.7373
  303MOL0     H40875  -0.890   7.023  -1.740 -2.1876  0.1805  1.5214
  303MOL0     H40876  -0.934   6.884  -1.653 -1.4458  3.6092  1.4653
  303MOL0     H40877  -1.066   6.935  -1.914  0.4133  3.6862  1.1461
  303MOL0     H40878  -1.103   6.815  -1.794 -3.7764  1.3976 -1.3422
  303MOL0     H40879  -1.270   7.010  -1.778  0.3413 -0.9747 -0.3248
  303MOL0     H40880  -1.130   7.116  -1.781 -1.5003  1.1597 -0.3086
  303MOL0     H40881  -1.200   6.898  -1.568  0.6869 -0.7521 -1.8505
  303MOL0     H40882  -1.078   7.021  -1.543 -1.0833  2.0538  0.9044
  303MOL0     H40883  -1.371   7.083  -1.557  0.9025 -2.8085 -0.6806
  303MOL0     H40884  -1.249   7.210  -1.602 -1.0265  1.6152  1.5800
  303MOL0     H40885  -1.147   7.191  -1.368  2.0552 -2.9206  0.9302
  303MOL0     H40886  -1.241   7.044  -1.347 -1.1444  1.1154 -0.3042
  303MOL0     H40887  -0.428   6.864  -2.008 -0.7049 -2.1301 -0.2834
  303MOL0     H40888  -0.181   6.880  -1.964  2.1052  1.2401  4.2177
  303MOL0     H40889   0.162   6.745  -1.828  0.7954 -1.9637 -0.5512
  303MOL0     H40890   0.386   6.625  -1.784  1.2160  0.2451  0.0345
  303MOL0     H40891   1.156   6.496  -0.060 -0.2642  0.2740  1.1336
  303MOL0     H40892   0.948   6.497   0.062  1.0648  1.0232  1.6632
  303MOL0     H40893   0.535   6.472   0.048 -0.3944 -0.3442 -1.5062
  303MOL0     H40894   0.305   6.522   0.108 -4.2212 -1.1931  3.4572
  303MOL0     H40895  -0.056   6.318   0.314 -0.5014 -1.8555 -0.7228
  303MOL0     H40896   0.058   6.183   0.292  2.6702  0.8140 -0.2800
  303MOL0     H40897   0.103   6.394   0.514  2.4353 -0.4917  0.8742
  303MOL0     H40898   0.190   6.241   0.486  0.5086 -1.3388 -0.9155
  303MOL0     H40899  -0.022   6.116   0.523 -2.0245  0.4605 -0.2360
  303MOL0     H40900  -0.115   6.255   0.555 -0.6731 -1.1428 -0.0432
  303MOL0     H40901   0.015   6.309   0.762 -0.3539  0.0249  0.2516
  303MOL0     H40902   0.115   6.169   0.735  0.4523  1.4975  1.2165
  303MOL0     H40903  -0.269   6.048   0.898  1.0452  0.3627  1.4576
  303MOL0     H40904   0.275   6.142   0.303  0.0101 -1.4924 -1.0326
  303MOL0     H40905   0.489   6.083   0.235 -2.0632 -0.6125 -0.6563
  304MOL0     O40906   8.410   4.310   1.727 -0.3378  0.7750  0.4945
  304MOL0     C40907   8.475   4.411   1.689 -1.0235 -0.4463 -0.5784
  304MOL0     O40908   8.452   4.476   1.568  0.5279 -0.2134 -0.1733
  304MOL0     C40909   8.342   4.451   1.488  0.1083 -0.1756  0.4100
  304MOL0     C40910   8.266   4.561   1.443 -0.2632  0.6441 -0.2845
  304MOL0     C40911   8.152   4.544   1.370  0.1715  0.2697 -0.2461
  304MOL0     C40912   8.114   4.411   1.338  0.3710  0.5112  0.5694
  304MOL0     O40913   8.004   4.369   1.267 -0.2298 -0.0152 -0.1743
  304MOL0     C40914   7.882   4.419   1.326 -0.7453 -0.2841  0.8507
  304MOL0     C40915   7.822   4.354   1.456 -0.0899 -0.5624 -0.5047
  304MOL0     C40916   7.801   4.206   1.438  0.2350 -0.0340 -0.6317
  304MOL0     C40917   7.748   4.144   1.567  0.0163  0.9515 -0.0408
  304MOL0     C40918   7.743   3.986   1.549  0.2289 -0.3956 -0.4620
  304MOL0     C40919   7.812   3.908   1.671 -0.1377 -0.3432  0.8290
  304MOL0     C40920   7.747   3.946   1.798 -0.2066 -0.1668  0.2091
  304MOL0     C40921   7.827   3.916   1.916 -0.2084 -0.5645 -0.0723
  304MOL0     N40922   7.908   4.036   1.949  0.9081 -0.7713  0.1890
  304MOL0     C40923   7.997   4.105   1.869  0.3450 -0.4505  0.6037
  304MOL0     C40924   8.024   4.214   1.941  0.4969  0.2378 -0.0988
  304MOL0     C40925   8.119   4.327   1.920  0.4263  0.0637 -0.5903
  304MOL0     C40926   8.056   4.466   1.921  0.2947 -0.4979 -0.0658
  304MOL0     C40927   8.164   4.565   1.862  0.0883  0.5107 -0.2331
  304MOL0     C40928   8.127   4.707   1.893  1.0862 -0.0127  0.1978
  304MOL0     O40929   7.994   4.741   1.845 -0.0446  0.0782  0.3362
  304MOL0     C40930   7.947   4.852   1.897 -0.0757  0.1198 -1.0132
  304MOL0     C40931   7.845   4.849   1.992  0.9388  0.4493  0.0983
  304MOL0     C40932   7.790   4.959   2.063 -0.7290  0.1351 -1.2457
  304MOL0     C40933   7.678   4.926   2.161  0.5465  0.6819 -0.3957
  304MOL0     C40934   7.856   5.087   2.052  0.1484  1.1016  0.1490
  304MOL0     C40935   7.821   5.206   2.135  0.4203 -1.6907 -0.8157
  304MOL0     O40936   7.910   5.320   2.115 -0.1991  0.9446 -0.5122
  304MOL0     C40937   7.917   5.432   2.197  0.3454  0.1008 -0.7889
  304MOL0     C40938   7.976   5.545   2.134 -0.1633  0.5047  0.6743
  304MOL0     C40939   7.973   5.677   2.192  0.0281 -0.9334 -0.0926
  304MOL0     C40940   7.928   5.691   2.322  0.0075 -0.3503 -0.7130
  304MOL0     O40941   7.932   5.816   2.376  0.6917 -1.3649 -0.3873
  304MOL0     C40942   7.897   5.832   2.528  0.6454 -0.3382  0.2565
  304MOL0     C40943   7.911   5.971   2.568 -0.2805 -0.6764 -0.1743
  304MOL0     C40944   8.059   6.019   2.548  0.4516 -0.2754 -0.5836
  304MOL0     C40945   8.091   6.140   2.642 -0.0052  0.8643  0.7038
  304MOL0     C40946   8.232   6.197   2.623  1.6234  0.8964  0.3885
  304MOL0     C40947   8.285   6.259   2.748 -0.0028 -0.1611 -0.3608
  304MOL0     C40948   8.435   6.271   2.752  1.0040 -0.4188  0.1271
  304MOL0     C40949   8.479   6.306   2.896  0.2467 -0.1125  0.2324
  304MOL0    Cl40950   8.658   6.330   2.912  0.2266  0.2485 -0.6496
  304MOL0     C40951   7.863   5.574   2.384 -0.1106 -0.2514 -0.5564
  304MOL0     C40952   7.866   5.446   2.325 -0.2952  0.1029 -0.3162
  304MOL0     O40953   7.720   5.218   2.196  0.3897  0.3430 -0.3545
  304MOL0     C40954   7.962   5.093   1.953 -0.6154 -0.1014  0.1646
  304MOL0     C40955   8.008   4.976   1.884 -0.4246 -0.3894 -0.1654
  304MOL0     N40956   7.936   4.224   2.052 -0.4642 -0.5944  0.7508
  304MOL0     N40957   7.872   4.114   2.057 -1.1653 -0.3269 -0.0907
  304MOL0     C40958   8.185   4.304   1.380  0.8939  0.1126  0.0513
  304MOL0     C40959   8.295   4.318   1.468 -0.0335 -0.7181  0.4948
  304MOL0     C40960   8.582   4.475   1.774 -0.7020  0.1394 -0.8295
  304MOL0     C40961   8.672   4.557   1.704  0.2426 -0.3701 -0.5601
  304MOL0     C40962   8.783   4.608   1.778  0.2517  0.0153 -0.0182
  304MOL0     C40963   8.796   4.575   1.912 -0.6061  0.3079  0.0125
  304MOL0     O40964   8.906   4.628   1.980  0.3302 -0.1095 -0.0604
  304MOL0     C40965   8.942   4.592   2.109 -0.3292  1.4642 -0.4432
  304MOL0     C40966   8.967   4.722   2.185  0.3780 -0.0346 -0.5090
  304MOL0     C40967   9.087   4.801   2.151  0.0859  0.2869 -0.3574
  304MOL0     C40968   9.192   4.787   2.264 -0.6330 -0.1003 -0.3654
  304MOL0     C40969   9.263   4.660   2.257 -0.4069  0.3382 -0.3468
  304MOL0     C40970   9.333   4.558   2.253 -0.7454  0.0157  0.0050
  304MOL0     C40971   8.701   4.499   1.978  0.2831 -0.0702  0.2410
  304MOL0     C40972   8.597   4.448   1.909  0.2932  0.8284 -0.4091
  304MOL0     H40973   8.305   4.656   1.478 -2.7108  1.4784  0.3602
  304MOL0     H40974   8.094   4.627   1.331 -0.4945  0.2576  0.6985
  304MOL0     H40975   7.890   4.527   1.341  0.8304 -0.1557 -0.6523
  304MOL0     H40976   7.808   4.397   1.249 -1.6603  1.7832  1.0706
  304MOL0     H40977   7.883   4.379   1.543 -1.6331  0.6162  0.2915
  304MOL0     H40978   7.723   4.396   1.477 -0.5712 -0.9750 -1.8685
  304MOL0     H40979   7.723   4.193   1.363 -3.6944  0.9583  2.9036
  304MOL0     H40980   7.897   4.162   1.409 -0.7489 -2.0393 -1.0263
  304MOL0     H40981   7.811   4.174   1.651  1.2165 -1.3828 -0.0417
  304MOL0     H40982   7.645   4.177   1.586 -0.4707 -0.4654 -0.1164
  304MOL0     H40983   7.641   3.949   1.536  0.1400 -0.9552  1.6350
  304MOL0     H40984   7.797   3.962   1.457 -0.1168  1.3185 -1.1560
  304MOL0     H40985   7.784   3.804   1.649 -1.5593  0.1006  0.4202
  304MOL0     H40986   7.921   3.917   1.667 -0.1765 -0.2293 -0.4422
  304MOL0     H40987   7.726   4.053   1.803 -1.9062 -0.2724 -2.4745
  304MOL0     H40988   7.647   3.901   1.805 -0.1613  0.0139  3.3096
  304MOL0     H40989   7.887   3.828   1.892 -1.2221 -1.0511 -0.9054
  304MOL0     H40990   7.760   3.894   1.999  0.2942 -1.8417  0.0183
  304MOL0     H40991   8.041   4.065   1.779  0.2865 -0.3770  0.5414
  304MOL0     H40992   8.194   4.342   1.997  0.2671  0.3520 -0.4877
  304MOL0     H40993   8.168   4.315   1.822  0.0363 -0.4949 -0.7191
  304MOL0     H40994   8.022   4.482   2.024 -0.9176 -0.4201 -0.4546
  304MOL0     H40995   7.965   4.458   1.860 -0.2535 -3.0558  0.9582
  304MOL0     H40996   8.167   4.543   1.755 -2.4621 -0.4054 -0.2002
  304MOL0     H40997   8.263   4.557   1.907 -0.3818 -1.9191  0.4904
  304MOL0     H40998   8.202   4.769   1.843  1.4604 -0.2650  0.4434
  304MOL0     H40999   8.137   4.721   2.001 -4.3187  1.0474  0.8557
  304MOL0     H41000   7.806   4.749   2.009  0.3615  0.9464  2.0450
  304MOL0     H41001   7.622   4.842   2.118  2.4394 -0.7900 -0.1484
  304MOL0     H41002   7.706   4.917   2.267  0.8525  2.5020 -0.2951
  304MOL0     H41003   7.605   5.007   2.167 -1.3743 -1.0137  1.4426
  304MOL0     H41004   8.020   5.525   2.036 -2.0080  0.3705 -0.1805
  304MOL0     H41005   8.023   5.758   2.139 -1.3809 -0.2082 -0.3469
  304MOL0     H41006   7.794   5.803   2.548  0.1468  1.5389  0.6312
  304MOL0     H41007   7.965   5.770   2.587 -0.0239  0.4389  1.9208
  304MOL0     H41008   7.859   6.046   2.508  0.0445  0.9580  1.4646
  304MOL0     H41009   7.875   5.970   2.672  2.2360  0.3141  0.7909
  304MOL0     H41010   8.085   6.051   2.446 -0.4548  0.5192 -0.5768
  304MOL0     H41011   8.122   5.934   2.574  0.6368 -0.1890 -0.7430
  304MOL0     H41012   8.014   6.217   2.630  0.8110  1.5421 -0.3392
  304MOL0     H41013   8.087   6.094   2.741  3.2144  1.6225  1.2795
  304MOL0     H41014   8.238   6.266   2.538 -2.5415  1.2497  0.1516
  304MOL0     H41015   8.300   6.115   2.601 -0.4394 -0.6524 -0.5357
  304MOL0     H41016   8.245   6.361   2.751 -0.3073 -0.2629 -0.8408
  304MOL0     H41017   8.247   6.204   2.836 -2.0491  2.2163  0.3665
  304MOL0     H41018   8.460   6.350   2.680 -0.1785 -2.5050 -2.7517
  304MOL0     H41019   8.468   6.171   2.722 -1.5544 -1.7263  1.3301
  304MOL0     H41020   8.445   6.232   2.969 -1.9719 -0.5441 -1.1183
  304MOL0     H41021   8.439   6.404   2.924  0.4539 -0.3825  1.5287
  304MOL0     H41022   7.805   5.590   2.475 -0.7655  3.6119 -1.4635
  304MOL0     H41023   7.813   5.369   2.380  1.5513  1.1261  3.2107
  304MOL0     H41024   8.002   5.191   1.929  0.9835 -0.6476  0.4640
  304MOL0     H41025   8.087   5.001   1.814  0.2800 -1.3493  0.2623
  304MOL0     H41026   8.166   4.203   1.347  0.1778  0.2689 -0.0439
  304MOL0     H41027   8.350   4.232   1.504 -0.2920 -0.3797  1.7401
  304MOL0     H41028   8.681   4.572   1.597  0.9488 -1.5254 -0.6770
  304MOL0     H41029   8.861   4.661   1.725  2.6745 -0.7669  2.5011
  304MOL0     H41030   8.861   4.538   2.160  0.8658  0.6602  0.6388
  304MOL0     H41031   9.033   4.533   2.105  0.7618  3.1709 -2.3111
  304MOL0     H41032   8.983   4.688   2.287 -0.0644  1.2954  0.0186
  304MOL0     H41033   8.884   4.793   2.191  1.6304  1.7313 -2.5933
  304MOL0     H41034   9.050   4.902   2.138  0.9548  0.6559 -0.0602
  304MOL0     H41035   9.136   4.782   2.055  1.9294 -1.7112  0.8615
  304MOL0     H41036   9.158   4.797   2.367  0.2061 -1.1180  0.0306
  304MOL0     H41037   9.271   4.861   2.247 -0.3999  0.3257  2.1673
  304MOL0     H41038   9.392   4.470   2.232 -1.9578 -1.1049  1.0966
  304MOL0     H41039   8.694   4.463   2.080 -1.4888  0.5840  0.3811
  304MOL0     H41040   8.531   4.384   1.967  1.1161  1.7006  1.5625
  305MOL0     O41041   8.254  10.025   2.136  0.2632  0.9242 -0.7109
  305MOL0     C41042   8.147  10.055   2.193  0.0106  0.7209  0.6839
  305MOL0     O41043   8.070   9.977   2.275  0.1441 -0.1041 -0.5607
  305MOL0     C41044   8.128   9.876   2.342 -0.0561  0.7167  0.3743
  305MOL0     C41045   8.033   9.777   2.390 -0.2659  0.2717  0.0443
  305MOL0     C41046   8.082   9.658   2.450  0.4730 -1.1298  0.4060
  305MOL0     C41047   8.217   9.641   2.478 -0.0460  0.2663  0.2174
  305MOL0     O41048   8.262   9.523   2.526 -0.1823  0.0592 -0.6578
  305MOL0     C41049   8.168   9.447   2.599 -0.5386 -0.6292  0.3331
  305MOL0     C41050   8.254   9.360   2.693 -1.2531  0.3506 -0.9993
  305MOL0     C41051   8.299   9.440   2.812 -0.2995 -0.7874  0.0104
  305MOL0     C41052   8.356   9.366   2.935  0.1851  0.1190  0.2466
  305MOL0     C41053   8.424   9.453   3.054  0.1249  0.2293  0.6237
  305MOL0     C41054   8.553   9.520   3.005  0.0502  0.5720 -1.0859
  305MOL0     C41055   8.623   9.606   3.104 -0.2991 -0.4458  0.2982
  305MOL0     C41056   8.721   9.702   3.032 -0.1008  0.2629 -0.1113
  305MOL0     N41057   8.833   9.630   2.952 -0.5685 -0.7153  0.2647
  305MOL0     C41058   8.920   9.537   2.985 -0.3942 -0.7409  0.3785
  305MOL0     C41059   8.972   9.491   2.875  0.4017  1.1920 -0.9145
  305MOL0     C41060   9.063   9.384   2.866 -0.5994  0.3148 -0.2220
  305MOL0     C41061   9.207   9.426   2.826 -0.6937  0.8279 -0.2619
  305MOL0     C41062   9.272   9.519   2.938  0.1618  0.2069 -0.1128
  305MOL0     C41063   9.397   9.598   2.905 -0.2286 -0.1428 -0.2488
  305MOL0     O41064   9.396   9.637   2.769 -0.2853  0.1904  0.5298
  305MOL0     C41065   9.298   9.727   2.727  0.3301  0.0886 -1.5290
  305MOL0     C41066   9.285   9.753   2.590 -0.7088  0.0377 -0.9490
  305MOL0     C41067   9.185   9.847   2.538 -0.2555 -0.2751 -1.2071
  305MOL0     C41068   9.198   9.874   2.396 -0.0034  0.5587  0.0414
  305MOL0     C41069   9.098   9.915   2.630 -1.1087 -0.5224  0.3352
  305MOL0     C41070   8.979  10.000   2.597  0.4694 -0.1652  0.3431
  305MOL0     O41071   8.874  10.004   2.691 -0.8591  0.7570 -0.2885
  305MOL0     C41072   8.752  10.060   2.649 -1.3146 -0.6107 -0.3441
  305MOL0     C41073   8.741  10.199   2.632 -0.4703  1.0298  0.2899
  305MOL0     C41074   8.624  10.266   2.598 -1.0533  0.4703 -0.2575
  305MOL0     C41075   8.515  10.182   2.589  0.3308  0.9781  0.2964
  305MOL0     O41076   8.393  10.226   2.560  0.2124 -0.0736  0.4918
  305MOL0     C41077   8.376  10.238   2.414 -0.8137  0.2132 -0.0829
  305MOL0     C41078   8.444  10.354   2.330  0.1384  0.7416  0.1830
  305MOL0     C41079   8.395  10.485   2.382 -0.8527 -1.1150 -0.5385
  305MOL0     C41080   8.487  10.614   2.364 -0.7804 -0.2502  0.4825
  305MOL0     C41081   8.490  10.659   2.217 -0.0714 -0.9873  0.9306
  305MOL0     C41082   8.569  10.786   2.193 -0.6353  0.0810  0.7114
  305MOL0     C41083   8.575  10.826   2.046 -0.9777  0.4853 -0.2376
  305MOL0     C41084   8.641  10.967   2.030  0.1568  0.5045  0.2356
  305MOL0    Cl41085   8.816  10.962   2.088  0.3626  0.5689 -0.1301
  305MOL0     C41086   8.529  10.046   2.607 -0.2851  0.4485 -0.2999
  305MOL0     C41087   8.640   9.977   2.642  0.5169  0.2090 -0.0413
  305MOL0     O41088   8.970  10.051   2.484 -0.9140  0.2908  0.8905
  305MOL0     C41089   9.119   9.889   2.766 -0.2813 -0.7078 -0.1147
  305MOL0     C41090   9.221   9.810   2.814 -0.0700  0.4211  0.7150
  305MOL0     N41091   8.937   9.573   2.769 -0.1409  0.9930  0.5316
  305MOL0     N41092   8.843   9.647   2.816 -0.0203 -0.4068 -1.1370
  305MOL0     C41093   8.306   9.739   2.441 -0.8206 -0.1070  0.9467
  305MOL0     C41094   8.265   9.854   2.374  0.7313  0.0910  0.3579
  305MOL0     C41095   8.079  10.186   2.154  0.1669 -0.1956  0.5966
  305MOL0     C41096   7.972  10.238   2.227  1.2856 -0.0140 -0.1332
  305MOL0     C41097   7.911  10.359   2.178 -0.6940  0.2376 -0.1288
  305MOL0     C41098   7.966  10.428   2.070 -0.2372 -0.0076  0.3498
  305MOL0     O41099   7.906  10.548   2.031  0.2228 -0.4843 -0.3204
  305MOL0     C41100   7.973  10.653   1.953 -0.5779  0.3238  0.4820
  305MOL0     C41101   8.085  10.714   2.037  0.4108 -0.0945 -0.1311
  305MOL0     C41102   8.025  10.770   2.166  0.3049 -0.4266  0.5779
  305MOL0     C41103   8.131  10.817   2.258  0.6682 -0.0493 -0.1706
  305MOL0     C41104   8.195  10.943   2.206  0.5813  0.4092 -0.3605
  305MOL0     C41105   8.256  11.044   2.170 -0.5034  0.7832  0.0176
  305MOL0     C41106   8.078  10.383   2.014 -1.0207 -1.0016  0.2521
  305MOL0     C41107   8.138  10.269   2.056 -0.9426  0.5760  0.6101
  305MOL0     H41108   7.931   9.795   2.360  0.2039  1.5468 -0.8735
  305MOL0     H41109   8.017   9.573   2.467 -0.2780 -0.8578 -0.9623
  305MOL0     H41110   8.103   9.508   2.662  0.0199 -0.0449  0.3575
  305MOL0     H41111   8.115   9.393   2.519  0.3542  0.8427 -1.3337
  305MOL0     H41112   8.207   9.273   2.740  0.0754  1.6034  2.9999
  305MOL0     H41113   8.340   9.322   2.637  0.5022 -0.7129  2.1704
  305MOL0     H41114   8.373   9.508   2.769  0.2778 -1.7312 -0.5251
  305MOL0     H41115   8.210   9.498   2.836 -0.8995 -1.5346 -0.3365
  305MOL0     H41116   8.269   9.309   2.971 -1.3461  0.1249 -3.1125
  305MOL0     H41117   8.428   9.295   2.893  1.2474  1.7145 -0.7083
  305MOL0     H41118   8.360   9.535   3.090 -1.9748  0.3051 -2.8024
  305MOL0     H41119   8.436   9.379   3.134 -3.4057  0.3743  1.4673
  305MOL0     H41120   8.613   9.434   2.972 -1.2575 -0.8451  0.0600
  305MOL0     H41121   8.526   9.586   2.922 -0.6426  0.6543 -0.7965
  305MOL0     H41122   8.551   9.670   3.156 -1.0774 -2.2220  1.5258
  305MOL0     H41123   8.676   9.542   3.175  3.2135  1.3040 -0.5386
  305MOL0     H41124   8.777   9.761   3.106  1.2869 -1.1530  0.0387
  305MOL0     H41125   8.667   9.760   2.957 -0.3827 -0.4654 -0.4806
  305MOL0     H41126   8.939   9.504   3.087  0.9738 -2.9947 -0.5226
  305MOL0     H41127   9.066   9.336   2.964 -0.2267  0.1779 -0.2978
  305MOL0     H41128   9.031   9.314   2.789 -1.0844  0.1415  0.1384
  305MOL0     H41129   9.203   9.485   2.734 -0.2852  0.0512 -0.7929
  305MOL0     H41130   9.271   9.340   2.807  0.9240  1.8928  0.1054
  305MOL0     H41131   9.290   9.475   3.036 -0.7542 -0.2531 -0.1396
  305MOL0     H41132   9.195   9.591   2.967 -2.2392 -2.2400 -0.0366
  305MOL0     H41133   9.475   9.523   2.923 -1.4410 -0.9243  2.0753
  305MOL0     H41134   9.422   9.685   2.967 -4.5073  0.7691  0.4820
  305MOL0     H41135   9.348   9.698   2.521 -1.2362  0.4555 -1.7859
  305MOL0     H41136   9.254   9.791   2.351  1.2318  2.5886 -2.4047
  305MOL0     H41137   9.099   9.886   2.353 -0.1572 -1.2572 -0.1970
  305MOL0     H41138   9.247   9.971   2.384 -1.3331  1.3962  1.1314
  305MOL0     H41139   8.829  10.261   2.645 -1.0221  1.6308  1.2594
  305MOL0     H41140   8.609  10.371   2.573 -0.2797  0.0437 -2.8154
  305MOL0     H41141   8.411  10.149   2.361  0.9477  0.0342  1.3068
  305MOL0     H41142   8.268  10.236   2.398 -0.5951  0.7016 -1.9410
  305MOL0     H41143   8.551  10.353   2.350  0.2454 -4.6534  0.8643
  305MOL0     H41144   8.437  10.338   2.222  2.7362 -1.3782  0.2391
  305MOL0     H41145   8.385  10.463   2.489 -4.2706 -2.2122 -0.9669
  305MOL0     H41146   8.298  10.500   2.332 -0.0521  0.2143 -1.7910
  305MOL0     H41147   8.464  10.699   2.428 -0.6170 -1.2417  1.8955
  305MOL0     H41148   8.586  10.579   2.394  0.9587  2.6121 -1.4071
  305MOL0     H41149   8.385  10.681   2.195 -0.6327 -1.5018  2.8878
  305MOL0     H41150   8.533  10.582   2.152  2.8883  0.9797  0.3654
  305MOL0     H41151   8.511  10.859   2.251 -0.7919 -0.1156  0.8037
  305MOL0     H41152   8.673  10.777   2.224 -0.5971 -2.2823  0.1116
  305MOL0     H41153   8.478  10.810   1.997  0.7888  0.4588 -4.1221
  305MOL0     H41154   8.634  10.746   2.000 -1.6742  0.0736 -0.4527
  305MOL0     H41155   8.578  11.031   2.094 -0.0421 -0.3675  0.9365
  305MOL0     H41156   8.649  11.006   1.928  0.8938 -0.0057  0.0930
  305MOL0     H41157   8.425  10.015   2.598 -1.2103  3.5670 -1.4928
  305MOL0     H41158   8.634   9.871   2.665  2.2198  0.3232  1.0761
  305MOL0     H41159   9.063   9.942   2.843  1.9786  0.5585  0.7822
  305MOL0     H41160   9.247   9.804   2.919 -2.8080 -3.7950  1.3934
  305MOL0     H41161   8.410   9.733   2.473  0.1572 -0.7710 -1.9748
  305MOL0     H41162   8.333   9.933   2.345  0.9375 -0.4251 -0.6087
  305MOL0     H41163   7.924  10.173   2.300  2.0892 -0.2717  0.1733
  305MOL0     H41164   7.818  10.394   2.222  0.8231  2.9081  1.2112
  305MOL0     H41165   8.024  10.615   1.864 -1.4989  0.5148 -0.1402
  305MOL0     H41166   7.900  10.727   1.921  0.5872  2.1207  1.7804
  305MOL0     H41167   8.132  10.792   1.976 -3.2993 -0.7130 -4.3913
  305MOL0     H41168   8.160  10.642   2.067 -0.0009  0.2674  1.8895
  305MOL0     H41169   7.962  10.693   2.213 -1.9587  1.5213  0.9010
  305MOL0     H41170   7.948  10.846   2.155  1.2798  0.7912  1.8897
  305MOL0     H41171   8.200  10.738   2.288  1.4923  0.9076  0.5147
  305MOL0     H41172   8.086  10.863   2.346 -1.2653  5.7604 -3.5826
  305MOL0     H41173   8.307  11.127   2.126  1.4015  0.0531  0.7576
  305MOL0     H41174   8.116  10.437   1.928 -0.0284 -0.1783  1.1803
  305MOL0     H41175   8.235  10.245   2.014 -0.9078 -3.1504  2.4534
  306MOL0     O41176   8.334   0.567  11.325  0.2677  0.1375 -0.6039
  306MOL0     C41177   8.298   0.487  11.241  0.4986 -1.0068 -0.2430
  306MOL0     O41178   8.372   0.383  11.197  0.7558  0.5164  0.3298
  306MOL0     C41179   8.484   0.342  11.265 -0.7786  0.2042  0.9929
  306MOL0     C41180   8.582   0.283  11.179 -1.0121  0.2914  0.1139
  306MOL0     C41181   8.707   0.237  11.229  0.0910  0.4054 -0.8632
  306MOL0     C41182   8.723   0.220  11.371 -0.9067 -0.2304  0.1279
  306MOL0     O41183   8.836   0.167  11.415  0.2016  0.3891  0.5225
  306MOL0     C41184   8.900   0.221  11.535  0.3439 -0.4630  0.0469
  306MOL0     C41185   9.045   0.266  11.511  0.2420 -0.3469 -0.0316
  306MOL0     C41186   9.038   0.394  11.430  0.1972 -0.0636 -0.0291
  306MOL0     C41187   9.159   0.419  11.341  0.6372  0.1849 -0.5779
  306MOL0     C41188   9.288   0.475  11.410  0.2574  0.4774  0.3158
  306MOL0     C41189   9.292   0.629  11.413 -0.4498 -0.1539  0.1042
  306MOL0     C41190   9.419   0.702  11.472 -0.5992 -0.4326 -0.1406
  306MOL0     C41191   9.434   0.720  11.620  0.1158 -0.2169  0.3574
  306MOL0     N41192   9.546   0.819  11.646  0.5274  1.6466 -0.3600
  306MOL0     C41193   9.660   0.787  11.698  0.0222 -0.4333  0.3931
  306MOL0     C41194   9.736   0.900  11.700  0.9600  0.0749  0.0675
  306MOL0     C41195   9.886   0.928  11.728  0.3449 -0.8450  0.2676
  306MOL0     C41196   9.902   1.028  11.842  0.5727 -0.1441 -0.2132
  306MOL0     C41197   9.859   1.170  11.804  0.4715  0.5293  0.2261
  306MOL0     C41198   9.905   1.276  11.904 -0.4917 -0.1558 -0.6257
  306MOL0     O41199   9.838   1.405  11.875 -0.3987 -0.3075  0.7269
  306MOL0     C41200   9.720   1.444  11.931 -0.2251 -0.4400  0.0239
  306MOL0     C41201   9.651   1.370  12.024  0.4459 -0.1562 -0.6461
  306MOL0     C41202   9.534   1.425  12.077 -0.1506  0.7004  0.1946
  306MOL0     C41203   9.458   1.337  12.172 -0.4822 -0.9078 -0.6679
  306MOL0     C41204   9.477   1.548  12.034 -0.0753 -0.4903  0.2719
  306MOL0     C41205   9.354   1.604  12.091  0.0037  0.0574 -0.4857
  306MOL0     O41206   9.332   1.598  12.230 -0.6261 -0.9720 -0.1511
  306MOL0     C41207   9.212   1.652  12.283 -1.1669 -0.4113 -0.0961
  306MOL0     C41208   9.227   1.705  12.418  0.0143 -0.4177  0.1456
  306MOL0     C41209   9.111   1.740  12.491 -0.2872 -0.3652  0.2134
  306MOL0     C41210   8.983   1.725  12.439 -0.4429  0.1828 -1.0410
  306MOL0     O41211   8.866   1.768  12.495 -0.7130  0.4571  0.3664
  306MOL0     C41212   8.814   1.693  12.613  0.0278 -0.4784  0.3263
  306MOL0     C41213   8.690   1.754  12.678 -0.0048  0.1773  1.4243
  306MOL0     C41214   8.569   1.750  12.585  0.1295  0.2222  0.4258
  306MOL0     C41215   8.529   1.611  12.524  0.2540  0.2988  0.4639
  306MOL0     C41216   8.375   1.590  12.523  0.8023 -0.7110 -0.1098
  306MOL0     C41217   8.302   1.689  12.433  0.2300 -0.3817  0.2925
  306MOL0     C41218   8.145   1.675  12.444  0.0775  1.4053  0.6311
  306MOL0     C41219   8.064   1.786  12.386 -0.4355 -0.2128  0.8289
  306MOL0    Cl41220   8.112   1.935  12.472  0.2740 -0.4251  0.0553
  306MOL0     C41221   8.975   1.674  12.307  0.7335  0.4878  0.2879
  306MOL0     C41222   9.083   1.636  12.226  0.0458 -0.2427 -0.2810
  306MOL0     O41223   9.286   1.674  12.013  0.9545 -0.3034 -1.4045
  306MOL0     C41224   9.562   1.622  11.947  0.7274  0.8957  0.4666
  306MOL0     C41225   9.676   1.565  11.896 -0.0915 -0.6677 -0.6102
  306MOL0     N41226   9.654   1.001  11.643  0.3484 -0.3445 -0.8813
  306MOL0     N41227   9.540   0.948  11.601  0.3359 -0.9704 -0.2280
  306MOL0     C41228   8.622   0.273  11.454  0.6540 -0.1088  1.0388
  306MOL0     C41229   8.502   0.336  11.404 -0.7174  0.3355 -0.3195
  306MOL0     C41230   8.177   0.524  11.164 -0.1869 -0.1647 -0.3561
  306MOL0     C41231   8.111   0.651  11.185 -0.8759 -0.1244  0.0122
  306MOL0     C41232   7.999   0.678  11.122  0.3269  0.0571  0.0764
  306MOL0     C41233   7.941   0.604  11.022  0.4088  0.9972 -0.9102
  306MOL0     O41234   7.835   0.657  10.954 -0.1539  0.1049 -0.1507
  306MOL0     C41235   7.709   0.588  10.951  0.2927 -0.5871  0.9146
  306MOL0     C41236   7.606   0.701  10.934  0.1171  0.1357 -0.7471
  306MOL0     C41237   7.462   0.634  10.959 -0.5558 -0.4969 -0.3100
  306MOL0     C41238   7.444   0.510  10.875 -0.4513 -0.9214 -1.2225
  306MOL0     C41239   7.468   0.538  10.729 -0.0158 -0.9430 -0.4921
  306MOL0     C41240   7.466   0.598  10.627  0.0593  0.1527  0.1368
  306MOL0     C41241   8.009   0.483  10.988 -0.1366  0.1391 -0.4275
  306MOL0     C41242   8.124   0.440  11.059 -0.0592  1.4077  0.5418
  306MOL0     H41243   8.567   0.299  11.072 -0.4630  1.9107  0.2546
  306MOL0     H41244   8.783   0.184  11.173 -1.5368 -4.0281  0.6982
  306MOL0     H41245   8.841   0.307  11.570 -3.9885 -2.7274 -1.0652
  306MOL0     H41246   8.892   0.153  11.620 -1.6785 -1.2801 -0.7508
  306MOL0     H41247   9.105   0.291  11.599  0.5673  0.8710 -0.5745
  306MOL0     H41248   9.091   0.183  11.457 -0.8407 -0.0442 -1.4764
  306MOL0     H41249   8.955   0.384  11.359  0.3166  1.6625 -0.4450
  306MOL0     H41250   9.003   0.477  11.493 -0.5683 -1.7662  1.9094
  306MOL0     H41251   9.175   0.324  11.289  0.3076 -0.6921  0.8700
  306MOL0     H41252   9.130   0.483  11.257 -0.5741 -0.0918 -0.3867
  306MOL0     H41253   9.304   0.421  11.504  2.3539  2.0888  0.9673
  306MOL0     H41254   9.370   0.440  11.347 -0.5582 -0.7224 -0.1181
  306MOL0     H41255   9.300   0.673  11.313  2.1047  0.8434  0.6834
  306MOL0     H41256   9.200   0.658  11.465 -1.5437 -1.9461 -0.7275
  306MOL0     H41257   9.515   0.656  11.448  0.5888  0.3614  2.6892
  306MOL0     H41258   9.421   0.804  11.432 -2.3421  0.2982  1.5112
  306MOL0     H41259   9.460   0.621  11.661 -0.6677 -1.6429 -2.3662
  306MOL0     H41260   9.330   0.743  11.645 -0.1085 -1.1374  0.3312
  306MOL0     H41261   9.695   0.687  11.723  0.0929 -0.8450 -1.2680
  306MOL0     H41262   9.955   0.843  11.734  0.5731 -0.8589 -1.8160
  306MOL0     H41263   9.907   0.976  11.632 -3.4544  1.3212  0.3235
  306MOL0     H41264  10.005   1.047  11.875  0.9096 -0.4329 -1.0889
  306MOL0     H41265   9.844   0.989  11.926 -1.1504  0.8019 -0.9053
  306MOL0     H41266   9.751   1.178  11.786  1.0142  0.7487 -3.9483
  306MOL0     H41267   9.901   1.183  11.704 -0.7681  1.2341 -0.2402
  306MOL0     H41268  10.014   1.283  11.903 -0.4729 -0.4338 -1.4605
  306MOL0     H41269   9.871   1.251  12.005 -0.4030  2.6417  0.1617
  306MOL0     H41270   9.671   1.266  12.048 -1.3748 -1.2500 -3.4299
  306MOL0     H41271   9.445   1.392  12.266 -2.7382  4.5073 -3.6744
  306MOL0     H41272   9.357   1.327  12.130 -1.6107  1.1831  1.2944
  306MOL0     H41273   9.505   1.242  12.195  0.6916  0.0731  1.1991
  306MOL0     H41274   9.324   1.702  12.466 -0.1325 -1.4274  0.4006
  306MOL0     H41275   9.129   1.767  12.595 -0.3555  1.0978 -0.1255
  306MOL0     H41276   8.810   1.585  12.595 -0.3034 -0.3975 -0.1090
  306MOL0     H41277   8.897   1.704  12.683  1.7350  1.1252 -1.8297
  306MOL0     H41278   8.678   1.682  12.758  0.7379 -2.4255 -0.6684
  306MOL0     H41279   8.708   1.856  12.714  0.0244 -0.1082  2.2374
  306MOL0     H41280   8.593   1.814  12.499  2.1485 -3.2134 -1.7741
  306MOL0     H41281   8.484   1.788  12.642 -1.9604 -0.9169 -1.7218
  306MOL0     H41282   8.568   1.605  12.422 -4.0305 -2.4382 -1.2751
  306MOL0     H41283   8.577   1.528  12.577  1.0352  0.4760  0.0491
  306MOL0     H41284   8.339   1.591  12.626  2.0579 -0.5910  0.3471
  306MOL0     H41285   8.361   1.486  12.495  1.2348 -1.1397  1.1985
  306MOL0     H41286   8.324   1.793  12.457 -3.6224  1.1528 -2.0554
  306MOL0     H41287   8.343   1.662  12.335  1.9802  2.1740  0.2097
  306MOL0     H41288   8.116   1.659  12.548 -0.4673  0.4452  0.3408
  306MOL0     H41289   8.109   1.579  12.406  1.5312  0.3267  1.8634
  306MOL0     H41290   7.961   1.768  12.416 -0.3496 -3.8865 -0.6007
  306MOL0     H41291   8.066   1.805  12.278 -0.7859  1.4719  1.0760
  306MOL0     H41292   8.880   1.643  12.267  1.3278 -3.2041  1.3214
  306MOL0     H41293   9.059   1.596  12.128 -0.5379 -1.7561  0.4417
  306MOL0     H41294   9.536   1.726  11.930  1.2363  1.0348  0.5091
  306MOL0     H41295   9.726   1.633  11.827 -1.3445  3.7557  2.4357
  306MOL0     H41296   8.622   0.264  11.562 -1.2379 -1.0717  1.0047
  306MOL0     H41297   8.428   0.364  11.478 -1.6191 -0.3699 -0.9407
  306MOL0     H41298   8.141   0.732  11.252 -1.8954  0.8359 -0.6635
  306MOL0     H41299   7.945   0.771  11.135  0.8948  0.7543 -2.1818
  306MOL0     H41300   7.708   0.532  10.857 -0.3202 -0.5262  0.8819
  306MOL0     H41301   7.695   0.517  11.033  2.0923 -1.1388  0.7730
  306MOL0     H41302   7.601   0.755  10.840 -0.7738  2.7443  0.6911
  306MOL0     H41303   7.613   0.780  11.009  2.4593  0.5415 -1.3185
  306MOL0     H41304   7.387   0.713  10.949 -2.6075 -1.9357  2.3362
  306MOL0     H41305   7.461   0.608  11.066  1.4039 -1.3776 -0.4540
  306MOL0     H41306   7.337   0.486  10.879 -1.4592  2.6092 -3.0354
  306MOL0     H41307   7.497   0.423  10.914 -2.5622 -1.1731  1.3832
  306MOL0     H41308   7.452   0.642  10.530 -2.5727 -1.6527 -0.4219
  306MOL0     H41309   7.971   0.420  10.908  1.2575 -0.3221 -0.7643
  306MOL0     H41310   8.178   0.352  11.025 -0.5691  1.6135 -0.8484
  307MOL0     O41311   5.140   4.899   4.270  0.1390 -0.0743  0.5997
  307MOL0     C41312   5.187   4.927   4.161 -0.9620  0.5035  0.4057
  307MOL0     O41313   5.261   5.036   4.132  0.1541 -0.3355 -0.1602
  307MOL0     C41314   5.282   5.146   4.217  0.5805  0.8223 -0.4613
  307MOL0     C41315   5.197   5.190   4.326  0.3959  0.2015  0.1851
  307MOL0     C41316   5.227   5.298   4.401  0.0167  0.4076  0.5664
  307MOL0     C41317   5.341   5.368   4.375  0.3885 -0.6554 -0.4448
  307MOL0     O41318   5.387   5.474   4.458 -0.1616  0.2574  0.2486
  307MOL0     C41319   5.296   5.525   4.547  0.3105 -0.2835 -0.3911
  307MOL0     C41320   5.358   5.634   4.642  0.2911 -0.4078  0.0304
  307MOL0     C41321   5.419   5.579   4.768  0.2055 -0.5699  0.7686
  307MOL0     C41322   5.304   5.560   4.878 -0.5751 -0.0732  0.0038
  307MOL0     C41323   5.361   5.499   5.003  0.1143  0.6672  0.2298
  307MOL0     C41324   5.424   5.599   5.102  0.4529 -0.8156 -0.0694
  307MOL0     C41325   5.501   5.524   5.208 -0.3048  0.5074  0.3731
  307MOL0     C41326   5.646   5.467   5.161 -1.1398  0.8145 -0.2378
  307MOL0     N41327   5.725   5.424   5.280 -0.3826 -0.3568  0.4096
  307MOL0     C41328   5.725   5.297   5.329 -0.2929  0.1593 -0.7418
  307MOL0     C41329   5.806   5.312   5.438  0.1105 -0.0700 -0.3278
  307MOL0     C41330   5.862   5.193   5.511  0.3768  0.2737 -0.6852
  307MOL0     C41331   5.999   5.132   5.477 -0.4618 -1.1278 -0.3885
  307MOL0     C41332   6.093   5.230   5.409  0.1625 -0.6197  0.3479
  307MOL0     C41333   6.210   5.173   5.321  0.1727 -0.5180 -0.6302
  307MOL0     O41334   6.232   5.270   5.210 -0.0949 -0.4628 -0.4187
  307MOL0     C41335   6.287   5.220   5.098 -0.5196 -0.6031  0.0325
  307MOL0     C41336   6.277   5.306   4.992  0.3345  0.3437 -0.8469
  307MOL0     C41337   6.334   5.272   4.870 -0.0619 -0.2135 -0.0426
  307MOL0     C41338   6.329   5.368   4.750 -0.8646  0.2252  0.2468
  307MOL0     C41339   6.407   5.150   4.866 -0.1237  1.1439 -0.6856
  307MOL0     C41340   6.479   5.107   4.747  0.0847 -0.9188 -0.0101
  307MOL0     O41341   6.602   5.035   4.762  0.3062 -0.5368 -0.1526
  307MOL0     C41342   6.663   4.967   4.653 -0.4641  0.6545 -0.0332
  307MOL0     C41343   6.703   5.028   4.535 -0.0272 -0.1930  0.2508
  307MOL0     C41344   6.753   4.959   4.419  0.6999  0.8541 -0.1135
  307MOL0     C41345   6.780   4.820   4.426 -0.1790  0.0034 -0.0152
  307MOL0     O41346   6.843   4.752   4.313  0.7197 -0.4892  0.7004
  307MOL0     C41347   6.856   4.608   4.325 -0.5378 -0.2225 -0.3781
  307MOL0     C41348   6.933   4.543   4.210  0.5187  0.4363 -0.4080
  307MOL0     C41349   6.921   4.391   4.220 -1.2515 -0.0832 -0.6943
  307MOL0     C41350   7.018   4.345   4.111  0.0686 -0.2584  0.5020
  307MOL0     C41351   7.009   4.200   4.084  0.1738  0.2680 -0.2249
  307MOL0     C41352   7.104   4.148   3.972  0.3212 -0.5202 -0.2292
  307MOL0     C41353   7.085   3.999   3.920  0.2984 -0.2991  0.0521
  307MOL0     C41354   7.074   4.001   3.764  0.6466  0.1241 -0.1383
  307MOL0    Cl41355   6.913   4.063   3.705 -0.1578  0.0626 -0.3085
  307MOL0     C41356   6.736   4.761   4.549 -0.4377  0.1879 -0.7678
  307MOL0     C41357   6.682   4.830   4.655 -0.0488  0.9324 -0.2091
  307MOL0     O41358   6.427   5.131   4.629 -0.0630 -0.0034 -0.2554
  307MOL0     C41359   6.411   5.064   4.973 -0.0071  0.3735 -0.4180
  307MOL0     C41360   6.351   5.096   5.091 -0.6480  0.4857  0.6341
  307MOL0     N41361   5.844   5.443   5.449 -0.1992 -1.0442 -0.4369
  307MOL0     N41362   5.789   5.519   5.361  0.4795  0.0493  0.8151
  307MOL0     C41363   5.431   5.321   4.279 -0.3356  0.5576  0.1987
  307MOL0     C41364   5.393   5.218   4.191  0.0288 -0.0054 -0.2146
  307MOL0     C41365   5.193   4.817   4.053  0.5774 -0.9219  0.4286
  307MOL0     C41366   5.128   4.701   4.084 -0.1118  0.3980 -0.5648
  307MOL0     C41367   5.129   4.593   3.992  0.4273  0.1703  0.8464
  307MOL0     C41368   5.212   4.603   3.881 -0.1337 -0.1430  0.3994
  307MOL0     O41369   5.223   4.499   3.794  0.5271  0.4971 -0.0584
  307MOL0     C41370   5.114   4.518   3.696 -0.2579 -0.4440 -0.6418
  307MOL0     C41371   5.110   4.420   3.574 -0.9364  0.0434  0.3647
  307MOL0     C41372   5.002   4.465   3.478 -0.2639  0.4288 -0.4484
  307MOL0     C41373   4.976   4.358   3.366  0.3171 -0.1185 -0.3542
  307MOL0     C41374   5.081   4.369   3.270 -0.6878 -0.4536  0.6363
  307MOL0     C41375   5.173   4.389   3.201  0.0132 -0.4832  0.7664
  307MOL0     C41376   5.280   4.722   3.857 -0.1628 -0.1547  1.7823
  307MOL0     C41377   5.274   4.831   3.935  0.1188  0.2441  0.3102
  307MOL0     H41378   5.102   5.142   4.346  0.0270  1.0813  0.6154
  307MOL0     H41379   5.166   5.318   4.489 -0.2300 -1.9195  0.9931
  307MOL0     H41380   5.205   5.559   4.496  0.9875  1.9094 -0.2615
  307MOL0     H41381   5.263   5.447   4.615 -0.7014  0.7713  0.3693
  307MOL0     H41382   5.426   5.696   4.584 -1.3323  2.8602  1.3700
  307MOL0     H41383   5.278   5.698   4.679 -1.2523 -0.2095 -3.2819
  307MOL0     H41384   5.470   5.484   4.748 -0.3314 -0.9749  1.2687
  307MOL0     H41385   5.506   5.640   4.792 -0.1275 -0.8822  3.0575
  307MOL0     H41386   5.272   5.660   4.908  2.8213  1.1296 -0.0098
  307MOL0     H41387   5.225   5.492   4.844  0.4266 -1.7941  0.9650
  307MOL0     H41388   5.289   5.438   5.057  0.7824 -0.1129  0.2573
  307MOL0     H41389   5.433   5.427   4.965  0.1427  1.3099 -0.9761
  307MOL0     H41390   5.487   5.671   5.048  1.2758 -2.6204 -1.6515
  307MOL0     H41391   5.349   5.670   5.139  1.3757 -0.7469  1.7678
  307MOL0     H41392   5.523   5.588   5.293  1.4421  0.7265 -0.2167
  307MOL0     H41393   5.439   5.438   5.238  1.4675 -0.4395  1.4595
  307MOL0     H41394   5.698   5.554   5.119 -1.8163  0.9888 -0.7268
  307MOL0     H41395   5.638   5.385   5.089  0.1718  0.4822 -0.0358
  307MOL0     H41396   5.685   5.203   5.293 -1.7478 -0.2566  1.7564
  307MOL0     H41397   5.887   5.222   5.613  0.8498 -4.7475  0.9162
  307MOL0     H41398   5.790   5.110   5.512 -0.3360  0.7888 -2.9307
  307MOL0     H41399   5.983   5.048   5.409 -1.8958 -2.4836  1.5259
  307MOL0     H41400   6.047   5.107   5.572  0.0488  3.3906  0.7728
  307MOL0     H41401   6.132   5.306   5.478 -1.1372  1.0718 -0.6935
  307MOL0     H41402   6.038   5.293   5.338  0.0951  0.1740  1.0890
  307MOL0     H41403   6.168   5.079   5.283 -0.6767  1.1439 -4.2183
  307MOL0     H41404   6.295   5.144   5.384  1.3128 -0.5254 -2.1191
  307MOL0     H41405   6.218   5.396   4.998 -0.8049 -0.4599  0.6901
  307MOL0     H41406   6.328   5.472   4.783 -0.9743  0.2494  0.1684
  307MOL0     H41407   6.414   5.368   4.681 -0.0438  3.1259  1.1202
  307MOL0     H41408   6.244   5.345   4.684  1.4246 -1.1732 -2.4429
  307MOL0     H41409   6.678   5.132   4.520 -1.8878 -0.8404 -1.6419
  307MOL0     H41410   6.772   5.014   4.327 -0.3904 -2.0722 -2.2596
  307MOL0     H41411   6.906   4.602   4.422 -3.1224 -2.5434  0.9647
  307MOL0     H41412   6.760   4.557   4.339 -0.1955 -1.5110 -2.3258
  307MOL0     H41413   6.885   4.593   4.126  0.6868  1.4139  0.0623
  307MOL0     H41414   7.038   4.572   4.219  1.4148 -2.4580 -0.5198
  307MOL0     H41415   6.821   4.359   4.190 -1.0241 -0.7570 -0.7525
  307MOL0     H41416   6.944   4.356   4.321  0.0435  1.0975 -0.5522
  307MOL0     H41417   6.992   4.401   4.021  0.4583 -0.4543  0.2671
  307MOL0     H41418   7.118   4.368   4.147 -0.4765  2.2517  0.5633
  307MOL0     H41419   6.907   4.179   4.052  0.7700  0.0891 -2.1637
  307MOL0     H41420   7.036   4.142   4.173  1.6146  0.5275 -0.4546
  307MOL0     H41421   7.094   4.221   3.892 -0.6372  1.6735  1.7791
  307MOL0     H41422   7.203   4.167   4.014 -0.2655  1.2004  0.4632
  307MOL0     H41423   6.995   3.960   3.969 -0.0743  3.8650  3.3667
  307MOL0     H41424   7.166   3.937   3.960 -2.1730 -1.5235  3.7626
  307MOL0     H41425   7.071   3.896   3.736 -2.6785 -0.7471  2.7693
  307MOL0     H41426   7.149   4.060   3.710 -3.9414  2.6238 -4.7489
  307MOL0     H41427   6.749   4.654   4.563  2.7082  0.5634 -0.0547
  307MOL0     H41428   6.676   4.787   4.754  5.3793  0.0804  0.0646
  307MOL0     H41429   6.462   4.969   4.962 -0.2639  0.2928 -0.9491
  307MOL0     H41430   6.355   5.018   5.166 -2.8856 -0.1957  0.1196
  307MOL0     H41431   5.529   5.366   4.277 -0.9999  2.0886 -2.5302
  307MOL0     H41432   5.473   5.182   4.128  2.4734  0.9044  2.2009
  307MOL0     H41433   5.070   4.704   4.176  2.2572  1.1748  0.9986
  307MOL0     H41434   5.086   4.493   3.996  3.4785 -1.5887 -3.1017
  307MOL0     H41435   5.014   4.511   3.740 -0.5019 -1.3233 -1.3038
  307MOL0     H41436   5.126   4.620   3.660  1.9227 -0.9938 -1.6422
  307MOL0     H41437   5.079   4.321   3.610 -3.8368  0.8535  0.3824
  307MOL0     H41438   5.210   4.420   3.531 -0.7502  0.8116  0.7964
  307MOL0     H41439   5.037   4.561   3.438  2.1284 -0.1200  0.1905
  307MOL0     H41440   4.912   4.487   3.537  0.4341  1.0894  0.3966
  307MOL0     H41441   4.882   4.388   3.319  1.6600  2.7574 -1.4619
  307MOL0     H41442   4.960   4.258   3.409  0.2758 -0.6015 -1.4537
  307MOL0     H41443   5.253   4.410   3.133  0.4931  0.2183  1.5288
  307MOL0     H41444   5.345   4.727   3.770 -2.0234 -0.1001  0.3538
  307MOL0     H41445   5.336   4.917   3.915 -0.9370  1.0868  0.5784
  308MOL0     O41446   0.508   2.464   9.358 -0.1770 -0.0023 -0.1118
  308MOL0     C41447   0.486   2.532   9.256  0.3398  1.0539  0.6489
  308MOL0     O41448   0.372   2.537   9.189  0.4106 -0.1910 -0.4602
  308MOL0     C41449   0.263   2.454   9.224 -0.8143 -0.5198  0.7373
  308MOL0     C41450   0.205   2.448   9.354 -0.0579 -0.1617 -0.7806
  308MOL0     C41451   0.095   2.371   9.395 -0.3421 -0.4572 -0.1173
  308MOL0     C41452   0.024   2.299   9.292  0.6821  0.3249 -0.3153
  308MOL0     O41453  -0.078   2.218   9.334 -0.8045  0.4674  0.3273
  308MOL0     C41454  -0.195   2.296   9.371 -1.1016  0.5679  0.6334
  308MOL0     C41455  -0.310   2.273   9.264 -0.1654  0.2644  1.0463
  308MOL0     C41456  -0.424   2.379   9.277 -0.2753  0.4462  0.3862
  308MOL0     C41457  -0.539   2.343   9.187 -0.3706 -1.0698 -0.6153
  308MOL0     C41458  -0.648   2.451   9.216  0.5856 -1.0097  0.8122
  308MOL0     C41459  -0.745   2.430   9.093  0.4416 -0.5542 -0.0024
  308MOL0     C41460  -0.876   2.500   9.127  0.8130 -0.4061  0.3921
  308MOL0     C41461  -0.942   2.563   9.011  0.0573 -0.6658 -0.2642
  308MOL0     N41462  -0.976   2.461   8.906  0.0823  0.5684 -0.1423
  308MOL0     C41463  -1.062   2.360   8.919 -1.1551 -0.4585 -0.1358
  308MOL0     C41464  -1.028   2.280   8.810 -0.4543 -0.1020 -0.7259
  308MOL0     C41465  -1.085   2.143   8.787 -0.5129  0.5532 -0.5275
  308MOL0     C41466  -1.230   2.133   8.738  0.4783  0.0278 -0.1867
  308MOL0     C41467  -1.336   2.217   8.812  0.4220 -1.1356 -0.3368
  308MOL0     C41468  -1.475   2.204   8.742  0.0926 -0.5028 -0.0644
  308MOL0     O41469  -1.578   2.278   8.826 -0.1399  0.3278  0.2087
  308MOL0     C41470  -1.700   2.293   8.768 -0.3375  1.3934 -0.8444
  308MOL0     C41471  -1.793   2.361   8.845  0.5071  0.2959  0.1213
  308MOL0     C41472  -1.928   2.374   8.807  0.0445  0.2648  0.3950
  308MOL0     C41473  -2.019   2.446   8.907 -0.9064 -0.9905 -0.1993
  308MOL0     C41474  -1.964   2.329   8.679  0.1303  0.6575 -0.3814
  308MOL0     C41475  -2.091   2.370   8.620 -0.2941  0.3513 -0.4187
  308MOL0     O41476  -2.105   2.330   8.480  0.4234 -0.5925  0.4623
  308MOL0     C41477  -2.205   2.390   8.400  0.3954 -0.3503  1.0031
  308MOL0     C41478  -2.274   2.507   8.410  0.2113 -0.2520  0.7697
  308MOL0     C41479  -2.352   2.564   8.306  0.1174 -0.0275  0.6987
  308MOL0     C41480  -2.367   2.491   8.188 -0.1938 -1.2218  0.4522
  308MOL0     O41481  -2.434   2.531   8.076 -0.0596 -0.7316 -0.7801
  308MOL0     C41482  -2.528   2.630   8.103 -0.1366 -0.5582  0.5315
  308MOL0     C41483  -2.590   2.673   7.969  0.0812  0.9359 -0.3244
  308MOL0     C41484  -2.665   2.568   7.889  0.8031 -0.1382 -1.2776
  308MOL0     C41485  -2.810   2.545   7.944  0.5519 -0.2074 -0.0967
  308MOL0     C41486  -2.902   2.467   7.850 -0.9443  0.0953 -0.5952
  308MOL0     C41487  -3.048   2.452   7.890  0.0602 -0.4668 -0.4288
  308MOL0     C41488  -3.119   2.383   7.782 -0.2978 -0.3998  0.4636
  308MOL0     C41489  -3.270   2.383   7.816 -0.2066  0.4480  0.1033
  308MOL0    Cl41490  -3.347   2.541   7.795 -0.2879  0.0436  0.0326
  308MOL0     C41491  -2.307   2.366   8.177 -0.7964 -0.8897 -0.6921
  308MOL0     C41492  -2.232   2.321   8.281  0.4833  0.5646  0.0833
  308MOL0     O41493  -2.168   2.440   8.684  0.6810 -0.1271 -0.1303
  308MOL0     C41494  -1.875   2.244   8.609  0.4357  0.5318  0.8202
  308MOL0     C41495  -1.746   2.219   8.651  1.0592 -0.1496  0.0726
  308MOL0     N41496  -0.948   2.347   8.723 -0.1405  0.1144 -0.1042
  308MOL0     N41497  -0.924   2.459   8.782 -0.1603 -0.7240  0.1015
  308MOL0     C41498   0.081   2.305   9.159  0.4069  1.1517  0.4455
  308MOL0     C41499   0.196   2.377   9.130 -1.4531 -0.9583  0.8499
  308MOL0     C41500   0.602   2.606   9.193  0.1978  0.3544 -0.4691
  308MOL0     C41501   0.579   2.671   9.070 -0.0966 -0.0982 -0.7366
  308MOL0     C41502   0.691   2.746   9.018  0.9622  0.0568  0.0503
  308MOL0     C41503   0.820   2.748   9.063  0.2574 -0.9145 -0.3277
  308MOL0     O41504   0.930   2.816   9.017 -0.9842 -0.5217  0.4212
  308MOL0     C41505   0.925   2.892   8.890 -1.2290 -0.6489  0.6623
  308MOL0     C41506   0.868   3.030   8.910 -0.8080 -0.6462  0.0776
  308MOL0     C41507   0.872   3.111   8.780 -0.5083  0.2783  0.1816
  308MOL0     C41508   0.988   3.212   8.770 -0.4240 -0.0668  0.0986
  308MOL0     C41509   1.120   3.145   8.785  0.1272 -0.2410 -0.5193
  308MOL0     C41510   1.234   3.110   8.788 -0.6020 -0.5742  1.2163
  308MOL0     C41511   0.835   2.686   9.194  0.4433  0.7911 -0.4215
  308MOL0     C41512   0.725   2.619   9.253 -0.4938 -0.0303 -0.5454
  308MOL0     H41513   0.256   2.489   9.441 -0.3072  1.9622 -1.5832
  308MOL0     H41514   0.066   2.377   9.500 -0.0576  2.2840 -0.1334
  308MOL0     H41515  -0.228   2.265   9.470 -0.3366  1.9310  1.3486
  308MOL0     H41516  -0.158   2.398   9.387  1.5729 -0.0062 -1.2541
  308MOL0     H41517  -0.272   2.290   9.163 -2.2760  1.7006  0.4071
  308MOL0     H41518  -0.342   2.168   9.259  1.4329 -0.1867 -0.5129
  308MOL0     H41519  -0.462   2.373   9.380 -2.6277 -2.6183 -0.5053
  308MOL0     H41520  -0.374   2.475   9.265  0.4979  0.4737  3.0681
  308MOL0     H41521  -0.496   2.369   9.090  0.9101 -1.0995 -0.0716
  308MOL0     H41522  -0.568   2.239   9.204  0.0172 -1.2924 -1.2962
  308MOL0     H41523  -0.692   2.433   9.314 -0.6994  2.1164  0.9250
  308MOL0     H41524  -0.615   2.556   9.216 -2.6347  0.2385 -2.5202
  308MOL0     H41525  -0.703   2.465   8.999 -2.8294 -1.1462 -1.8271
  308MOL0     H41526  -0.762   2.323   9.080  2.0906 -0.7372 -0.9779
  308MOL0     H41527  -0.942   2.426   9.174  1.3914 -1.0257  0.2482
  308MOL0     H41528  -0.863   2.574   9.207 -0.1385 -0.7722  0.9084
  308MOL0     H41529  -0.888   2.643   8.959 -0.0350 -0.3742  0.0861
  308MOL0     H41530  -1.037   2.602   9.049 -1.1345 -4.1424  0.6691
  308MOL0     H41531  -1.122   2.332   9.005 -0.0502 -1.5191  0.3309
  308MOL0     H41532  -1.015   2.096   8.717  0.1140  0.4397  0.1653
  308MOL0     H41533  -1.072   2.083   8.878  0.9731 -2.2195 -2.4015
  308MOL0     H41534  -1.260   2.027   8.738 -1.5637  0.3925 -4.4198
  308MOL0     H41535  -1.228   2.167   8.634  0.4005  3.2195  0.7649
  308MOL0     H41536  -1.306   2.322   8.807  0.0681 -0.9684  0.7347
  308MOL0     H41537  -1.349   2.188   8.917 -2.3739  1.9019  0.3072
  308MOL0     H41538  -1.491   2.097   8.733  0.2558 -0.3440 -4.1481
  308MOL0     H41539  -1.455   2.245   8.642  2.4556  2.0752  1.3028
  308MOL0     H41540  -1.768   2.395   8.945 -0.9020 -1.5045  1.1389
  308MOL0     H41541  -2.109   2.388   8.931 -0.2239 -1.7907  0.4762
  308MOL0     H41542  -1.967   2.465   9.001  0.8260 -2.4484 -0.8057
  308MOL0     H41543  -2.043   2.541   8.860 -0.0334 -2.3271 -3.6073
  308MOL0     H41544  -2.260   2.577   8.491  2.6570  0.6818 -0.3601
  308MOL0     H41545  -2.410   2.654   8.322 -1.3514 -0.9213  0.6821
  308MOL0     H41546  -2.605   2.597   8.173 -0.5926 -0.6843 -0.0162
  308MOL0     H41547  -2.486   2.716   8.155 -0.9219  1.1894 -1.5951
  308MOL0     H41548  -2.661   2.757   7.971  1.1231  2.0072 -3.2379
  308MOL0     H41549  -2.511   2.714   7.905 -0.9795  2.3308 -0.7861
  308MOL0     H41550  -2.603   2.477   7.892 -0.4445 -0.9769  0.0808
  308MOL0     H41551  -2.666   2.600   7.784 -0.8501  1.9786 -0.6728
  308MOL0     H41552  -2.804   2.485   8.035 -2.7050 -1.1669 -0.3940
  308MOL0     H41553  -2.859   2.642   7.956 -1.1652 -0.3722 -4.1714
  308MOL0     H41554  -2.865   2.367   7.826  0.4251  0.7251 -1.2139
  308MOL0     H41555  -2.904   2.518   7.754 -0.3954 -1.7094 -1.6054
  308MOL0     H41556  -3.057   2.399   7.985 -3.7596  1.4168  0.4330
  308MOL0     H41557  -3.089   2.551   7.911  2.2004  0.6245 -1.0914
  308MOL0     H41558  -3.067   2.287   7.781  2.6243  1.0645 -1.6904
  308MOL0     H41559  -3.098   2.433   7.687  2.2459  0.1404  1.2569
  308MOL0     H41560  -3.267   2.364   7.924 -2.8971  1.6779  0.4637
  308MOL0     H41561  -3.315   2.300   7.761  0.9673 -0.7765  0.9362
  308MOL0     H41562  -2.309   2.322   8.078  0.4604 -0.2608 -1.0225
  308MOL0     H41563  -2.176   2.231   8.260 -0.8450 -0.8741  2.2689
  308MOL0     H41564  -1.911   2.203   8.515  0.4965  5.2493 -1.5684
  308MOL0     H41565  -1.674   2.163   8.592  0.1397  1.9401 -3.2849
  308MOL0     H41566   0.034   2.231   9.095  1.0423 -1.4675  2.8384
  308MOL0     H41567   0.244   2.382   9.033  0.9121 -0.5584  1.9632
  308MOL0     H41568   0.480   2.658   9.026  0.4792 -4.7824 -1.1313
  308MOL0     H41569   0.668   2.822   8.944  1.2427 -1.7802 -2.0521
  308MOL0     H41570   1.029   2.892   8.856  0.5902  2.5297  5.2289
  308MOL0     H41571   0.852   2.847   8.822 -0.9290 -0.6016  0.3072
  308MOL0     H41572   0.935   3.075   8.984 -0.9901 -1.5397  0.8050
  308MOL0     H41573   0.767   3.018   8.950 -1.1179 -1.5361 -0.9264
  308MOL0     H41574   0.777   3.166   8.782  0.3648  1.8185  1.5051
  308MOL0     H41575   0.879   3.048   8.690 -3.2260  1.3706 -0.9017
  308MOL0     H41576   0.976   3.293   8.843  1.6784  0.3536  0.0379
  308MOL0     H41577   0.978   3.249   8.668 -3.3888 -0.9127 -0.0044
  308MOL0     H41578   1.329   3.061   8.776  0.9162  2.6353 -1.6086
  308MOL0     H41579   0.933   2.684   9.239 -0.4754  0.8484  1.6905
  308MOL0     H41580   0.742   2.566   9.346  2.1850  2.1571  0.3690
  309MOL0     O41581   6.433   2.930  11.252 -0.5872  0.0103 -0.2311
  309MOL0     C41582   6.438   3.042  11.301  0.0026 -0.7712  0.5367
  309MOL0     O41583   6.337   3.095  11.392 -0.0257  0.9011 -1.2720
  309MOL0     C41584   6.217   3.035  11.440 -0.0173 -0.5146  0.1659
  309MOL0     C41585   6.161   2.916  11.404 -0.2593  0.1603  0.2532
  309MOL0     C41586   6.051   2.865  11.465 -0.8013 -0.3568 -0.5409
  309MOL0     C41587   5.985   2.934  11.571 -0.2026 -0.9338  0.5149
  309MOL0     O41588   5.859   2.890  11.609  0.0576 -0.4471 -0.9867
  309MOL0     C41589   5.813   2.906  11.750 -0.1339  0.0377 -0.6802
  309MOL0     C41590   5.748   2.774  11.789  0.0230  0.5028  0.3542
  309MOL0     C41591   5.725   2.780  11.939 -0.2880 -0.0081  0.0023
  309MOL0     C41592   5.623   2.676  11.973  0.7664  0.5858 -0.4109
  309MOL0     C41593   5.482   2.716  11.929 -0.2927  0.4519  0.3712
  309MOL0     C41594   5.420   2.835  11.991  0.2105  0.1043 -0.5369
  309MOL0     C41595   5.414   2.832  12.151 -0.8585 -0.0822  0.9207
  309MOL0     C41596   5.272   2.844  12.213  0.2795  0.2320  0.2758
  309MOL0     N41597   5.166   2.751  12.156 -0.0169 -0.0947  0.6523
  309MOL0     C41598   5.138   2.631  12.201  0.6451 -1.3946 -0.0474
  309MOL0     C41599   5.015   2.600  12.159  0.2534 -0.5728  0.3687
  309MOL0     C41600   4.921   2.481  12.173  1.5755 -0.9420  0.2919
  309MOL0     C41601   4.986   2.356  12.139  0.0627  0.3257 -0.3794
  309MOL0     C41602   5.037   2.335  11.996  1.2163 -0.6431  0.2096
  309MOL0     C41603   5.112   2.215  11.981  0.1164 -0.5352  0.8302
  309MOL0     O41604   5.158   2.228  11.851  0.0170 -0.0141 -0.0124
  309MOL0     C41605   5.249   2.141  11.809  0.5192  0.2237  0.5086
  309MOL0     C41606   5.290   2.149  11.671 -0.2866 -0.1822  0.5380
  309MOL0     C41607   5.382   2.062  11.615 -0.3560 -0.3844  0.7996
  309MOL0     C41608   5.398   2.094  11.467 -0.2981  0.1969  0.1298
  309MOL0     C41609   5.431   1.950  11.691 -0.5334  0.1458 -0.8355
  309MOL0     C41610   5.555   1.859  11.651 -0.0468 -0.4796  0.3831
  309MOL0     O41611   5.642   1.905  11.558 -0.2724  0.1931  0.0431
  309MOL0     C41612   5.768   1.852  11.544  0.7330  0.0956  0.2141
  309MOL0     C41613   5.846   1.790  11.638  0.7510 -0.0474 -0.2411
  309MOL0     C41614   5.957   1.716  11.602 -0.1446  0.3671 -0.4531
  309MOL0     C41615   5.998   1.701  11.472  0.4048 -0.2092 -0.6723
  309MOL0     O41616   6.119   1.647  11.454 -0.0553 -0.0120 -0.3473
  309MOL0     C41617   6.187   1.700  11.342  0.6242 -0.0360 -0.4745
  309MOL0     C41618   6.326   1.644  11.324 -0.4466  0.1675 -0.2660
  309MOL0     C41619   6.412   1.672  11.448  0.2288 -0.5774 -1.0151
  309MOL0     C41620   6.548   1.614  11.435 -0.0180 -0.5914 -0.2763
  309MOL0     C41621   6.629   1.666  11.559 -0.0703 -0.6195  0.7742
  309MOL0     C41622   6.758   1.581  11.551 -0.5699  0.2700  0.0498
  309MOL0     C41623   6.880   1.641  11.618  0.4226  0.7219  0.7247
  309MOL0     C41624   7.006   1.552  11.576  0.1587  0.1345 -0.1969
  309MOL0    Cl41625   7.153   1.653  11.596  0.0523  0.0311  0.4944
  309MOL0     C41626   5.916   1.747  11.372  0.3604 -0.7186 -0.5458
  309MOL0     C41627   5.802   1.830  11.407 -0.7753  0.1714  0.2825
  309MOL0     O41628   5.570   1.754  11.718  0.6918 -0.3151  0.7141
  309MOL0     C41629   5.383   1.934  11.823 -0.2897  1.1852 -0.3173
  309MOL0     C41630   5.302   2.031  11.885 -0.0432  0.2770 -0.1086
  309MOL0     N41631   4.969   2.717  12.085 -0.0635  0.0389 -0.2917
  309MOL0     N41632   5.067   2.804  12.078 -0.0191  0.2517 -0.2745
  309MOL0     C41633   6.032   3.064  11.601 -0.3753 -0.2263  1.0968
  309MOL0     C41634   6.145   3.112  11.531 -0.7429  0.4345 -0.0657
  309MOL0     C41635   6.547   3.125  11.250 -0.0779 -0.8820  0.4381
  309MOL0     C41636   6.576   3.246  11.318  0.0617 -0.7751  0.9193
  309MOL0     C41637   6.665   3.337  11.258 -0.7685  0.2523 -0.7793
  309MOL0     C41638   6.742   3.311  11.148  0.5010 -0.3610 -0.0970
  309MOL0     O41639   6.839   3.397  11.111  0.1745 -0.2516 -0.2658
  309MOL0     C41640   6.799   3.515  11.043 -0.9461  0.1630 -0.5431
  309MOL0     C41641   6.889   3.532  10.925 -0.1651 -0.5442  0.1832
  309MOL0     C41642   7.042   3.509  10.964 -0.2219  0.5654 -0.6475
  309MOL0     C41643   7.094   3.584  11.088  0.0653 -1.1470 -0.0011
  309MOL0     C41644   7.093   3.729  11.068  0.2075  1.0929  0.2880
  309MOL0     C41645   7.088   3.845  11.052  0.1095  0.4276  0.1413
  309MOL0     C41646   6.721   3.186  11.092 -1.2281 -1.6674 -0.4631
  309MOL0     C41647   6.621   3.098  11.136 -0.4069 -0.3495  0.4077
  309MOL0     H41648   6.210   2.852  11.331 -0.6780 -0.2860  0.3568
  309MOL0     H41649   6.007   2.770  11.437  0.1524 -1.8926  2.6865
  309MOL0     H41650   5.895   2.939  11.814 -1.5949  0.4700  1.0552
  309MOL0     H41651   5.736   2.983  11.758  1.2913  1.3607  1.4076
  309MOL0     H41652   5.657   2.765  11.730  1.3855  1.5888 -2.0878
  309MOL0     H41653   5.812   2.685  11.783 -1.6846 -0.7228 -0.3122
  309MOL0     H41654   5.819   2.776  11.993 -1.3195  1.9120  2.1239
  309MOL0     H41655   5.694   2.880  11.973  0.2094 -0.1122  0.7939
  309MOL0     H41656   5.640   2.592  11.905 -1.4528  0.1960 -0.5394
  309MOL0     H41657   5.622   2.651  12.079 -1.9378  0.3995 -0.4150
  309MOL0     H41658   5.479   2.706  11.820 -0.3991 -3.1289  0.5704
  309MOL0     H41659   5.418   2.635  11.964  2.1649 -0.9479  1.8826
  309MOL0     H41660   5.484   2.920  11.963  0.1850  0.1646 -0.4127
  309MOL0     H41661   5.319   2.839  11.951 -0.0435  1.7083  0.1817
  309MOL0     H41662   5.458   2.738  12.185  0.5405 -0.5869 -1.9816
  309MOL0     H41663   5.474   2.914  12.190 -0.5014 -0.5997  1.4695
  309MOL0     H41664   5.233   2.945  12.199  1.7926  0.8552  0.3369
  309MOL0     H41665   5.293   2.841  12.321  0.5945  1.8902  0.2970
  309MOL0     H41666   5.197   2.565  12.264  0.6696  0.5347  2.1127
  309MOL0     H41667   4.883   2.477  12.276 -2.8214  2.1327 -0.8954
  309MOL0     H41668   4.835   2.496  12.106 -0.1222  0.3084  2.5921
  309MOL0     H41669   4.912   2.288  12.181  1.5653 -0.5047  1.0380
  309MOL0     H41670   5.076   2.363  12.202  0.1836  1.0287 -0.6145
  309MOL0     H41671   5.097   2.422  11.968  2.0203 -1.9940 -2.6482
  309MOL0     H41672   4.952   2.327  11.928  2.2700  0.9366 -1.3541
  309MOL0     H41673   5.064   2.123  12.014  2.6010 -2.3478 -0.2509
  309MOL0     H41674   5.197   2.236  12.048 -1.7421  0.1449  3.1254
  309MOL0     H41675   5.245   2.231  11.615  0.0857 -1.1071 -1.1864
  309MOL0     H41676   5.302   2.095  11.413  1.2102  0.2688 -2.7166
  309MOL0     H41677   5.450   2.189  11.455  2.6971 -0.9599  2.6619
  309MOL0     H41678   5.468   2.027  11.417 -1.4729 -0.7505 -0.2884
  309MOL0     H41679   5.811   1.802  11.740  1.7751 -0.2374  0.1530
  309MOL0     H41680   6.027   1.689  11.680  0.5414  0.0814 -1.1506
  309MOL0     H41681   6.124   1.664  11.260 -2.0016  2.0021  0.4699
  309MOL0     H41682   6.189   1.809  11.328 -0.2887 -0.3886 -5.3427
  309MOL0     H41683   6.314   1.536  11.310  0.5232  0.1168 -0.7498
  309MOL0     H41684   6.374   1.683  11.234 -3.9176  2.5547 -1.3286
  309MOL0     H41685   6.359   1.639  11.538  1.2885  2.5791  0.9334
  309MOL0     H41686   6.425   1.780  11.464  2.3362 -0.8744 -0.5395
  309MOL0     H41687   6.533   1.506  11.438  0.8806 -0.7887 -1.8002
  309MOL0     H41688   6.589   1.634  11.336 -2.0158  1.8768 -0.7133
  309MOL0     H41689   6.579   1.643  11.653 -2.1904  0.5444 -0.0100
  309MOL0     H41690   6.655   1.772  11.544  0.8276 -1.1945 -2.6478
  309MOL0     H41691   6.740   1.481  11.590  0.1323  0.0830 -0.0887
  309MOL0     H41692   6.787   1.571  11.446  0.5402 -2.2306  0.5268
  309MOL0     H41693   6.883   1.652  11.727  0.5389  1.2156  0.6733
  309MOL0     H41694   6.900   1.741  11.578 -1.3978  0.7603 -0.1610
  309MOL0     H41695   7.006   1.518  11.472  0.1633 -2.6285  0.6361
  309MOL0     H41696   7.008   1.459  11.633 -1.7374 -1.7727 -2.9948
  309MOL0     H41697   5.952   1.731  11.271  0.3612 -0.5040 -0.5816
  309MOL0     H41698   5.746   1.878  11.328 -0.3486  2.3536  1.2184
  309MOL0     H41699   5.430   1.851  11.875  2.6289  1.1922 -2.6872
  309MOL0     H41700   5.290   2.030  11.993 -0.9264  0.2819 -0.1995
  309MOL0     H41701   5.996   3.132  11.677 -0.1721  0.2458  0.7746
  309MOL0     H41702   6.181   3.208  11.566 -3.0631  1.2723  0.2150
  309MOL0     H41703   6.517   3.274  11.404 -2.8317  1.8274 -1.6692
  309MOL0     H41704   6.682   3.429  11.313 -0.9393 -0.3878  0.3706
  309MOL0     H41705   6.703   3.507  10.990  1.0194  1.3630 -4.7498
  309MOL0     H41706   6.808   3.608  11.100  0.3985  1.9028 -3.3491
  309MOL0     H41707   6.882   3.630  10.876  0.4376 -0.1482  0.8646
  309MOL0     H41708   6.863   3.462  10.845  0.5825  0.5506 -1.0588
  309MOL0     H41709   7.102   3.527  10.874 -0.8408 -2.6880 -1.8733
  309MOL0     H41710   7.065   3.405  10.989  2.6080  0.1513 -4.1441
  309MOL0     H41711   7.196   3.552  11.109  1.3176  2.4692  0.0556
  309MOL0     H41712   7.033   3.549  11.173  0.1121 -0.0283  0.5107
  309MOL0     H41713   7.082   3.951  11.038 -1.1687  0.2378 -0.9463
  309MOL0     H41714   6.776   3.150  11.005 -0.3895  1.9109 -1.5760
  309MOL0     H41715   6.599   3.002  11.089 -0.0314 -0.0858 -0.3082
  310MOL0     O41716  10.237   1.854   4.270  0.1373 -0.4625  0.3470
  310MOL0     C41717  10.351   1.829   4.241 -0.3034 -0.2114  0.0132
  310MOL0     O41718  10.401   1.708   4.242 -0.0154 -0.5324 -0.1720
  310MOL0     C41719  10.327   1.601   4.297 -0.5062  0.4030  0.5858
  310MOL0     C41720  10.312   1.580   4.437 -0.5308 -0.7267 -0.5622
  310MOL0     C41721  10.226   1.484   4.478  0.2241  0.5040 -0.6114
  310MOL0     C41722  10.155   1.396   4.395  0.4282 -0.8000 -0.7581
  310MOL0     O41723  10.059   1.317   4.456  0.3005  0.7229  0.5646
  310MOL0     C41724   9.928   1.366   4.468  0.3554 -0.1420  0.2484
  310MOL0     C41725   9.895   1.417   4.613  0.3841 -0.5826  0.2004
  310MOL0     C41726   9.742   1.439   4.632 -0.9597  0.0637 -0.4711
  310MOL0     C41727   9.713   1.524   4.756 -0.2160  0.9801 -0.2861
  310MOL0     C41728   9.601   1.615   4.745  0.4321  0.4795  1.3999
  310MOL0     C41729   9.458   1.547   4.752  0.7585  0.6681  0.1082
  310MOL0     C41730   9.353   1.649   4.715  0.3323  0.4984  0.8025
  310MOL0     C41731   9.313   1.761   4.805  0.7130  0.0477 -0.9411
  310MOL0     N41732   9.291   1.705   4.946 -0.1113 -0.9691 -0.2306
  310MOL0     C41733   9.361   1.747   5.058 -0.5923 -0.1364  0.3350
  310MOL0     C41734   9.304   1.677   5.156 -0.4455 -0.3737 -0.2016
  310MOL0     C41735   9.329   1.693   5.303 -0.4258  1.3712  0.1322
  310MOL0     C41736   9.447   1.614   5.362 -0.1050  0.5090 -0.3597
  310MOL0     C41737   9.462   1.634   5.506  0.3405  0.4858 -0.6781
  310MOL0     C41738   9.559   1.534   5.564 -0.6718 -0.5662 -0.7834
  310MOL0     O41739   9.692   1.533   5.507  0.7224 -0.2385 -0.2081
  310MOL0     C41740   9.797   1.605   5.557 -0.7275 -0.1487  0.6695
  310MOL0     C41741   9.928   1.594   5.507  0.1055  0.2394 -0.0543
  310MOL0     C41742  10.042   1.660   5.562  0.0704 -0.7818  0.2372
  310MOL0     C41743  10.182   1.625   5.510 -0.0294 -0.5448  1.2932
  310MOL0     C41744  10.028   1.755   5.670  1.4312  1.0895 -0.6834
  310MOL0     C41745  10.141   1.832   5.733 -0.1411  0.3669  0.7945
  310MOL0     O41746  10.260   1.765   5.748  0.1426  0.0770 -0.1274
  310MOL0     C41747  10.366   1.836   5.796  0.2809 -0.5186 -0.6840
  310MOL0     C41748  10.408   1.948   5.728  0.2023  0.7841  0.4071
  310MOL0     C41749  10.518   2.016   5.777  0.1471 -0.5608 -0.7872
  310MOL0     C41750  10.575   1.981   5.894  0.1051 -0.9940 -0.3951
  310MOL0     O41751  10.685   2.052   5.929  0.1170 -0.1166  0.4245
  310MOL0     C41752  10.704   2.051   6.077  0.6740  0.1990 -0.3453
  310MOL0     C41753  10.817   2.147   6.110  0.2817  0.1667 -1.0465
  310MOL0     C41754  10.937   2.092   6.028  0.1090 -0.7319  0.4979
  310MOL0     C41755  11.056   2.191   6.050 -0.2800  0.0230 -0.4954
  310MOL0     C41756  11.190   2.117   6.025 -0.7375 -0.1009 -0.1882
  310MOL0     C41757  11.301   2.218   5.982  0.1195 -0.1216 -0.2732
  310MOL0     C41758  11.441   2.151   5.973  0.3747  0.5497  1.1853
  310MOL0     C41759  11.504   2.093   6.098 -0.0754  0.1065 -0.3152
  310MOL0    Cl41760  11.506   2.208   6.231  0.3616  0.2150  0.0448
  310MOL0     C41761  10.541   1.856   5.955 -0.3849  0.3666  0.0518
  310MOL0     C41762  10.423   1.792   5.910  0.5471  0.3003 -1.1027
  310MOL0     O41763  10.118   1.945   5.754  0.2900 -0.5153  0.0644
  310MOL0     C41764   9.893   1.780   5.703 -0.1936  0.0392  0.9109
  310MOL0     C41765   9.785   1.710   5.651 -0.6067  1.0383  1.3232
  310MOL0     N41766   9.207   1.607   5.110  0.5651 -0.3761 -0.4842
  310MOL0     N41767   9.196   1.619   4.974  0.3977  0.1421 -0.6584
  310MOL0     C41768  10.183   1.401   4.251 -0.4509 -0.0859  0.3102
  310MOL0     C41769  10.276   1.502   4.199  0.8111 -0.8152  0.5903
  310MOL0     C41770  10.433   1.935   4.189  0.0598 -0.5986 -0.3427
  310MOL0     C41771  10.439   2.050   4.273  0.2234  0.0615  0.6851
  310MOL0     C41772  10.511   2.160   4.221 -0.5948  0.3232 -0.2359
  310MOL0     C41773  10.574   2.158   4.099 -0.7720 -0.3709  0.2190
  310MOL0     O41774  10.641   2.262   4.047 -0.2197 -0.7320  0.2449
  310MOL0     C41775  10.787   2.269   4.052  0.3362  0.1501 -0.1966
  310MOL0     C41776  10.829   2.392   4.126 -0.1503  0.5343  0.7804
  310MOL0     C41777  10.824   2.381   4.286  0.3595 -0.1906 -1.0692
  310MOL0     C41778  10.966   2.350   4.348 -0.3230 -0.4143  0.2492
  310MOL0     C41779  11.054   2.466   4.323 -0.6100  0.4015  0.1836
  310MOL0     C41780  11.116   2.568   4.295  0.1265 -0.3871 -0.8140
  310MOL0     C41781  10.577   2.038   4.024  0.3574  0.0311  0.2329
  310MOL0     C41782  10.497   1.929   4.070 -0.8112  0.5459 -0.9218
  310MOL0     H41783  10.360   1.653   4.502  2.6184 -1.1590 -2.1579
  310MOL0     H41784  10.198   1.479   4.583 -1.8480 -3.0518 -1.1732
  310MOL0     H41785   9.911   1.450   4.400 -1.6412 -0.0695  0.7578
  310MOL0     H41786   9.861   1.288   4.430  0.8679 -1.6923  2.3006
  310MOL0     H41787   9.930   1.352   4.693 -0.8285  0.1887  1.4107
  310MOL0     H41788   9.944   1.512   4.637 -1.3299 -0.1858  2.5101
  310MOL0     H41789   9.706   1.493   4.544  2.2722  3.8657  0.2731
  310MOL0     H41790   9.683   1.347   4.641 -0.4840 -0.2172 -0.1620
  310MOL0     H41791   9.705   1.458   4.843  2.2062  2.4927  1.2062
  310MOL0     H41792   9.807   1.574   4.780  3.7655 -4.1698 -3.0799
  310MOL0     H41793   9.607   1.681   4.832  0.6663  0.7879  1.1512
  310MOL0     H41794   9.618   1.673   4.653  1.2354 -0.5681  0.8664
  310MOL0     H41795   9.453   1.461   4.685  0.0260  1.9235 -1.5087
  310MOL0     H41796   9.449   1.505   4.853 -2.2750  1.6688  0.3486
  310MOL0     H41797   9.369   1.701   4.620  0.6176  0.7726  0.9986
  310MOL0     H41798   9.258   1.597   4.699  0.8165  0.0373 -0.8078
  310MOL0     H41799   9.216   1.787   4.764  1.0237 -3.1311 -4.2752
  310MOL0     H41800   9.386   1.842   4.797  1.1011 -0.3738 -1.8140
  310MOL0     H41801   9.429   1.832   5.058  1.5827 -1.7615 -0.8870
  310MOL0     H41802   9.362   1.795   5.325  1.2867  1.4916 -2.5849
  310MOL0     H41803   9.237   1.682   5.362 -0.5817  3.6500  0.4440
  310MOL0     H41804   9.538   1.650   5.315 -0.6361  1.6332 -0.5567
  310MOL0     H41805   9.432   1.508   5.341  0.0758  0.6758 -1.3738
  310MOL0     H41806   9.371   1.627   5.566  1.2584  0.3284  0.7457
  310MOL0     H41807   9.493   1.737   5.523 -0.1606  0.6114 -0.4960
  310MOL0     H41808   9.514   1.434   5.569  0.5164 -1.4318 -4.4020
  310MOL0     H41809   9.571   1.570   5.667  2.0678  0.0261 -1.2375
  310MOL0     H41810   9.948   1.532   5.421  4.0482  0.2655  0.6700
  310MOL0     H41811  10.239   1.583   5.593 -0.3466 -1.5310  1.0236
  310MOL0     H41812  10.195   1.558   5.425  2.0965  0.5658  0.6848
  310MOL0     H41813  10.237   1.717   5.487  2.0285 -2.1031 -0.3437
  310MOL0     H41814  10.358   1.979   5.637  1.7593 -0.9188 -1.1087
  310MOL0     H41815  10.550   2.099   5.715  0.1003 -0.1911 -0.3246
  310MOL0     H41816  10.617   2.070   6.140 -0.3202 -3.8416 -0.2088
  310MOL0     H41817  10.742   1.955   6.112 -1.4664  0.0734  1.8090
  310MOL0     H41818  10.787   2.245   6.071  1.3389  0.7071 -0.5346
  310MOL0     H41819  10.837   2.141   6.217 -1.6168 -4.7509 -0.6631
  310MOL0     H41820  10.907   2.093   5.923  2.4205 -2.2849 -0.2742
  310MOL0     H41821  10.963   1.992   6.066  1.0059  0.4820  3.3836
  310MOL0     H41822  11.054   2.266   5.970 -0.0577  0.3077 -0.2344
  310MOL0     H41823  11.049   2.243   6.146  0.3707  0.8378 -0.8798
  310MOL0     H41824  11.194   2.044   5.944  2.8604 -0.6509  0.3621
  310MOL0     H41825  11.217   2.067   6.118  0.2948  1.7173  0.5491
  310MOL0     H41826  11.277   2.260   5.884 -0.3904 -1.7608 -0.8893
  310MOL0     H41827  11.296   2.306   6.047 -0.4911 -1.8013  2.1096
  310MOL0     H41828  11.502   2.231   5.930 -4.2683  2.8821 -1.9520
  310MOL0     H41829  11.435   2.081   5.889 -0.7963  1.2865  0.6338
  310MOL0     H41830  11.605   2.054   6.082  0.4585  0.1488  2.3940
  310MOL0     H41831  11.448   2.004   6.129  0.1187  0.2469  0.4565
  310MOL0     H41832  10.591   1.812   6.041  1.2092  2.5221  0.3095
  310MOL0     H41833  10.380   1.709   5.966  0.3367  2.4274  2.2010
  310MOL0     H41834   9.877   1.850   5.785  1.1250  0.9339  0.4387
  310MOL0     H41835   9.682   1.726   5.679 -1.0851 -2.7796  2.2537
  310MOL0     H41836  10.132   1.331   4.185 -2.3941  2.4245 -1.0347
  310MOL0     H41837  10.288   1.505   4.092 -1.4179  0.1921  0.3069
  310MOL0     H41838  10.390   2.057   4.369 -1.1807  0.3912 -0.0326
  310MOL0     H41839  10.515   2.254   4.274  0.6739  0.5090 -0.6127
  310MOL0     H41840  10.838   2.179   4.088 -1.7786 -0.7055  0.8332
  310MOL0     H41841  10.825   2.278   3.950 -0.4685  2.1540 -0.3667
  310MOL0     H41842  10.767   2.475   4.088  2.0746  0.8596 -2.5631
  310MOL0     H41843  10.933   2.404   4.097 -0.0755 -1.4635  0.1019
  310MOL0     H41844  10.749   2.308   4.316 -1.4149  2.4208  1.3663
  310MOL0     H41845  10.783   2.469   4.336  2.8299 -0.9756  2.7324
  310MOL0     H41846  11.008   2.254   4.318  0.8234 -0.6718  2.4528
  310MOL0     H41847  10.959   2.340   4.457 -1.1673  3.4403  0.7214
  310MOL0     H41848  11.179   2.654   4.283  2.0153 -1.7174 -0.8186
  310MOL0     H41849  10.621   2.016   3.927 -1.6405  0.4625 -0.8336
  310MOL0     H41850  10.501   1.834   4.017  3.1020 -0.4624  0.8182
  311MOL0     O41851   7.492   0.797   1.015  0.2853 -0.5083 -0.3214
  311MOL0     C41852   7.528   0.892   1.088  0.3111 -0.3778 -0.1191
  311MOL0     O41853   7.631   0.882   1.185  0.0641 -0.0610 -0.2624
  311MOL0     C41854   7.720   0.775   1.179 -0.0125 -0.4142 -0.3877
  311MOL0     C41855   7.675   0.648   1.211  0.3180 -0.7938  0.1487
  311MOL0     C41856   7.756   0.539   1.224 -0.1114  0.6300  0.0022
  311MOL0     C41857   7.890   0.551   1.180  0.3613 -1.0092 -0.2015
  311MOL0     O41858   7.976   0.443   1.201 -0.4564  0.0530  0.6719
  311MOL0     C41859   8.107   0.442   1.145  0.1171 -0.2575 -0.8498
  311MOL0     C41860   8.094   0.371   1.020  0.3765  0.1256 -0.0531
  311MOL0     C41861   8.230   0.362   0.948 -0.2199 -0.8559  0.2607
  311MOL0     C41862   8.307   0.239   0.998 -0.1440 -0.3537 -0.3784
  311MOL0     C41863   8.441   0.219   0.922  0.1414  0.2480  0.4763
  311MOL0     C41864   8.556   0.279   1.000 -0.8660  0.6447 -0.0909
  311MOL0     C41865   8.691   0.249   0.944 -0.6797  0.2974  0.6250
  311MOL0     C41866   8.715   0.094   0.947 -0.2216 -0.2210 -0.1243
  311MOL0     N41867   8.668   0.031   1.068  0.3807 -0.2255 -0.3961
  311MOL0     C41868   8.742   0.041   1.182  0.1152  0.4333 -0.5519
  311MOL0     C41869   8.663  -0.030   1.270  0.8737 -0.1956  0.3803
  311MOL0     C41870   8.699  -0.055   1.415  0.2602  0.2037  0.4038
  311MOL0     C41871   8.642   0.053   1.503  0.0375 -0.0340 -0.5516
  311MOL0     C41872   8.490   0.052   1.513 -0.3809 -0.9368  0.6128
  311MOL0     C41873   8.446   0.120   1.642  0.4716 -0.8843 -0.3326
  311MOL0     O41874   8.516   0.246   1.663 -0.6885  0.8418  0.0502
  311MOL0     C41875   8.470   0.365   1.605 -0.7518 -0.0488 -0.2059
  311MOL0     C41876   8.559   0.473   1.622 -0.7651  0.0148 -1.0261
  311MOL0     C41877   8.544   0.594   1.555 -0.1281  0.4761  0.9370
  311MOL0     C41878   8.653   0.694   1.537  0.4997  0.1505 -0.6289
  311MOL0     C41879   8.416   0.608   1.489  0.4185 -0.3644  0.3848
  311MOL0     C41880   8.378   0.730   1.412 -0.9659  0.0854  0.3064
  311MOL0     O41881   8.332   0.708   1.289  0.2332 -0.0126 -0.5544
  311MOL0     C41882   8.310   0.809   1.200 -1.1398 -0.9088 -1.2027
  311MOL0     C41883   8.198   0.895   1.195  1.0256  0.1226 -0.2838
  311MOL0     C41884   8.189   0.987   1.091  0.7369  0.9068 -0.0298
  311MOL0     C41885   8.292   1.019   1.006 -0.4890  1.3532 -0.9877
  311MOL0     O41886   8.267   1.131   0.929 -0.0470  0.1956  0.0321
  311MOL0     C41887   8.382   1.171   0.846  0.1818  0.8296 -0.7455
  311MOL0     C41888   8.332   1.277   0.753  0.0598 -0.4706 -0.3656
  311MOL0     C41889   8.433   1.317   0.643 -0.6750  0.2635 -0.2676
  311MOL0     C41890   8.527   1.425   0.692  0.4598 -0.3565  0.7765
  311MOL0     C41891   8.655   1.438   0.610  0.4223  0.6197 -0.4692
  311MOL0     C41892   8.632   1.520   0.489 -0.3087  0.1921  0.1909
  311MOL0     C41893   8.755   1.521   0.398  0.0090  0.0830  0.1816
  311MOL0     C41894   8.775   1.648   0.329 -0.5152 -0.9332  0.2921
  311MOL0    Cl41895   8.625   1.680   0.232  0.0575 -0.2220 -0.0836
  311MOL0     C41896   8.405   0.932   1.014 -0.0730  0.5982 -0.7199
  311MOL0     C41897   8.418   0.822   1.104  0.8671  0.2958 -0.6082
  311MOL0     O41898   8.401   0.834   1.465  0.7621 -0.5796  0.9779
  311MOL0     C41899   8.324   0.503   1.481  0.7529 -0.6916  0.5816
  311MOL0     C41900   8.356   0.381   1.530  0.4440 -0.2295  1.0588
  311MOL0     N41901   8.544  -0.080   1.209  0.3328 -0.3403 -0.3288
  311MOL0     N41902   8.555  -0.037   1.084  0.4426 -0.7558  0.2222
  311MOL0     C41903   7.929   0.675   1.128 -0.0639  0.5683  0.0791
  311MOL0     C41904   7.846   0.787   1.132 -0.5610  0.0432  0.1317
  311MOL0     C41905   7.473   1.019   1.036 -1.0302 -0.8151 -0.2681
  311MOL0     C41906   7.353   1.019   0.957 -0.0769 -0.7233 -1.4115
  311MOL0     C41907   7.293   1.142   0.913 -0.5264 -0.1409  0.3352
  311MOL0     C41908   7.352   1.259   0.946 -0.1591 -0.2283  0.0174
  311MOL0     O41909   7.290   1.374   0.906  0.5672 -0.3924 -0.2791
  311MOL0     C41910   7.366   1.495   0.868 -0.0265 -0.6869 -0.2658
  311MOL0     C41911   7.414   1.460   0.723 -0.0123  0.6169 -0.1445
  311MOL0     C41912   7.301   1.491   0.626 -0.1395  0.1348  0.4875
  311MOL0     C41913   7.343   1.444   0.484 -0.9085 -0.1005 -0.4631
  311MOL0     C41914   7.444   1.534   0.425  0.3714 -0.8403  0.0016
  311MOL0     C41915   7.537   1.582   0.373 -0.7900  0.6796  0.3989
  311MOL0     C41916   7.470   1.263   1.030  0.4972  0.3446 -0.7794
  311MOL0     C41917   7.528   1.138   1.068 -0.4655  0.2732 -1.0629
  311MOL0     H41918   7.572   0.620   1.235 -0.4543  3.0262  1.9939
  311MOL0     H41919   7.710   0.445   1.253  0.5291  0.8434  1.8854
  311MOL0     H41920   8.146   0.543   1.135 -2.4675  0.8832 -0.2925
  311MOL0     H41921   8.169   0.390   1.218  0.0526  1.9910  0.9210
  311MOL0     H41922   8.057   0.269   1.034  1.1517 -0.7836 -3.6393
  311MOL0     H41923   8.028   0.436   0.961  1.8177  2.1142  0.3893
  311MOL0     H41924   8.194   0.333   0.849 -0.1656 -0.3789  0.0973
  311MOL0     H41925   8.285   0.456   0.936 -1.2952 -0.5072 -3.4732
  311MOL0     H41926   8.331   0.267   1.101 -0.6029 -2.4622  0.3632
  311MOL0     H41927   8.245   0.149   0.986 -3.5178  2.0498 -2.7434
  311MOL0     H41928   8.447   0.112   0.898 -3.4257 -0.5477  2.4449
  311MOL0     H41929   8.424   0.274   0.829 -3.2746  1.2768  1.5618
  311MOL0     H41930   8.558   0.388   1.003  1.7486  0.6461  2.2043
  311MOL0     H41931   8.557   0.244   1.104 -0.3324 -1.8338 -0.8476
  311MOL0     H41932   8.703   0.280   0.840 -3.3163 -3.0383 -0.8639
  311MOL0     H41933   8.765   0.287   1.015  2.9897 -1.9583 -1.6375
  311MOL0     H41934   8.818   0.070   0.919 -0.9525 -1.0384 -2.3258
  311MOL0     H41935   8.659   0.042   0.869 -0.5911 -0.3426  0.2125
  311MOL0     H41936   8.834   0.092   1.207  1.6970 -3.5423  3.2234
  311MOL0     H41937   8.651  -0.150   1.439 -1.0103  1.0527  1.3828
  311MOL0     H41938   8.804  -0.075   1.436  0.1820  1.9608  2.8009
  311MOL0     H41939   8.685   0.150   1.477 -2.6769  1.0624 -1.2916
  311MOL0     H41940   8.682   0.030   1.602 -0.3728  1.8842  0.1068
  311MOL0     H41941   8.466  -0.054   1.523  0.1286 -0.9444  1.8678
  311MOL0     H41942   8.433   0.095   1.429 -2.0615 -2.3894  0.9549
  311MOL0     H41943   8.465   0.043   1.718 -1.8573 -0.6037  0.6069
  311MOL0     H41944   8.339   0.141   1.651  0.6831 -0.6507  2.6135
  311MOL0     H41945   8.649   0.453   1.678 -0.1662  1.0451 -1.5902
  311MOL0     H41946   8.676   0.714   1.432 -0.8968  1.5457 -0.7104
  311MOL0     H41947   8.611   0.779   1.591 -1.6881 -1.7554  0.8630
  311MOL0     H41948   8.745   0.657   1.585 -1.1855 -0.9632  2.0026
  311MOL0     H41949   8.112   0.871   1.256  0.0326  0.0657 -1.6558
  311MOL0     H41950   8.099   1.048   1.085  0.1666 -0.0799 -3.2988
  311MOL0     H41951   8.456   1.217   0.912 -2.4693  1.4642  2.0079
  311MOL0     H41952   8.433   1.091   0.791  2.0478  1.1416  0.4477
  311MOL0     H41953   8.241   1.246   0.701  0.6157 -1.0168 -1.0379
  311MOL0     H41954   8.303   1.367   0.808  1.4623 -0.2464  0.0386
  311MOL0     H41955   8.376   1.355   0.557 -0.6118  2.3571  0.5526
  311MOL0     H41956   8.487   1.225   0.619 -0.4539 -0.4146  2.5591
  311MOL0     H41957   8.481   1.519   0.724 -2.1295 -1.7886  1.5427
  311MOL0     H41958   8.559   1.392   0.791  1.6741  4.0933  2.1208
  311MOL0     H41959   8.711   1.345   0.597  0.7537  0.7770 -0.1920
  311MOL0     H41960   8.729   1.491   0.671  0.9679 -2.0092  1.2893
  311MOL0     H41961   8.553   1.470   0.433  1.3465 -0.0771 -2.0509
  311MOL0     H41962   8.600   1.621   0.515  0.7950  0.7307 -0.4741
  311MOL0     H41963   8.750   1.438   0.327 -1.3596  0.1138  0.2172
  311MOL0     H41964   8.843   1.502   0.459  0.5378  2.9699  0.4633
  311MOL0     H41965   8.867   1.641   0.270  0.1422 -1.5857  1.3791
  311MOL0     H41966   8.785   1.719   0.412 -1.2239 -2.3378  1.6218
  311MOL0     H41967   8.490   0.935   0.946  2.4582  1.8683  2.2394
  311MOL0     H41968   8.502   0.753   1.100  1.3621  0.8084  0.4200
  311MOL0     H41969   8.235   0.523   1.422  1.3787 -1.5396 -0.7057
  311MOL0     H41970   8.292   0.296   1.513  0.9370 -0.3084 -0.6785
  311MOL0     H41971   8.027   0.697   1.087  1.0853  3.1532  3.7076
  311MOL0     H41972   7.875   0.883   1.091  0.7030 -0.6617 -0.6981
  311MOL0     H41973   7.316   0.923   0.923 -1.2632 -0.4682 -0.8947
  311MOL0     H41974   7.199   1.150   0.860  0.0309  1.2976 -0.4832
  311MOL0     H41975   7.296   1.580   0.870  0.9092  0.1197 -0.8368
  311MOL0     H41976   7.449   1.525   0.933 -0.6175 -1.7083  1.0048
  311MOL0     H41977   7.460   1.360   0.723 -1.4932 -0.2271  3.1859
  311MOL0     H41978   7.500   1.525   0.708  1.3709 -0.6485  1.7272
  311MOL0     H41979   7.293   1.599   0.613 -1.6552 -0.2809 -3.4559
  311MOL0     H41980   7.209   1.443   0.660 -0.9293 -0.7587 -2.6324
  311MOL0     H41981   7.249   1.426   0.431 -0.9181 -3.4535  0.4750
  311MOL0     H41982   7.385   1.344   0.490 -0.7198 -0.0337 -0.6510
  311MOL0     H41983   7.622   1.636   0.337  2.2466 -3.0662  1.2977
  311MOL0     H41984   7.521   1.353   1.063  1.4420 -0.7438  0.8429
  311MOL0     H41985   7.616   1.134   1.132 -2.2490 -0.1688  1.5195
  312MOL0     O41986   1.211   0.459   9.290  0.5681 -0.7097  0.3875
  312MOL0     C41987   1.099   0.503   9.315 -0.4552 -0.0460 -0.3078
  312MOL0     O41988   1.066   0.637   9.306 -0.2768  0.4104 -0.1684
  312MOL0     C41989   1.165   0.725   9.298 -0.9964  0.3278 -0.4919
  312MOL0     C41990   1.258   0.731   9.202  0.3952 -0.0569 -0.2967
  312MOL0     C41991   1.371   0.814   9.212 -0.7803  0.1786 -0.3120
  312MOL0     C41992   1.383   0.902   9.315  0.4533 -1.3540  0.2468
  312MOL0     O41993   1.478   0.996   9.299 -0.2396 -0.1784  0.1844
  312MOL0     C41994   1.439   1.119   9.230 -0.2541 -0.2891  0.3325
  312MOL0     C41995   1.557   1.195   9.171  0.3943 -0.4893  0.8499
  312MOL0     C41996   1.643   1.106   9.075 -0.2749  0.7308  0.1522
  312MOL0     C41997   1.776   1.190   9.028  0.0843 -0.2690  0.0627
  312MOL0     C41998   1.871   1.107   8.947 -0.4736 -0.5092 -1.1551
  312MOL0     C41999   1.947   1.009   9.032 -0.6128 -0.5267 -0.0086
  312MOL0     C42000   2.010   0.898   8.933 -0.3204  0.8152  0.6234
  312MOL0     C42001   2.148   0.943   8.872 -0.0493 -0.7811  0.1259
  312MOL0     N42002   2.264   0.937   8.964 -0.7648 -0.2112  0.8276
  312MOL0     C42003   2.339   0.831   9.007  0.0183 -0.1062 -0.4640
  312MOL0     C42004   2.444   0.881   9.075 -0.1743  0.6028 -0.8449
  312MOL0     C42005   2.539   0.810   9.152 -0.3615 -0.0064 -0.6087
  312MOL0     C42006   2.689   0.830   9.115 -0.1010 -0.3487 -0.1316
  312MOL0     C42007   2.782   0.743   9.208  0.2617  0.4222 -0.7732
  312MOL0     C42008   2.923   0.727   9.163 -0.8615 -0.7566  0.5460
  312MOL0     O42009   2.934   0.642   9.040  0.5198  0.0949  0.5914
  312MOL0     C42010   3.055   0.596   8.991  0.2278 -0.6113  0.1708
  312MOL0     C42011   3.184   0.610   9.053 -0.0402 -0.8408 -0.0515
  312MOL0     C42012   3.299   0.566   8.982  0.2091  0.6131  0.2756
  312MOL0     C42013   3.435   0.578   9.062 -0.5882 -0.1991 -0.6753
  312MOL0     C42014   3.285   0.510   8.853  0.3904  0.9731 -0.3374
  312MOL0     C42015   3.408   0.474   8.771  0.5147 -0.1762  1.3026
  312MOL0     O42016   3.537   0.500   8.819  0.3267 -0.7506 -0.0356
  312MOL0     C42017   3.636   0.475   8.727  0.1845  0.2140 -0.3758
  312MOL0     C42018   3.696   0.350   8.711  0.1025  0.9941 -1.1405
  312MOL0     C42019   3.808   0.339   8.626  0.7455 -0.6928 -0.3795
  312MOL0     C42020   3.851   0.452   8.559  0.0988 -0.5835 -0.4401
  312MOL0     O42021   3.958   0.457   8.479  0.0058 -0.2400 -0.4004
  312MOL0     C42022   3.996   0.341   8.414  0.5530  0.3517 -1.1321
  312MOL0     C42023   4.102   0.376   8.310 -0.2390  0.5814  0.1305
  312MOL0     C42024   4.164   0.254   8.242 -1.2193  0.8116  0.5573
  312MOL0     C42025   4.277   0.319   8.165  0.7009 -0.2507  0.1192
  312MOL0     C42026   4.418   0.303   8.212  0.8766 -0.1753  0.0524
  312MOL0     C42027   4.503   0.398   8.127  0.2163  0.0548 -0.1774
  312MOL0     C42028   4.652   0.351   8.120 -0.2032 -0.2454 -0.0504
  312MOL0     C42029   4.719   0.404   7.996  0.0340  0.4676 -0.1825
  312MOL0    Cl42030   4.717   0.585   7.991 -0.0353 -0.0328 -0.1600
  312MOL0     C42031   3.799   0.571   8.574 -0.0709  0.1789  0.8711
  312MOL0     C42032   3.688   0.584   8.662 -0.9334  0.2500  1.1526
  312MOL0     O42033   3.396   0.440   8.649  0.5852 -0.2850  0.8544
  312MOL0     C42034   3.162   0.503   8.797 -0.1326 -0.0000 -0.2115
  312MOL0     C42035   3.047   0.549   8.861  0.0936  0.5628  0.4311
  312MOL0     N42036   2.432   1.014   9.068  0.3967 -0.4555 -0.1901
  312MOL0     N42037   2.320   1.045   9.013 -0.0923 -0.5312 -0.2492
  312MOL0     C42038   1.293   0.899   9.418  0.3458  0.2638 -0.1631
  312MOL0     C42039   1.187   0.816   9.404 -0.5989  0.6479  0.1232
  312MOL0     C42040   0.997   0.416   9.375 -0.1862 -0.7490 -0.4016
  312MOL0     C42041   0.899   0.462   9.471  0.1582 -0.6508  0.5825
  312MOL0     C42042   0.802   0.375   9.513  0.2151  0.4851  0.0923
  312MOL0     C42043   0.803   0.241   9.473  0.7363 -1.0599  0.4787
  312MOL0     O42044   0.706   0.167   9.535 -0.1202  0.6045 -0.3056
  312MOL0     C42045   0.675   0.038   9.484  0.3162  0.5907  0.9392
  312MOL0     C42046   0.562  -0.030   9.563  0.2661  0.1961  0.7408
  312MOL0     C42047   0.548  -0.172   9.514 -0.1319  0.1646 -0.0748
  312MOL0     C42048   0.414  -0.243   9.552 -0.3007  0.3184 -1.2410
  312MOL0     C42049   0.373  -0.222   9.688  0.2848  0.1530 -0.5416
  312MOL0     C42050   0.330  -0.190   9.790 -0.0213 -1.4484 -0.4195
  312MOL0     C42051   0.892   0.196   9.377  0.0552 -0.6400  0.4048
  312MOL0     C42052   0.984   0.284   9.330  0.5362  0.6826 -0.4926
  312MOL0     H42053   1.245   0.670   9.114  4.2795 -2.2201  0.3999
  312MOL0     H42054   1.446   0.811   9.133 -0.0724 -3.6291  0.3207
  312MOL0     H42055   1.375   1.106   9.142  0.3324  2.6376 -0.6392
  312MOL0     H42056   1.389   1.183   9.303 -0.4694 -1.0885  0.8965
  312MOL0     H42057   1.520   1.283   9.118  0.2503  0.1397  1.9649
  312MOL0     H42058   1.621   1.236   9.250 -2.4454  3.4143  1.3791
  312MOL0     H42059   1.678   1.030   9.146 -1.0634 -0.0650 -0.2922
  312MOL0     H42060   1.584   1.065   8.993  1.4101 -0.4172 -0.5479
  312MOL0     H42061   1.740   1.272   8.965 -0.6918 -1.4606 -1.1096
  312MOL0     H42062   1.828   1.223   9.118 -3.0010  3.4048  0.7687
  312MOL0     H42063   1.804   1.055   8.877  0.5403 -2.2737 -0.8714
  312MOL0     H42064   1.946   1.163   8.892  0.2940 -0.1386  0.2335
  312MOL0     H42065   2.026   1.061   9.088  1.8845 -0.1470 -3.5390
  312MOL0     H42066   1.875   0.959   9.097 -1.9446 -0.9080 -1.7162
  312MOL0     H42067   2.022   0.801   8.983  1.6289  1.2598  1.1221
  312MOL0     H42068   1.930   0.889   8.860 -1.4937 -0.5535  2.0100
  312MOL0     H42069   2.146   1.046   8.834 -0.4594 -0.6838  0.3960
  312MOL0     H42070   2.165   0.876   8.787 -0.1199  2.7007 -2.9183
  312MOL0     H42071   2.316   0.727   8.985 -2.9472  0.0800  1.2086
  312MOL0     H42072   2.533   0.834   9.258  0.7744  0.0827 -0.5517
  312MOL0     H42073   2.521   0.702   9.146 -0.6582 -0.0035  0.1045
  312MOL0     H42074   2.725   0.933   9.124  0.2194 -0.4643 -0.0661
  312MOL0     H42075   2.696   0.826   9.006  0.0640  0.9133 -0.1826
  312MOL0     H42076   2.735   0.644   9.216 -0.5478  0.5088 -3.4484
  312MOL0     H42077   2.776   0.795   9.304 -1.3710 -2.1794  0.6495
  312MOL0     H42078   2.976   0.692   9.252 -0.6929  2.4142  1.7961
  312MOL0     H42079   2.961   0.826   9.136 -1.2066 -1.0944 -1.3093
  312MOL0     H42080   3.190   0.664   9.147  1.6652 -1.3782  0.1945
  312MOL0     H42081   3.494   0.665   9.031  0.3605 -1.3969 -2.4260
  312MOL0     H42082   3.411   0.592   9.168  2.4149  2.0298 -0.1524
  312MOL0     H42083   3.492   0.485   9.057 -2.7069 -1.5718 -0.6388
  312MOL0     H42084   3.653   0.268   8.767 -2.7813  4.2868  2.0576
  312MOL0     H42085   3.862   0.245   8.624 -1.4153 -2.0277  0.0739
  312MOL0     H42086   4.031   0.271   8.490 -2.2110 -0.7466 -0.7371
  312MOL0     H42087   3.920   0.293   8.351 -0.5393 -0.3935  0.6885
  312MOL0     H42088   4.054   0.442   8.238  0.1621  0.3246 -0.3715
  312MOL0     H42089   4.186   0.428   8.357 -1.1939  0.4650  2.0799
  312MOL0     H42090   4.100   0.195   8.176  1.4527 -0.6770 -0.9204
  312MOL0     H42091   4.211   0.189   8.317  1.1596  0.1114 -1.4030
  312MOL0     H42092   4.280   0.282   8.062  1.0449  1.9994 -0.7488
  312MOL0     H42093   4.257   0.423   8.135  2.0838 -0.8261 -3.1910
  312MOL0     H42094   4.462   0.203   8.201  0.4721 -0.2591 -0.9094
  312MOL0     H42095   4.427   0.341   8.314  1.9374  2.0525 -0.8066
  312MOL0     H42096   4.468   0.400   8.024 -1.7741 -2.2309  0.3743
  312MOL0     H42097   4.496   0.504   8.156  4.1340  0.8173 -1.3266
  312MOL0     H42098   4.669   0.243   8.118 -0.4858 -0.2883 -0.0974
  312MOL0     H42099   4.709   0.379   8.210  0.4444  1.7656 -1.0378
  312MOL0     H42100   4.667   0.358   7.912 -0.4289 -3.6101  2.0727
  312MOL0     H42101   4.825   0.377   7.989 -0.3151 -0.8662 -0.4323
  312MOL0     H42102   3.848   0.655   8.525  1.8037 -1.2611  0.1885
  312MOL0     H42103   3.632   0.677   8.668 -1.1867  0.2481 -0.7081
  312MOL0     H42104   3.149   0.459   8.699 -3.2557 -0.5378  0.3508
  312MOL0     H42105   2.955   0.533   8.807  1.6648 -2.4491 -1.6774
  312MOL0     H42106   1.303   0.965   9.503 -0.8021  0.1610  0.0653
  312MOL0     H42107   1.108   0.821   9.478 -1.0915  1.2987 -0.4333
  312MOL0     H42108   0.896   0.561   9.514 -2.4061 -0.7931  0.8826
  312MOL0     H42109   0.740   0.394   9.599  0.0884 -0.8771  0.3246
  312MOL0     H42110   0.646   0.052   9.379 -0.2448 -1.1324  0.8286
  312MOL0     H42111   0.756  -0.036   9.492 -0.0187  0.2514  1.2543
  312MOL0     H42112   0.473   0.033   9.560  0.1762  0.0500  0.2021
  312MOL0     H42113   0.597  -0.028   9.666  1.0123 -1.4255  0.5500
  312MOL0     H42114   0.632  -0.236   9.541 -0.0734 -0.5131 -1.7575
  312MOL0     H42115   0.561  -0.179   9.406 -0.0954 -1.8101  0.0142
  312MOL0     H42116   0.433  -0.351   9.551 -3.0785 -0.4888  3.5187
  312MOL0     H42117   0.336  -0.217   9.480 -1.4143  0.1817 -0.1184
  312MOL0     H42118   0.292  -0.164   9.887  0.6473 -3.2942  0.3696
  312MOL0     H42119   0.880   0.094   9.342  0.1673 -0.3346 -0.5498
  312MOL0     H42120   1.042   0.254   9.243  0.9187  1.1760 -0.4097
  313MOL0     O42121   1.894   6.815  10.112  0.1268  0.3389 -0.1672
  313MOL0     C42122   1.800   6.830  10.032 -0.1575  0.5279 -0.0431
  313MOL0     O42123   1.806   6.803   9.901 -0.8663 -0.2479  0.2028
  313MOL0     C42124   1.912   6.726   9.854 -1.0736  0.4503 -0.7290
  313MOL0     C42125   2.021   6.764   9.779  0.4354 -0.0199 -0.1085
  313MOL0     C42126   2.104   6.664   9.714  0.6091  0.4160 -0.1931
  313MOL0     C42127   2.090   6.530   9.731  0.4551  0.5465  0.1880
  313MOL0     O42128   2.172   6.432   9.686  0.4575 -0.3031  0.6139
  313MOL0     C42129   2.301   6.458   9.646  1.0728  0.6651 -0.4645
  313MOL0     C42130   2.376   6.322   9.613  0.1354  0.2868 -0.6627
  313MOL0     C42131   2.437   6.303   9.471  0.6490  0.4234 -0.3852
  313MOL0     C42132   2.502   6.163   9.445  1.1258  0.6236 -0.6614
  313MOL0     C42133   2.569   6.163   9.307  0.3237  0.5230  0.3059
  313MOL0     C42134   2.471   6.141   9.196  0.5326 -0.5115  0.2273
  313MOL0     C42135   2.545   6.167   9.054  0.0023 -0.4389 -0.2315
  313MOL0     C42136   2.674   6.074   9.039  0.1745 -0.3329  0.0571
  313MOL0     N42137   2.708   6.045   8.904 -0.1363  0.4950 -1.0516
  313MOL0     C42138   2.758   6.136   8.819 -0.1914  0.1072 -0.0230
  313MOL0     C42139   2.778   6.073   8.705  0.5080  0.0573 -0.0430
  313MOL0     C42140   2.836   6.135   8.579  0.2351 -0.0086  0.1383
  313MOL0     C42141   2.951   6.041   8.537 -0.0438  0.4295 -0.4290
  313MOL0     C42142   3.048   6.097   8.442  1.0426 -0.0795  1.1892
  313MOL0     C42143   2.978   6.091   8.302  0.0777 -0.4275 -0.2131
  313MOL0     O42144   2.930   5.968   8.256  0.9925 -0.2693  0.6344
  313MOL0     C42145   3.021   5.871   8.230 -1.3688  0.8968  0.0294
  313MOL0     C42146   3.143   5.902   8.157 -0.4081  0.3371  0.5183
  313MOL0     C42147   3.231   5.797   8.124  0.5087  0.8876 -0.5431
  313MOL0     C42148   3.373   5.834   8.065 -0.3412 -0.4922 -0.3710
  313MOL0     C42149   3.202   5.665   8.177 -0.4126  0.5593 -0.0769
  313MOL0     C42150   3.297   5.556   8.187 -0.4939  0.2928 -0.4323
  313MOL0     O42151   3.261   5.449   8.257 -0.5415 -0.0533 -0.1013
  313MOL0     C42152   3.348   5.344   8.287  0.0030 -0.9889 -0.2378
  313MOL0     C42153   3.373   5.247   8.192 -0.9733 -0.2521 -0.1044
  313MOL0     C42154   3.475   5.156   8.219 -0.3342 -0.1359 -0.3419
  313MOL0     C42155   3.552   5.161   8.337  0.3701  0.1565  0.0960
  313MOL0     O42156   3.650   5.068   8.365 -0.3429  0.9761 -0.4068
  313MOL0     C42157   3.631   4.930   8.345  0.5469 -0.0904 -0.1320
  313MOL0     C42158   3.744   4.845   8.387 -0.3275  0.0368 -0.0775
  313MOL0     C42159   3.854   4.819   8.286  0.6530 -0.5123 -0.7066
  313MOL0     C42160   3.844   4.682   8.203 -0.0355 -0.4496  0.3873
  313MOL0     C42161   3.726   4.655   8.116  0.6465  0.1523  0.8382
  313MOL0     C42162   3.735   4.738   7.991  0.4240  0.0679  0.8859
  313MOL0     C42163   3.824   4.681   7.879  0.7416  0.0917 -0.7305
  313MOL0     C42164   3.860   4.787   7.763  0.2769  0.5268 -0.1946
  313MOL0    Cl42165   3.964   4.918   7.808  0.5743 -0.0647 -0.1109
  313MOL0     C42166   3.513   5.249   8.444  0.3538  0.8384 -0.0008
  313MOL0     C42167   3.409   5.345   8.413 -0.9039  0.7920 -0.3082
  313MOL0     O42168   3.408   5.574   8.149  0.4016  0.5696 -0.0353
  313MOL0     C42169   3.078   5.642   8.244 -0.2711 -0.3912 -0.4540
  313MOL0     C42170   2.984   5.741   8.252  0.7132  0.3956 -0.7113
  313MOL0     N42171   2.739   5.944   8.720  0.6754 -0.4642  0.3745
  313MOL0     N42172   2.697   5.921   8.838 -0.0615  0.2214 -0.3064
  313MOL0     C42173   1.982   6.489   9.813 -0.5400  0.9233  0.6882
  313MOL0     C42174   1.894   6.587   9.869  0.3326  0.0807  0.5967
  313MOL0     C42175   1.677   6.886  10.086  1.1986  0.3982 -0.5942
  313MOL0     C42176   1.573   6.917   9.998  0.4543 -0.9345  0.2588
  313MOL0     C42177   1.452   6.969  10.046  0.2155  0.2444 -0.2665
  313MOL0     C42178   1.428   6.977  10.181  0.1017 -0.6887  0.3081
  313MOL0     O42179   1.297   6.991  10.242  0.0457 -0.2115 -0.0924
  313MOL0     C42180   1.179   6.974  10.162 -0.9000 -0.0112 -0.0495
  313MOL0     C42181   1.053   6.950  10.247  0.4342 -0.2061  0.4216
  313MOL0     C42182   1.070   6.847  10.362 -1.0787 -0.6679 -0.7805
  313MOL0     C42183   1.112   6.934  10.496  0.4084  0.0307  1.6011
  313MOL0     C42184   1.163   6.851  10.612 -0.2699 -0.5098  0.7790
  313MOL0     C42185   1.220   6.801  10.707  0.2176  0.1877 -0.9017
  313MOL0     C42186   1.535   6.965  10.263  0.1181  0.4068 -0.5587
  313MOL0     C42187   1.653   6.910  10.221 -0.1199 -0.1632 -0.0281
  313MOL0     H42188   2.032   6.867   9.748 -1.1635 -1.1751 -5.6324
  313MOL0     H42189   2.181   6.690   9.643 -0.1419 -0.8486 -1.5213
  313MOL0     H42190   2.295   6.525   9.560 -1.4778  1.0645 -0.0631
  313MOL0     H42191   2.345   6.513   9.730  1.0263  1.3755 -0.8915
  313MOL0     H42192   2.449   6.309   9.694 -2.1449 -0.7939  1.3521
  313MOL0     H42193   2.300   6.244   9.618 -0.6613  1.0770 -0.1214
  313MOL0     H42194   2.356   6.329   9.403  1.1843  3.8715  0.1033
  313MOL0     H42195   2.507   6.386   9.455 -0.7716  1.9848  1.0144
  313MOL0     H42196   2.568   6.141   9.530 -0.2563 -0.3707  0.2013
  313MOL0     H42197   2.427   6.084   9.452  1.1857  0.4064 -2.1523
  313MOL0     H42198   2.617   6.258   9.283 -1.3582  1.1216 -0.9204
  313MOL0     H42199   2.650   6.090   9.303 -0.6036 -0.6006  1.2245
  313MOL0     H42200   2.452   6.033   9.199 -1.3635 -0.1975  0.6598
  313MOL0     H42201   2.382   6.204   9.207  1.8968  1.6395 -0.3276
  313MOL0     H42202   2.480   6.125   8.976  2.5031 -2.6802 -1.2864
  313MOL0     H42203   2.565   6.273   9.038 -2.5194 -0.1620 -2.2225
  313MOL0     H42204   2.654   5.986   9.101 -1.0085 -1.6234 -2.0323
  313MOL0     H42205   2.761   6.126   9.079 -1.7604  0.9956  2.8866
  313MOL0     H42206   2.800   6.234   8.841  1.3231 -0.1002 -1.7676
  313MOL0     H42207   2.764   6.131   8.496  1.5923  0.8218 -1.1444
  313MOL0     H42208   2.871   6.238   8.592 -0.8269  0.2251  1.2736
  313MOL0     H42209   2.913   5.944   8.505  1.4231 -2.2230  4.6684
  313MOL0     H42210   3.003   6.019   8.631 -0.7592  1.9339  0.3466
  313MOL0     H42211   3.135   6.032   8.439  2.4550  1.6998  1.5377
  313MOL0     H42212   3.087   6.196   8.468  0.2953 -0.4663  4.0780
  313MOL0     H42213   3.043   6.133   8.225 -0.3269 -0.1381 -0.4009
  313MOL0     H42214   2.887   6.152   8.300 -0.4456 -1.2078 -0.6981
  313MOL0     H42215   3.172   6.001   8.124 -1.7355 -0.0274 -1.9434
  313MOL0     H42216   3.375   5.942   8.047  2.8773 -0.5258 -0.8228
  313MOL0     H42217   3.463   5.815   8.125 -0.2986  3.0162  0.9250
  313MOL0     H42218   3.389   5.782   7.970  0.9316 -1.4568  0.3438
  313MOL0     H42219   3.321   5.247   8.097 -0.2964 -2.3566 -0.5361
  313MOL0     H42220   3.505   5.083   8.145 -3.3888 -2.6481  0.6672
  313MOL0     H42221   3.547   4.901   8.409  1.1738  0.1377  0.8252
  313MOL0     H42222   3.599   4.895   8.247 -0.4586  0.1846  0.0964
  313MOL0     H42223   3.788   4.885   8.479  0.6838 -0.2047 -0.4388
  313MOL0     H42224   3.707   4.745   8.408 -1.5799  0.0409 -2.0527
  313MOL0     H42225   3.954   4.825   8.329  0.4713  0.1945 -0.3707
  313MOL0     H42226   3.853   4.902   8.214  1.2780  0.7512  0.6745
  313MOL0     H42227   3.939   4.678   8.148 -0.5508  1.1602 -0.6950
  313MOL0     H42228   3.826   4.603   8.276 -0.5550 -0.3216  0.3971
  313MOL0     H42229   3.625   4.663   8.158 -0.9139 -2.1399 -2.0900
  313MOL0     H42230   3.710   4.551   8.085 -0.4883 -0.2511  2.6465
  313MOL0     H42231   3.630   4.741   7.957  0.0241  3.0572  2.1039
  313MOL0     H42232   3.759   4.842   8.015 -0.1337  0.2000  0.9020
  313MOL0     H42233   3.771   4.604   7.822 -1.7203  1.7606 -0.8756
  313MOL0     H42234   3.915   4.635   7.918  1.9019  2.7888 -0.0410
  313MOL0     H42235   3.764   4.828   7.730  0.4309 -0.3122 -1.8232
  313MOL0     H42236   3.900   4.735   7.675 -0.0103  0.2298 -0.1520
  313MOL0     H42237   3.557   5.243   8.543  2.0585  0.6362 -0.7321
  313MOL0     H42238   3.377   5.422   8.483 -0.8642  0.1737  0.3960
  313MOL0     H42239   3.066   5.552   8.303  2.7590  0.3047  1.4514
  313MOL0     H42240   2.886   5.724   8.294  0.4416 -4.2908 -2.6316
  313MOL0     H42241   1.974   6.383   9.834 -2.3289  0.9998  0.5371
  313MOL0     H42242   1.801   6.566   9.921 -0.8564  0.5539 -1.2197
  313MOL0     H42243   1.581   6.908   9.890  2.2943  1.2742  0.1307
  313MOL0     H42244   1.370   6.971   9.974 -1.3724 -1.2414  1.3907
  313MOL0     H42245   1.165   7.061  10.097  2.8686  1.6488  1.0632
  313MOL0     H42246   1.181   6.880  10.107 -3.3041  0.4486 -1.0508
  313MOL0     H42247   0.980   6.923  10.170 -0.1857  1.9818  0.1760
  313MOL0     H42248   1.025   7.052  10.276 -0.7082  0.7734 -3.4906
  313MOL0     H42249   1.147   6.774  10.333 -0.4090  0.6369 -2.4100
  313MOL0     H42250   0.973   6.800  10.382 -1.4602  0.2243 -0.5098
  313MOL0     H42251   1.013   6.971  10.523 -0.9065 -0.6046 -1.7599
  313MOL0     H42252   1.185   7.011  10.471 -1.2126  0.9513 -0.6573
  313MOL0     H42253   1.254   6.770  10.804 -2.9545 -1.8156 -0.2718
  313MOL0     H42254   1.512   6.989  10.367  0.4751  2.1347 -0.8392
  313MOL0     H42255   1.747   6.901  10.276  1.8707 -0.3899 -3.2044
  314MOL0     O42256   5.055   9.124   5.313 -0.3997 -0.1823  0.0830
  314MOL0     C42257   4.958   9.180   5.271  0.0843 -0.6638 -0.8645
  314MOL0     O42258   4.926   9.195   5.141 -0.2298 -0.3782 -0.4504
  314MOL0     C42259   4.994   9.141   5.039 -0.5220  0.2285 -0.2755
  314MOL0     C42260   5.127   9.190   5.016  0.5273  0.7423  0.6846
  314MOL0     C42261   5.198   9.140   4.905 -0.9080  0.7384  0.1577
  314MOL0     C42262   5.128   9.061   4.814 -0.0118  0.5709  0.1865
  314MOL0     O42263   5.196   9.046   4.705  0.4311  0.1134  0.1960
  314MOL0     C42264   5.295   8.939   4.702 -0.9165  0.3080 -0.4321
  314MOL0     C42265   5.357   8.898   4.572 -0.2994  0.8581  0.2594
  314MOL0     C42266   5.240   8.866   4.474 -0.7826 -0.3299 -0.3907
  314MOL0     C42267   5.275   8.793   4.344  0.4905  0.5330  0.5266
  314MOL0     C42268   5.160   8.788   4.249  0.3526 -0.2949 -0.3978
  314MOL0     C42269   5.157   8.657   4.168 -0.4943 -0.2097  0.8876
  314MOL0     C42270   5.250   8.656   4.050  0.1357 -0.2949  0.3375
  314MOL0     C42271   5.233   8.545   3.948 -0.6368  0.6337 -0.1850
  314MOL0     N42272   5.276   8.411   4.013  0.1104 -0.1227  0.4052
  314MOL0     C42273   5.223   8.350   4.124 -0.1647 -0.2902 -0.1460
  314MOL0     C42274   5.300   8.245   4.153 -0.3265  0.5584 -0.5642
  314MOL0     C42275   5.261   8.133   4.257 -0.2073  0.5682  0.2011
  314MOL0     C42276   5.207   8.014   4.191  0.2230  0.7083  0.3957
  314MOL0     C42277   5.112   7.940   4.278  0.0824  0.1110  1.2245
  314MOL0     C42278   4.970   8.026   4.280 -0.2825  0.7271 -0.6275
  314MOL0     O42279   4.971   8.117   4.386 -0.3824 -0.8933 -0.7837
  314MOL0     C42280   4.913   8.241   4.383 -0.7103  0.2076  0.5835
  314MOL0     C42281   4.834   8.288   4.276 -0.5856  0.2155  0.0797
  314MOL0     C42282   4.821   8.429   4.256 -0.8728 -0.0271 -0.1771
  314MOL0     C42283   4.767   8.469   4.122 -0.3335 -0.3092  0.0317
  314MOL0     C42284   4.854   8.514   4.361  0.0992 -0.0774  0.7474
  314MOL0     C42285   4.816   8.659   4.366  0.0792  0.2790 -0.2037
  314MOL0     O42286   4.879   8.741   4.464 -0.2401 -0.2080 -0.1184
  314MOL0     C42287   4.797   8.843   4.494  0.2876  0.5822 -0.0159
  314MOL0     C42288   4.818   8.975   4.449  0.1147  0.3179 -0.5546
  314MOL0     C42289   4.717   9.075   4.477  0.0778  0.2027 -0.6279
  314MOL0     C42290   4.606   9.050   4.551 -0.3571  0.5922 -1.0344
  314MOL0     O42291   4.516   9.151   4.574  0.4881 -0.2725  0.2212
  314MOL0     C42292   4.416   9.124   4.676  0.5715  0.3577  0.2979
  314MOL0     C42293   4.324   9.248   4.691  0.2337  0.9969  0.3324
  314MOL0     C42294   4.197   9.228   4.788 -1.1022  0.2655  0.5218
  314MOL0     C42295   4.098   9.339   4.782  0.1689 -0.3161  0.8961
  314MOL0     C42296   3.976   9.282   4.854  0.2097  0.4300  0.0054
  314MOL0     C42297   3.855   9.368   4.842  1.0787 -1.0015 -0.1136
  314MOL0     C42298   3.760   9.328   4.962 -1.0964  0.1775 -0.1905
  314MOL0     C42299   3.623   9.397   4.945 -1.3525  0.1351  0.2545
  314MOL0    Cl42300   3.614   9.525   5.072 -0.1737 -0.3653  0.2646
  314MOL0     C42301   4.591   8.915   4.601 -1.0111 -1.0527  0.0059
  314MOL0     C42302   4.693   8.821   4.580  1.2613 -0.4036 -0.3884
  314MOL0     O42303   4.725   8.698   4.287  0.3136  0.6119 -0.2815
  314MOL0     C42304   4.916   8.464   4.478 -0.4728 -0.2953  0.5023
  314MOL0     C42305   4.946   8.329   4.491 -0.4315 -0.0686  0.1838
  314MOL0     N42306   5.396   8.243   4.057 -0.0648  0.9254 -0.6803
  314MOL0     N42307   5.377   8.338   3.972 -0.7374 -0.4953 -0.3455
  314MOL0     C42308   4.994   9.023   4.832  0.0027  0.6102  1.5525
  314MOL0     C42309   4.924   9.057   4.945  0.0124  0.7800  1.0518
  314MOL0     C42310   4.856   9.226   5.366  0.4050 -0.5441  0.3997
  314MOL0     C42311   4.762   9.332   5.329 -0.7197  0.3597 -0.6231
  314MOL0     C42312   4.649   9.352   5.410 -0.2216 -0.3571 -0.6290
  314MOL0     C42313   4.628   9.277   5.529  0.0849  0.2999  0.1093
  314MOL0     O42314   4.543   9.320   5.632 -0.6555 -0.0491  0.8068
  314MOL0     C42315   4.408   9.300   5.585  0.4902  1.0880  1.1399
  314MOL0     C42316   4.329   9.317   5.715  0.0286  0.6291 -0.2104
  314MOL0     C42317   4.293   9.465   5.742  0.0958  0.4981  0.1262
  314MOL0     C42318   4.186   9.524   5.649 -0.0624 -0.0062 -0.1524
  314MOL0     C42319   4.133   9.630   5.728  1.1485 -0.1607 -0.4883
  314MOL0     C42320   4.055   9.715   5.779 -0.0869  0.4567  0.4998
  314MOL0     C42321   4.726   9.184   5.569 -0.2446  0.0610 -0.0974
  314MOL0     C42322   4.842   9.164   5.493 -0.1137 -0.1751 -0.2248
  314MOL0     H42323   5.175   9.264   5.080  0.2909  3.7345 -2.3189
  314MOL0     H42324   5.298   9.182   4.895 -0.6583 -0.3287 -3.2621
  314MOL0     H42325   5.370   8.958   4.779  2.1816  2.1844 -3.6262
  314MOL0     H42326   5.250   8.844   4.729 -0.5330  0.0640 -0.6421
  314MOL0     H42327   5.420   8.980   4.537 -1.0071  1.9686  1.4716
  314MOL0     H42328   5.411   8.805   4.588 -4.5785 -1.3932  3.8252
  314MOL0     H42329   5.164   8.805   4.524  0.1859 -2.4353 -1.3615
  314MOL0     H42330   5.192   8.960   4.447  0.3820  0.7890  1.2110
  314MOL0     H42331   5.368   8.829   4.299  0.9999 -1.8781 -0.5162
  314MOL0     H42332   5.299   8.691   4.379 -0.6374  1.4048  4.3841
  314MOL0     H42333   5.073   8.791   4.315  1.7824  1.9126  1.5587
  314MOL0     H42334   5.162   8.881   4.191 -0.5599  0.7605  1.2067
  314MOL0     H42335   5.184   8.573   4.233  3.3244 -0.1967 -0.4793
  314MOL0     H42336   5.051   8.637   4.146 -0.1784 -1.5854  0.5309
  314MOL0     H42337   5.236   8.752   4.000  3.3732  0.2174  0.2421
  314MOL0     H42338   5.354   8.646   4.082  0.1054  0.4424  0.6877
  314MOL0     H42339   5.296   8.565   3.861  3.9986 -1.9628  2.2070
  314MOL0     H42340   5.128   8.536   3.919 -1.0942 -3.4502  2.0309
  314MOL0     H42341   5.137   8.383   4.182  0.0744 -2.3013  1.4749
  314MOL0     H42342   5.348   8.100   4.315 -1.7028 -0.5432  1.9372
  314MOL0     H42343   5.186   8.170   4.327 -0.6692  2.3549 -1.1796
  314MOL0     H42344   5.290   7.944   4.180 -0.0421  0.3575  0.5935
  314MOL0     H42345   5.164   8.028   4.091 -2.1617 -2.1496  0.8590
  314MOL0     H42346   5.164   7.930   4.374  0.3576 -2.1463  0.8984
  314MOL0     H42347   5.109   7.836   4.243  2.3020 -0.7336  3.2738
  314MOL0     H42348   4.880   7.964   4.270  0.4655 -0.3833 -0.6688
  314MOL0     H42349   4.972   8.082   4.187  1.0021 -0.1696 -1.1594
  314MOL0     H42350   4.797   8.226   4.195  0.6750 -0.3936 -0.0601
  314MOL0     H42351   4.660   8.493   4.123  0.2162  2.5769 -0.8037
  314MOL0     H42352   4.811   8.563   4.085 -0.4638 -0.3072 -0.1219
  314MOL0     H42353   4.779   8.397   4.040 -1.8525  2.1476 -2.5477
  314MOL0     H42354   4.911   8.998   4.399 -0.8263 -2.2026 -3.8940
  314MOL0     H42355   4.727   9.176   4.438 -2.7252  0.1948 -1.6200
  314MOL0     H42356   4.354   9.037   4.653 -0.5758  0.9440  1.0923
  314MOL0     H42357   4.476   9.105   4.765 -1.5396 -3.7016  1.1053
  314MOL0     H42358   4.390   9.331   4.718  1.0217  1.7843 -3.4494
  314MOL0     H42359   4.278   9.267   4.594  2.5126 -2.6266 -1.6725
  314MOL0     H42360   4.227   9.221   4.893  3.7065  2.4559 -0.4576
  314MOL0     H42361   4.156   9.131   4.761  1.4649 -0.7645  0.0746
  314MOL0     H42362   4.126   9.431   4.834 -0.2325  0.0872  0.4094
  314MOL0     H42363   4.076   9.363   4.677  1.1586 -2.1064  0.2317
  314MOL0     H42364   4.010   9.271   4.958  3.6971  0.0115 -1.0644
  314MOL0     H42365   3.944   9.187   4.810  0.2519  0.7399 -0.6919
  314MOL0     H42366   3.886   9.472   4.851 -3.4444  0.8910 -2.7812
  314MOL0     H42367   3.816   9.354   4.740  3.0877 -2.9132 -0.6961
  314MOL0     H42368   3.817   9.354   5.051 -1.4641 -1.7699  0.6619
  314MOL0     H42369   3.737   9.221   4.960 -0.1574 -0.0562  0.6939
  314MOL0     H42370   3.545   9.322   4.954 -0.5824 -1.6603 -4.7946
  314MOL0     H42371   3.622   9.444   4.846  1.1167 -1.2698 -0.5381
  314MOL0     H42372   4.506   8.873   4.653 -1.0380 -0.5248  0.3968
  314MOL0     H42373   4.676   8.720   4.616  1.5657 -1.1036 -2.1051
  314MOL0     H42374   4.953   8.535   4.551 -2.4647  0.8726  0.4511
  314MOL0     H42375   5.014   8.300   4.571 -0.2280 -0.5119 -0.1468
  314MOL0     H42376   4.954   8.971   4.745  0.6954  0.0625  1.5536
  314MOL0     H42377   4.819   9.038   4.966  0.1590 -0.5093  0.6635
  314MOL0     H42378   4.778   9.380   5.233  2.9412 -0.5369 -0.6011
  314MOL0     H42379   4.572   9.421   5.379 -0.7921 -0.0584  1.3393
  314MOL0     H42380   4.387   9.378   5.511 -2.0775  0.3682  1.0040
  314MOL0     H42381   4.393   9.201   5.541  2.5336  0.3172  2.0737
  314MOL0     H42382   4.375   9.270   5.802  0.7012 -0.1620 -0.9821
  314MOL0     H42383   4.231   9.269   5.703  0.5543 -0.7188  0.6958
  314MOL0     H42384   4.385   9.524   5.739  0.5821 -0.2449  0.2177
  314MOL0     H42385   4.258   9.456   5.845  1.3929 -1.2118  0.4471
  314MOL0     H42386   4.107   9.454   5.620 -1.1058  1.1093 -0.0970
  314MOL0     H42387   4.224   9.563   5.554 -3.2598  0.7603 -1.2430
  314MOL0     H42388   4.004   9.786   5.842 -0.8875  0.6090 -0.3124
  314MOL0     H42389   4.706   9.129   5.660  1.5805  0.8840  0.8641
  314MOL0     H42390   4.916   9.093   5.531  2.4867  1.4447 -1.9256
  315MOL0     O42391   8.070  10.080   5.602 -0.6164 -0.7797  0.1821
  315MOL0     C42392   8.090   9.977   5.537 -0.3101 -0.8958 -0.8047
  315MOL0     O42393   8.125   9.971   5.405  0.3436  0.2552  0.0553
  315MOL0     C42394   8.138  10.079   5.322 -0.3832  0.1087 -0.3988
  315MOL0     C42395   8.085  10.076   5.192  1.0662 -0.4449 -0.1005
  315MOL0     C42396   8.092  10.191   5.108  0.1472 -0.3818 -0.2937
  315MOL0     C42397   8.170  10.302   5.148 -0.4037 -0.4418  0.2653
  315MOL0     O42398   8.174  10.406   5.057 -0.0850  0.0052 -0.3051
  315MOL0     C42399   8.240  10.527   5.090  0.0566 -0.4080  0.2894
  315MOL0     C42400   8.212  10.645   4.985 -0.5829  0.2165 -0.2286
  315MOL0     C42401   8.081  10.644   4.914 -0.1875 -0.0110  0.4279
  315MOL0     C42402   7.973  10.663   5.022  0.9065  0.6073 -0.5068
  315MOL0     C42403   7.832  10.630   4.967 -0.1591 -0.6492  0.2513
  315MOL0     C42404   7.810  10.476   4.939  0.7116 -0.3880  0.2042
  315MOL0     C42405   7.656  10.439   4.890 -0.5779 -0.3100 -0.8267
  315MOL0     C42406   7.643  10.286   4.862  0.3225 -0.5587 -0.0977
  315MOL0     N42407   7.696  10.195   4.966  0.1823 -0.4536 -0.2881
  315MOL0     C42408   7.673  10.192   5.104 -0.6317 -0.2140 -0.7804
  315MOL0     C42409   7.699  10.070   5.144 -0.6009  0.6659  0.1755
  315MOL0     C42410   7.712  10.012   5.286  0.4964 -1.1365 -0.4555
  315MOL0     C42411   7.567   9.993   5.333  0.4229  0.1721 -0.0045
  315MOL0     C42412   7.544   9.894   5.452  0.8130 -0.5967  0.0958
  315MOL0     C42413   7.631   9.927   5.565  0.1227  0.0515  0.0745
  315MOL0     O42414   7.598   9.821   5.651  0.3674 -0.0034  0.0702
  315MOL0     C42415   7.648   9.817   5.777  0.0089  0.1853  0.3057
  315MOL0     C42416   7.696   9.929   5.847 -0.3051 -0.6039  0.3899
  315MOL0     C42417   7.751   9.918   5.979  0.3762 -0.0314  0.4118
  315MOL0     C42418   7.792  10.051   6.043  0.2915  0.3760 -0.0209
  315MOL0     C42419   7.769   9.781   6.032 -0.1974  0.1279 -0.0403
  315MOL0     C42420   7.819   9.749   6.173  0.2111  0.2455 -1.0413
  315MOL0     O42421   7.811   9.854   6.266 -0.2392 -0.4216  0.2337
  315MOL0     C42422   7.862   9.849   6.396  0.4238  0.2626 -1.0244
  315MOL0     C42423   7.842   9.966   6.472 -1.1441  0.0115  0.1442
  315MOL0     C42424   7.876   9.965   6.608  0.6470 -0.2171 -0.2908
  315MOL0     C42425   7.921   9.851   6.673  0.6617 -0.0993  0.5619
  315MOL0     O42426   7.973   9.841   6.797  0.9668 -0.2967 -0.4354
  315MOL0     C42427   7.945   9.948   6.887 -0.2859 -0.5791  0.1889
  315MOL0     C42428   8.023   9.927   7.016  0.0955  0.1812 -0.4086
  315MOL0     C42429   8.014  10.036   7.118 -0.2390  0.7963 -0.2728
  315MOL0     C42430   8.083   9.990   7.248 -0.0464 -0.5730  0.1901
  315MOL0     C42431   8.041  10.067   7.371 -0.0988  0.6445 -0.2411
  315MOL0     C42432   8.157  10.091   7.470 -0.0071  0.0765 -0.3217
  315MOL0     C42433   8.124  10.187   7.580  0.6158  0.5540 -0.0396
  315MOL0     C42434   8.245  10.217   7.665  0.5198 -0.1825  0.3551
  315MOL0    Cl42435   8.390  10.261   7.580 -0.4014  0.2012 -0.1387
  315MOL0     C42436   7.922   9.734   6.595  0.5761 -0.5247 -1.0984
  315MOL0     C42437   7.893   9.732   6.464  0.2123  0.4761 -1.2251
  315MOL0     O42438   7.887   9.646   6.188 -0.4917  0.0521  0.2497
  315MOL0     C42439   7.734   9.676   5.948 -0.2593 -0.1678 -0.1985
  315MOL0     C42440   7.672   9.690   5.825 -0.0685  0.9479 -0.1181
  315MOL0     N42441   7.746   9.995   5.039  0.5889  0.4067  0.0048
  315MOL0     N42442   7.733  10.070   4.927  0.3515 -0.3139 -0.4637
  315MOL0     C42443   8.228  10.297   5.276 -0.2928  0.7347 -0.6437
  315MOL0     C42444   8.212  10.192   5.362  0.6843 -0.0866 -0.1834
  315MOL0     C42445   8.077   9.851   5.610  0.2160 -0.2798  0.1944
  315MOL0     C42446   8.112   9.838   5.743  0.6674  1.0201 -0.5633
  315MOL0     C42447   8.104   9.717   5.815  0.1758  0.9374 -0.9209
  315MOL0     C42448   8.043   9.604   5.756 -0.1911 -0.5600  0.0081
  315MOL0     O42449   8.028   9.481   5.815  0.8491  0.1326  0.1050
  315MOL0     C42450   8.131   9.433   5.899 -0.0088 -0.0620 -0.3063
  315MOL0     C42451   8.074   9.380   6.034  0.5664 -0.7898  0.4367
  315MOL0     C42452   8.193   9.325   6.115  0.5745  1.6607 -0.1635
  315MOL0     C42453   8.162   9.259   6.249  0.3028  0.6291 -0.0773
  315MOL0     C42454   8.132   9.363   6.352 -0.7145 -0.9145  0.6299
  315MOL0     C42455   8.111   9.451   6.432  0.0691  0.5052 -0.0876
  315MOL0     C42456   8.015   9.619   5.618 -0.6549  0.2864  0.1014
  315MOL0     C42457   8.031   9.737   5.551  0.5980 -0.6698  1.3838
  315MOL0     H42458   8.011  10.000   5.169  0.6406 -1.3608  3.5765
  315MOL0     H42459   8.028  10.211   5.023  2.3026 -1.2618 -2.2290
  315MOL0     H42460   8.197  10.550   5.188 -1.4291 -1.8432  0.0250
  315MOL0     H42461   8.348  10.511   5.086 -0.2262 -2.3318 -0.8092
  315MOL0     H42462   8.224  10.744   5.031  0.8508  0.0397 -0.1618
  315MOL0     H42463   8.292  10.640   4.911 -1.0123 -2.9695 -0.6043
  315MOL0     H42464   8.074  10.733   4.850  0.0624 -0.9337 -0.9114
  315MOL0     H42465   8.071  10.552   4.856 -1.9732  0.1495  0.4242
  315MOL0     H42466   7.985  10.597   5.108 -0.7662  1.3792  0.3641
  315MOL0     H42467   7.979  10.763   5.066 -1.3701  1.0311 -1.0605
  315MOL0     H42468   7.757  10.675   5.033  0.3545  0.9043 -0.1853
  315MOL0     H42469   7.823  10.673   4.867  0.5672  0.7831  0.7746
  315MOL0     H42470   7.882  10.449   4.861  2.3735  1.6331  0.9346
  315MOL0     H42471   7.840  10.431   5.034 -0.3497  2.5648  2.1031
  315MOL0     H42472   7.572  10.464   4.955 -2.0892 -1.0879 -2.4270
  315MOL0     H42473   7.644  10.478   4.789 -1.5255 -1.6650 -1.2550
  315MOL0     H42474   7.694  10.257   4.769  2.8908 -1.7449  1.5744
  315MOL0     H42475   7.536  10.269   4.851  0.3385 -1.3740  0.8497
  315MOL0     H42476   7.625  10.265   5.169 -1.1755 -0.1431 -1.2480
  315MOL0     H42477   7.774   9.923   5.294  0.4740 -1.0125  1.5292
  315MOL0     H42478   7.758  10.083   5.356 -1.0443  0.0518 -0.5886
  315MOL0     H42479   7.505   9.943   5.258 -1.3484 -0.2166  1.6172
  315MOL0     H42480   7.530  10.094   5.350  0.7814  0.1608  0.9197
  315MOL0     H42481   7.565   9.795   5.410  0.3605 -1.3134  1.5077
  315MOL0     H42482   7.437   9.890   5.476  0.2208  4.0009 -0.8262
  315MOL0     H42483   7.606  10.024   5.607  0.2357  0.7452 -1.4015
  315MOL0     H42484   7.733   9.909   5.531 -0.0535 -1.1913  0.1228
  315MOL0     H42485   7.690  10.028   5.805  0.4026 -0.4972  0.5392
  315MOL0     H42486   7.757  10.063   6.146  0.2335 -0.5920  0.0775
  315MOL0     H42487   7.901  10.052   6.033  0.1319 -1.3304 -5.1453
  315MOL0     H42488   7.750  10.132   5.983  0.0873 -2.2459 -3.7675
  315MOL0     H42489   7.810  10.057   6.421 -2.6737  0.5099  1.8956
  315MOL0     H42490   7.868  10.057   6.666  0.8120 -0.8403  0.7450
  315MOL0     H42491   7.972  10.046   6.848 -1.5674  1.0988  3.1438
  315MOL0     H42492   7.841   9.964   6.917 -0.8164 -1.3595 -1.1720
  315MOL0     H42493   7.993   9.831   7.060 -0.4256  0.4324 -0.2165
  315MOL0     H42494   8.130   9.912   6.994  0.2453  0.5895  0.0416
  315MOL0     H42495   7.908  10.060   7.131 -0.4192  0.9753 -1.8570
  315MOL0     H42496   8.060  10.129   7.083 -1.3541  1.9787  1.2318
  315MOL0     H42497   8.082   9.883   7.272  0.2880 -0.2181  1.9108
  315MOL0     H42498   8.187  10.018   7.231 -0.3936 -0.1151 -1.3745
  315MOL0     H42499   7.960  10.008   7.414 -2.9360  0.6192 -4.9125
  315MOL0     H42500   8.024  10.166   7.327  3.2313  0.6190 -1.8987
  315MOL0     H42501   8.195  10.000   7.516  2.0267  0.6802 -0.6722
  315MOL0     H42502   8.235  10.132   7.405 -0.8680 -0.6074 -1.8277
  315MOL0     H42503   8.041  10.151   7.642  0.2128 -0.4177 -1.1193
  315MOL0     H42504   8.089  10.275   7.525 -0.4745 -0.4834 -1.0645
  315MOL0     H42505   8.269  10.133   7.731  3.9563  0.7658  0.5208
  315MOL0     H42506   8.207  10.291   7.735 -3.1546 -3.3872  2.0872
  315MOL0     H42507   7.963   9.649   6.649 -0.9927  0.2598  1.5640
  315MOL0     H42508   7.883   9.636   6.414  1.7386  0.0063 -0.6829
  315MOL0     H42509   7.730   9.571   5.975  2.5102 -0.3482 -0.2092
  315MOL0     H42510   7.652   9.602   5.764  1.2435 -0.6896  1.6635
  315MOL0     H42511   8.300  10.377   5.291  0.0049  0.3048  0.2545
  315MOL0     H42512   8.273  10.200   5.452 -0.7225  1.6383  0.6811
  315MOL0     H42513   8.138   9.930   5.795  2.3336 -1.1170  2.6407
  315MOL0     H42514   8.132   9.710   5.919  1.0027 -1.1898 -1.2276
  315MOL0     H42515   8.166   9.341   5.851 -1.0457  0.4376 -2.0786
  315MOL0     H42516   8.211   9.506   5.915  0.6902 -1.0188  0.7434
  315MOL0     H42517   7.996   9.309   6.004  0.8816 -0.2531 -1.9046
  315MOL0     H42518   8.019   9.461   6.082  0.5732  0.7544 -1.9696
  315MOL0     H42519   8.258   9.410   6.136 -1.5312  3.3562 -0.1044
  315MOL0     H42520   8.252   9.253   6.057  0.3665  0.1910  1.3666
  315MOL0     H42521   8.239   9.190   6.284 -1.3331 -2.1627 -1.5688
  315MOL0     H42522   8.068   9.204   6.239  1.0247 -1.4060  3.0973
  315MOL0     H42523   8.101   9.529   6.505  3.1756  0.8263  0.1386
  315MOL0     H42524   7.978   9.529   5.569 -0.9024 -0.8142  2.1446
  315MOL0     H42525   8.009   9.737   5.445  0.5353 -1.9932  1.3737
  316MOL0     O42526   2.327   8.472   3.677 -0.1832  0.3810  0.9791
  316MOL0     C42527   2.337   8.468   3.796 -0.7673  0.2971  0.0173
  316MOL0     O42528   2.343   8.574   3.868  0.0264 -0.3754 -0.4598
  316MOL0     C42529   2.327   8.704   3.827 -0.4219  0.8395  0.3033
  316MOL0     C42530   2.419   8.807   3.857  0.1167  1.2062 -0.2181
  316MOL0     C42531   2.420   8.925   3.786  0.8799  0.2631  0.0808
  316MOL0     C42532   2.310   8.950   3.707  1.3125 -1.3151  0.1501
  316MOL0     O42533   2.292   9.070   3.642 -0.3836 -0.1310  0.3799
  316MOL0     C42534   2.332   9.190   3.703  0.4740  0.4425 -0.2928
  316MOL0     C42535   2.277   9.297   3.612 -0.6621 -0.3985  0.1620
  316MOL0     C42536   2.125   9.302   3.604 -0.3245  0.4007  0.4910
  316MOL0     C42537   2.056   9.392   3.705 -0.6637 -0.5136 -0.0513
  316MOL0     C42538   1.901   9.386   3.683 -0.1415  0.5199 -0.3931
  316MOL0     C42539   1.832   9.512   3.753 -0.4463  0.2087 -0.4491
  316MOL0     C42540   1.678   9.503   3.703  0.3377  0.6632 -0.2281
  316MOL0     C42541   1.593   9.613   3.754  0.2678  0.0655  0.1594
  316MOL0     N42542   1.612   9.742   3.689  0.1953  0.0328 -0.1942
  316MOL0     C42543   1.516   9.821   3.634  0.2102 -0.3836  0.5779
  316MOL0     C42544   1.577   9.940   3.610  0.3661  0.3639  0.6016
  316MOL0     C42545   1.516  10.060   3.552  0.1029 -0.4108  0.0280
  316MOL0     C42546   1.391  10.101   3.623 -0.2225 -0.9615  1.0273
  316MOL0     C42547   1.365  10.253   3.606  0.1725  0.3029  0.4038
  316MOL0     C42548   1.244  10.288   3.690 -1.2667  0.1826 -0.0630
  316MOL0     O42549   1.280  10.304   3.830  0.8791  0.0449 -0.1944
  316MOL0     C42550   1.187  10.361   3.914 -0.7048 -0.8174 -0.8704
  316MOL0     C42551   1.235  10.391   4.049  1.4793 -0.7151 -0.2320
  316MOL0     C42552   1.152  10.454   4.143  0.1228 -1.1315 -0.3886
  316MOL0     C42553   1.203  10.444   4.282 -0.0816 -0.2257  0.3059
  316MOL0     C42554   1.029  10.512   4.106  0.3870  0.1940 -0.5133
  316MOL0     C42555   0.943  10.597   4.201  0.2152 -0.1200 -0.1122
  316MOL0     O42556   0.870  10.690   4.131  0.0071 -0.3327  0.1642
  316MOL0     C42557   0.767  10.771   4.187  0.0177  0.8345 -1.0113
  316MOL0     C42558   0.765  10.819   4.324 -0.0488  0.1276  1.0647
  316MOL0     C42559   0.661  10.898   4.367 -0.1013 -0.1614 -1.2531
  316MOL0     C42560   0.566  10.944   4.276 -1.0577 -0.8481  0.7579
  316MOL0     O42561   0.462  11.024   4.324  0.4434 -0.6271 -0.0697
  316MOL0     C42562   0.359  11.080   4.233 -0.1016  0.1013  0.1888
  316MOL0     C42563   0.244  11.124   4.322 -0.7279 -0.2142  0.5323
  316MOL0     C42564   0.264  11.253   4.395 -0.1737  0.3898 -0.8035
  316MOL0     C42565   0.280  11.382   4.307  0.0220  0.3747  0.4401
  316MOL0     C42566   0.242  11.517   4.361 -0.4391  0.4863 -0.3837
  316MOL0     C42567   0.275  11.628   4.262  0.2135 -0.3039 -0.8187
  316MOL0     C42568   0.226  11.764   4.323  0.2500 -0.4408  0.2792
  316MOL0     C42569   0.248  11.870   4.218 -0.0937 -0.9817 -0.1619
  316MOL0    Cl42570   0.260  12.030   4.310  0.1559 -0.6553  0.0983
  316MOL0     C42571   0.570  10.898   4.151  0.6213 -0.3586  0.7918
  316MOL0     C42572   0.664  10.809   4.102  0.7844 -0.0346 -0.4808
  316MOL0     O42573   0.918  10.554   4.318 -0.0131  0.9039  0.0874
  316MOL0     C42574   0.984  10.480   3.976 -0.6640 -0.4413 -0.3991
  316MOL0     C42575   1.059  10.402   3.879  1.8337  0.2413  0.2841
  316MOL0     N42576   1.715   9.927   3.642  0.1110 -0.2117 -0.1019
  316MOL0     N42577   1.723   9.818   3.700  0.3086  0.3359  1.3263
  316MOL0     C42578   2.202   8.861   3.696 -0.0562 -0.7065 -1.7859
  316MOL0     C42579   2.205   8.738   3.756  0.2970 -0.5628  0.2491
  316MOL0     C42580   2.325   8.326   3.850  0.0877 -0.5736  0.2757
  316MOL0     C42581   2.260   8.226   3.779 -0.2688  0.1032  0.2413
  316MOL0     C42582   2.253   8.095   3.832 -0.1708 -0.2026 -1.2238
  316MOL0     C42583   2.308   8.072   3.962 -0.6006  0.5400 -0.0185
  316MOL0     O42584   2.301   7.943   4.011  0.4237 -0.9388 -0.2361
  316MOL0     C42585   2.383   7.882   4.107 -1.1478  0.4819  0.9077
  316MOL0     C42586   2.523   7.864   4.042 -0.1632 -0.1199 -0.2384
  316MOL0     C42587   2.635   7.870   4.143  1.2950 -0.2503 -0.1973
  316MOL0     C42588   2.653   7.746   4.234  0.1690 -0.9375  0.0166
  316MOL0     C42589   2.544   7.696   4.312 -0.3449 -1.3923 -0.8390
  316MOL0     C42590   2.460   7.675   4.391  0.3399 -0.3021 -0.0600
  316MOL0     C42591   2.376   8.172   4.030  1.0139 -0.0045 -0.0539
  316MOL0     C42592   2.386   8.300   3.968 -0.5044  0.1327 -0.4539
  316MOL0     H42593   2.499   8.806   3.931 -0.9686  1.8644  0.9975
  316MOL0     H42594   2.503   8.993   3.800 -0.0137  1.3212  0.4511
  316MOL0     H42595   2.295   9.187   3.806 -1.5037 -0.4112 -0.9812
  316MOL0     H42596   2.441   9.200   3.714  0.1918  2.4271  1.1201
  316MOL0     H42597   2.314   9.390   3.656  0.6259 -0.6429 -0.3612
  316MOL0     H42598   2.307   9.277   3.509 -0.7185 -2.0333  0.4443
  316MOL0     H42599   2.107   9.336   3.502  2.5835 -0.1512 -0.2923
  316MOL0     H42600   2.082   9.203   3.621  0.3167  0.0250 -0.0149
  316MOL0     H42601   2.084   9.363   3.807  0.8437  2.1343  0.3800
  316MOL0     H42602   2.089   9.496   3.695  0.4856 -0.6316  1.8561
  316MOL0     H42603   1.878   9.380   3.576  0.1620  0.8853 -0.4787
  316MOL0     H42604   1.859   9.299   3.735 -3.4781  2.4149  0.3246
  316MOL0     H42605   1.847   9.510   3.861 -0.4850 -0.7004 -0.4498
  316MOL0     H42606   1.883   9.601   3.716  0.7932 -1.7727 -4.0860
  316MOL0     H42607   1.667   9.507   3.594 -0.8818 -2.1239 -0.2758
  316MOL0     H42608   1.644   9.405   3.737  3.3044 -1.4719 -2.7908
  316MOL0     H42609   1.594   9.614   3.864 -1.3618 -0.1422  0.1966
  316MOL0     H42610   1.488   9.593   3.734  0.6844 -1.9989 -0.1670
  316MOL0     H42611   1.415   9.782   3.623 -0.1934  0.6415  0.4732
  316MOL0     H42612   1.587  10.142   3.536  1.2284 -1.8976 -3.3445
  316MOL0     H42613   1.490  10.022   3.453 -3.0755 -2.4088  1.4623
  316MOL0     H42614   1.396  10.081   3.731 -0.3061 -2.3181  0.7974
  316MOL0     H42615   1.304  10.052   3.578 -1.3980  2.8827 -1.3618
  316MOL0     H42616   1.342  10.268   3.501 -0.4105 -2.2503  0.1048
  316MOL0     H42617   1.454  10.315   3.621  1.6100 -1.5681 -0.0770
  316MOL0     H42618   1.161  10.217   3.681 -1.3281  0.3645 -1.1079
  316MOL0     H42619   1.208  10.379   3.641 -0.7495 -0.0377 -0.8629
  316MOL0     H42620   1.333  10.351   4.074  2.4750  0.1729 -2.4231
  316MOL0     H42621   1.293  10.382   4.287  0.2508  0.1717 -0.5645
  316MOL0     H42622   1.216  10.541   4.331 -3.4695 -0.4028  1.8833
  316MOL0     H42623   1.132  10.384   4.340 -1.6102  0.6172 -0.6270
  316MOL0     H42624   0.851  10.811   4.389  0.0784 -0.1554  0.8654
  316MOL0     H42625   0.657  10.917   4.474 -2.5271  1.6100 -1.5815
  316MOL0     H42626   0.397  11.169   4.183 -1.9953  1.2076  0.6039
  316MOL0     H42627   0.321  10.999   4.169  1.6631 -2.5611  2.2763
  316MOL0     H42628   0.150  11.134   4.268 -0.7992  3.1532  1.0322
  316MOL0     H42629   0.230  11.041   4.392 -0.0549 -1.4054 -0.7165
  316MOL0     H42630   0.355  11.240   4.454  0.9181 -0.2866 -2.5531
  316MOL0     H42631   0.184  11.260   4.469  2.1176 -4.0688  2.5599
  316MOL0     H42632   0.379  11.392   4.262 -1.2053 -1.2457 -2.9552
  316MOL0     H42633   0.217  11.363   4.220  1.3704  1.9095 -0.9384
  316MOL0     H42634   0.293  11.520   4.458  0.2046 -2.2843 -0.5529
  316MOL0     H42635   0.135  11.524   4.383 -0.4643  1.1438 -0.6868
  316MOL0     H42636   0.380  11.642   4.234 -0.3522  1.3380 -2.3051
  316MOL0     H42637   0.225  11.604   4.168 -0.0612 -1.9795 -0.2893
  316MOL0     H42638   0.278  11.784   4.418 -2.1027  1.4549  1.2896
  316MOL0     H42639   0.120  11.773   4.349  0.5609 -4.0484  3.6696
  316MOL0     H42640   0.162  11.859   4.153 -0.6543 -0.6011  0.4978
  316MOL0     H42641   0.340  11.855   4.160  1.9404  0.1011  2.5192
  316MOL0     H42642   0.502  10.915   4.067  2.0596 -0.1827 -0.3779
  316MOL0     H42643   0.672  10.779   3.998 -1.5600 -0.1525 -0.6763
  316MOL0     H42644   0.888  10.526   3.955  0.3130  2.3623  0.8623
  316MOL0     H42645   1.024  10.380   3.778  2.4507 -0.0711  0.1360
  316MOL0     H42646   2.105   8.895   3.659 -1.8937 -1.9362  1.4671
  316MOL0     H42647   2.119   8.673   3.744 -0.0472  0.1699 -1.7122
  316MOL0     H42648   2.221   8.258   3.683  1.8299  0.8364 -0.4271
  316MOL0     H42649   2.192   8.020   3.782 -1.9672  0.2073  0.2235
  316MOL0     H42650   2.403   7.938   4.199 -3.4254  0.7297  1.2981
  316MOL0     H42651   2.332   7.791   4.139  0.4293 -1.6626 -2.1241
  316MOL0     H42652   2.544   7.944   3.970 -0.1942 -0.6554 -0.8548
  316MOL0     H42653   2.538   7.767   3.993  2.1979  0.2955 -0.4324
  316MOL0     H42654   2.633   7.966   4.195  2.4051  0.2415 -1.0198
  316MOL0     H42655   2.727   7.874   4.084  1.2582 -0.0099 -0.2351
  316MOL0     H42656   2.739   7.767   4.299 -0.1843 -0.8375  0.4630
  316MOL0     H42657   2.680   7.664   4.168  2.8004  1.2086 -1.7712
  316MOL0     H42658   2.403   7.672   4.482  0.4918  2.1399  0.1783
  316MOL0     H42659   2.443   8.164   4.115  3.2495  3.1451 -1.3044
  316MOL0     H42660   2.444   8.380   4.012  0.6943  0.0818 -1.8555
  317MOL0     O42661   3.518   8.725   5.005 -0.3131  0.0407 -0.1780
  317MOL0     C42662   3.512   8.715   4.885  1.1428 -0.1355 -0.9999
  317MOL0     O42663   3.607   8.750   4.792 -0.3769 -0.1928 -0.3970
  317MOL0     C42664   3.734   8.752   4.846  0.4269  0.3625  0.6709
  317MOL0     C42665   3.816   8.641   4.865 -0.8819  0.2145 -0.0221
  317MOL0     C42666   3.952   8.662   4.902  0.6815 -0.3673  0.4730
  317MOL0     C42667   4.004   8.793   4.900  0.1994  0.5733  0.4380
  317MOL0     O42668   4.135   8.822   4.927 -0.1203  0.2135  0.4834
  317MOL0     C42669   4.224   8.719   4.949  0.4479  0.5523  0.4134
  317MOL0     C42670   4.364   8.783   4.954  0.6024 -0.4081  0.5260
  317MOL0     C42671   4.470   8.677   4.989  0.7466 -0.6583 -0.8937
  317MOL0     C42672   4.599   8.738   4.969 -0.2365  0.3478  0.9050
  317MOL0     C42673   4.709   8.640   5.023  0.2334 -0.1480  0.2296
  317MOL0     C42674   4.854   8.670   4.982  1.0099  0.6961 -0.0897
  317MOL0     C42675   4.950   8.568   5.041 -0.9796 -0.6568  0.7155
  317MOL0     C42676   5.094   8.596   4.988 -0.2858 -0.9228 -0.3196
  317MOL0     N42677   5.145   8.520   4.874  0.7985  0.5096  0.4768
  317MOL0     C42678   5.189   8.385   4.879  0.5696 -0.0589 -1.2724
  317MOL0     C42679   5.223   8.362   4.750 -0.2063  0.3886 -0.5437
  317MOL0     C42680   5.263   8.228   4.693  0.1145 -0.3967 -0.2495
  317MOL0     C42681   5.407   8.192   4.739 -1.7336 -0.0137 -0.0018
  317MOL0     C42682   5.528   8.264   4.695 -0.1990  0.9669 -0.6615
  317MOL0     C42683   5.544   8.258   4.541 -0.0086  0.1682 -0.0225
  317MOL0     O42684   5.583   8.121   4.520 -0.3576  0.2191  0.2762
  317MOL0     C42685   5.659   8.102   4.404 -0.5285 -0.4992 -0.2543
  317MOL0     C42686   5.659   8.192   4.295  0.1769  0.5529  0.4925
  317MOL0     C42687   5.745   8.163   4.185 -0.5645  0.0876  0.1850
  317MOL0     C42688   5.750   8.274   4.079 -0.0146  0.1784 -0.2310
  317MOL0     C42689   5.826   8.047   4.185 -0.5437  0.4837  0.2299
  317MOL0     C42690   5.930   8.006   4.075 -0.4474 -0.3522  1.1254
  317MOL0     O42691   5.956   8.097   3.975  0.3152 -0.2034  0.2587
  317MOL0     C42692   6.027   8.055   3.866  0.0745  0.3181  0.7625
  317MOL0     C42693   5.968   7.964   3.769  0.2313 -0.8866 -0.2949
  317MOL0     C42694   6.039   7.925   3.648 -0.1132  0.5274 -0.7826
  317MOL0     C42695   6.165   7.984   3.619  0.2557  0.7191  0.8431
  317MOL0     O42696   6.231   7.961   3.497  0.0465 -0.6855  0.1194
  317MOL0     C42697   6.185   8.070   3.406  0.1564  0.4027 -0.3563
  317MOL0     C42698   6.248   8.049   3.262  0.3170 -0.0389  0.0366
  317MOL0     C42699   6.390   8.108   3.243  0.2903  1.0079 -0.8375
  317MOL0     C42700   6.425   8.110   3.093 -0.7116  0.1110  0.9240
  317MOL0     C42701   6.474   8.250   3.053 -0.8568  0.4056 -0.2303
  317MOL0     C42702   6.622   8.257   3.100 -0.1080  0.2455 -0.3864
  317MOL0     C42703   6.688   8.397   3.089  1.0762  0.6868  0.0695
  317MOL0     C42704   6.833   8.409   3.146 -0.2567 -0.0695  0.3419
  317MOL0    Cl42705   6.935   8.278   3.085 -0.1903 -0.0836  0.1628
  317MOL0     C42706   6.219   8.065   3.717 -0.2567 -0.5337 -0.0445
  317MOL0     C42707   6.157   8.093   3.844  0.3452 -0.3564 -0.4132
  317MOL0     O42708   5.981   7.890   4.072  0.4835 -0.4196 -0.3316
  317MOL0     C42709   5.816   7.959   4.299  0.7721 -0.5622  0.9306
  317MOL0     C42710   5.733   7.986   4.407 -0.7881 -0.3998 -0.2349
  317MOL0     N42711   5.212   8.479   4.674  0.2815  0.7166 -0.0505
  317MOL0     N42712   5.162   8.573   4.746  0.4853  0.4993  0.2059
  317MOL0     C42713   3.920   8.903   4.887 -0.5915 -0.3509 -0.2790
  317MOL0     C42714   3.785   8.885   4.864 -0.3059 -1.0192 -0.2232
  317MOL0     C42715   3.385   8.656   4.833  0.5914  0.0247  0.8932
  317MOL0     C42716   3.373   8.637   4.690  0.3284 -0.1507  1.4339
  317MOL0     C42717   3.253   8.583   4.641  0.3003  0.1153 -0.8717
  317MOL0     C42718   3.159   8.537   4.731  0.0824  0.8278  0.1973
  317MOL0     O42719   3.063   8.465   4.671  0.0735  0.4509 -0.7108
  317MOL0     C42720   2.946   8.421   4.745 -0.1400  0.1365 -0.1297
  317MOL0     C42721   2.846   8.540   4.763 -0.4159 -0.1757  0.0442
  317MOL0     C42722   2.709   8.493   4.806 -0.8380  0.0672  0.1084
  317MOL0     C42723   2.618   8.615   4.834 -0.3472 -0.1934 -0.0568
  317MOL0     C42724   2.480   8.588   4.809  0.1066  0.1339 -0.1630
  317MOL0     C42725   2.370   8.554   4.788 -0.9209 -0.4100  0.2052
  317MOL0     C42726   3.168   8.564   4.864 -0.5281 -0.3619  0.8531
  317MOL0     C42727   3.281   8.616   4.918  1.1451 -0.2174 -0.3296
  317MOL0     H42728   3.780   8.540   4.851 -1.2684 -0.3298  3.7634
  317MOL0     H42729   4.021   8.579   4.917  1.0592  0.1527  1.7642
  317MOL0     H42730   4.209   8.675   5.048 -0.7920  0.0928  0.0335
  317MOL0     H42731   4.231   8.644   4.870 -4.6629  1.1098 -0.9125
  317MOL0     H42732   4.384   8.827   4.856 -1.2583 -3.2357 -1.2793
  317MOL0     H42733   4.364   8.863   5.028  4.5764  0.1942  0.0817
  317MOL0     H42734   4.464   8.662   5.097 -0.4679 -2.0170 -1.1218
  317MOL0     H42735   4.445   8.579   4.948 -1.7737 -0.8939  0.9409
  317MOL0     H42736   4.599   8.746   4.860 -2.8301 -0.3563  0.7907
  317MOL0     H42737   4.618   8.841   5.001  0.8055  0.2874  0.5416
  317MOL0     H42738   4.707   8.633   5.132  4.2339  0.1501  0.4592
  317MOL0     H42739   4.683   8.539   4.991 -1.2350  0.2392  0.1508
  317MOL0     H42740   4.850   8.673   4.873 -1.4033  3.4776 -0.0504
  317MOL0     H42741   4.879   8.769   5.020  0.8312  0.0628  1.7573
  317MOL0     H42742   4.955   8.577   5.150 -0.1954  0.5931  0.5980
  317MOL0     H42743   4.916   8.468   5.014  2.0915 -1.0122 -2.5958
  317MOL0     H42744   5.160   8.561   5.068 -0.3196 -0.5807 -0.1416
  317MOL0     H42745   5.106   8.703   4.966 -4.0588 -0.4990 -1.0728
  317MOL0     H42746   5.182   8.313   4.960  3.6388  1.3087  0.3986
  317MOL0     H42747   5.194   8.149   4.723 -0.7224  0.2241 -0.4961
  317MOL0     H42748   5.261   8.224   4.583  1.1592  0.5930 -0.3256
  317MOL0     H42749   5.424   8.089   4.705  2.1426  1.0889 -2.0384
  317MOL0     H42750   5.414   8.203   4.847 -0.0681 -1.6363  0.1038
  317MOL0     H42751   5.613   8.221   4.748 -0.3174 -1.8117 -2.5564
  317MOL0     H42752   5.534   8.371   4.720 -0.1987  0.5600  1.2195
  317MOL0     H42753   5.619   8.328   4.504  0.0170 -0.0723 -0.4347
  317MOL0     H42754   5.456   8.291   4.484  1.8069 -0.4523 -3.4297
  317MOL0     H42755   5.585   8.271   4.301 -1.9501 -1.2154 -0.9321
  317MOL0     H42756   5.852   8.283   4.039 -0.0287  0.9191 -0.1151
  317MOL0     H42757   5.690   8.251   3.991  0.9881 -0.0672 -0.8724
  317MOL0     H42758   5.737   8.374   4.121  1.3930  0.4967 -0.4791
  317MOL0     H42759   5.867   7.933   3.795 -0.4977  1.5515  0.0501
  317MOL0     H42760   5.986   7.860   3.580  0.5628 -2.1112  1.0411
  317MOL0     H42761   6.076   8.075   3.412 -0.0789 -0.9598 -2.2919
  317MOL0     H42762   6.231   8.162   3.442 -0.9176  0.0657  2.0726
  317MOL0     H42763   6.243   7.944   3.230 -1.5529  0.1709 -0.4831
  317MOL0     H42764   6.181   8.109   3.201 -1.5357 -0.0070  1.9791
  317MOL0     H42765   6.462   8.047   3.299 -0.6416  2.4097  2.0469
  317MOL0     H42766   6.394   8.209   3.283 -0.9942  0.3044  1.2549
  317MOL0     H42767   6.502   8.037   3.069  0.4438  1.9748 -1.4638
  317MOL0     H42768   6.346   8.075   3.027  1.4978 -0.9817 -1.2948
  317MOL0     H42769   6.422   8.335   3.099  1.3187  1.2134  0.9142
  317MOL0     H42770   6.459   8.256   2.945 -0.7948 -1.2700 -0.3621
  317MOL0     H42771   6.625   8.233   3.207  0.9150  3.3454  0.3759
  317MOL0     H42772   6.673   8.179   3.043  0.4149  0.3312 -0.0433
  317MOL0     H42773   6.616   8.464   3.139 -0.6419 -2.1290  1.6377
  317MOL0     H42774   6.689   8.421   2.983 -0.2769 -1.1981 -0.4021
  317MOL0     H42775   6.826   8.404   3.256 -1.4238  3.6879  0.5821
  317MOL0     H42776   6.877   8.505   3.118 -0.3335 -0.4098 -0.9650
  317MOL0     H42777   6.312   8.107   3.681 -0.4109 -0.3287 -0.2064
  317MOL0     H42778   6.215   8.161   3.906  0.7056 -0.4493 -0.6398
  317MOL0     H42779   5.873   7.867   4.283  0.4586 -0.4242 -1.4595
  317MOL0     H42780   5.724   7.917   4.490  0.9587  0.2492  0.5440
  317MOL0     H42781   3.969   8.999   4.893 -3.8637  1.3493  1.9811
  317MOL0     H42782   3.725   8.975   4.858 -2.2827 -2.3049 -0.9464
  317MOL0     H42783   3.450   8.674   4.623 -0.5476  0.8607  0.9472
  317MOL0     H42784   3.230   8.586   4.535 -1.5819  0.6305 -0.4795
  317MOL0     H42785   2.892   8.342   4.691  1.3370 -0.2512 -1.0925
  317MOL0     H42786   2.966   8.387   4.847 -3.1538 -0.9729  0.1995
  317MOL0     H42787   2.841   8.591   4.666  0.6440 -1.0559 -0.4837
  317MOL0     H42788   2.881   8.607   4.842  1.4377  0.0085 -0.8777
  317MOL0     H42789   2.726   8.434   4.897  0.2433  0.4682  0.1808
  317MOL0     H42790   2.665   8.432   4.726  2.6468  1.3172 -3.0636
  317MOL0     H42791   2.640   8.706   4.777 -1.7539 -0.5333 -1.1924
  317MOL0     H42792   2.625   8.625   4.943  0.3024 -0.4793 -0.0669
  317MOL0     H42793   2.272   8.515   4.768 -0.8165  0.9311 -4.0013
  317MOL0     H42794   3.096   8.525   4.935 -2.6757 -0.3509 -1.1683
  317MOL0     H42795   3.289   8.631   5.026 -0.7759 -1.8769  0.0928
  318MOL0     O42796   8.039   6.160   7.232  0.3477  1.1301  0.0202
  318MOL0     C42797   8.057   6.269   7.173  0.6078 -0.1247  0.9839
  318MOL0     O42798   7.954   6.352   7.122  0.7659 -0.3273  0.5263
  318MOL0     C42799   7.820   6.317   7.135 -0.0616 -0.3420 -0.5644
  318MOL0     C42800   7.766   6.208   7.217  0.5679  0.6969  0.2158
  318MOL0     C42801   7.636   6.189   7.229  0.7683  0.2198  0.1971
  318MOL0     C42802   7.538   6.264   7.153 -0.1608 -0.5657  0.2272
  318MOL0     O42803   7.402   6.233   7.156  0.3029 -0.1778  0.5626
  318MOL0     C42804   7.357   6.136   7.251  0.9103 -0.0272  0.2211
  318MOL0     C42805   7.209   6.105   7.214  0.1429  0.2148  0.1360
  318MOL0     C42806   7.108   6.123   7.332 -0.3215 -0.5595 -0.2526
  318MOL0     C42807   6.967   6.124   7.276 -0.4613 -0.3433 -0.6343
  318MOL0     C42808   6.869   6.158   7.398 -0.7569 -0.2833  0.0432
  318MOL0     C42809   6.727   6.130   7.360  0.2649  0.4768 -0.1811
  318MOL0     C42810   6.652   6.264   7.326 -0.2555  0.2643 -0.1339
  318MOL0     C42811   6.510   6.244   7.262  0.0512 -0.0548 -0.7337
  318MOL0     N42812   6.416   6.170   7.345 -0.3413 -0.2555  0.0573
  318MOL0     C42813   6.394   6.184   7.480 -0.5592  0.5168  0.1621
  318MOL0     C42814   6.300   6.085   7.505  0.3772  0.3576 -0.5823
  318MOL0     C42815   6.233   6.031   7.634 -0.3012 -0.2120  0.0646
  318MOL0     C42816   6.103   6.088   7.681 -0.0591  0.7299  0.0138
  318MOL0     C42817   5.995   6.066   7.568 -0.7234 -0.0807 -0.0550
  318MOL0     C42818   5.854   6.061   7.628 -0.0349  0.1080  0.4696
  318MOL0     O42819   5.833   6.178   7.710  0.3240  1.2579 -0.3331
  318MOL0     C42820   5.699   6.203   7.732  0.0340 -0.4905 -0.2770
  318MOL0     C42821   5.602   6.212   7.628 -0.1353 -0.3176  0.9535
  318MOL0     C42822   5.469   6.242   7.657  0.6152 -0.2667  0.9186
  318MOL0     C42823   5.371   6.270   7.542  0.4579  0.6108 -0.2637
  318MOL0     C42824   5.436   6.245   7.794  1.6112 -0.4649  0.1592
  318MOL0     C42825   5.302   6.276   7.828  1.2923  0.1501 -0.8035
  318MOL0     O42826   5.224   6.170   7.865 -0.0392 -0.5229  0.9287
  318MOL0     C42827   5.094   6.200   7.902 -0.9725  0.0571 -1.2591
  318MOL0     C42828   5.004   6.261   7.821 -0.2295 -1.1164 -0.2715
  318MOL0     C42829   4.871   6.282   7.856  0.9485 -0.2627 -0.6659
  318MOL0     C42830   4.834   6.249   7.986 -0.1412 -0.3980  0.3289
  318MOL0     O42831   4.701   6.271   8.033  0.3718 -0.1916 -0.2300
  318MOL0     C42832   4.578   6.256   7.956 -0.6472  1.3028 -0.7465
  318MOL0     C42833   4.473   6.311   8.052 -0.0943  0.4599  0.3765
  318MOL0     C42834   4.334   6.308   7.984  0.1371 -0.0336 -0.3243
  318MOL0     C42835   4.221   6.344   8.088  0.0770 -0.5250 -0.4134
  318MOL0     C42836   4.082   6.323   8.025  0.6597 -0.0258  0.4305
  318MOL0     C42837   3.978   6.385   8.115  0.2162  0.1665  0.5553
  318MOL0     C42838   3.838   6.323   8.084  1.2397  0.1922 -0.9303
  318MOL0     C42839   3.777   6.371   7.949  1.1315 -0.5276 -0.6189
  318MOL0    Cl42840   3.610   6.303   7.918  0.5146  0.3791 -0.0090
  318MOL0     C42841   4.925   6.199   8.071 -0.8111 -0.2628  0.2655
  318MOL0     C42842   5.058   6.172   8.033 -0.0220  0.4044  0.7748
  318MOL0     O42843   5.270   6.393   7.850 -0.1479  0.2152  0.2439
  318MOL0     C42844   5.531   6.236   7.900  0.1638  0.6510 -0.0070
  318MOL0     C42845   5.662   6.205   7.868 -0.1392 -0.2596  0.6618
  318MOL0     N42846   6.276   6.012   7.387 -0.2996  0.2122 -0.3675
  318MOL0     N42847   6.339   6.070   7.289 -0.3548 -0.4576 -1.0158
  318MOL0     C42848   7.593   6.370   7.074  0.5324 -0.3303  0.4730
  318MOL0     C42849   7.729   6.399   7.071  0.2750  0.1646  0.4577
  318MOL0     C42850   8.192   6.317   7.159 -0.9197  0.3897 -0.2858
  318MOL0     C42851   8.221   6.435   7.093 -0.5191  0.8554  0.4873
  318MOL0     C42852   8.347   6.491   7.092  0.2332  0.6395 -1.3122
  318MOL0     C42853   8.454   6.419   7.149  0.4294  0.7287  0.0647
  318MOL0     O42854   8.578   6.470   7.143 -0.6439  0.5910 -0.2388
  318MOL0     C42855   8.650   6.455   7.270 -0.4556 -1.2081 -0.4930
  318MOL0     C42856   8.713   6.590   7.293  0.5965 -0.3880 -0.1444
  318MOL0     C42857   8.741   6.627   7.430 -0.1019  0.0399 -0.0616
  318MOL0     C42858   8.831   6.518   7.503 -0.0223 -0.0294  0.1082
  318MOL0     C42859   8.846   6.575   7.637  0.8609 -0.8648 -0.5965
  318MOL0     C42860   8.856   6.610   7.754 -0.5847 -0.0199  0.0363
  318MOL0     C42861   8.426   6.287   7.198 -0.2313 -1.2604 -0.3304
  318MOL0     C42862   8.298   6.243   7.207 -0.9035  0.7074 -1.2200
  318MOL0     H42863   7.824   6.140   7.278  1.1490 -2.0481 -3.0446
  318MOL0     H42864   7.609   6.110   7.298  1.5754 -1.3937 -1.2667
  318MOL0     H42865   7.412   6.041   7.250  2.1076  0.6408  0.7589
  318MOL0     H42866   7.365   6.179   7.351 -3.5279  0.4100  0.5789
  318MOL0     H42867   7.173   6.170   7.134  1.7628  1.8920  0.6753
  318MOL0     H42868   7.201   6.001   7.182  1.3051 -0.1109  0.8241
  318MOL0     H42869   7.120   6.037   7.398  1.7336 -1.4085 -1.6351
  318MOL0     H42870   7.134   6.208   7.395 -0.2091  0.3629 -1.5043
  318MOL0     H42871   6.961   6.200   7.198 -1.1876  0.8726  0.5574
  318MOL0     H42872   6.938   6.031   7.228  1.3854 -2.8208  2.6057
  318MOL0     H42873   6.895   6.083   7.474 -0.1564 -3.3909 -2.9709
  318MOL0     H42874   6.882   6.259   7.436  0.4377 -0.9311  1.4673
  318MOL0     H42875   6.716   6.066   7.272  0.4640  1.0801 -0.6523
  318MOL0     H42876   6.688   6.075   7.447  0.3994  1.9161  0.8353
  318MOL0     H42877   6.642   6.321   7.419  0.1403  0.5218 -0.2423
  318MOL0     H42878   6.706   6.318   7.246 -3.5900  0.7030 -2.2815
  318MOL0     H42879   6.519   6.193   7.165 -3.1526 -0.5701 -0.8849
  318MOL0     H42880   6.477   6.344   7.230 -2.0312  0.3409  2.1943
  318MOL0     H42881   6.437   6.262   7.542 -0.6083 -0.5142  1.5475
  318MOL0     H42882   6.236   5.922   7.638 -1.6298 -0.3014 -0.8072
  318MOL0     H42883   6.309   6.063   7.706  1.2740  2.8175 -2.6463
  318MOL0     H42884   6.110   6.183   7.734 -5.3006  1.4079  0.0719
  318MOL0     H42885   6.073   6.020   7.762 -2.0275  1.9430  0.3775
  318MOL0     H42886   6.007   5.964   7.532 -0.3620 -0.3969  0.9298
  318MOL0     H42887   6.007   6.138   7.486 -0.3239 -2.5748 -2.2991
  318MOL0     H42888   5.859   5.975   7.695  2.6169  1.1523  1.7310
  318MOL0     H42889   5.781   6.035   7.550 -0.4955  0.2085  0.8607
  318MOL0     H42890   5.622   6.197   7.523  0.4444  4.0851  0.2547
  318MOL0     H42891   5.310   6.181   7.524  0.7983 -0.3597  2.7279
  318MOL0     H42892   5.309   6.358   7.560  2.3004  1.7192  0.9365
  318MOL0     H42893   5.426   6.295   7.451  1.6717  2.3911  0.9093
  318MOL0     H42894   5.026   6.296   7.720  0.9066 -1.8339 -0.2874
  318MOL0     H42895   4.810   6.338   7.786 -0.7579  0.7743  1.5303
  318MOL0     H42896   4.582   6.313   7.863  4.9329 -0.3824 -1.9309
  318MOL0     H42897   4.565   6.155   7.915 -0.2530  0.5123  0.9524
  318MOL0     H42898   4.477   6.245   8.140 -0.2254  1.6555  1.3035
  318MOL0     H42899   4.512   6.411   8.074 -2.3977  1.3354  0.7106
  318MOL0     H42900   4.321   6.207   7.944 -2.1206 -0.1443  0.5256
  318MOL0     H42901   4.332   6.385   7.906 -0.6559 -2.1742 -2.5296
  318MOL0     H42902   4.230   6.289   8.182  2.5357  0.4354 -0.0171
  318MOL0     H42903   4.222   6.452   8.109 -0.3896 -0.2279 -1.8053
  318MOL0     H42904   4.051   6.219   8.008 -2.0416  0.3957  2.1009
  318MOL0     H42905   4.076   6.371   7.927  1.3604 -3.5849 -1.5342
  318MOL0     H42906   4.004   6.362   8.219  2.3717 -2.6444 -0.4746
  318MOL0     H42907   3.977   6.494   8.106 -1.9410  0.1179 -0.4208
  318MOL0     H42908   3.760   6.349   8.157  1.6502 -2.1367  0.4580
  318MOL0     H42909   3.841   6.214   8.076 -0.6293 -0.1101  1.2567
  318MOL0     H42910   3.850   6.342   7.872  2.4199 -1.0292  0.7366
  318MOL0     H42911   3.776   6.479   7.962 -0.1773 -0.5371 -0.5805
  318MOL0     H42912   4.894   6.176   8.172  3.3241  0.9869  1.9905
  318MOL0     H42913   5.134   6.130   8.099 -1.2366 -1.8224  0.8360
  318MOL0     H42914   5.497   6.237   8.003 -3.7398  1.6140 -1.1441
  318MOL0     H42915   5.731   6.169   7.944 -0.7197 -0.2216  1.2225
  318MOL0     H42916   7.525   6.432   7.017 -1.2837 -1.3136  1.4772
  318MOL0     H42917   7.763   6.482   7.011  1.8459 -1.5591 -1.1497
  318MOL0     H42918   8.136   6.497   7.067  0.2373  1.0401 -1.8614
  318MOL0     H42919   8.358   6.591   7.049  0.1726  1.8472  1.2953
  318MOL0     H42920   8.590   6.434   7.359  2.2876 -0.7391  1.5912
  318MOL0     H42921   8.727   6.378   7.263  0.8208  0.0345 -0.3719
  318MOL0     H42922   8.642   6.665   7.256  0.1077  0.3919  2.1800
  318MOL0     H42923   8.803   6.604   7.233 -1.7192  4.3482 -3.1561
  318MOL0     H42924   8.647   6.646   7.484 -0.2394 -1.0964  0.1228
  318MOL0     H42925   8.789   6.726   7.433 -0.7666  0.4188 -1.2166
  318MOL0     H42926   8.923   6.500   7.447 -0.0286 -1.2036  0.4604
  318MOL0     H42927   8.776   6.424   7.512  1.4438 -0.8553  0.7561
  318MOL0     H42928   8.870   6.640   7.856 -0.8556  0.5236 -0.0852
  318MOL0     H42929   8.516   6.233   7.225  1.3490  1.1865 -0.3313
  318MOL0     H42930   8.284   6.144   7.249  1.7990 -0.0598 -1.9881
  319MOL0     O42931   7.458   7.750   1.223  0.3399 -0.2843  0.0427
  319MOL0     C42932   7.466   7.780   1.106 -0.4436  0.1201  0.0673
  319MOL0     O42933   7.373   7.832   1.023 -0.6072 -0.0808 -0.2589
  319MOL0     C42934   7.236   7.834   1.065 -1.0619 -0.3697  0.2370
  319MOL0     C42935   7.140   7.822   0.965 -0.5306 -0.7878 -0.0520
  319MOL0     C42936   7.003   7.807   0.994 -0.3820  0.2927  1.0113
  319MOL0     C42937   6.960   7.820   1.127 -0.0459 -0.0824 -0.2713
  319MOL0     O42938   6.838   7.808   1.171  0.7951  0.2100  0.1752
  319MOL0     C42939   6.745   7.732   1.092  0.9990  0.3724  0.4542
  319MOL0     C42940   6.605   7.749   1.150  0.1509  0.7960  0.8352
  319MOL0     C42941   6.569   7.894   1.180  0.8992  0.7581  1.1849
  319MOL0     C42942   6.419   7.909   1.207 -0.8862 -0.3725 -0.1052
  319MOL0     C42943   6.326   7.911   1.083 -1.0400 -0.3598 -0.1467
  319MOL0     C42944   6.345   8.018   0.983 -0.2142 -1.0636  0.6516
  319MOL0     C42945   6.252   8.000   0.866 -0.5075 -0.7166 -0.8379
  319MOL0     C42946   6.270   7.880   0.770  0.1819  0.1560 -0.2846
  319MOL0     N42947   6.416   7.862   0.740  0.0633  0.8584 -0.1223
  319MOL0     C42948   6.490   7.957   0.667  0.0102 -0.6711 -1.0846
  319MOL0     C42949   6.613   7.903   0.663  0.1601 -0.3846  0.4598
  319MOL0     C42950   6.735   7.979   0.621 -0.0828  0.0041 -0.5844
  319MOL0     C42951   6.737   7.989   0.465  0.2251 -1.4951  0.7125
  319MOL0     C42952   6.771   7.854   0.396  0.4182 -0.9462  0.3622
  319MOL0     C42953   6.789   7.867   0.241  0.0433 -0.0896  0.6923
  319MOL0     O42954   6.881   7.972   0.218  0.1094  0.6401  0.2359
  319MOL0     C42955   6.963   7.950   0.110 -0.2771  0.2067  0.5149
  319MOL0     C42956   7.104   7.973   0.124  0.4761 -0.3392  0.2802
  319MOL0     C42957   7.194   7.965   0.016  0.1880 -0.1675  0.8677
  319MOL0     C42958   7.329   8.013   0.037 -0.2167  0.2257 -0.1916
  319MOL0     C42959   7.150   7.929  -0.109 -0.5233 -0.2507 -0.1200
  319MOL0     C42960   7.244   7.906  -0.223 -0.2123  0.2182  0.4403
  319MOL0     O42961   7.194   7.934  -0.343 -0.1370  0.2594  0.2755
  319MOL0     C42962   7.271   7.930  -0.463  0.9139  0.3805  0.0910
  319MOL0     C42963   7.390   7.872  -0.487 -0.4361 -0.5214 -0.6685
  319MOL0     C42964   7.449   7.867  -0.611  0.3348  0.9933  0.0115
  319MOL0     C42965   7.384   7.918  -0.729  0.0379 -0.2232 -0.1883
  319MOL0     O42966   7.437   7.909  -0.859  0.5075  0.6121  0.3465
  319MOL0     C42967   7.560   7.834  -0.891  0.0802  0.3511 -0.6550
  319MOL0     C42968   7.581   7.826  -1.045  0.1521 -0.1433 -0.2499
  319MOL0     C42969   7.632   7.965  -1.092  0.1571 -0.3092  0.3383
  319MOL0     C42970   7.628   7.980  -1.245 -0.4884  0.6526  1.2718
  319MOL0     C42971   7.706   8.099  -1.300  0.7829  0.3220 -0.3825
  319MOL0     C42972   7.703   8.104  -1.450  1.1045 -0.8858 -0.2937
  319MOL0     C42973   7.785   8.230  -1.496 -0.6450  0.4018  0.5487
  319MOL0     C42974   7.808   8.203  -1.646  0.1984  0.2220  0.6397
  319MOL0    Cl42975   7.664   8.206  -1.742 -0.3554  0.0768 -0.2961
  319MOL0     C42976   7.256   7.968  -0.711 -0.1439 -0.2938  0.4848
  319MOL0     C42977   7.197   7.974  -0.578  0.2302 -0.2122 -0.5678
  319MOL0     O42978   7.353   7.853  -0.200 -0.7092 -0.0361  0.1677
  319MOL0     C42979   7.018   7.900  -0.123  0.3743  0.2064 -0.3742
  319MOL0     C42980   6.922   7.918  -0.023 -0.0472  0.0097  0.1429
  319MOL0     N42981   6.620   7.782   0.729  0.1796  0.5360 -0.2492
  319MOL0     N42982   6.497   7.755   0.772 -0.3841  0.0251 -0.9215
  319MOL0     C42983   7.060   7.842   1.224  0.2782  0.0260 -0.1288
  319MOL0     C42984   7.197   7.848   1.201  0.2855  0.5831  0.3786
  319MOL0     C42985   7.586   7.753   1.029 -0.4192  0.2024  0.3564
  319MOL0     C42986   7.585   7.725   0.890 -0.6097  0.1106 -1.6702
  319MOL0     C42987   7.700   7.700   0.824  0.4346  0.0642  0.3516
  319MOL0     C42988   7.823   7.705   0.886  0.4951  0.6807 -0.9031
  319MOL0     O42989   7.938   7.699   0.822  0.0073  0.3749  0.1022
  319MOL0     C42990   8.009   7.575   0.851  0.4076  0.4429  0.0099
  319MOL0     C42991   7.932   7.444   0.855 -0.8155  1.1600 -0.5077
  319MOL0     C42992   7.863   7.421   0.715 -0.0702  0.0059 -0.6318
  319MOL0     C42993   7.728   7.338   0.728  0.0322 -0.3906  0.4863
  319MOL0     C42994   7.700   7.269   0.595  0.0260  0.4598 -0.0115
  319MOL0     C42995   7.669   7.211   0.497 -0.9198 -0.0669 -0.0100
  319MOL0     C42996   7.825   7.738   1.020 -0.5495 -0.9900  0.1078
  319MOL0     C42997   7.706   7.764   1.091 -0.0858  0.0580 -0.1987
  319MOL0     H42998   7.178   7.832   0.864  2.1910 -3.8875  0.4945
  319MOL0     H42999   6.941   7.785   0.908  2.8732  1.2211 -1.7924
  319MOL0     H43000   6.742   7.769   0.989 -0.5763  1.1780  0.7553
  319MOL0     H43001   6.764   7.625   1.078  0.6088  0.4306 -0.5917
  319MOL0     H43002   6.526   7.707   1.087 -0.1109  1.8108  0.4749
  319MOL0     H43003   6.607   7.696   1.246 -1.3936  3.8170  2.6647
  319MOL0     H43004   6.629   7.926   1.266  0.7492 -1.0225  1.9949
  319MOL0     H43005   6.608   7.960   1.102 -0.5873  0.4850  0.1674
  319MOL0     H43006   6.376   7.826   1.265 -1.4200 -0.3354 -0.4492
  319MOL0     H43007   6.418   8.001   1.266 -2.3640  1.0228 -2.2264
  319MOL0     H43008   6.328   7.808   1.044  3.1032 -0.7230  0.5727
  319MOL0     H43009   6.230   7.937   1.129  0.4631  3.2139  1.3518
  319MOL0     H43010   6.326   8.113   1.034 -1.9522 -0.6504 -0.6627
  319MOL0     H43011   6.449   8.006   0.952 -0.2534 -1.5947  0.7276
  319MOL0     H43012   6.148   7.998   0.900  0.0395  0.1111  1.0467
  319MOL0     H43013   6.273   8.089   0.806 -1.4064 -0.0803 -0.2308
  319MOL0     H43014   6.211   7.902   0.681 -1.0974 -1.4551  0.1256
  319MOL0     H43015   6.227   7.787   0.809  2.0337 -1.2684 -1.4304
  319MOL0     H43016   6.462   8.055   0.630 -2.4921 -0.6241  0.6711
  319MOL0     H43017   6.729   8.078   0.667  2.5282 -0.6073  1.2780
  319MOL0     H43018   6.827   7.941   0.667  0.8986  3.0070  0.1015
  319MOL0     H43019   6.809   8.063   0.427 -1.8492  0.2035 -0.1116
  319MOL0     H43020   6.640   8.033   0.443  2.1878  2.6660 -0.6702
  319MOL0     H43021   6.701   7.772   0.416 -0.0377 -0.4899  0.6696
  319MOL0     H43022   6.863   7.837   0.453 -2.7895 -1.5966  6.1070
  319MOL0     H43023   6.695   7.897   0.194  0.2406 -0.6059 -0.0535
  319MOL0     H43024   6.822   7.771   0.201  5.1455  1.7338 -0.2750
  319MOL0     H43025   7.139   8.009   0.220 -1.4691 -1.7075  1.5715
  319MOL0     H43026   7.351   8.082  -0.045 -0.9096  2.2151  1.2076
  319MOL0     H43027   7.333   8.078   0.126 -2.4929  0.9779 -0.5855
  319MOL0     H43028   7.407   7.936   0.034 -0.0398  0.4121 -0.5127
  319MOL0     H43029   7.454   7.825  -0.413  0.5334  1.1101 -0.4306
  319MOL0     H43030   7.546   7.819  -0.605 -0.8251 -1.4361  0.5694
  319MOL0     H43031   7.649   7.867  -0.837  0.4905  1.5776 -2.0371
  319MOL0     H43032   7.536   7.735  -0.852 -4.0403  1.7307  0.8623
  319MOL0     H43033   7.665   7.761  -1.073 -1.4351 -1.1948 -2.9880
  319MOL0     H43034   7.488   7.800  -1.096 -0.7231  2.7597 -0.3096
  319MOL0     H43035   7.730   7.989  -1.050  1.2310  0.0710 -2.1923
  319MOL0     H43036   7.566   8.040  -1.049  1.4958  1.6074 -0.7808
  319MOL0     H43037   7.671   7.886  -1.278  0.5841  1.5042  0.1638
  319MOL0     H43038   7.526   7.983  -1.284 -1.3046 -1.8085  2.9362
  319MOL0     H43039   7.812   8.094  -1.272  0.3937 -1.0715  0.9670
  319MOL0     H43040   7.654   8.179  -1.246 -1.0171  1.7412 -3.8864
  319MOL0     H43041   7.738   8.010  -1.493 -0.7702 -1.9360  0.3599
  319MOL0     H43042   7.597   8.113  -1.477  0.9902  1.9954  0.7065
  319MOL0     H43043   7.885   8.240  -1.451  0.2289  0.8734 -1.4159
  319MOL0     H43044   7.727   8.321  -1.482  0.8575  1.9936 -2.6050
  319MOL0     H43045   7.869   8.114  -1.661  1.2860  1.2074 -1.2362
  319MOL0     H43046   7.867   8.286  -1.688 -3.3477  1.1285 -3.2606
  319MOL0     H43047   7.199   8.005  -0.796  1.6740  1.4058 -0.0477
  319MOL0     H43048   7.096   8.011  -0.567 -0.5773 -2.2920 -0.6941
  319MOL0     H43049   6.982   7.886  -0.225 -1.1183  0.3518  0.1017
  319MOL0     H43050   6.819   7.912  -0.056  0.3815 -1.7223 -1.0055
  319MOL0     H43051   7.022   7.865   1.323  2.1390  0.5185  0.4972
  319MOL0     H43052   7.262   7.877   1.284  1.3605 -1.6287  0.3907
  319MOL0     H43053   7.491   7.727   0.836 -0.1714  0.5724 -2.4299
  319MOL0     H43054   7.693   7.677   0.718  2.7538 -1.2132  0.3915
  319MOL0     H43055   8.081   7.560   0.770  0.3927 -2.2681  0.4039
  319MOL0     H43056   8.069   7.603   0.938 -0.5230  4.3917 -0.4409
  319MOL0     H43057   7.859   7.444   0.936  2.2350 -1.4273  2.6248
  319MOL0     H43058   7.999   7.361   0.881 -3.5118 -0.0206  3.5715
  319MOL0     H43059   7.939   7.364   0.661  1.3440  1.5013 -0.3075
  319MOL0     H43060   7.843   7.510   0.654 -0.4509 -0.7724 -1.6577
  319MOL0     H43061   7.656   7.416   0.756 -1.0660  0.2850 -3.5150
  319MOL0     H43062   7.734   7.265   0.809 -1.0943  1.1040  2.0127
  319MOL0     H43063   7.650   7.153   0.408 -3.3682 -0.9024  0.9850
  319MOL0     H43064   7.923   7.745   1.066 -0.5905  0.8668  0.0069
  319MOL0     H43065   7.723   7.785   1.197 -0.7784  2.3089 -0.4797
  320MOL0     O43066   9.323  10.387   8.726 -0.8008  0.3813  0.2166
  320MOL0     C43067   9.222  10.352   8.679 -0.6558 -0.0411  0.3522
  320MOL0     O43068   9.197  10.225   8.623 -0.5102  0.6652  0.6507
  320MOL0     C43069   9.300  10.131   8.627 -0.3707  0.7676  0.1602
  320MOL0     C43070   9.264   9.997   8.662  0.3983  0.2214  0.4101
  320MOL0     C43071   9.362   9.894   8.666  0.2676  0.3787 -0.4264
  320MOL0     C43072   9.494   9.918   8.631 -1.1901  0.4733  0.5658
  320MOL0     O43073   9.609   9.839   8.639  0.9548  0.0821 -0.5637
  320MOL0     C43074   9.590   9.709   8.700 -0.1415  0.1336  0.3729
  320MOL0     C43075   9.738   9.652   8.717 -0.3978  0.2641 -0.7675
  320MOL0     C43076   9.792   9.626   8.588 -0.6065  0.6654  0.0010
  320MOL0     C43077   9.929   9.567   8.592  0.9455  0.6139 -0.7236
  320MOL0     C43078   9.972   9.533   8.449  0.2965 -0.5942 -0.0416
  320MOL0     C43079  10.106   9.461   8.437  0.5642  0.5583 -1.2784
  320MOL0     C43080  10.151   9.470   8.296 -0.0038 -0.1378 -0.4745
  320MOL0     C43081  10.100   9.354   8.219  0.3761 -0.1858  0.0059
  320MOL0     N43082  10.141   9.216   8.267  0.8373  0.3783 -0.1891
  320MOL0     C43083  10.268   9.170   8.275  0.1341 -0.4091 -0.0160
  320MOL0     C43084  10.266   9.043   8.315  0.8246 -0.0513 -0.1785
  320MOL0     C43085  10.367   8.966   8.375  0.0463  0.1616  0.7929
  320MOL0     C43086  10.365   8.820   8.323  0.5594 -0.9652  0.2292
  320MOL0     C43087  10.510   8.781   8.327 -0.5043  0.1455 -0.3772
  320MOL0     C43088  10.547   8.674   8.226 -0.5418  0.6505  0.4579
  320MOL0     O43089  10.492   8.544   8.259  0.0446 -0.0366  0.5233
  320MOL0     C43090  10.523   8.436   8.186 -0.4911  0.0595 -0.4477
  320MOL0     C43091  10.605   8.440   8.069 -0.5117  0.4874 -0.1918
  320MOL0     C43092  10.643   8.326   7.998  0.4137 -0.3774 -0.4032
  320MOL0     C43093  10.743   8.338   7.877  1.2146  0.5613 -0.9741
  320MOL0     C43094  10.585   8.210   8.042  0.5217 -0.6126  0.6111
  320MOL0     C43095  10.620   8.086   7.977  0.0390  0.3153 -0.2862
  320MOL0     O43096  10.594   8.061   7.840  0.6609  0.0990  0.3229
  320MOL0     C43097  10.669   7.970   7.777 -0.7382  0.2356 -0.5150
  320MOL0     C43098  10.738   8.028   7.667  0.6531 -0.1356  0.1676
  320MOL0     C43099  10.828   7.957   7.591 -0.0809  0.7515 -0.5778
  320MOL0     C43100  10.857   7.824   7.627 -0.1786  0.2829  0.2976
  320MOL0     O43101  10.952   7.749   7.559 -0.6151  0.8775  0.7833
  320MOL0     C43102  10.999   7.784   7.428 -0.6041 -0.2751 -0.8856
  320MOL0     C43103  10.904   7.804   7.314  0.7000 -0.1131 -0.6661
  320MOL0     C43104  10.836   7.671   7.272 -0.2620  0.2340  0.3004
  320MOL0     C43105  10.737   7.681   7.153  0.0348  0.2996 -0.1676
  320MOL0     C43106  10.684   7.540   7.102  0.0871  0.9064  0.6651
  320MOL0     C43107  10.595   7.547   6.984  0.3405 -0.0798  0.3956
  320MOL0     C43108  10.556   7.410   6.934  0.1833 -0.5404 -0.4182
  320MOL0     C43109  10.438   7.424   6.835  0.7446  0.1795 -0.1527
  320MOL0    Cl43110  10.274   7.410   6.901  0.4054  0.2389 -0.1620
  320MOL0     C43111  10.799   7.761   7.732 -0.2106  0.3610  1.0383
  320MOL0     C43112  10.706   7.833   7.812 -0.5001  0.1920  0.2365
  320MOL0     O43113  10.671   8.003   8.045 -0.1925  0.6832 -0.3227
  320MOL0     C43114  10.509   8.198   8.157  0.5994 -0.0976  0.1609
  320MOL0     C43115  10.477   8.311   8.224 -0.1733 -0.6627 -0.5179
  320MOL0     N43116  10.137   9.005   8.324 -0.6333 -0.6211 -0.2209
  320MOL0     N43117  10.061   9.114   8.308  0.8082 -0.1724  0.2291
  320MOL0     C43118   9.524  10.047   8.582 -0.5130 -0.2218  0.2075
  320MOL0     C43119   9.428  10.154   8.586  0.6443  0.6444 -0.6953
  320MOL0     C43120   9.112  10.455   8.674  0.6899  0.6334  0.3086
  320MOL0     C43121   9.007  10.447   8.575 -0.4693 -0.0923 -0.2015
  320MOL0     C43122   8.905  10.546   8.574 -0.0515 -1.4808  0.4515
  320MOL0     C43123   8.906  10.647   8.674  0.3037  0.7731  0.2381
  320MOL0     O43124   8.793  10.731   8.669 -0.3220 -0.1129  0.7087
  320MOL0     C43125   8.798  10.836   8.765 -0.1129 -0.0294  0.0293
  320MOL0     C43126   8.667  10.914   8.747  0.1639 -0.8848 -0.0059
  320MOL0     C43127   8.676  11.029   8.649 -0.2949 -0.9133  0.0646
  320MOL0     C43128   8.527  11.076   8.617 -0.2448 -0.6303  0.4179
  320MOL0     C43129   8.535  11.174   8.501  0.3813  0.2439  0.0007
  320MOL0     C43130   8.531  11.267   8.425 -0.3441  0.0830 -0.7562
  320MOL0     C43131   9.021  10.655   8.762  0.2187 -0.0364 -0.4938
  320MOL0     C43132   9.120  10.559   8.764  0.1710  0.3583  0.7346
  320MOL0     H43133   9.161   9.977   8.692  1.2331 -2.2521  1.8527
  320MOL0     H43134   9.328   9.808   8.723  1.1442 -1.5570 -2.6699
  320MOL0     H43135   9.530   9.708   8.791 -0.1875  1.8608  0.4048
  320MOL0     H43136   9.530   9.645   8.635 -2.6003 -1.3784  3.8437
  320MOL0     H43137   9.782   9.742   8.762  0.2715  0.2204 -1.3208
  320MOL0     H43138   9.752   9.571   8.789  2.2528  0.6586 -0.7461
  320MOL0     H43139   9.732   9.547   8.542 -1.0297  0.9790  0.0090
  320MOL0     H43140   9.783   9.717   8.527 -2.9997 -0.1386 -0.9491
  320MOL0     H43141   9.996   9.635   8.647 -1.0080  0.8072  1.5639
  320MOL0     H43142   9.921   9.474   8.648  2.7141  1.8401  1.7560
  320MOL0     H43143   9.894   9.476   8.396 -1.0537  3.1453 -2.4694
  320MOL0     H43144   9.979   9.626   8.393 -1.2747  2.2453  3.9975
  320MOL0     H43145  10.178   9.501   8.509  0.8626  0.0665 -1.3008
  320MOL0     H43146  10.096   9.361   8.480 -0.2809  0.2323 -2.1936
  320MOL0     H43147  10.132   9.567   8.250  0.6321 -0.1011 -0.6641
  320MOL0     H43148  10.257   9.457   8.319  0.1427  3.1434  1.2185
  320MOL0     H43149  10.143   9.370   8.120 -0.3647  3.6143  0.1329
  320MOL0     H43150   9.992   9.370   8.215  0.7075  2.1784 -1.5341
  320MOL0     H43151  10.361   9.224   8.264  1.0752 -2.1099 -0.9012
  320MOL0     H43152  10.463   9.018   8.361 -1.2741  2.6544  0.3451
  320MOL0     H43153  10.360   8.970   8.484 -1.6460  1.1759  0.6841
  320MOL0     H43154  10.323   8.815   8.222 -0.9467  0.5763  0.7482
  320MOL0     H43155  10.302   8.760   8.389 -1.1121 -1.1548 -1.4580
  320MOL0     H43156  10.529   8.756   8.432 -2.8033 -1.3779 -0.2433
  320MOL0     H43157  10.568   8.867   8.295 -1.8047  0.9707 -0.5983
  320MOL0     H43158  10.655   8.670   8.213 -0.6835 -0.2904 -0.6153
  320MOL0     H43159  10.496   8.700   8.133  1.9768  0.7632 -0.9502
  320MOL0     H43160  10.667   8.524   8.040  0.7129  0.8824  3.0838
  320MOL0     H43161  10.831   8.400   7.899  1.1054 -0.4825  3.2356
  320MOL0     H43162  10.781   8.239   7.848 -1.4694 -0.4503 -1.2712
  320MOL0     H43163  10.700   8.378   7.786  1.1167  2.2959 -0.2023
  320MOL0     H43164  10.715   8.130   7.637  0.5804  0.6890  2.7508
  320MOL0     H43165  10.886   7.996   7.509  0.1876 -2.1675 -1.8974
  320MOL0     H43166  11.059   7.871   7.453  1.9208 -1.3376 -2.7912
  320MOL0     H43167  11.076   7.708   7.413  2.0325  2.5093 -2.5243
  320MOL0     H43168  10.817   7.859   7.350  1.1559  2.4671 -3.1890
  320MOL0     H43169  10.951   7.846   7.224  0.0911 -2.3633 -2.1085
  320MOL0     H43170  10.775   7.635   7.355  1.6920  2.0004  2.6423
  320MOL0     H43171  10.904   7.587   7.250  1.1275  1.3987  0.0034
  320MOL0     H43172  10.653   7.743   7.184  1.4639  2.3998 -0.2951
  320MOL0     H43173  10.793   7.741   7.081  1.6746 -1.9183 -0.8785
  320MOL0     H43174  10.637   7.472   7.173  1.8521 -1.8425 -0.6223
  320MOL0     H43175  10.767   7.474   7.074  0.9086  1.7350  1.1006
  320MOL0     H43176  10.507   7.609   7.000  0.4468  0.1634  0.0540
  320MOL0     H43177  10.646   7.601   6.904 -0.4162 -0.3974 -0.3150
  320MOL0     H43178  10.505   7.361   7.017 -1.0956 -2.1945 -2.0791
  320MOL0     H43179  10.637   7.345   6.898  2.1019  0.7731  1.3099
  320MOL0     H43180  10.455   7.349   6.757  2.3255  1.1167 -0.7707
  320MOL0     H43181  10.448   7.522   6.787  2.7684  0.8087  1.4025
  320MOL0     H43182  10.816   7.656   7.757  0.4635  0.3334  0.4964
  320MOL0     H43183  10.668   7.778   7.897  0.4002  0.0723  0.5730
  320MOL0     H43184  10.469   8.101   8.185  1.7358 -0.3669  0.9250
  320MOL0     H43185  10.408   8.292   8.306 -3.1208 -0.8536 -2.8583
  320MOL0     H43186   9.626  10.068   8.551 -1.4309  0.4880 -2.6455
  320MOL0     H43187   9.445  10.255   8.552  1.7780  0.1458 -1.6797
  320MOL0     H43188   9.011  10.359   8.512  1.3016 -2.9744  3.5013
  320MOL0     H43189   8.820  10.532   8.508  0.1226 -0.3193 -0.0269
  320MOL0     H43190   8.794  10.790   8.864  0.8718 -2.7761 -1.0890
  320MOL0     H43191   8.882  10.905   8.762  0.0215 -0.1946 -1.9789
  320MOL0     H43192   8.640  10.957   8.844  0.8339  1.6998 -0.8665
  320MOL0     H43193   8.589  10.840   8.727  2.2247 -4.5746  3.9358
  320MOL0     H43194   8.736  10.994   8.565  0.0532 -0.3829  0.0827
  320MOL0     H43195   8.717  11.124   8.685 -3.5150  0.6313 -0.0152
  320MOL0     H43196   8.481  11.110   8.710 -0.7974 -2.3043  0.7961
  320MOL0     H43197   8.463  10.993   8.584  0.7609 -1.3410  0.2364
  320MOL0     H43198   8.526  11.357   8.366 -3.1814  2.4934  2.7418
  320MOL0     H43199   9.031  10.738   8.831 -2.5381 -0.0369  0.0437
  320MOL0     H43200   9.203  10.586   8.828  1.2756 -1.1326 -0.0024
  321MOL0     O43201   8.991  11.161   8.415  0.4831 -0.3306 -0.2923
  321MOL0     C43202   9.094  11.145   8.352  0.9106  0.3573 -0.8633
  321MOL0     O43203   9.136  11.229   8.250  0.5773  0.4680 -0.9183
  321MOL0     C43204   9.047  11.325   8.205  0.2183  0.3151 -0.2565
  321MOL0     C43205   8.907  11.306   8.180 -0.0312  0.0078  0.2689
  321MOL0     C43206   8.835  11.411   8.123  0.1124  0.0553 -0.3752
  321MOL0     C43207   8.901  11.531   8.083 -0.2303  0.0888  0.8957
  321MOL0     O43208   8.832  11.623   8.017  0.1208 -0.7588 -0.4407
  321MOL0     C43209   8.794  11.726   8.116 -0.6452  0.6554  0.8442
  321MOL0     C43210   8.645  11.697   8.131  0.6649  0.1401 -0.0340
  321MOL0     C43211   8.588  11.798   8.231 -0.4271 -0.7528 -0.2651
  321MOL0     C43212   8.441  11.774   8.255 -0.4258  0.0215 -0.6030
  321MOL0     C43213   8.374  11.882   8.355 -0.5937 -0.1095  0.3483
  321MOL0     C43214   8.457  11.912   8.483  0.7471  0.3098 -0.9247
  321MOL0     C43215   8.375  12.004   8.583  0.2613  0.4987 -1.0089
  321MOL0     C43216   8.371  12.142   8.524  0.4713 -1.2065 -0.1524
  321MOL0     N43217   8.293  12.234   8.615 -0.3643  0.0421 -0.5361
  321MOL0     C43218   8.178  12.215   8.683  0.0451 -0.1715 -0.6597
  321MOL0     C43219   8.141  12.334   8.741 -0.5360  0.0118  0.4449
  321MOL0     C43220   8.028  12.361   8.825  0.7431 -0.1022 -0.0506
  321MOL0     C43221   7.963  12.498   8.784  0.6708 -0.6186  0.3342
  321MOL0     C43222   7.871  12.564   8.891  0.0905  0.6663 -0.5236
  321MOL0     C43223   7.766  12.481   8.959  0.6332 -0.1906 -0.3344
  321MOL0     O43224   7.672  12.414   8.873 -0.1286  0.0364  0.2004
  321MOL0     C43225   7.545  12.476   8.870 -0.3596 -0.1952 -0.7632
  321MOL0     C43226   7.435  12.421   8.937 -0.5879 -0.2285  0.2116
  321MOL0     C43227   7.310  12.480   8.933 -0.0375 -0.4388 -0.1800
  321MOL0     C43228   7.199  12.422   9.025  0.1522 -0.2716  0.2448
  321MOL0     C43229   7.294  12.593   8.851  1.4191 -0.3923 -0.1745
  321MOL0     C43230   7.178  12.680   8.843 -0.0838 -0.4120  0.9136
  321MOL0     O43231   7.136  12.732   8.715 -0.2264 -0.3728 -0.2007
  321MOL0     C43232   7.060  12.846   8.711 -0.1188  0.4862  0.7093
  321MOL0     C43233   6.954  12.851   8.615  0.0885  0.1327  0.0975
  321MOL0     C43234   6.869  12.954   8.613  0.4520 -0.8479 -0.7360
  321MOL0     C43235   6.889  13.070   8.692  0.3258  0.5274 -1.1111
  321MOL0     O43236   6.810  13.183   8.668 -0.7839  0.0711  0.3510
  321MOL0     C43237   6.858  13.309   8.710  0.2456 -0.1542 -0.3228
  321MOL0     C43238   6.734  13.410   8.674 -0.2800  1.8788 -0.0679
  321MOL0     C43239   6.602  13.389   8.755 -0.5002 -0.3669  1.0720
  321MOL0     C43240   6.507  13.278   8.708 -0.7618  0.0453 -1.0973
  321MOL0     C43241   6.386  13.253   8.800 -1.2396 -0.4788  0.2211
  321MOL0     C43242   6.277  13.361   8.792  0.2988 -0.0415 -0.7688
  321MOL0     C43243   6.171  13.326   8.893  0.1461  0.1155 -0.3694
  321MOL0     C43244   6.066  13.230   8.835 -0.0868 -0.9350  0.1527
  321MOL0    Cl43245   5.922  13.212   8.946 -0.1816 -0.4030  0.2914
  321MOL0     C43246   6.999  13.072   8.783 -0.2620  0.3553 -0.6713
  321MOL0     C43247   7.084  12.957   8.790 -0.0705  0.2152 -0.2901
  321MOL0     O43248   7.109  12.698   8.944 -0.1685  0.6100 -0.0194
  321MOL0     C43249   7.398  12.636   8.768  0.3866  0.2218  0.0603
  321MOL0     C43250   7.522  12.584   8.783 -0.2341 -1.2871 -0.0281
  321MOL0     N43251   8.232  12.427   8.698 -0.6013 -0.7217 -0.9385
  321MOL0     N43252   8.316  12.366   8.616  0.5507 -0.2776  0.0427
  321MOL0     C43253   9.032  11.551   8.117 -0.7728 -0.0535 -0.7453
  321MOL0     C43254   9.107  11.445   8.176 -0.6201 -0.1766  0.4149
  321MOL0     C43255   9.177  11.029   8.393 -0.2739  0.8675 -1.1501
  321MOL0     C43256   9.161  10.957   8.513 -0.4254  0.5577 -0.8228
  321MOL0     C43257   9.251  10.848   8.543  0.3712 -0.7186  0.1174
  321MOL0     C43258   9.349  10.803   8.455 -0.4100 -0.5463 -0.0761
  321MOL0     O43259   9.428  10.692   8.482 -0.2448 -0.3843 -0.3643
  321MOL0     C43260   9.482  10.622   8.367  0.0762 -0.1482  0.2316
  321MOL0     C43261   9.525  10.483   8.416 -0.1123 -0.3616 -0.7562
  321MOL0     C43262   9.632  10.419   8.319  0.8309  0.1379 -1.1978
  321MOL0     C43263   9.681  10.292   8.371  0.4935  0.6110 -0.3588
  321MOL0     C43264   9.804  10.240   8.303  0.3039 -0.9116 -0.8322
  321MOL0     C43265   9.907  10.204   8.261 -1.2629  1.4402 -0.4060
  321MOL0     C43266   9.367  10.878   8.332 -0.3225 -0.0404  0.6434
  321MOL0     C43267   9.279  10.980   8.304  0.3797  0.4044  0.8215
  321MOL0     H43268   8.852  11.218   8.212 -2.7393  1.2118 -0.7701
  321MOL0     H43269   8.726  11.400   8.122 -0.0453  1.4952 -0.1650
  321MOL0     H43270   8.844  11.706   8.211  1.0726  1.1890  0.1013
  321MOL0     H43271   8.814  11.828   8.081  0.4546 -0.2838 -1.4575
  321MOL0     H43272   8.588  11.715   8.039 -0.1946  3.6677  1.0444
  321MOL0     H43273   8.620  11.596   8.163 -1.6324  1.4811  2.9147
  321MOL0     H43274   8.645  11.788   8.323 -1.4783 -2.7480  0.2430
  321MOL0     H43275   8.587  11.894   8.179 -0.0271  1.9373  4.2234
  321MOL0     H43276   8.381  11.759   8.165 -2.5745 -2.3394  1.0724
  321MOL0     H43277   8.442  11.673   8.297 -1.1391 -0.7148 -2.2695
  321MOL0     H43278   8.372  11.971   8.292 -0.0645 -0.3928 -0.0761
  321MOL0     H43279   8.271  11.868   8.391 -0.9099 -1.8354 -1.0750
  321MOL0     H43280   8.464  11.814   8.533 -2.1588 -1.2489 -3.1858
  321MOL0     H43281   8.553  11.963   8.474  0.1455  1.4343 -1.1334
  321MOL0     H43282   8.278  11.961   8.611  0.6802  1.2170  1.8049
  321MOL0     H43283   8.434  12.012   8.675  0.6318  1.0263 -1.2855
  321MOL0     H43284   8.325  12.149   8.425 -0.9667 -0.6495  0.5205
  321MOL0     H43285   8.473  12.181   8.517  0.0098  0.1023  0.0019
  321MOL0     H43286   8.125  12.120   8.682 -3.0421  1.4381 -1.8800
  321MOL0     H43287   7.953  12.281   8.817  1.6075 -1.0057  0.6324
  321MOL0     H43288   8.066  12.367   8.928  1.2961 -1.3273 -0.1708
  321MOL0     H43289   7.901  12.481   8.696  0.7067 -0.9769  0.3754
  321MOL0     H43290   8.042  12.568   8.758  0.6107 -0.2919  0.9924
  321MOL0     H43291   7.831  12.651   8.838  0.9616 -0.7979 -3.8341
  321MOL0     H43292   7.934  12.613   8.967  2.5076 -2.4528 -0.3130
  321MOL0     H43293   7.719  12.542   9.036  1.1156  1.4941 -1.3214
  321MOL0     H43294   7.817  12.406   9.021  0.3054 -0.4318 -0.3569
  321MOL0     H43295   7.443  12.321   8.978 -2.1674 -1.5446 -2.4337
  321MOL0     H43296   7.179  12.502   9.097  2.2523  0.3308  0.2496
  321MOL0     H43297   7.105  12.396   8.976  1.7003 -0.7694 -2.7371
  321MOL0     H43298   7.230  12.333   9.080  0.7494  0.3469  0.9484
  321MOL0     H43299   6.945  12.771   8.542  1.3836 -0.6342  0.7387
  321MOL0     H43300   6.787  12.949   8.543  1.2291 -2.1587 -1.5828
  321MOL0     H43301   6.876  13.304   8.818 -3.2174 -1.9588  0.3034
  321MOL0     H43302   6.948  13.341   8.657 -0.2957  0.7899 -0.6902
  321MOL0     H43303   6.780  13.509   8.670  0.8531  1.3393 -1.5516
  321MOL0     H43304   6.714  13.390   8.568 -2.1361  0.3590  0.5223
  321MOL0     H43305   6.550  13.482   8.727 -1.9915 -1.6342 -0.6093
  321MOL0     H43306   6.623  13.378   8.862  2.9323 -2.6478  0.3226
  321MOL0     H43307   6.478  13.295   8.604  0.8758  0.0679 -1.5815
  321MOL0     H43308   6.571  13.189   8.710  0.6316  0.9913  1.9230
  321MOL0     H43309   6.425  13.244   8.902  3.9983  1.0625 -1.3195
  321MOL0     H43310   6.342  13.160   8.764 -1.5546 -0.9228  1.6957
  321MOL0     H43311   6.314  13.462   8.809 -1.6254  1.0415 -2.5757
  321MOL0     H43312   6.237  13.367   8.690 -2.1509 -1.9194 -0.0286
  321MOL0     H43313   6.128  13.423   8.923  1.9567  1.0294 -0.5773
  321MOL0     H43314   6.206  13.285   8.989  1.7784 -2.8047 -2.0694
  321MOL0     H43315   6.118  13.134   8.838 -1.1082 -1.4914  0.5164
  321MOL0     H43316   6.032  13.267   8.738  2.3452 -1.1446 -0.8652
  321MOL0     H43317   7.012  13.147   8.860 -0.4073 -0.5861  0.2998
  321MOL0     H43318   7.166  12.946   8.861  2.5298 -2.1713 -3.3454
  321MOL0     H43319   7.376  12.725   8.710 -0.5198  2.1702  3.1589
  321MOL0     H43320   7.606  12.627   8.728 -0.6642 -0.3721  0.0009
  321MOL0     H43321   9.077  11.647   8.096 -1.1178  0.7512  1.7848
  321MOL0     H43322   9.213  11.463   8.187 -0.6589  3.2688 -2.6739
  321MOL0     H43323   9.080  10.987   8.578  1.4096  1.3364  1.2535
  321MOL0     H43324   9.231  10.810   8.643 -0.4536 -1.8885 -0.4723
  321MOL0     H43325   9.415  10.613   8.281 -0.5008 -0.9085  0.7488
  321MOL0     H43326   9.575  10.676   8.346  0.5643 -0.9172  0.3853
  321MOL0     H43327   9.433  10.426   8.428 -0.8339  1.1576  1.5705
  321MOL0     H43328   9.557  10.489   8.520 -5.1009  0.2587  1.0055
  321MOL0     H43329   9.718  10.486   8.308  2.5801 -1.5170  1.1941
  321MOL0     H43330   9.582  10.385   8.228 -1.2362 -3.3513  0.9982
  321MOL0     H43331   9.606  10.215   8.349 -2.3748  2.9262  0.7668
  321MOL0     H43332   9.704  10.293   8.478 -0.1383  0.5270 -0.2222
  321MOL0     H43333   9.997  10.159   8.223 -1.8141 -1.7696  1.6926
  321MOL0     H43334   9.449  10.852   8.265 -0.1068  1.3010  0.3555
  321MOL0     H43335   9.290  11.031   8.209  3.1954 -3.4591 -1.2055
  322MOL0     O43336   0.991   9.879   8.639 -1.2768  0.2119 -0.0064
  322MOL0     C43337   1.036   9.872   8.756  0.4619 -0.2020  0.5093
  322MOL0     O43338   1.153   9.814   8.795 -0.0279  0.6489 -0.3378
  322MOL0     C43339   1.225   9.711   8.729  0.2090  0.3611 -0.3159
  322MOL0     C43340   1.233   9.708   8.589  0.0309 -0.0035 -0.5646
  322MOL0     C43341   1.309   9.602   8.537 -0.2083  0.2406  0.1483
  322MOL0     C43342   1.388   9.517   8.615  0.1185  0.3617 -0.1485
  322MOL0     O43343   1.473   9.422   8.551  0.6921  0.1659 -0.1516
  322MOL0     C43344   1.558   9.334   8.622 -0.8014  0.2286  0.6341
  322MOL0     C43345   1.651   9.266   8.527  0.0731 -1.0549 -0.1378
  322MOL0     C43346   1.586   9.175   8.424  0.1537  0.0199 -0.3100
  322MOL0     C43347   1.686   9.105   8.340 -0.3613 -1.0394  0.0528
  322MOL0     C43348   1.614   9.015   8.238 -1.1001  0.0194  0.5408
  322MOL0     C43349   1.717   8.912   8.189 -0.3146 -0.6015  0.6351
  322MOL0     C43350   1.658   8.807   8.089 -0.0855  0.1538  0.1507
  322MOL0     C43351   1.764   8.691   8.066  0.1122 -0.5216 -0.5300
  322MOL0     N43352   1.856   8.725   7.960 -0.9333 -0.7359  0.2354
  322MOL0     C43353   1.994   8.761   7.976  0.5013 -0.4649  0.3331
  322MOL0     C43354   2.030   8.778   7.847 -0.8604 -0.1611  0.1761
  322MOL0     C43355   2.163   8.825   7.811  0.0813  0.6846  0.1636
  322MOL0     C43356   2.267   8.724   7.851 -0.1117 -0.0101 -0.7785
  322MOL0     C43357   2.411   8.728   7.785  0.2389 -0.5674  0.6178
  322MOL0     C43358   2.477   8.604   7.816  0.4049  0.2492 -1.0132
  322MOL0     O43359   2.482   8.561   7.951 -0.5684 -0.4316  0.4685
  322MOL0     C43360   2.505   8.426   7.967 -0.4464 -0.1806  0.2408
  322MOL0     C43361   2.463   8.371   8.090  0.2853 -0.0137 -1.5084
  322MOL0     C43362   2.481   8.235   8.122 -0.3788 -0.6703 -0.3033
  322MOL0     C43363   2.439   8.178   8.256 -0.0911  0.1167  1.1292
  322MOL0     C43364   2.549   8.145   8.030 -0.8592 -0.7245  0.4552
  322MOL0     C43365   2.585   8.005   8.057 -0.1884 -0.1162  0.2166
  322MOL0     O43366   2.589   7.945   8.180 -0.1215  0.1230  0.0842
  322MOL0     C43367   2.680   7.846   8.191 -0.3537  1.0231  0.3840
  322MOL0     C43368   2.817   7.857   8.179  0.7517  0.0422 -0.8700
  322MOL0     C43369   2.908   7.745   8.183 -0.7049 -0.0880  0.4292
  322MOL0     C43370   2.856   7.612   8.205  0.2131  0.1279 -0.9393
  322MOL0     O43371   2.943   7.507   8.203  0.3094 -0.0565  0.4628
  322MOL0     C43372   2.900   7.376   8.243 -0.4850  0.7610  1.0950
  322MOL0     C43373   3.025   7.287   8.247  0.4992  0.6519 -0.2479
  322MOL0     C43374   2.983   7.141   8.273 -0.5157  1.1485  0.9179
  322MOL0     C43375   3.104   7.047   8.284 -0.7716  1.3442 -0.4035
  322MOL0     C43376   3.046   6.913   8.315  0.6408  0.9322  0.5767
  322MOL0     C43377   3.137   6.796   8.366  1.0070 -0.0133  0.5590
  322MOL0     C43378   3.232   6.849   8.484 -0.1000 -0.6589  0.1350
  322MOL0     C43379   3.284   6.728   8.542 -0.5129  0.8144  0.3169
  322MOL0    Cl43380   3.338   6.752   8.711 -0.2284 -0.0556  0.3144
  322MOL0     C43381   2.723   7.598   8.225  0.2542  0.6649  1.1534
  322MOL0     C43382   2.638   7.706   8.207 -0.2148 -0.0005  0.6654
  322MOL0     O43383   2.593   7.944   7.953  0.2406  1.1537 -0.8372
  322MOL0     C43384   2.582   8.198   7.909  0.4067  0.8924 -0.3678
  322MOL0     C43385   2.566   8.338   7.881 -1.5109  0.1751  0.0572
  322MOL0     N43386   1.933   8.744   7.759 -0.1353  0.2843  0.2589
  322MOL0     N43387   1.835   8.699   7.825 -0.5707  0.4935  0.2367
  322MOL0     C43388   1.383   9.532   8.751 -1.2870 -0.7938 -0.2610
  322MOL0     C43389   1.297   9.622   8.812 -0.0198  0.2640  0.8244
  322MOL0     C43390   0.946   9.929   8.855 -0.2385 -0.2393  0.5669
  322MOL0     C43391   0.978  10.020   8.950 -0.2490 -0.5924  0.1431
  322MOL0     C43392   0.872  10.082   9.030 -0.5088  0.1897  0.2343
  322MOL0     C43393   0.738  10.067   9.006 -0.0557  0.3291 -0.4899
  322MOL0     O43394   0.653  10.135   9.088 -1.2662 -0.0094 -0.8390
  322MOL0     C43395   0.517  10.137   9.040 -0.2679 -0.2973  0.2470
  322MOL0     C43396   0.432  10.244   9.114  0.3578  0.1914 -0.4241
  322MOL0     C43397   0.362  10.186   9.235  0.2909  0.1768 -0.7473
  322MOL0     C43398   0.289  10.311   9.315  0.2519  0.0269  0.5450
  322MOL0     C43399   0.206  10.270   9.424  0.0887  0.0369 -0.0018
  322MOL0     C43400   0.157  10.242   9.536  0.2630  0.2722 -0.2149
  322MOL0     C43401   0.706   9.990   8.903 -0.0832  0.0531 -0.1997
  322MOL0     C43402   0.806   9.922   8.831 -0.8532 -0.0157  0.2891
  322MOL0     H43403   1.179   9.781   8.530  1.2077 -0.3528 -2.1652
  322MOL0     H43404   1.313   9.581   8.430 -1.3104 -0.4278  0.2231
  322MOL0     H43405   1.631   9.396   8.675  0.6774 -1.0757  0.2107
  322MOL0     H43406   1.506   9.267   8.692 -3.0074 -0.1781 -1.2666
  322MOL0     H43407   1.710   9.341   8.472 -1.6635 -1.0023 -2.0633
  322MOL0     H43408   1.715   9.210   8.596 -0.9499 -1.5717  0.4048
  322MOL0     H43409   1.519   9.107   8.478  0.3150  0.3672  0.3343
  322MOL0     H43410   1.533   9.244   8.357  2.6362  2.8902  0.4532
  322MOL0     H43411   1.755   9.172   8.288 -1.8549  1.0886  0.6863
  322MOL0     H43412   1.736   9.032   8.404  1.4830 -1.9579 -2.2910
  322MOL0     H43413   1.518   8.980   8.277  0.4394 -3.9201  1.2117
  322MOL0     H43414   1.590   9.078   8.151 -1.0500  0.7289  1.0275
  322MOL0     H43415   1.807   8.958   8.146  0.2015 -1.1803  1.0770
  322MOL0     H43416   1.757   8.859   8.275  0.7722 -0.9730 -0.0687
  322MOL0     H43417   1.569   8.769   8.140  0.6080 -0.5617  0.8526
  322MOL0     H43418   1.635   8.862   7.997  2.1992  1.7342  0.4367
  322MOL0     H43419   1.692   8.618   8.028 -1.8007  1.8614 -1.7694
  322MOL0     H43420   1.815   8.661   8.158  3.7344  0.6617 -1.9644
  322MOL0     H43421   2.043   8.772   8.072 -2.3075  3.1649  1.6060
  322MOL0     H43422   2.169   8.850   7.705  4.2209  1.5296  0.4242
  322MOL0     H43423   2.175   8.921   7.862  1.0187 -0.2420  1.7498
  322MOL0     H43424   2.235   8.621   7.835  0.5413 -0.6031  1.3960
  322MOL0     H43425   2.288   8.741   7.957 -0.0037  0.4118 -0.8676
  322MOL0     H43426   2.472   8.811   7.821  1.1268 -0.3140 -1.3613
  322MOL0     H43427   2.394   8.740   7.678 -2.1385 -1.5911  0.8187
  322MOL0     H43428   2.582   8.612   7.785 -0.1202  2.5847 -2.4480
  322MOL0     H43429   2.432   8.529   7.750 -0.3070  1.9004 -2.4975
  322MOL0     H43430   2.415   8.431   8.165  0.2939 -0.5879 -1.0370
  322MOL0     H43431   2.356   8.235   8.298 -0.0566  1.5204 -0.5557
  322MOL0     H43432   2.405   8.074   8.251  0.9931 -0.7399  6.4453
  322MOL0     H43433   2.519   8.166   8.329  0.5150  1.9248  0.8224
  322MOL0     H43434   2.859   7.957   8.177 -1.4279  1.0871  0.7875
  322MOL0     H43435   3.014   7.747   8.162 -0.7167 -5.3205 -1.8305
  322MOL0     H43436   2.858   7.378   8.344 -0.2472  4.1847  1.2425
  322MOL0     H43437   2.831   7.330   8.172  2.3212 -3.4193  0.6522
  322MOL0     H43438   3.082   7.296   8.154 -0.0006 -0.5055 -0.6878
  322MOL0     H43439   3.107   7.311   8.316  3.7006 -2.3339 -2.5932
  322MOL0     H43440   2.915   7.109   8.193 -1.0617  0.1062  1.7689
  322MOL0     H43441   2.919   7.130   8.362 -1.9613  1.6974 -0.0151
  322MOL0     H43442   3.164   7.041   8.193  1.3901 -0.1838  1.0104
  322MOL0     H43443   3.178   7.092   8.350 -1.8759  4.2844 -1.0395
  322MOL0     H43444   2.995   6.879   8.225  2.9100  3.1881 -1.7320
  322MOL0     H43445   2.962   6.915   8.386 -0.2060  0.5926 -0.4035
  322MOL0     H43446   3.083   6.705   8.392 -2.9287  0.5717 -4.0580
  322MOL0     H43447   3.203   6.764   8.284  1.1347  1.1343  0.1818
  322MOL0     H43448   3.175   6.911   8.553 -3.3565 -2.7844 -0.4258
  322MOL0     H43449   3.311   6.916   8.447  1.8894 -1.6199  2.3884
  322MOL0     H43450   3.371   6.698   8.482  0.3273  4.3593 -0.4768
  322MOL0     H43451   3.215   6.644   8.545 -0.6195  0.9142  2.3505
  322MOL0     H43452   2.672   7.504   8.243  0.7982  0.6768  2.9072
  322MOL0     H43453   2.532   7.689   8.226 -0.0074 -2.1990  0.1428
  322MOL0     H43454   2.624   8.145   7.824  1.0508 -0.3660  0.7061
  322MOL0     H43455   2.594   8.396   7.794 -1.4002  0.8591  0.5382
  322MOL0     H43456   1.457   9.481   8.812 -1.5503  1.1913  1.8462
  322MOL0     H43457   1.294   9.635   8.920  0.6146  1.0389  0.7624
  322MOL0     H43458   1.082  10.036   8.974 -0.0212 -2.7106  0.7768
  322MOL0     H43459   0.907  10.151   9.106 -0.5362 -0.6726  1.0391
  322MOL0     H43460   0.515  10.156   8.932  0.7670  0.6731  0.3799
  322MOL0     H43461   0.472  10.038   9.052 -1.7418  0.3374  0.1297
  322MOL0     H43462   0.362  10.286   9.041 -0.7324  1.0272  1.0592
  322MOL0     H43463   0.498  10.328   9.138  2.3411 -1.6333  0.8737
  322MOL0     H43464   0.438  10.144   9.301 -0.4239  0.4544  0.2826
  322MOL0     H43465   0.286  10.112   9.208  0.4972 -1.7948  3.2468
  322MOL0     H43466   0.234  10.375   9.246 -0.1684  0.9679  1.7358
  322MOL0     H43467   0.365  10.378   9.356  1.1510  1.1348 -2.6245
  322MOL0     H43468   0.120  10.211   9.632 -0.4821 -0.7858 -0.8315
  322MOL0     H43469   0.604   9.970   8.872  0.2343 -2.8235  0.3439
  322MOL0     H43470   0.782   9.856   8.748 -3.6041 -2.0573  2.4965
  323MOL0     O43471   5.438   9.894   1.050  0.5029 -0.0835  0.1371
  323MOL0     C43472   5.484   9.967   0.964  0.3744 -0.1121 -0.4383
  323MOL0     O43473   5.407  10.019   0.865  0.1407 -0.2495 -0.2421
  323MOL0     C43474   5.269   9.998   0.877 -0.3375  0.3942 -0.5233
  323MOL0     C43475   5.190  10.040   0.985 -0.6867  0.4814 -0.0655
  323MOL0     C43476   5.051  10.020   0.989  1.1411  0.3532  1.0544
  323MOL0     C43477   4.995   9.955   0.882 -1.0111 -0.2767  0.1944
  323MOL0     O43478   4.874   9.912   0.902  0.3159 -0.7093 -0.6466
  323MOL0     C43479   4.777   9.927   0.796 -0.7611 -1.2091 -0.3026
  323MOL0     C43480   4.721  10.067   0.810  0.3951 -0.2761 -0.9326
  323MOL0     C43481   4.644  10.098   0.941  0.0122  0.0428  0.4267
  323MOL0     C43482   4.586  10.240   0.937  0.4083  0.5907  0.1047
  323MOL0     C43483   4.526  10.282   1.078  0.0721 -0.9447  0.1886
  323MOL0     C43484   4.547  10.431   1.120  1.1448 -0.2011 -0.4681
  323MOL0     C43485   4.437  10.513   1.048  0.1265 -0.0132  0.5218
  323MOL0     C43486   4.427  10.666   1.068  0.1107  0.0932  0.3592
  323MOL0     N43487   4.305  10.735   1.012 -0.4742  0.3230 -0.0833
  323MOL0     C43488   4.180  10.720   1.053  0.1671  0.2434  0.9992
  323MOL0     C43489   4.107  10.753   0.944  1.0259  0.5880 -0.9007
  323MOL0     C43490   3.957  10.748   0.943 -0.1584  0.5188  0.5062
  323MOL0     C43491   3.902  10.799   1.077 -0.6168  0.2944  0.7215
  323MOL0     C43492   3.762  10.756   1.108  0.2274 -0.6749  0.9300
  323MOL0     C43493   3.704  10.825   1.227 -0.8878  0.5855  0.2647
  323MOL0     O43494   3.572  10.783   1.230 -0.0092  0.9487 -0.0168
  323MOL0     C43495   3.500  10.844   1.328  0.5901  0.2731 -0.4683
  323MOL0     C43496   3.382  10.774   1.355 -0.1060  0.8899  0.0189
  323MOL0     C43497   3.301  10.806   1.451  0.4138 -0.2842 -0.8618
  323MOL0     C43498   3.167  10.738   1.461  0.0193 -0.8966  0.1356
  323MOL0     C43499   3.335  10.913   1.538  0.0422 -0.5379  0.6091
  323MOL0     C43500   3.256  10.956   1.657 -0.0248 -0.1783 -0.0224
  323MOL0     O43501   3.279  11.086   1.695  0.7961 -0.5606 -0.3113
  323MOL0     C43502   3.222  11.140   1.807 -0.9340  0.0633 -1.4389
  323MOL0     C43503   3.097  11.105   1.856 -0.5546  0.6723 -0.5652
  323MOL0     C43504   3.053  11.148   1.984  0.9524 -0.4097  0.1325
  323MOL0     C43505   3.133  11.230   2.067 -0.5322 -0.3127 -0.0734
  323MOL0     O43506   3.094  11.295   2.186 -0.3899 -0.3520  1.0207
  323MOL0     C43507   2.964  11.266   2.225  0.3963  0.7403  0.5343
  323MOL0     C43508   2.854  11.361   2.156 -0.2332  0.2265  0.1572
  323MOL0     C43509   2.813  11.460   2.274  0.3828 -0.2572  0.2832
  323MOL0     C43510   2.708  11.403   2.369 -0.4376 -0.1726  0.0379
  323MOL0     C43511   2.663  11.500   2.470 -0.4044 -0.1651 -0.1342
  323MOL0     C43512   2.563  11.421   2.555 -0.6868  0.3006  0.2384
  323MOL0     C43513   2.501  11.508   2.657 -0.0291 -0.4162  0.1278
  323MOL0     C43514   2.364  11.459   2.720  0.0462  0.1353  1.1282
  323MOL0    Cl43515   2.237  11.456   2.581  0.5628 -0.1050  0.1545
  323MOL0     C43516   3.254  11.276   2.012  0.1287  0.1325  0.3688
  323MOL0     C43517   3.297  11.234   1.881 -0.2016  0.2415 -1.3923
  323MOL0     O43518   3.185  10.869   1.710 -0.0177 -0.9840  0.6322
  323MOL0     C43519   3.442  10.996   1.496 -0.4143 -0.4034  0.2646
  323MOL0     C43520   3.532  10.954   1.400  0.7604 -0.1106 -1.3425
  323MOL0     N43521   4.193  10.799   0.843  0.7002 -0.4302 -0.1992
  323MOL0     N43522   4.310  10.787   0.894  0.4572 -0.2825  0.6674
  323MOL0     C43523   5.070   9.932   0.766 -0.6659 -0.0981  0.1779
  323MOL0     C43524   5.207   9.942   0.772 -0.7451  1.2964  0.2396
  323MOL0     C43525   5.621  10.016   0.967  0.4620  0.7437 -0.5559
  323MOL0     C43526   5.683  10.071   0.854 -0.2900 -0.3272  0.6799
  323MOL0     C43527   5.820  10.114   0.855 -0.1210  1.1534  0.0883
  323MOL0     C43528   5.892  10.107   0.976  0.8233 -0.2299 -0.6299
  323MOL0     O43529   6.025  10.125   0.993  0.2058 -0.1547 -0.6378
  323MOL0     C43530   6.060  10.259   0.966  0.4033  0.6618  1.0327
  323MOL0     C43531   6.047  10.338   1.095 -0.3368  0.4621 -0.6707
  323MOL0     C43532   6.012  10.487   1.084  0.2644  0.5122 -0.3623
  323MOL0     C43533   6.064  10.545   1.222 -0.3311  0.1338  0.7345
  323MOL0     C43534   6.215  10.578   1.215  0.9786  0.2485  0.1665
  323MOL0     C43535   6.331  10.612   1.200 -0.0073 -0.0314  0.3761
  323MOL0     C43536   5.828  10.062   1.091  0.0336  0.1509  0.2118
  323MOL0     C43537   5.698  10.019   1.084  0.4177 -0.1936  0.7835
  323MOL0     H43538   5.248  10.090   1.062  1.3230  1.4618 -2.0812
  323MOL0     H43539   4.990  10.048   1.074  1.6003 -3.9791  3.1134
  323MOL0     H43540   4.826   9.916   0.699 -1.0348 -0.1116 -0.5856
  323MOL0     H43541   4.689   9.862   0.803 -0.8492 -1.3211 -1.9140
  323MOL0     H43542   4.807  10.134   0.806  0.0270  0.7891  3.4376
  323MOL0     H43543   4.663  10.079   0.719 -1.6872 -2.2445  0.0259
  323MOL0     H43544   4.569  10.024   0.968  0.2899  0.3568  2.1950
  323MOL0     H43545   4.704  10.089   1.031 -1.4826 -0.4923  1.4041
  323MOL0     H43546   4.660  10.314   0.907  0.3452  1.8312  2.7081
  323MOL0     H43547   4.503  10.237   0.866 -1.2060 -0.3609  1.9189
  323MOL0     H43548   4.423  10.248   1.092  0.3666 -1.6621  0.6513
  323MOL0     H43549   4.572  10.214   1.149  0.1804 -3.3586 -2.0163
  323MOL0     H43550   4.536  10.449   1.227 -1.5112  2.7913 -1.0850
  323MOL0     H43551   4.649  10.463   1.094  0.5531 -0.0591 -2.8189
  323MOL0     H43552   4.456  10.505   0.941  0.0374  1.2377  0.3928
  323MOL0     H43553   4.339  10.477   1.081  0.1140 -1.4685 -1.0283
  323MOL0     H43554   4.499  10.722   1.008 -0.9291  1.8553  0.6686
  323MOL0     H43555   4.438  10.703   1.170  0.0115  1.7625 -0.2040
  323MOL0     H43556   4.141  10.675   1.144 -2.1351 -3.1644 -1.4301
  323MOL0     H43557   3.916  10.812   0.864 -0.3104  1.2960  1.1977
  323MOL0     H43558   3.925  10.645   0.926 -2.0845  1.3682 -1.5532
  323MOL0     H43559   3.914  10.908   1.067  2.9534 -0.1165 -1.1433
  323MOL0     H43560   3.962  10.779   1.166 -0.5580  0.2392  0.6694
  323MOL0     H43561   3.748  10.649   1.124  0.8970 -1.0583 -0.8653
  323MOL0     H43562   3.695  10.781   1.025 -0.8479  0.7264  2.1691
  323MOL0     H43563   3.724  10.931   1.214  2.3598 -0.1672 -2.4083
  323MOL0     H43564   3.751  10.792   1.321 -0.4551 -1.9906 -0.7512
  323MOL0     H43565   3.353  10.689   1.295 -1.4947  0.9437  0.5826
  323MOL0     H43566   3.091  10.811   1.487 -0.7436 -2.2016  1.7020
  323MOL0     H43567   3.132  10.695   1.366  1.7712 -1.7737 -0.1716
  323MOL0     H43568   3.166  10.655   1.532  2.5393  1.5432  3.3017
  323MOL0     H43569   3.036  11.026   1.814  2.7814 -1.6318 -1.4837
  323MOL0     H43570   2.957  11.107   2.012  2.2332 -3.2677  0.7135
  323MOL0     H43571   2.932  11.167   2.190  1.9185  1.7150 -4.4847
  323MOL0     H43572   2.954  11.253   2.333 -2.4309 -0.8077  0.2041
  323MOL0     H43573   2.900  11.418   2.075  2.0301  0.6795  1.6568
  323MOL0     H43574   2.763  11.312   2.121  0.0824 -1.9042  2.0486
  323MOL0     H43575   2.766  11.550   2.232 -0.6135 -1.3841 -1.1088
  323MOL0     H43576   2.910  11.481   2.320  1.2446  0.2830 -1.6646
  323MOL0     H43577   2.624  11.373   2.306  0.6834 -1.9906 -0.7058
  323MOL0     H43578   2.748  11.312   2.416 -1.4612  0.3412  1.9924
  323MOL0     H43579   2.622  11.593   2.432  1.7675  0.7254 -0.4677
  323MOL0     H43580   2.745  11.532   2.536 -1.2603 -0.1783  0.9648
  323MOL0     H43581   2.481  11.393   2.488 -1.0267  0.4978  0.5753
  323MOL0     H43582   2.615  11.333   2.592  1.8280  2.0974  1.2322
  323MOL0     H43583   2.486  11.605   2.608 -2.3015 -2.0196 -2.6082
  323MOL0     H43584   2.576  11.520   2.737  2.0270 -1.1899 -1.5880
  323MOL0     H43585   2.322  11.519   2.801 -2.0234 -2.5076  2.1856
  323MOL0     H43586   2.373  11.357   2.759 -2.2763  0.2316  2.0647
  323MOL0     H43587   3.312  11.346   2.071 -1.7826  1.1430  1.1264
  323MOL0     H43588   3.396  11.254   1.842  0.5146 -0.9122 -0.2760
  323MOL0     H43589   3.476  11.087   1.546  0.7851 -1.4126  1.3481
  323MOL0     H43590   3.625  11.008   1.388  0.3944  1.4711  1.8000
  323MOL0     H43591   5.021   9.895   0.677 -2.9418  0.0877  1.2784
  323MOL0     H43592   5.269   9.905   0.692 -2.5056  2.0302 -1.5473
  323MOL0     H43593   5.630  10.086   0.760 -0.2431  3.4306  1.0990
  323MOL0     H43594   5.868  10.136   0.760 -0.7054 -1.7801 -1.0026
  323MOL0     H43595   6.167  10.259   0.941  0.6193 -0.6011  1.8931
  323MOL0     H43596   5.989  10.304   0.897  0.1635  2.4235  2.3441
  323MOL0     H43597   6.142  10.326   1.147 -1.0188 -1.8676  0.1413
  323MOL0     H43598   5.971  10.301   1.164 -1.7849 -0.2841 -2.5549
  323MOL0     H43599   5.902  10.491   1.081  0.2979  1.5486 -0.6394
  323MOL0     H43600   6.048  10.547   1.001 -0.1404  0.4216 -0.6066
  323MOL0     H43601   6.039  10.485   1.309 -0.9160  0.3905  0.7457
  323MOL0     H43602   6.010  10.639   1.236 -0.6518  0.2413 -1.0193
  323MOL0     H43603   6.430  10.632   1.163 -0.4014 -1.8382 -1.9319
  323MOL0     H43604   5.887  10.058   1.182  1.8338  1.8671 -0.7978
  323MOL0     H43605   5.660   9.975   1.176 -0.8950 -2.6326 -0.7736
  324MOL0     O43606   4.611   6.552   6.880 -0.2000 -0.1717  1.2005
  324MOL0     C43607   4.575   6.568   7.001  0.3715 -0.0853 -0.7491
  324MOL0     O43608   4.448   6.580   7.044 -0.1527 -0.1980 -0.0669
  324MOL0     C43609   4.335   6.605   6.962 -0.0383  0.3483 -0.2144
  324MOL0     C43610   4.340   6.634   6.821 -1.0300  0.7485  0.7543
  324MOL0     C43611   4.225   6.666   6.737  0.4999 -0.3695  0.1816
  324MOL0     C43612   4.104   6.659   6.797  0.4441 -0.1066 -0.5920
  324MOL0     O43613   3.979   6.679   6.731  0.4357 -0.0451  0.2142
  324MOL0     C43614   3.968   6.692   6.591 -0.1320 -0.2033  1.3430
  324MOL0     C43615   3.815   6.700   6.571 -0.8958 -0.8178 -0.5612
  324MOL0     C43616   3.788   6.732   6.419  0.6458  0.3336  0.4573
  324MOL0     C43617   3.639   6.764   6.383 -0.3759  0.0086  0.2557
  324MOL0     C43618   3.615   6.740   6.232  0.0896  0.3614 -0.5672
  324MOL0     C43619   3.468   6.753   6.185 -0.7549  0.3580  0.0617
  324MOL0     C43620   3.467   6.747   6.025  0.4885 -0.8686 -1.6523
  324MOL0     C43621   3.320   6.727   5.960  0.1369 -1.2023 -0.3170
  324MOL0     N43622   3.209   6.818   5.981  0.4310 -0.1125 -0.1883
  324MOL0     C43623   3.170   6.922   5.901  0.9336 -0.8899  0.2077
  324MOL0     C43624   3.049   6.966   5.947  0.0863 -0.1972 -0.2315
  324MOL0     C43625   2.941   7.050   5.886  0.3307  0.1052  0.5578
  324MOL0     C43626   3.008   7.159   5.801 -0.3987 -0.4754 -0.4771
  324MOL0     C43627   2.909   7.247   5.729  0.2890 -0.0784  0.4204
  324MOL0     C43628   2.955   7.392   5.729 -0.1963 -0.2411 -0.6248
  324MOL0     O43629   2.879   7.478   5.649  0.1295 -0.8378  1.0526
  324MOL0     C43630   2.742   7.489   5.682 -0.3380  0.5922 -0.7178
  324MOL0     C43631   2.669   7.456   5.797  0.3922 -0.6086 -0.1848
  324MOL0     C43632   2.527   7.483   5.816 -0.3838  0.4534  0.0692
  324MOL0     C43633   2.456   7.432   5.943  0.6599  0.1103 -0.3857
  324MOL0     C43634   2.457   7.548   5.714 -0.8439  0.1045  0.1584
  324MOL0     C43635   2.312   7.575   5.708 -0.1665  0.5382 -0.2576
  324MOL0     O43636   2.245   7.561   5.598  0.3211 -0.5761  0.1532
  324MOL0     C43637   2.107   7.580   5.603 -0.2157 -0.6091 -0.6698
  324MOL0     C43638   2.017   7.523   5.698 -0.0174  0.6147 -0.3393
  324MOL0     C43639   1.877   7.544   5.701 -0.9700 -1.0151  0.6599
  324MOL0     C43640   1.817   7.624   5.595  0.3869  0.2384  0.2123
  324MOL0     O43641   1.684   7.661   5.596  0.0724 -0.9658 -0.0640
  324MOL0     C43642   1.586   7.555   5.621  0.0604 -0.4320 -0.0909
  324MOL0     C43643   1.506   7.603   5.742 -0.0017  0.0887 -0.3172
  324MOL0     C43644   1.426   7.738   5.733 -0.0680  0.4221 -0.0212
  324MOL0     C43645   1.318   7.761   5.843 -0.4061  0.4905  0.2129
  324MOL0     C43646   1.220   7.862   5.783 -0.5008 -0.5533  1.2085
  324MOL0     C43647   1.117   7.913   5.892 -1.2910  0.3104  0.1365
  324MOL0     C43648   1.180   7.969   6.023 -0.5859 -0.2757 -0.8575
  324MOL0     C43649   1.078   8.033   6.115  0.8587  0.3692 -0.3930
  324MOL0    Cl43650   0.935   7.926   6.138 -0.4060  0.2725 -0.0914
  324MOL0     C43651   1.895   7.676   5.488 -0.5130 -0.9954  0.4252
  324MOL0     C43652   2.044   7.654   5.493 -1.2966  0.8477 -0.1271
  324MOL0     O43653   2.271   7.627   5.807  0.0563  0.3189 -0.4226
  324MOL0     C43654   2.527   7.568   5.588 -0.2155 -0.6897  0.2677
  324MOL0     C43655   2.663   7.538   5.578  1.1900  0.0699  0.5676
  324MOL0     N43656   3.023   6.889   6.064 -0.3917 -0.2454 -0.0070
  324MOL0     N43657   3.121   6.803   6.081  0.6985  0.1202  0.7584
  324MOL0     C43658   4.096   6.638   6.935 -0.4688 -0.5895 -0.5456
  324MOL0     C43659   4.206   6.606   7.015 -0.1639  0.2968  0.1319
  324MOL0     C43660   4.677   6.582   7.109  0.1177 -0.7628  0.3181
  324MOL0     C43661   4.799   6.523   7.080 -0.7829 -1.5763 -0.4318
  324MOL0     C43662   4.895   6.526   7.179 -0.6390 -0.0123  0.7984
  324MOL0     C43663   4.878   6.567   7.313 -0.1373  0.8874  0.4071
  324MOL0     O43664   4.990   6.561   7.398  0.2537 -0.9686 -0.0649
  324MOL0     C43665   4.995   6.669   7.501 -0.2694  0.0675 -0.1858
  324MOL0     C43666   5.139   6.653   7.527 -0.4285  0.0682  0.1865
  324MOL0     C43667   5.193   6.763   7.625  0.9110  0.5706 -0.3863
  324MOL0     C43668   5.333   6.722   7.676 -0.2022 -0.4542  0.5841
  324MOL0     C43669   5.437   6.747   7.574 -0.1895 -0.0454  0.2248
  324MOL0     C43670   5.525   6.791   7.502 -0.1304  0.7867  0.0191
  324MOL0     C43671   4.748   6.617   7.336 -0.1251 -0.2808 -1.0464
  324MOL0     C43672   4.654   6.632   7.236  0.3413 -0.3114 -0.3416
  324MOL0     H43673   4.433   6.641   6.766  0.6606 -1.4469  3.1040
  324MOL0     H43674   4.240   6.690   6.632  1.4473  1.1385  0.6245
  324MOL0     H43675   4.016   6.776   6.539 -2.8781 -0.1893 -1.4583
  324MOL0     H43676   4.018   6.606   6.545  0.5158  0.2785  1.1149
  324MOL0     H43677   3.768   6.604   6.595 -1.3980 -0.4392  0.0017
  324MOL0     H43678   3.775   6.780   6.635 -0.4189 -0.9246 -0.1175
  324MOL0     H43679   3.833   6.828   6.393 -0.1596  0.0773 -2.1959
  324MOL0     H43680   3.830   6.657   6.351 -3.9745 -1.0407 -1.2665
  324MOL0     H43681   3.576   6.702   6.448 -1.8852  1.6846  0.4737
  324MOL0     H43682   3.608   6.865   6.413 -2.1084  0.3306 -2.2865
  324MOL0     H43683   3.675   6.817   6.182  2.3092 -0.7532  0.2069
  324MOL0     H43684   3.648   6.638   6.208  0.1200 -0.5507  2.7649
  324MOL0     H43685   3.423   6.660   6.220  0.9949 -0.9046 -0.9020
  324MOL0     H43686   3.416   6.838   6.231  2.1969  3.6941 -2.1331
  324MOL0     H43687   3.506   6.835   5.973  1.8311 -0.3862  0.1053
  324MOL0     H43688   3.524   6.661   5.990 -0.3101 -2.1507  0.0600
  324MOL0     H43689   3.289   6.633   6.006 -0.7206  0.2317  2.2472
  324MOL0     H43690   3.326   6.719   5.851 -0.5857  1.2310 -0.6078
  324MOL0     H43691   3.224   6.961   5.816  1.4955  3.1564  2.1799
  324MOL0     H43692   2.873   6.988   5.827  0.6479 -0.2727  0.5899
  324MOL0     H43693   2.886   7.100   5.966  0.1666 -1.3136  1.3564
  324MOL0     H43694   3.065   7.103   5.726  0.0909 -1.8456  0.8703
  324MOL0     H43695   3.080   7.215   5.862 -2.0196  0.4521  0.6645
  324MOL0     H43696   2.813   7.237   5.779 -1.0420  0.6793 -1.8536
  324MOL0     H43697   2.901   7.233   5.621  1.1320 -0.0685  0.3465
  324MOL0     H43698   3.060   7.398   5.699 -0.1840 -0.1210 -0.5570
  324MOL0     H43699   2.957   7.420   5.834  1.0858  0.9714 -0.9374
  324MOL0     H43700   2.713   7.397   5.877 -0.6036 -4.1470 -2.0140
  324MOL0     H43701   2.526   7.399   6.020  0.0827 -1.3408 -0.4493
  324MOL0     H43702   2.399   7.515   5.985  2.1696  1.6021 -1.1807
  324MOL0     H43703   2.399   7.341   5.919  0.2447 -0.3811  2.2286
  324MOL0     H43704   2.060   7.475   5.785 -1.3486  2.5408  1.5093
  324MOL0     H43705   1.815   7.521   5.787 -3.0699  0.2985 -0.4202
  324MOL0     H43706   1.527   7.546   5.529  1.2697  1.6871 -1.1348
  324MOL0     H43707   1.628   7.455   5.632 -0.2371 -0.2920  3.1352
  324MOL0     H43708   1.435   7.527   5.776  0.4772  0.0892  0.7136
  324MOL0     H43709   1.581   7.615   5.821 -0.1173 -0.8611 -0.0457
  324MOL0     H43710   1.373   7.749   5.638 -0.3763  3.4310  0.3931
  324MOL0     H43711   1.491   7.826   5.732 -0.3819  0.6746  1.0193
  324MOL0     H43712   1.264   7.670   5.871 -2.0189  0.8057 -1.5814
  324MOL0     H43713   1.369   7.805   5.929 -0.5290 -0.9500  1.0431
  324MOL0     H43714   1.160   7.815   5.704  1.0956 -1.3636  0.4332
  324MOL0     H43715   1.268   7.950   5.741 -2.4185  0.4613  1.0298
  324MOL0     H43716   1.061   7.992   5.841  0.5302  1.8182  0.3918
  324MOL0     H43717   1.042   7.838   5.919 -2.2023  0.2766 -2.1894
  324MOL0     H43718   1.256   8.040   5.991 -0.3394 -0.0910  0.0991
  324MOL0     H43719   1.227   7.890   6.082  1.8737  2.3776  1.0185
  324MOL0     H43720   1.033   8.123   6.071  2.2814  1.2950 -0.0069
  324MOL0     H43721   1.129   8.052   6.210  0.0409  2.2435 -0.2692
  324MOL0     H43722   1.830   7.718   5.412 -0.8457 -1.2470  0.5660
  324MOL0     H43723   2.115   7.683   5.416 -0.2979 -2.7227 -0.7805
  324MOL0     H43724   2.484   7.621   5.504  1.0083 -2.3593 -1.4910
  324MOL0     H43725   2.704   7.558   5.479  1.2025 -0.6256  0.4280
  324MOL0     H43726   3.999   6.648   6.983 -1.2895  0.1568 -2.2505
  324MOL0     H43727   4.188   6.593   7.121 -0.5740  2.3922  0.3685
  324MOL0     H43728   4.831   6.483   6.984 -0.0772 -1.9701 -0.0394
  324MOL0     H43729   4.991   6.478   7.162  0.1584  1.7065  0.1774
  324MOL0     H43730   4.973   6.771   7.466 -2.0304 -0.1846  0.1140
  324MOL0     H43731   4.939   6.651   7.593 -1.3900  1.8764 -0.4533
  324MOL0     H43732   5.202   6.640   7.439 -0.0787 -0.7127  0.5442
  324MOL0     H43733   5.154   6.553   7.569 -1.1970 -0.9679 -1.8673
  324MOL0     H43734   5.128   6.758   7.713 -1.3783  2.4454 -1.8389
  324MOL0     H43735   5.185   6.866   7.589 -0.4804 -0.3825 -3.0602
  324MOL0     H43736   5.335   6.617   7.706 -2.5006 -0.7265  0.0003
  324MOL0     H43737   5.351   6.780   7.767 -1.2307  1.2037 -0.2209
  324MOL0     H43738   5.611   6.832   7.453  0.4540  2.0865  2.0432
  324MOL0     H43739   4.725   6.653   7.436 -0.0199  2.2450 -1.8652
  324MOL0     H43740   4.552   6.667   7.252  0.2683 -0.0738 -1.2718
  325MOL0     O43741   3.407   1.589  10.488 -0.0973 -0.3689 -0.7593
  325MOL0     C43742   3.497   1.673  10.466 -0.1141  0.7027 -0.2295
  325MOL0     O43743   3.486   1.797  10.421  0.5850  0.0360  0.3527
  325MOL0     C43744   3.370   1.848  10.379  0.3148  0.6844 -0.2945
  325MOL0     C43745   3.315   1.798  10.259 -0.5271  0.5396 -0.2689
  325MOL0     C43746   3.190   1.839  10.207  0.4897  0.3849  0.4796
  325MOL0     C43747   3.111   1.929  10.285 -0.0242  0.1205  0.1991
  325MOL0     O43748   2.985   1.977  10.256 -0.9894 -0.0985  0.0540
  325MOL0     C43749   2.916   1.914  10.146  0.0130  0.5977 -0.1972
  325MOL0     C43750   2.758   1.926  10.157  0.1388 -0.6259  0.1450
  325MOL0     C43751   2.705   2.067  10.181  0.0836  0.1816 -0.1389
  325MOL0     C43752   2.556   2.078  10.225 -0.7810  0.2986 -0.5006
  325MOL0     C43753   2.505   2.222  10.208 -1.3071  0.6997 -0.1403
  325MOL0     C43754   2.491   2.255  10.057 -0.0239 -1.0483  0.3425
  325MOL0     C43755   2.424   2.396  10.044  0.5201 -0.1049  0.7810
  325MOL0     C43756   2.282   2.406  10.088  0.7213 -0.4565 -1.3966
  325MOL0     N43757   2.210   2.531  10.044 -0.8953  0.2336 -0.1799
  325MOL0     C43758   2.155   2.553   9.920 -0.1097 -0.3766 -0.7746
  325MOL0     C43759   2.065   2.651   9.941 -0.0739 -0.1001 -0.8323
  325MOL0     C43760   1.976   2.715   9.835  0.1195  0.7324 -0.3323
  325MOL0     C43761   2.065   2.821   9.773  0.5892  0.3967 -1.2725
  325MOL0     C43762   1.980   2.887   9.671  0.2708 -0.1401 -0.2229
  325MOL0     C43763   1.964   2.816   9.542 -0.1873  0.3530  0.3295
  325MOL0     O43764   1.908   2.912   9.455  0.6026 -0.6851  0.0925
  325MOL0     C43765   1.851   2.883   9.330 -0.7312  0.5231 -0.0608
  325MOL0     C43766   1.781   2.984   9.272  0.3884 -0.5509  0.5826
  325MOL0     C43767   1.725   2.981   9.143 -0.6119  0.2679 -0.3458
  325MOL0     C43768   1.649   3.098   9.096  0.9034 -0.3700 -0.4939
  325MOL0     C43769   1.740   2.862   9.074 -0.2752 -0.0449 -0.8513
  325MOL0     C43770   1.683   2.837   8.937  0.2840  0.5513  0.9162
  325MOL0     O43771   1.590   2.919   8.889  0.1543 -0.1277  0.4445
  325MOL0     C43772   1.555   2.911   8.752 -0.3783 -0.3468 -0.6303
  325MOL0     C43773   1.616   2.995   8.665 -0.2008 -0.2003  0.7948
  325MOL0     C43774   1.574   2.991   8.531 -0.3454  0.5756  0.2845
  325MOL0     C43775   1.473   2.903   8.489  0.1219  0.5422  0.0054
  325MOL0     O43776   1.425   2.902   8.364  0.1258 -0.0049  0.0199
  325MOL0     C43777   1.300   2.830   8.319  0.1475 -0.1952  0.4390
  325MOL0     C43778   1.175   2.910   8.361  0.2139 -0.9431 -0.6376
  325MOL0     C43779   1.052   2.820   8.355  0.0634 -0.2820 -0.9096
  325MOL0     C43780   0.928   2.893   8.431  0.2029 -0.4159 -0.5930
  325MOL0     C43781   0.795   2.805   8.433  0.0865 -0.3505  0.2513
  325MOL0     C43782   0.776   2.716   8.305  0.3240 -0.8196  0.7846
  325MOL0     C43783   0.632   2.666   8.285 -0.7471 -0.2055 -0.1475
  325MOL0     C43784   0.614   2.535   8.217 -0.5592  0.8483 -0.5520
  325MOL0    Cl43785   0.674   2.392   8.309  0.2758 -0.0938  0.6361
  325MOL0     C43786   1.414   2.821   8.588 -0.2434  0.2111 -0.3076
  325MOL0     C43787   1.461   2.819   8.717 -0.3680 -0.7149 -0.6755
  325MOL0     O43788   1.728   2.732   8.873 -0.1760  0.1038 -0.0991
  325MOL0     C43789   1.809   2.751   9.136 -0.1301 -0.3266 -0.4741
  325MOL0     C43790   1.868   2.760   9.263  0.2240  0.6180  0.3003
  325MOL0     N43791   2.074   2.682  10.078  0.0733 -0.1566 -0.5108
  325MOL0     N43792   2.158   2.614  10.132 -0.3347  0.1219 -0.4507
  325MOL0     C43793   3.171   1.983  10.400  0.3229  0.9692  0.3188
  325MOL0     C43794   3.297   1.942  10.444  0.3493 -0.3529  0.5777
  325MOL0     C43795   3.633   1.628  10.493 -0.0712  1.1456 -0.0765
  325MOL0     C43796   3.660   1.492  10.488  0.2952  0.4454 -0.5703
  325MOL0     C43797   3.776   1.440  10.534  0.6516  1.4061 -0.1481
  325MOL0     C43798   3.870   1.528  10.586 -0.4697  0.4987  0.2886
  325MOL0     O43799   3.987   1.472  10.629 -0.4020 -0.5458 -0.8122
  325MOL0     C43800   3.990   1.445  10.768  0.5159  0.0517 -0.5143
  325MOL0     C43801   4.076   1.316  10.808 -0.8640  0.4680  0.4872
  325MOL0     C43802   4.046   1.191  10.718 -0.4896  0.6609 -0.2600
  325MOL0     C43803   3.910   1.129  10.752 -0.5494 -0.1553 -0.4879
  325MOL0     C43804   3.897   1.098  10.903 -0.1733  1.0658  0.0421
  325MOL0     C43805   3.901   1.076  11.017  0.2594 -0.3703 -0.2912
  325MOL0     C43806   3.852   1.668  10.584  1.3231 -0.1139 -0.5020
  325MOL0     C43807   3.731   1.711  10.539 -1.0173  0.2470  0.4949
  325MOL0     H43808   3.368   1.728  10.194  2.5704  4.1286 -1.9887
  325MOL0     H43809   3.167   1.803  10.107  2.3902 -0.8612  0.4448
  325MOL0     H43810   2.954   1.954  10.052 -3.6531 -0.5567 -2.3873
  325MOL0     H43811   2.933   1.806  10.145 -0.7135  0.4490 -2.7480
  325MOL0     H43812   2.705   1.874  10.076  3.1586 -2.5001 -0.8290
  325MOL0     H43813   2.733   1.865  10.245 -0.9515 -0.0894  0.2140
  325MOL0     H43814   2.760   2.115  10.263 -0.5468  0.9259 -0.1446
  325MOL0     H43815   2.720   2.118  10.086  0.0336  1.7535  0.6605
  325MOL0     H43816   2.501   2.004  10.166 -2.6414  1.1061  0.1615
  325MOL0     H43817   2.550   2.053  10.331  0.6134  0.5528 -0.3455
  325MOL0     H43818   2.411   2.222  10.265 -1.8699 -1.6111 -0.9646
  325MOL0     H43819   2.581   2.287  10.252 -2.1174  1.8740 -0.4007
  325MOL0     H43820   2.590   2.254  10.011 -0.0882  1.7930 -0.0255
  325MOL0     H43821   2.421   2.186  10.008 -0.8269  0.3962 -0.5998
  325MOL0     H43822   2.478   2.473  10.099  2.8593 -1.6392  0.7833
  325MOL0     H43823   2.427   2.426   9.939 -4.9791  2.4267  0.9683
  325MOL0     H43824   2.273   2.412  10.197 -1.7414 -0.6259 -1.5330
  325MOL0     H43825   2.226   2.320  10.051 -1.3732 -0.2658  1.0646
  325MOL0     H43826   2.181   2.509   9.824  1.1708  1.0704 -1.1159
  325MOL0     H43827   1.942   2.646   9.758 -2.5992  1.3979  0.1618
  325MOL0     H43828   1.895   2.755   9.897  3.2308  2.7255  2.8478
  325MOL0     H43829   2.158   2.780   9.731  1.2316  2.2659 -1.8007
  325MOL0     H43830   2.091   2.896   9.849 -0.9806 -2.5276  2.4422
  325MOL0     H43831   2.023   2.985   9.650  0.4656 -0.0131  0.7395
  325MOL0     H43832   1.886   2.904   9.724  0.6928  1.4318  0.0576
  325MOL0     H43833   1.900   2.730   9.560  0.5971 -0.2087  0.4923
  325MOL0     H43834   2.056   2.769   9.503  0.2605 -0.1374  1.8966
  325MOL0     H43835   1.752   3.067   9.336 -1.3511  0.1878 -1.0543
  325MOL0     H43836   1.692   3.191   9.134  0.3557  1.4433 -3.8540
  325MOL0     H43837   1.647   3.114   8.987  1.4338 -2.7484 -0.8976
  325MOL0     H43838   1.545   3.085   9.124  1.4761  0.3713  2.2341
  325MOL0     H43839   1.688   3.070   8.696 -1.7797  1.4179  0.6397
  325MOL0     H43840   1.624   3.045   8.452  2.0894 -4.8560 -2.4372
  325MOL0     H43841   1.304   2.831   8.210  2.0643 -0.5943  0.4758
  325MOL0     H43842   1.306   2.724   8.345 -0.0416 -0.1850  0.5238
  325MOL0     H43843   1.195   2.941   8.464  3.5852 -1.0765 -1.1391
  325MOL0     H43844   1.154   3.008   8.316  2.2093  0.2361  0.8177
  325MOL0     H43845   1.080   2.728   8.407 -1.5416 -1.4232 -1.9752
  325MOL0     H43846   1.030   2.798   8.251  0.3467 -1.9692 -0.6409
  325MOL0     H43847   0.958   2.920   8.533  0.5379 -0.3392 -0.7115
  325MOL0     H43848   0.912   2.990   8.384 -0.7094 -1.0321 -1.6043
  325MOL0     H43849   0.706   2.869   8.436 -1.1696 -1.9837 -0.2867
  325MOL0     H43850   0.798   2.740   8.521  0.1299 -4.6670 -2.6118
  325MOL0     H43851   0.793   2.773   8.213 -2.1486 -0.9172  0.1759
  325MOL0     H43852   0.852   2.637   8.313 -0.4446 -1.6209  0.3532
  325MOL0     H43853   0.571   2.745   8.242 -1.6693 -0.6915  0.2501
  325MOL0     H43854   0.591   2.658   8.386  1.1894  3.7435  1.1665
  325MOL0     H43855   0.667   2.529   8.122  1.7541 -0.3471  0.7312
  325MOL0     H43856   0.507   2.520   8.199 -0.8963 -0.0275  1.8225
  325MOL0     H43857   1.337   2.750   8.560 -0.1104 -0.2670  0.5200
  325MOL0     H43858   1.414   2.763   8.797  1.4405 -0.5758  0.5476
  325MOL0     H43859   1.829   2.664   9.075 -1.3053  1.6706 -4.0460
  325MOL0     H43860   1.932   2.676   9.289  0.2552  0.6465  0.3161
  325MOL0     H43861   3.113   2.059  10.451  2.3840  1.5984  1.8360
  325MOL0     H43862   3.335   1.991  10.533 -1.5400 -0.1621  1.3198
  325MOL0     H43863   3.589   1.420  10.448 -0.4390 -1.3151  3.4761
  325MOL0     H43864   3.814   1.339  10.533 -1.2026  0.5744  2.5034
  325MOL0     H43865   4.039   1.528  10.819  0.8020 -0.3498 -0.1211
  325MOL0     H43866   3.886   1.450  10.800  0.2487  0.5531 -1.4318
  325MOL0     H43867   4.062   1.307  10.916  0.7547  1.1272  0.7805
  325MOL0     H43868   4.177   1.351  10.782 -2.2991  3.6851 -1.4540
  325MOL0     H43869   4.119   1.112  10.733 -0.0850  0.7742 -1.5120
  325MOL0     H43870   4.037   1.209  10.610 -1.1009 -3.1117 -0.9681
  325MOL0     H43871   3.905   1.029  10.708  0.7411 -2.8001  4.5338
  325MOL0     H43872   3.823   1.193  10.736 -0.2707  0.4324  0.2972
  325MOL0     H43873   3.892   1.083  11.123 -2.1610  0.2168 -0.4729
  325MOL0     H43874   3.931   1.731  10.622 -0.1949  1.5740 -0.0532
  325MOL0     H43875   3.699   1.814  10.550 -1.8463 -0.1272  1.8735
  326MOL0     O43876   1.739   9.245   1.069  0.6864  0.1174 -0.2686
  326MOL0     C43877   1.745   9.236   1.193  0.2093 -0.8493  0.0896
  326MOL0     O43878   1.840   9.293   1.277  0.8637 -0.0932 -0.5812
  326MOL0     C43879   1.926   9.388   1.241 -0.5043 -0.2875 -0.2202
  326MOL0     C43880   1.868   9.504   1.190 -1.5801  0.6554  0.2903
  326MOL0     C43881   1.950   9.610   1.174 -0.0742  0.5024 -0.4711
  326MOL0     C43882   2.091   9.614   1.202 -0.0278 -0.8217 -0.2964
  326MOL0     O43883   2.164   9.729   1.165 -0.2365  0.6341  0.2601
  326MOL0     C43884   2.267   9.710   1.068  0.1718  0.1294 -0.3041
  326MOL0     C43885   2.224   9.693   0.916 -0.3093 -0.6805  0.2261
  326MOL0     C43886   2.190   9.833   0.861 -0.4516 -0.1893  0.1441
  326MOL0     C43887   2.312   9.921   0.847 -0.2204  0.4698  0.2197
  326MOL0     C43888   2.289  10.042   0.760  0.0058 -0.5405 -0.4496
  326MOL0     C43889   2.420  10.107   0.698 -0.5661  0.1080  0.1484
  326MOL0     C43890   2.394  10.222   0.593 -0.6075  1.6029 -0.0267
  326MOL0     C43891   2.504  10.234   0.488 -0.0447 -0.1427  0.0196
  326MOL0     N43892   2.522  10.363   0.418  0.0372 -0.0376 -0.7047
  326MOL0     C43893   2.426  10.452   0.398  0.8034 -1.1392  0.0743
  326MOL0     C43894   2.493  10.554   0.350 -0.2964  0.6951  0.0380
  326MOL0     C43895   2.441  10.673   0.280  0.6666  0.0961  0.3307
  326MOL0     C43896   2.366  10.771   0.374  1.4312  0.0960 -0.6480
  326MOL0     C43897   2.410  10.914   0.361 -1.0988 -1.2402 -0.0738
  326MOL0     C43898   2.313  11.011   0.441 -0.4963 -0.6947 -0.3667
  326MOL0     O43899   2.383  11.021   0.567 -1.3761  0.8317 -0.6397
  326MOL0     C43900   2.321  11.092   0.667  0.8582  0.5872 -0.4959
  326MOL0     C43901   2.391  11.189   0.736  0.1125  0.0037 -0.3798
  326MOL0     C43902   2.331  11.277   0.829 -0.2053 -0.6476 -1.1394
  326MOL0     C43903   2.420  11.375   0.898  0.2353  0.0257  0.2123
  326MOL0     C43904   2.191  11.261   0.860  0.5192 -0.7155  0.3740
  326MOL0     C43905   2.116  11.357   0.958  0.3766 -0.0193  0.4401
  326MOL0     O43906   2.181  11.437   1.042  0.4363 -0.0623 -0.4294
  326MOL0     C43907   2.121  11.518   1.135  0.6933 -0.1420 -1.0499
  326MOL0     C43908   2.209  11.577   1.224  0.4529 -0.2769 -0.2648
  326MOL0     C43909   2.159  11.675   1.311 -0.1948 -0.1548  0.0884
  326MOL0     C43910   2.024  11.715   1.319 -0.7060  0.2117 -0.2248
  326MOL0     O43911   1.979  11.816   1.395  0.2873  0.7871  0.2474
  326MOL0     C43912   2.064  11.931   1.392 -0.1570  0.1315 -0.5134
  326MOL0     C43913   2.011  12.047   1.461  0.1053  0.4398 -0.1483
  326MOL0     C43914   2.014  12.176   1.365 -0.3625 -0.2244  0.1129
  326MOL0     C43915   2.002  12.303   1.445 -0.3444 -0.6586  0.0207
  326MOL0     C43916   1.974  12.422   1.354  0.0708 -0.3093  0.4110
  326MOL0     C43917   1.832  12.432   1.305  0.8388 -0.1861 -0.2957
  326MOL0     C43918   1.792  12.569   1.277 -0.6707  0.4520 -0.2879
  326MOL0     C43919   1.652  12.569   1.240 -0.4596 -0.4932  0.5212
  326MOL0    Cl43920   1.621  12.725   1.175 -0.1560  0.2187 -0.0750
  326MOL0     C43921   1.942  11.655   1.227  0.0386  0.4349 -0.2359
  326MOL0     C43922   1.987  11.554   1.139  0.4202  0.0191  0.3098
  326MOL0     O43923   1.993  11.337   0.949 -0.0914 -0.2078  0.7078
  326MOL0     C43924   2.132  11.149   0.807  0.2350 -0.7581 -0.5352
  326MOL0     C43925   2.192  11.070   0.716  0.6259 -0.7773 -0.0657
  326MOL0     N43926   2.627  10.534   0.354 -0.4717 -0.5785  0.1141
  326MOL0     N43927   2.650  10.412   0.390  0.1241 -0.2376 -0.6069
  326MOL0     C43928   2.143   9.493   1.243  0.8654 -0.1799 -0.0732
  326MOL0     C43929   2.060   9.379   1.261 -0.5489 -1.0141 -0.3358
  326MOL0     C43930   1.644   9.148   1.257 -0.1052  0.3009  0.1400
  326MOL0     C43931   1.660   9.112   1.389 -0.2257 -0.0553  0.2690
  326MOL0     C43932   1.552   9.042   1.455  0.4553 -0.0576 -0.5039
  326MOL0     C43933   1.441   8.982   1.392 -0.4695 -0.0373  0.1890
  326MOL0     O43934   1.347   8.900   1.441  0.4720  0.1645 -0.0573
  326MOL0     C43935   1.360   8.838   1.575  0.6310 -0.5118 -0.1778
  326MOL0     C43936   1.474   8.743   1.580 -0.4399 -0.2793 -0.5472
  326MOL0     C43937   1.455   8.613   1.500 -0.0380 -0.0385 -0.3212
  326MOL0     C43938   1.587   8.536   1.484  0.1353 -0.2616 -0.9375
  326MOL0     C43939   1.548   8.402   1.439 -0.8004  1.0632  0.5970
  326MOL0     C43940   1.520   8.290   1.414 -0.7652  0.2814 -0.3636
  326MOL0     C43941   1.441   9.010   1.257 -0.3135 -0.2573  1.0990
  326MOL0     C43942   1.530   9.098   1.189 -0.3764 -0.1698  0.5182
  326MOL0     H43943   1.766   9.503   1.153 -0.3110 -0.3824 -3.6472
  326MOL0     H43944   1.905   9.697   1.127  2.0566  1.0925 -1.5184
  326MOL0     H43945   2.341   9.789   1.058  0.9851 -0.7628 -1.6692
  326MOL0     H43946   2.320   9.617   1.092  1.8229  0.7347 -1.4643
  326MOL0     H43947   2.305   9.647   0.859 -0.7187 -1.6396  0.4152
  326MOL0     H43948   2.140   9.624   0.912 -0.2561 -0.7449  0.2185
  326MOL0     H43949   2.138   9.822   0.765  0.1296 -0.9171 -0.0971
  326MOL0     H43950   2.120   9.892   0.922  1.4054 -1.9606  4.3544
  326MOL0     H43951   2.339   9.957   0.947  2.4099 -0.2086 -0.1672
  326MOL0     H43952   2.389   9.860   0.799 -0.5183  0.4350 -0.2218
  326MOL0     H43953   2.234  10.006   0.672 -0.0122 -0.0524 -0.6369
  326MOL0     H43954   2.244  10.118   0.823  0.1729 -0.5057 -0.3723
  326MOL0     H43955   2.498  10.138   0.769 -0.4806 -2.4858  1.2930
  326MOL0     H43956   2.465  10.032   0.632 -2.8694 -0.6527 -0.6312
  326MOL0     H43957   2.298  10.205   0.544 -0.4884 -0.3541  0.3599
  326MOL0     H43958   2.377  10.319   0.640 -0.5203  1.6075 -0.0046
  326MOL0     H43959   2.481  10.169   0.403  1.9984  0.2310 -0.8778
  326MOL0     H43960   2.596  10.206   0.539 -1.1702 -2.8732  0.7529
  326MOL0     H43961   2.319  10.435   0.394 -0.0281  3.1866 -1.2881
  326MOL0     H43962   2.514  10.727   0.219 -1.3681  2.5164 -0.1121
  326MOL0     H43963   2.367  10.637   0.208  2.3336  1.7873 -2.4347
  326MOL0     H43964   2.375  10.757   0.482  1.6833  4.2843  0.0470
  326MOL0     H43965   2.262  10.770   0.340  0.1490 -1.6467  2.7901
  326MOL0     H43966   2.389  10.940   0.257 -0.5619 -0.8686 -0.0935
  326MOL0     H43967   2.512  10.936   0.392 -1.8652 -0.5255  2.1290
  326MOL0     H43968   2.209  10.978   0.436 -0.5465 -0.3955 -2.8514
  326MOL0     H43969   2.328  11.113   0.403  0.7170 -1.4372 -2.0569
  326MOL0     H43970   2.498  11.196   0.720  0.5617  0.3606  2.2788
  326MOL0     H43971   2.365  11.468   0.917 -1.0623 -1.4315  5.3004
  326MOL0     H43972   2.449  11.330   0.994  0.7318  0.7466  0.4104
  326MOL0     H43973   2.515  11.403   0.851  0.7944 -0.4713  0.9984
  326MOL0     H43974   2.314  11.552   1.213  1.9369  5.2619 -1.5035
  326MOL0     H43975   2.241  11.729   1.358 -0.7873 -0.4611  1.5047
  326MOL0     H43976   2.166  11.907   1.423  0.0297  1.5868  0.1094
  326MOL0     H43977   2.087  11.961   1.289  2.8751 -0.5017 -0.1111
  326MOL0     H43978   1.905  12.031   1.484  0.0200  1.5097  0.2660
  326MOL0     H43979   2.053  12.070   1.559  0.1783 -0.8548  0.1435
  326MOL0     H43980   1.930  12.175   1.295  0.3235  1.5148 -0.7979
  326MOL0     H43981   2.108  12.187   1.310 -0.8280  0.7325 -0.5069
  326MOL0     H43982   1.931  12.283   1.526  0.3646  0.7235  1.0166
  326MOL0     H43983   2.096  12.338   1.488 -1.6163  4.4190 -0.7550
  326MOL0     H43984   2.050  12.429   1.276 -0.3899 -0.9244 -0.1070
  326MOL0     H43985   1.997  12.508   1.417  1.4575  1.0142 -1.7505
  326MOL0     H43986   1.813  12.361   1.224  0.7525 -0.0269 -0.4173
  326MOL0     H43987   1.762  12.402   1.383 -0.6345 -1.6938 -2.1038
  326MOL0     H43988   1.855  12.616   1.202  0.4978  1.7034  1.4278
  326MOL0     H43989   1.815  12.636   1.360 -0.1272 -0.7887  0.6074
  326MOL0     H43990   1.587  12.566   1.328 -3.3110 -0.7196 -1.4417
  326MOL0     H43991   1.641  12.490   1.164  2.2974  1.7932 -2.5210
  326MOL0     H43992   1.844  11.697   1.210  0.9628  2.3675 -1.0330
  326MOL0     H43993   1.909  11.518   1.074  0.8531  1.4015 -1.0319
  326MOL0     H43994   2.026  11.128   0.818 -0.2779  0.4974 -2.6187
  326MOL0     H43995   2.126  10.998   0.667 -3.7120  3.6159 -1.5636
  326MOL0     H43996   2.247   9.470   1.265  1.9738  2.5390 -1.9646
  326MOL0     H43997   2.111   9.290   1.295  1.9805 -0.0066 -1.2598
  326MOL0     H43998   1.740   9.157   1.447  0.2438 -1.7992  1.0679
  326MOL0     H43999   1.554   9.036   1.563 -1.1031  0.6562 -0.4103
  326MOL0     H44000   1.377   8.912   1.654  1.2152  1.0508 -1.7130
  326MOL0     H44001   1.268   8.783   1.599  0.2132 -0.1708 -0.9723
  326MOL0     H44002   1.459   8.701   1.681  1.5160  1.1138  0.3743
  326MOL0     H44003   1.572   8.788   1.568 -1.1662  1.8628  0.9590
  326MOL0     H44004   1.407   8.653   1.410 -1.1705  2.1364  1.1514
  326MOL0     H44005   1.377   8.553   1.545 -1.0075  0.2127 -1.5941
  326MOL0     H44006   1.637   8.538   1.581 -3.8724 -1.7529  1.4084
  326MOL0     H44007   1.650   8.574   1.403  0.3098  0.4701 -0.4712
  326MOL0     H44008   1.488   8.191   1.391 -0.2162  0.5161 -2.2936
  326MOL0     H44009   1.348   8.984   1.206  0.0515  1.0031 -0.2662
  326MOL0     H44010   1.508   9.136   1.090 -3.3961 -1.3591  0.6329
  327MOL0     O44011  10.412   4.335   3.479 -0.5158  0.1779  0.6177
  327MOL0     C44012  10.335   4.365   3.574 -0.2158 -0.5469 -0.5173
  327MOL0     O44013  10.200   4.354   3.576  0.3655  0.6583 -0.1408
  327MOL0     C44014  10.142   4.295   3.464  0.1609  0.6909 -0.2858
  327MOL0     C44015  10.151   4.154   3.436  0.1912  0.8767 -0.1326
  327MOL0     C44016  10.102   4.100   3.313 -0.4260  0.7382 -0.2401
  327MOL0     C44017  10.042   4.182   3.217  0.0175  0.9116 -0.5638
  327MOL0     O44018  10.029   4.127   3.095 -0.8095 -0.1792  0.5123
  327MOL0     C44019   9.999   4.209   2.974  0.4733  1.0171 -0.5726
  327MOL0     C44020  10.123   4.286   2.916 -0.6985  0.2118  0.0893
  327MOL0     C44021  10.206   4.217   2.805 -1.0067 -0.4958 -0.0404
  327MOL0     C44022  10.137   4.218   2.668 -0.2841 -0.4815 -0.8254
  327MOL0     C44023  10.188   4.106   2.580  0.1512  0.4801 -0.7207
  327MOL0     C44024  10.331   4.123   2.544 -0.6077 -0.3422 -0.0720
  327MOL0     C44025  10.389   4.010   2.459 -0.8695  0.1422  0.3103
  327MOL0     C44026  10.504   4.068   2.369 -0.1842 -0.9659  0.6565
  327MOL0     N44027  10.584   3.962   2.331  0.2393 -0.0845  0.2263
  327MOL0     C44028  10.716   3.949   2.351  0.1344 -0.1439 -0.6241
  327MOL0     C44029  10.758   3.845   2.276 -1.1019 -0.2670  0.0548
  327MOL0     C44030  10.888   3.786   2.287 -1.1172  0.7598 -0.9396
  327MOL0     C44031  10.886   3.639   2.317 -0.5982  0.7505 -0.5176
  327MOL0     C44032  10.830   3.594   2.451 -0.1612 -0.2558  0.3551
  327MOL0     C44033  10.917   3.650   2.562  0.5490 -0.2485  0.2686
  327MOL0     O44034  11.047   3.603   2.559 -1.6489  1.0807 -0.9982
  327MOL0     C44035  11.133   3.673   2.642 -0.2269  0.2343  0.1870
  327MOL0     C44036  11.216   3.762   2.578  0.2664 -0.0759  0.1321
  327MOL0     C44037  11.289   3.854   2.651 -0.7891  0.3146  0.0836
  327MOL0     C44038  11.348   3.945   2.549 -0.5925 -0.9218 -0.2150
  327MOL0     C44039  11.288   3.857   2.796  1.1062 -0.2724 -0.8297
  327MOL0     C44040  11.360   3.952   2.884  0.1873 -0.0075  0.8415
  327MOL0     O44041  11.462   4.021   2.832  0.6590  0.4625  0.1740
  327MOL0     C44042  11.515   4.127   2.895  0.1343 -1.0117  0.0895
  327MOL0     C44043  11.454   4.246   2.946  0.0018 -0.9075  0.0741
  327MOL0     C44044  11.534   4.353   2.994  0.7677 -0.6149  0.1556
  327MOL0     C44045  11.677   4.358   2.986 -0.5265 -0.1451 -0.2190
  327MOL0     O44046  11.733   4.483   3.001  0.3220 -0.2690 -1.2886
  327MOL0     C44047  11.811   4.532   2.894 -0.7130 -0.8595 -0.3247
  327MOL0     C44048  11.846   4.678   2.916 -0.4198  0.1936  0.4698
  327MOL0     C44049  11.895   4.747   2.779 -1.0631  0.2830 -0.5814
  327MOL0     C44050  11.772   4.822   2.716 -0.3101 -0.1838  0.5092
  327MOL0     C44051  11.663   4.736   2.670 -0.0270  0.6314 -0.6949
  327MOL0     C44052  11.547   4.818   2.614  0.9043  0.9349 -0.0487
  327MOL0     C44053  11.483   4.910   2.718  0.5340  0.1302 -0.1694
  327MOL0     C44054  11.342   4.950   2.671 -0.3995 -0.3569  0.2885
  327MOL0    Cl44055  11.359   5.048   2.538 -0.5590 -0.4403  0.2447
  327MOL0     C44056  11.736   4.239   2.935 -0.5400 -0.9770 -0.2543
  327MOL0     C44057  11.653   4.124   2.904  0.0789  0.2795 -0.1426
  327MOL0     O44058  11.313   3.968   2.993 -0.6008 -0.5806 -0.0868
  327MOL0     C44059  11.207   3.757   2.856 -0.9909 -0.2348  0.0408
  327MOL0     C44060  11.134   3.664   2.781  0.6690 -0.6026 -0.4776
  327MOL0     N44061  10.646   3.800   2.215  0.2753 -0.4085 -0.1258
  327MOL0     N44062  10.541   3.877   2.228 -1.5842  0.2041 -0.8148
  327MOL0     C44063  10.033   4.317   3.248  0.8650 -0.2452  0.6626
  327MOL0     C44064  10.086   4.374   3.365 -0.2191  0.2550  0.0313
  327MOL0     C44065  10.391   4.401   3.695  0.0411 -1.1547 -0.0200
  327MOL0     C44066  10.313   4.459   3.795 -0.3866  1.0065 -0.6273
  327MOL0     C44067  10.370   4.490   3.923  0.4086  0.3381  0.6754
  327MOL0     C44068  10.507   4.491   3.938  0.6667 -0.3563 -0.2627
  327MOL0     O44069  10.558   4.530   4.062  0.1564  0.4345 -0.0426
  327MOL0     C44070  10.700   4.569   4.061 -0.5496  0.3996 -0.2412
  327MOL0     C44071  10.749   4.616   4.200 -0.4097 -0.5009 -1.3052
  327MOL0     C44072  10.756   4.508   4.311  0.0704  0.0854  0.0365
  327MOL0     C44073  10.863   4.404   4.275  0.1031 -0.3995  0.1710
  327MOL0     C44074  10.869   4.290   4.374  1.0514  0.6223 -0.4781
  327MOL0     C44075  10.856   4.207   4.457 -0.3717  1.0184 -0.8582
  327MOL0     C44076  10.584   4.440   3.830  0.1899  0.0614  0.1626
  327MOL0     C44077  10.526   4.402   3.706 -0.2289 -0.0859  0.5196
  327MOL0     H44078  10.209   4.089   3.502 -0.2459  2.3864  1.8172
  327MOL0     H44079  10.115   3.993   3.300 -2.3981  0.2447  1.4443
  327MOL0     H44080   9.973   4.143   2.891 -0.4692  1.7722 -0.8948
  327MOL0     H44081   9.921   4.284   2.988 -1.0378 -0.6377  0.2956
  327MOL0     H44082  10.077   4.377   2.877 -4.1044 -1.1625  0.4752
  327MOL0     H44083  10.200   4.319   2.986  0.5207 -0.7707 -0.7395
  327MOL0     H44084  10.295   4.278   2.784 -0.7415 -0.6656  0.5468
  327MOL0     H44085  10.236   4.116   2.837  0.9663  0.4740  1.4323
  327MOL0     H44086  10.031   4.195   2.678 -0.0723 -0.9469  0.5735
  327MOL0     H44087  10.138   4.316   2.620 -2.0861  0.5772  1.1430
  327MOL0     H44088  10.177   4.011   2.632  2.4134  1.6910  2.2558
  327MOL0     H44089  10.127   4.119   2.490 -2.0125  2.6280  0.9264
  327MOL0     H44090  10.343   4.207   2.475 -1.7292 -1.1562 -1.2953
  327MOL0     H44091  10.402   4.145   2.625  1.4106  0.5838 -2.0059
  327MOL0     H44092  10.429   3.928   2.519 -1.4916 -0.6679 -0.3681
  327MOL0     H44093  10.311   3.963   2.399  1.1779 -1.0029 -1.6170
  327MOL0     H44094  10.565   4.137   2.427  1.2943 -1.3658 -0.3603
  327MOL0     H44095  10.467   4.124   2.282  1.9523  1.0548  0.9555
  327MOL0     H44096  10.767   4.009   2.426 -2.2659  1.2672 -0.0323
  327MOL0     H44097  10.932   3.801   2.188 -1.4454  0.2645 -1.1656
  327MOL0     H44098  10.959   3.838   2.352 -0.6332 -0.9879  0.0048
  327MOL0     H44099  10.986   3.595   2.312 -0.5326  0.9476 -1.0609
  327MOL0     H44100  10.824   3.587   2.243  0.1680 -0.9203 -0.0096
  327MOL0     H44101  10.823   3.486   2.461 -2.8837 -0.0277  1.7802
  327MOL0     H44102  10.733   3.643   2.466  1.1074  2.9808 -0.9530
  327MOL0     H44103  10.865   3.613   2.651  1.5433 -0.9405  0.5801
  327MOL0     H44104  10.924   3.759   2.564 -1.2878 -0.0558 -0.9114
  327MOL0     H44105  11.208   3.777   2.471 -1.7827  0.1004  0.2790
  327MOL0     H44106  11.265   4.007   2.517 -1.0375 -0.3527  1.9061
  327MOL0     H44107  11.418   4.011   2.600 -1.2961 -0.2579 -0.0971
  327MOL0     H44108  11.405   3.911   2.461 -1.3911  0.0110 -1.1200
  327MOL0     H44109  11.347   4.261   2.956 -0.0810 -0.4043 -1.3598
  327MOL0     H44110  11.483   4.441   3.031  1.7825  1.2935 -2.6610
  327MOL0     H44111  11.902   4.472   2.884 -0.1070 -0.0153  0.0244
  327MOL0     H44112  11.758   4.518   2.799 -4.8083  1.3610  1.4206
  327MOL0     H44113  11.754   4.723   2.954 -1.2318 -1.5680  0.7377
  327MOL0     H44114  11.922   4.676   2.995 -0.8808 -3.4685  1.0389
  327MOL0     H44115  11.932   4.667   2.713 -0.6195  0.0876 -0.0967
  327MOL0     H44116  11.977   4.818   2.791 -0.0509 -1.0894  0.9113
  327MOL0     H44117  11.741   4.904   2.781  0.5591  0.2128  0.4342
  327MOL0     H44118  11.812   4.869   2.625 -0.0959 -2.0764 -0.4175
  327MOL0     H44119  11.621   4.678   2.752 -1.7773  2.1235 -0.4700
  327MOL0     H44120  11.700   4.680   2.584  2.1893  1.2403 -0.2077
  327MOL0     H44121  11.568   4.876   2.523 -0.7889  1.2716 -0.2639
  327MOL0     H44122  11.481   4.738   2.579  3.6032 -0.5152 -2.1760
  327MOL0     H44123  11.549   4.996   2.735  2.9113 -1.4850 -0.8169
  327MOL0     H44124  11.470   4.863   2.816  1.2101  0.9117  0.3122
  327MOL0     H44125  11.303   5.009   2.754  2.2633  0.1707  1.2770
  327MOL0     H44126  11.278   4.865   2.645 -0.0517 -0.4536 -0.2657
  327MOL0     H44127  11.843   4.234   2.918 -0.7883  2.8846 -5.5207
  327MOL0     H44128  11.702   4.029   2.883  1.1677  0.6596  0.5949
  327MOL0     H44129  11.182   3.747   2.961  0.4644 -1.9013  0.2808
  327MOL0     H44130  11.072   3.598   2.840  0.9773  0.0926  0.6580
  327MOL0     H44131   9.997   4.392   3.178  0.8157 -0.8153  0.0647
  327MOL0     H44132  10.097   4.482   3.374 -1.8627  0.9110 -3.7124
  327MOL0     H44133  10.206   4.469   3.778 -0.5776 -2.0375 -1.9711
  327MOL0     H44134  10.308   4.518   4.007  0.3561  1.7325  0.1944
  327MOL0     H44135  10.765   4.487   4.030 -2.6950 -1.5132  0.1422
  327MOL0     H44136  10.724   4.646   3.987  1.0504 -0.7375 -0.9676
  327MOL0     H44137  10.679   4.697   4.224 -0.1496 -0.8875  0.9143
  327MOL0     H44138  10.848   4.661   4.195 -0.3224 -0.3352  1.1023
  327MOL0     H44139  10.666   4.445   4.316  0.5811 -0.7731 -1.2546
  327MOL0     H44140  10.769   4.562   4.406  0.6577 -2.3660  1.4442
  327MOL0     H44141  10.968   4.434   4.272  0.2644 -0.6183  2.0698
  327MOL0     H44142  10.841   4.367   4.175  0.8643  3.2330 -1.5156
  327MOL0     H44143  10.841   4.129   4.529 -0.0754  0.6733 -1.1639
  327MOL0     H44144  10.693   4.435   3.832  0.2241  0.4365 -0.5401
  327MOL0     H44145  10.585   4.361   3.624 -0.7462  0.6984 -0.2580
  328MOL0     O44146   1.993   3.521   6.328 -0.9111 -0.1632  0.0200
  328MOL0     C44147   2.002   3.406   6.360 -0.0501 -0.4998  0.6820
  328MOL0     O44148   2.112   3.329   6.339  0.0213 -0.0730 -0.5973
  328MOL0     C44149   2.238   3.380   6.364  1.1546 -0.2608  0.0948
  328MOL0     C44150   2.340   3.291   6.336 -0.5326  0.0313  0.4882
  328MOL0     C44151   2.476   3.336   6.343  0.7312 -0.0035 -0.2712
  328MOL0     C44152   2.503   3.462   6.392  0.1980 -0.1204  0.2713
  328MOL0     O44153   2.621   3.527   6.406 -0.6506 -0.8741  0.8366
  328MOL0     C44154   2.739   3.461   6.366 -0.4441  0.3179 -0.1666
  328MOL0     C44155   2.849   3.573   6.377 -0.7607 -0.2807 -0.4647
  328MOL0     C44156   2.991   3.529   6.347 -0.1537 -0.1036  1.0598
  328MOL0     C44157   3.094   3.647   6.349 -0.5298  0.5027  0.2130
  328MOL0     C44158   3.182   3.634   6.473  0.6145 -0.0880 -0.0240
  328MOL0     C44159   3.278   3.753   6.488  0.3700 -0.8892 -0.5984
  328MOL0     C44160   3.371   3.720   6.606 -0.5329  0.5345  0.2396
  328MOL0     C44161   3.412   3.839   6.683 -0.1867  0.1639  0.8894
  328MOL0     N44162   3.530   3.897   6.627 -0.3397  1.2304  1.0601
  328MOL0     C44163   3.661   3.880   6.672 -0.0561  0.0483  0.3563
  328MOL0     C44164   3.734   3.976   6.626 -0.1931 -0.3421 -0.0932
  328MOL0     C44165   3.878   3.984   6.641 -0.5857 -0.1151 -0.2995
  328MOL0     C44166   3.924   4.079   6.750  0.4866  0.2834  0.5032
  328MOL0     C44167   3.899   4.010   6.891 -0.2662  0.2468  0.2869
  328MOL0     C44168   4.000   3.902   6.923  0.2689  0.1126 -0.6383
  328MOL0     O44169   3.988   3.860   7.064 -0.5389  0.0315 -0.4922
  328MOL0     C44170   4.042   3.919   7.172 -0.6939 -0.6304 -0.1721
  328MOL0     C44171   4.131   4.025   7.158  0.1312  0.1629 -0.0024
  328MOL0     C44172   4.188   4.104   7.257  0.0731  1.2345  0.1980
  328MOL0     C44173   4.293   4.209   7.226  0.1512 -0.4408 -0.4877
  328MOL0     C44174   4.155   4.075   7.390  0.2894  0.1572 -0.3803
  328MOL0     C44175   4.233   4.106   7.508 -0.4102 -0.8336 -0.5817
  328MOL0     O44176   4.234   4.019   7.610 -0.0152 -0.3302 -0.3690
  328MOL0     C44177   4.297   4.034   7.730  0.0698 -0.0233 -0.8236
  328MOL0     C44178   4.229   3.964   7.837  0.2430  0.6448 -0.3227
  328MOL0     C44179   4.270   3.967   7.966 -0.3175  0.0273  0.3076
  328MOL0     C44180   4.381   4.038   7.997  0.4858 -0.2182 -0.1899
  328MOL0     O44181   4.418   4.040   8.129  1.1725 -0.5260  0.5126
  328MOL0     C44182   4.384   4.158   8.202 -1.2305  0.0317 -0.1088
  328MOL0     C44183   4.449   4.146   8.341  1.0565  0.0042 -0.4980
  328MOL0     C44184   4.398   4.262   8.440 -0.7448  0.5205  0.3207
  328MOL0     C44185   4.482   4.381   8.423  0.1420  0.1601  1.0272
  328MOL0     C44186   4.627   4.376   8.459  0.5843  0.0880  0.2667
  328MOL0     C44187   4.685   4.523   8.453  0.1054 -0.1897  0.2068
  328MOL0     C44188   4.684   4.595   8.317 -0.2293 -0.8737  0.9719
  328MOL0     C44189   4.830   4.643   8.256 -0.7881  0.2842 -0.1061
  328MOL0    Cl44190   4.908   4.770   8.361  0.2630  0.2418  0.1103
  328MOL0     C44191   4.446   4.112   7.901 -1.6547 -0.3977  0.2954
  328MOL0     C44192   4.406   4.108   7.762 -0.3256 -0.0858  0.4116
  328MOL0     O44193   4.299   4.207   7.504 -0.6160 -0.1583 -0.1953
  328MOL0     C44194   4.061   3.974   7.410 -0.8364  0.5167 -0.1077
  328MOL0     C44195   3.998   3.891   7.309 -0.5709  0.2330 -0.4887
  328MOL0     N44196   3.651   4.050   6.542  0.6288 -1.0946 -0.2813
  328MOL0     N44197   3.531   4.013   6.554  0.0111 -0.1209  0.4577
  328MOL0     C44198   2.401   3.537   6.455  0.6648 -0.2617  0.6623
  328MOL0     C44199   2.270   3.499   6.430 -0.6890 -0.1084  0.4698
  328MOL0     C44200   1.887   3.339   6.420 -0.1489 -0.3748  0.7084
  328MOL0     C44201   1.786   3.414   6.468 -0.8395  0.0317 -0.4946
  328MOL0     C44202   1.684   3.354   6.544 -0.5174  0.1859  1.2023
  328MOL0     C44203   1.689   3.214   6.564  0.5105 -0.9446 -1.4342
  328MOL0     O44204   1.604   3.145   6.640  0.4070  0.2394 -0.3662
  328MOL0     C44205   1.471   3.201   6.660 -0.9457  0.1839 -0.3100
  328MOL0     C44206   1.385   3.113   6.754  0.2053  0.1025  0.0471
  328MOL0     C44207   1.230   3.151   6.772  0.1860 -0.2487 -0.5909
  328MOL0     C44208   1.198   3.287   6.837 -0.3506 -0.8797  0.6384
  328MOL0     C44209   1.246   3.407   6.774 -0.4125 -0.1738 -0.5935
  328MOL0     C44210   1.270   3.515   6.725 -0.7382 -0.2188 -0.1623
  328MOL0     C44211   1.795   3.141   6.514 -0.3585 -0.5171 -0.0985
  328MOL0     C44212   1.888   3.207   6.445 -0.2872  0.5737  0.1045
  328MOL0     H44213   2.324   3.196   6.287  0.5115  0.3335 -0.4841
  328MOL0     H44214   2.556   3.271   6.308  0.3819 -0.0537 -0.9798
  328MOL0     H44215   2.761   3.379   6.436 -0.1609 -1.4471 -2.2345
  328MOL0     H44216   2.736   3.428   6.262 -2.9205  0.4260 -0.1814
  328MOL0     H44217   2.827   3.651   6.304  1.6940 -0.4767 -1.5058
  328MOL0     H44218   2.837   3.615   6.478 -3.0056 -0.2254 -0.6920
  328MOL0     H44219   3.026   3.456   6.421 -0.7939 -0.3683  1.1101
  328MOL0     H44220   2.986   3.482   6.248 -1.4160  1.0503  0.5362
  328MOL0     H44221   3.158   3.638   6.261  0.5683  0.9747  0.9344
  328MOL0     H44222   3.043   3.743   6.339 -0.4703  0.3234 -2.7361
  328MOL0     H44223   3.121   3.625   6.563 -0.2881  0.0954 -0.6027
  328MOL0     H44224   3.247   3.546   6.470 -0.9976 -1.4559  2.2070
  328MOL0     H44225   3.330   3.774   6.394 -2.1260  1.2195 -1.6350
  328MOL0     H44226   3.219   3.839   6.520  1.1232 -1.2650  2.0586
  328MOL0     H44227   3.318   3.661   6.680  2.0817 -2.3296  0.0048
  328MOL0     H44228   3.461   3.663   6.582  0.6207  2.7001 -0.9611
  328MOL0     H44229   3.431   3.798   6.783  0.5107 -0.3317  0.5624
  328MOL0     H44230   3.327   3.906   6.697 -2.8122 -2.9880  1.4179
  328MOL0     H44231   3.699   3.797   6.731  0.3427  0.5348  0.7965
  328MOL0     H44232   3.929   3.889   6.660 -1.1089  0.0668  2.3685
  328MOL0     H44233   3.917   4.030   6.549  0.9282 -0.9655 -0.1220
  328MOL0     H44234   3.864   4.170   6.734 -0.7716 -0.6054  0.0024
  328MOL0     H44235   4.030   4.103   6.738 -0.0894  1.2142 -6.1363
  328MOL0     H44236   3.799   3.968   6.904 -1.1986  2.6231  1.5152
  328MOL0     H44237   3.907   4.081   6.975 -3.2064  1.1423 -0.0940
  328MOL0     H44238   4.098   3.946   6.903  0.8533  1.4451  3.8555
  328MOL0     H44239   3.965   3.810   6.874 -1.3955 -0.0389  0.7487
  328MOL0     H44240   4.164   4.064   7.063  0.5351  0.4077  0.2348
  328MOL0     H44241   4.255   4.306   7.259 -0.7145 -0.5524 -1.1186
  328MOL0     H44242   4.391   4.190   7.272  0.1880 -2.6365 -1.3801
  328MOL0     H44243   4.321   4.221   7.121  0.0767 -3.3446 -0.8998
  328MOL0     H44244   4.142   3.900   7.825  0.3787  0.6951 -1.7791
  328MOL0     H44245   4.226   3.919   8.052 -1.0084  1.8395  1.0292
  328MOL0     H44246   4.430   4.246   8.158 -0.4588 -0.5158 -0.4115
  328MOL0     H44247   4.278   4.184   8.208 -0.7458  2.2293 -0.3515
  328MOL0     H44248   4.421   4.047   8.378 -0.4846 -0.3563 -2.4782
  328MOL0     H44249   4.558   4.139   8.337  1.0535 -0.4685  0.1466
  328MOL0     H44250   4.408   4.235   8.546 -0.9791 -0.8093  0.0306
  328MOL0     H44251   4.294   4.291   8.425  0.0217  2.5955 -1.5533
  328MOL0     H44252   4.496   4.419   8.321  1.5225  1.8158  1.8012
  328MOL0     H44253   4.422   4.458   8.471 -2.3648 -0.3881 -0.9599
  328MOL0     H44254   4.688   4.316   8.391  3.4375  0.7974  2.0397
  328MOL0     H44255   4.640   4.348   8.565  0.0348  2.3807  0.9808
  328MOL0     H44256   4.626   4.575   8.529 -1.3464 -1.9031  0.3089
  328MOL0     H44257   4.786   4.516   8.494  0.9682 -0.7703 -1.9056
  328MOL0     H44258   4.619   4.683   8.322  0.9642  0.5004 -3.3985
  328MOL0     H44259   4.646   4.519   8.249 -0.7002  1.0720 -1.0602
  328MOL0     H44260   4.829   4.672   8.150  1.8010 -0.5444 -0.4312
  328MOL0     H44261   4.899   4.558   8.257  1.1084  1.7501  1.5602
  328MOL0     H44262   4.528   4.178   7.928 -0.8851 -2.2699  2.9837
  328MOL0     H44263   4.474   4.145   7.686  0.6350 -0.4030  1.1000
  328MOL0     H44264   4.012   3.962   7.506 -1.2926 -1.9250 -0.5748
  328MOL0     H44265   3.937   3.810   7.346  2.7327 -1.4433  1.8333
  328MOL0     H44266   2.409   3.632   6.507  2.0822  0.6871 -1.1909
  328MOL0     H44267   2.196   3.566   6.474 -1.6267 -0.7082 -0.1470
  328MOL0     H44268   1.779   3.519   6.442 -0.1268  0.6528  1.6838
  328MOL0     H44269   1.602   3.413   6.583  0.8929  0.6795  3.6374
  328MOL0     H44270   1.468   3.304   6.695 -2.7735 -0.1601  0.6884
  328MOL0     H44271   1.408   3.204   6.570 -0.0681 -1.9486 -1.0494
  328MOL0     H44272   1.426   3.108   6.855 -0.0642 -1.1252  0.1100
  328MOL0     H44273   1.376   3.013   6.710  0.0321  0.8193 -1.6125
  328MOL0     H44274   1.183   3.075   6.836 -0.5397  0.1656 -0.6218
  328MOL0     H44275   1.183   3.141   6.674 -1.1094  0.8301 -0.1041
  328MOL0     H44276   1.237   3.296   6.939  0.0736  0.8149  0.3589
  328MOL0     H44277   1.091   3.306   6.856  0.0589  3.4460 -0.1888
  328MOL0     H44278   1.287   3.613   6.685 -0.0799  0.1156  0.8965
  328MOL0     H44279   1.801   3.035   6.540  0.4595 -1.1318 -2.5206
  328MOL0     H44280   1.971   3.143   6.416  1.8307  3.3839 -0.5145
  329MOL0     O44281   9.338   2.386   6.320  0.5469 -0.2131 -0.1004
  329MOL0     C44282   9.269   2.382   6.214 -1.0151 -0.3904 -0.8763
  329MOL0     O44283   9.320   2.323   6.101 -0.6770 -0.3846 -0.4360
  329MOL0     C44284   9.456   2.311   6.061 -0.5164  0.2993  0.6994
  329MOL0     C44285   9.487   2.254   5.935 -0.3414  0.9234  0.0146
  329MOL0     C44286   9.612   2.260   5.883 -1.0487  0.0871 -1.1661
  329MOL0     C44287   9.721   2.320   5.960  0.2057 -0.0619  0.1724
  329MOL0     O44288   9.847   2.341   5.909 -0.4305  0.3808 -0.1177
  329MOL0     C44289   9.870   2.289   5.780 -0.7210 -0.2917 -0.6516
  329MOL0     C44290  10.015   2.312   5.759 -0.0847  0.6485  0.0553
  329MOL0     C44291  10.043   2.257   5.614 -0.3633  0.4245  0.5300
  329MOL0     C44292  10.193   2.266   5.567 -0.1562 -0.2616 -0.5223
  329MOL0     C44293  10.213   2.216   5.419  0.6309 -0.8015 -0.2790
  329MOL0     C44294  10.336   2.285   5.361  0.4171  0.4231  0.5487
  329MOL0     C44295  10.330   2.440   5.326 -0.6527 -0.7459 -0.6631
  329MOL0     C44296  10.209   2.475   5.243  0.1141 -0.2236 -0.5244
  329MOL0     N44297  10.091   2.522   5.322  0.0637 -0.5277 -0.0169
  329MOL0     C44298  10.073   2.607   5.428 -0.3125 -0.0626  0.4367
  329MOL0     C44299   9.940   2.609   5.449 -0.0561 -0.9643 -0.5450
  329MOL0     C44300   9.865   2.697   5.549  0.5523  1.0455 -0.0044
  329MOL0     C44301   9.803   2.823   5.477  0.2767 -0.5664 -0.2072
  329MOL0     C44302   9.826   2.946   5.572 -0.8225 -0.0800  0.1072
  329MOL0     C44303   9.758   3.084   5.545 -0.6705 -0.1395  0.4976
  329MOL0     O44304   9.617   3.061   5.560  0.1613  0.8152 -0.6191
  329MOL0     C44305   9.543   3.147   5.629  0.2146  0.1822  0.0235
  329MOL0     C44306   9.421   3.099   5.666  0.3020  0.0714 -0.1696
  329MOL0     C44307   9.329   3.174   5.729  0.5802 -0.4080  1.1268
  329MOL0     C44308   9.191   3.106   5.768 -0.3330  0.3171  1.0218
  329MOL0     C44309   9.359   3.310   5.765  0.0237 -0.1053 -0.3887
  329MOL0     C44310   9.267   3.410   5.818 -0.4016  0.7526 -0.5075
  329MOL0     O44311   9.140   3.366   5.849 -0.1970  0.0792  0.4659
  329MOL0     C44312   9.044   3.452   5.902  0.1384  0.1151 -1.2802
  329MOL0     C44313   9.057   3.512   6.029  0.4420 -0.4942  0.3929
  329MOL0     C44314   8.950   3.580   6.080 -0.1670  0.2551 -0.0741
  329MOL0     C44315   8.824   3.585   6.004  0.6020  0.3273 -0.2929
  329MOL0     O44316   8.723   3.666   6.061 -0.2598  1.5063  0.0299
  329MOL0     C44317   8.591   3.644   6.001 -0.4830  0.3580 -0.3122
  329MOL0     C44318   8.478   3.698   6.080 -0.4577  0.1048 -0.1416
  329MOL0     C44319   8.345   3.698   5.990 -0.1434  0.1773  1.1717
  329MOL0     C44320   8.233   3.772   6.066 -0.8584  0.2945 -0.8207
  329MOL0     C44321   8.237   3.927   6.065  0.4422  0.5764  0.4326
  329MOL0     C44322   8.143   4.010   6.159 -0.6947  0.9770  0.8883
  329MOL0     C44323   7.992   3.982   6.134  0.0252 -0.2103 -0.1431
  329MOL0     C44324   7.890   4.038   6.231  0.7469 -0.0591  0.6110
  329MOL0    Cl44325   7.915   4.211   6.202  0.1904  0.2377  0.3204
  329MOL0     C44326   8.814   3.519   5.876 -0.6681  0.2407 -0.0615
  329MOL0     C44327   8.930   3.454   5.833  0.2115  0.0228 -0.4939
  329MOL0     O44328   9.308   3.524   5.829 -0.4634 -0.0451 -0.0288
  329MOL0     C44329   9.485   3.363   5.721 -0.0713  0.4317 -0.4588
  329MOL0     C44330   9.576   3.278   5.662 -0.7198  0.1025  0.7479
  329MOL0     N44331   9.878   2.523   5.366  0.0657  0.0677 -0.0546
  329MOL0     N44332   9.971   2.458   5.306 -0.5905 -0.5924 -0.0723
  329MOL0     C44333   9.690   2.383   6.078  0.4790 -0.9490  0.2268
  329MOL0     C44334   9.561   2.377   6.129 -0.2150 -0.8346  0.3737
  329MOL0     C44335   9.136   2.451   6.219  1.1051 -0.4244 -0.6047
  329MOL0     C44336   9.085   2.512   6.337 -0.3556  0.4143 -0.5576
  329MOL0     C44337   8.963   2.577   6.332 -0.2170 -0.0033 -0.2589
  329MOL0     C44338   8.884   2.583   6.217  1.0429 -0.0533  0.6063
  329MOL0     O44339   8.754   2.627   6.243 -0.4173 -0.0420 -0.1989
  329MOL0     C44340   8.654   2.624   6.135  0.7178  0.1999  0.2192
  329MOL0     C44341   8.604   2.487   6.088 -0.3467  0.6158  0.8968
  329MOL0     C44342   8.497   2.487   5.980  0.0934  0.1606  0.5162
  329MOL0     C44343   8.384   2.589   6.007 -0.2793  0.4743  0.4426
  329MOL0     C44344   8.283   2.595   5.907  0.4644  0.6311 -0.6912
  329MOL0     C44345   8.208   2.603   5.807 -0.0922  0.3087  0.0490
  329MOL0     C44346   8.934   2.522   6.097  0.6731  0.1484  0.6220
  329MOL0     C44347   9.062   2.464   6.100  0.4729  0.9580 -0.0636
  329MOL0     H44348   9.398   2.224   5.879 -1.9786  0.0713  2.8687
  329MOL0     H44349   9.630   2.201   5.793 -1.1216 -1.9221  0.0795
  329MOL0     H44350   9.852   2.182   5.790  0.5899 -0.3034  3.3285
  329MOL0     H44351   9.802   2.329   5.704  1.1191 -0.2645 -2.3807
  329MOL0     H44352  10.047   2.416   5.744  1.7415  0.6851  3.2403
  329MOL0     H44353  10.072   2.259   5.836 -1.0517 -1.6890 -0.7548
  329MOL0     H44354  10.005   2.156   5.599  1.0459 -0.3494  1.7445
  329MOL0     H44355   9.982   2.317   5.547  1.1594 -1.0486 -2.3558
  329MOL0     H44356  10.226   2.369   5.583  1.5738 -0.1918 -3.6790
  329MOL0     H44357  10.254   2.205   5.634 -2.3509 -3.5711 -1.2718
  329MOL0     H44358  10.246   2.112   5.416  2.4275 -0.2533 -0.3479
  329MOL0     H44359  10.121   2.232   5.361 -0.5104 -0.4893  1.5241
  329MOL0     H44360  10.409   2.264   5.440 -0.1524  0.4388  1.0927
  329MOL0     H44361  10.359   2.244   5.263 -1.0762 -0.2469  0.4477
  329MOL0     H44362  10.321   2.481   5.427  0.4794  2.8337 -1.8426
  329MOL0     H44363  10.426   2.476   5.287 -0.0139  1.8001  2.7937
  329MOL0     H44364  10.192   2.402   5.164 -0.1463 -1.3930  0.5792
  329MOL0     H44365  10.244   2.563   5.187  1.8254 -1.7797 -2.0182
  329MOL0     H44366  10.145   2.675   5.473 -1.9146  1.8676  0.1855
  329MOL0     H44367   9.797   2.625   5.595  0.3056  0.1244 -1.7147
  329MOL0     H44368   9.947   2.724   5.616  1.4966  0.5768 -0.9399
  329MOL0     H44369   9.702   2.800   5.441  0.7546  0.6311 -2.5793
  329MOL0     H44370   9.858   2.833   5.383 -1.2948  0.8051 -1.0355
  329MOL0     H44371   9.933   2.961   5.552 -1.0941  0.9646 -0.6520
  329MOL0     H44372   9.808   2.908   5.673  0.5786 -2.7458 -0.5338
  329MOL0     H44373   9.780   3.129   5.448 -1.0035 -1.1464 -0.0596
  329MOL0     H44374   9.803   3.157   5.612 -0.8495  1.4551 -1.0485
  329MOL0     H44375   9.406   2.991   5.664  0.9860 -0.0723  1.2426
  329MOL0     H44376   9.160   3.111   5.873 -1.2304 -0.1045  0.7865
  329MOL0     H44377   9.111   3.147   5.705 -1.8844 -0.0193  2.6740
  329MOL0     H44378   9.204   2.998   5.756 -0.9469  0.2841  0.5895
  329MOL0     H44379   9.157   3.505   6.073  1.1824  0.7497 -1.0018
  329MOL0     H44380   8.961   3.635   6.173  1.0850  3.1937 -1.8247
  329MOL0     H44381   8.589   3.703   5.909  0.1284 -0.0842 -0.6136
  329MOL0     H44382   8.570   3.539   5.983 -0.1487  0.3026 -0.3917
  329MOL0     H44383   8.463   3.637   6.170 -0.3912 -2.9325 -2.0760
  329MOL0     H44384   8.499   3.801   6.112  0.3985  0.4195 -1.6317
  329MOL0     H44385   8.318   3.596   5.962 -2.1457  1.2414 -1.0296
  329MOL0     H44386   8.357   3.753   5.897 -2.5568 -1.2683 -0.0769
  329MOL0     H44387   8.134   3.756   6.023  0.3761 -1.1538 -3.3320
  329MOL0     H44388   8.241   3.732   6.168  0.3288  0.6101 -0.7722
  329MOL0     H44389   8.217   3.961   5.963  2.0264  1.9859  0.5575
  329MOL0     H44390   8.343   3.946   6.083  1.3575 -0.7912 -2.8017
  329MOL0     H44391   8.163   3.983   6.263 -1.5094 -0.9168  0.5845
  329MOL0     H44392   8.168   4.112   6.126 -1.9241  0.4352 -2.1142
  329MOL0     H44393   7.978   3.873   6.140  1.7075 -0.3859  1.1199
  329MOL0     H44394   7.967   4.018   6.033 -0.0143  1.9620  0.5883
  329MOL0     H44395   7.913   4.017   6.336 -2.6800 -1.8747  1.1370
  329MOL0     H44396   7.786   4.014   6.207  1.3830 -0.7158 -1.6375
  329MOL0     H44397   8.730   3.522   5.808  2.2268 -0.6373 -4.0784
  329MOL0     H44398   8.934   3.403   5.737 -0.2891  1.4342 -1.2929
  329MOL0     H44399   9.523   3.463   5.737  0.5260 -0.0542  1.3980
  329MOL0     H44400   9.673   3.315   5.629 -1.2893  1.2035  0.2732
  329MOL0     H44401   9.768   2.425   6.140 -0.3242  0.4625  0.3418
  329MOL0     H44402   9.558   2.424   6.227  2.3096 -1.7346  0.9445
  329MOL0     H44403   9.145   2.495   6.426  1.8026 -0.6421 -2.1382
  329MOL0     H44404   8.915   2.612   6.423  0.4296 -0.9009  0.4505
  329MOL0     H44405   8.572   2.687   6.171 -1.7767 -1.3370 -2.2794
  329MOL0     H44406   8.687   2.671   6.041  1.1541  2.8236  1.5991
  329MOL0     H44407   8.571   2.435   6.179 -1.3263  1.2204  0.8934
  329MOL0     H44408   8.685   2.425   6.048 -1.5475 -0.5448  0.1842
  329MOL0     H44409   8.458   2.384   5.979  0.5613 -0.1108 -2.9770
  329MOL0     H44410   8.541   2.514   5.883 -1.9885 -2.5144 -1.3451
  329MOL0     H44411   8.429   2.689   5.997  0.2309  0.2261  0.2385
  329MOL0     H44412   8.340   2.582   6.107 -0.6181 -0.3196  0.2436
  329MOL0     H44413   8.133   2.600   5.730 -2.2733  1.7149  1.9612
  329MOL0     H44414   8.872   2.529   6.008  3.1809  3.7901 -1.0939
  329MOL0     H44415   9.086   2.412   6.008  0.3612 -0.0407  0.4607
  330MOL0     O44416   7.405   1.167   2.701  0.2492  0.2891  0.4129
  330MOL0     C44417   7.390   1.046   2.713  0.4066 -0.6147  0.6973
  330MOL0     O44418   7.270   0.983   2.680  0.7770 -0.5551  0.2555
  330MOL0     C44419   7.155   1.046   2.638 -0.2642 -0.3483  0.0622
  330MOL0     C44420   7.124   1.074   2.508 -1.1969  0.5248  0.3677
  330MOL0     C44421   6.991   1.086   2.472  0.2484 -0.1616 -0.1974
  330MOL0     C44422   6.886   1.098   2.558  0.9429  0.6633 -1.4299
  330MOL0     O44423   6.759   1.128   2.511 -0.3373 -0.1990  0.0327
  330MOL0     C44424   6.650   1.168   2.596  0.2336 -0.8574  1.7638
  330MOL0     C44425   6.535   1.185   2.501 -0.5393  0.3324  0.4271
  330MOL0     C44426   6.395   1.197   2.568 -0.4974  0.6613 -0.2599
  330MOL0     C44427   6.371   1.334   2.636  0.5884 -0.8580 -0.5016
  330MOL0     C44428   6.223   1.345   2.673  0.0936 -0.5438  0.4486
  330MOL0     C44429   6.185   1.474   2.742  0.4451 -0.6903  0.3698
  330MOL0     C44430   6.032   1.487   2.742  0.2506  1.3626 -0.0647
  330MOL0     C44431   5.983   1.595   2.839  1.0417 -0.5005  0.1781
  330MOL0     N44432   5.839   1.631   2.825 -0.3479  0.5016  0.1491
  330MOL0     C44433   5.783   1.754   2.771  0.0637  1.0167 -0.6081
  330MOL0     C44434   5.649   1.737   2.789 -0.2463  0.6001  0.1388
  330MOL0     C44435   5.560   1.818   2.717  0.2350  0.4914 -0.1257
  330MOL0     C44436   5.467   1.912   2.805  0.5245 -0.4169  0.0755
  330MOL0     C44437   5.391   1.830   2.908 -0.3660 -0.0697  0.2840
  330MOL0     C44438   5.312   1.709   2.852 -0.7161  0.0735 -0.8522
  330MOL0     O44439   5.218   1.763   2.760  0.5672  0.5470  0.5018
  330MOL0     C44440   5.119   1.841   2.806  0.0553 -0.7416 -0.2014
  330MOL0     C44441   5.072   1.841   2.941  1.3086  0.3821  0.1310
  330MOL0     C44442   4.956   1.911   2.977  0.2846 -0.6749  0.2646
  330MOL0     C44443   4.917   1.902   3.122 -0.5112 -1.1394 -0.0119
  330MOL0     C44444   4.885   1.995   2.885  0.2871  0.4806 -0.3566
  330MOL0     C44445   4.779   2.083   2.932  0.3980 -0.2273 -0.0298
  330MOL0     O44446   4.763   2.197   2.852  0.5017  0.0869  0.7474
  330MOL0     C44447   4.667   2.283   2.894 -0.3495  0.9083 -0.0055
  330MOL0     C44448   4.705   2.397   2.969 -0.8276 -0.0556 -0.4453
  330MOL0     C44449   4.608   2.484   3.023  0.0842  0.5242 -0.4811
  330MOL0     C44450   4.475   2.457   2.999  0.6035 -0.4434 -0.7421
  330MOL0     O44451   4.369   2.537   3.036  0.3503 -0.4654  0.2400
  330MOL0     C44452   4.389   2.632   3.132 -0.2168  0.0827 -0.3941
  330MOL0     C44453   4.278   2.699   3.204  1.1193 -0.1129 -0.0223
  330MOL0     C44454   4.197   2.595   3.290  0.6947 -0.0541  0.0351
  330MOL0     C44455   4.085   2.668   3.354  0.8305  0.2257 -0.3759
  330MOL0     C44456   3.958   2.697   3.254 -0.2890 -0.4358 -0.2890
  330MOL0     C44457   3.856   2.576   3.232 -0.2789 -0.2188 -0.5219
  330MOL0     C44458   3.732   2.627   3.166  0.7298 -0.1790 -0.4653
  330MOL0     C44459   3.614   2.523   3.172  0.1465  0.4251 -0.2061
  330MOL0    Cl44460   3.498   2.575   3.049  0.3734  0.2011  0.5423
  330MOL0     C44461   4.441   2.351   2.914  0.8690  0.8641  0.1494
  330MOL0     C44462   4.534   2.259   2.866 -0.8658 -0.1544 -0.1570
  330MOL0     O44463   4.703   2.041   3.026  0.1368 -0.2800  0.1959
  330MOL0     C44464   4.932   1.984   2.748  0.3902  0.5632  0.4419
  330MOL0     C44465   5.047   1.909   2.707 -0.0852  0.6005 -0.5266
  330MOL0     N44466   5.625   1.606   2.838  0.1349 -0.5017  0.4554
  330MOL0     N44467   5.736   1.546   2.866  0.3199 -0.0688  0.9516
  330MOL0     C44468   6.908   1.085   2.692 -1.0383 -0.4911  0.4598
  330MOL0     C44469   7.043   1.052   2.733 -0.0769 -0.2520  0.2925
  330MOL0     C44470   7.492   0.965   2.786  0.1085  0.3517 -0.0548
  330MOL0     C44471   7.628   1.008   2.789 -0.2906 -0.0334  0.8684
  330MOL0     C44472   7.730   0.931   2.859 -0.9785 -0.3673  0.0238
  330MOL0     C44473   7.696   0.802   2.900 -1.0700  0.1175 -0.3620
  330MOL0     O44474   7.787   0.709   2.953  1.0579  0.5779  0.4019
  330MOL0     C44475   7.905   0.749   3.015  0.1812  0.1395 -0.1678
  330MOL0     C44476   7.952   0.635   3.106 -0.4755  0.4627  0.3212
  330MOL0     C44477   8.026   0.532   3.027  0.2530 -0.1728 -0.1099
  330MOL0     C44478   8.079   0.400   3.088 -0.0369 -0.4688 -0.3151
  330MOL0     C44479   7.979   0.299   3.112 -0.0734  0.1467  0.6934
  330MOL0     C44480   7.903   0.203   3.137 -0.1457 -0.0588  0.7060
  330MOL0     C44481   7.567   0.760   2.886 -0.0832 -0.2247 -0.0128
  330MOL0     C44482   7.464   0.842   2.833  0.3331 -0.6704 -0.6500
  330MOL0     H44483   7.204   1.075   2.435 -0.7975 -2.8435  0.5976
  330MOL0     H44484   6.958   1.092   2.369 -3.3226 -0.3168  0.8096
  330MOL0     H44485   6.626   1.096   2.675  0.3049 -2.4502  0.3858
  330MOL0     H44486   6.668   1.264   2.645  0.8671  0.9424 -1.6765
  330MOL0     H44487   6.553   1.265   2.429  0.6349  0.8355  1.2490
  330MOL0     H44488   6.537   1.098   2.436  5.6296  2.6750 -3.4072
  330MOL0     H44489   6.319   1.181   2.491  0.5411 -0.3566 -1.1199
  330MOL0     H44490   6.391   1.119   2.644 -1.2239  1.2773  0.3428
  330MOL0     H44491   6.437   1.343   2.723  3.7895 -1.5899 -2.6755
  330MOL0     H44492   6.378   1.414   2.562  0.3154 -0.7494 -0.4100
  330MOL0     H44493   6.165   1.351   2.580  3.1127  1.3680 -1.4835
  330MOL0     H44494   6.203   1.258   2.736  1.6061 -1.4359 -0.2480
  330MOL0     H44495   6.222   1.469   2.845  1.9330 -1.8461 -0.1912
  330MOL0     H44496   6.235   1.554   2.688  0.0204 -0.8608 -0.2869
  330MOL0     H44497   5.997   1.510   2.641  1.5327  0.4765 -0.7307
  330MOL0     H44498   5.994   1.392   2.779  2.0831  0.7732  0.4304
  330MOL0     H44499   6.049   1.680   2.824  1.1791 -0.5524  0.4716
  330MOL0     H44500   5.991   1.566   2.944 -1.6695 -0.0069  0.6040
  330MOL0     H44501   5.840   1.833   2.724  4.3307 -1.8511 -0.8020
  330MOL0     H44502   5.620   1.888   2.658 -0.0036  0.8063  0.0002
  330MOL0     H44503   5.504   1.761   2.641  2.3303 -0.9166 -0.6885
  330MOL0     H44504   5.402   1.956   2.728 -1.0965 -2.0163  0.4857
  330MOL0     H44505   5.527   1.987   2.858  1.1936  1.0133 -2.4750
  330MOL0     H44506   5.320   1.896   2.960 -1.3043  1.9571 -3.2468
  330MOL0     H44507   5.457   1.806   2.992 -2.3211 -1.4710  1.5076
  330MOL0     H44508   5.265   1.653   2.933  0.9613 -0.3577 -0.1420
  330MOL0     H44509   5.375   1.630   2.808  0.8539  1.4750 -1.2382
  330MOL0     H44510   5.113   1.785   3.025  2.2909  1.2337  0.2387
  330MOL0     H44511   4.825   1.844   3.136 -0.2453 -2.1929 -2.0902
  330MOL0     H44512   4.993   1.858   3.187 -1.9579 -3.7796  0.0402
  330MOL0     H44513   4.912   2.004   3.160  1.4364 -1.9061  2.5158
  330MOL0     H44514   4.809   2.417   2.992 -1.4993  4.0093 -0.1077
  330MOL0     H44515   4.639   2.566   3.089  1.8261  0.5090 -1.2213
  330MOL0     H44516   4.455   2.585   3.206 -2.2113  0.5400  1.7819
  330MOL0     H44517   4.449   2.714   3.091 -1.3434 -0.3439 -3.1376
  330MOL0     H44518   4.322   2.756   3.286  0.0842  0.3220  0.2479
  330MOL0     H44519   4.212   2.749   3.132 -0.7733 -0.2477  1.5441
  330MOL0     H44520   4.267   2.562   3.367  0.7053  0.0324  0.0633
  330MOL0     H44521   4.173   2.504   3.234 -1.3228  0.6093 -0.2447
  330MOL0     H44522   4.043   2.607   3.435 -0.3158  0.8476 -0.4744
  330MOL0     H44523   4.115   2.762   3.401  0.7863  0.0706 -0.0365
  330MOL0     H44524   3.996   2.740   3.161  1.5017 -1.3023  0.0025
  330MOL0     H44525   3.901   2.774   3.305  0.2460 -0.5258  0.4698
  330MOL0     H44526   3.910   2.502   3.173  0.4636  1.6547 -2.3170
  330MOL0     H44527   3.822   2.540   3.329 -0.4546  2.0608  0.3279
  330MOL0     H44528   3.765   2.650   3.064  3.5528 -2.6135 -0.2373
  330MOL0     H44529   3.692   2.718   3.213 -0.6015 -0.8664 -0.2386
  330MOL0     H44530   3.565   2.521   3.270  1.2636  0.3349  0.3687
  330MOL0     H44531   3.640   2.418   3.161 -1.7470 -0.3620  1.9606
  330MOL0     H44532   4.342   2.322   2.879  1.9205  0.0134 -2.3134
  330MOL0     H44533   4.518   2.177   2.797  2.0410 -0.4494 -0.6068
  330MOL0     H44534   4.866   2.033   2.678 -1.2152  0.1263  1.5781
  330MOL0     H44535   5.075   1.904   2.602  0.4696  1.2791 -0.4200
  330MOL0     H44536   6.839   1.097   2.775 -0.8811 -4.5131  1.3822
  330MOL0     H44537   7.069   1.045   2.838  0.6312  4.1931  0.6012
  330MOL0     H44538   7.651   1.098   2.732 -1.1465 -1.4930 -1.9316
  330MOL0     H44539   7.831   0.969   2.866 -0.8663 -0.9207  3.4089
  330MOL0     H44540   7.976   0.769   2.934  0.3968 -0.7235 -0.1983
  330MOL0     H44541   7.884   0.838   3.076 -1.4633 -1.3888  1.6525
  330MOL0     H44542   7.859   0.593   3.144 -1.3862 -0.9287 -3.0626
  330MOL0     H44543   8.005   0.670   3.195 -3.2278 -1.3008  2.8612
  330MOL0     H44544   8.114   0.584   2.989 -0.4892  1.3748  0.1945
  330MOL0     H44545   7.975   0.509   2.933  1.4453 -5.2865  0.2069
  330MOL0     H44546   8.121   0.422   3.187  0.6814 -2.9022 -0.0188
  330MOL0     H44547   8.157   0.368   3.019  0.0526 -1.2555  0.1439
  330MOL0     H44548   7.846   0.114   3.151  2.7249 -2.5607 -1.9198
  330MOL0     H44549   7.550   0.655   2.907  4.7725 -0.6372  3.4378
  330MOL0     H44550   7.360   0.812   2.824 -0.3623  0.7836  1.6661
  331MOL0     O44551   4.143   0.321   1.013 -0.3650  0.5300  0.1220
  331MOL0     C44552   4.132   0.280   1.129 -0.2477  0.2469 -0.6389
  331MOL0     O44553   4.037   0.293   1.216 -0.1766 -0.9173 -0.4386
  331MOL0     C44554   3.926   0.370   1.182  0.7205 -0.1726 -0.7887
  331MOL0     C44555   3.789   0.330   1.216 -0.8356  0.6046  0.5990
  331MOL0     C44556   3.676   0.414   1.196  0.0204 -0.2440  0.0843
  331MOL0     C44557   3.688   0.546   1.146 -0.8025 -0.3709  0.5521
  331MOL0     O44558   3.598   0.637   1.113  0.3339  0.3376  0.4863
  331MOL0     C44559   3.462   0.603   1.100  0.0980  0.9226  0.6710
  331MOL0     C44560   3.393   0.605   1.234  1.2580 -0.2553 -0.2599
  331MOL0     C44561   3.250   0.673   1.226 -0.3528 -0.7150  0.4774
  331MOL0     C44562   3.158   0.579   1.166  0.4098 -0.0668 -0.2437
  331MOL0     C44563   3.012   0.630   1.165  0.0806 -0.2775 -0.3268
  331MOL0     C44564   3.001   0.762   1.095  0.8816 -0.5077  0.5472
  331MOL0     C44565   2.869   0.788   1.029 -0.4666 -0.4486 -0.8576
  331MOL0     C44566   2.849   0.710   0.898 -0.1082  1.0931  0.5829
  331MOL0     N44567   2.735   0.757   0.812  1.0786  0.0493 -0.4676
  331MOL0     C44568   2.614   0.701   0.781  0.3465 -0.3682 -1.0044
  331MOL0     C44569   2.554   0.786   0.703  0.3635 -0.2508  0.6553
  331MOL0     C44570   2.420   0.746   0.651  0.1742  0.7358  0.3926
  331MOL0     C44571   2.415   0.773   0.502  0.0407 -0.9643 -0.6046
  331MOL0     C44572   2.280   0.739   0.446 -0.0342 -0.0890 -0.5663
  331MOL0     C44573   2.270   0.588   0.414  0.6917 -0.6552 -0.1106
  331MOL0     O44574   2.131   0.548   0.420  0.2168 -0.2479  0.9301
  331MOL0     C44575   2.050   0.573   0.311  0.6883 -0.6510  0.0485
  331MOL0     C44576   2.094   0.565   0.178 -0.2878 -0.0824 -0.4699
  331MOL0     C44577   1.998   0.558   0.073  0.0557  0.0359 -0.0037
  331MOL0     C44578   2.057   0.534  -0.063  0.1111 -0.2014  0.5811
  331MOL0     C44579   1.861   0.564   0.097  0.2121  0.0127  0.5555
  331MOL0     C44580   1.765   0.569  -0.014  0.4798 -0.0056  0.3663
  331MOL0     O44581   1.788   0.501  -0.130  0.2848 -0.6734  0.1972
  331MOL0     C44582   1.682   0.487  -0.215 -0.2709 -0.9242 -0.3830
  331MOL0     C44583   1.677   0.542  -0.353 -0.4452  0.8420 -0.0640
  331MOL0     C44584   1.571   0.500  -0.440  0.6559  0.3618 -0.5077
  331MOL0     C44585   1.463   0.415  -0.392 -0.8376  0.4196 -0.7132
  331MOL0     O44586   1.346   0.375  -0.452 -0.3500 -1.0735 -0.2358
  331MOL0     C44587   1.359   0.330  -0.584 -0.5727  0.2474  0.5449
  331MOL0     C44588   1.473   0.218  -0.598  0.8479  0.5354  0.4953
  331MOL0     C44589   1.467   0.167  -0.748  0.8705 -0.1558 -0.7556
  331MOL0     C44590   1.560   0.049  -0.760 -0.4290  0.2092  0.3535
  331MOL0     C44591   1.555  -0.010  -0.905 -0.4544 -0.1377  0.8621
  331MOL0     C44592   1.448  -0.119  -0.901 -0.4458 -0.1960  0.0778
  331MOL0     C44593   1.409  -0.185  -1.029  0.2613 -0.1428 -0.1707
  331MOL0     C44594   1.533  -0.238  -1.101  0.3693 -0.2755 -0.7033
  331MOL0    Cl44595   1.489  -0.304  -1.267  0.1764 -0.1584  0.0338
  331MOL0     C44596   1.470   0.368  -0.257 -0.4301  0.8808  0.4490
  331MOL0     C44597   1.571   0.416  -0.165 -0.1286  0.9676  0.0357
  331MOL0     O44598   1.673   0.659  -0.005 -0.2613 -0.6069  0.3242
  331MOL0     C44599   1.821   0.591   0.231  0.9314  0.0725 -0.2771
  331MOL0     C44600   1.911   0.588   0.336 -0.0222  0.7528 -1.4801
  331MOL0     N44601   2.630   0.902   0.679  0.4099  0.9398 -0.2878
  331MOL0     N44602   2.740   0.885   0.754 -0.3507  0.1881 -0.3833
  331MOL0     C44603   3.818   0.586   1.110  0.1647  0.8109  0.1971
  331MOL0     C44604   3.938   0.504   1.125  0.3009  0.4615 -0.6630
  331MOL0     C44605   4.265   0.240   1.199  1.1473  0.8722 -0.1378
  331MOL0     C44606   4.253   0.145   1.304  0.1790  0.4122 -0.6141
  331MOL0     C44607   4.369   0.100   1.374  0.9011  1.2611 -0.8678
  331MOL0     C44608   4.500   0.138   1.336  1.1523 -0.6274  0.2230
  331MOL0     O44609   4.614   0.102   1.402 -0.1663 -0.2240  0.1531
  331MOL0     C44610   4.606   0.059   1.534 -0.2040  0.0320 -0.0499
  331MOL0     C44611   4.732   0.095   1.615 -0.1321 -0.1776 -0.1847
  331MOL0     C44612   4.866   0.034   1.572  0.2090  0.1675  0.0633
  331MOL0     C44613   4.893  -0.003   1.428  0.0806  0.1201  0.4695
  331MOL0     C44614   4.920   0.122   1.352 -0.6955  1.0447  0.2423
  331MOL0     C44615   4.944   0.220   1.288 -0.3041  0.9003  0.6037
  331MOL0     C44616   4.508   0.233   1.233 -0.8912 -0.1032  0.6244
  331MOL0     C44617   4.397   0.281   1.167 -1.3005 -0.2736  0.5626
  331MOL0     H44618   3.766   0.236   1.266 -2.5318  0.4539 -0.4123
  331MOL0     H44619   3.588   0.368   1.240  2.1009 -1.8207  2.9238
  331MOL0     H44620   3.415   0.681   1.039 -0.8529  1.2977  1.8534
  331MOL0     H44621   3.460   0.504   1.053  1.6948  0.8064  0.7818
  331MOL0     H44622   3.388   0.502   1.270 -2.7053  0.9695  3.6303
  331MOL0     H44623   3.453   0.654   1.312  0.4985 -0.2116  0.3106
  331MOL0     H44624   3.217   0.704   1.326 -0.3675 -1.9547  0.8656
  331MOL0     H44625   3.260   0.764   1.165  1.9689  0.0421  1.8461
  331MOL0     H44626   3.193   0.560   1.064  1.7344  3.5518 -0.6130
  331MOL0     H44627   3.155   0.482   1.216 -1.3530  0.7399  1.2905
  331MOL0     H44628   2.943   0.550   1.136 -0.3944 -0.9338  2.3229
  331MOL0     H44629   2.981   0.644   1.269 -0.3578 -0.4930 -0.4263
  331MOL0     H44630   3.007   0.837   1.174  4.0827 -4.2266  4.3629
  331MOL0     H44631   3.087   0.783   1.031  0.7628  0.8514  0.8075
  331MOL0     H44632   2.781   0.774   1.093 -1.3040 -1.9414 -2.2243
  331MOL0     H44633   2.877   0.893   1.000 -1.9304  0.9889  3.2926
  331MOL0     H44634   2.847   0.603   0.923  1.9386  0.4432 -1.6295
  331MOL0     H44635   2.939   0.731   0.839  1.4835 -1.7999  1.7531
  331MOL0     H44636   2.571   0.606   0.810  1.1329 -0.1447  1.0089
  331MOL0     H44637   2.401   0.643   0.682 -1.1432  0.9856  0.4629
  331MOL0     H44638   2.348   0.805   0.707  0.9333  2.9539 -0.8499
  331MOL0     H44639   2.487   0.714   0.444  0.9979 -0.9081  0.4906
  331MOL0     H44640   2.431   0.880   0.485 -0.2733 -1.1850 -2.6286
  331MOL0     H44641   2.262   0.803   0.359  1.3249 -0.7473 -1.3596
  331MOL0     H44642   2.207   0.755   0.525 -0.3589 -1.2354 -0.6188
  331MOL0     H44643   2.320   0.529   0.491  1.0241  1.8356  1.7274
  331MOL0     H44644   2.326   0.571   0.321  0.9310  1.5204 -0.4234
  331MOL0     H44645   2.200   0.547   0.163  0.0018 -0.4069  1.6902
  331MOL0     H44646   2.018   0.442  -0.108 -0.0865  1.6091 -3.4502
  331MOL0     H44647   2.023   0.620  -0.123 -0.7439 -0.5359  0.5644
  331MOL0     H44648   2.166   0.531  -0.067  0.1944  1.1220  1.3244
  331MOL0     H44649   1.756   0.606  -0.392 -2.8298  1.9567 -3.5379
  331MOL0     H44650   1.575   0.534  -0.543  0.9485  0.2402 -0.5371
  331MOL0     H44651   1.264   0.293  -0.623  0.2993  2.1587 -4.1528
  331MOL0     H44652   1.398   0.412  -0.645  1.7944 -0.0771  1.5173
  331MOL0     H44653   1.576   0.247  -0.574  2.3700 -0.8813 -3.4128
  331MOL0     H44654   1.438   0.144  -0.526 -0.0037  2.8011  2.5217
  331MOL0     H44655   1.508   0.247  -0.811  1.7011 -0.1758 -0.2649
  331MOL0     H44656   1.366   0.142  -0.779  1.2547 -0.1470 -2.0647
  331MOL0     H44657   1.661   0.086  -0.740 -0.2841  1.5208 -2.3594
  331MOL0     H44658   1.531  -0.034  -0.694 -0.5736  0.0410  0.0804
  331MOL0     H44659   1.647  -0.063  -0.929 -1.5258 -1.1508 -1.3282
  331MOL0     H44660   1.533   0.069  -0.977  2.5840  2.7930  2.8555
  331MOL0     H44661   1.485  -0.199  -0.837  2.9416  1.4292  0.4306
  331MOL0     H44662   1.353  -0.076  -0.869  0.3528  1.6613  0.0911
  331MOL0     H44663   1.361  -0.115  -1.098  0.5952 -0.5996 -0.8854
  331MOL0     H44664   1.342  -0.271  -1.015  0.8189 -0.9071 -1.8760
  331MOL0     H44665   1.571  -0.321  -1.040  0.2330  0.9297  1.1073
  331MOL0     H44666   1.607  -0.158  -1.100 -0.3280  0.4255  1.5122
  331MOL0     H44667   1.400   0.290  -0.228 -0.5639  1.2261  1.0761
  331MOL0     H44668   1.560   0.374  -0.065  1.8540  0.9168  0.2688
  331MOL0     H44669   1.713   0.595   0.246  1.1623 -0.9241  2.0958
  331MOL0     H44670   1.865   0.595   0.434 -3.1664 -0.3111 -2.7201
  331MOL0     H44671   3.832   0.683   1.063 -2.5448  1.3531  0.3568
  331MOL0     H44672   4.034   0.540   1.089  0.5844  1.2469  0.7970
  331MOL0     H44673   4.158   0.099   1.327 -0.0389 -0.0681 -2.3350
  331MOL0     H44674   4.352   0.028   1.453 -0.4242  1.7011 -0.7330
  331MOL0     H44675   4.537   0.119   1.594  2.1532 -1.4133  4.5913
  331MOL0     H44676   4.605  -0.049   1.551  1.9672  0.3297  2.8801
  331MOL0     H44677   4.715   0.067   1.719  0.8699  2.5041  0.7997
  331MOL0     H44678   4.753   0.202   1.612 -2.7404  0.5705  3.1418
  331MOL0     H44679   4.866  -0.064   1.621  3.0379  0.6980  1.3277
  331MOL0     H44680   4.944   0.099   1.611  0.4649  0.1781 -0.4579
  331MOL0     H44681   4.810  -0.053   1.379  0.4840  0.1655 -0.2750
  331MOL0     H44682   4.977  -0.073   1.432 -1.1485 -1.3510  3.0186
  331MOL0     H44683   4.959   0.291   1.209  4.5757  0.2782  0.6230
  331MOL0     H44684   4.602   0.281   1.207 -2.4342  1.2201 -3.2060
  331MOL0     H44685   4.405   0.363   1.096 -1.1665  0.6875  1.6496
  332MOL0     O44686   7.960   7.907   2.348 -0.0459 -0.6973  0.0412
  332MOL0     C44687   7.844   7.883   2.323  0.9209  0.7800 -0.5825
  332MOL0     O44688   7.744   7.847   2.415 -1.2749  0.9673  0.7064
  332MOL0     C44689   7.796   7.865   2.541  0.7197 -0.1822  0.3377
  332MOL0     C44690   7.873   7.771   2.603 -0.4353  0.1500 -0.2793
  332MOL0     C44691   7.913   7.784   2.737  0.3891  0.3435 -0.1459
  332MOL0     C44692   7.874   7.893   2.815  0.6372 -0.0339  1.0812
  332MOL0     O44693   7.882   7.879   2.948 -0.2694 -0.4760 -0.6909
  332MOL0     C44694   7.972   7.983   3.010  0.5853  0.1522  0.1963
  332MOL0     C44695   7.951   7.977   3.163  0.6783  0.2830  0.2316
  332MOL0     C44696   8.028   8.076   3.247 -0.7983 -1.2217  0.1867
  332MOL0     C44697   8.174   8.040   3.256 -0.5940  0.4640 -0.5009
  332MOL0     C44698   8.255   8.129   3.356 -0.1844 -0.3703  0.6638
  332MOL0     C44699   8.193   8.139   3.494  0.0705  0.4251  0.2819
  332MOL0     C44700   8.302   8.169   3.601  0.3771 -1.3356 -0.3237
  332MOL0     C44701   8.380   8.302   3.559  0.0223  0.5806  0.0497
  332MOL0     N44702   8.490   8.353   3.649 -0.5359 -0.7300 -0.1426
  332MOL0     C44703   8.628   8.314   3.664 -0.4726  0.1103  0.3682
  332MOL0     C44704   8.668   8.402   3.760 -0.1510  1.1021  0.2431
  332MOL0     C44705   8.808   8.417   3.811 -0.9558 -0.4791 -0.7496
  332MOL0     C44706   8.854   8.559   3.809 -1.2589 -1.2057  0.1549
  332MOL0     C44707   9.001   8.568   3.847 -0.5828  0.1737 -0.0992
  332MOL0     C44708   9.049   8.718   3.854  0.4861 -0.9825 -0.4661
  332MOL0     O44709   9.197   8.721   3.848  0.3882  1.3378  0.4099
  332MOL0     C44710   9.280   8.637   3.928  0.6989  0.0919  0.4581
  332MOL0     C44711   9.279   8.634   4.068  0.2564 -0.3638 -0.7352
  332MOL0     C44712   9.369   8.568   4.144 -1.0770  0.4139  1.0031
  332MOL0     C44713   9.352   8.573   4.290  0.1129 -0.0719  0.2775
  332MOL0     C44714   9.469   8.483   4.075  0.9718 -0.3485 -0.0917
  332MOL0     C44715   9.568   8.410   4.150  0.0515 -0.5890 -0.0071
  332MOL0     O44716   9.622   8.466   4.264  0.3296  0.1988  0.7619
  332MOL0     C44717   9.733   8.402   4.314  0.2355 -0.7591  0.3666
  332MOL0     C44718   9.846   8.372   4.238  0.4483  0.0516 -0.1497
  332MOL0     C44719   9.954   8.304   4.301  0.5908 -1.5797  0.5128
  332MOL0     C44720   9.946   8.259   4.430 -0.1034 -0.0326 -0.4873
  332MOL0     O44721  10.058   8.183   4.478 -0.2933 -0.1914 -0.6990
  332MOL0     C44722  10.046   8.119   4.610  1.2078  0.4242 -0.3381
  332MOL0     C44723  10.154   8.017   4.624  0.0373 -0.7783  0.8149
  332MOL0     C44724  10.151   7.956   4.763  0.4526  0.0528  0.2947
  332MOL0     C44725  10.295   7.903   4.789  0.3364 -0.8967 -0.1294
  332MOL0     C44726  10.316   7.894   4.937 -0.6063  0.4607 -0.1072
  332MOL0     C44727  10.460   7.898   4.987  0.0114 -0.4341 -0.1834
  332MOL0     C44728  10.469   7.826   5.123 -0.9356 -1.0824  1.0120
  332MOL0     C44729  10.619   7.803   5.166  0.1039 -0.3934 -1.1110
  332MOL0    Cl44730  10.626   7.695   5.312  0.0787  0.0247  0.3165
  332MOL0     C44731   9.836   8.295   4.508 -1.0011 -0.0010  0.2072
  332MOL0     C44732   9.736   8.377   4.450  0.1916 -0.3758 -0.7766
  332MOL0     O44733   9.603   8.305   4.095 -0.1542 -0.4556 -0.2176
  332MOL0     C44734   9.466   8.482   3.934 -0.1662  0.4625  0.1437
  332MOL0     C44735   9.375   8.556   3.863 -0.5726  1.0276 -0.3171
  332MOL0     N44736   8.568   8.487   3.799 -0.0255  0.1361  0.0921
  332MOL0     N44737   8.455   8.454   3.735 -0.0572 -0.6922  0.5599
  332MOL0     C44738   7.805   7.996   2.755  0.0840 -0.2260  0.2681
  332MOL0     C44739   7.753   7.974   2.620 -0.5611  0.3702 -0.0016
  332MOL0     C44740   7.809   7.864   2.180  0.5017 -0.1797  0.3487
  332MOL0     C44741   7.673   7.840   2.141 -0.1582  0.2917  0.1282
  332MOL0     C44742   7.642   7.827   2.005 -0.3302  0.2138  0.5083
  332MOL0     C44743   7.736   7.827   1.907 -0.7837 -0.0982 -0.5817
  332MOL0     O44744   7.694   7.814   1.775 -0.0895  0.1738  0.1706
  332MOL0     C44745   7.795   7.761   1.684  0.6798  0.4660  0.4548
  332MOL0     C44746   7.828   7.624   1.722 -0.1417  0.7399  0.4932
  332MOL0     C44747   7.697   7.540   1.700  0.0089  0.4981  1.1512
  332MOL0     C44748   7.708   7.401   1.751 -0.2906 -0.4851  0.6280
  332MOL0     C44749   7.811   7.310   1.695  0.3417  0.2158 -0.0124
  332MOL0     C44750   7.874   7.239   1.624 -0.0553 -0.8169  0.7082
  332MOL0     C44751   7.873   7.864   1.941  0.0057  0.9617  0.2224
  332MOL0     C44752   7.908   7.868   2.077 -0.3679  0.2026 -0.1366
  332MOL0     H44753   7.917   7.681   2.563 -3.8099 -1.2704 -1.0823
  332MOL0     H44754   7.955   7.700   2.792 -1.0499  0.1387  0.6937
  332MOL0     H44755   8.078   7.970   2.987  0.6768  2.4124 -0.9346
  332MOL0     H44756   7.948   8.084   2.976 -0.9592 -1.3794 -3.8546
  332MOL0     H44757   7.844   7.992   3.179 -0.2586 -1.1817 -3.5672
  332MOL0     H44758   7.970   7.876   3.200 -1.1958 -0.5286 -0.8834
  332MOL0     H44759   8.019   8.174   3.199 -0.3251 -0.0182  2.3915
  332MOL0     H44760   7.989   8.085   3.349  1.3441  4.0309  0.8926
  332MOL0     H44761   8.173   7.941   3.301 -1.1509  0.5360 -0.3472
  332MOL0     H44762   8.209   8.054   3.153  2.8571 -2.6470  0.0586
  332MOL0     H44763   8.356   8.087   3.368  0.3226  0.9994  1.4380
  332MOL0     H44764   8.264   8.228   3.311 -1.5591 -1.3920 -2.0697
  332MOL0     H44765   8.123   8.222   3.483  1.4482  1.3189 -2.6240
  332MOL0     H44766   8.139   8.046   3.515 -1.0183  1.0830  0.4837
  332MOL0     H44767   8.258   8.164   3.701 -1.7623 -2.6549 -1.2537
  332MOL0     H44768   8.380   8.093   3.598 -0.4080 -2.1411 -1.8808
  332MOL0     H44769   8.315   8.389   3.548  0.8687  1.5083  1.9863
  332MOL0     H44770   8.423   8.282   3.461  2.4116  0.3319  1.0824
  332MOL0     H44771   8.683   8.248   3.597 -1.5383  0.7179 -1.1476
  332MOL0     H44772   8.817   8.385   3.915  1.2037  0.0536 -0.7160
  332MOL0     H44773   8.873   8.360   3.744  1.3758  3.1162 -1.8950
  332MOL0     H44774   8.793   8.617   3.880 -1.1606  0.3704 -1.0042
  332MOL0     H44775   8.840   8.607   3.712 -0.1025 -2.8327 -0.8592
  332MOL0     H44776   9.056   8.507   3.776  0.6373 -0.2603  1.1564
  332MOL0     H44777   9.015   8.522   3.946 -0.1792  1.0293  0.2520
  332MOL0     H44778   9.022   8.767   3.948 -0.5907  4.0920 -3.0335
  332MOL0     H44779   9.009   8.782   3.774 -0.0955  0.8170  1.1845
  332MOL0     H44780   9.204   8.687   4.126 -0.2062 -0.8209 -0.9062
  332MOL0     H44781   9.383   8.482   4.340  1.0670 -0.9917 -1.8609
  332MOL0     H44782   9.425   8.652   4.308  0.1138 -0.3104  1.4137
  332MOL0     H44783   9.256   8.611   4.327  0.7192  1.2923  0.5163
  332MOL0     H44784   9.852   8.399   4.134  0.7960 -3.0232 -1.0275
  332MOL0     H44785  10.050   8.294   4.250 -0.1491  2.3457 -2.0778
  332MOL0     H44786  10.063   8.189   4.693  1.4551  0.4799 -0.4368
  332MOL0     H44787   9.950   8.068   4.629  1.2409  0.8136  1.0453
  332MOL0     H44788  10.134   7.945   4.544 -0.0330  0.2090 -0.0833
  332MOL0     H44789  10.255   8.052   4.604  1.0992 -2.0847  3.5061
  332MOL0     H44790  10.087   7.868   4.773  3.0870 -2.3138 -2.1742
  332MOL0     H44791  10.126   8.027   4.843 -0.0552  1.1866 -0.8321
  332MOL0     H44792  10.310   7.808   4.739 -2.9797 -1.5142 -0.1995
  332MOL0     H44793  10.362   7.985   4.762  1.3389 -0.8096  2.3671
  332MOL0     H44794  10.266   7.803   4.973 -0.7591  0.3091 -0.6928
  332MOL0     H44795  10.259   7.979   4.977  0.0911  0.6489  0.5055
  332MOL0     H44796  10.534   7.848   4.924 -0.1347 -3.2639  1.7305
  332MOL0     H44797  10.486   8.004   4.996  2.2611 -0.6592 -2.6529
  332MOL0     H44798  10.426   7.726   5.133  0.2423 -1.6838  0.1281
  332MOL0     H44799  10.427   7.889   5.203  2.0490  0.4478  1.4918
  332MOL0     H44800  10.665   7.901   5.185  0.6831 -0.9385  0.3881
  332MOL0     H44801  10.680   7.762   5.084  1.1172  0.7214 -0.9456
  332MOL0     H44802   9.830   8.266   4.613  1.9358 -1.9397 -0.0367
  332MOL0     H44803   9.662   8.424   4.513  1.0541  0.7097 -0.5384
  332MOL0     H44804   9.534   8.413   3.884 -0.3626  1.8449 -2.1703
  332MOL0     H44805   9.406   8.556   3.759  3.3538  0.5575  0.7087
  332MOL0     H44806   7.777   8.090   2.801  0.9684 -0.1697  0.7219
  332MOL0     H44807   7.681   8.044   2.579 -0.2260  1.8210  1.7139
  332MOL0     H44808   7.592   7.830   2.213  0.6004 -1.7943  0.7427
  332MOL0     H44809   7.541   7.826   1.965  0.3371 -0.2758 -1.2463
  332MOL0     H44810   7.759   7.752   1.582 -0.6708  1.8824  0.7740
  332MOL0     H44811   7.885   7.821   1.671  1.1208 -0.6314 -2.1201
  332MOL0     H44812   7.860   7.616   1.826  1.0218 -5.8917  0.0495
  332MOL0     H44813   7.910   7.600   1.654 -0.2297  3.2120 -0.6002
  332MOL0     H44814   7.665   7.533   1.595  0.3172  1.0421  1.0168
  332MOL0     H44815   7.613   7.593   1.744  0.9220  0.5665  2.9036
  332MOL0     H44816   7.608   7.359   1.744  0.2858 -1.8093  0.0883
  332MOL0     H44817   7.724   7.414   1.859  0.8098  2.1054  0.2433
  332MOL0     H44818   7.930   7.181   1.554  0.4210 -1.9899  2.0348
  332MOL0     H44819   7.957   7.879   1.874  0.1498  0.1634  0.2149
  332MOL0     H44820   8.010   7.889   2.108 -0.4889  0.7705 -0.0981
  333MOL0     O44821   8.063   6.273   6.660  0.7142 -0.3455  0.3559
  333MOL0     C44822   8.033   6.210   6.751 -0.2575 -0.3541 -0.5799
  333MOL0     O44823   8.124   6.155   6.841  0.2720  1.1062 -0.1386
  333MOL0     C44824   8.257   6.186   6.847 -0.1508 -0.8305 -0.5706
  333MOL0     C44825   8.323   6.291   6.775 -0.2769  0.2283  0.0937
  333MOL0     C44826   8.468   6.293   6.772 -0.1313  0.0460  0.6146
  333MOL0     C44827   8.543   6.203   6.851  0.1910 -0.2260 -0.3392
  333MOL0     O44828   8.684   6.206   6.856  0.6878 -0.7762 -0.6478
  333MOL0     C44829   8.735   6.345   6.858  0.5731  0.0413 -0.1627
  333MOL0     C44830   8.802   6.349   6.722 -0.3028 -0.3336 -0.1249
  333MOL0     C44831   8.855   6.491   6.682 -0.1733 -0.0308  0.0188
  333MOL0     C44832   8.996   6.489   6.621  0.0060 -0.2100 -0.1435
  333MOL0     C44833   9.024   6.622   6.539 -0.4778  0.0805 -0.6103
  333MOL0     C44834   9.025   6.744   6.637  1.1480  0.3196 -0.4051
  333MOL0     C44835   9.140   6.736   6.741  0.5131 -0.8221 -0.2321
  333MOL0     C44836   9.275   6.754   6.672 -0.9568  0.7341  0.0380
  333MOL0     N44837   9.370   6.828   6.754  0.2847 -0.5404 -0.3575
  333MOL0     C44838   9.448   6.784   6.855 -0.2195 -0.0772  0.0074
  333MOL0     C44839   9.496   6.897   6.906 -0.1837 -0.6844  0.0772
  333MOL0     C44840   9.577   6.882   7.031 -0.0350  0.5730 -0.4442
  333MOL0     C44841   9.499   6.865   7.167 -0.9260 -0.1993  0.1075
  333MOL0     C44842   9.598   6.861   7.288 -0.7866 -0.6082  0.2171
  333MOL0     C44843   9.537   6.790   7.405  0.2517 -0.6751  0.7396
  333MOL0     O44844   9.430   6.865   7.460 -0.6243  0.1241 -0.2667
  333MOL0     C44845   9.442   6.893   7.587  0.9895 -1.0721 -0.5491
  333MOL0     C44846   9.343   6.851   7.678 -0.0394 -1.0946 -0.6168
  333MOL0     C44847   9.351   6.871   7.820  0.6025  0.4297 -0.5889
  333MOL0     C44848   9.243   6.819   7.916  0.8706  0.4765  0.1074
  333MOL0     C44849   9.467   6.942   7.872 -0.1010 -0.4136  0.5930
  333MOL0     C44850   9.500   6.962   8.016  0.5556  0.2859  0.0117
  333MOL0     O44851   9.498   7.091   8.071  0.0153  0.4838 -0.3892
  333MOL0     C44852   9.483   7.097   8.205 -0.1500  1.1271 -0.7145
  333MOL0     C44853   9.356   7.107   8.272 -0.5585  0.2986  1.1899
  333MOL0     C44854   9.343   7.112   8.410  0.0946  0.0693 -0.3919
  333MOL0     C44855   9.454   7.110   8.494  0.4928 -0.1058  0.6847
  333MOL0     O44856   9.424   7.099   8.631 -0.4555 -0.1702 -0.1662
  333MOL0     C44857   9.538   7.108   8.722  0.0458  0.5340 -0.3039
  333MOL0     C44858   9.505   7.101   8.867 -0.7184 -0.0608 -0.3617
  333MOL0     C44859   9.619   7.091   8.971 -0.8227  1.2147 -0.0094
  333MOL0     C44860   9.571   7.041   9.109  0.6466  0.2212  0.7827
  333MOL0     C44861   9.686   7.014   9.198  0.0915 -0.2968 -1.0259
  333MOL0     C44862   9.675   6.926   9.321 -0.9035 -0.1767 -1.6764
  333MOL0     C44863   9.768   6.978   9.434  0.0485 -0.3177 -0.2249
  333MOL0     C44864   9.791   6.874   9.547 -0.5018 -0.4333  0.0546
  333MOL0    Cl44865   9.847   6.719   9.501 -0.5037 -0.2385  0.4027
  333MOL0     C44866   9.579   7.103   8.427 -0.1961 -0.5991 -0.7012
  333MOL0     C44867   9.594   7.105   8.295 -0.2737  0.7372 -0.3188
  333MOL0     O44868   9.493   6.860   8.085 -0.0051 -0.7486 -0.3417
  333MOL0     C44869   9.570   6.976   7.780 -0.0579  0.1260 -0.3759
  333MOL0     C44870   9.557   6.959   7.642 -0.1979 -0.1759 -0.6908
  333MOL0     N44871   9.459   7.006   6.841  0.4205  0.7250  0.3551
  333MOL0     N44872   9.380   6.967   6.757 -0.4569  0.2790 -0.5924
  333MOL0     C44873   8.472   6.107   6.930 -0.2078 -0.1341 -0.4077
  333MOL0     C44874   8.336   6.089   6.908 -0.0198 -0.9621  0.1871
  333MOL0     C44875   7.885   6.178   6.768 -0.8101 -0.1167 -0.5378
  333MOL0     C44876   7.846   6.097   6.875 -0.0193  0.7167 -1.2110
  333MOL0     C44877   7.706   6.054   6.898 -0.1768 -0.6709  0.9121
  333MOL0     C44878   7.612   6.089   6.799 -0.0914 -0.1343 -0.1389
  333MOL0     O44879   7.485   6.041   6.791  0.1086 -0.0591 -1.1774
  333MOL0     C44880   7.422   5.981   6.908  0.1818  0.2753 -0.2880
  333MOL0     C44881   7.281   5.925   6.861  0.2746  0.5074 -0.6281
  333MOL0     C44882   7.169   6.021   6.861  0.2456  0.5625  0.0400
  333MOL0     C44883   7.028   5.956   6.879 -0.4695  0.1056 -0.9759
  333MOL0     C44884   7.003   5.854   6.779 -1.0859 -0.1644 -0.4934
  333MOL0     C44885   6.970   5.782   6.684  0.4078  1.0379 -0.4223
  333MOL0     C44886   7.654   6.175   6.690 -1.0919  0.8333  0.4712
  333MOL0     C44887   7.784   6.218   6.678  0.1909 -0.5915  0.5114
  333MOL0     H44888   8.265   6.372   6.732  1.5924  1.6519  0.0967
  333MOL0     H44889   8.534   6.365   6.723  0.1103 -0.6291 -0.0628
  333MOL0     H44890   8.656   6.418   6.880  2.1281  1.9052 -0.4837
  333MOL0     H44891   8.818   6.349   6.929  0.2056 -6.0491  1.1273
  333MOL0     H44892   8.887   6.280   6.727 -1.9946 -3.0010 -3.5977
  333MOL0     H44893   8.731   6.308   6.649  0.7492  0.8024 -1.8557
  333MOL0     H44894   8.790   6.534   6.604 -0.8604  0.4113  0.8131
  333MOL0     H44895   8.845   6.553   6.771  1.7694  0.1308  0.1527
  333MOL0     H44896   9.068   6.460   6.699  0.5661 -2.4268 -1.3893
  333MOL0     H44897   9.002   6.411   6.545  2.0153  0.1693 -0.4342
  333MOL0     H44898   9.124   6.610   6.496 -0.8467 -2.5068 -0.9069
  333MOL0     H44899   8.951   6.624   6.458  0.4310 -1.5258 -1.5263
  333MOL0     H44900   9.034   6.835   6.577 -1.5373 -0.3006 -1.9504
  333MOL0     H44901   8.927   6.744   6.686  1.9795 -2.1602  1.4781
  333MOL0     H44902   9.127   6.808   6.823 -1.4930 -0.8512 -0.4648
  333MOL0     H44903   9.147   6.641   6.794 -1.0488 -1.1091 -0.4923
  333MOL0     H44904   9.259   6.806   6.577  2.3644  3.0071  0.5103
  333MOL0     H44905   9.308   6.656   6.637  2.4683  0.7576  2.6172
  333MOL0     H44906   9.474   6.687   6.895  0.0161  0.2291  0.6198
  333MOL0     H44907   9.650   6.803   7.010 -0.8585 -0.1690 -0.5381
  333MOL0     H44908   9.635   6.974   7.024  1.8066 -0.6651 -4.7891
  333MOL0     H44909   9.433   6.778   7.170 -4.1488  2.0456 -0.2535
  333MOL0     H44910   9.427   6.947   7.176 -0.6262  0.0418  0.3281
  333MOL0     H44911   9.628   6.964   7.312 -1.1274 -0.3522 -0.4282
  333MOL0     H44912   9.692   6.814   7.258 -2.2468 -0.8809 -4.8248
  333MOL0     H44913   9.613   6.761   7.479  3.3447  1.9798 -1.1341
  333MOL0     H44914   9.510   6.692   7.366  1.5084  0.0059 -2.0709
  333MOL0     H44915   9.261   6.801   7.628  0.8032 -0.5989 -2.5651
  333MOL0     H44916   9.142   6.838   7.878  0.5136 -0.5784  0.5081
  333MOL0     H44917   9.255   6.711   7.922 -1.8219  0.1482  0.7878
  333MOL0     H44918   9.253   6.859   8.017  4.2495  2.0945 -0.7096
  333MOL0     H44919   9.265   7.113   8.212  1.0525  0.7485 -1.3479
  333MOL0     H44920   9.245   7.093   8.451  0.1835  0.9328  0.2247
  333MOL0     H44921   9.600   7.018   8.712  2.3546  1.8691  1.2927
  333MOL0     H44922   9.591   7.200   8.696  0.6155  0.8827  1.9069
  333MOL0     H44923   9.452   7.193   8.894  2.1737  1.7441 -0.4265
  333MOL0     H44924   9.440   7.016   8.888  2.1977 -1.7154  3.3925
  333MOL0     H44925   9.672   7.185   8.987 -1.8155  1.4064  2.8260
  333MOL0     H44926   9.685   7.012   8.935 -3.2711 -0.5931 -0.8167
  333MOL0     H44927   9.507   7.118   9.153  0.0039  1.6219 -2.3400
  333MOL0     H44928   9.512   6.948   9.102  1.5693 -0.4933  2.1217
  333MOL0     H44929   9.708   7.114   9.238 -0.8343 -1.4628  2.8851
  333MOL0     H44930   9.772   6.969   9.149  0.5258  1.3299 -1.8144
  333MOL0     H44931   9.572   6.921   9.359 -0.2854  0.7088  0.2579
  333MOL0     H44932   9.703   6.822   9.298 -3.1785 -1.7111  1.6140
  333MOL0     H44933   9.728   7.073   9.470  0.9251  0.1854 -0.5536
  333MOL0     H44934   9.868   7.007   9.401 -0.9118  2.7822 -0.7019
  333MOL0     H44935   9.700   6.858   9.605  0.0400  4.1878  2.6718
  333MOL0     H44936   9.852   6.934   9.616  0.8213 -1.4857 -0.1576
  333MOL0     H44937   9.669   7.107   8.488 -0.9438  1.5391  0.3921
  333MOL0     H44938   9.699   7.094   8.269  0.4391 -0.1016  2.5704
  333MOL0     H44939   9.661   7.024   7.817  0.4441 -2.1096  1.5425
  333MOL0     H44940   9.642   6.968   7.575  0.3929 -1.2761 -0.1236
  333MOL0     H44941   8.511   6.036   7.003 -3.3235 -1.4347  0.1545
  333MOL0     H44942   8.294   6.005   6.962  1.9575 -1.7647  0.5457
  333MOL0     H44943   7.916   6.062   6.950 -1.5808  0.1300  0.0419
  333MOL0     H44944   7.692   5.978   6.974  1.4967 -2.4173 -0.4007
  333MOL0     H44945   7.477   5.901   6.959  1.2499  0.2236 -1.4510
  333MOL0     H44946   7.402   6.065   6.974 -0.1025  0.2409 -0.3304
  333MOL0     H44947   7.259   5.843   6.930 -0.6552  1.1947 -0.0813
  333MOL0     H44948   7.277   5.877   6.763  3.6231 -0.6132 -0.3382
  333MOL0     H44949   7.161   6.085   6.773  1.3017  0.6324 -0.0228
  333MOL0     H44950   7.179   6.091   6.944 -1.0376 -0.9966  1.5843
  333MOL0     H44951   6.947   6.029   6.870 -0.1631  0.7173  0.8768
  333MOL0     H44952   7.016   5.918   6.980  0.8355  0.4210 -0.6845
  333MOL0     H44953   6.957   5.708   6.608  2.9324 -0.2631  0.3079
  333MOL0     H44954   7.578   6.206   6.620 -0.4625 -0.1885 -0.7050
  333MOL0     H44955   7.807   6.280   6.591  1.9587 -1.0310  0.6292
  334MOL0     O44956   9.693   1.545   8.196  0.5316 -0.5100 -0.1084
  334MOL0     C44957   9.593   1.570   8.265  0.9106 -0.9392 -1.1022
  334MOL0     O44958   9.584   1.649   8.376 -0.2913  0.0834  0.4406
  334MOL0     C44959   9.680   1.754   8.385  0.4094  0.9403  0.1328
  334MOL0     C44960   9.735   1.778   8.511  0.4240 -0.1336 -1.0013
  334MOL0     C44961   9.839   1.867   8.525 -0.8560  0.7541  0.0148
  334MOL0     C44962   9.878   1.944   8.411  0.4862  0.7942  0.9247
  334MOL0     O44963   9.973   2.039   8.439  0.1655  0.0624  0.9663
  334MOL0     C44964  10.075   2.076   8.333  0.7226  0.1871 -0.1771
  334MOL0     C44965  10.167   1.950   8.319  0.3700 -0.8822 -0.7871
  334MOL0     C44966  10.252   1.935   8.447  1.0227  0.8017 -0.1290
  334MOL0     C44967  10.366   1.832   8.427  0.1407 -0.3465  0.1658
  334MOL0     C44968  10.487   1.890   8.356 -1.0492  1.2337  0.5964
  334MOL0     C44969  10.590   1.966   8.436 -0.4740  0.0647 -0.0537
  334MOL0     C44970  10.702   2.018   8.346 -0.0192  0.0774  0.2498
  334MOL0     C44971  10.799   2.110   8.433 -0.3285 -0.1376  0.3252
  334MOL0     N44972  10.834   2.063   8.567 -0.2710 -0.7831 -0.5620
  334MOL0     C44973  10.772   2.122   8.678 -0.2620 -0.5395  0.2907
  334MOL0     C44974  10.832   2.051   8.782 -0.3948  0.5739  0.6848
  334MOL0     C44975  10.788   2.081   8.915 -0.5650 -0.0617 -0.0509
  334MOL0     C44976  10.723   1.961   8.984 -0.7818 -0.8062 -0.2164
  334MOL0     C44977  10.605   1.901   8.908  0.4729 -0.0806  0.9119
  334MOL0     C44978  10.548   1.772   8.985  0.1760 -0.6300  0.8732
  334MOL0     O44979  10.435   1.723   8.914  0.2635  0.1207 -0.0692
  334MOL0     C44980  10.306   1.771   8.927 -0.3245  0.9331  0.4707
  334MOL0     C44981  10.265   1.860   9.016 -0.1083 -0.1650 -1.0716
  334MOL0     C44982  10.136   1.898   9.037  0.2377  0.8515 -1.0434
  334MOL0     C44983  10.127   2.010   9.132  0.2983  0.0831 -0.8125
  334MOL0     C44984  10.037   1.846   8.956  0.5588 -0.3742 -0.5795
  334MOL0     C44985   9.892   1.887   8.975 -0.2255 -0.7234  0.0594
  334MOL0     O44986   9.843   1.908   9.101 -0.1670  0.0978  0.0949
  334MOL0     C44987   9.714   1.954   9.133 -0.6230  0.3372  0.5323
  334MOL0     C44988   9.697   2.090   9.143  0.3750 -0.2840 -0.2115
  334MOL0     C44989   9.568   2.146   9.171  0.4742 -0.3047  0.1284
  334MOL0     C44990   9.460   2.061   9.180  0.0674  0.2262  0.4021
  334MOL0     O44991   9.334   2.105   9.200  0.0737 -0.0617  1.0368
  334MOL0     C44992   9.303   2.241   9.224  1.1471 -0.4829  0.1994
  334MOL0     C44993   9.156   2.248   9.255 -0.3701  0.4818  0.5578
  334MOL0     C44994   9.114   2.385   9.306  0.0879  0.7229  0.8713
  334MOL0     C44995   8.968   2.400   9.279 -0.1657 -0.4711 -0.8747
  334MOL0     C44996   8.919   2.534   9.330 -0.7436 -0.8797 -0.3679
  334MOL0     C44997   8.775   2.557   9.284  0.4817  0.3551  0.9943
  334MOL0     C44998   8.720   2.679   9.353  0.2362 -1.0672  0.2131
  334MOL0     C44999   8.569   2.705   9.319  0.2186  0.4105  1.0499
  334MOL0    Cl45000   8.474   2.563   9.357  0.1493  0.0305  0.5330
  334MOL0     C45001   9.474   1.920   9.176 -0.5080 -0.0299 -0.9291
  334MOL0     C45002   9.606   1.870   9.156 -0.1823 -0.6344 -0.7086
  334MOL0     O45003   9.820   1.899   8.873  0.0790  0.1681 -0.3506
  334MOL0     C45004  10.071   1.758   8.847  0.1836 -0.6782  0.3698
  334MOL0     C45005  10.207   1.717   8.840  1.0116  0.1855 -0.2083
  334MOL0     N45006  10.927   1.962   8.736 -0.0618 -0.5895  0.5328
  334MOL0     N45007  10.929   1.974   8.605 -0.7920 -0.2165 -0.2142
  334MOL0     C45008   9.823   1.925   8.283 -0.5048  0.2361 -0.4137
  334MOL0     C45009   9.722   1.832   8.274  0.1016 -0.3204  0.3997
  334MOL0     C45010   9.479   1.481   8.241 -0.1304  0.0518 -0.0571
  334MOL0     C45011   9.489   1.362   8.169 -0.3637  1.1096 -0.2660
  334MOL0     C45012   9.373   1.284   8.148 -0.4788 -0.2479 -0.3521
  334MOL0     C45013   9.247   1.315   8.195  0.8155  0.0684  0.3308
  334MOL0     O45014   9.130   1.238   8.183 -0.6670  0.4017 -0.2860
  334MOL0     C45015   9.117   1.111   8.111 -0.2364 -0.0843  0.9243
  334MOL0     C45016   9.212   0.996   8.151  0.3807 -0.1999  0.6136
  334MOL0     C45017   9.244   0.903   8.022  0.9693  0.8330 -0.2916
  334MOL0     C45018   9.321   0.780   8.071  0.0423  0.6868  0.7259
  334MOL0     C45019   9.451   0.816   8.139 -0.6719 -0.3900  0.2172
  334MOL0     C45020   9.561   0.850   8.180 -0.4082  0.7437  0.1564
  334MOL0     C45021   9.231   1.432   8.266 -1.2880  0.4703  0.4691
  334MOL0     C45022   9.343   1.509   8.291  0.0556 -0.4785  0.3342
  334MOL0     H45023   9.704   1.724   8.600 -2.2062  2.1911 -0.3723
  334MOL0     H45024   9.889   1.874   8.622  1.3284  1.6366 -1.1107
  334MOL0     H45025  10.030   2.107   8.238 -0.5916 -1.5651 -0.1858
  334MOL0     H45026  10.129   2.156   8.384  1.6796 -0.5750  0.0482
  334MOL0     H45027  10.097   1.867   8.307 -2.0748  1.0663 -0.8139
  334MOL0     H45028  10.237   1.972   8.238  3.4552 -1.5776  1.4841
  334MOL0     H45029  10.292   2.033   8.474  0.3418  0.4471  2.3564
  334MOL0     H45030  10.184   1.898   8.524  0.6003 -0.6423 -1.1396
  334MOL0     H45031  10.394   1.805   8.529 -0.5533  1.1093  0.7747
  334MOL0     H45032  10.328   1.747   8.370  2.9382 -1.0969 -0.7352
  334MOL0     H45033  10.535   1.805   8.307 -1.5301  0.8856  0.7233
  334MOL0     H45034  10.463   1.954   8.271 -0.2249  1.8925  0.8470
  334MOL0     H45035  10.543   2.055   8.478 -3.1753 -1.2919  0.0302
  334MOL0     H45036  10.616   1.905   8.523  2.0441  0.2204 -0.6133
  334MOL0     H45037  10.756   1.930   8.311  2.1091  1.6694 -0.7549
  334MOL0     H45038  10.650   2.075   8.269 -1.6651  2.0420  2.6433
  334MOL0     H45039  10.758   2.211   8.425  0.4883  0.1252 -0.9316
  334MOL0     H45040  10.895   2.118   8.381 -1.0496 -0.9055 -1.1742
  334MOL0     H45041  10.702   2.205   8.680  1.6356  1.1843 -0.9640
  334MOL0     H45042  10.867   2.112   8.984 -1.0581  0.9504  0.0897
  334MOL0     H45043  10.710   2.157   8.909 -1.5573 -1.1384 -1.4654
  334MOL0     H45044  10.702   2.013   9.078 -1.6661  2.1645 -1.9193
  334MOL0     H45045  10.792   1.878   8.998  0.2215 -0.3296 -2.0097
  334MOL0     H45046  10.642   1.872   8.809 -0.9484  2.1271 -0.3377
  334MOL0     H45047  10.528   1.978   8.897  1.3857  0.4911 -4.2772
  334MOL0     H45048  10.538   1.797   9.091  3.4641 -2.4496  1.7645
  334MOL0     H45049  10.618   1.688   8.987 -1.5628 -2.2898 -1.8725
  334MOL0     H45050  10.336   1.915   9.077 -1.7539  0.6631  0.1734
  334MOL0     H45051  10.106   1.977   9.234 -1.7888  2.2279 -0.4705
  334MOL0     H45052  10.209   2.083   9.137 -0.6505  1.1523 -0.3549
  334MOL0     H45053  10.034   2.061   9.105 -0.5499  1.5713  3.9635
  334MOL0     H45054   9.781   2.158   9.147  0.4016 -0.3775  1.3321
  334MOL0     H45055   9.559   2.254   9.175 -3.8895 -0.5242  1.4619
  334MOL0     H45056   9.361   2.283   9.306  2.4516  0.8308 -1.3567
  334MOL0     H45057   9.321   2.297   9.132  0.9086 -0.4018  0.1995
  334MOL0     H45058   9.106   2.212   9.164  0.3821 -2.1578  1.1112
  334MOL0     H45059   9.122   2.182   9.336 -1.8038  0.6920  0.1705
  334MOL0     H45060   9.170   2.454   9.243  1.0299 -2.5086 -2.1317
  334MOL0     H45061   9.134   2.396   9.413  3.5506 -0.9661  0.5438
  334MOL0     H45062   8.944   2.398   9.172 -2.0270 -3.1559 -0.4982
  334MOL0     H45063   8.911   2.317   9.321 -3.5979  0.7560 -2.7005
  334MOL0     H45064   8.974   2.620   9.290  4.2739 -2.2658  2.6380
  334MOL0     H45065   8.918   2.551   9.438 -2.8160  1.8630 -0.6969
  334MOL0     H45066   8.775   2.570   9.175  2.7271 -0.7177  0.8139
  334MOL0     H45067   8.713   2.470   9.305 -1.6203  1.9375  1.6822
  334MOL0     H45068   8.764   2.767   9.303 -0.7890  0.1596  1.3941
  334MOL0     H45069   8.755   2.684   9.457 -1.4756 -1.0344  0.8154
  334MOL0     H45070   8.563   2.725   9.212 -0.4237 -0.6395  0.8732
  334MOL0     H45071   8.537   2.792   9.376  1.6750  0.5258  1.7350
  334MOL0     H45072   9.392   1.849   9.177  0.2239 -0.9061  1.0962
  334MOL0     H45073   9.613   1.762   9.150  0.4347 -0.7118  0.9003
  334MOL0     H45074   9.997   1.706   8.788 -0.0431 -1.0573  0.9802
  334MOL0     H45075  10.230   1.642   8.765 -3.2889  1.1015 -2.8086
  334MOL0     H45076   9.865   1.976   8.198 -0.1056  1.2309  0.3621
  334MOL0     H45077   9.666   1.828   8.182  1.7497  0.3278 -0.6744
  334MOL0     H45078   9.586   1.339   8.125  0.9137  2.7356  1.5613
  334MOL0     H45079   9.371   1.196   8.084  0.3204 -1.2832  0.9816
  334MOL0     H45080   9.013   1.083   8.132  1.2442 -3.8709  4.8789
  334MOL0     H45081   9.121   1.130   8.004 -1.4399  1.4909  1.1305
  334MOL0     H45082   9.156   0.933   8.221 -2.4094 -0.7082 -1.8402
  334MOL0     H45083   9.305   1.040   8.188  0.5753  1.2189 -1.3762
  334MOL0     H45084   9.310   0.952   7.950  0.9045  0.5196 -0.5641
  334MOL0     H45085   9.152   0.868   7.974  2.2900 -0.5120 -1.9544
  334MOL0     H45086   9.350   0.709   7.992 -0.8226 -3.2410  3.6201
  334MOL0     H45087   9.258   0.722   8.138  0.9616  1.7610  2.6066
  334MOL0     H45088   9.652   0.885   8.223 -0.0643  2.2912 -1.7014
  334MOL0     H45089   9.133   1.441   8.310 -2.2144 -0.6141 -1.2580
  334MOL0     H45090   9.334   1.603   8.346  1.6122  0.3296 -0.7146
  335MOL0     O45091   1.759   6.784   3.929  0.3878 -0.2416 -0.6148
  335MOL0     C45092   1.806   6.730   3.829 -1.0213  0.0588 -0.3435
  335MOL0     O45093   1.767   6.610   3.772  0.4785  0.0787  0.1866
  335MOL0     C45094   1.697   6.507   3.830 -0.1307  0.5080 -0.3476
  335MOL0     C45095   1.689   6.488   3.970  0.2137 -0.2188 -0.2017
  335MOL0     C45096   1.598   6.397   4.024  0.5583 -0.0028 -0.1378
  335MOL0     C45097   1.551   6.293   3.944 -0.4323 -0.0680  0.7447
  335MOL0     O45098   1.492   6.184   4.009 -0.9135 -0.4126  0.6628
  335MOL0     C45099   1.450   6.061   3.938 -0.1427 -0.2049 -0.2499
  335MOL0     C45100   1.415   5.950   4.044 -0.1377  0.4349  0.2624
  335MOL0     C45101   1.275   5.951   4.106  0.2567  0.5426  0.4476
  335MOL0     C45102   1.260   6.077   4.200 -0.6041 -0.4557 -0.2672
  335MOL0     C45103   1.121   6.086   4.256 -0.1108  0.3558  0.1962
  335MOL0     C45104   1.006   6.066   4.159 -0.1044 -0.1293  0.4491
  335MOL0     C45105   0.886   6.110   4.233  1.7319  0.6314 -0.3560
  335MOL0     C45106   0.768   6.090   4.143 -0.2537  0.0581 -0.1019
  335MOL0     N45107   0.722   6.210   4.074 -0.8215  1.0878  0.9008
  335MOL0     C45108   0.724   6.204   3.938  0.3101  0.6260 -0.0014
  335MOL0     C45109   0.641   6.302   3.902  0.1675  0.0073  0.4583
  335MOL0     C45110   0.616   6.352   3.763 -0.3339  0.0783  0.6109
  335MOL0     C45111   0.644   6.505   3.767  0.4691  0.6861 -0.1488
  335MOL0     C45112   0.801   6.541   3.791  0.0364 -0.0447  0.1265
  335MOL0     C45113   0.829   6.690   3.783  0.1024  0.5450 -0.2156
  335MOL0     O45114   0.965   6.724   3.801 -0.0620  0.4391  0.6066
  335MOL0     C45115   0.976   6.837   3.871  0.5446  0.0384  0.3006
  335MOL0     C45116   1.011   6.955   3.805  0.0039 -0.6147  0.4269
  335MOL0     C45117   1.053   7.067   3.877 -0.0084  0.5301  0.3886
  335MOL0     C45118   1.103   7.193   3.806 -0.1062  0.2730 -0.3353
  335MOL0     C45119   1.043   7.066   4.021  0.0511 -0.4837  0.7852
  335MOL0     C45120   1.066   7.184   4.108 -1.3083 -0.5583  0.4018
  335MOL0     O45121   1.073   7.154   4.240 -0.2550 -0.3229  0.7457
  335MOL0     C45122   1.047   7.254   4.329 -0.3332 -0.0823 -1.3064
  335MOL0     C45123   1.139   7.353   4.354 -0.1351  0.5514  0.1028
  335MOL0     C45124   1.128   7.457   4.445  1.1485 -0.1895  0.2017
  335MOL0     C45125   1.005   7.471   4.518  0.1081 -0.7447  0.4292
  335MOL0     O45126   0.992   7.581   4.604 -0.2472  0.6076 -0.0628
  335MOL0     C45127   0.903   7.590   4.709 -0.5852 -0.4690 -0.0025
  335MOL0     C45128   0.894   7.731   4.755 -0.1384 -0.8744 -0.0278
  335MOL0     C45129   0.861   7.841   4.646 -1.0928  0.0250 -0.7506
  335MOL0     C45130   0.721   7.812   4.577  0.1138 -0.5214 -0.5845
  335MOL0     C45131   0.652   7.945   4.545 -0.3056  1.2861  0.5377
  335MOL0     C45132   0.712   8.017   4.419  0.1694  0.0368  0.5541
  335MOL0     C45133   0.619   8.118   4.348 -0.0392 -0.1249 -0.0663
  335MOL0     C45134   0.597   8.253   4.415  0.1920 -0.5370 -0.4880
  335MOL0    Cl45135   0.517   8.365   4.287  0.4257  0.3630  0.4739
  335MOL0     C45136   0.913   7.364   4.502 -0.1315 -0.4246 -0.2321
  335MOL0     C45137   0.938   7.248   4.423  0.1900 -0.6989 -0.3312
  335MOL0     O45138   1.060   7.299   4.070  0.2534  0.4565 -0.4285
  335MOL0     C45139   1.003   6.951   4.082 -0.1463  0.3497 -0.2882
  335MOL0     C45140   0.969   6.837   4.009  0.3282 -1.0910  1.1356
  335MOL0     N45141   0.588   6.360   4.017  0.9936 -0.0458 -0.8214
  335MOL0     N45142   0.637   6.312   4.119 -1.1235  0.5198  0.2469
  335MOL0     C45143   1.562   6.313   3.802 -0.0037  1.1402 -0.1634
  335MOL0     C45144   1.632   6.415   3.753 -0.1856  0.0022 -0.0064
  335MOL0     C45145   1.900   6.810   3.750 -0.1639  0.9637 -0.3137
  335MOL0     C45146   1.947   6.769   3.635 -1.0009 -0.1447 -0.4852
  335MOL0     C45147   2.047   6.839   3.557 -0.9983  0.0772 -0.2641
  335MOL0     C45148   2.101   6.957   3.598 -0.2487 -0.6185  0.4811
  335MOL0     O45149   2.196   7.026   3.516  0.0035 -0.6154  0.2070
  335MOL0     C45150   2.313   6.951   3.487  0.2051 -0.0263 -0.1774
  335MOL0     C45151   2.397   7.044   3.399 -0.1069  0.6741 -0.5289
  335MOL0     C45152   2.477   7.152   3.484 -0.7102  0.6041 -0.1614
  335MOL0     C45153   2.406   7.263   3.551  0.4587  0.1733 -0.3027
  335MOL0     C45154   2.339   7.349   3.457  0.1681  1.0685 -1.2096
  335MOL0     C45155   2.278   7.420   3.382  0.3741  0.3463  0.0808
  335MOL0     C45156   2.041   7.016   3.704 -0.4327  0.1932  0.3112
  335MOL0     C45157   1.949   6.943   3.785  0.4454  0.3474  0.0333
  335MOL0     H45158   1.744   6.549   4.040  0.3931 -1.1216  0.4631
  335MOL0     H45159   1.586   6.390   4.132  0.3005  0.4707 -0.1343
  335MOL0     H45160   1.371   6.096   3.871  1.7627  2.4585 -1.3017
  335MOL0     H45161   1.535   6.025   3.880  1.8149 -1.4233  3.1418
  335MOL0     H45162   1.429   5.857   3.989  0.2950  0.0381  1.0155
  335MOL0     H45163   1.487   5.951   4.127 -1.0241 -0.6734  1.0856
  335MOL0     H45164   1.208   5.957   4.019  1.4873  2.3855 -0.4514
  335MOL0     H45165   1.254   5.854   4.152 -1.0245  0.3306 -0.5175
  335MOL0     H45166   1.328   6.064   4.285 -0.6854  0.1679 -0.0991
  335MOL0     H45167   1.272   6.171   4.145 -0.7763 -0.7472 -0.8078
  335MOL0     H45168   1.106   6.027   4.346  0.9304 -1.3306 -0.6787
  335MOL0     H45169   1.117   6.193   4.280 -1.0020  0.8752 -1.9603
  335MOL0     H45170   1.009   6.129   4.069 -2.7120  0.2592  0.5426
  335MOL0     H45171   1.005   5.958   4.143  0.4092 -0.5181  2.6748
  335MOL0     H45172   0.863   6.047   4.320 -2.0314  3.1228  0.7005
  335MOL0     H45173   0.880   6.213   4.269  0.6619  0.1221  1.0391
  335MOL0     H45174   0.690   6.051   4.210  0.6575 -3.8469 -1.0775
  335MOL0     H45175   0.782   6.009   4.071  0.1505  2.3901 -2.8102
  335MOL0     H45176   0.781   6.134   3.879  1.2202  1.2178  0.1636
  335MOL0     H45177   0.685   6.297   3.699  0.4215 -0.5571  1.9353
  335MOL0     H45178   0.512   6.323   3.746 -0.1358 -1.3960  1.6897
  335MOL0     H45179   0.587   6.558   3.844  0.3180  1.9139 -1.0778
  335MOL0     H45180   0.622   6.558   3.674  1.8791  3.6328  1.0489
  335MOL0     H45181   0.868   6.483   3.726  0.3766 -0.2559  0.6595
  335MOL0     H45182   0.835   6.497   3.886 -0.3617  0.2545  0.4110
  335MOL0     H45183   0.778   6.734   3.870  1.1124  1.3077  0.0166
  335MOL0     H45184   0.796   6.740   3.692  1.9588  0.2741 -1.0940
  335MOL0     H45185   1.014   6.963   3.696 -1.9064  2.7682  0.4805
  335MOL0     H45186   1.113   7.178   3.698 -1.7866  2.2921 -0.8413
  335MOL0     H45187   1.039   7.282   3.809  0.1366  0.5772 -2.6555
  335MOL0     H45188   1.202   7.220   3.843  1.4076 -5.3937  0.6094
  335MOL0     H45189   1.235   7.320   4.315  0.0599  1.6888 -0.4082
  335MOL0     H45190   1.208   7.529   4.463  1.0379 -0.1198  0.4297
  335MOL0     H45191   0.801   7.553   4.690  0.2525 -4.0197  1.6081
  335MOL0     H45192   0.932   7.537   4.800 -1.0363  1.8353  1.5753
  335MOL0     H45193   0.842   7.740   4.851  1.9789 -4.5366  1.6893
  335MOL0     H45194   1.001   7.742   4.775 -0.0972 -1.7568  0.2639
  335MOL0     H45195   0.935   7.834   4.567 -1.8572  3.7058 -1.9728
  335MOL0     H45196   0.864   7.940   4.692 -2.3641 -0.5538  0.6909
  335MOL0     H45197   0.745   7.750   4.490 -0.5314 -0.7651 -0.5877
  335MOL0     H45198   0.667   7.755   4.652 -1.4833  2.4706  0.7254
  335MOL0     H45199   0.644   8.009   4.634 -0.3015  1.9955  0.0381
  335MOL0     H45200   0.548   7.924   4.520  0.5286 -3.3734  0.1742
  335MOL0     H45201   0.803   8.066   4.456  0.3094  0.9634 -0.9501
  335MOL0     H45202   0.729   7.953   4.332 -3.0498 -0.9407  0.5135
  335MOL0     H45203   0.520   8.075   4.332 -0.5192  1.1594 -0.7562
  335MOL0     H45204   0.652   8.133   4.245 -0.1184  2.2703  0.1932
  335MOL0     H45205   0.687   8.305   4.451 -1.4387 -0.0624  3.5155
  335MOL0     H45206   0.527   8.245   4.499 -3.3378  0.7313 -3.1068
  335MOL0     H45207   0.817   7.352   4.551 -0.4406 -1.6042 -1.0877
  335MOL0     H45208   0.872   7.163   4.425  0.8365 -1.1998  0.9658
  335MOL0     H45209   0.996   6.931   4.189  0.5575 -1.1006 -0.4858
  335MOL0     H45210   0.957   6.741   4.058  2.0053 -3.4149 -2.5920
  335MOL0     H45211   1.519   6.241   3.733  2.8495  2.1255 -3.2139
  335MOL0     H45212   1.638   6.440   3.647 -0.6264  1.6012  0.3267
  335MOL0     H45213   1.917   6.667   3.611  1.0869 -0.9175 -0.0681
  335MOL0     H45214   2.080   6.787   3.468 -3.6893 -0.0584 -1.2739
  335MOL0     H45215   2.368   6.928   3.579  1.1545  0.8939 -0.4905
  335MOL0     H45216   2.289   6.856   3.439 -0.3524 -1.1374  2.1551
  335MOL0     H45217   2.329   7.095   3.330 -5.0964 -1.8569  1.9789
  335MOL0     H45218   2.472   6.984   3.346  0.8564  1.7040 -0.3655
  335MOL0     H45219   2.550   7.191   3.411  0.7811 -5.6390 -2.6035
  335MOL0     H45220   2.533   7.099   3.561 -0.9693 -2.9982 -2.2610
  335MOL0     H45221   2.479   7.331   3.595 -1.0729  2.5869 -1.3219
  335MOL0     H45222   2.335   7.243   3.632  0.2851  2.2770  0.1048
  335MOL0     H45223   2.218   7.485   3.323  3.2404  3.1995  0.0029
  335MOL0     H45224   2.071   7.111   3.748  2.3282  0.7344 -2.3848
  335MOL0     H45225   1.930   6.976   3.887  1.3886 -1.9147  1.0131
  336MOL0     O45226   5.676   9.462  11.292 -0.2479  0.4460  0.5019
  336MOL0     C45227   5.778   9.466  11.214 -0.3509 -1.2244 -0.2952
  336MOL0     O45228   5.791   9.408  11.092 -0.0563  0.9355  0.2121
  336MOL0     C45229   5.691   9.320  11.063  0.5050  1.1028  0.3253
  336MOL0     C45230   5.566   9.366  11.014 -0.1917  0.1792 -1.0246
  336MOL0     C45231   5.460   9.271  11.004  0.0315 -0.1193  0.0581
  336MOL0     C45232   5.484   9.133  11.026 -0.5329 -0.3716 -0.5829
  336MOL0     O45233   5.374   9.056  11.008  0.6889 -0.3582 -0.7477
  336MOL0     C45234   5.371   8.924  11.059  0.6659  0.0160  0.2335
  336MOL0     C45235   5.242   8.860  10.995 -0.1422 -0.3540  0.6348
  336MOL0     C45236   5.253   8.874  10.848  0.0817 -0.1519  0.0097
  336MOL0     C45237   5.180   8.769  10.761 -0.6208 -0.0719  0.1882
  336MOL0     C45238   5.204   8.784  10.616 -0.0951 -0.4560  0.4214
  336MOL0     C45239   5.345   8.741  10.584  0.1723  0.7723  1.0011
  336MOL0     C45240   5.362   8.740  10.428  0.7012 -0.2375  0.4261
  336MOL0     C45241   5.302   8.614  10.354 -0.1500  0.2737 -0.5319
  336MOL0     N45242   5.355   8.614  10.218 -0.1159 -0.7739  0.7194
  336MOL0     C45243   5.350   8.731  10.141 -0.8542  0.1918 -0.2104
  336MOL0     C45244   5.400   8.692  10.026  0.5991  1.3476  0.8702
  336MOL0     C45245   5.399   8.773   9.899  0.0491  0.2438  0.5146
  336MOL0     C45246   5.260   8.763   9.826  0.2054  0.6381  1.1558
  336MOL0     C45247   5.278   8.823   9.687  0.1937  0.6630  0.2318
  336MOL0     C45248   5.151   8.810   9.609  0.2549 -0.5461  0.0441
  336MOL0     O45249   5.156   8.890   9.493 -0.2098  0.4841  0.5729
  336MOL0     C45250   5.276   8.885   9.420  0.6355  0.9420  0.1430
  336MOL0     C45251   5.314   8.757   9.366 -0.0910 -0.1247  1.1839
  336MOL0     C45252   5.431   8.743   9.286 -0.6510 -0.0400 -0.1202
  336MOL0     C45253   5.469   8.609   9.233 -0.4926  0.4213  0.0843
  336MOL0     C45254   5.502   8.864   9.252  0.4990  0.6364 -0.9560
  336MOL0     C45255   5.626   8.883   9.161  0.1429  0.5024 -0.0496
  336MOL0     O45256   5.660   9.003   9.117  0.2490  0.2015 -0.5414
  336MOL0     C45257   5.771   9.065   9.159 -0.7780  0.0169 -0.2884
  336MOL0     C45258   5.826   9.149   9.063  0.0806 -0.7544  0.6715
  336MOL0     C45259   5.934   9.230   9.097 -0.2342 -0.6089  0.3967
  336MOL0     C45260   5.995   9.215   9.221 -0.5754 -0.0823  0.2646
  336MOL0     O45261   6.103   9.298   9.236 -0.2246  0.0566 -0.0639
  336MOL0     C45262   6.146   9.317   9.372  1.1791 -0.3843 -0.0726
  336MOL0     C45263   6.265   9.403   9.388  0.2773 -0.5053  0.9610
  336MOL0     C45264   6.310   9.446   9.522 -0.2571  1.7508 -0.7540
  336MOL0     C45265   6.221   9.545   9.578 -0.6033  0.3513 -0.1868
  336MOL0     C45266   6.266   9.613   9.716 -0.0272 -0.4411  0.4462
  336MOL0     C45267   6.158   9.703   9.777  0.3953 -0.3790  1.1983
  336MOL0     C45268   6.046   9.620   9.837 -0.4127 -0.0885  0.2468
  336MOL0     C45269   6.073   9.588   9.991  0.3499  0.4089 -0.7329
  336MOL0    Cl45270   5.934   9.512  10.071  0.1730 -0.0996 -0.3817
  336MOL0     C45271   5.950   9.110   9.302  0.7541 -0.5049 -0.2722
  336MOL0     C45272   5.830   9.038   9.280 -1.2976 -0.4002 -0.1845
  336MOL0     O45273   5.693   8.786   9.142 -0.4982  0.1075 -0.2587
  336MOL0     C45274   5.452   8.983   9.304 -0.7042 -1.5075  0.5170
  336MOL0     C45275   5.336   8.998   9.382 -0.3370 -0.2982 -0.6764
  336MOL0     N45276   5.431   8.556  10.036  0.4287 -0.6095 -0.1260
  336MOL0     N45277   5.404   8.510  10.149  0.0510 -0.3117 -0.9168
  336MOL0     C45278   5.611   9.084  11.065  0.3096 -0.1980 -0.3580
  336MOL0     C45279   5.716   9.182  11.079 -0.2877 -0.3932 -0.2333
  336MOL0     C45280   5.888   9.548  11.254  0.0934  0.0636 -0.0399
  336MOL0     C45281   5.865   9.659  11.342 -1.3955  0.8869  0.5981
  336MOL0     C45282   5.972   9.737  11.383  0.2392 -0.1386 -1.0610
  336MOL0     C45283   6.097   9.702  11.349 -0.2323 -0.7766 -0.5472
  336MOL0     O45284   6.205   9.772  11.406  0.4400 -0.0176 -0.1777
  336MOL0     C45285   6.337   9.734  11.376 -0.1067  0.2665  0.2761
  336MOL0     C45286   6.425   9.818  11.465  0.4263 -0.0935  0.3762
  336MOL0     C45287   6.566   9.792  11.419  0.4272 -0.0763 -0.6260
  336MOL0     C45288   6.670   9.896  11.459  0.1927 -1.4391 -0.7543
  336MOL0     C45289   6.680   9.910  11.610  0.7218  0.4784 -0.0513
  336MOL0     C45290   6.696   9.918  11.731  0.1403  0.0219  0.4167
  336MOL0     C45291   6.116   9.609  11.255 -0.3505  0.7944  0.7348
  336MOL0     C45292   6.017   9.534  11.193 -0.0680  0.5213  0.3380
  336MOL0     H45293   5.554   9.472  10.992  2.1167  0.6627 -0.2174
  336MOL0     H45294   5.360   9.296  10.970  0.0420  1.3488  0.9900
  336MOL0     H45295   5.466   8.872  11.043  1.4761  2.0279 -1.9637
  336MOL0     H45296   5.347   8.931  11.166  0.8487  2.1407  0.1807
  336MOL0     H45297   5.224   8.759  11.034  2.9946 -0.7935  1.2581
  336MOL0     H45298   5.158   8.925  11.019  1.8223  2.8681 -0.6153
  336MOL0     H45299   5.211   8.973  10.828  0.9736  0.4326  0.9279
  336MOL0     H45300   5.360   8.882  10.826  0.7717 -2.4303  2.0939
  336MOL0     H45301   5.205   8.671  10.802 -1.6800 -0.2447  0.4636
  336MOL0     H45302   5.075   8.789  10.785 -0.5125 -0.3487  0.9210
  336MOL0     H45303   5.129   8.727  10.561 -2.9162  2.2408  1.1566
  336MOL0     H45304   5.198   8.888  10.583  1.3110 -0.3765  0.3575
  336MOL0     H45305   5.415   8.808  10.633  2.1639 -1.4076  1.2798
  336MOL0     H45306   5.361   8.639  10.619  1.2421  0.8726  0.8218
  336MOL0     H45307   5.319   8.836  10.397 -0.3195  0.5809  3.9030
  336MOL0     H45308   5.470   8.738  10.411  0.9617  1.9940  1.3612
  336MOL0     H45309   5.194   8.611  10.339  0.1202 -1.6601 -2.4735
  336MOL0     H45310   5.343   8.527  10.406 -0.3894  1.3810  1.6252
  336MOL0     H45311   5.297   8.823  10.160  0.8266  0.8555  1.5228
  336MOL0     H45312   5.416   8.873   9.938  0.3183 -0.6763  2.9092
  336MOL0     H45313   5.478   8.747   9.827 -0.4791  0.3373 -0.1117
  336MOL0     H45314   5.177   8.804   9.885 -1.1191 -0.4858  0.1585
  336MOL0     H45315   5.251   8.654   9.818  2.7441  0.4491 -0.1757
  336MOL0     H45316   5.362   8.780   9.632  0.4219 -0.2143  1.2448
  336MOL0     H45317   5.297   8.930   9.695 -4.3169  1.7414 -0.2675
  336MOL0     H45318   5.072   8.853   9.671  0.7405 -0.6391  0.7492
  336MOL0     H45319   5.122   8.707   9.583  2.3410 -1.1405 -0.1115
  336MOL0     H45320   5.235   8.686   9.383 -0.4490  0.3928  1.7471
  336MOL0     H45321   5.436   8.593   9.131  2.0956 -1.5759 -0.5624
  336MOL0     H45322   5.577   8.591   9.235 -0.7228 -1.1362  2.1939
  336MOL0     H45323   5.431   8.529   9.298 -1.8763  0.7320 -0.3247
  336MOL0     H45324   5.762   9.160   8.976 -0.2303 -2.4227  0.6558
  336MOL0     H45325   5.976   9.309   9.035  1.4347 -0.8557  1.1464
  336MOL0     H45326   6.070   9.363   9.436  1.7022  1.4856 -0.7396
  336MOL0     H45327   6.161   9.217   9.414 -1.2602 -0.6865  0.2687
  336MOL0     H45328   6.339   9.355   9.323 -2.0143  0.8161 -2.9744
  336MOL0     H45329   6.244   9.491   9.327 -0.4634  0.3656  2.4223
  336MOL0     H45330   6.412   9.487   9.524 -0.0337  1.2047  1.2440
  336MOL0     H45331   6.302   9.357   9.586 -0.6617  0.9217 -1.9090
  336MOL0     H45332   6.194   9.618   9.501 -0.3290  1.9947  1.1976
  336MOL0     H45333   6.129   9.491   9.600 -1.5414  2.9282  3.0930
  336MOL0     H45334   6.350   9.682   9.711 -2.1354  2.2999  0.6749
  336MOL0     H45335   6.295   9.528   9.780  0.3376 -1.2715 -0.7812
  336MOL0     H45336   6.192   9.778   9.850  0.0866  2.3355 -1.2760
  336MOL0     H45337   6.117   9.750   9.688  1.9131 -0.7497  0.2682
  336MOL0     H45338   6.043   9.530   9.775  0.6050 -0.1269  0.2356
  336MOL0     H45339   5.955   9.674   9.813 -1.1500 -1.9193 -1.3370
  336MOL0     H45340   6.093   9.682  10.045 -0.1436  1.0122 -1.5782
  336MOL0     H45341   6.160   9.526  10.012 -0.5513 -0.5709  0.1940
  336MOL0     H45342   6.003   9.082   9.392  1.2062  0.5506 -0.1897
  336MOL0     H45343   5.795   8.965   9.353 -1.2408 -1.5713 -1.2949
  336MOL0     H45344   5.506   9.071   9.271  1.7715 -3.2002 -0.1880
  336MOL0     H45345   5.307   9.098   9.411  0.8505 -0.4953  1.3239
  336MOL0     H45346   5.623   8.977  11.080 -0.2644 -0.0942  0.9810
  336MOL0     H45347   5.814   9.148  11.111 -0.9390 -0.6840  1.5434
  336MOL0     H45348   5.771   9.661  11.396 -1.2322 -0.0096  0.9344
  336MOL0     H45349   5.950   9.822  11.447 -2.1993 -1.2438 -0.3354
  336MOL0     H45350   6.368   9.631  11.395 -0.0855 -0.4854 -3.1569
  336MOL0     H45351   6.353   9.753  11.269 -1.9678  2.7709  0.3471
  336MOL0     H45352   6.417   9.778  11.567 -1.1761 -0.4828  0.1343
  336MOL0     H45353   6.393   9.922  11.459  0.3827 -0.1726 -0.8611
  336MOL0     H45354   6.570   9.771  11.312 -0.9170  1.4467 -1.0198
  336MOL0     H45355   6.600   9.701  11.470 -0.5343 -0.3723 -0.4855
  336MOL0     H45356   6.652   9.996  11.418  3.2890  0.0415  1.1076
  336MOL0     H45357   6.770   9.870  11.421  1.1155  0.7841  0.0027
  336MOL0     H45358   6.718   9.929  11.836  0.8606  1.0967  0.1739
  336MOL0     H45359   6.215   9.574  11.227 -1.8069  0.1064 -4.6581
  336MOL0     H45360   6.037   9.452  11.124 -1.6986  0.9803 -0.7479
  337MOL0     O45361   0.446   0.371   2.152 -0.4509  0.0407 -0.3775
  337MOL0     C45362   0.430   0.279   2.069  0.4214 -0.5647  1.0301
  337MOL0     O45363   0.337   0.275   1.968  0.7017 -0.5499 -0.1524
  337MOL0     C45364   0.244   0.375   1.968  0.1430 -0.6833  0.6309
  337MOL0     C45365   0.139   0.388   2.064 -1.4395  0.5746  0.0326
  337MOL0     C45366   0.060   0.499   2.061  0.8006 -0.1949 -0.9457
  337MOL0     C45367   0.080   0.608   1.969 -0.2654  0.3920  0.7937
  337MOL0     O45368   0.004   0.714   1.950  0.3342 -0.1011 -1.0596
  337MOL0     C45369  -0.029   0.800   2.063  0.7442 -0.2949 -0.2546
  337MOL0     C45370  -0.134   0.905   2.007 -0.8827 -0.0366  0.2815
  337MOL0     C45371  -0.159   0.995   2.125  0.0858 -0.4789 -0.7420
  337MOL0     C45372  -0.277   1.090   2.090 -0.6168 -0.4459  1.0713
  337MOL0     C45373  -0.309   1.183   2.204  0.4140 -0.1331 -0.1925
  337MOL0     C45374  -0.378   1.306   2.147  0.2434  0.1433  0.7578
  337MOL0     C45375  -0.517   1.280   2.079 -0.2526  0.4984  0.2850
  337MOL0     C45376  -0.607   1.410   2.065 -0.4343 -0.6174  0.7978
  337MOL0     N45377  -0.747   1.389   2.014 -0.3262  0.1587 -0.0349
  337MOL0     C45378  -0.770   1.340   1.887 -0.2299 -0.9646 -0.3249
  337MOL0     C45379  -0.887   1.389   1.841  0.8695 -0.6024 -0.4679
  337MOL0     C45380  -0.966   1.363   1.715  0.9616  0.1717  0.0287
  337MOL0     C45381  -0.920   1.236   1.638  0.3727 -0.3604 -0.1435
  337MOL0     C45382  -0.974   1.100   1.689  0.6354 -0.3799 -0.0305
  337MOL0     C45383  -0.946   1.067   1.838 -0.4983 -0.2394  0.1909
  337MOL0     O45384  -1.059   0.979   1.870  0.3539  0.3234  0.6511
  337MOL0     C45385  -1.080   0.949   1.996 -0.4972 -0.2294 -0.6162
  337MOL0     C45386  -1.037   1.028   2.109  0.2759  0.9690 -0.3963
  337MOL0     C45387  -1.084   0.996   2.239  0.0808  0.0819 -0.0886
  337MOL0     C45388  -1.037   1.091   2.355 -0.0319  0.4058  0.4331
  337MOL0     C45389  -1.174   0.888   2.255  0.0929  1.0550  0.8265
  337MOL0     C45390  -1.227   0.835   2.388 -0.1462 -0.0693  0.2980
  337MOL0     O45391  -1.333   0.758   2.381 -0.0359  0.3719  0.4741
  337MOL0     C45392  -1.399   0.748   2.503  0.0204 -0.4189  0.4455
  337MOL0     C45393  -1.535   0.785   2.497 -0.5951  0.3979 -0.2836
  337MOL0     C45394  -1.613   0.742   2.594 -0.3913 -0.6658 -0.0220
  337MOL0     C45395  -1.565   0.688   2.712 -0.2199  0.7021 -0.0363
  337MOL0     O45396  -1.664   0.651   2.799  0.0318  0.7407  0.3740
  337MOL0     C45397  -1.635   0.535   2.883  0.4026  0.0208  0.2527
  337MOL0     C45398  -1.739   0.427   2.844  0.3992 -0.0641  0.3896
  337MOL0     C45399  -1.889   0.476   2.868 -0.5461  0.0274 -0.9572
  337MOL0     C45400  -1.982   0.375   2.806  0.9349 -0.2876 -0.9687
  337MOL0     C45401  -2.114   0.367   2.879  0.2419 -0.0693 -0.4200
  337MOL0     C45402  -2.205   0.269   2.804 -0.1377 -0.1423 -0.4563
  337MOL0     C45403  -2.348   0.270   2.851 -0.3197 -0.1194  1.4663
  337MOL0     C45404  -2.437   0.178   2.775 -0.1969 -0.7261 -0.4154
  337MOL0    Cl45405  -2.583   0.155   2.870 -0.0563  0.2546  0.0465
  337MOL0     C45406  -1.427   0.656   2.725 -0.2686 -0.2691  0.4020
  337MOL0     C45407  -1.344   0.688   2.617 -0.2510 -1.3099  0.3791
  337MOL0     O45408  -1.160   0.858   2.489 -0.0977 -0.8126  0.3225
  337MOL0     C45409  -1.207   0.810   2.141  0.5415 -0.4240  1.3653
  337MOL0     C45410  -1.163   0.839   2.015 -0.6871  0.5144  0.7789
  337MOL0     N45411  -0.929   1.474   1.945  0.0241 -0.2174 -0.2673
  337MOL0     N45412  -0.842   1.484   2.045 -0.0675  0.0616  0.4214
  337MOL0     C45413   0.196   0.599   1.885  0.8547 -0.1623  0.2971
  337MOL0     C45414   0.278   0.487   1.890 -0.5771 -1.3533  0.1811
  337MOL0     C45415   0.525   0.166   2.062 -0.4031  0.5412  0.0718
  337MOL0     C45416   0.518   0.067   1.974 -0.1511 -0.0983  1.0726
  337MOL0     C45417   0.602  -0.050   1.990 -0.2202  1.3367 -0.2262
  337MOL0     C45418   0.686  -0.071   2.091 -1.0962  0.1875  0.6122
  337MOL0     O45419   0.767  -0.184   2.093 -0.8233 -0.4939 -0.7235
  337MOL0     C45420   0.817  -0.236   2.229  0.0911 -0.3848 -0.0402
  337MOL0     C45421   0.847  -0.393   2.227 -0.1679 -0.1408 -0.2606
  337MOL0     C45422   0.711  -0.468   2.195  0.6943 -0.6141 -0.2377
  337MOL0     C45423   0.745  -0.601   2.117  0.0129 -0.6747 -0.2584
  337MOL0     C45424   0.833  -0.685   2.199  0.6520  0.2710 -0.8976
  337MOL0     C45425   0.911  -0.747   2.265 -0.2844  0.4718 -1.6022
  337MOL0     C45426   0.694   0.031   2.183  0.4573 -0.0179  0.3446
  337MOL0     C45427   0.612   0.146   2.172 -0.0139 -0.1842 -0.2252
  337MOL0     H45428   0.112   0.315   2.140  0.4233  0.3461  0.5395
  337MOL0     H45429  -0.029   0.493   2.122  0.1734  0.8788 -1.7084
  337MOL0     H45430  -0.060   0.741   2.150 -0.0776 -0.3122 -0.5505
  337MOL0     H45431   0.062   0.853   2.091 -0.3577  1.5661 -0.0246
  337MOL0     H45432  -0.090   0.962   1.925 -0.5036 -1.0976 -0.2758
  337MOL0     H45433  -0.222   0.849   1.971 -1.1900  0.5959  0.0322
  337MOL0     H45434  -0.210   0.940   2.204 -1.2948 -0.7135 -1.7491
  337MOL0     H45435  -0.071   1.054   2.152 -0.5620 -0.2829  1.0247
  337MOL0     H45436  -0.264   1.153   2.002  0.2123  0.8577  2.0819
  337MOL0     H45437  -0.368   1.033   2.070  2.0721 -4.8181  0.0053
  337MOL0     H45438  -0.362   1.131   2.284  0.5610 -1.6501 -1.0550
  337MOL0     H45439  -0.212   1.204   2.250  0.0290 -0.6323  0.8751
  337MOL0     H45440  -0.390   1.372   2.234 -0.9607 -0.7238  1.2691
  337MOL0     H45441  -0.325   1.368   2.074 -0.7826 -1.2602 -1.2450
  337MOL0     H45442  -0.502   1.244   1.977 -3.0957  1.4278 -0.5444
  337MOL0     H45443  -0.576   1.216   2.146 -0.9186 -1.2020 -1.8040
  337MOL0     H45444  -0.560   1.481   1.997  1.0789 -3.7925 -1.7614
  337MOL0     H45445  -0.595   1.455   2.164  1.9142 -0.5705  0.5456
  337MOL0     H45446  -0.696   1.273   1.845  2.6263  0.4092  2.1746
  337MOL0     H45447  -1.071   1.357   1.744  0.8495 -0.6045 -0.5380
  337MOL0     H45448  -0.948   1.449   1.649  1.6657 -1.9431 -2.7201
  337MOL0     H45449  -0.811   1.226   1.635  0.2502 -1.8682 -0.5776
  337MOL0     H45450  -0.966   1.255   1.541 -0.3318 -0.8824  0.0769
  337MOL0     H45451  -0.941   1.009   1.637 -0.0593  0.0688 -1.3055
  337MOL0     H45452  -1.082   1.115   1.682  1.0404  2.8862 -0.9005
  337MOL0     H45453  -0.944   1.154   1.904  1.7971  1.3884 -1.8968
  337MOL0     H45454  -0.852   1.012   1.851 -0.2620  0.4470  1.6406
  337MOL0     H45455  -0.972   1.115   2.096  0.7755  0.4983 -1.1341
  337MOL0     H45456  -1.110   1.172   2.363  1.0996  1.4047  0.8675
  337MOL0     H45457  -1.031   1.025   2.443 -0.3260 -2.2486 -1.4231
  337MOL0     H45458  -0.943   1.140   2.331  0.6674 -0.6461  0.9117
  337MOL0     H45459  -1.584   0.846   2.421  0.9030  0.2154 -1.4678
  337MOL0     H45460  -1.715   0.778   2.598 -1.0527 -2.4740  0.7021
  337MOL0     H45461  -1.539   0.495   2.850  0.3051  1.5413 -2.1923
  337MOL0     H45462  -1.644   0.557   2.990 -2.2696  4.1542 -0.5568
  337MOL0     H45463  -1.728   0.414   2.736 -1.2636 -0.3977  0.2343
  337MOL0     H45464  -1.719   0.331   2.893  3.5780  0.3241  0.1091
  337MOL0     H45465  -1.906   0.579   2.835  0.9496  0.9265  0.8626
  337MOL0     H45466  -1.894   0.487   2.977  1.2325  2.6259 -1.0421
  337MOL0     H45467  -2.002   0.399   2.701 -1.3750 -1.8899 -0.9648
  337MOL0     H45468  -1.932   0.279   2.818  1.4119  0.2510  2.1094
  337MOL0     H45469  -2.160   0.466   2.892  1.2374  0.4302 -0.5417
  337MOL0     H45470  -2.097   0.325   2.978 -0.3851 -0.8156 -0.6254
  337MOL0     H45471  -2.198   0.294   2.698  0.1945 -3.0720 -1.2092
  337MOL0     H45472  -2.161   0.173   2.829 -0.7858 -0.4948 -0.6367
  337MOL0     H45473  -2.383   0.374   2.845 -1.0971 -0.4342  0.1512
  337MOL0     H45474  -2.355   0.249   2.957 -1.3463  1.9900  1.8762
  337MOL0     H45475  -2.384   0.083   2.762  0.3710 -0.7316  1.6589
  337MOL0     H45476  -2.459   0.218   2.675  2.6815  0.4152 -0.6966
  337MOL0     H45477  -1.375   0.626   2.816  0.3444 -1.9638 -0.4776
  337MOL0     H45478  -1.240   0.660   2.606 -0.3360 -0.9254 -2.1201
  337MOL0     H45479  -1.280   0.730   2.145  0.8440 -0.6900  1.5996
  337MOL0     H45480  -1.198   0.787   1.926 -3.3185 -1.0119  2.5735
  337MOL0     H45481   0.220   0.669   1.807 -1.5509  1.4017  0.8613
  337MOL0     H45482   0.368   0.472   1.832 -0.6431  0.4779 -0.4417
  337MOL0     H45483   0.456   0.088   1.887 -4.5075 -1.7986  3.4162
  337MOL0     H45484   0.601  -0.131   1.917 -2.4589  2.0040 -1.0172
  337MOL0     H45485   0.894  -0.183   2.286 -0.0514 -1.3588  1.0936
  337MOL0     H45486   0.729  -0.229   2.295 -1.1030  1.0625 -1.6948
  337MOL0     H45487   0.889  -0.424   2.323  4.3111  1.4803 -1.4612
  337MOL0     H45488   0.920  -0.413   2.149  1.0178  1.0515  0.4929
  337MOL0     H45489   0.653  -0.409   2.122  1.2248 -1.1287 -1.0886
  337MOL0     H45490   0.658  -0.470   2.290  1.1400  4.6089  0.4546
  337MOL0     H45491   0.784  -0.597   2.015  0.5927 -1.8900 -0.1054
  337MOL0     H45492   0.651  -0.657   2.108  0.4280 -1.4808  0.2284
  337MOL0     H45493   0.970  -0.806   2.332 -0.7540 -1.0174 -2.4307
  337MOL0     H45494   0.736   0.011   2.282 -0.3684  1.9941  1.1585
  337MOL0     H45495   0.613   0.234   2.235  2.8784  0.7969 -1.4699
  338MOL0     O45496  10.850   2.031   9.500  0.5508  0.1916 -0.4330
  338MOL0     C45497  10.848   1.962   9.396 -0.5198 -0.3021 -0.3619
  338MOL0     O45498  10.736   1.935   9.319 -0.1165 -0.6597  0.4347
  338MOL0     C45499  10.623   2.002   9.347 -0.1267  0.3011  0.0238
  338MOL0     C45500  10.610   2.136   9.387 -1.2512 -0.4284 -0.5111
  338MOL0     C45501  10.484   2.187   9.424 -0.3282 -0.1533 -0.4820
  338MOL0     C45502  10.374   2.100   9.419  0.3442  0.3399  0.3474
  338MOL0     O45503  10.246   2.147   9.447 -0.7532 -0.1976 -0.7205
  338MOL0     C45504  10.197   2.072   9.563  0.1903  0.1774 -0.3403
  338MOL0     C45505  10.071   2.126   9.611  1.6652 -0.2462  0.5583
  338MOL0     C45506   9.949   2.054   9.537 -0.0479 -0.2000  0.5182
  338MOL0     C45507   9.810   2.111   9.581 -0.5034 -0.3951  0.0526
  338MOL0     C45508   9.696   2.037   9.508  0.4345 -0.5366 -0.4373
  338MOL0     C45509   9.563   2.103   9.551 -0.0388 -0.4548  0.3133
  338MOL0     C45510   9.446   2.011   9.549 -0.5151  1.1294  0.4065
  338MOL0     C45511   9.326   2.086   9.571  0.3418 -0.3401 -1.0492
  338MOL0     N45512   9.207   1.998   9.598  0.7718  0.1932 -0.0156
  338MOL0     C45513   9.137   1.939   9.499 -0.1039  0.1885 -0.0166
  338MOL0     C45514   9.028   1.882   9.564  0.8165 -0.4617 -0.3988
  338MOL0     C45515   8.899   1.834   9.502 -0.3840 -0.3417 -0.4493
  338MOL0     C45516   8.837   1.934   9.398  0.7745  0.6875  0.3602
  338MOL0     C45517   8.753   2.043   9.481 -0.4263  0.8774 -0.4862
  338MOL0     C45518   8.622   2.094   9.405  0.9289  0.2422  0.0657
  338MOL0     O45519   8.527   1.994   9.400  0.5594 -0.2677 -0.1577
  338MOL0     C45520   8.387   2.024   9.370 -0.4086  0.3955  0.1831
  338MOL0     C45521   8.347   2.146   9.305 -0.3955  0.2938 -0.1730
  338MOL0     C45522   8.210   2.174   9.275 -0.3595  0.1583  0.3982
  338MOL0     C45523   8.169   2.311   9.234 -0.0908 -0.0833  0.0389
  338MOL0     C45524   8.116   2.072   9.288  0.4853  0.4068  0.7030
  338MOL0     C45525   7.965   2.099   9.276 -0.3370  0.0702 -0.3916
  338MOL0     O45526   7.893   1.994   9.261  0.0954 -0.2003 -0.2056
  338MOL0     C45527   7.759   1.984   9.269  0.4886 -0.3578  0.0988
  338MOL0     C45528   7.716   1.847   9.275 -0.1736 -0.2712  0.6253
  338MOL0     C45529   7.580   1.815   9.274  0.2867 -0.5330 -0.3378
  338MOL0     C45530   7.490   1.910   9.249  0.3986 -0.5836  0.9790
  338MOL0     O45531   7.356   1.889   9.225 -0.2879 -0.9693 -0.7288
  338MOL0     C45532   7.297   1.759   9.217  0.2517 -0.2541 -0.9024
  338MOL0     C45533   7.150   1.805   9.207 -1.5211 -0.9772  0.2910
  338MOL0     C45534   7.042   1.711   9.178 -0.5668  0.1003 -0.1849
  338MOL0     C45535   6.908   1.790   9.183  0.5842  0.1844 -0.7941
  338MOL0     C45536   6.795   1.686   9.168 -0.5343 -0.8964  0.6207
  338MOL0     C45537   6.660   1.763   9.181 -0.4652 -0.1498  0.0294
  338MOL0     C45538   6.550   1.658   9.178 -0.4245 -0.6015  0.2078
  338MOL0     C45539   6.409   1.711   9.208  0.3512  0.6431 -0.8104
  338MOL0    Cl45540   6.294   1.582   9.159 -0.5921  0.1209 -0.0738
  338MOL0     C45541   7.527   2.040   9.246 -0.6084  0.6549 -0.5276
  338MOL0     C45542   7.664   2.080   9.254 -0.3069  0.2202 -0.4856
  338MOL0     O45543   7.919   2.210   9.314 -0.1357  0.2203 -0.2744
  338MOL0     C45544   8.153   1.947   9.348 -0.2843  0.3226  0.2305
  338MOL0     C45545   8.286   1.930   9.387 -0.5108  0.8325  0.7063
  338MOL0     N45546   9.035   1.903   9.708 -0.1674 -0.5449  0.4142
  338MOL0     N45547   9.148   1.971   9.722 -0.3815 -0.7466 -0.8926
  338MOL0     C45548  10.387   1.958   9.386  0.5209 -0.6665 -0.2427
  338MOL0     C45549  10.514   1.914   9.350  0.3517  0.7700  1.1689
  338MOL0     C45550  10.977   1.918   9.345 -0.0694 -1.1208 -0.6059
  338MOL0     C45551  11.094   1.960   9.409 -0.4736 -0.0729 -0.0014
  338MOL0     C45552  11.216   1.915   9.377  0.3868 -0.0556  0.1198
  338MOL0     C45553  11.234   1.824   9.268 -0.4996  0.3312  0.4178
  338MOL0     O45554  11.368   1.781   9.222  0.4604 -0.4248  0.5021
  338MOL0     C45555  11.473   1.761   9.315  0.8074  0.1406  0.1208
  338MOL0     C45556  11.603   1.792   9.264  0.4505  0.3061 -0.3850
  338MOL0     C45557  11.610   1.921   9.173  0.0341 -0.1945 -0.2817
  338MOL0     C45558  11.760   1.963   9.168  0.4069  0.3367  0.1745
  338MOL0     C45559  11.768   2.045   9.051 -0.8002 -0.9619 -0.0333
  338MOL0     C45560  11.800   2.120   8.961  0.2440  0.1474  0.0089
  338MOL0     C45561  11.118   1.787   9.203  0.9308 -0.0344 -0.2466
  338MOL0     C45562  10.983   1.823   9.242  0.2613  0.3362  0.1488
  338MOL0     H45563  10.697   2.200   9.376 -1.0186 -0.4246  1.1681
  338MOL0     H45564  10.471   2.292   9.448  2.2688 -0.0890  1.0198
  338MOL0     H45565  10.177   1.969   9.530  0.5984 -0.4214  1.1535
  338MOL0     H45566  10.275   2.067   9.640  0.2339 -2.3234 -0.4541
  338MOL0     H45567  10.063   2.115   9.719  2.1324  1.3614  0.7741
  338MOL0     H45568  10.068   2.234   9.595  0.0035 -0.0044  2.1688
  338MOL0     H45569   9.979   2.076   9.434 -0.4537  1.1378  0.6598
  338MOL0     H45570   9.955   1.945   9.547  0.0874 -0.6138 -2.9870
  338MOL0     H45571   9.794   2.099   9.688 -1.9624  3.2658  0.3931
  338MOL0     H45572   9.805   2.219   9.564  0.9932 -0.5663 -1.8916
  338MOL0     H45573   9.706   2.054   9.401  2.8499 -0.5005 -0.2568
  338MOL0     H45574   9.696   1.932   9.537  2.9187 -0.1060  1.4759
  338MOL0     H45575   9.566   2.142   9.654 -1.5505  0.8329 -0.0904
  338MOL0     H45576   9.541   2.191   9.491  0.7668 -1.2909 -1.2741
  338MOL0     H45577   9.451   1.947   9.461 -1.3518  0.3510  0.9049
  338MOL0     H45578   9.470   1.937   9.626 -0.6251  1.2933  0.5992
  338MOL0     H45579   9.302   2.139   9.478 -3.3698 -1.0738 -0.6234
  338MOL0     H45580   9.326   2.157   9.654 -4.8633 -0.1656 -0.9037
  338MOL0     H45581   9.140   1.941   9.390 -3.7225 -1.9633 -0.3041
  338MOL0     H45582   8.919   1.741   9.448 -0.4436 -1.6945  1.7256
  338MOL0     H45583   8.828   1.811   9.583  0.4777 -5.8136 -0.8361
  338MOL0     H45584   8.784   1.867   9.330 -0.5661  2.8946 -0.8748
  338MOL0     H45585   8.914   1.981   9.335  0.3021  4.4000  2.2523
  338MOL0     H45586   8.819   2.128   9.499  0.6933  0.0442 -0.5122
  338MOL0     H45587   8.725   2.006   9.580 -0.4536 -1.6242 -1.3610
  338MOL0     H45588   8.643   2.112   9.300  0.2187 -4.5505 -1.1520
  338MOL0     H45589   8.572   2.180   9.450 -1.8506 -0.5161 -1.3271
  338MOL0     H45590   8.423   2.220   9.279  1.6440 -3.1638 -6.1348
  338MOL0     H45591   8.120   2.318   9.136  0.2135 -0.8012 -0.1718
  338MOL0     H45592   8.119   2.372   9.310  0.3707  1.6354 -0.9763
  338MOL0     H45593   8.264   2.366   9.233  0.3012 -0.7559 -0.3238
  338MOL0     H45594   7.794   1.773   9.289  2.8062  2.4932 -0.2344
  338MOL0     H45595   7.548   1.712   9.288 -2.8332  0.5701  1.9302
  338MOL0     H45596   7.326   1.694   9.134 -2.0652 -0.1910 -1.8197
  338MOL0     H45597   7.317   1.709   9.312  1.2650 -3.1252 -2.4851
  338MOL0     H45598   7.129   1.860   9.299 -0.3938  0.7918 -0.4604
  338MOL0     H45599   7.151   1.883   9.130  2.0246  0.4284  1.5527
  338MOL0     H45600   7.035   1.625   9.246  1.5680  0.0621  0.0721
  338MOL0     H45601   7.074   1.676   9.079  0.0652  2.7908 -1.0027
  338MOL0     H45602   6.907   1.848   9.276 -2.6515  0.3677 -0.8429
  338MOL0     H45603   6.896   1.861   9.101  1.8007  0.2853 -0.9073
  338MOL0     H45604   6.797   1.607   9.243 -1.1212 -1.6911 -0.1814
  338MOL0     H45605   6.796   1.635   9.071 -3.8322  1.5187 -0.8890
  338MOL0     H45606   6.658   1.814   9.278  1.0266  5.2677 -2.4012
  338MOL0     H45607   6.647   1.841   9.105 -0.3340 -1.2145 -1.1221
  338MOL0     H45608   6.577   1.582   9.252  1.3860 -1.3785 -1.1529
  338MOL0     H45609   6.544   1.600   9.085  0.5295 -1.3378  0.5875
  338MOL0     H45610   6.382   1.806   9.161 -0.5226 -1.6264 -5.5791
  338MOL0     H45611   6.403   1.710   9.317  2.0167 -3.8154 -0.5320
  338MOL0     H45612   7.449   2.115   9.239 -2.9873 -1.6829 -0.9006
  338MOL0     H45613   7.692   2.185   9.249  1.3372 -0.2313 -1.3108
  338MOL0     H45614   8.084   1.864   9.363 -0.4646  0.4793  0.2770
  338MOL0     H45615   8.300   1.831   9.429  0.0695  0.6217  0.0211
  338MOL0     H45616  10.312   1.880   9.381 -1.1940  0.9963 -4.2238
  338MOL0     H45617  10.531   1.811   9.321  1.1162  1.2902 -0.3643
  338MOL0     H45618  11.088   2.028   9.493 -2.8428 -0.8112  0.5024
  338MOL0     H45619  11.298   1.959   9.432 -0.1979 -0.4238  1.3192
  338MOL0     H45620  11.458   1.822   9.404 -2.5116 -0.8287  0.3576
  338MOL0     H45621  11.476   1.657   9.351  3.0102  0.2282  0.2975
  338MOL0     H45622  11.639   1.710   9.202 -0.0583  0.0373 -0.3273
  338MOL0     H45623  11.674   1.793   9.347  1.1375  1.1010 -0.9588
  338MOL0     H45624  11.562   2.009   9.217  0.2310  0.4150 -1.2530
  338MOL0     H45625  11.572   1.904   9.072  1.7386 -2.8184 -0.5757
  338MOL0     H45626  11.831   1.880   9.173 -0.5037 -0.5348 -1.0565
  338MOL0     H45627  11.778   2.022   9.259  6.1509  0.5197 -0.6620
  338MOL0     H45628  11.807   2.194   8.884 -2.8103  2.4164  1.7112
  338MOL0     H45629  11.139   1.717   9.123  1.3411 -1.6584  1.2250
  338MOL0     H45630  10.898   1.781   9.191  0.9879  0.5850 -1.3213
  339MOL0     O45631   4.151   9.007   3.801  0.3918 -0.5565  0.0092
  339MOL0     C45632   4.131   8.951   3.909 -0.0049  0.2309 -0.1269
  339MOL0     O45633   4.071   9.009   4.013  0.6471 -1.3609  0.1356
  339MOL0     C45634   4.021   9.139   4.020  0.1952  0.9879 -0.3070
  339MOL0     C45635   3.928   9.158   4.133 -0.6089  0.9792  0.4513
  339MOL0     C45636   3.863   9.279   4.154  0.3208  0.1956 -0.3714
  339MOL0     C45637   3.883   9.382   4.063 -0.3026 -0.3579  0.3292
  339MOL0     O45638   3.813   9.499   4.093 -0.7433  0.0171 -0.3613
  339MOL0     C45639   3.858   9.567   4.210 -0.2170 -1.4346 -0.6234
  339MOL0     C45640   3.810   9.713   4.205  0.4879  0.2758  0.0344
  339MOL0     C45641   3.652   9.731   4.209  0.1147  0.4071  0.5844
  339MOL0     C45642   3.611   9.874   4.194 -0.6478 -0.5652  0.8156
  339MOL0     C45643   3.467   9.892   4.251  0.0469  0.2749  0.1437
  339MOL0     C45644   3.415  10.034   4.276  0.3830  0.1002 -0.0624
  339MOL0     C45645   3.274  10.032   4.328  0.2837 -0.6557 -1.1869
  339MOL0     C45646   3.171  10.003   4.212 -0.2713 -0.8018 -0.8543
  339MOL0     N45647   3.034  10.026   4.259  0.5362 -1.4257 -0.2453
  339MOL0     C45648   2.958   9.936   4.322 -0.0007  0.1080 -0.0579
  339MOL0     C45649   2.836  10.006   4.341  0.0357  0.0911  0.2684
  339MOL0     C45650   2.704   9.958   4.404  0.2843  0.2087 -0.5344
  339MOL0     C45651   2.728   9.935   4.554  0.3599 -0.2196  0.1067
  339MOL0     C45652   2.611   9.908   4.653  0.1567 -0.1277  0.0527
  339MOL0     C45653   2.593  10.008   4.759 -0.5119  0.0818 -0.1807
  339MOL0     O45654   2.539  10.122   4.689  0.0120  0.2283  0.2603
  339MOL0     C45655   2.418  10.166   4.735 -0.1381 -0.0506  0.4894
  339MOL0     C45656   2.388  10.197   4.863  0.2987  0.3313  0.4055
  339MOL0     C45657   2.265  10.233   4.914  0.0014 -0.2585  0.4312
  339MOL0     C45658   2.266  10.285   5.053  0.3225 -0.7775 -0.6604
  339MOL0     C45659   2.158  10.259   4.823 -0.2357 -0.6638  0.8028
  339MOL0     C45660   2.031  10.322   4.868  0.1092 -0.4085 -0.3197
  339MOL0     O45661   1.975  10.426   4.797 -0.3511  0.7379  0.6113
  339MOL0     C45662   1.858  10.466   4.850  0.5985  0.1085  0.2371
  339MOL0     C45663   1.865  10.585   4.926  0.0057 -0.9335  0.0355
  339MOL0     C45664   1.747  10.637   4.986  0.2180  0.2345  0.0585
  339MOL0     C45665   1.619  10.577   4.958  0.6169  0.2557 -0.2769
  339MOL0     O45666   1.502  10.637   4.997 -0.4755 -0.6923 -0.5065
  339MOL0     C45667   1.510  10.729   5.108 -1.7978 -0.6726 -0.1667
  339MOL0     C45668   1.369  10.751   5.157 -0.2013 -0.0315  0.5446
  339MOL0     C45669   1.363  10.813   5.293 -0.3948 -0.5962 -0.9959
  339MOL0     C45670   1.221  10.834   5.337 -0.2627 -0.4121  0.0593
  339MOL0     C45671   1.165  10.699   5.403  0.6895 -0.0678  0.1412
  339MOL0     C45672   1.032  10.729   5.463  0.9576 -0.2922  0.8133
  339MOL0     C45673   0.919  10.721   5.361  0.2287  0.3671 -0.1113
  339MOL0     C45674   0.784  10.757   5.439 -0.2531 -0.1192 -0.5422
  339MOL0    Cl45675   0.648  10.763   5.319  0.3078 -0.3038  0.1513
  339MOL0     C45676   1.613  10.454   4.888  0.6836 -0.1437 -0.8880
  339MOL0     C45677   1.732  10.403   4.837 -0.3627  0.6481  0.0924
  339MOL0     O45678   1.970  10.258   4.945  0.7395  0.6093 -0.2382
  339MOL0     C45679   2.186  10.228   4.691  0.4886  0.4484 -0.2166
  339MOL0     C45680   2.304  10.175   4.647 -0.0047  0.1017  0.1104
  339MOL0     N45681   2.857  10.132   4.289  0.0720  0.0776 -0.0155
  339MOL0     N45682   2.977  10.147   4.246  0.5218  0.1807 -0.1776
  339MOL0     C45683   3.958   9.362   3.944  0.1528  0.9973  0.4265
  339MOL0     C45684   4.029   9.246   3.923 -0.4273 -0.7090 -0.4991
  339MOL0     C45685   4.185   8.815   3.925  0.1681 -0.2060  0.0475
  339MOL0     C45686   4.285   8.774   3.840 -0.1273  0.6118 -0.3090
  339MOL0     C45687   4.358   8.659   3.866  0.7936 -0.9743  0.2721
  339MOL0     C45688   4.316   8.570   3.964  0.2148 -0.1913  0.7722
  339MOL0     O45689   4.371   8.446   3.984 -0.3122 -0.4628  0.6338
  339MOL0     C45690   4.404   8.412   4.120  1.4275  0.0627  0.5663
  339MOL0     C45691   4.481   8.280   4.119  0.5049 -0.3370  0.1905
  339MOL0     C45692   4.413   8.160   4.041  0.1058 -0.6942 -0.6745
  339MOL0     C45693   4.281   8.122   4.113  0.9473  0.2746 -0.2609
  339MOL0     C45694   4.240   7.988   4.071  0.0678 -0.0976 -0.4895
  339MOL0     C45695   4.201   7.875   4.058 -0.6616 -0.9166 -0.4277
  339MOL0     C45696   4.203   8.597   4.035  0.3265  0.2243 -0.9377
  339MOL0     C45697   4.147   8.728   4.028 -0.7220  0.5316  0.7530
  339MOL0     H45698   3.901   9.077   4.200 -1.9022  1.8562  1.0279
  339MOL0     H45699   3.783   9.287   4.226 -1.5517 -1.7330 -2.1093
  339MOL0     H45700   3.840   9.512   4.303  1.7352  0.5647  1.0551
  339MOL0     H45701   3.968   9.572   4.205 -0.2859  0.7829 -1.3002
  339MOL0     H45702   3.857   9.768   4.287  0.6097  0.1716  0.0338
  339MOL0     H45703   3.844   9.768   4.117  1.4709  0.2987  0.4237
  339MOL0     H45704   3.615   9.679   4.120 -0.7890  0.5472  0.8714
  339MOL0     H45705   3.613   9.678   4.296 -1.1108  1.1456  0.4966
  339MOL0     H45706   3.685   9.935   4.247 -0.2338  1.0782 -1.4813
  339MOL0     H45707   3.629   9.902   4.089  1.3416 -4.3707 -0.0202
  339MOL0     H45708   3.396   9.838   4.187  0.5353  0.4928 -0.6074
  339MOL0     H45709   3.466   9.836   4.344  0.1826 -0.1018 -0.0790
  339MOL0     H45710   3.479  10.072   4.356 -1.7542  0.1167  1.7448
  339MOL0     H45711   3.412  10.094   4.185  1.5126 -0.7264 -0.6714
  339MOL0     H45712   3.257   9.955   4.403  0.0428 -0.5160 -1.0960
  339MOL0     H45713   3.252  10.132   4.367  0.6832 -0.9487 -0.1793
  339MOL0     H45714   3.167   9.901   4.173 -2.0099 -0.1415 -2.5531
  339MOL0     H45715   3.205  10.072   4.134  0.3471  2.9228  2.4009
  339MOL0     H45716   2.981   9.836   4.358 -1.1252 -0.1125  0.0740
  339MOL0     H45717   2.621  10.028   4.397 -0.7532 -0.7012  1.6817
  339MOL0     H45718   2.688   9.867   4.346 -0.8474  0.4704 -0.6559
  339MOL0     H45719   2.794  10.016   4.587  1.9358 -1.4919  0.1655
  339MOL0     H45720   2.792   9.849   4.573  0.0654 -0.9171 -1.8459
  339MOL0     H45721   2.649   9.815   4.696 -0.6941 -0.6924 -0.3820
  339MOL0     H45722   2.522   9.886   4.593  1.4163 -1.0088 -1.5861
  339MOL0     H45723   2.686  10.041   4.805 -0.4892  1.5142 -1.1645
  339MOL0     H45724   2.536   9.971   4.844 -1.4595 -0.6186 -1.0849
  339MOL0     H45725   2.473  10.195   4.930  0.1741 -0.9950  0.5537
  339MOL0     H45726   2.300  10.389   5.056 -1.1138 -0.3033  0.3152
  339MOL0     H45727   2.162  10.285   5.085 -1.0142 -1.5221 -4.4632
  339MOL0     H45728   2.321  10.228   5.127 -0.6872  3.4614  3.8648
  339MOL0     H45729   1.955  10.645   4.933  0.6837 -1.7638 -1.2120
  339MOL0     H45730   1.749  10.733   5.037 -1.6151 -0.4697  1.6051
  339MOL0     H45731   1.574  10.679   5.181  0.6557  1.4602 -0.7122
  339MOL0     H45732   1.558  10.823   5.079  2.5213 -2.9290 -1.2391
  339MOL0     H45733   1.311  10.816   5.091  1.0682  0.0324 -0.5347
  339MOL0     H45734   1.322  10.653   5.175 -2.4632  0.8671 -0.0379
  339MOL0     H45735   1.403  10.914   5.301 -1.5358 -0.0819 -1.5476
  339MOL0     H45736   1.417  10.749   5.363 -1.7789 -0.2067  0.4789
  339MOL0     H45737   1.214  10.915   5.410 -4.1997 -1.4605  1.0798
  339MOL0     H45738   1.173  10.863   5.244  0.4771  0.4301 -0.0666
  339MOL0     H45739   1.231  10.659   5.481  2.0506  0.4558 -0.6953
  339MOL0     H45740   1.156  10.621   5.327 -0.0746 -0.4530  0.6140
  339MOL0     H45741   1.017  10.652   5.540  1.3678 -0.8833  0.3106
  339MOL0     H45742   1.040  10.829   5.505  3.7321 -0.7398  1.5476
  339MOL0     H45743   0.902  10.623   5.315  0.8100  0.3757 -0.3574
  339MOL0     H45744   0.927  10.807   5.294 -3.2872  0.8595 -0.0776
  339MOL0     H45745   0.782  10.861   5.473  3.7317  0.1517 -0.7048
  339MOL0     H45746   0.752  10.683   5.513 -1.4879 -2.7463 -3.4706
  339MOL0     H45747   1.522  10.397   4.870  0.1764 -0.3787  1.8778
  339MOL0     H45748   1.721  10.307   4.788 -1.9294  1.0883 -0.5066
  339MOL0     H45749   2.118  10.263   4.614  2.5445  0.8908 -1.9155
  339MOL0     H45750   2.318  10.148   4.543  1.6545 -0.3556  0.4237
  339MOL0     H45751   3.952   9.454   3.886 -0.1893  1.6474  1.4539
  339MOL0     H45752   4.086   9.248   3.831  0.1949 -0.8029 -0.1140
  339MOL0     H45753   4.329   8.841   3.767  2.0621 -0.1186  0.2716
  339MOL0     H45754   4.449   8.649   3.807  1.7787  2.7589  0.8691
  339MOL0     H45755   4.467   8.492   4.159  1.5372 -0.0672  0.6607
  339MOL0     H45756   4.316   8.392   4.183  1.6501  0.4855  1.0185
  339MOL0     H45757   4.514   8.265   4.222  2.9750  0.9110 -0.3458
  339MOL0     H45758   4.577   8.287   4.067 -0.0555 -2.7023 -1.3677
  339MOL0     H45759   4.476   8.071   4.048 -0.0189 -0.7619 -0.3652
  339MOL0     H45760   4.404   8.187   3.936  3.3784  0.7250 -0.6880
  339MOL0     H45761   4.193   8.185   4.101  2.4346  2.5649  0.1150
  339MOL0     H45762   4.290   8.124   4.222 -2.4094  2.4695  0.1148
  339MOL0     H45763   4.149   7.784   4.037 -1.1712 -0.5781 -0.6803
  339MOL0     H45764   4.162   8.532   4.112  0.8915 -0.3355 -1.1007
  339MOL0     H45765   4.068   8.748   4.100 -0.0521  0.0112  1.6520
  340MOL0     O45766   2.018   1.340   5.027 -0.7192  0.6689 -0.0902
  340MOL0     C45767   2.085   1.310   5.125  0.3475  0.9607 -0.5212
  340MOL0     O45768   2.111   1.185   5.177  0.2033  0.0612  0.4251
  340MOL0     C45769   2.057   1.074   5.114  0.7437  0.5604  0.2479
  340MOL0     C45770   2.000   1.051   4.982  0.0173 -0.0924  0.7496
  340MOL0     C45771   1.945   0.928   4.952  0.3979  1.2685  0.6077
  340MOL0     C45772   1.939   0.825   5.041  0.1227  0.3126 -1.2268
  340MOL0     O45773   1.897   0.698   5.011  0.0901  0.6905  0.5028
  340MOL0     C45774   1.919   0.640   4.878 -0.1544 -0.7607  0.6230
  340MOL0     C45775   1.804   0.547   4.836 -0.3448 -1.4244 -0.7191
  340MOL0     C45776   1.831   0.400   4.883 -0.5353 -0.5293 -0.2141
  340MOL0     C45777   1.750   0.296   4.815  0.2816  0.5581 -0.8234
  340MOL0     C45778   1.597   0.322   4.822  0.2220 -0.5440 -0.3302
  340MOL0     C45779   1.548   0.285   4.967 -1.1176  1.1590  0.2754
  340MOL0     C45780   1.400   0.297   4.994 -0.3143 -0.1914 -0.0690
  340MOL0     C45781   1.360   0.232   5.128 -0.5702 -0.4064 -0.8902
  340MOL0     N45782   1.269   0.117   5.097 -0.1601  0.3939 -0.6551
  340MOL0     C45783   1.140   0.101   5.138  0.4020  0.0200 -0.2996
  340MOL0     C45784   1.102  -0.024   5.092 -0.9344  0.5099  0.6224
  340MOL0     C45785   0.967  -0.088   5.140  0.0309  0.6546 -0.8086
  340MOL0     C45786   0.985  -0.241   5.179 -0.4469 -0.0274  0.7975
  340MOL0     C45787   0.924  -0.281   5.318 -0.0116 -0.7518 -0.0647
  340MOL0     C45788   0.778  -0.271   5.331 -0.8157  0.0386  0.5482
  340MOL0     O45789   0.741  -0.284   5.464  0.1398 -0.1937  0.3772
  340MOL0     C45790   0.609  -0.319   5.488 -0.6674  0.1548 -0.6015
  340MOL0     C45791   0.573  -0.321   5.623 -1.1878  0.5709  0.2995
  340MOL0     C45792   0.442  -0.350   5.657 -0.1089 -0.8501 -0.5864
  340MOL0     C45793   0.400  -0.347   5.810 -0.4492  0.2452  0.2866
  340MOL0     C45794   0.341  -0.379   5.560 -0.4285 -0.8797 -0.5203
  340MOL0     C45795   0.194  -0.405   5.586 -0.1673 -0.7604  0.8916
  340MOL0     O45796   0.115  -0.431   5.477  0.3687 -0.4874 -0.0982
  340MOL0     C45797  -0.020  -0.454   5.499  0.5436 -0.4068  0.0382
  340MOL0     C45798  -0.107  -0.343   5.520 -0.0978 -0.3960  0.7770
  340MOL0     C45799  -0.246  -0.368   5.502  0.2727  0.2958 -0.2511
  340MOL0     C45800  -0.291  -0.498   5.492  0.6898 -0.3123 -0.2939
  340MOL0     O45801  -0.433  -0.520   5.502 -0.4836 -0.4205  0.1751
  340MOL0     C45802  -0.479  -0.656   5.486  0.6607  0.4012  0.0649
  340MOL0     C45803  -0.635  -0.665   5.488  0.3121 -0.5202  0.2193
  340MOL0     C45804  -0.695  -0.632   5.353  0.0065 -0.4523 -0.5669
  340MOL0     C45805  -0.828  -0.711   5.343 -0.1344 -0.5293  0.2680
  340MOL0     C45806  -0.885  -0.717   5.200 -0.1616  0.1633 -0.1221
  340MOL0     C45807  -1.035  -0.732   5.183  1.0849 -0.0611 -0.7880
  340MOL0     C45808  -1.080  -0.838   5.285 -0.0480  0.0335  0.1921
  340MOL0     C45809  -1.237  -0.857   5.274  0.5625 -0.7519 -0.9137
  340MOL0    Cl45810  -1.314  -0.711   5.340  0.2217  0.3119  0.0900
  340MOL0     C45811  -0.201  -0.607   5.498  0.0536  0.2732  0.0722
  340MOL0     C45812  -0.062  -0.586   5.511  1.0986 -0.4872  0.5139
  340MOL0     O45813   0.146  -0.385   5.696  0.7385 -0.3964 -0.7087
  340MOL0     C45814   0.383  -0.382   5.423 -0.3648 -0.3863 -0.5699
  340MOL0     C45815   0.518  -0.356   5.392 -0.5934 -0.4685  0.4829
  340MOL0     N45816   1.211  -0.082   5.026  0.4313  0.1421  0.6251
  340MOL0     N45817   1.304   0.002   5.034  0.1105  0.2299 -0.5003
  340MOL0     C45818   1.978   0.856   5.181 -0.0290  0.4264 -0.2886
  340MOL0     C45819   2.042   0.974   5.206  0.1652  0.5925 -0.3114
  340MOL0     C45820   2.136   1.422   5.213 -0.6510  0.2921 -0.0433
  340MOL0     C45821   2.103   1.561   5.174  0.1706 -0.0877 -0.1791
  340MOL0     C45822   2.156   1.668   5.236  1.1302 -0.2868 -0.8008
  340MOL0     C45823   2.251   1.642   5.343 -0.4185  0.2188 -0.4576
  340MOL0     O45824   2.317   1.751   5.397  0.4417 -0.6800  0.0445
  340MOL0     C45825   2.293   1.758   5.539  0.3994 -0.5904 -0.3105
  340MOL0     C45826   2.348   1.889   5.570  0.5139 -0.7125  0.3366
  340MOL0     C45827   2.293   1.953   5.704  0.1607  0.0918 -0.1688
  340MOL0     C45828   2.388   1.932   5.824 -0.8354  0.1657 -0.4000
  340MOL0     C45829   2.374   1.799   5.880 -0.2605  0.5563 -0.6016
  340MOL0     C45830   2.363   1.690   5.934 -0.3278 -0.0771 -0.1424
  340MOL0     C45831   2.270   1.507   5.385 -0.4168  0.1285 -0.0472
  340MOL0     C45832   2.209   1.393   5.320 -1.1802  0.8955 -0.2059
  340MOL0     H45833   1.982   1.132   4.912 -0.5615 -0.6072  0.2906
  340MOL0     H45834   1.902   0.913   4.853 -0.4882 -1.3348  1.3325
  340MOL0     H45835   1.937   0.710   4.797 -2.4911  0.0271  0.7250
  340MOL0     H45836   2.007   0.575   4.885 -0.1823 -1.2053 -2.2074
  340MOL0     H45837   1.707   0.594   4.851  1.1081  3.6714 -4.6648
  340MOL0     H45838   1.798   0.547   4.727  3.7994 -1.3765 -1.1125
  340MOL0     H45839   1.934   0.367   4.871 -1.1636 -2.6801 -0.0933
  340MOL0     H45840   1.812   0.401   4.991 -0.0928 -2.9749 -0.0612
  340MOL0     H45841   1.765   0.294   4.707  0.9919 -0.0523 -0.7206
  340MOL0     H45842   1.788   0.197   4.841  1.4518  0.4159 -2.8947
  340MOL0     H45843   1.565   0.422   4.792  0.4957 -0.6441 -0.9764
  340MOL0     H45844   1.557   0.238   4.765 -0.6510  1.1320 -2.2931
  340MOL0     H45845   1.581   0.182   4.980  0.3987  1.8890  2.7518
  340MOL0     H45846   1.598   0.349   5.039  0.6065 -0.5822  0.6879
  340MOL0     H45847   1.387   0.406   4.987 -0.9219 -0.3210 -1.2843
  340MOL0     H45848   1.338   0.250   4.918 -1.3288  0.1784  0.5194
  340MOL0     H45849   1.311   0.311   5.186  0.1579 -0.5595 -0.0258
  340MOL0     H45850   1.448   0.202   5.186 -0.4345  0.5618 -0.5823
  340MOL0     H45851   1.073   0.167   5.192 -1.0909 -0.4113 -1.5569
  340MOL0     H45852   0.926  -0.022   5.217  2.2971  2.2716 -0.8874
  340MOL0     H45853   0.896  -0.079   5.058 -0.3646 -1.4396 -0.7406
  340MOL0     H45854   1.091  -0.270   5.180 -0.4230  0.0295  2.2833
  340MOL0     H45855   0.941  -0.306   5.103 -2.1512  1.9572 -0.0298
  340MOL0     H45856   0.971  -0.221   5.398 -2.1670 -0.6227  1.1767
  340MOL0     H45857   0.950  -0.381   5.354  2.0596  0.3124  1.7304
  340MOL0     H45858   0.736  -0.353   5.272 -2.2008  0.6720  0.6186
  340MOL0     H45859   0.744  -0.180   5.280  3.0931  1.1464 -0.4175
  340MOL0     H45860   0.648  -0.285   5.694 -0.1891 -1.7848  0.5228
  340MOL0     H45861   0.396  -0.450   5.845  3.3262 -0.9988 -2.2445
  340MOL0     H45862   0.484  -0.308   5.868 -0.4139 -1.2962  1.3447
  340MOL0     H45863   0.309  -0.289   5.824 -1.3948 -0.2530 -2.9515
  340MOL0     H45864  -0.066  -0.243   5.509 -0.6106 -0.1008  1.4321
  340MOL0     H45865  -0.308  -0.279   5.503  0.8028  0.7228 -1.7136
  340MOL0     H45866  -0.434  -0.688   5.392  1.1802 -3.1806  1.4038
  340MOL0     H45867  -0.423  -0.703   5.567  0.7267 -0.3822 -0.4289
  340MOL0     H45868  -0.660  -0.768   5.517  1.3956 -0.5954  0.9406
  340MOL0     H45869  -0.672  -0.591   5.560  0.3463  1.1603 -1.4125
  340MOL0     H45870  -0.631  -0.678   5.278  4.0442  0.5937  1.9042
  340MOL0     H45871  -0.712  -0.526   5.333 -1.1586 -0.8177 -1.6155
  340MOL0     H45872  -0.825  -0.810   5.389 -0.0953 -0.8359 -0.3759
  340MOL0     H45873  -0.903  -0.651   5.395 -0.3993  1.1672 -1.9092
  340MOL0     H45874  -0.832  -0.779   5.127 -2.6782 -1.1109 -1.0070
  340MOL0     H45875  -0.881  -0.614   5.163 -1.8747  1.0087  1.8323
  340MOL0     H45876  -1.078  -0.635   5.208  2.7306  0.2946  0.9092
  340MOL0     H45877  -1.065  -0.761   5.082 -0.5156  2.5575 -1.1612
  340MOL0     H45878  -1.042  -0.823   5.386  1.6617 -1.4692 -0.1661
  340MOL0     H45879  -1.034  -0.932   5.251 -1.6579 -0.1490 -1.6500
  340MOL0     H45880  -1.266  -0.947   5.330 -2.2820  2.4397  3.4348
  340MOL0     H45881  -1.273  -0.876   5.173 -2.0263  0.8668 -0.3901
  340MOL0     H45882  -0.241  -0.708   5.490 -0.9456  0.6174  0.4704
  340MOL0     H45883   0.003  -0.673   5.514  1.4761 -0.2015  2.6179
  340MOL0     H45884   0.324  -0.411   5.337  1.7205 -1.5721 -1.6692
  340MOL0     H45885   0.528  -0.358   5.284  2.1990 -1.7624  0.6572
  340MOL0     H45886   1.977   0.791   5.267  0.1289  2.2572  1.1645
  340MOL0     H45887   2.082   1.000   5.304 -0.9564 -1.1758  0.6726
  340MOL0     H45888   2.040   1.583   5.089 -0.5705  2.5176  0.9611
  340MOL0     H45889   2.138   1.765   5.190  5.3238 -0.4299 -3.4016
  340MOL0     H45890   2.191   1.761   5.576 -0.5717 -1.7082 -2.6486
  340MOL0     H45891   2.361   1.691   5.593 -2.1117 -1.0577  2.5544
  340MOL0     H45892   2.331   1.964   5.492  1.1827 -0.0841  0.7716
  340MOL0     H45893   2.457   1.880   5.577  0.5249  0.3718  3.0334
  340MOL0     H45894   2.198   1.905   5.731  0.4110 -0.4914 -0.3207
  340MOL0     H45895   2.286   2.061   5.688  0.5965  0.1053 -0.2860
  340MOL0     H45896   2.372   2.003   5.905  2.4768 -0.6452  1.1180
  340MOL0     H45897   2.488   1.938   5.780 -1.7420 -2.1528 -3.1457
  340MOL0     H45898   2.363   1.602   5.996 -3.0038  1.1880  1.8383
  340MOL0     H45899   2.347   1.489   5.459  0.9178  2.5467 -0.7678
  340MOL0     H45900   2.239   1.298   5.361 -0.3046  2.0487  1.9922
  341MOL0     O45901   3.987   4.456   0.878  0.0337 -0.3089 -0.0384
  341MOL0     C45902   4.015   4.548   0.957  0.5969 -0.1947 -0.1825
  341MOL0     O45903   4.014   4.534   1.090  0.1010  0.0510 -0.2457
  341MOL0     C45904   4.008   4.408   1.140 -0.7516 -0.0037 -0.4877
  341MOL0     C45905   3.880   4.363   1.171  0.6547  0.4651  0.1127
  341MOL0     C45906   3.859   4.233   1.222  0.5622  0.7389 -0.3596
  341MOL0     C45907   3.971   4.150   1.250  0.4293  0.2457  0.5125
  341MOL0     O45908   3.936   4.029   1.308 -0.4475 -0.5988  0.2980
  341MOL0     C45909   4.025   3.925   1.279 -0.0812  0.3772 -0.7487
  341MOL0     C45910   3.944   3.796   1.252  0.2482 -0.4024  0.1669
  341MOL0     C45911   4.036   3.676   1.217  0.3578 -0.0224  0.3700
  341MOL0     C45912   3.952   3.546   1.186  0.2165  0.4268 -0.6063
  341MOL0     C45913   4.039   3.420   1.196  0.8432  0.0393  0.3177
  341MOL0     C45914   3.966   3.294   1.176 -0.5464  0.1764 -0.0658
  341MOL0     C45915   4.067   3.178   1.208 -0.3259 -0.1391  0.8936
  341MOL0     C45916   4.013   3.041   1.149 -0.1676 -0.4809 -0.0107
  341MOL0     N45917   4.123   2.947   1.141  0.6961 -0.6161  0.1916
  341MOL0     C45918   4.152   2.900   1.021 -0.2351 -0.3812  0.3100
  341MOL0     C45919   4.223   2.784   1.050 -0.1033 -0.9456  0.0950
  341MOL0     C45920   4.290   2.688   0.954  0.0627 -0.3571 -0.5697
  341MOL0     C45921   4.287   2.543   1.008 -0.4781 -0.4841  0.0901
  341MOL0     C45922   4.284   2.439   0.899  0.2023 -0.6834 -0.8796
  341MOL0     C45923   4.307   2.305   0.957 -0.2268 -0.5843 -0.6400
  341MOL0     O45924   4.262   2.216   0.852 -0.0026  1.0842  0.4927
  341MOL0     C45925   4.331   2.202   0.733 -0.4628 -1.3204  0.1588
  341MOL0     C45926   4.466   2.178   0.712 -0.0192 -0.8241 -0.8445
  341MOL0     C45927   4.529   2.157   0.591  0.7983  0.4807 -0.1085
  341MOL0     C45928   4.683   2.152   0.594 -0.0183  0.1627  1.0986
  341MOL0     C45929   4.450   2.159   0.477  0.1611  1.0338  0.6306
  341MOL0     C45930   4.513   2.159   0.341  0.3809 -0.1888 -0.6822
  341MOL0     O45931   4.632   2.226   0.323 -0.1057  0.1494  0.1760
  341MOL0     C45932   4.693   2.263   0.206 -0.5235  0.2283  0.4016
  341MOL0     C45933   4.627   2.332   0.108  0.2203  0.0733  1.5500
  341MOL0     C45934   4.702   2.366  -0.004  0.8132 -0.5609 -0.1790
  341MOL0     C45935   4.841   2.355  -0.016 -0.7611 -0.1589 -0.0213
  341MOL0     O45936   4.901   2.402  -0.136 -0.3182 -0.5594  0.0221
  341MOL0     C45937   5.046   2.405  -0.140 -0.3160 -0.9394  0.2086
  341MOL0     C45938   5.109   2.290  -0.196 -0.3945 -0.2499 -0.8601
  341MOL0     C45939   5.251   2.311  -0.258 -0.2204 -0.1391  0.9474
  341MOL0     C45940   5.262   2.227  -0.391 -0.7389 -0.1177 -0.3964
  341MOL0     C45941   5.387   2.263  -0.468  0.8901  0.3087  0.4407
  341MOL0     C45942   5.517   2.244  -0.389  0.4971 -1.0612 -0.5851
  341MOL0     C45943   5.644   2.303  -0.455 -0.2380  0.6604 -0.4792
  341MOL0     C45944   5.663   2.459  -0.458  2.1741 -0.3342 -0.6169
  341MOL0    Cl45945   5.541   2.538  -0.568 -0.1231 -0.5431 -0.3413
  341MOL0     C45946   4.906   2.284   0.090 -0.2352 -0.0530  0.3518
  341MOL0     C45947   4.830   2.229   0.194  0.5029 -1.2412 -0.0305
  341MOL0     O45948   4.450   2.108   0.247  0.6467 -0.0759  0.5015
  341MOL0     C45949   4.314   2.193   0.488 -0.0359 -0.1458  0.7964
  341MOL0     C45950   4.256   2.195   0.615 -0.3755 -0.9147 -0.4073
  341MOL0     N45951   4.244   2.768   1.184 -1.1833  0.2230 -0.2958
  341MOL0     N45952   4.181   2.872   1.236  0.7038  0.8070 -1.0619
  341MOL0     C45953   4.098   4.198   1.227 -0.6080 -0.4498 -0.6220
  341MOL0     C45954   4.115   4.327   1.176  0.6875  0.3868 -0.7022
  341MOL0     C45955   4.035   4.684   0.897  0.4246 -0.4230  0.2970
  341MOL0     C45956   4.089   4.787   0.975 -0.0403  0.7495  0.8290
  341MOL0     C45957   4.095   4.920   0.923  0.4611 -0.0031  0.1743
  341MOL0     C45958   4.051   4.945   0.788  0.1647  1.2043  0.0037
  341MOL0     O45959   4.063   5.076   0.755  0.7772 -0.4590 -0.7805
  341MOL0     C45960   3.986   5.138   0.643 -0.9581 -0.1100  0.0040
  341MOL0     C45961   4.071   5.095   0.517 -0.1184 -1.4645 -0.2234
  341MOL0     C45962   4.150   5.224   0.473 -1.0868  0.4654 -0.2013
  341MOL0     C45963   4.259   5.197   0.370  0.1071 -0.2951 -0.3930
  341MOL0     C45964   4.381   5.278   0.381 -0.9473  0.9357 -0.8174
  341MOL0     C45965   4.476   5.354   0.398  0.2843  0.4196 -0.2994
  341MOL0     C45966   3.996   4.843   0.710 -0.1683  1.1182 -0.3405
  341MOL0     C45967   3.991   4.707   0.763 -0.1225 -0.4350  0.2512
  341MOL0     H45968   3.796   4.428   1.147 -0.0415 -0.0613  1.0643
  341MOL0     H45969   3.759   4.191   1.219 -0.3934  2.8268 -3.9593
  341MOL0     H45970   4.079   3.945   1.185 -3.4960 -1.7506 -3.3836
  341MOL0     H45971   4.098   3.909   1.359 -1.4547 -2.1633  0.0965
  341MOL0     H45972   3.881   3.768   1.337  1.6741 -0.4483  1.2256
  341MOL0     H45973   3.870   3.815   1.173  0.9173 -0.6112 -0.5279
  341MOL0     H45974   4.085   3.699   1.122  2.4308 -2.4155  0.7890
  341MOL0     H45975   4.117   3.648   1.284  2.2482  1.5191 -1.1495
  341MOL0     H45976   3.872   3.535   1.260  1.1921  1.2860  0.6221
  341MOL0     H45977   3.908   3.557   1.087 -0.9341  2.0072  0.0348
  341MOL0     H45978   4.109   3.434   1.112 -1.6125  0.4717 -1.7638
  341MOL0     H45979   4.098   3.415   1.288 -1.1698  0.8940  1.7082
  341MOL0     H45980   3.877   3.292   1.241  0.1051  2.1073  0.9676
  341MOL0     H45981   3.928   3.301   1.074 -1.1927  1.7778  0.2487
  341MOL0     H45982   4.164   3.195   1.160  0.1663  0.2262  1.9911
  341MOL0     H45983   4.069   3.184   1.317 -1.3809  1.2168  0.8588
  341MOL0     H45984   3.969   3.067   1.053  1.6810  4.7410  0.2545
  341MOL0     H45985   3.931   3.007   1.212 -1.2526  1.5229 -0.2625
  341MOL0     H45986   4.141   2.930   0.917  0.9008 -0.9775 -0.0066
  341MOL0     H45987   4.248   2.680   0.853 -0.9248  1.8431 -0.3919
  341MOL0     H45988   4.388   2.733   0.933 -0.7685  2.5571  1.1727
  341MOL0     H45989   4.204   2.536   1.079 -0.0460  1.3037  0.8062
  341MOL0     H45990   4.378   2.538   1.069 -1.0883 -1.7563  0.9449
  341MOL0     H45991   4.371   2.468   0.838  1.0522  0.8604  0.9768
  341MOL0     H45992   4.196   2.441   0.835  0.0703  0.3460 -0.6859
  341MOL0     H45993   4.246   2.296   1.048  0.2763 -1.6407 -0.3814
  341MOL0     H45994   4.414   2.292   0.974  0.0098  2.5104  0.7806
  341MOL0     H45995   4.518   2.171   0.807 -0.0587  0.8186 -0.6697
  341MOL0     H45996   4.715   2.064   0.539 -1.1924 -1.6142  3.0834
  341MOL0     H45997   4.724   2.248   0.562  1.3506 -0.3425  1.2836
  341MOL0     H45998   4.720   2.136   0.696  0.2832  0.8114  1.0984
  341MOL0     H45999   4.522   2.358   0.116  0.2517 -0.1102  2.6246
  341MOL0     H46000   4.651   2.412  -0.088 -0.8688 -0.8846  0.6102
  341MOL0     H46001   5.082   2.494  -0.192  1.7491 -0.2037  2.6936
  341MOL0     H46002   5.082   2.415  -0.037 -1.4477 -2.5483  0.8121
  341MOL0     H46003   5.124   2.223  -0.110  1.3079  0.1645 -0.7975
  341MOL0     H46004   5.044   2.250  -0.274  1.6493 -3.5357 -1.0920
  341MOL0     H46005   5.329   2.271  -0.193  0.3804 -1.5084 -0.5689
  341MOL0     H46006   5.269   2.419  -0.264 -5.0041  0.8800  0.3000
  341MOL0     H46007   5.253   2.119  -0.379  2.4210 -0.2919  1.4654
  341MOL0     H46008   5.180   2.260  -0.455 -0.3833  3.4745  0.7895
  341MOL0     H46009   5.374   2.364  -0.508 -0.2971  1.3365  3.1303
  341MOL0     H46010   5.397   2.197  -0.555  3.2482  2.0621 -0.7160
  341MOL0     H46011   5.511   2.308  -0.301 -1.8671  0.0145 -1.4358
  341MOL0     H46012   5.523   2.138  -0.362 -0.6537 -0.7604  0.9493
  341MOL0     H46013   5.635   2.266  -0.558  0.6483  0.3428 -0.4466
  341MOL0     H46014   5.732   2.261  -0.407 -0.3859 -0.0879 -0.8458
  341MOL0     H46015   5.763   2.479  -0.495  2.4996 -1.0545 -0.1621
  341MOL0     H46016   5.662   2.509  -0.361 -3.0544 -0.4630 -0.3137
  341MOL0     H46017   5.013   2.268   0.100 -0.2201  1.1190  2.6081
  341MOL0     H46018   4.877   2.170   0.272  2.4327  0.0539 -0.1205
  341MOL0     H46019   4.254   2.218   0.401 -0.4749 -0.5113  0.9880
  341MOL0     H46020   4.149   2.218   0.618  0.4571  5.0100 -2.3537
  341MOL0     H46021   4.180   4.129   1.246 -0.5073 -0.2230 -0.2157
  341MOL0     H46022   4.215   4.366   1.161  0.6171  2.7325  3.4343
  341MOL0     H46023   4.133   4.770   1.073  1.1367  1.8373  0.5149
  341MOL0     H46024   4.135   4.997   0.989  1.0267 -0.2132  0.0868
  341MOL0     H46025   3.886   5.096   0.634 -0.9552  0.1232 -1.3623
  341MOL0     H46026   3.977   5.247   0.651 -2.9024 -0.2555  0.1782
  341MOL0     H46027   4.002   5.075   0.435  0.7232 -0.4909 -1.1936
  341MOL0     H46028   4.126   5.002   0.537  1.0571 -0.5149  1.1305
  341MOL0     H46029   4.195   5.267   0.564  2.1421  2.1081 -2.3915
  341MOL0     H46030   4.087   5.301   0.428 -3.9102 -1.3913  0.2682
  341MOL0     H46031   4.217   5.231   0.274  1.5894 -2.3158 -1.8509
  341MOL0     H46032   4.279   5.090   0.353 -0.8298 -0.4885 -0.3234
  341MOL0     H46033   4.562   5.415   0.415  1.3672 -1.2515  0.3389
  341MOL0     H46034   3.968   4.858   0.606  0.0469  1.6875 -0.3162
  341MOL0     H46035   3.945   4.625   0.709  0.3722 -0.4078 -0.2153
  342MOL0     O46036  10.812   5.233   1.806  0.3141 -0.0038  0.0844
  342MOL0     C46037  10.754   5.334   1.769 -0.7254  0.8320 -0.4642
  342MOL0     O46038  10.622   5.338   1.727  0.0997  0.3119  0.1513
  342MOL0     C46039  10.534   5.236   1.727  0.3329  0.0184  0.6893
  342MOL0     C46040  10.554   5.099   1.739  1.1214 -0.4916 -0.2982
  342MOL0     C46041  10.444   5.012   1.729  0.3678 -0.0929  0.8014
  342MOL0     C46042  10.309   5.057   1.697 -0.4320 -0.2483  0.0459
  342MOL0     O46043  10.215   4.957   1.686  0.4674  0.6577  0.4017
  342MOL0     C46044  10.113   4.964   1.595 -0.3431  0.8142  0.2209
  342MOL0     C46045   9.995   5.060   1.640  0.3502 -0.5955  0.8475
  342MOL0     C46046   9.855   5.014   1.613 -1.0677  0.1867  1.0510
  342MOL0     C46047   9.807   5.037   1.473 -0.1488  0.7048 -0.9938
  342MOL0     C46048   9.651   5.003   1.458  0.4777 -0.5409 -0.4488
  342MOL0     C46049   9.593   4.997   1.317 -0.1585  0.5610  0.7953
  342MOL0     C46050   9.692   4.935   1.205 -0.1444 -0.3616  0.0762
  342MOL0     C46051   9.624   4.906   1.078  0.1886  0.8581  0.0364
  342MOL0     N46052   9.519   4.796   1.093  0.2746  0.6596 -0.4915
  342MOL0     C46053   9.388   4.805   1.048 -0.7984 -0.2474  0.3703
  342MOL0     C46054   9.333   4.685   1.057  1.7788 -0.0087 -0.3627
  342MOL0     C46055   9.188   4.643   1.017 -0.5982 -0.7024  0.8113
  342MOL0     C46056   9.081   4.748   1.047 -1.4297  0.2136 -0.8916
  342MOL0     C46057   8.942   4.719   0.980 -0.2607  0.4894  0.4372
  342MOL0     C46058   8.933   4.768   0.835 -0.4036  0.1735  0.7307
  342MOL0     O46059   8.855   4.684   0.759  0.5163 -0.1328  0.7108
  342MOL0     C46060   8.730   4.722   0.718 -0.7455  0.9675  0.6539
  342MOL0     C46061   8.639   4.624   0.722  0.3491  0.3057  0.1552
  342MOL0     C46062   8.513   4.637   0.670  0.3742 -0.9196  0.2832
  342MOL0     C46063   8.420   4.519   0.677 -0.4164 -0.2871  0.0409
  342MOL0     C46064   8.479   4.759   0.606  0.2575  0.4011 -0.8598
  342MOL0     C46065   8.347   4.790   0.546 -0.0135 -0.3542  0.5355
  342MOL0     O46066   8.241   4.729   0.589  0.9361  0.5038  0.9874
  342MOL0     C46067   8.111   4.738   0.535 -0.3119  0.4728 -1.0461
  342MOL0     C46068   8.070   4.693   0.401 -0.3410  0.5767 -0.0977
  342MOL0     C46069   7.938   4.716   0.354  1.1903  0.6339 -1.0184
  342MOL0     C46070   7.839   4.768   0.429 -0.0311  0.2751 -0.7127
  342MOL0     O46071   7.712   4.783   0.379  0.6746 -0.9261 -0.6450
  342MOL0     C46072   7.613   4.808   0.472  0.2375 -0.6893  0.7605
  342MOL0     C46073   7.479   4.798   0.411 -0.8697  0.9501 -0.7014
  342MOL0     C46074   7.457   4.923   0.319  0.0903 -0.3670 -0.8426
  342MOL0     C46075   7.475   4.891   0.170  0.4261  0.1733  0.6946
  342MOL0     C46076   7.467   5.005   0.071  0.8358  0.2189  0.1863
  342MOL0     C46077   7.336   5.085   0.078  0.5072 -0.5115 -0.0059
  342MOL0     C46078   7.351   5.222   0.006  0.0158  0.2390  0.0556
  342MOL0     C46079   7.381   5.233  -0.138  0.6200 -0.1756  0.2184
  342MOL0    Cl46080   7.346   5.084  -0.234 -0.5034  0.2881  0.2903
  342MOL0     C46081   7.873   4.795   0.561 -0.4404  1.0860 -0.8214
  342MOL0     C46082   8.000   4.785   0.612 -0.9675  1.0896 -0.1208
  342MOL0     O46083   8.346   4.878   0.459  0.3212  0.0191 -0.4524
  342MOL0     C46084   8.574   4.865   0.614 -0.8125  0.6585 -0.0616
  342MOL0     C46085   8.698   4.839   0.664  0.0600 -0.6661  0.5248
  342MOL0     N46086   9.432   4.596   1.088  0.3843  0.6179 -0.3357
  342MOL0     N46087   9.544   4.660   1.111 -0.2192 -0.9676 -0.4015
  342MOL0     C46088  10.297   5.199   1.683  0.0942  0.6685 -0.3246
  342MOL0     C46089  10.402   5.283   1.706 -0.6607 -0.1053  0.3395
  342MOL0     C46090  10.817   5.464   1.795  0.3310 -0.1473  0.2494
  342MOL0     C46091  10.938   5.488   1.869  0.5407 -0.9243 -0.4571
  342MOL0     C46092  10.988   5.620   1.884 -0.8654  0.6366  0.3180
  342MOL0     C46093  10.924   5.724   1.834  0.4258 -1.3015  0.9475
  342MOL0     O46094  10.997   5.840   1.840  0.5506  0.3865  0.3943
  342MOL0     C46095  10.953   5.964   1.784 -0.2691 -0.1619  1.0225
  342MOL0     C46096  11.057   6.075   1.816  0.6443  0.1134  0.3265
  342MOL0     C46097  11.175   6.080   1.717  0.5222  0.2460 -0.5306
  342MOL0     C46098  11.150   6.133   1.576 -0.6130  0.4276 -0.3364
  342MOL0     C46099  11.120   6.271   1.573  0.9502 -0.8738 -0.2522
  342MOL0     C46100  11.097   6.393   1.561  0.3372  1.2624 -0.2578
  342MOL0     C46101  10.797   5.707   1.772 -0.9304 -0.7686 -0.4339
  342MOL0     C46102  10.750   5.579   1.747  0.2293 -0.2914 -0.2046
  342MOL0     H46103  10.652   5.061   1.764  0.9672 -0.7886 -0.1389
  342MOL0     H46104  10.457   4.908   1.755 -3.8650 -2.3223 -4.1105
  342MOL0     H46105  10.144   4.988   1.494 -1.4604  1.2205 -0.0398
  342MOL0     H46106  10.065   4.865   1.597  2.2551 -0.5283  0.2926
  342MOL0     H46107  10.002   5.074   1.749 -0.6368 -1.3977  1.0360
  342MOL0     H46108  10.009   5.157   1.591  1.3200 -0.5905  1.1061
  342MOL0     H46109   9.837   4.917   1.661 -0.7108  0.9307  2.7616
  342MOL0     H46110   9.784   5.079   1.665 -0.3069 -0.4015  2.9044
  342MOL0     H46111   9.820   5.142   1.443  0.7387  0.9602  0.2100
  342MOL0     H46112   9.871   4.969   1.416  1.3946  1.1641  0.1095
  342MOL0     H46113   9.630   4.907   1.506 -1.7967  0.1830  0.1292
  342MOL0     H46114   9.587   5.071   1.516 -1.8345 -1.7285 -1.4676
  342MOL0     H46115   9.508   4.928   1.316  0.4170 -0.1674  0.8854
  342MOL0     H46116   9.562   5.098   1.288  0.6520  0.3132 -1.0783
  342MOL0     H46117   9.770   5.009   1.187  0.1085 -0.3184  1.2897
  342MOL0     H46118   9.739   4.848   1.252 -2.9357 -2.2202 -0.3143
  342MOL0     H46119   9.695   4.883   0.998  0.9473  1.1482  0.6054
  342MOL0     H46120   9.569   4.992   1.041 -0.7956  0.0632 -0.3951
  342MOL0     H46121   9.328   4.893   1.026 -3.4853 -1.4463  2.2756
  342MOL0     H46122   9.198   4.620   0.911  3.2127  0.1160  0.8336
  342MOL0     H46123   9.168   4.550   1.070  0.5972 -0.8508  1.0254
  342MOL0     H46124   9.114   4.843   1.005 -0.6827  0.1155 -0.5377
  342MOL0     H46125   9.085   4.760   1.156  0.2516 -0.6598 -0.8273
  342MOL0     H46126   8.863   4.768   1.037  0.5482  0.4669  1.6387
  342MOL0     H46127   8.909   4.615   0.988  0.5399  0.0938 -1.1519
  342MOL0     H46128   9.028   4.771   0.780 -1.8364  0.2685 -1.9201
  342MOL0     H46129   8.889   4.868   0.843 -2.4443 -0.7044  0.8730
  342MOL0     H46130   8.670   4.534   0.775  0.1509  0.5802  0.7519
  342MOL0     H46131   8.367   4.491   0.585 -1.0442  0.5673  0.1344
  342MOL0     H46132   8.469   4.427   0.711 -1.0424 -0.1247  1.4763
  342MOL0     H46133   8.349   4.543   0.757 -1.4579 -1.1732 -0.5723
  342MOL0     H46134   8.146   4.647   0.338 -1.3660 -1.4197  0.0334
  342MOL0     H46135   7.921   4.687   0.251 -0.8732  3.2548 -1.5402
  342MOL0     H46136   7.617   4.741   0.558  2.3600 -1.3729  0.1841
  342MOL0     H46137   7.620   4.914   0.499 -2.7493 -0.4122  0.7974
  342MOL0     H46138   7.478   4.699   0.363 -2.6867  0.5340  0.1430
  342MOL0     H46139   7.404   4.791   0.489 -2.5087 -1.6667 -2.3356
  342MOL0     H46140   7.509   5.010   0.360 -0.5456 -0.6805  0.6931
  342MOL0     H46141   7.352   4.948   0.335 -0.1051 -2.4511  1.8856
  342MOL0     H46142   7.572   4.840   0.161  0.0037 -0.2482 -4.1147
  342MOL0     H46143   7.394   4.821   0.149 -1.2938  1.6874  1.9912
  342MOL0     H46144   7.477   4.962  -0.029 -1.2290  0.8832 -0.3531
  342MOL0     H46145   7.543   5.082   0.086  0.1190  0.8552  0.5972
  342MOL0     H46146   7.258   5.023   0.032  1.0781 -2.1638  1.1525
  342MOL0     H46147   7.303   5.100   0.181 -0.9177 -0.8333 -0.3928
  342MOL0     H46148   7.432   5.275   0.057 -0.6885 -0.8704  2.4711
  342MOL0     H46149   7.256   5.273   0.028 -0.7153 -1.5576  1.3090
  342MOL0     H46150   7.487   5.259  -0.153  2.0203 -5.3803 -0.9899
  342MOL0     H46151   7.327   5.320  -0.176  1.0170  1.0402  2.2671
  342MOL0     H46152   7.807   4.839   0.635  2.4258  0.3565  2.4385
  342MOL0     H46153   8.023   4.828   0.709 -2.5950  1.5569  0.0887
  342MOL0     H46154   8.545   4.960   0.572 -3.1832  0.4300  0.8775
  342MOL0     H46155   8.766   4.923   0.670 -0.8659  0.4186 -2.4618
  342MOL0     H46156  10.196   5.236   1.671 -0.3808 -0.0182  1.3584
  342MOL0     H46157  10.393   5.391   1.702 -0.7717  0.0102  2.6379
  342MOL0     H46158  10.993   5.402   1.904  0.5431 -0.7483 -0.0244
  342MOL0     H46159  11.086   5.638   1.928  2.9539 -5.3615 -4.1412
  342MOL0     H46160  10.944   5.952   1.675 -1.4265  0.8106  0.9908
  342MOL0     H46161  10.851   5.982   1.820 -1.6632  0.0390 -2.5393
  342MOL0     H46162  11.085   6.071   1.922 -0.0028  0.7622  0.5340
  342MOL0     H46163  11.008   6.172   1.802 -1.3046 -0.3788  3.0100
  342MOL0     H46164  11.216   5.979   1.706 -1.9587 -0.6914 -1.8443
  342MOL0     H46165  11.251   6.140   1.768 -1.6933  0.5802  2.6939
  342MOL0     H46166  11.077   6.076   1.517 -2.0515  3.8327 -2.0949
  342MOL0     H46167  11.252   6.128   1.537  0.7110  3.3059  2.3595
  342MOL0     H46168  11.094   6.499   1.572  0.9403  1.2787 -0.2428
  342MOL0     H46169  10.743   5.793   1.735 -1.8947 -1.0195  0.3456
  342MOL0     H46170  10.653   5.568   1.700 -0.1118 -2.5751  0.8670
  343MOL0     O46171   2.854   4.931   9.233  0.4652  0.3676  0.2578
  343MOL0     C46172   2.793   4.902   9.340 -0.2946  0.1632  0.3057
  343MOL0     O46173   2.815   4.786   9.413  0.1001  1.6204  0.6023
  343MOL0     C46174   2.915   4.696   9.379 -0.0898  0.5246 -0.2346
  343MOL0     C46175   3.011   4.662   9.479  0.8296 -0.2814 -0.0688
  343MOL0     C46176   3.107   4.564   9.447  0.3174  0.2838 -0.6004
  343MOL0     C46177   3.108   4.508   9.327  0.2392  0.2877  0.9446
  343MOL0     O46178   3.207   4.411   9.284 -0.0666 -0.8662 -0.0579
  343MOL0     C46179   3.305   4.365   9.376 -0.0503 -0.0491  0.0500
  343MOL0     C46180   3.381   4.256   9.311  0.1128  0.7402  0.2624
  343MOL0     C46181   3.330   4.117   9.356 -0.3957  0.0108  0.7393
  343MOL0     C46182   3.379   3.997   9.273  0.3354  0.5512 -0.8929
  343MOL0     C46183   3.520   3.960   9.328 -0.3915 -0.3513 -0.2096
  343MOL0     C46184   3.586   3.861   9.242  0.6588 -1.0908  0.0477
  343MOL0     C46185   3.727   3.812   9.284  0.4075 -0.1931  0.1425
  343MOL0     C46186   3.717   3.732   9.411 -0.2486 -0.5710 -0.3388
  343MOL0     N46187   3.837   3.668   9.448 -0.6663  0.2792  0.6731
  343MOL0     C46188   3.861   3.531   9.434 -0.1966  0.4030 -0.9986
  343MOL0     C46189   3.974   3.512   9.510 -0.0500 -0.7263  0.8841
  343MOL0     C46190   4.044   3.389   9.526 -0.0900 -0.0077  0.2293
  343MOL0     C46191   4.104   3.362   9.665  0.0219 -0.4701 -0.3160
  343MOL0     C46192   4.183   3.241   9.673  0.0802  0.7152  0.2358
  343MOL0     C46193   4.261   3.225   9.806 -0.1208 -0.0040 -0.3442
  343MOL0     O46194   4.178   3.201   9.925 -0.0607  0.4773  0.5112
  343MOL0     C46195   4.236   3.135  10.033  0.6849  0.4730  0.2399
  343MOL0     C46196   4.161   3.057  10.114 -0.7559 -0.5523 -0.0588
  343MOL0     C46197   4.204   2.995  10.226 -0.4358  0.1779 -0.9901
  343MOL0     C46198   4.100   2.960  10.330  0.5574  0.3604 -0.2131
  343MOL0     C46199   4.344   2.984  10.252  0.4751 -0.1789  0.8072
  343MOL0     C46200   4.404   2.918  10.367  0.2080  0.0525  0.9861
  343MOL0     O46201   4.520   2.969  10.410 -0.2579  0.4241  0.0804
  343MOL0     C46202   4.570   2.906  10.519 -0.5045 -0.7665  0.2737
  343MOL0     C46203   4.485   2.916  10.637  0.4691  0.0891  0.4223
  343MOL0     C46204   4.548   2.880  10.756  0.4404  0.4492 -0.3337
  343MOL0     C46205   4.674   2.816  10.770 -0.3269 -0.3611 -0.7373
  343MOL0     O46206   4.708   2.780  10.897  0.4289  0.2832 -0.5164
  343MOL0     C46207   4.816   2.693  10.914  0.2304  0.0582  0.5794
  343MOL0     C46208   4.832   2.625  11.058 -0.8464 -0.0385  0.6812
  343MOL0     C46209   4.816   2.723  11.175  0.2489 -0.2919 -0.2656
  343MOL0     C46210   4.936   2.820  11.188  1.1240  0.4358 -1.3006
  343MOL0     C46211   4.936   2.892  11.324 -0.9427  0.1049 -0.8951
  343MOL0     C46212   4.815   2.979  11.344  0.4243  0.8342  0.4608
  343MOL0     C46213   4.835   3.064  11.471 -0.6316 -0.5729  0.1782
  343MOL0     C46214   4.718   3.160  11.494  0.0612 -0.5654 -1.1129
  343MOL0    Cl46215   4.676   3.256  11.351  0.5227  0.4111  0.5669
  343MOL0     C46216   4.746   2.803  10.652 -0.4863 -0.6440 -0.5427
  343MOL0     C46217   4.696   2.850  10.529  0.8093  0.7874 -0.0622
  343MOL0     O46218   4.344   2.821  10.407  1.1282 -0.0444  0.4033
  343MOL0     C46219   4.433   3.050  10.161 -1.0425  0.3530  0.5003
  343MOL0     C46220   4.373   3.123  10.054 -0.0461  0.2629  0.4585
  343MOL0     N46221   4.010   3.633   9.572 -0.3355  0.8043  0.1346
  343MOL0     N46222   3.936   3.724   9.525  1.0997 -0.1564 -0.2440
  343MOL0     C46223   3.009   4.534   9.229  0.1986  0.0311 -0.5649
  343MOL0     C46224   2.905   4.623   9.262  0.0100 -0.0034 -0.6271
  343MOL0     C46225   2.703   5.005   9.395  0.1839 -0.4184 -0.0266
  343MOL0     C46226   2.683   5.135   9.343 -0.4335 -0.6914 -0.6617
  343MOL0     C46227   2.603   5.231   9.400  0.3575  0.1700 -0.0144
  343MOL0     C46228   2.546   5.198   9.523  0.5095 -0.7401 -0.3001
  343MOL0     O46229   2.462   5.280   9.597 -0.6189 -0.0297  0.2038
  343MOL0     C46230   2.397   5.398   9.545 -0.9532  0.0854  0.0156
  343MOL0     C46231   2.281   5.388   9.443 -0.2555  0.4492 -0.1826
  343MOL0     C46232   2.290   5.278   9.336 -0.0528 -0.2322  0.0681
  343MOL0     C46233   2.154   5.233   9.280 -0.2862 -0.0861  1.5853
  343MOL0     C46234   2.082   5.350   9.218 -0.4163  0.4993 -0.5639
  343MOL0     C46235   2.005   5.425   9.162  0.3366  0.2215  0.3364
  343MOL0     C46236   2.557   5.073   9.581 -0.6927  0.0473 -0.0115
  343MOL0     C46237   2.637   4.977   9.516  0.2874 -0.6981  0.5104
  343MOL0     H46238   3.004   4.686   9.584 -2.4850 -2.1715  0.2697
  343MOL0     H46239   3.183   4.527   9.515  0.2469 -4.7233 -2.8068
  343MOL0     H46240   3.368   4.453   9.391 -1.1424  1.3644 -2.9200
  343MOL0     H46241   3.251   4.332   9.466 -0.6630 -1.7851 -0.9080
  343MOL0     H46242   3.390   4.255   9.202 -1.1451  1.0915  0.1412
  343MOL0     H46243   3.485   4.258   9.344  0.2956 -2.5684  0.1976
  343MOL0     H46244   3.360   4.104   9.460  1.0472 -0.3274  0.3134
  343MOL0     H46245   3.221   4.112   9.358 -0.4065 -0.0646  3.3784
  343MOL0     H46246   3.311   3.915   9.297  0.3219  0.4095 -1.4087
  343MOL0     H46247   3.382   4.022   9.167 -2.8439 -1.5565 -1.5957
  343MOL0     H46248   3.598   4.038   9.325  1.3944 -2.0315  0.5613
  343MOL0     H46249   3.505   3.931   9.432 -0.8740  2.2044  0.5199
  343MOL0     H46250   3.523   3.773   9.229  0.4390 -0.6335 -2.5890
  343MOL0     H46251   3.599   3.906   9.143 -4.5211  0.1252 -0.3746
  343MOL0     H46252   3.756   3.727   9.221  2.8752  0.2338  0.6187
  343MOL0     H46253   3.809   3.883   9.292  1.3758 -1.4761  5.8144
  343MOL0     H46254   3.642   3.652   9.407  0.4222 -1.3260  1.3150
  343MOL0     H46255   3.688   3.793   9.496 -2.4409 -2.5264  0.4449
  343MOL0     H46256   3.801   3.462   9.376  0.8775 -3.4485  2.0815
  343MOL0     H46257   3.973   3.307   9.511  1.6661 -1.2814 -1.6560
  343MOL0     H46258   4.119   3.381   9.447 -0.5082 -0.6456 -0.1153
  343MOL0     H46259   4.020   3.365   9.735 -1.2855  1.1536 -1.8803
  343MOL0     H46260   4.164   3.451   9.686  0.0426 -1.0303  2.4071
  343MOL0     H46261   4.257   3.243   9.593  1.6462 -1.1978  1.5168
  343MOL0     H46262   4.131   3.151   9.640  0.4889  2.0144 -4.7510
  343MOL0     H46263   4.308   3.322   9.826  0.0971 -0.3852  1.1141
  343MOL0     H46264   4.346   3.160   9.784  1.3577  2.0004 -0.8687
  343MOL0     H46265   4.056   3.049  10.087 -0.7082 -1.5339  0.0028
  343MOL0     H46266   4.080   2.853  10.343 -1.1682  0.6874  0.1010
  343MOL0     H46267   4.119   3.008  10.427  0.9845 -0.3333  0.0610
  343MOL0     H46268   4.005   3.003  10.298 -0.2454 -0.7096  0.6492
  343MOL0     H46269   4.393   2.973  10.631  2.4979  3.5252 -2.1832
  343MOL0     H46270   4.471   2.888  10.831  0.3852 -0.0456 -0.3370
  343MOL0     H46271   4.823   2.619  10.834  1.4853 -1.5192  2.0792
  343MOL0     H46272   4.903   2.759  10.903  1.0781 -1.2288 -1.0052
  343MOL0     H46273   4.749   2.556  11.076  0.2156 -1.1157  1.5309
  343MOL0     H46274   4.931   2.579  11.057 -0.2416  0.9529 -3.5983
  343MOL0     H46275   4.787   2.670  11.267 -0.4271 -1.4574 -1.1220
  343MOL0     H46276   4.730   2.786  11.151 -1.0676 -1.5461  0.9425
  343MOL0     H46277   5.026   2.759  11.176  0.4114 -0.8276 -0.4605
  343MOL0     H46278   4.927   2.894  11.107 -1.4341  0.5211 -1.0184
  343MOL0     H46279   5.022   2.955  11.351 -2.8726  1.9884  1.2489
  343MOL0     H46280   4.938   2.809  11.394  1.5640  0.2443 -0.7118
  343MOL0     H46281   4.790   3.048  11.262  2.5417  1.2176  0.0991
  343MOL0     H46282   4.728   2.913  11.352  0.8840  0.3883  2.0565
  343MOL0     H46283   4.924   3.127  11.466  0.1504 -1.6147  0.5517
  343MOL0     H46284   4.854   3.001  11.558  3.4242  0.2265  0.0831
  343MOL0     H46285   4.740   3.231  11.574 -0.6845  2.0914 -3.1450
  343MOL0     H46286   4.624   3.109  11.516 -1.6279  2.7657  0.0929
  343MOL0     H46287   4.847   2.762  10.653 -0.5123 -0.7059 -0.2819
  343MOL0     H46288   4.757   2.850  10.439  0.4967 -1.5019 -0.3467
  343MOL0     H46289   4.541   3.051  10.172 -0.2947 -0.7648 -4.4654
  343MOL0     H46290   4.443   3.159   9.979 -0.2368 -0.7845 -0.2494
  343MOL0     H46291   3.008   4.479   9.135 -2.1683 -0.6034 -0.2241
  343MOL0     H46292   2.821   4.637   9.195 -0.9564 -0.1411  0.5171
  343MOL0     H46293   2.730   5.158   9.248 -0.3270  2.7391  0.0862
  343MOL0     H46294   2.595   5.331   9.358  0.0012 -1.0374 -3.0467
  343MOL0     H46295   2.367   5.458   9.631 -0.7329 -0.8821  0.7799
  343MOL0     H46296   2.469   5.465   9.495 -3.5376 -0.4308 -4.9793
  343MOL0     H46297   2.285   5.489   9.401 -2.2009  2.5979  4.1842
  343MOL0     H46298   2.185   5.376   9.494 -0.8311  2.2529 -0.7574
  343MOL0     H46299   2.338   5.192   9.383 -0.8811 -1.1211 -0.6835
  343MOL0     H46300   2.346   5.315   9.249 -1.6660  0.6439 -0.6520
  343MOL0     H46301   2.092   5.192   9.359 -0.8170  0.0918  1.2693
  343MOL0     H46302   2.173   5.157   9.204 -3.3936  0.1493  0.4414
  343MOL0     H46303   1.931   5.493   9.123  0.6491 -0.4090 -1.4301
  343MOL0     H46304   2.504   5.059   9.674  1.0518  0.3390  1.0815
  343MOL0     H46305   2.649   4.886   9.573 -0.7315  1.6592  4.8804
  344MOL0     O46306   0.958   1.505   9.625 -0.4321 -0.3171 -0.3491
  344MOL0     C46307   0.850   1.570   9.620 -0.8440  0.5103  0.8060
  344MOL0     O46308   0.829   1.691   9.547 -0.4624 -0.2102 -0.4148
  344MOL0     C46309   0.936   1.749   9.476 -0.1530  0.8674 -0.3819
  344MOL0     C46310   1.051   1.691   9.419  0.0660 -0.1299 -0.3310
  344MOL0     C46311   1.134   1.766   9.338 -0.5860 -0.8555 -0.2597
  344MOL0     C46312   1.116   1.900   9.321 -0.4175 -0.4593 -0.6897
  344MOL0     O46313   1.199   1.985   9.253 -0.1294 -0.7007  0.4703
  344MOL0     C46314   1.149   2.075   9.148  0.8472  0.2886 -0.9525
  344MOL0     C46315   1.251   2.090   9.035 -0.9433  0.1976 -0.1299
  344MOL0     C46316   1.195   2.165   8.913 -0.2893  0.8230  1.8676
  344MOL0     C46317   1.300   2.186   8.803 -0.3219 -0.0990 -0.6729
  344MOL0     C46318   1.240   2.206   8.664  0.2877 -0.6243 -0.4723
  344MOL0     C46319   1.181   2.071   8.597  0.4906 -0.5630 -0.3558
  344MOL0     C46320   1.123   2.115   8.454  0.5281  0.0846 -0.4565
  344MOL0     C46321   1.084   1.997   8.374  0.8897  0.1332  0.2210
  344MOL0     N46322   0.941   1.962   8.397 -1.2433 -0.1551 -0.8758
  344MOL0     C46323   0.830   2.037   8.361  0.1439 -0.2578 -0.3893
  344MOL0     C46324   0.723   1.960   8.387 -0.0178  0.0074 -0.4088
  344MOL0     C46325   0.571   1.985   8.359  0.0364  0.5318 -0.6914
  344MOL0     C46326   0.503   2.050   8.483  0.5694  0.1046 -0.3454
  344MOL0     C46327   0.347   2.061   8.482  0.6187 -0.7799 -0.6455
  344MOL0     C46328   0.295   2.130   8.353 -0.1040  0.5200 -0.2966
  344MOL0     O46329   0.354   2.259   8.338  0.4715 -0.1753 -0.8841
  344MOL0     C46330   0.290   2.347   8.416  0.8416  0.0049 -0.3237
  344MOL0     C46331   0.357   2.388   8.530  0.9053  0.1174 -0.2799
  344MOL0     C46332   0.299   2.475   8.624 -0.3346  0.9487  0.8273
  344MOL0     C46333   0.378   2.525   8.739 -0.5171 -0.7227 -1.2166
  344MOL0     C46334   0.170   2.515   8.599  0.6533 -0.4541 -1.3753
  344MOL0     C46335   0.095   2.571   8.717  0.0599  0.2490  0.2873
  344MOL0     O46336   0.089   2.488   8.834 -0.3636  0.3474  0.1810
  344MOL0     C46337   0.046   2.564   8.937 -0.3936 -1.4626 -0.6102
  344MOL0     C46338   0.136   2.654   9.004  0.0205  0.2534 -0.0733
  344MOL0     C46339   0.095   2.718   9.117 -0.0256 -0.1376  0.5993
  344MOL0     C46340  -0.035   2.707   9.165  0.1286  0.0617  0.2298
  344MOL0     O46341  -0.071   2.781   9.271  0.4160  0.2394 -0.4638
  344MOL0     C46342  -0.207   2.803   9.300 -0.9060  0.2626 -0.0947
  344MOL0     C46343  -0.227   2.887   9.428 -0.2042  0.4769 -0.2275
  344MOL0     C46344  -0.139   3.013   9.439 -0.2095 -0.3422 -0.2343
  344MOL0     C46345  -0.138   3.105   9.315  0.4070  0.6429  0.1995
  344MOL0     C46346  -0.034   3.218   9.327  0.4010 -1.1674 -0.3146
  344MOL0     C46347  -0.036   3.316   9.209 -0.3393  0.2084 -0.9403
  344MOL0     C46348   0.083   3.421   9.219 -0.9914  0.5558 -0.3473
  344MOL0     C46349   0.085   3.530   9.115 -0.1687 -0.2768  0.5802
  344MOL0    Cl46350   0.059   3.462   8.952  0.2011 -0.0426 -0.5066
  344MOL0     C46351  -0.126   2.622   9.099  0.2891  0.0366  0.4522
  344MOL0     C46352  -0.076   2.543   8.988 -0.3059  0.4812  0.1609
  344MOL0     O46353   0.065   2.687   8.704  0.1711 -0.6547  0.5419
  344MOL0     C46354   0.102   2.481   8.487 -0.7440  0.2589  0.2279
  344MOL0     C46355   0.162   2.407   8.384 -1.1862  0.4679  0.2227
  344MOL0     N46356   0.761   1.858   8.473 -0.5998 -0.0737  0.4537
  344MOL0     N46357   0.893   1.862   8.479 -0.2848 -0.4882 -0.5471
  344MOL0     C46358   1.006   1.964   9.388  0.0824  0.0117  0.0533
  344MOL0     C46359   0.914   1.882   9.459  0.1692 -0.2995 -0.2254
  344MOL0     C46360   0.732   1.498   9.663 -0.1101 -0.4491  0.0571
  344MOL0     C46361   0.730   1.354   9.672  0.2814 -0.2272  0.3470
  344MOL0     C46362   0.605   1.295   9.690 -0.2264 -0.6309 -0.1077
  344MOL0     C46363   0.489   1.370   9.716  0.8286 -0.0300 -0.2392
  344MOL0     O46364   0.370   1.305   9.761  0.8707 -0.1134  0.0730
  344MOL0     C46365   0.274   1.270   9.658 -0.0358 -0.2000  0.2942
  344MOL0     C46366   0.182   1.398   9.627  0.6664  0.1515  1.0585
  344MOL0     C46367   0.098   1.440   9.754  0.1336 -0.5196  0.6808
  344MOL0     C46368   0.024   1.576   9.728 -0.7945 -0.5198 -0.7127
  344MOL0     C46369  -0.091   1.570   9.638  0.8103  0.8324 -0.8169
  344MOL0     C46370  -0.195   1.588   9.579 -0.6736 -0.2296  0.7149
  344MOL0     C46371   0.500   1.509   9.710 -0.0795 -1.3353  0.5270
  344MOL0     C46372   0.624   1.580   9.690 -0.7128 -0.5782  0.6579
  344MOL0     H46373   1.074   1.586   9.436 -2.1491 -0.4943  0.9352
  344MOL0     H46374   1.208   1.727   9.270 -0.9173  2.4178 -2.7474
  344MOL0     H46375   1.071   2.015   9.099 -1.1103  1.7484  0.2104
  344MOL0     H46376   1.112   2.168   9.191  4.0132  0.9715  0.6186
  344MOL0     H46377   1.336   2.153   9.065  1.2479 -1.9702 -1.4222
  344MOL0     H46378   1.280   1.989   9.007 -1.2485  0.8110 -2.8629
  344MOL0     H46379   1.114   2.101   8.879  0.6052 -0.2105  1.6393
  344MOL0     H46380   1.158   2.266   8.935 -1.6209  0.8335 -0.1619
  344MOL0     H46381   1.363   2.266   8.843  0.2014 -0.1336 -1.4048
  344MOL0     H46382   1.370   2.103   8.798 -0.3951 -0.2208  0.2679
  344MOL0     H46383   1.160   2.281   8.667 -1.1951 -2.1666  0.6458
  344MOL0     H46384   1.316   2.251   8.600  0.4765 -0.7794 -0.3581
  344MOL0     H46385   1.266   2.003   8.584 -0.6111 -2.5488  2.0502
  344MOL0     H46386   1.108   2.025   8.664 -0.0001  0.4348 -0.1835
  344MOL0     H46387   1.045   2.186   8.483  1.4466  0.2839  1.7388
  344MOL0     H46388   1.201   2.170   8.400  1.4896 -1.3333 -0.5465
  344MOL0     H46389   1.144   1.912   8.407 -0.9123 -0.7356  1.4797
  344MOL0     H46390   1.095   2.025   8.269  0.5651 -1.6937 -0.3477
  344MOL0     H46391   0.832   2.138   8.321  1.3944  0.2246  0.8402
  344MOL0     H46392   0.555   2.037   8.265  1.1001  2.3882  0.0930
  344MOL0     H46393   0.524   1.888   8.340  2.7806 -1.0941  0.1592
  344MOL0     H46394   0.536   2.154   8.494  0.9294 -0.0881  0.5356
  344MOL0     H46395   0.527   1.995   8.575 -0.7658 -0.6271 -0.4117
  344MOL0     H46396   0.323   2.117   8.573  2.9217 -4.7642  2.7682
  344MOL0     H46397   0.299   1.963   8.485  0.6434 -0.7817 -0.2789
  344MOL0     H46398   0.186   2.137   8.349 -0.0819  0.3075 -2.4002
  344MOL0     H46399   0.321   2.078   8.260 -0.0989  0.7976 -0.4548
  344MOL0     H46400   0.453   2.345   8.555 -0.3447 -1.1777  2.7584
  344MOL0     H46401   0.385   2.633   8.754  0.1341 -1.1521  2.6705
  344MOL0     H46402   0.351   2.480   8.835  0.9762 -1.1286 -0.9615
  344MOL0     H46403   0.483   2.502   8.716  0.4569 -0.5520  2.4655
  344MOL0     H46404   0.232   2.680   8.960  1.1524  0.9551  2.5935
  344MOL0     H46405   0.169   2.778   9.170  0.6839 -0.1816 -0.3185
  344MOL0     H46406  -0.250   2.847   9.209  2.2524  0.6767 -1.5353
  344MOL0     H46407  -0.265   2.711   9.311  1.4416 -1.2274  0.4579
  344MOL0     H46408  -0.330   2.925   9.430  0.0863  1.2938  2.1198
  344MOL0     H46409  -0.218   2.831   9.521 -1.2234 -3.2115 -2.1543
  344MOL0     H46410  -0.038   2.972   9.449 -0.1476 -1.7101 -4.5225
  344MOL0     H46411  -0.178   3.073   9.522 -3.7007 -2.7180  0.0708
  344MOL0     H46412  -0.096   3.036   9.241 -0.1262  0.4647  0.0556
  344MOL0     H46413  -0.231   3.159   9.298 -0.8790 -1.2035  1.0602
  344MOL0     H46414   0.061   3.183   9.368 -0.6320 -0.6524  2.7897
  344MOL0     H46415  -0.073   3.278   9.410  0.0377 -0.2702 -1.1097
  344MOL0     H46416  -0.038   3.257   9.117  0.5078  0.6649 -1.2656
  344MOL0     H46417  -0.121   3.384   9.220  0.8348  1.3279  5.8839
  344MOL0     H46418   0.181   3.371   9.218 -1.4680 -0.4948  1.5312
  344MOL0     H46419   0.073   3.462   9.319 -0.8696 -0.5861  0.1527
  344MOL0     H46420   0.179   3.585   9.115 -0.3845  0.2699 -2.2928
  344MOL0     H46421  -0.001   3.596   9.130 -0.6218 -1.2414  2.5088
  344MOL0     H46422  -0.227   2.592   9.125 -1.6036  2.0640 -3.6432
  344MOL0     H46423  -0.148   2.476   8.941 -1.6278  1.4421  0.7425
  344MOL0     H46424  -0.002   2.501   8.462 -1.3114  0.0157  2.1432
  344MOL0     H46425   0.111   2.402   8.289  1.0189 -0.9478 -0.9684
  344MOL0     H46426   0.972   2.065   9.367 -0.4188 -0.3168 -0.7775
  344MOL0     H46427   0.828   1.935   9.497  0.8354  0.3770  0.3849
  344MOL0     H46428   0.822   1.306   9.641  0.2121  0.4356 -0.9687
  344MOL0     H46429   0.600   1.186   9.695 -1.5381 -0.6897 -1.8328
  344MOL0     H46430   0.323   1.244   9.564  1.8047  1.3065  0.7887
  344MOL0     H46431   0.211   1.182   9.673  0.9702 -1.9268 -4.1100
  344MOL0     H46432   0.119   1.366   9.544 -0.8513 -1.7276  2.8157
  344MOL0     H46433   0.236   1.484   9.585 -2.8137  2.4170  0.7730
  344MOL0     H46434   0.173   1.441   9.835  1.9162 -1.2869 -0.8773
  344MOL0     H46435   0.023   1.363   9.773 -0.0048 -0.2841  1.1092
  344MOL0     H46436   0.091   1.662   9.718 -0.8770  0.0907  2.7498
  344MOL0     H46437  -0.021   1.608   9.823  0.8616  2.2555 -0.7465
  344MOL0     H46438  -0.280   1.610   9.517 -0.5245 -0.2225  0.5164
  344MOL0     H46439   0.408   1.566   9.721 -0.4855 -1.3690 -2.0057
  344MOL0     H46440   0.641   1.687   9.694 -2.7916 -0.1488 -0.4990
  345MOL0     O46441   2.568   5.674  11.418 -0.2365 -0.1180  0.2770
  345MOL0     C46442   2.601   5.552  11.406 -0.0027 -0.5780 -0.4713
  345MOL0     O46443   2.727   5.504  11.442  0.0772 -0.3974  0.9950
  345MOL0     C46444   2.828   5.591  11.467 -0.2272  0.1965 -0.3220
  345MOL0     C46445   2.884   5.596  11.590  0.4829 -0.2684  0.4044
  345MOL0     C46446   2.980   5.688  11.607 -0.4836 -0.9922 -0.0627
  345MOL0     C46447   3.020   5.793  11.523 -0.1362  0.0952  0.5174
  345MOL0     O46448   3.101   5.888  11.574 -0.1691 -0.2942  0.3575
  345MOL0     C46449   3.116   6.003  11.494 -0.0305 -1.5900 -0.1975
  345MOL0     C46450   3.200   6.105  11.564 -0.8066 -0.0259 -0.5027
  345MOL0     C46451   3.109   6.190  11.664  0.8480  0.0609  0.5031
  345MOL0     C46452   3.019   6.279  11.570 -0.3334 -0.5167 -0.0936
  345MOL0     C46453   2.995   6.412  11.621  0.1030  0.4471  0.2189
  345MOL0     C46454   2.877   6.486  11.550 -0.2918  0.1875  0.5726
  345MOL0     C46455   2.817   6.594  11.637  0.3814 -1.0055 -1.1888
  345MOL0     C46456   2.896   6.725  11.642 -0.5323  0.7172  0.2954
  345MOL0     N46457   2.810   6.825  11.715  0.6626 -0.1123 -0.2852
  345MOL0     C46458   2.704   6.890  11.649  0.6575 -0.4045 -0.0306
  345MOL0     C46459   2.656   6.983  11.726 -0.1597 -0.1650  0.2041
  345MOL0     C46460   2.550   7.075  11.685  0.0062  0.5421 -0.3554
  345MOL0     C46461   2.606   7.211  11.641 -0.0888  0.3475  0.0198
  345MOL0     C46462   2.494   7.304  11.589 -0.5844 -0.4805  0.1976
  345MOL0     C46463   2.548   7.367  11.460  0.4870 -0.3136  0.1467
  345MOL0     O46464   2.445   7.426  11.378 -0.1188 -0.5431 -0.9269
  345MOL0     C46465   2.477   7.435  11.250 -0.2043  0.1080 -0.3126
  345MOL0     C46466   2.464   7.550  11.182 -0.3449  0.0612  1.1905
  345MOL0     C46467   2.484   7.562  11.043 -0.0552  0.3792  0.2027
  345MOL0     C46468   2.487   7.694  10.967  0.1173 -0.6032  0.4127
  345MOL0     C46469   2.497   7.441  10.970  1.0788 -0.2397 -0.4175
  345MOL0     C46470   2.504   7.439  10.827  0.8867  0.5062  0.1665
  345MOL0     O46471   2.453   7.324  10.767 -0.8501 -0.0286  0.9419
  345MOL0     C46472   2.491   7.298  10.641 -0.8567 -0.2023 -0.4842
  345MOL0     C46473   2.434   7.353  10.522  0.2433 -0.0739  0.3136
  345MOL0     C46474   2.474   7.298  10.389  0.9414  0.3553 -0.8961
  345MOL0     C46475   2.575   7.201  10.379  0.6500 -0.4826  0.2841
  345MOL0     O46476   2.620   7.162  10.254  0.5986  1.0258  0.1976
  345MOL0     C46477   2.691   7.043  10.247  0.5221  0.2132  0.2956
  345MOL0     C46478   2.705   6.997  10.099 -0.7844 -0.3207  0.0657
  345MOL0     C46479   2.821   7.061  10.042 -1.1587  0.1142  1.2763
  345MOL0     C46480   2.874   6.997   9.916  0.5601 -0.1727 -0.1969
  345MOL0     C46481   3.010   7.053   9.871 -0.0072  0.1043 -0.4693
  345MOL0     C46482   3.069   6.989   9.733 -0.0984  0.3530  0.3606
  345MOL0     C46483   3.206   7.052   9.702  0.9867 -0.2684 -0.3210
  345MOL0     C46484   3.315   7.027   9.805  0.8541  0.0554  0.2211
  345MOL0    Cl46485   3.331   6.852   9.833 -0.0280  0.3479 -0.1202
  345MOL0     C46486   2.639   7.156  10.507  0.3158 -0.0795 -0.1548
  345MOL0     C46487   2.604   7.213  10.633  0.0706  0.5050  0.7634
  345MOL0     O46488   2.563   7.528  10.771  0.8170  0.7966  0.6314
  345MOL0     C46489   2.494   7.317  11.037 -0.5210 -0.1426  0.0390
  345MOL0     C46490   2.485   7.314  11.176  0.3129 -0.6396 -0.1930
  345MOL0     N46491   2.734   6.968  11.846  0.3760 -0.2978 -0.2371
  345MOL0     N46492   2.825   6.879  11.837 -0.7986 -0.9966  0.4426
  345MOL0     C46493   2.962   5.792  11.397 -0.4583 -0.0007  0.4576
  345MOL0     C46494   2.867   5.683  11.367 -0.3039 -1.0792 -0.7603
  345MOL0     C46495   2.495   5.462  11.375  0.0862  0.4785  0.4741
  345MOL0     C46496   2.514   5.327  11.353  0.2625  0.2866 -0.6871
  345MOL0     C46497   2.412   5.236  11.322 -0.3229 -0.0512 -1.2140
  345MOL0     C46498   2.277   5.280  11.320  0.0226 -0.3129  0.3481
  345MOL0     O46499   2.178   5.204  11.279  0.3099 -0.3472 -0.0100
  345MOL0     C46500   2.186   5.058  11.281  0.1571 -1.1747  0.1939
  345MOL0     C46501   2.056   4.984  11.255 -0.5252  0.5448  0.9237
  345MOL0     C46502   1.974   4.986  11.384  0.1461 -0.0580 -0.5261
  345MOL0     C46503   1.899   5.119  11.406  0.0859 -0.0956 -0.2639
  345MOL0     C46504   1.800   5.117  11.513  0.5466 -0.8444  0.0412
  345MOL0     C46505   1.719   5.129  11.607 -0.3442  0.3143 -0.9748
  345MOL0     C46506   2.254   5.418  11.338 -0.4843  0.3737  0.2156
  345MOL0     C46507   2.361   5.505  11.355 -0.8207  0.6230 -0.2997
  345MOL0     H46508   2.850   5.529  11.669 -0.7566  0.7051  0.7376
  345MOL0     H46509   3.016   5.696  11.709 -1.4545 -0.5629  0.2581
  345MOL0     H46510   3.167   5.970  11.403 -0.6556 -0.6935 -0.8859
  345MOL0     H46511   3.015   6.038  11.469  0.2990 -1.7166 -1.7881
  345MOL0     H46512   3.282   6.054  11.615  3.2779  2.7868 -3.6277
  345MOL0     H46513   3.254   6.169  11.493  0.4357  0.1277  0.5428
  345MOL0     H46514   3.036   6.122  11.710  0.5661  0.3386  0.4693
  345MOL0     H46515   3.180   6.237  11.732 -0.4436  0.3895  1.6689
  345MOL0     H46516   3.060   6.302  11.472 -0.7688  1.7642  0.2058
  345MOL0     H46517   2.925   6.226  11.550  0.2564 -0.8019 -2.3081
  345MOL0     H46518   2.974   6.402  11.727 -2.9954  0.9054 -0.2727
  345MOL0     H46519   3.080   6.478  11.600 -2.3164  3.7378  0.0022
  345MOL0     H46520   2.914   6.526  11.455  1.1259  1.5390  1.6555
  345MOL0     H46521   2.794   6.418  11.528  0.8563 -0.9396 -0.4866
  345MOL0     H46522   2.719   6.602  11.590 -0.7803 -1.7669  0.9311
  345MOL0     H46523   2.803   6.562  11.741 -2.0403  0.8271 -0.8581
  345MOL0     H46524   2.927   6.766  11.545  2.5494 -0.7410  0.5398
  345MOL0     H46525   2.988   6.716  11.701  1.8832  0.2473 -3.1891
  345MOL0     H46526   2.662   6.866  11.551 -1.3160 -5.7791  1.7741
  345MOL0     H46527   2.496   7.015  11.611  2.9980 -1.9503 -0.7155
  345MOL0     H46528   2.495   7.095  11.778  1.0803 -1.0094  0.6705
  345MOL0     H46529   2.665   7.185  11.552 -3.2515  0.8731 -2.4406
  345MOL0     H46530   2.667   7.254  11.720  1.5155  0.5786 -1.2952
  345MOL0     H46531   2.468   7.376  11.667 -2.0045 -0.9634  0.1948
  345MOL0     H46532   2.401   7.248  11.573  0.3317 -2.6572  1.8914
  345MOL0     H46533   2.592   7.285  11.404 -1.6186 -1.2994 -0.1471
  345MOL0     H46534   2.614   7.447  11.494 -1.0573  0.4482  1.5130
  345MOL0     H46535   2.439   7.644  11.230  1.1214  1.5972 -0.8612
  345MOL0     H46536   2.584   7.724  10.927 -0.4583 -0.1034 -0.6509
  345MOL0     H46537   2.416   7.697  10.884  0.1993 -1.9357  0.2686
  345MOL0     H46538   2.450   7.775  11.030  4.2588  2.5223 -0.7201
  345MOL0     H46539   2.354   7.426  10.532  0.7218  0.8466 -1.9144
  345MOL0     H46540   2.417   7.332  10.303 -0.7096 -1.8595 -0.7538
  345MOL0     H46541   2.789   7.060  10.292  1.1353  1.5354 -1.4300
  345MOL0     H46542   2.637   6.967  10.304  0.9299  0.1504  0.5983
  345MOL0     H46543   2.710   6.888  10.091 -0.7474 -0.2082 -1.9758
  345MOL0     H46544   2.617   7.032  10.045 -1.2027  0.4470  1.2179
  345MOL0     H46545   2.899   7.055  10.118 -1.5880 -0.0009  1.7173
  345MOL0     H46546   2.807   7.169  10.033  2.0821  0.4596 -1.3265
  345MOL0     H46547   2.881   6.888   9.927  2.2870 -0.2899 -1.9784
  345MOL0     H46548   2.798   7.007   9.838  0.5070  0.5535 -0.0555
  345MOL0     H46549   3.081   7.033   9.952 -1.3476  3.5302  1.7599
  345MOL0     H46550   3.000   7.160   9.853 -1.7308 -0.0903 -0.8109
  345MOL0     H46551   3.078   6.881   9.748  2.2118  0.2469 -1.1860
  345MOL0     H46552   2.996   6.987   9.652  0.3585 -1.3305 -0.0511
  345MOL0     H46553   3.195   7.159   9.682  0.6904 -1.0078 -5.6735
  345MOL0     H46554   3.238   7.005   9.609 -0.4793 -2.4837  0.1935
  345MOL0     H46555   3.288   7.073   9.901 -0.2433  0.6468 -0.3496
  345MOL0     H46556   3.408   7.079   9.781 -0.0883  2.3310  1.2317
  345MOL0     H46557   2.724   7.089  10.519 -0.0568 -0.6462 -0.5960
  345MOL0     H46558   2.640   7.161  10.721  1.6221  2.3104  1.2567
  345MOL0     H46559   2.501   7.225  10.979  2.0147  0.1026 -0.1492
  345MOL0     H46560   2.485   7.215  11.221 -2.6651 -0.5435  0.1897
  345MOL0     H46561   2.983   5.863  11.318 -1.4043  0.9268  1.0257
  345MOL0     H46562   2.814   5.696  11.273  2.2270 -0.0978 -2.1462
  345MOL0     H46563   2.615   5.289  11.353 -0.4596 -1.8160 -2.4535
  345MOL0     H46564   2.447   5.134  11.311  1.6578  0.0409  2.5309
  345MOL0     H46565   2.270   5.027  11.218 -0.0691 -0.4073 -0.4911
  345MOL0     H46566   2.215   5.039  11.385  2.3267  1.5411  0.2062
  345MOL0     H46567   2.065   4.881  11.221 -1.5458  1.4920 -2.6586
  345MOL0     H46568   2.012   5.039  11.171  0.1013 -1.7829 -1.0604
  345MOL0     H46569   2.048   4.974  11.464  1.0842  1.9424 -1.0313
  345MOL0     H46570   1.907   4.900  11.391  0.1113  0.0987  1.5898
  345MOL0     H46571   1.845   5.146  11.315  4.7170  1.1951 -2.9850
  345MOL0     H46572   1.974   5.198  11.418  1.6039 -1.7355  1.8944
  345MOL0     H46573   1.663   5.153  11.695 -1.9674 -0.8061 -1.6482
  345MOL0     H46574   2.155   5.455  11.313 -0.1159  0.9002 -0.5053
  345MOL0     H46575   2.342   5.610  11.376  1.8957  0.8222  1.5429
  346MOL0     O46576   7.584   6.276  11.344  0.8254 -0.2731  0.2105
  346MOL0     C46577   7.471   6.224  11.342 -0.7989  0.5921  1.3067
  346MOL0     O46578   7.366   6.271  11.259  0.1511 -1.2017  0.1142
  346MOL0     C46579   7.390   6.375  11.174  0.4347 -1.1298  0.6730
  346MOL0     C46580   7.303   6.490  11.164  0.2724  0.1584  0.1174
  346MOL0     C46581   7.340   6.592  11.077 -0.1215  0.3745  0.5617
  346MOL0     C46582   7.457   6.584  10.999 -0.0795 -0.4594  0.3887
  346MOL0     O46583   7.488   6.695  10.926 -0.5142  0.1395 -0.0393
  346MOL0     C46584   7.633   6.727  10.917  0.6789 -0.3675 -0.9032
  346MOL0     C46585   7.638   6.860  10.845  0.8363 -0.0367  0.0732
  346MOL0     C46586   7.765   6.926  10.830  0.0202 -0.8354 -1.1843
  346MOL0     C46587   7.760   7.066  10.780  0.3079  0.0871 -0.4400
  346MOL0     C46588   7.898   7.135  10.806  0.9626 -0.1208 -0.1123
  346MOL0     C46589   7.897   7.281  10.762 -0.7626  0.1995 -0.0731
  346MOL0     C46590   7.890   7.288  10.608 -0.1495 -0.4140  0.1691
  346MOL0     C46591   7.974   7.407  10.552  0.2809  0.1208  0.0610
  346MOL0     N46592   7.950   7.544  10.610  0.4565  0.3470  0.1508
  346MOL0     C46593   8.032   7.605  10.700  0.0982  0.8606  0.4349
  346MOL0     C46594   7.974   7.728  10.715 -0.0487  0.8229  0.1295
  346MOL0     C46595   8.034   7.846  10.795  1.1993  0.0167 -0.1193
  346MOL0     C46596   7.925   7.887  10.905  0.3803  0.0492  0.3917
  346MOL0     C46597   7.933   8.024  10.955 -0.2817  0.4086  0.2499
  346MOL0     C46598   8.071   8.060  11.013 -0.4977 -0.8569 -0.2842
  346MOL0     O46599   8.083   8.012  11.149 -0.1539  0.0429  0.1792
  346MOL0     C46600   8.207   7.982  11.207 -0.1658  0.5290  0.5793
  346MOL0     C46601   8.216   7.980  11.342  0.5984 -0.2769  0.0842
  346MOL0     C46602   8.331   7.929  11.401 -0.4034 -0.1962  0.0072
  346MOL0     C46603   8.334   7.925  11.548 -0.2483 -0.3202  0.4459
  346MOL0     C46604   8.444   7.879  11.339  1.1237  0.9058 -0.3738
  346MOL0     C46605   8.569   7.824  11.384  0.5546 -0.0110 -0.6457
  346MOL0     O46606   8.664   7.835  11.293 -0.3967 -0.2579  0.1787
  346MOL0     C46607   8.796   7.823  11.316  0.8351  0.6275  0.4496
  346MOL0     C46608   8.863   7.843  11.441  0.6480  0.1786 -0.3778
  346MOL0     C46609   9.002   7.833  11.439 -0.0297  0.0198  0.1071
  346MOL0     C46610   9.077   7.805  11.324 -1.3414  0.6369 -0.6662
  346MOL0     O46611   9.218   7.816  11.306  0.4807 -0.2515 -0.3959
  346MOL0     C46612   9.297   7.887  11.406 -0.0436 -0.7649 -0.0354
  346MOL0     C46613   9.397   7.800  11.479  0.0204 -0.2947  0.6375
  346MOL0     C46614   9.534   7.789  11.402 -0.2350 -0.0684 -0.0505
  346MOL0     C46615   9.639   7.863  11.477  0.5673 -0.2995  0.2977
  346MOL0     C46616   9.779   7.863  11.413 -0.1176  0.5473  0.0679
  346MOL0     C46617   9.876   7.942  11.489 -0.2643 -0.0363 -0.5236
  346MOL0     C46618   9.996   7.992  11.411  0.2204 -0.5617 -0.4230
  346MOL0     C46619  10.032   8.133  11.464  0.0343 -0.0125 -1.1582
  346MOL0    Cl46620  10.184   8.183  11.384 -0.1922 -0.0971 -0.7973
  346MOL0     C46621   9.012   7.784  11.212  0.0668 -0.3446  0.7422
  346MOL0     C46622   8.871   7.793  11.199 -0.5195  0.7010 -0.4823
  346MOL0     O46623   8.584   7.775  11.500  0.5156 -0.0418  0.3799
  346MOL0     C46624   8.428   7.883  11.200  0.3480 -0.5242  0.5712
  346MOL0     C46625   8.323   7.943  11.136  0.4628  0.8320 -0.6733
  346MOL0     N46626   7.859   7.732  10.638 -0.1002 -0.2282 -0.2074
  346MOL0     N46627   7.835   7.618  10.582  0.4665 -0.6507 -0.3436
  346MOL0     C46628   7.540   6.474  11.011 -0.5920  0.0005 -0.8078
  346MOL0     C46629   7.507   6.371  11.098  0.2883  0.4085  0.2385
  346MOL0     C46630   7.442   6.099  11.408 -0.7464  0.4084  0.1228
  346MOL0     C46631   7.315   6.039  11.403 -0.2049  0.0616 -0.6625
  346MOL0     C46632   7.284   5.930  11.482  0.9058 -1.0905  0.7148
  346MOL0     C46633   7.391   5.861  11.543  0.1360 -0.8301 -0.2895
  346MOL0     O46634   7.364   5.749  11.614 -0.2509  0.2213  0.0186
  346MOL0     C46635   7.239   5.675  11.621  0.1228  0.2303  0.0064
  346MOL0     C46636   7.264   5.543  11.685  0.0991  0.0870  0.2396
  346MOL0     C46637   7.282   5.553  11.833  0.2355  0.4367  0.0130
  346MOL0     C46638   7.260   5.416  11.911 -0.4424 -0.5764 -1.4563
  346MOL0     C46639   7.382   5.338  11.885  0.3104  0.8382  0.4542
  346MOL0     C46640   7.498   5.303  11.879 -0.2214  0.0283 -0.2827
  346MOL0     C46641   7.517   5.917  11.558  0.6248  0.0371  0.1005
  346MOL0     C46642   7.540   6.035  11.488  0.1547  1.6611 -0.0877
  346MOL0     H46643   7.219   6.493  11.233  0.8780 -1.8693  1.0352
  346MOL0     H46644   7.281   6.681  11.059 -4.0532 -2.5557 -3.4466
  346MOL0     H46645   7.666   6.740  11.021  2.2830  3.3505 -1.7080
  346MOL0     H46646   7.682   6.646  10.863  1.4292 -0.7178  0.2756
  346MOL0     H46647   7.592   6.849  10.747  1.8471  1.4781 -0.5901
  346MOL0     H46648   7.588   6.920  10.922 -0.6903 -1.5248  0.3113
  346MOL0     H46649   7.824   6.937  10.922 -0.2503  0.4899 -1.1434
  346MOL0     H46650   7.830   6.871  10.761  1.4777 -1.3832  0.5278
  346MOL0     H46651   7.736   7.082  10.674 -3.7393  0.9807  0.4185
  346MOL0     H46652   7.678   7.114  10.833  0.1299 -1.9910  1.2944
  346MOL0     H46653   7.919   7.135  10.913  0.0289 -1.5697  0.0888
  346MOL0     H46654   7.971   7.071  10.755 -1.4668 -4.2701  1.1552
  346MOL0     H46655   7.822   7.351  10.802 -0.1888  0.0739  1.2772
  346MOL0     H46656   7.994   7.321  10.794 -1.6349  3.3059 -0.9820
  346MOL0     H46657   7.931   7.193  10.572  2.6346  1.6941 -2.7381
  346MOL0     H46658   7.783   7.309  10.597 -0.7238 -1.4605  2.9123
  346MOL0     H46659   7.938   7.404  10.449 -1.7448 -0.9654  0.7356
  346MOL0     H46660   8.083   7.393  10.555  0.6416  2.7219  1.9178
  346MOL0     H46661   8.124   7.567  10.743 -0.1752  0.3842  0.5962
  346MOL0     H46662   8.119   7.810  10.854 -0.9742  1.5465  4.3740
  346MOL0     H46663   8.050   7.925  10.721  1.5897 -0.0525 -0.1126
  346MOL0     H46664   7.923   7.819  10.991 -0.4333  1.3721  1.4405
  346MOL0     H46665   7.834   7.882  10.844  0.9887  0.4957 -0.5723
  346MOL0     H46666   7.854   8.038  11.029 -0.4072  1.0824  0.0022
  346MOL0     H46667   7.907   8.084  10.867 -2.6684 -0.9196 -0.0252
  346MOL0     H46668   8.090   8.168  11.005  0.4723 -1.1537 -2.9955
  346MOL0     H46669   8.147   8.009  10.954  0.5997  0.7445 -0.3117
  346MOL0     H46670   8.137   8.018  11.407  2.4816  3.0971  0.6092
  346MOL0     H46671   8.269   7.996  11.599  2.8034  1.4096  2.2642
  346MOL0     H46672   8.316   7.822  11.580  1.7416 -0.8714 -0.0294
  346MOL0     H46673   8.435   7.952  11.582 -0.3556 -0.0999  0.5824
  346MOL0     H46674   8.818   7.872  11.535  1.2921 -1.6153  0.5300
  346MOL0     H46675   9.056   7.845  11.533  1.3524  1.7495 -0.8695
  346MOL0     H46676   9.362   7.961  11.359 -0.3412  0.1538  0.9737
  346MOL0     H46677   9.228   7.938  11.474  2.8949  0.0738  2.5165
  346MOL0     H46678   9.404   7.842  11.580 -2.4713  1.5127  0.1716
  346MOL0     H46679   9.341   7.709  11.499 -0.4053 -0.2092 -0.1179
  346MOL0     H46680   9.523   7.845  11.308 -0.9635 -0.1970 -0.0523
  346MOL0     H46681   9.558   7.685  11.378 -0.1659  0.4188 -2.3950
  346MOL0     H46682   9.608   7.967  11.494  4.0467  0.4516  3.0539
  346MOL0     H46683   9.649   7.814  11.575  4.1393  0.6805  0.5527
  346MOL0     H46684   9.761   7.894  11.310  1.3966  0.2617 -0.3088
  346MOL0     H46685   9.808   7.757  11.415 -3.9315 -0.6431 -0.0276
  346MOL0     H46686   9.805   8.016  11.529 -1.0452  0.9060 -3.4371
  346MOL0     H46687   9.927   7.877  11.560  0.5702 -0.3044 -1.3539
  346MOL0     H46688   9.970   7.995  11.305  0.9961 -0.1362 -0.6029
  346MOL0     H46689  10.081   7.924  11.422 -0.5615 -1.9863 -2.5858
  346MOL0     H46690  10.050   8.121  11.571 -1.8551  2.5191 -0.4772
  346MOL0     H46691   9.954   8.207  11.447 -0.0736  0.6022  1.5497
  346MOL0     H46692   9.075   7.765  11.126 -0.6377 -1.8396  0.5191
  346MOL0     H46693   8.823   7.770  11.105  0.1874 -1.2955 -0.3978
  346MOL0     H46694   8.495   7.844  11.124  1.9686 -1.0571  2.1998
  346MOL0     H46695   8.314   7.955  11.029 -2.2168  0.9980 -0.5094
  346MOL0     H46696   7.636   6.460  10.962 -1.0219 -4.8046 -0.8038
  346MOL0     H46697   7.572   6.285  11.107 -1.8132 -1.5421 -1.9212
  346MOL0     H46698   7.233   6.072  11.339 -2.0850 -2.1240  0.5068
  346MOL0     H46699   7.181   5.898  11.493  1.1359 -1.0886  3.5934
  346MOL0     H46700   7.170   5.742  11.674 -0.9258 -1.5076  0.9459
  346MOL0     H46701   7.184   5.662  11.527  2.1547 -1.5243 -1.0305
  346MOL0     H46702   7.341   5.475  11.647 -0.0472 -1.1305  2.0397
  346MOL0     H46703   7.171   5.488  11.671 -0.7984  1.6056  0.0192
  346MOL0     H46704   7.209   5.612  11.890  1.0131 -0.0497  1.5883
  346MOL0     H46705   7.384   5.590  11.849  1.1306 -1.1706 -1.5601
  346MOL0     H46706   7.172   5.357  11.883  1.5374 -3.7682 -1.3059
  346MOL0     H46707   7.259   5.446  12.017 -1.6237 -0.9245 -1.3478
  346MOL0     H46708   7.598   5.266  11.876  0.2895  0.8691  3.1068
  346MOL0     H46709   7.583   5.863  11.625  0.9544 -1.2948 -1.2404
  346MOL0     H46710   7.644   6.067  11.493  1.9999 -3.5786  1.4413
  347MOL0     O46711   3.812   7.851   2.455  0.2323 -0.5029 -0.0244
  347MOL0     C46712   3.850   7.929   2.548  0.4120 -0.2683 -0.8205
  347MOL0     O46713   3.978   7.988   2.562  0.1563  0.9677  0.2948
  347MOL0     C46714   4.091   7.948   2.484 -0.4180  0.2476  0.0537
  347MOL0     C46715   4.208   8.023   2.508  0.2376  0.1964 -0.0774
  347MOL0     C46716   4.335   8.003   2.447  0.4175  0.5296  0.0899
  347MOL0     C46717   4.335   7.909   2.341 -1.8487 -0.1002 -0.4082
  347MOL0     O46718   4.443   7.889   2.259  0.5068 -0.4854  0.0229
  347MOL0     C46719   4.522   8.012   2.239  0.8760  0.4218 -0.8965
  347MOL0     C46720   4.653   7.990   2.312  0.0136 -0.3629 -0.6197
  347MOL0     C46721   4.730   8.117   2.310  0.0844  0.5907  0.1775
  347MOL0     C46722   4.878   8.101   2.372 -0.0216 -0.8384  0.1497
  347MOL0     C46723   4.955   8.238   2.357 -0.1967  0.5962 -0.5056
  347MOL0     C46724   5.091   8.220   2.296 -0.3772 -0.5880 -0.4861
  347MOL0     C46725   5.152   8.358   2.276 -0.2597  0.5692 -0.4810
  347MOL0     C46726   5.310   8.356   2.255  0.1699  0.4097 -0.3152
  347MOL0     N46727   5.363   8.481   2.212 -0.6579  0.3195  0.7978
  347MOL0     C46728   5.483   8.545   2.244 -0.2282 -0.8065  0.8679
  347MOL0     C46729   5.488   8.663   2.172 -0.2908 -0.7260 -0.3209
  347MOL0     C46730   5.598   8.759   2.179 -0.3529  0.8949 -0.1959
  347MOL0     C46731   5.614   8.823   2.319  1.0113 -0.1082  0.9706
  347MOL0     C46732   5.605   8.975   2.307 -0.2376  0.3724  0.5874
  347MOL0     C46733   5.647   9.041   2.433 -0.1904  0.3077  0.9551
  347MOL0     O46734   5.562   8.998   2.543 -0.0474 -0.3715  0.3599
  347MOL0     C46735   5.586   9.048   2.669 -1.2862 -0.9891  0.8786
  347MOL0     C46736   5.534   8.984   2.779 -0.7707  0.8047 -0.3751
  347MOL0     C46737   5.540   9.039   2.904 -0.4117 -0.3081 -0.5074
  347MOL0     C46738   5.466   8.956   3.011 -0.2481 -0.5749 -0.3504
  347MOL0     C46739   5.611   9.153   2.929  0.3859 -0.5956 -1.0434
  347MOL0     C46740   5.628   9.221   3.066  0.4834 -0.4169 -1.1264
  347MOL0     O46741   5.515   9.257   3.149 -0.1810 -0.6819  0.8089
  347MOL0     C46742   5.525   9.322   3.275  0.5162  0.1579 -0.1481
  347MOL0     C46743   5.415   9.299   3.367 -0.1484 -0.2679 -0.5003
  347MOL0     C46744   5.413   9.371   3.486 -0.1966 -0.2448 -0.1380
  347MOL0     C46745   5.518   9.468   3.510 -1.3485  0.4161 -0.6182
  347MOL0     O46746   5.519   9.552   3.620  0.2451  0.0740 -0.0460
  347MOL0     C46747   5.480   9.498   3.752  0.0130 -0.6252  0.1523
  347MOL0     C46748   5.563   9.379   3.782 -0.2235  0.6301 -0.6136
  347MOL0     C46749   5.553   9.349   3.928  0.1292  0.7419 -0.1650
  347MOL0     C46750   5.638   9.230   3.980 -1.0532 -0.5751  0.0670
  347MOL0     C46751   5.616   9.210   4.127  0.7744 -0.3066 -0.5130
  347MOL0     C46752   5.719   9.106   4.180  0.3352  0.9169 -0.8473
  347MOL0     C46753   5.666   9.030   4.308  0.2179 -0.0723  0.4399
  347MOL0     C46754   5.772   9.008   4.412  0.1852 -0.0592 -0.2278
  347MOL0    Cl46755   5.921   8.973   4.347  0.6022 -0.4022 -0.3962
  347MOL0     C46756   5.628   9.483   3.419 -0.2082 -0.1629 -0.1692
  347MOL0     C46757   5.618   9.417   3.297 -0.5364  0.2097  0.6650
  347MOL0     O46758   5.744   9.223   3.120  0.5260  0.1700  0.8795
  347MOL0     C46759   5.663   9.226   2.820  0.5202 -0.0031 -0.0552
  347MOL0     C46760   5.648   9.169   2.691 -0.8120  0.8581 -0.4052
  347MOL0     N46761   5.378   8.659   2.078  0.8028  0.2992 -0.1965
  347MOL0     N46762   5.313   8.551   2.101  1.1226 -0.3064  0.0726
  347MOL0     C46763   4.218   7.834   2.314  0.5964 -0.2761  0.8353
  347MOL0     C46764   4.097   7.865   2.379  0.8680  0.6248 -0.5929
  347MOL0     C46765   3.756   7.969   2.664  0.0130  1.1378  0.0213
  347MOL0     C46766   3.777   8.087   2.740 -0.7107 -0.7259 -0.6111
  347MOL0     C46767   3.682   8.125   2.834 -0.8954 -0.0281 -0.4170
  347MOL0     C46768   3.565   8.041   2.859 -0.4602 -0.2332  0.5502
  347MOL0     O46769   3.457   8.072   2.933  0.1188  0.0090  0.1037
  347MOL0     C46770   3.445   8.201   2.997  0.2876  0.2268 -0.3264
  347MOL0     C46771   3.376   8.310   2.919 -0.5355  0.3010 -0.3914
  347MOL0     C46772   3.362   8.440   2.991  0.4431  0.6517  0.2861
  347MOL0     C46773   3.286   8.541   2.912  0.1427  0.9153  0.0642
  347MOL0     C46774   3.321   8.682   2.954 -0.0423 -0.2459 -0.0483
  347MOL0     C46775   3.371   8.784   2.997 -0.4321 -0.3340 -0.4369
  347MOL0     C46776   3.548   7.929   2.783 -0.7902  1.0121  0.0254
  347MOL0     C46777   3.639   7.888   2.683 -1.6723 -0.6175 -0.6502
  347MOL0     H46778   4.188   8.108   2.572  1.3778  1.3443 -1.1816
  347MOL0     H46779   4.419   8.068   2.469  1.1803 -0.0731 -0.9376
  347MOL0     H46780   4.557   8.022   2.136  1.4035  2.8796 -0.5359
  347MOL0     H46781   4.489   8.112   2.267  2.3492  0.7693 -0.2846
  347MOL0     H46782   4.657   7.959   2.416 -0.5000  2.1696  0.2199
  347MOL0     H46783   4.708   7.919   2.250  2.0432  1.2919 -0.7992
  347MOL0     H46784   4.750   8.151   2.207 -0.7940  4.2532  1.0526
  347MOL0     H46785   4.680   8.201   2.358  0.2038  0.8279 -0.1040
  347MOL0     H46786   4.881   8.076   2.478 -0.7529 -0.5230  0.2563
  347MOL0     H46787   4.939   8.023   2.327  2.4729  1.1672 -0.1329
  347MOL0     H46788   4.898   8.315   2.304  0.8894  1.7524 -0.0714
  347MOL0     H46789   4.963   8.273   2.461 -0.1694 -0.0954 -0.2695
  347MOL0     H46790   5.155   8.158   2.360 -2.1759 -2.1196 -0.0851
  347MOL0     H46791   5.082   8.173   2.197 -0.7360  0.3499 -0.9145
  347MOL0     H46792   5.098   8.415   2.200 -0.9704  1.4629  0.6703
  347MOL0     H46793   5.118   8.419   2.360  0.0698  0.1520 -0.0408
  347MOL0     H46794   5.329   8.285   2.174  1.5655 -2.1583  2.0753
  347MOL0     H46795   5.367   8.314   2.338  3.4964 -0.5359 -2.8439
  347MOL0     H46796   5.556   8.514   2.319  0.1101 -0.1262  0.8235
  347MOL0     H46797   5.692   8.708   2.158 -1.2435 -0.2205 -1.6787
  347MOL0     H46798   5.590   8.836   2.102  2.2395  1.4281 -0.0255
  347MOL0     H46799   5.711   8.795   2.359  1.6075  2.6558  1.6987
  347MOL0     H46800   5.537   8.780   2.384 -0.1209 -0.7111 -0.6822
  347MOL0     H46801   5.503   9.003   2.279  0.6358  0.3923 -3.1010
  347MOL0     H46802   5.662   9.004   2.219 -3.3134 -0.6491 -1.9393
  347MOL0     H46803   5.637   9.149   2.420 -0.3818  0.1025 -0.7467
  347MOL0     H46804   5.749   9.016   2.463 -0.2646  0.7061  1.5630
  347MOL0     H46805   5.483   8.890   2.759  0.7636 -0.4852  1.3697
  347MOL0     H46806   5.435   9.026   3.088  1.5125 -1.3879  1.1581
  347MOL0     H46807   5.377   8.910   2.965  0.5565 -1.6991 -0.8535
  347MOL0     H46808   5.526   8.876   3.056  0.7720 -0.2391 -1.0786
  347MOL0     H46809   5.330   9.233   3.352  2.7303 -3.6320 -4.0159
  347MOL0     H46810   5.330   9.356   3.555 -0.6772  0.8708 -0.4350
  347MOL0     H46811   5.504   9.571   3.830 -0.6487  0.3253 -0.5091
  347MOL0     H46812   5.373   9.475   3.757  0.0025 -0.3263  1.4861
  347MOL0     H46813   5.526   9.304   3.712  1.6178 -1.6054  0.6792
  347MOL0     H46814   5.669   9.396   3.761  0.0281 -0.7459 -0.5337
  347MOL0     H46815   5.451   9.322   3.957  1.0250  1.2152  3.9814
  347MOL0     H46816   5.577   9.432   3.995  1.2443  1.5033 -1.4434
  347MOL0     H46817   5.602   9.150   3.916  0.0361 -0.0873 -1.2236
  347MOL0     H46818   5.739   9.262   3.952 -1.4903 -0.4977 -1.4992
  347MOL0     H46819   5.512   9.182   4.149  1.0226  1.0820  3.0744
  347MOL0     H46820   5.639   9.303   4.180  1.4919 -1.3563  1.0808
  347MOL0     H46821   5.748   9.024   4.112  0.0539 -0.7804  0.9904
  347MOL0     H46822   5.808   9.163   4.207 -1.5203  3.3528  0.4293
  347MOL0     H46823   5.617   8.937   4.278  2.2404 -0.2696 -2.7220
  347MOL0     H46824   5.583   9.084   4.353 -0.1663 -0.7946  0.6060
  347MOL0     H46825   5.734   8.926   4.474  1.1240  0.1204  0.6114
  347MOL0     H46826   5.791   9.096   4.474  1.8987 -0.6411  0.1286
  347MOL0     H46827   5.693   9.563   3.452 -1.6473  2.4643 -3.2102
  347MOL0     H46828   5.681   9.452   3.215 -0.9053  1.8949  1.0658
  347MOL0     H46829   5.717   9.319   2.835  1.3862 -0.3809 -0.7231
  347MOL0     H46830   5.704   9.221   2.614 -3.2163  3.9887 -0.2324
  347MOL0     H46831   4.223   7.774   2.224 -0.5337  0.9597 -0.1014
  347MOL0     H46832   4.014   7.808   2.339  0.5068  0.6451  0.1128
  347MOL0     H46833   3.858   8.159   2.732 -0.5061 -0.8975 -0.1155
  347MOL0     H46834   3.698   8.217   2.890 -0.3812  0.8461 -1.9457
  347MOL0     H46835   3.373   8.182   3.076 -0.6989  0.8955 -1.0489
  347MOL0     H46836   3.543   8.236   3.033 -0.9712 -0.5684  4.5549
  347MOL0     H46837   3.274   8.275   2.900 -1.2677  0.1722  3.1491
  347MOL0     H46838   3.427   8.324   2.823  0.4095  0.2935  0.0894
  347MOL0     H46839   3.460   8.479   3.020 -0.0135 -0.5953  4.0575
  347MOL0     H46840   3.298   8.425   3.079 -2.6104  1.7586 -1.5890
  347MOL0     H46841   3.181   8.511   2.911  1.1112 -2.9467 -0.6279
  347MOL0     H46842   3.307   8.524   2.806 -4.4558 -1.0427 -0.7756
  347MOL0     H46843   3.419   8.875   3.025  0.0229 -1.0026  1.0422
  347MOL0     H46844   3.449   7.886   2.791 -0.6771  0.6189 -0.6644
  347MOL0     H46845   3.627   7.800   2.620  1.9474 -1.8386  0.1146
  348MOL0     O46846   0.613   1.909   4.392 -0.3699 -0.4660 -0.1125
  348MOL0     C46847   0.658   1.839   4.481 -0.5927 -0.5232 -1.6076
  348MOL0     O46848   0.698   1.711   4.472  0.4711  0.2142 -0.3846
  348MOL0     C46849   0.709   1.656   4.349 -0.3764  0.0391  0.4835
  348MOL0     C46850   0.759   1.723   4.239  0.7434 -0.1590  0.0056
  348MOL0     C46851   0.800   1.655   4.115  0.1553 -0.1398  0.3368
  348MOL0     C46852   0.792   1.515   4.113 -0.1291 -0.0518 -0.5201
  348MOL0     O46853   0.855   1.462   4.002  0.5715  0.1339  0.0395
  348MOL0     C46854   0.868   1.320   4.003 -0.0346 -0.1534  0.2152
  348MOL0     C46855   0.912   1.262   3.869  0.3172  0.4659  0.0335
  348MOL0     C46856   1.047   1.301   3.829 -0.6548 -0.4020 -2.0046
  348MOL0     C46857   1.073   1.266   3.689  0.2528  1.1228  0.6595
  348MOL0     C46858   1.193   1.339   3.630  0.6470  1.3219 -0.1999
  348MOL0     C46859   1.169   1.479   3.589 -0.0716  0.4147  1.0506
  348MOL0     C46860   1.063   1.485   3.480  0.0284  0.0833 -0.4434
  348MOL0     C46861   1.106   1.586   3.369  0.4051 -0.0331 -0.1723
  348MOL0     N46862   0.996   1.611   3.271  0.1120 -0.1412 -0.8518
  348MOL0     C46863   0.874   1.660   3.298 -1.4856  0.5262 -0.0026
  348MOL0     C46864   0.810   1.651   3.173 -0.3039 -1.0369 -0.7633
  348MOL0     C46865   0.683   1.709   3.139 -0.2372 -0.6214 -0.6554
  348MOL0     C46866   0.585   1.601   3.181 -0.0042  0.4424 -0.2370
  348MOL0     C46867   0.445   1.656   3.156  0.0044 -0.8556  0.1007
  348MOL0     C46868   0.410   1.641   3.011 -0.5076  0.0738 -1.1829
  348MOL0     O46869   0.270   1.668   2.984 -0.2137 -0.5789 -0.5987
  348MOL0     C46870   0.170   1.569   2.998 -0.5432 -0.6435  0.5684
  348MOL0     C46871   0.186   1.433   3.028 -0.1082  1.0164 -0.1055
  348MOL0     C46872   0.078   1.347   3.024 -0.3472 -0.3807 -0.3056
  348MOL0     C46873   0.109   1.207   3.065 -0.4668  0.5191  0.2229
  348MOL0     C46874  -0.048   1.402   2.976  0.4582 -0.2985 -0.1830
  348MOL0     C46875  -0.174   1.323   2.970  0.4511  0.5413  0.2824
  348MOL0     O46876  -0.170   1.187   2.965 -0.3992 -0.0385 -0.8717
  348MOL0     C46877  -0.278   1.110   2.998 -2.0305 -0.4199  0.5654
  348MOL0     C46878  -0.385   1.143   3.084 -0.9098  0.6177  0.3604
  348MOL0     C46879  -0.499   1.066   3.096 -0.6342  0.2546 -0.3084
  348MOL0     C46880  -0.500   0.943   3.043 -0.1539  0.2082 -0.3852
  348MOL0     O46881  -0.617   0.863   3.058 -0.6302 -0.9946 -0.0523
  348MOL0     C46882  -0.740   0.916   3.047  0.5462 -0.1630  0.0689
  348MOL0     C46883  -0.841   0.809   3.082  0.5803 -1.0761 -1.0791
  348MOL0     C46884  -0.824   0.758   3.225  0.4828  0.1764  0.6723
  348MOL0     C46885  -0.931   0.647   3.248  0.3016 -0.7600 -0.7466
  348MOL0     C46886  -0.895   0.570   3.372 -0.7938  0.0927 -0.0108
  348MOL0     C46887  -0.790   0.470   3.365 -0.3209  0.4546 -0.0399
  348MOL0     C46888  -0.775   0.374   3.482  0.5362  0.0113 -0.1948
  348MOL0     C46889  -0.727   0.445   3.606 -0.2156  0.2654  0.4694
  348MOL0    Cl46890  -0.780   0.335   3.751 -0.3881  0.2640  0.0820
  348MOL0     C46891  -0.398   0.908   2.955 -0.7874 -0.2920  0.3376
  348MOL0     C46892  -0.287   0.993   2.933 -0.4757  0.2224  0.8742
  348MOL0     O46893  -0.277   1.387   2.990  0.0752 -0.7215  0.2441
  348MOL0     C46894  -0.062   1.533   2.941 -0.0276  0.0617 -1.3651
  348MOL0     C46895   0.051   1.621   2.955  0.1252  0.3664  0.2553
  348MOL0     N46896   0.888   1.596   3.077 -0.0832 -0.0250 -0.0022
  348MOL0     N46897   0.997   1.573   3.144  0.3849  0.4874 -0.6939
  348MOL0     C46898   0.748   1.453   4.231  0.9189  1.7626 -0.6575
  348MOL0     C46899   0.718   1.520   4.344 -0.0838  0.9058 -0.1119
  348MOL0     C46900   0.664   1.892   4.620  0.2104  0.3140  0.1970
  348MOL0     C46901   0.671   1.808   4.735  0.5944  0.8384  1.1297
  348MOL0     C46902   0.691   1.862   4.861 -0.7808 -0.0093 -0.3325
  348MOL0     C46903   0.695   2.009   4.872 -0.3533  0.5361  0.4194
  348MOL0     O46904   0.720   2.055   4.999 -0.6764 -0.0323 -0.3157
  348MOL0     C46905   0.653   2.176   5.034 -0.9923 -0.3592 -0.3162
  348MOL0     C46906   0.690   2.204   5.180 -0.0517 -0.0099  0.1912
  348MOL0     C46907   0.830   2.267   5.189 -1.0016  0.1922 -0.3157
  348MOL0     C46908   0.946   2.164   5.224  0.1376  0.0574  0.3622
  348MOL0     C46909   1.068   2.231   5.208  0.3890 -0.7567  0.4412
  348MOL0     C46910   1.171   2.305   5.201 -0.2843  0.1792  0.7649
  348MOL0     C46911   0.676   2.083   4.762  0.1200 -0.8948 -0.0735
  348MOL0     C46912   0.656   2.033   4.639  0.7616  0.9767  0.2913
  348MOL0     H46913   0.767   1.831   4.225 -1.1819  0.1708  0.9845
  348MOL0     H46914   0.837   1.709   4.028 -0.7078  0.3557  0.2598
  348MOL0     H46915   0.930   1.271   4.078  2.1612 -0.4923 -1.6923
  348MOL0     H46916   0.764   1.291   4.023  0.7392 -3.5013 -0.0502
  348MOL0     H46917   0.899   1.154   3.860  0.6274  0.5768 -2.3589
  348MOL0     H46918   0.844   1.299   3.793 -1.5053  0.1744  1.4414
  348MOL0     H46919   1.063   1.408   3.839 -0.0433 -0.6028 -0.5553
  348MOL0     H46920   1.126   1.253   3.888 -1.8704  0.8845  0.8943
  348MOL0     H46921   1.095   1.159   3.694  4.5510  1.8449  0.3354
  348MOL0     H46922   0.984   1.294   3.631  0.1299  1.2203  0.8913
  348MOL0     H46923   1.272   1.337   3.705  0.2265 -2.6734  0.3562
  348MOL0     H46924   1.237   1.281   3.549  1.3847  0.8906  0.4898
  348MOL0     H46925   1.151   1.549   3.671  1.3747  1.5138  0.4860
  348MOL0     H46926   1.260   1.507   3.535  1.4477  0.0045  3.2713
  348MOL0     H46927   1.037   1.398   3.419 -0.7642  0.4091 -0.5757
  348MOL0     H46928   0.977   1.525   3.536 -0.3741 -2.5388  0.9614
  348MOL0     H46929   1.188   1.542   3.311  1.0907  0.1943  0.6142
  348MOL0     H46930   1.129   1.683   3.415  3.1279 -1.4342  1.6382
  348MOL0     H46931   0.837   1.670   3.399  2.2292 -2.1102  1.8362
  348MOL0     H46932   0.658   1.797   3.199  1.6504  0.5436 -1.5016
  348MOL0     H46933   0.675   1.735   3.033 -0.3446 -1.9435 -0.9901
  348MOL0     H46934   0.595   1.583   3.289  2.5060  1.5814 -0.2173
  348MOL0     H46935   0.600   1.513   3.119  1.5127 -0.0261  0.7347
  348MOL0     H46936   0.436   1.759   3.191  0.1552 -0.7692 -0.1143
  348MOL0     H46937   0.365   1.597   3.204 -0.9369  0.9797  0.8894
  348MOL0     H46938   0.442   1.543   2.973  0.9046 -1.6738  3.7416
  348MOL0     H46939   0.459   1.723   2.958  1.0194 -0.5684 -0.8343
  348MOL0     H46940   0.281   1.386   3.055 -1.5407 -0.6549  2.3847
  348MOL0     H46941   0.031   1.161   3.125 -1.7988  0.6603 -1.3277
  348MOL0     H46942   0.107   1.133   2.984 -0.0828  0.3172  0.3952
  348MOL0     H46943   0.203   1.195   3.119 -0.1451  1.1129 -0.1956
  348MOL0     H46944  -0.397   1.239   3.133  0.0463  0.3557  1.1486
  348MOL0     H46945  -0.582   1.109   3.151 -1.4718  3.0916 -3.4955
  348MOL0     H46946  -0.748   0.997   3.120  3.7470 -1.1367  1.6896
  348MOL0     H46947  -0.770   0.940   2.944  3.7410 -1.0208 -1.1909
  348MOL0     H46948  -0.941   0.845   3.059  0.0506 -0.5038  1.7116
  348MOL0     H46949  -0.811   0.723   3.021  3.5660 -2.0922  1.5252
  348MOL0     H46950  -0.849   0.838   3.294 -1.1303  0.3281 -0.0450
  348MOL0     H46951  -0.723   0.719   3.240  0.8863  0.7685 -0.3803
  348MOL0     H46952  -1.031   0.691   3.252 -0.5388 -2.5166 -1.2855
  348MOL0     H46953  -0.930   0.571   3.169  3.5067  0.9192 -2.5658
  348MOL0     H46954  -0.984   0.512   3.399  0.7265 -2.9585 -1.1269
  348MOL0     H46955  -0.874   0.634   3.458  1.1067  1.6073 -1.5078
  348MOL0     H46956  -0.818   0.402   3.283 -1.9980  0.9602  0.0808
  348MOL0     H46957  -0.696   0.523   3.346  0.9137 -1.6043 -0.0601
  348MOL0     H46958  -0.726   0.279   3.459  4.2691  1.6592  0.2487
  348MOL0     H46959  -0.877   0.344   3.507  0.0658  1.3613 -0.3864
  348MOL0     H46960  -0.764   0.548   3.605  1.8145  1.0551 -1.3568
  348MOL0     H46961  -0.618   0.457   3.607  0.2497 -2.9976 -0.2398
  348MOL0     H46962  -0.406   0.822   2.890 -0.8456 -0.1342  0.1336
  348MOL0     H46963  -0.221   0.962   2.853  1.2478 -2.7097  3.2113
  348MOL0     H46964  -0.158   1.566   2.902 -1.0858  0.1043  1.1179
  348MOL0     H46965   0.043   1.723   2.919  0.0798  0.8689  1.6404
  348MOL0     H46966   0.734   1.346   4.239 -3.6275  2.3059  2.3571
  348MOL0     H46967   0.689   1.475   4.438 -0.8243  2.6120  0.5318
  348MOL0     H46968   0.654   1.704   4.709  1.9941  0.6020  1.0986
  348MOL0     H46969   0.691   1.799   4.949 -0.7116  0.8199  0.2772
  348MOL0     H46970   0.684   2.255   4.965  0.0496 -0.8369 -0.4069
  348MOL0     H46971   0.544   2.172   5.026 -1.1907  1.6964  0.7663
  348MOL0     H46972   0.685   2.118   5.247 -1.4329  1.4299  2.0321
  348MOL0     H46973   0.625   2.282   5.220  0.7044 -0.1193  1.6882
  348MOL0     H46974   0.828   2.344   5.267  2.4028 -1.7019  1.9532
  348MOL0     H46975   0.852   2.315   5.093 -0.8263 -0.3125 -0.5297
  348MOL0     H46976   0.957   2.079   5.157  3.0443 -1.3021  2.3453
  348MOL0     H46977   0.933   2.127   5.327 -2.6577  2.3620  0.9487
  348MOL0     H46978   1.261   2.346   5.160 -0.5808 -1.5884 -1.9561
  348MOL0     H46979   0.680   2.192   4.761 -1.9741 -0.7361  2.0545
  348MOL0     H46980   0.655   2.094   4.549  0.1275 -2.1366 -1.9668
  349MOL0     O46981   4.047   2.927   6.554 -0.0803  0.4549 -0.5948
  349MOL0     C46982   4.171   2.904   6.554  0.7543 -0.0255 -0.0679
  349MOL0     O46983   4.222   2.789   6.504 -0.1277  0.5362  0.8891
  349MOL0     C46984   4.241   2.800   6.367 -0.0541 -0.4671 -0.3366
  349MOL0     C46985   4.300   2.689   6.300  0.2401  1.1142  0.4975
  349MOL0     C46986   4.325   2.697   6.159 -0.5328  0.2061 -0.5982
  349MOL0     C46987   4.305   2.811   6.095  0.0571 -0.2781  0.1683
  349MOL0     O46988   4.338   2.808   5.962  1.2785  0.1274 -0.1477
  349MOL0     C46989   4.231   2.842   5.875 -0.3087  0.8667 -0.6111
  349MOL0     C46990   4.188   2.716   5.793  0.0407 -0.3725 -0.0153
  349MOL0     C46991   4.061   2.733   5.706  0.2202 -0.8811 -0.1132
  349MOL0     C46992   4.045   2.623   5.606 -0.1875 -0.5707 -0.5061
  349MOL0     C46993   3.901   2.623   5.561  0.1464  0.7699 -1.0578
  349MOL0     C46994   3.877   2.556   5.419 -0.5531  0.4174 -0.5700
  349MOL0     C46995   3.740   2.595   5.367 -0.2173 -0.5636  1.0531
  349MOL0     C46996   3.687   2.485   5.276  0.0171  0.3365  0.4928
  349MOL0     N46997   3.578   2.518   5.184 -0.9458 -0.6566 -0.0235
  349MOL0     C46998   3.443   2.494   5.192 -0.0315  0.3882  0.3559
  349MOL0     C46999   3.388   2.561   5.091  0.6792  0.0029 -0.2102
  349MOL0     C47000   3.242   2.557   5.075  0.3595  0.7254  0.3691
  349MOL0     C47001   3.209   2.472   4.951  0.1164 -0.5235 -0.5621
  349MOL0     C47002   3.240   2.323   4.980 -0.1079 -0.4787  0.3330
  349MOL0     C47003   3.234   2.254   4.843  0.3000 -0.4359 -0.4346
  349MOL0     O47004   3.292   2.116   4.841 -0.1252  0.9361  0.2971
  349MOL0     C47005   3.302   2.054   4.721  0.5884  0.2150 -0.1340
  349MOL0     C47006   3.388   1.947   4.714  0.2061 -0.0277  0.2979
  349MOL0     C47007   3.408   1.876   4.597 -0.5711 -0.7696  0.2551
  349MOL0     C47008   3.519   1.781   4.610 -0.3421 -0.2003 -0.2147
  349MOL0     C47009   3.327   1.895   4.478 -0.4521 -0.9886  0.1923
  349MOL0     C47010   3.330   1.815   4.348 -0.6896  0.5609  0.5695
  349MOL0     O47011   3.445   1.740   4.325 -0.0334 -0.4229 -0.2007
  349MOL0     C47012   3.458   1.668   4.209  0.0485  0.5754 -0.3208
  349MOL0     C47013   3.556   1.569   4.220  0.7492  0.2168 -0.4990
  349MOL0     C47014   3.586   1.488   4.111  0.2830  0.2681  0.9840
  349MOL0     C47015   3.521   1.491   3.986  0.0430 -0.3388 -0.2382
  349MOL0     O47016   3.551   1.410   3.883 -0.8405  0.1195  0.1364
  349MOL0     C47017   3.442   1.334   3.823 -0.0772  0.1379  0.1580
  349MOL0     C47018   3.496   1.213   3.747  0.3171 -0.1007 -0.2615
  349MOL0     C47019   3.372   1.135   3.687  0.5347  0.0523  0.5544
  349MOL0     C47020   3.421   0.985   3.680 -0.6628 -0.4531 -0.3358
  349MOL0     C47021   3.537   0.980   3.575  0.8500 -0.9941 -0.5751
  349MOL0     C47022   3.548   0.841   3.521 -0.4556 -0.2541 -0.3124
  349MOL0     C47023   3.642   0.834   3.399 -0.6600  0.6593 -0.7737
  349MOL0     C47024   3.774   0.762   3.439 -0.8127 -0.0571  0.3121
  349MOL0    Cl47025   3.898   0.874   3.511 -0.1778  0.4970 -0.1591
  349MOL0     C47026   3.423   1.598   3.967 -0.1350  0.2569  0.0157
  349MOL0     C47027   3.396   1.685   4.080 -0.5435 -0.2475 -0.5200
  349MOL0     O47028   3.230   1.813   4.274 -0.3026 -0.3948 -0.2856
  349MOL0     C47029   3.239   2.002   4.491  1.0773  0.3578  0.5914
  349MOL0     C47030   3.218   2.083   4.612 -0.7434  0.0496 -0.9308
  349MOL0     N47031   3.483   2.615   5.008  0.2515  0.6626 -0.4728
  349MOL0     N47032   3.597   2.583   5.067  0.2757  0.2108  0.5026
  349MOL0     C47033   4.247   2.928   6.156 -0.6645 -0.0380  0.2002
  349MOL0     C47034   4.200   2.914   6.287  0.4069 -0.7772 -0.3534
  349MOL0     C47035   4.246   2.966   6.657 -0.2710 -1.3529  0.2443
  349MOL0     C47036   4.218   3.097   6.712  0.3303 -0.1242 -0.7110
  349MOL0     C47037   4.312   3.175   6.786 -0.6604 -0.4437  0.7050
  349MOL0     C47038   4.435   3.114   6.823  1.4002 -0.1941  0.1300
  349MOL0     O47039   4.537   3.172   6.887  0.3022  0.0063 -0.1044
  349MOL0     C47040   4.508   3.297   6.952 -0.5212 -0.7160  0.0029
  349MOL0     C47041   4.623   3.345   7.038  0.9181  0.6706 -0.2095
  349MOL0     C47042   4.745   3.398   6.972 -0.5873  0.5741 -0.7199
  349MOL0     C47043   4.859   3.452   7.059 -0.2828  0.2919 -0.4242
  349MOL0     C47044   4.815   3.538   7.170  0.1789 -0.1636  0.5131
  349MOL0     C47045   4.796   3.601   7.273 -1.1691  0.4468 -0.7755
  349MOL0     C47046   4.458   2.981   6.787  0.2087  0.2181 -0.4599
  349MOL0     C47047   4.365   2.910   6.707 -0.6967  0.4054  0.1959
  349MOL0     H47048   4.319   2.606   6.368 -0.1044 -3.3174 -4.2270
  349MOL0     H47049   4.362   2.605   6.116  2.6158  0.7427  0.6640
  349MOL0     H47050   4.144   2.884   5.926 -0.3861  0.1133 -0.1147
  349MOL0     H47051   4.275   2.912   5.803  1.2462 -0.3773 -0.9246
  349MOL0     H47052   4.267   2.705   5.718  1.8065  0.3252  1.6876
  349MOL0     H47053   4.183   2.623   5.850 -3.8025 -0.2742  0.0571
  349MOL0     H47054   3.985   2.730   5.784  1.0539  2.2861  0.9664
  349MOL0     H47055   4.055   2.829   5.655 -0.8262 -0.8627  0.0199
  349MOL0     H47056   4.108   2.651   5.521  0.2848 -0.2608 -0.0648
  349MOL0     H47057   4.070   2.525   5.647 -1.1149 -0.5920  0.0341
  349MOL0     H47058   3.856   2.563   5.641 -0.9478  0.2880 -2.0096
  349MOL0     H47059   3.860   2.724   5.561 -2.2285 -0.1272 -1.7088
  349MOL0     H47060   3.957   2.584   5.349 -1.6805  0.1776 -1.9958
  349MOL0     H47061   3.891   2.448   5.428  0.7768  0.1717 -3.9637
  349MOL0     H47062   3.675   2.612   5.453 -0.0615  1.9738  0.7279
  349MOL0     H47063   3.757   2.686   5.310 -0.3402 -1.6500 -0.8119
  349MOL0     H47064   3.643   2.406   5.338  0.1506  1.7065  2.4251
  349MOL0     H47065   3.768   2.444   5.215 -1.8765 -2.5037 -0.3519
  349MOL0     H47066   3.394   2.453   5.279 -3.4469  1.5789 -0.8331
  349MOL0     H47067   3.189   2.534   5.168  0.3943  0.0928  0.2426
  349MOL0     H47068   3.205   2.658   5.056 -0.4805  0.5392  0.9726
  349MOL0     H47069   3.264   2.509   4.864  0.4619 -0.7171 -0.4314
  349MOL0     H47070   3.101   2.476   4.936 -0.1417 -1.3529  0.9434
  349MOL0     H47071   3.159   2.295   5.048  0.9980  1.2677  2.5012
  349MOL0     H47072   3.343   2.308   5.011 -0.1362 -1.7095 -0.1476
  349MOL0     H47073   3.284   2.320   4.771 -1.5410  1.7599  0.1679
  349MOL0     H47074   3.132   2.243   4.805 -0.3262  0.8465  0.7817
  349MOL0     H47075   3.444   1.930   4.806  0.1675 -0.0870  0.3104
  349MOL0     H47076   3.516   1.744   4.713  2.6246  2.5405  1.0265
  349MOL0     H47077   3.511   1.695   4.543 -4.1318 -0.9201  0.9246
  349MOL0     H47078   3.614   1.836   4.607 -0.4151 -0.0714 -0.1722
  349MOL0     H47079   3.613   1.563   4.312 -2.0581 -0.0987  1.3561
  349MOL0     H47080   3.667   1.422   4.140  0.9222  1.5277  2.2277
  349MOL0     H47081   3.373   1.304   3.902  1.5503  1.3182  2.1343
  349MOL0     H47082   3.390   1.400   3.753 -1.3379 -1.1721 -0.1941
  349MOL0     H47083   3.569   1.236   3.669 -0.4625  1.0284 -0.6938
  349MOL0     H47084   3.545   1.149   3.820 -0.8241  0.0134  0.6310
  349MOL0     H47085   3.330   1.167   3.592 -0.3429  0.5577  1.0912
  349MOL0     H47086   3.296   1.129   3.766  1.3342 -1.1358  1.2572
  349MOL0     H47087   3.458   0.952   3.777 -1.4388 -0.9586 -0.2096
  349MOL0     H47088   3.340   0.916   3.654 -0.3037 -1.5737  1.3388
  349MOL0     H47089   3.622   1.009   3.636 -0.4620  0.8410  0.5096
  349MOL0     H47090   3.521   1.050   3.492  1.2940 -3.6821 -3.0624
  349MOL0     H47091   3.572   0.773   3.603 -2.6574 -1.0278 -0.2365
  349MOL0     H47092   3.451   0.797   3.494 -2.1705 -0.4156  4.9903
  349MOL0     H47093   3.670   0.932   3.359 -0.0430  0.9819  0.4048
  349MOL0     H47094   3.587   0.777   3.324 -2.2656 -0.5166  1.1886
  349MOL0     H47095   3.824   0.707   3.358 -2.5066 -0.9092 -0.2074
  349MOL0     H47096   3.748   0.677   3.503 -1.4151 -1.0389 -1.1695
  349MOL0     H47097   3.385   1.605   3.865  4.1825  1.6023 -1.7476
  349MOL0     H47098   3.337   1.774   4.059 -0.4823  0.1611  0.9526
  349MOL0     H47099   3.160   2.025   4.421 -0.3899 -0.0547  2.0460
  349MOL0     H47100   3.144   2.162   4.613  0.8107  1.6525 -3.0510
  349MOL0     H47101   4.205   3.021   6.117 -2.6898  0.0990  2.5003
  349MOL0     H47102   4.141   3.001   6.312  0.8829  1.2613 -5.0939
  349MOL0     H47103   4.121   3.137   6.688 -1.4572 -3.4432  0.3202
  349MOL0     H47104   4.288   3.279   6.807 -1.3668 -0.6022  0.7131
  349MOL0     H47105   4.507   3.373   6.874 -0.4905 -1.8781 -1.1824
  349MOL0     H47106   4.413   3.304   7.006 -0.6946  0.8572 -0.4688
  349MOL0     H47107   4.652   3.259   7.099 -0.4688 -3.2946 -4.5393
  349MOL0     H47108   4.582   3.428   7.095  1.2738  0.9475 -0.3523
  349MOL0     H47109   4.720   3.485   6.911  3.4873  2.8019  0.3827
  349MOL0     H47110   4.795   3.325   6.908  0.8874  0.4687  0.4969
  349MOL0     H47111   4.929   3.504   6.992 -0.1379 -1.9841 -2.1530
  349MOL0     H47112   4.919   3.366   7.090 -0.0369  0.2306 -1.0417
  349MOL0     H47113   4.775   3.645   7.368 -0.5020 -2.1236  0.6594
  349MOL0     H47114   4.544   2.920   6.814  0.9236  1.2543 -0.3388
  349MOL0     H47115   4.388   2.805   6.691 -1.5302 -0.0852  2.0345
  350MOL0     O47116   6.923   7.793   2.629  0.2914  0.1039 -0.6109
  350MOL0     C47117   6.961   7.826   2.522 -1.2727  0.2855  0.8108
  350MOL0     O47118   7.052   7.919   2.495  0.4153 -0.9082 -0.5128
  350MOL0     C47119   7.113   7.975   2.607  0.3422 -0.9404  1.6206
  350MOL0     C47120   7.048   8.071   2.692  0.1244 -0.6425 -0.9991
  350MOL0     C47121   7.124   8.122   2.803 -0.1072 -0.2170  0.2051
  350MOL0     C47122   7.255   8.093   2.827 -1.1050  0.6504 -0.0993
  350MOL0     O47123   7.337   8.140   2.932  0.2121 -0.1144 -0.6790
  350MOL0     C47124   7.412   8.037   3.002 -0.5175 -0.6897  0.5059
  350MOL0     C47125   7.449   8.087   3.136 -0.8367  0.9693 -0.5805
  350MOL0     C47126   7.318   8.134   3.213 -0.6806 -0.4903 -0.5892
  350MOL0     C47127   7.324   8.109   3.366  0.1683 -0.7960  0.0932
  350MOL0     C47128   7.209   8.175   3.443 -0.2602  0.4344  0.7647
  350MOL0     C47129   7.061   8.118   3.430 -0.5607 -0.8725  0.2864
  350MOL0     C47130   6.964   8.188   3.534 -0.2364 -1.1292 -0.5231
  350MOL0     C47131   6.829   8.155   3.492  0.1262 -0.4311 -0.1151
  350MOL0     N47132   6.719   8.177   3.589 -0.0711  0.4533 -0.5399
  350MOL0     C47133   6.703   8.106   3.711  0.1786  0.6962  0.0973
  350MOL0     C47134   6.601   8.167   3.778  0.5439 -0.7813 -0.0609
  350MOL0     C47135   6.564   8.137   3.919 -0.8385 -0.2824  0.0807
  350MOL0     C47136   6.547   8.257   4.012  0.1796 -0.6296  0.1031
  350MOL0     C47137   6.567   8.218   4.160  0.1727 -0.2077 -0.1932
  350MOL0     C47138   6.476   8.103   4.210 -0.3074  1.0884  0.3520
  350MOL0     O47139   6.449   8.119   4.348  0.7404 -0.0051 -0.4182
  350MOL0     C47140   6.386   8.020   4.421 -0.2127  0.1923  0.3667
  350MOL0     C47141   6.396   8.039   4.556  0.2135 -0.0500 -0.1321
  350MOL0     C47142   6.326   7.960   4.645  0.6728  0.3937  0.7092
  350MOL0     C47143   6.341   8.010   4.791 -0.2670 -0.2482 -0.3114
  350MOL0     C47144   6.256   7.846   4.601  0.7110  0.2579 -0.0448
  350MOL0     C47145   6.184   7.754   4.701  0.2953  0.6433  0.6709
  350MOL0     O47146   6.092   7.671   4.650  0.4069 -0.1043 -0.3209
  350MOL0     C47147   6.035   7.568   4.721 -0.1921  0.2275 -0.0469
  350MOL0     C47148   6.097   7.492   4.820  0.2962 -0.7025 -0.4741
  350MOL0     C47149   6.040   7.380   4.880  0.5425  0.2586  0.8203
  350MOL0     C47150   5.905   7.337   4.845  0.1743 -0.6841  1.2232
  350MOL0     O47151   5.837   7.224   4.882  0.2347 -0.4053 -0.3912
  350MOL0     C47152   5.860   7.170   5.016 -0.2693 -0.2210 -0.3265
  350MOL0     C47153   5.826   7.276   5.131 -0.4411 -0.7267 -0.7335
  350MOL0     C47154   5.682   7.329   5.141  0.0779 -0.5574 -0.0490
  350MOL0     C47155   5.635   7.366   5.281  0.3778  0.6342  0.8847
  350MOL0     C47156   5.498   7.443   5.271  0.2936  0.2228 -0.3927
  350MOL0     C47157   5.430   7.472   5.407  0.0410  0.4255  0.6541
  350MOL0     C47158   5.295   7.522   5.382  0.0697  0.6982  0.4374
  350MOL0     C47159   5.293   7.636   5.278  0.6533 -0.3171 -0.1899
  350MOL0    Cl47160   5.151   7.738   5.285  0.0874  0.4315 -0.0068
  350MOL0     C47161   5.843   7.420   4.749 -0.7078  0.2702 -1.0065
  350MOL0     C47162   5.905   7.528   4.683 -0.6106 -0.0082 -0.9973
  350MOL0     O47163   6.206   7.758   4.821  0.1062 -0.0717 -0.6085
  350MOL0     C47164   6.248   7.828   4.457 -0.3235  0.4788 -0.4621
  350MOL0     C47165   6.316   7.912   4.372 -0.0915 -0.4150 -0.2005
  350MOL0     N47166   6.558   8.278   3.702  0.2826  0.0261 -0.2979
  350MOL0     N47167   6.635   8.286   3.592 -0.4640  0.8543 -0.3946
  350MOL0     C47168   7.314   8.007   2.732 -0.3035 -0.1839  0.1460
  350MOL0     C47169   7.248   7.947   2.628  0.2764 -0.2645  0.3829
  350MOL0     C47170   6.878   7.776   2.414 -0.1958  0.4333  0.2815
  350MOL0     C47171   6.834   7.866   2.317  0.4059  0.1266  0.5173
  350MOL0     C47172   6.765   7.814   2.199  0.6792  0.3900 -0.9196
  350MOL0     C47173   6.726   7.675   2.192 -0.3817 -0.4885  0.1201
  350MOL0     O47174   6.643   7.651   2.092 -0.6565  0.4348 -0.9440
  350MOL0     C47175   6.568   7.527   2.079 -0.2051 -0.9116  0.6693
  350MOL0     C47176   6.430   7.539   2.150 -0.1227 -0.5539 -0.3278
  350MOL0     C47177   6.369   7.391   2.161 -0.3890  0.1881 -0.6241
  350MOL0     C47178   6.269   7.362   2.272  0.5495 -1.4390 -0.1920
  350MOL0     C47179   6.157   7.460   2.249  0.4924 -0.0780 -0.7715
  350MOL0     C47180   6.068   7.543   2.252 -1.2662 -0.9838  0.4731
  350MOL0     C47181   6.768   7.589   2.294 -0.5148 -0.4780  1.1155
  350MOL0     C47182   6.848   7.638   2.396  0.7279  0.3791 -1.1246
  350MOL0     H47183   6.948   8.107   2.671  0.5169  0.8473 -0.4247
  350MOL0     H47184   7.089   8.200   2.870  0.9160  2.8363 -2.5318
  350MOL0     H47185   7.374   7.935   3.006  0.6016 -1.0896  1.3618
  350MOL0     H47186   7.505   8.024   2.946 -0.2660  1.5421  0.3005
  350MOL0     H47187   7.495   8.011   3.200  1.5728  1.6180 -1.4542
  350MOL0     H47188   7.529   8.160   3.124  0.6826 -0.6962 -1.0849
  350MOL0     H47189   7.299   8.241   3.203  1.7931  0.0441 -0.2957
  350MOL0     H47190   7.235   8.082   3.164 -0.6865 -0.3896 -0.6842
  350MOL0     H47191   7.331   8.002   3.387 -2.7866 -1.1132 -0.0673
  350MOL0     H47192   7.422   8.147   3.396 -0.0132 -0.0001 -0.2855
  350MOL0     H47193   7.242   8.176   3.547  2.0638 -0.1994  0.0865
  350MOL0     H47194   7.208   8.277   3.404 -0.3064 -0.4247 -1.6360
  350MOL0     H47195   7.025   8.122   3.327  3.6907  0.3047 -1.3703
  350MOL0     H47196   7.081   8.012   3.445 -1.5012 -1.0027  0.7485
  350MOL0     H47197   6.982   8.143   3.632 -2.9502  1.7463  1.5045
  350MOL0     H47198   6.975   8.296   3.547 -1.8001 -1.0528  0.4060
  350MOL0     H47199   6.827   8.047   3.472  2.0397 -0.7493  1.1076
  350MOL0     H47200   6.801   8.204   3.399 -0.6714  0.7834  0.7408
  350MOL0     H47201   6.748   8.015   3.750 -3.0282 -0.1599  2.2415
  350MOL0     H47202   6.480   8.066   3.916 -1.8713  0.7871  2.1109
  350MOL0     H47203   6.653   8.085   3.957  0.3475  0.6518 -1.2800
  350MOL0     H47204   6.443   8.285   3.996 -0.7790 -3.6747  0.4489
  350MOL0     H47205   6.614   8.341   3.990 -1.4566  1.5641  2.9031
  350MOL0     H47206   6.552   8.304   4.226  2.0024 -0.5188  0.7058
  350MOL0     H47207   6.672   8.185   4.157  0.6794  1.3472 -0.4584
  350MOL0     H47208   6.510   8.001   4.191  0.9627  1.5098  0.2928
  350MOL0     H47209   6.382   8.123   4.157  0.1646  0.6484 -0.6790
  350MOL0     H47210   6.453   8.123   4.596  0.6548 -0.7089  0.6798
  350MOL0     H47211   6.245   8.014   4.843 -0.6110 -0.1414 -0.9455
  350MOL0     H47212   6.412   7.944   4.843 -0.3865  0.9905  1.5209
  350MOL0     H47213   6.379   8.111   4.805 -0.4432 -0.3762  1.2722
  350MOL0     H47214   6.199   7.514   4.851  0.4733 -0.6173 -1.1096
  350MOL0     H47215   6.095   7.311   4.944 -0.1288 -0.3266  0.7780
  350MOL0     H47216   5.803   7.079   5.036 -0.4737  0.0751  0.4856
  350MOL0     H47217   5.964   7.137   5.024 -0.3814 -0.4231  0.3705
  350MOL0     H47218   5.848   7.225   5.226 -0.6639 -0.2787 -0.4391
  350MOL0     H47219   5.890   7.363   5.118 -0.6162 -0.3309  0.8384
  350MOL0     H47220   5.617   7.249   5.103 -3.4545  1.4498  1.2642
  350MOL0     H47221   5.681   7.413   5.072  4.3647 -0.9786 -0.8652
  350MOL0     H47222   5.624   7.278   5.345 -0.0904 -1.4897 -1.9437
  350MOL0     H47223   5.708   7.440   5.315  0.3139  1.4025 -0.5609
  350MOL0     H47224   5.429   7.378   5.216  3.7209 -2.5418 -1.8142
  350MOL0     H47225   5.514   7.538   5.218  0.9988  1.1825  1.4702
  350MOL0     H47226   5.426   7.377   5.462 -0.9157 -0.9116 -1.5754
  350MOL0     H47227   5.502   7.540   5.453  1.9447 -0.0140 -1.4688
  350MOL0     H47228   5.257   7.576   5.469  0.2087  0.5018  0.6218
  350MOL0     H47229   5.218   7.445   5.367  0.4188  0.3797  0.2574
  350MOL0     H47230   5.307   7.591   5.179  2.0688 -2.7306  1.0041
  350MOL0     H47231   5.367   7.714   5.296  0.2511  0.3616 -1.3664
  350MOL0     H47232   5.736   7.405   4.739 -0.8718  0.2751  0.5056
  350MOL0     H47233   5.842   7.581   4.612 -1.5077 -1.6709 -1.5259
  350MOL0     H47234   6.187   7.748   4.416 -1.0006  1.3622 -1.2184
  350MOL0     H47235   6.297   7.885   4.269 -2.1052  2.4936 -0.7247
  350MOL0     H47236   7.416   7.975   2.748  0.0540  1.6693  2.0292
  350MOL0     H47237   7.297   7.881   2.557  1.5917  1.3184 -0.2353
  350MOL0     H47238   6.867   7.969   2.319 -0.7528  0.5065  1.4735
  350MOL0     H47239   6.735   7.876   2.116 -3.9171 -0.0465  0.1368
  350MOL0     H47240   6.538   7.517   1.974 -0.4540 -1.4089  0.7870
  350MOL0     H47241   6.633   7.440   2.092  2.4676 -0.2039 -4.9000
  350MOL0     H47242   6.360   7.607   2.101  2.2085  1.3788 -1.2101
  350MOL0     H47243   6.449   7.581   2.249  2.5691 -1.5958 -0.3314
  350MOL0     H47244   6.446   7.318   2.188 -0.0425 -0.2181 -2.5530
  350MOL0     H47245   6.331   7.360   2.064  1.0242  0.1512 -1.1940
  350MOL0     H47246   6.306   7.382   2.373 -0.2253  1.4805 -0.3981
  350MOL0     H47247   6.240   7.256   2.264  1.2651 -1.5183 -2.3319
  350MOL0     H47248   6.000   7.626   2.261  0.0886  0.0648  1.4370
  350MOL0     H47249   6.742   7.484   2.293 -2.5477 -0.1177  3.8498
  350MOL0     H47250   6.878   7.568   2.473 -0.5962  0.8075 -0.1825
  351MOL0     O47251   0.030   1.278   0.800  0.4967 -0.6609  0.0682
  351MOL0     C47252   0.069   1.168   0.775  0.7291 -0.6473  0.3635
  351MOL0     O47253   0.033   1.099   0.665  1.0395  0.2364  0.3056
  351MOL0     C47254  -0.080   1.138   0.585 -0.2947 -0.0382  0.0379
  351MOL0     C47255  -0.209   1.135   0.638 -0.0812 -0.2470  0.3864
  351MOL0     C47256  -0.317   1.165   0.548 -1.2327  0.2124  0.7644
  351MOL0     C47257  -0.290   1.180   0.406  0.3416 -0.3056 -0.3153
  351MOL0     O47258  -0.384   1.199   0.312  1.0815 -0.3162  0.0729
  351MOL0     C47259  -0.494   1.279   0.350 -0.8324  0.4782  0.3534
  351MOL0     C47260  -0.585   1.290   0.234  0.2790 -0.6355 -0.7792
  351MOL0     C47261  -0.693   1.396   0.261  0.6267  0.8052 -0.0604
  351MOL0     C47262  -0.764   1.413   0.122  0.5029  1.1208 -0.7066
  351MOL0     C47263  -0.893   1.489   0.142  0.6252 -0.7231  0.3510
  351MOL0     C47264  -0.950   1.541   0.001 -0.1816  0.3114  0.6872
  351MOL0     C47265  -1.094   1.586  -0.002 -0.9144  0.3275  0.1791
  351MOL0     C47266  -1.158   1.539  -0.125  0.2041  0.0331  0.8470
  351MOL0     N47267  -1.289   1.595  -0.128  0.6034 -0.8339  0.3822
  351MOL0     C47268  -1.406   1.531  -0.105  0.2275  0.3782 -0.2473
  351MOL0     C47269  -1.497   1.625  -0.093 -0.5147 -1.0457 -0.3125
  351MOL0     C47270  -1.645   1.606  -0.063  0.7573 -0.6143  0.4412
  351MOL0     C47271  -1.671   1.527   0.074 -1.3140 -0.0633  0.5134
  351MOL0     C47272  -1.807   1.466   0.079 -0.4887 -1.0549  0.1396
  351MOL0     C47273  -1.943   1.548   0.089  0.0575 -0.4483  0.5336
  351MOL0     O47274  -2.048   1.457   0.068 -0.0264  0.1135 -0.2524
  351MOL0     C47275  -2.111   1.420   0.180  1.2517  0.3561  0.6473
  351MOL0     C47276  -2.089   1.296   0.234  0.2351  0.7766  0.1190
  351MOL0     C47277  -2.157   1.255   0.348 -0.8440  0.5989  0.0379
  351MOL0     C47278  -2.125   1.117   0.408 -0.2428 -0.1836 -0.4058
  351MOL0     C47279  -2.256   1.338   0.397  0.1131 -0.8532 -0.3871
  351MOL0     C47280  -2.342   1.304   0.521 -0.4912  0.6038 -0.0386
  351MOL0     O47281  -2.314   1.199   0.604 -0.4550  0.0048 -0.9577
  351MOL0     C47282  -2.387   1.191   0.720 -0.5026  0.8040  0.5116
  351MOL0     C47283  -2.367   1.277   0.830  0.3139  0.2154  0.6192
  351MOL0     C47284  -2.456   1.256   0.940 -0.9490 -0.4832 -0.0069
  351MOL0     C47285  -2.555   1.164   0.932  0.8812 -0.3949 -1.3025
  351MOL0     O47286  -2.641   1.155   1.039 -0.1305  0.6474  0.3277
  351MOL0     C47287  -2.578   1.081   1.149  0.4757 -0.3822  1.2227
  351MOL0     C47288  -2.668   1.040   1.257  0.0328  0.1813  0.8069
  351MOL0     C47289  -2.758   1.158   1.302 -0.2954  0.0520  0.3805
  351MOL0     C47290  -2.878   1.119   1.396 -0.2551  1.0092 -0.1592
  351MOL0     C47291  -2.965   1.244   1.418 -0.5638  0.0547  1.1934
  351MOL0     C47292  -3.069   1.225   1.529  0.3297 -0.0447 -0.7809
  351MOL0     C47293  -3.166   1.332   1.518  0.4926  0.1458 -0.5210
  351MOL0     C47294  -3.279   1.321   1.622 -0.7511  0.0068  0.0978
  351MOL0    Cl47295  -3.209   1.379   1.778 -0.1161  0.0001  0.2719
  351MOL0     C47296  -2.585   1.094   0.821  0.5393  0.4713  0.3726
  351MOL0     C47297  -2.501   1.107   0.714  0.7650  0.3898 -0.5760
  351MOL0     O47298  -2.434   1.377   0.537  1.0826 -0.5728 -0.1897
  351MOL0     C47299  -2.284   1.462   0.331 -0.8029  0.1634  0.2538
  351MOL0     C47300  -2.206   1.502   0.226  0.3249  0.1206  0.0789
  351MOL0     N47301  -1.443   1.748  -0.107  0.0964  0.5127  0.8291
  351MOL0     N47302  -1.318   1.726  -0.128 -0.6410  0.3940 -0.4381
  351MOL0     C47303  -0.157   1.189   0.362  0.0261  0.2381 -0.9999
  351MOL0     C47304  -0.051   1.180   0.459 -0.5096  1.6148  0.3506
  351MOL0     C47305   0.186   1.111   0.851 -0.1604 -0.1800 -0.1273
  351MOL0     C47306   0.215   0.970   0.846  0.0400  0.2741 -0.5574
  351MOL0     C47307   0.319   0.918   0.928 -0.6183  0.7897  0.0966
  351MOL0     C47308   0.398   0.992   1.011 -0.0904 -0.9598 -0.3966
  351MOL0     O47309   0.515   0.944   1.077  0.5090 -0.6429  0.2740
  351MOL0     C47310   0.575   0.818   1.043  0.2541 -0.0550  1.1036
  351MOL0     C47311   0.688   0.794   1.143  0.8836 -0.6483  0.1728
  351MOL0     C47312   0.790   0.905   1.162 -0.2596  0.2678  0.3617
  351MOL0     C47313   0.844   0.954   1.021 -0.5010  1.1767 -0.0248
  351MOL0     C47314   0.892   0.835   0.939  1.1170 -0.0774  0.7478
  351MOL0     C47315   0.935   0.739   0.863  0.4396 -0.6960 -0.2867
  351MOL0     C47316   0.363   1.130   1.024  0.9679  0.7803 -0.1729
  351MOL0     C47317   0.256   1.184   0.951 -0.0150  0.4546 -0.0252
  351MOL0     H47318  -0.228   1.097   0.737  1.4642 -1.5863  0.2142
  351MOL0     H47319  -0.418   1.175   0.586 -1.1501  5.1438  0.3103
  351MOL0     H47320  -0.557   1.231   0.425 -0.0117  1.8193  1.9765
  351MOL0     H47321  -0.457   1.378   0.380 -0.3364  0.9008 -1.5177
  351MOL0     H47322  -0.533   1.326   0.144  1.0169  4.0546  1.2026
  351MOL0     H47323  -0.611   1.185   0.219  2.6423 -1.4836  0.4946
  351MOL0     H47324  -0.767   1.352   0.328  2.4094 -1.4754  0.5556
  351MOL0     H47325  -0.666   1.494   0.301  2.2755 -0.0629  1.0868
  351MOL0     H47326  -0.704   1.482   0.061 -2.2482  0.4449 -4.5738
  351MOL0     H47327  -0.786   1.324   0.063 -1.4824  0.8841  0.3067
  351MOL0     H47328  -0.966   1.428   0.195 -0.0067  1.5294  2.2709
  351MOL0     H47329  -0.873   1.569   0.214  1.6914  0.6406 -1.3880
  351MOL0     H47330  -0.889   1.623  -0.040 -0.4726  0.6898  1.0033
  351MOL0     H47331  -0.934   1.461  -0.072  0.0297  3.1327 -2.6540
  351MOL0     H47332  -1.141   1.551   0.091  0.2844 -1.1459  0.2679
  351MOL0     H47333  -1.092   1.695   0.007  1.6191  0.3899 -0.5082
  351MOL0     H47334  -1.162   1.431  -0.144 -0.9465  0.2983 -0.5433
  351MOL0     H47335  -1.109   1.577  -0.215 -2.7935 -2.3068 -2.0386
  351MOL0     H47336  -1.399   1.426  -0.080  2.3084  0.5757  0.1752
  351MOL0     H47337  -1.684   1.708  -0.061 -2.7508 -1.8219  2.1627
  351MOL0     H47338  -1.707   1.560  -0.141 -0.7517  2.9859 -0.6984
  351MOL0     H47339  -1.664   1.590   0.163 -3.1199 -0.0243  0.6670
  351MOL0     H47340  -1.594   1.450   0.082  0.4241  1.4361 -0.8730
  351MOL0     H47341  -1.808   1.413   0.175  1.9115  0.1426  0.8940
  351MOL0     H47342  -1.804   1.384   0.006  4.5413 -2.4458  1.5053
  351MOL0     H47343  -1.946   1.612  -0.000 -0.2390 -2.0827 -0.6785
  351MOL0     H47344  -1.955   1.605   0.182 -3.3779 -2.7293  1.6805
  351MOL0     H47345  -2.015   1.227   0.195 -0.2666 -0.5801  1.4589
  351MOL0     H47346  -2.063   1.126   0.498 -0.6077  2.9556 -0.3675
  351MOL0     H47347  -2.217   1.067   0.441 -0.0078  0.6112  1.6638
  351MOL0     H47348  -2.076   1.050   0.338  1.1182 -1.7088  1.8610
  351MOL0     H47349  -2.300   1.362   0.823 -0.5924  0.7995 -2.4206
  351MOL0     H47350  -2.455   1.316   1.031  1.7032  0.2735 -0.4434
  351MOL0     H47351  -2.529   0.993   1.107 -2.2025 -1.5101  0.2066
  351MOL0     H47352  -2.500   1.144   1.191  1.2642 -1.1965  0.9976
  351MOL0     H47353  -2.734   0.969   1.207 -2.7647  2.4094  1.0682
  351MOL0     H47354  -2.612   0.998   1.341  1.3573  0.6790  0.1962
  351MOL0     H47355  -2.796   1.209   1.213  1.4931  1.1285  0.1918
  351MOL0     H47356  -2.704   1.238   1.353 -3.1198  3.6281 -1.6907
  351MOL0     H47357  -2.936   1.034   1.359 -1.1441  1.6227 -0.2062
  351MOL0     H47358  -2.841   1.085   1.493 -2.3312  1.0302  0.7136
  351MOL0     H47359  -3.014   1.267   1.323  2.1054 -0.1707 -0.3252
  351MOL0     H47360  -2.898   1.326   1.447  0.7642 -1.6555  3.2285
  351MOL0     H47361  -3.121   1.129   1.520  2.4050 -1.1813 -1.5944
  351MOL0     H47362  -3.025   1.234   1.629 -0.3177  0.5368 -0.5436
  351MOL0     H47363  -3.201   1.331   1.415  0.4442  2.0856 -0.5575
  351MOL0     H47364  -3.103   1.419   1.541 -2.0370  1.7903  0.6335
  351MOL0     H47365  -3.314   1.217   1.619 -1.8595  0.3759 -0.3349
  351MOL0     H47366  -3.373   1.376   1.604 -0.3199  0.4400 -0.9233
  351MOL0     H47367  -2.670   1.027   0.810  0.5746  0.5890 -0.7259
  351MOL0     H47368  -2.535   1.052   0.626  0.3278  0.3521 -0.3872
  351MOL0     H47369  -2.358   1.533   0.365  0.1096  1.1616  0.1799
  351MOL0     H47370  -2.215   1.603   0.186 -2.1599  2.6207  5.7823
  351MOL0     H47371  -0.140   1.204   0.256  0.4323 -0.8117 -1.0897
  351MOL0     H47372   0.049   1.185   0.418 -1.2473 -1.5065 -2.2853
  351MOL0     H47373   0.151   0.907   0.785 -3.6821  2.0779  1.1505
  351MOL0     H47374   0.347   0.815   0.909 -0.2534  0.0665  3.8569
  351MOL0     H47375   0.507   0.737   1.069 -2.2309  1.4237 -0.4146
  351MOL0     H47376   0.604   0.815   0.937  0.6593 -0.8502  1.2322
  351MOL0     H47377   0.746   0.712   1.101  3.5639  2.1380 -2.0708
  351MOL0     H47378   0.653   0.765   1.242  2.0948 -1.3912  0.4096
  351MOL0     H47379   0.864   0.860   1.227 -1.6084 -1.8517  0.5263
  351MOL0     H47380   0.745   0.990   1.214  1.9210  0.7744  1.5212
  351MOL0     H47381   0.925   1.026   1.036  0.2809  0.3840 -0.2737
  351MOL0     H47382   0.771   0.992   0.949  0.0882 -0.2702 -1.4628
  351MOL0     H47383   0.965   0.671   0.786 -1.9115 -1.8483 -0.2753
  351MOL0     H47384   0.420   1.182   1.100 -1.8920  0.5572  2.2859
  351MOL0     H47385   0.226   1.286   0.973 -3.2174 -0.4174  0.1733
  352MOL0     O47386  11.418   5.829   5.955  0.3045 -0.0466 -0.9284
  352MOL0     C47387  11.383   5.933   6.010 -0.1803  0.0403  0.4662
  352MOL0     O47388  11.435   6.052   5.976 -0.3895 -0.7249  0.1537
  352MOL0     C47389  11.504   6.062   5.870 -0.5641 -0.3215  1.2147
  352MOL0     C47390  11.637   6.087   5.886 -0.0710 -0.2563 -0.3230
  352MOL0     C47391  11.703   6.123   5.767  0.5687 -0.8036  0.8822
  352MOL0     C47392  11.652   6.118   5.633  0.2271  0.2201 -0.8294
  352MOL0     O47393  11.722   6.143   5.516 -0.5397  0.7267  0.1016
  352MOL0     C47394  11.861   6.117   5.513 -0.3479 -0.0665  0.0669
  352MOL0     C47395  11.895   6.100   5.361 -0.4050 -0.0100  0.6993
  352MOL0     C47396  12.046   6.082   5.329 -0.3628  0.2472 -0.5850
  352MOL0     C47397  12.067   6.004   5.199 -0.8483 -0.6380 -0.5334
  352MOL0     C47398  12.214   6.013   5.137  0.2971  0.1219  0.2751
  352MOL0     C47399  12.262   6.152   5.104 -0.3958 -0.9366 -0.0471
  352MOL0     C47400  12.190   6.235   4.986  0.7701 -0.0428 -0.1452
  352MOL0     C47401  12.252   6.372   4.957  0.4934  0.4590  0.0104
  352MOL0     N47402  12.256   6.443   5.087 -0.9249 -0.0905  1.0320
  352MOL0     C47403  12.151   6.495   5.153 -0.3302 -0.6033 -0.3718
  352MOL0     C47404  12.213   6.557   5.259  0.0480  0.1418  0.1152
  352MOL0     C47405  12.162   6.635   5.381 -0.2495  0.8732 -0.0789
  352MOL0     C47406  12.197   6.567   5.509 -0.4795 -1.2146  0.7309
  352MOL0     C47407  12.124   6.440   5.529 -0.2819  0.4163  0.0365
  352MOL0     C47408  12.146   6.391   5.673  0.1566 -0.2608 -0.0783
  352MOL0     O47409  12.056   6.459   5.772 -0.1912  0.1154 -0.6703
  352MOL0     C47410  12.020   6.392   5.886 -1.2099 -0.5120  0.5928
  352MOL0     C47411  12.100   6.297   5.949 -0.3620  0.5217 -0.4874
  352MOL0     C47412  12.051   6.229   6.060 -0.2323 -0.4223 -0.1338
  352MOL0     C47413  12.141   6.130   6.135 -0.0939 -0.4138  0.1725
  352MOL0     C47414  11.921   6.247   6.104 -0.6891  0.6087  0.0251
  352MOL0     C47415  11.853   6.167   6.204  0.1471 -0.1424 -1.1432
  352MOL0     O47416  11.756   6.221   6.280  0.4401 -0.5272 -0.4857
  352MOL0     C47417  11.707   6.156   6.391 -0.6680  0.2321 -0.5600
  352MOL0     C47418  11.575   6.109   6.392 -0.4172  0.4726 -1.3931
  352MOL0     C47419  11.529   6.031   6.502  0.5632  0.0702  0.0017
  352MOL0     C47420  11.613   5.987   6.611 -0.0456  0.3593 -0.0874
  352MOL0     O47421  11.574   5.918   6.723 -0.0020  0.4387 -0.3202
  352MOL0     C47422  11.444   5.858   6.722  0.3997  0.4564 -0.2155
  352MOL0     C47423  11.463   5.704   6.736  0.9646 -0.0891  0.6414
  352MOL0     C47424  11.336   5.630   6.777  0.5011 -0.6284  0.7830
  352MOL0     C47425  11.203   5.695   6.712 -0.7075 -0.0795  0.6885
  352MOL0     C47426  11.090   5.626   6.777 -0.0794 -0.8425 -0.0931
  352MOL0     C47427  10.968   5.710   6.735 -0.3577 -0.5905  0.3242
  352MOL0     C47428  10.835   5.673   6.807  0.1710  0.2442  0.0702
  352MOL0     C47429  10.735   5.769   6.753 -0.3788  0.3571 -0.7841
  352MOL0    Cl47430  10.768   5.939   6.788 -0.0090  0.3148  0.1099
  352MOL0     C47431  11.751   6.021   6.588 -0.4149 -1.1388 -0.1802
  352MOL0     C47432  11.796   6.111   6.488 -0.2124 -0.5859  0.3062
  352MOL0     O47433  11.881   6.046   6.208 -0.2365 -0.7554  0.8020
  352MOL0     C47434  11.842   6.347   6.045 -0.2416  1.0464 -0.0252
  352MOL0     C47435  11.898   6.420   5.937 -0.4209 -0.8478  0.1331
  352MOL0     N47436  12.352   6.553   5.240 -0.3460 -0.7069 -0.6123
  352MOL0     N47437  12.378   6.485   5.143  0.2908  1.1505 -0.6634
  352MOL0     C47438  11.522   6.082   5.635  0.2532  0.2423  0.4197
  352MOL0     C47439  11.446   6.062   5.749  0.5908  0.1299 -0.2792
  352MOL0     C47440  11.294   5.918   6.124  0.6259 -1.3223 -0.2709
  352MOL0     C47441  11.245   5.801   6.168  0.3712  0.8692 -0.6744
  352MOL0     C47442  11.143   5.796   6.266  0.0621  0.0208  0.4827
  352MOL0     C47443  11.095   5.912   6.328 -0.7077 -0.9256 -0.4538
  352MOL0     O47444  10.993   5.889   6.415  0.3504  0.1702  0.9522
  352MOL0     C47445  10.891   5.985   6.422  1.3331 -0.5209 -0.7313
  352MOL0     C47446  10.793   5.987   6.304  0.3472 -0.1770  0.2438
  352MOL0     C47447  10.688   6.093   6.335 -0.2256  0.0888 -0.3343
  352MOL0     C47448  10.601   6.121   6.210 -0.4626  0.0365  0.0508
  352MOL0     C47449  10.506   6.223   6.244  0.1949 -0.3128  0.9413
  352MOL0     C47450  10.416   6.292   6.291  0.2283  0.2884 -0.5213
  352MOL0     C47451  11.156   6.035   6.289  0.1782  0.3622 -0.2471
  352MOL0     C47452  11.250   6.038   6.186 -0.4076  0.5039 -0.1224
  352MOL0     H47453  11.681   6.110   5.982  0.2912 -1.2546 -0.2357
  352MOL0     H47454  11.801   6.167   5.781  1.3642 -1.3495 -2.1346
  352MOL0     H47455  11.904   6.208   5.557  0.7277 -1.4373  2.0269
  352MOL0     H47456  11.893   6.027   5.566  0.4739 -0.5438 -1.1931
  352MOL0     H47457  11.855   6.002   5.332  1.6431 -1.5868  2.7522
  352MOL0     H47458  11.857   6.188   5.309 -1.9945 -2.9648 -3.7026
  352MOL0     H47459  12.106   6.173   5.338  1.2983 -0.8702  0.3874
  352MOL0     H47460  12.083   6.013   5.406 -1.7282  0.9703  0.7750
  352MOL0     H47461  12.032   5.901   5.215  2.9486 -1.9241  0.6277
  352MOL0     H47462  11.999   6.040   5.122  0.7727 -2.2899 -2.8816
  352MOL0     H47463  12.288   5.981   5.211 -0.2432 -1.3401  0.2234
  352MOL0     H47464  12.225   5.953   5.046  5.4783 -1.1185  1.3697
  352MOL0     H47465  12.271   6.219   5.189 -1.7241 -0.3788 -0.3204
  352MOL0     H47466  12.365   6.135   5.072 -0.1006 -0.0663  0.4196
  352MOL0     H47467  12.197   6.184   4.889  0.0589  2.0142 -1.3498
  352MOL0     H47468  12.084   6.251   5.007  1.5583  1.8900  2.8893
  352MOL0     H47469  12.193   6.435   4.890 -0.0293  0.4203  0.4242
  352MOL0     H47470  12.351   6.370   4.912  0.8910  0.4039  0.8703
  352MOL0     H47471  12.046   6.479   5.132 -0.3502 -2.7891  0.9854
  352MOL0     H47472  12.199   6.738   5.384  1.6089  0.2609 -0.3062
  352MOL0     H47473  12.054   6.643   5.369 -0.2075 -0.6835 -1.9757
  352MOL0     H47474  12.175   6.637   5.590  0.9293  0.2298 -0.0744
  352MOL0     H47475  12.305   6.552   5.510 -0.2309  0.3228  0.4352
  352MOL0     H47476  12.172   6.364   5.466  3.2991  0.9727  1.8457
  352MOL0     H47477  12.017   6.456   5.509  0.1112  1.8829 -1.0259
  352MOL0     H47478  12.251   6.398   5.704  0.0926  2.7607 -0.1899
  352MOL0     H47479  12.116   6.286   5.673 -0.8728 -0.0208 -1.9536
  352MOL0     H47480  12.194   6.277   5.898  0.8616  2.8857  0.6684
  352MOL0     H47481  12.248   6.141   6.117 -0.5529 -0.5514 -3.4050
  352MOL0     H47482  12.123   6.142   6.243  0.2115 -0.3928  0.2215
  352MOL0     H47483  12.101   6.030   6.115 -3.4548  0.7297  0.5386
  352MOL0     H47484  11.500   6.129   6.316  0.9915  1.0559 -2.7022
  352MOL0     H47485  11.426   5.997   6.491  0.6399 -0.0931 -0.2145
  352MOL0     H47486  11.387   5.900   6.805  0.0088 -1.1507  0.3741
  352MOL0     H47487  11.384   5.869   6.632 -2.6492  1.1547  1.7534
  352MOL0     H47488  11.490   5.669   6.636 -0.5720 -2.3427  0.9325
  352MOL0     H47489  11.540   5.681   6.810  0.6179 -0.2482  0.9611
  352MOL0     H47490  11.330   5.633   6.886 -1.9997 -0.2687  0.7021
  352MOL0     H47491  11.355   5.526   6.751  1.6866  0.4965 -3.9160
  352MOL0     H47492  11.202   5.803   6.734 -3.1166 -0.6152  4.1422
  352MOL0     H47493  11.221   5.678   6.606  0.0926 -0.6256  0.8988
  352MOL0     H47494  11.105   5.625   6.885  1.3041 -0.4209 -0.2614
  352MOL0     H47495  11.076   5.521   6.749 -0.1257 -1.1673  1.0943
  352MOL0     H47496  10.994   5.812   6.763  1.7090 -1.7775  3.1644
  352MOL0     H47497  10.952   5.707   6.627 -3.0665 -1.2230  0.6719
  352MOL0     H47498  10.845   5.674   6.916  3.0817 -2.1447 -0.0326
  352MOL0     H47499  10.814   5.566   6.794  1.6940  0.0746 -1.3746
  352MOL0     H47500  10.633   5.755   6.791 -1.5193  2.4726 -2.7776
  352MOL0     H47501  10.731   5.750   6.645 -0.0870  0.8119 -0.8798
  352MOL0     H47502  11.823   5.993   6.664  0.7589  1.3375 -0.2886
  352MOL0     H47503  11.904   6.126   6.483 -0.4517  1.0276 -0.7979
  352MOL0     H47504  11.752   6.390   6.088 -0.2261  1.7128 -0.6418
  352MOL0     H47505  11.846   6.501   5.885 -2.5332 -2.9324 -1.1871
  352MOL0     H47506  11.477   6.090   5.537  0.0049  0.8514  0.5810
  352MOL0     H47507  11.338   6.060   5.734  0.8504 -1.3845 -2.4976
  352MOL0     H47508  11.268   5.704   6.125 -1.5951  0.4293 -0.8290
  352MOL0     H47509  11.093   5.702   6.287 -0.8247 -0.2463 -2.3259
  352MOL0     H47510  10.821   5.957   6.501  0.9223  2.4685  0.0649
  352MOL0     H47511  10.922   6.087   6.445 -3.9760  1.0459  0.9351
  352MOL0     H47512  10.745   5.890   6.285 -0.7593  0.3688  0.1871
  352MOL0     H47513  10.860   6.015   6.222  0.2797  4.6251  1.5603
  352MOL0     H47514  10.732   6.188   6.367 -1.6331  0.3093  1.0433
  352MOL0     H47515  10.629   6.059   6.420  2.1308 -3.0741  0.2437
  352MOL0     H47516  10.544   6.036   6.171 -1.7292  1.2102 -0.7230
  352MOL0     H47517  10.657   6.157   6.123 -1.9985 -1.6718 -1.7341
  352MOL0     H47518  10.340   6.353   6.336  0.2248  0.1598 -0.3521
  352MOL0     H47519  11.120   6.130   6.324  0.5320 -0.2550  1.9099
  352MOL0     H47520  11.281   6.140   6.162  0.8154 -0.2622 -2.0747
  353MOL0     O47521   2.226   6.914   8.090 -0.1171 -0.1267 -0.1580
  353MOL0     C47522   2.207   7.024   8.140  0.3863 -0.3681 -0.1130
  353MOL0     O47523   2.268   7.130   8.079  0.1878  0.1815  0.0428
  353MOL0     C47524   2.246   7.262   8.109  0.1181 -0.1239  0.5823
  353MOL0     C47525   2.128   7.311   8.167  0.1823  0.1914 -0.4850
  353MOL0     C47526   2.116   7.443   8.208 -0.5649 -0.0740  0.0738
  353MOL0     C47527   2.220   7.529   8.170  0.8711 -0.5689  0.3470
  353MOL0     O47528   2.207   7.665   8.193 -0.7676  0.2694  0.2349
  353MOL0     C47529   2.180   7.701   8.330  0.4662 -0.0623  0.0611
  353MOL0     C47530   2.030   7.753   8.350  0.4559  0.2302 -0.3948
  353MOL0     C47531   2.008   7.891   8.329  0.3379  0.3127  0.0336
  353MOL0     C47532   1.854   7.915   8.319  0.1795  0.1277  0.0765
  353MOL0     C47533   1.852   8.061   8.270 -0.1049  0.2694  0.0794
  353MOL0     C47534   1.722   8.121   8.311 -0.2080 -0.3726  0.9430
  353MOL0     C47535   1.672   8.234   8.223  0.4841 -1.1109  0.5733
  353MOL0     C47536   1.739   8.367   8.275 -0.5054  0.0343  0.0389
  353MOL0     N47537   1.858   8.407   8.202 -0.0678 -0.4484 -0.7847
  353MOL0     C47538   1.893   8.367   8.073 -0.0816 -0.1374  0.4428
  353MOL0     C47539   2.019   8.399   8.057  1.0226  0.1174 -0.4739
  353MOL0     C47540   2.096   8.364   7.939 -0.1352  0.0977 -1.0463
  353MOL0     C47541   2.118   8.211   7.913 -0.1620 -0.6429 -1.4887
  353MOL0     C47542   2.223   8.203   7.800 -0.0838 -0.7586 -0.7486
  353MOL0     C47543   2.261   8.056   7.796 -0.1437 -0.0722 -0.2539
  353MOL0     O47544   2.200   7.978   7.688 -0.3832 -0.5319  0.8325
  353MOL0     C47545   2.219   7.845   7.678 -0.0187 -0.3568  0.1990
  353MOL0     C47546   2.169   7.781   7.568 -0.8317  0.1797  1.2350
  353MOL0     C47547   2.179   7.639   7.554 -0.1421 -0.5370 -0.5162
  353MOL0     C47548   2.107   7.580   7.431 -0.3206 -0.2361 -0.3340
  353MOL0     C47549   2.243   7.558   7.655  0.5561 -0.3792  0.4622
  353MOL0     C47550   2.243   7.407   7.649 -0.1747 -0.0412 -0.0082
  353MOL0     O47551   2.334   7.350   7.735  0.7917 -0.5077 -0.0375
  353MOL0     C47552   2.369   7.219   7.712 -0.0083 -0.6183 -0.6472
  353MOL0     C47553   2.492   7.178   7.666  0.5715 -0.2599 -0.0374
  353MOL0     C47554   2.534   7.047   7.670 -0.2664  0.4793  0.5569
  353MOL0     C47555   2.450   6.952   7.713 -0.2974  0.9425 -0.8657
  353MOL0     O47556   2.475   6.814   7.700  0.3243  0.5119 -0.5589
  353MOL0     C47557   2.387   6.709   7.757  0.0691 -0.5820  0.8996
  353MOL0     C47558   2.447   6.570   7.718 -0.3581 -0.0875  0.8124
  353MOL0     C47559   2.588   6.533   7.753 -0.4791 -0.4477 -0.9059
  353MOL0     C47560   2.594   6.542   7.907  0.3415 -0.5068 -0.6549
  353MOL0     C47561   2.710   6.458   7.953  0.0338 -0.4824 -0.3649
  353MOL0     C47562   2.753   6.459   8.102 -0.0079 -1.2182 -0.5061
  353MOL0     C47563   2.642   6.423   8.202  0.1825 -0.2674  0.5834
  353MOL0     C47564   2.679   6.420   8.349 -0.7458 -0.0235 -0.4004
  353MOL0    Cl47565   2.805   6.554   8.391  0.2092 -0.1057 -0.1986
  353MOL0     C47566   2.334   6.989   7.772  0.2899  0.4312 -0.3083
  353MOL0     C47567   2.286   7.116   7.762 -0.3598 -0.6433  0.7364
  353MOL0     O47568   2.158   7.349   7.587 -0.2483  0.2622 -0.3005
  353MOL0     C47569   2.307   7.629   7.762 -0.0636  0.5504 -0.3362
  353MOL0     C47570   2.290   7.769   7.775 -0.1836 -0.3859 -0.4102
  353MOL0     N47571   2.060   8.475   8.162 -0.3032  0.0622  0.2099
  353MOL0     N47572   1.970   8.474   8.252 -0.0838 -0.7014 -0.0212
  353MOL0     C47573   2.331   7.485   8.103  0.5566  0.6889  0.0546
  353MOL0     C47574   2.351   7.351   8.074 -0.0950 -0.2171  0.3367
  353MOL0     C47575   2.143   7.030   8.271  0.1257 -0.0723 -0.2733
  353MOL0     C47576   2.197   7.098   8.387  0.3346  0.1562  0.4484
  353MOL0     C47577   2.129   7.100   8.502  0.4019  0.3963 -0.1754
  353MOL0     C47578   2.024   7.016   8.528 -0.6411  0.4424 -0.5354
  353MOL0     O47579   1.961   7.024   8.650  0.3852 -0.6044 -0.3623
  353MOL0     C47580   1.830   7.084   8.653  0.6340 -0.0735 -0.4916
  353MOL0     C47581   1.826   7.111   8.807  0.2773  0.2510 -0.3631
  353MOL0     C47582   1.682   7.135   8.852 -0.1232  0.2297  0.3650
  353MOL0     C47583   1.659   7.289   8.887 -0.5944  0.3964  0.2892
  353MOL0     C47584   1.527   7.304   8.942 -0.2070 -0.1796 -0.0516
  353MOL0     C47585   1.418   7.309   9.000  0.6430 -0.6891  1.4472
  353MOL0     C47586   1.981   6.941   8.422  0.3166  0.4018 -0.1446
  353MOL0     C47587   2.039   6.944   8.296 -0.3465  0.4339  0.0478
  353MOL0     H47588   2.045   7.251   8.203  0.1402  0.6206  0.1491
  353MOL0     H47589   2.030   7.472   8.268 -2.1245 -2.3764 -0.8704
  353MOL0     H47590   2.200   7.621   8.401 -2.5181 -2.0088 -1.0996
  353MOL0     H47591   2.250   7.783   8.353  1.9556 -1.4116  0.5115
  353MOL0     H47592   1.953   7.697   8.297  0.7736  0.4168 -1.0694
  353MOL0     H47593   2.012   7.734   8.456  4.1776 -0.0355  0.3201
  353MOL0     H47594   2.044   7.950   8.415  0.3684  0.9561 -0.4120
  353MOL0     H47595   2.070   7.930   8.248 -1.6750  0.8799 -1.2998
  353MOL0     H47596   1.797   7.857   8.245 -0.4834 -0.7070  1.2050
  353MOL0     H47597   1.798   7.879   8.406 -4.6638  0.3708 -2.6363
  353MOL0     H47598   1.936   8.110   8.321 -0.6169 -3.4096  5.3906
  353MOL0     H47599   1.869   8.065   8.163  0.1908  0.4186  0.1297
  353MOL0     H47600   1.643   8.046   8.302  0.0935 -0.5350 -0.6103
  353MOL0     H47601   1.720   8.159   8.413 -0.1687  0.9930  0.4615
  353MOL0     H47602   1.667   8.216   8.115  1.7558  1.0184  0.1013
  353MOL0     H47603   1.567   8.255   8.244  0.1163 -1.9684 -0.3120
  353MOL0     H47604   1.764   8.380   8.381  1.2007 -1.7445 -0.0845
  353MOL0     H47605   1.669   8.448   8.255 -0.2189  0.3665  0.3556
  353MOL0     H47606   1.849   8.298   8.002 -0.3067 -2.0458  2.3153
  353MOL0     H47607   2.052   8.413   7.852 -0.2222  0.4098 -0.8278
  353MOL0     H47608   2.196   8.402   7.961 -1.0186  0.6635  2.6626
  353MOL0     H47609   2.022   8.166   7.886  0.2799 -0.7518 -2.9680
  353MOL0     H47610   2.164   8.173   8.005  0.0654  4.5191  0.8578
  353MOL0     H47611   2.308   8.267   7.825 -0.9436 -0.2978  1.1724
  353MOL0     H47612   2.184   8.223   7.699  0.6277 -1.1979 -1.1133
  353MOL0     H47613   2.248   8.006   7.893  1.4943  0.8421  0.4748
  353MOL0     H47614   2.367   8.041   7.773  0.0554 -0.7433  0.9965
  353MOL0     H47615   2.113   7.841   7.496  0.5175  2.1635  1.7553
  353MOL0     H47616   2.021   7.530   7.477 -1.6870 -0.0347 -2.5149
  353MOL0     H47617   2.063   7.650   7.359  1.1328 -0.3901 -1.4110
  353MOL0     H47618   2.166   7.504   7.380  1.2101  0.6236  0.1083
  353MOL0     H47619   2.544   7.259   7.615 -0.6257 -0.4935 -1.6944
  353MOL0     H47620   2.630   7.019   7.627 -0.1048  2.0177 -0.1744
  353MOL0     H47621   2.384   6.714   7.866 -0.2887 -1.1401  0.9169
  353MOL0     H47622   2.281   6.714   7.732  0.5672  4.1546 -1.5293
  353MOL0     H47623   2.385   6.490   7.760  0.3836 -1.9440 -1.4245
  353MOL0     H47624   2.425   6.568   7.610  0.5166  1.7927  0.5487
  353MOL0     H47625   2.663   6.607   7.724  0.6001 -1.3656 -0.5068
  353MOL0     H47626   2.611   6.431   7.721 -2.8720 -1.5181  0.5101
  353MOL0     H47627   2.606   6.644   7.946 -0.9917 -1.0942  1.4725
  353MOL0     H47628   2.515   6.491   7.962 -1.7351  1.9181 -1.1873
  353MOL0     H47629   2.806   6.479   7.904 -0.4634 -2.4449 -2.3646
  353MOL0     H47630   2.687   6.355   7.924  0.3063 -0.0097 -2.4023
  353MOL0     H47631   2.837   6.393   8.127  2.0457  1.5967  0.5350
  353MOL0     H47632   2.796   6.560   8.112 -1.7022 -0.5395  0.2270
  353MOL0     H47633   2.592   6.331   8.171  0.2397 -1.5987  4.0731
  353MOL0     H47634   2.571   6.506   8.188  4.0088  3.2509 -0.0799
  353MOL0     H47635   2.729   6.324   8.363 -0.3648  0.2784  0.3313
  353MOL0     H47636   2.585   6.415   8.404 -0.8396 -1.1736 -0.6400
  353MOL0     H47637   2.269   6.912   7.812 -0.5200 -0.6377 -3.4313
  353MOL0     H47638   2.184   7.142   7.790 -0.8211 -1.4206 -0.1706
  353MOL0     H47639   2.348   7.568   7.842 -2.3490 -0.6507 -0.0215
  353MOL0     H47640   2.338   7.826   7.853 -1.6882  2.0195 -1.1329
  353MOL0     H47641   2.414   7.552   8.081  0.0122  1.5437  0.5544
  353MOL0     H47642   2.446   7.314   8.037 -0.3921 -1.0522  0.4057
  353MOL0     H47643   2.284   7.161   8.374 -1.0755  1.8203 -1.5015
  353MOL0     H47644   2.165   7.165   8.582  0.0852  2.1541 -1.3996
  353MOL0     H47645   1.825   7.177   8.596 -2.2670 -0.6811 -1.4152
  353MOL0     H47646   1.760   7.015   8.604  0.2920 -0.1591  0.1048
  353MOL0     H47647   1.889   7.196   8.834  4.1357 -0.8708 -4.5151
  353MOL0     H47648   1.878   7.036   8.867  1.2976  2.3958  1.6066
  353MOL0     H47649   1.673   7.082   8.947  1.4216  0.7925  0.8686
  353MOL0     H47650   1.612   7.102   8.775 -0.0947  2.6501 -0.7929
  353MOL0     H47651   1.681   7.362   8.810  2.2345 -0.4061  0.2351
  353MOL0     H47652   1.733   7.314   8.964 -1.3126  0.2926  1.0325
  353MOL0     H47653   1.332   7.310   9.063 -0.1243  0.0513  0.4115
  353MOL0     H47654   1.904   6.866   8.440  0.5754  0.4677  1.3099
  353MOL0     H47655   1.998   6.886   8.214 -0.0722 -0.4980  0.5522
  354MOL0     O47656   1.424   0.342   6.041  0.2692  0.4740  0.2977
  354MOL0     C47657   1.387   0.349   6.157 -0.1967  0.0207 -0.4734
  354MOL0     O47658   1.261   0.340   6.203 -0.0922  0.4440 -0.1253
  354MOL0     C47659   1.144   0.312   6.141 -0.3220  1.0401 -0.3714
  354MOL0     C47660   1.136   0.255   6.012  0.7717 -0.7056  0.0105
  354MOL0     C47661   1.014   0.211   5.959 -0.7186 -0.2300  0.5994
  354MOL0     C47662   0.896   0.232   6.036  0.2344 -0.1617  0.2727
  354MOL0     O47663   0.783   0.184   5.972  0.2547 -0.0512 -0.4387
  354MOL0     C47664   0.660   0.210   6.035  0.4008  0.8120 -1.1308
  354MOL0     C47665   0.552   0.193   5.928 -0.2265  0.3951  0.1162
  354MOL0     C47666   0.401   0.195   5.982 -0.6616 -0.0845  0.5845
  354MOL0     C47667   0.358   0.339   6.017 -0.3277  0.8074 -0.4920
  354MOL0     C47668   0.224   0.335   6.096  0.8728  0.0844  0.2085
  354MOL0     C47669   0.151   0.476   6.095  0.5226  0.3215  0.4186
  354MOL0     C47670   0.002   0.472   6.117  0.4659 -0.0923  0.2020
  354MOL0     C47671  -0.053   0.367   6.217  0.3680  0.1739  0.7948
  354MOL0     N47672  -0.200   0.393   6.225  0.6684  0.3238  0.0519
  354MOL0     C47673  -0.278   0.452   6.328  0.1212 -0.2656  0.5275
  354MOL0     C47674  -0.402   0.446   6.281 -0.7752  0.1034  0.0585
  354MOL0     C47675  -0.524   0.496   6.350  0.4957 -0.3672 -0.6274
  354MOL0     C47676  -0.512   0.497   6.507 -0.1777  0.5418  0.0502
  354MOL0     C47677  -0.638   0.544   6.579 -1.0476  0.8315  0.0600
  354MOL0     C47678  -0.674   0.468   6.709 -1.0557  0.1397  0.2835
  354MOL0     O47679  -0.808   0.499   6.753  0.4149 -0.6337 -0.1137
  354MOL0     C47680  -0.844   0.505   6.888 -0.3910 -0.3112  0.5348
  354MOL0     C47681  -0.758   0.468   6.998  0.2474  0.3531 -0.5623
  354MOL0     C47682  -0.804   0.483   7.132  0.1371 -0.8498  0.1941
  354MOL0     C47683  -0.737   0.402   7.245  0.0828  0.1762 -0.1910
  354MOL0     C47684  -0.938   0.534   7.154  0.4398 -0.6885  1.0718
  354MOL0     C47685  -1.007   0.540   7.281 -0.7432 -0.0849 -0.5638
  354MOL0     O47686  -1.070   0.417   7.321 -0.3938 -0.4045  0.1390
  354MOL0     C47687  -1.169   0.431   7.415 -0.7972 -0.1758  0.6943
  354MOL0     C47688  -1.137   0.449   7.552 -0.5771 -0.0132 -0.4521
  354MOL0     C47689  -1.230   0.473   7.655  0.7715 -1.1135 -0.6424
  354MOL0     C47690  -1.363   0.488   7.617  0.4990 -0.7862 -0.5608
  354MOL0     O47691  -1.460   0.504   7.717  0.4521 -0.1289  0.1459
  354MOL0     C47692  -1.484   0.647   7.739 -0.6125  0.5291 -0.2392
  354MOL0     C47693  -1.587   0.675   7.841 -0.4114  0.7557  1.6882
  354MOL0     C47694  -1.733   0.661   7.786  0.2235  0.0123  0.4106
  354MOL0     C47695  -1.769   0.789   7.714  0.0055 -0.1204 -0.1859
  354MOL0     C47696  -1.911   0.804   7.672 -0.0477 -0.5243  0.6917
  354MOL0     C47697  -1.960   0.674   7.623  0.4870 -0.1006 -0.7466
  354MOL0     C47698  -2.082   0.678   7.527  0.4477 -0.0554 -0.2638
  354MOL0     C47699  -2.199   0.762   7.580  0.1624 -0.3901  0.3542
  354MOL0    Cl47700  -2.252   0.694   7.730 -0.1313  0.2983 -0.0181
  354MOL0     C47701  -1.398   0.482   7.488  0.2140 -0.0995 -0.0658
  354MOL0     C47702  -1.300   0.459   7.387  0.0513 -0.0695  0.1613
  354MOL0     O47703  -0.987   0.636   7.357 -0.0209 -0.3588  0.0903
  354MOL0     C47704  -1.021   0.560   7.051 -0.1702 -0.7731 -0.5763
  354MOL0     C47705  -0.969   0.552   6.919 -0.1127  0.2147 -0.4956
  354MOL0     N47706  -0.409   0.394   6.151 -0.8657  0.0708 -0.8537
  354MOL0     N47707  -0.288   0.352   6.127  0.1980 -0.5103 -0.6458
  354MOL0     C47708   0.902   0.301   6.158  0.6969  0.5999 -0.4634
  354MOL0     C47709   1.022   0.334   6.212 -0.8716  0.2168  0.0372
  354MOL0     C47710   1.498   0.351   6.261 -0.1806  0.1540 -0.7999
  354MOL0     C47711   1.461   0.416   6.380 -0.5241  0.1910 -0.2900
  354MOL0     C47712   1.557   0.422   6.490  0.3466  0.0218  0.3077
  354MOL0     C47713   1.689   0.375   6.467  0.7831 -0.2906 -0.3223
  354MOL0     O47714   1.772   0.395   6.574 -0.0104  0.0406 -0.6523
  354MOL0     C47715   1.909   0.441   6.543  0.7435  1.0222  0.5013
  354MOL0     C47716   1.907   0.591   6.497 -0.4850 -0.3272  1.0109
  354MOL0     C47717   1.938   0.600   6.346  0.1367 -0.6716  0.0487
  354MOL0     C47718   2.073   0.557   6.299 -0.0122  0.2221 -0.6252
  354MOL0     C47719   2.178   0.651   6.358  0.0716  0.5649  0.7985
  354MOL0     C47720   2.264   0.719   6.417 -0.0595  0.7811  0.4562
  354MOL0     C47721   1.718   0.308   6.348 -0.4411  0.7517 -0.2832
  354MOL0     C47722   1.624   0.304   6.244  0.5448 -0.5203  0.2877
  354MOL0     H47723   1.225   0.227   5.956 -0.7099 -1.5777 -1.9911
  354MOL0     H47724   1.015   0.144   5.874  1.0152  0.1948  0.2475
  354MOL0     H47725   0.632   0.140   6.115  1.4477  1.5202 -0.1187
  354MOL0     H47726   0.665   0.316   6.060  2.0469  0.7636 -1.1692
  354MOL0     H47727   0.565   0.262   5.844  0.4455 -0.4574 -0.4976
  354MOL0     H47728   0.564   0.093   5.887  1.1978  1.5629 -2.5690
  354MOL0     H47729   0.344   0.145   5.903  0.7908 -2.1718  0.7909
  354MOL0     H47730   0.393   0.124   6.065  1.2023 -1.6117 -0.4720
  354MOL0     H47731   0.443   0.382   6.072 -0.3984  0.5781 -0.2008
  354MOL0     H47732   0.342   0.386   5.919 -2.1878  2.2033  0.4124
  354MOL0     H47733   0.156   0.260   6.056  0.1542  0.0573  1.4268
  354MOL0     H47734   0.241   0.294   6.196 -3.0082 -4.2965 -0.6010
  354MOL0     H47735   0.199   0.550   6.160  2.3693  1.1446 -1.7355
  354MOL0     H47736   0.167   0.506   5.991  1.1461 -1.1621  0.0606
  354MOL0     H47737  -0.036   0.570   6.147 -1.1224 -0.2423 -1.1466
  354MOL0     H47738  -0.041   0.449   6.019  1.7341  0.0077 -0.3945
  354MOL0     H47739  -0.004   0.372   6.314 -0.6437  2.7617  1.2450
  354MOL0     H47740  -0.034   0.266   6.178  1.1765  0.5954  0.0482
  354MOL0     H47741  -0.234   0.499   6.416  0.9987  1.9728 -1.0136
  354MOL0     H47742  -0.548   0.595   6.312 -0.8625 -0.4784 -0.1281
  354MOL0     H47743  -0.610   0.437   6.315 -1.1400  1.2391  0.4710
  354MOL0     H47744  -0.443   0.579   6.531  2.5513 -1.6283  0.0775
  354MOL0     H47745  -0.468   0.406   6.548 -0.0301  0.7020  0.2530
  354MOL0     H47746  -0.717   0.524   6.507 -1.1435  2.1045 -0.2234
  354MOL0     H47747  -0.632   0.653   6.593 -1.1792  0.7423  0.8112
  354MOL0     H47748  -0.595   0.495   6.779  0.7827 -0.0557 -1.6212
  354MOL0     H47749  -0.662   0.361   6.692 -2.3825 -0.1396  0.9527
  354MOL0     H47750  -0.658   0.431   6.977  0.6278  1.0714 -0.0603
  354MOL0     H47751  -0.734   0.466   7.334 -0.6254 -0.0318 -0.0084
  354MOL0     H47752  -0.794   0.310   7.260  0.4936 -0.5298 -2.6030
  354MOL0     H47753  -0.637   0.370   7.213  0.1759  0.1743  0.0933
  354MOL0     H47754  -1.036   0.440   7.591 -0.2937 -2.1564 -1.5704
  354MOL0     H47755  -1.207   0.485   7.760  0.0029  2.9626 -0.7860
  354MOL0     H47756  -1.407   0.709   7.785 -1.5656 -0.1261  2.4153
  354MOL0     H47757  -1.507   0.696   7.644  1.7149  0.8597 -0.6808
  354MOL0     H47758  -1.571   0.595   7.914  3.1934  0.3748  0.7119
  354MOL0     H47759  -1.569   0.774   7.884  2.4248  0.0054  2.4822
  354MOL0     H47760  -1.792   0.660   7.878 -0.4221  3.8092  0.2337
  354MOL0     H47761  -1.746   0.579   7.715  0.9225 -0.7844  1.1905
  354MOL0     H47762  -1.749   0.873   7.782  0.3098  1.5776 -2.2748
  354MOL0     H47763  -1.712   0.810   7.623  3.6111  1.7986  2.2760
  354MOL0     H47764  -1.903   0.879   7.593  4.7794  0.1439  1.4764
  354MOL0     H47765  -1.970   0.836   7.758 -1.1367 -0.7284  0.0288
  354MOL0     H47766  -1.892   0.626   7.553  1.9702  1.2696 -0.2991
  354MOL0     H47767  -1.974   0.612   7.712  2.4505 -0.6763 -0.7844
  354MOL0     H47768  -2.120   0.577   7.509 -3.2872  0.7265  1.9848
  354MOL0     H47769  -2.038   0.735   7.445  0.8872  0.9597  0.6551
  354MOL0     H47770  -2.280   0.777   7.508  1.9310  1.2742 -1.3883
  354MOL0     H47771  -2.166   0.865   7.598 -1.8773  0.7793 -1.9018
  354MOL0     H47772  -1.500   0.503   7.457  0.6533 -0.0016 -1.5282
  354MOL0     H47773  -1.324   0.465   7.282 -0.9082 -0.2298  0.3611
  354MOL0     H47774  -1.121   0.598   7.070  0.9918  0.7420  3.4108
  354MOL0     H47775  -1.031   0.590   6.838  1.5138  0.2127 -1.7917
  354MOL0     H47776   0.813   0.316   6.218 -0.9878  1.3520 -3.0213
  354MOL0     H47777   1.043   0.381   6.307  2.1031  0.8438 -0.8227
  354MOL0     H47778   1.358   0.447   6.395 -0.1925  1.1789  0.0264
  354MOL0     H47779   1.531   0.465   6.587  2.2534  1.5933  0.1815
  354MOL0     H47780   1.971   0.439   6.633  0.0213 -2.1090  1.0610
  354MOL0     H47781   1.954   0.370   6.473  0.9608  2.2862 -0.6846
  354MOL0     H47782   1.982   0.654   6.547 -0.5037  0.3683  0.1835
  354MOL0     H47783   1.806   0.630   6.511 -1.2989 -0.7774 -2.6106
  354MOL0     H47784   1.919   0.706   6.328  0.1060 -0.5920  0.5421
  354MOL0     H47785   1.868   0.554   6.276  0.4835  0.0068 -0.7621
  354MOL0     H47786   2.083   0.556   6.190 -0.8607 -1.8791 -0.7370
  354MOL0     H47787   2.103   0.455   6.327  2.0635  1.1680  0.8682
  354MOL0     H47788   2.327   0.772   6.486 -1.8451 -0.8314  3.5594
  354MOL0     H47789   1.819   0.274   6.328  0.3376  2.8345 -0.1181
  354MOL0     H47790   1.639   0.247   6.153 -0.8540 -0.6295  0.1028
  355MOL0     O47791   9.367   8.857   7.447 -0.2698 -0.4845  0.8197
  355MOL0     C47792   9.265   8.795   7.420 -0.1175 -0.1388  0.1349
  355MOL0     O47793   9.145   8.809   7.481 -0.1544 -0.1052  0.5247
  355MOL0     C47794   9.150   8.878   7.603  0.8669  0.1382 -0.1480
  355MOL0     C47795   9.049   8.982   7.628 -0.2413 -0.4534 -0.4588
  355MOL0     C47796   9.049   9.061   7.747  0.1842 -0.2039 -0.1542
  355MOL0     C47797   9.164   9.057   7.830 -0.3122  0.3583  0.1764
  355MOL0     O47798   9.180   9.128   7.947  0.3301 -0.0816 -0.2569
  355MOL0     C47799   9.134   9.265   7.930  0.9419  0.5476  0.0704
  355MOL0     C47800   9.194   9.329   8.062 -0.5590 -0.3349  1.1702
  355MOL0     C47801   9.135   9.471   8.078 -0.5142 -0.5118 -0.1854
  355MOL0     C47802   9.175   9.573   7.968 -0.1593 -0.4816 -0.5762
  355MOL0     C47803   9.149   9.714   8.025 -1.2539  0.7091 -0.0100
  355MOL0     C47804   9.006   9.766   8.057 -0.7929 -0.0117 -0.0696
  355MOL0     C47805   8.922   9.785   7.932  0.2719  0.3218  0.3515
  355MOL0     C47806   8.848   9.654   7.888  0.1275 -0.7316  0.9852
  355MOL0     N47807   8.731   9.610   7.956  1.3765 -0.0705 -0.5694
  355MOL0     C47808   8.687   9.656   8.072  0.9122 -0.5018  0.3517
  355MOL0     C47809   8.602   9.564   8.125  0.5955 -0.9184 -0.5569
  355MOL0     C47810   8.539   9.570   8.264 -0.1307  0.0129 -0.1400
  355MOL0     C47811   8.396   9.624   8.260 -0.6700 -0.2367  0.1537
  355MOL0     C47812   8.291   9.558   8.174  0.0347 -0.4004 -1.0011
  355MOL0     C47813   8.304   9.411   8.177  0.5023  0.7269  0.6688
  355MOL0     O47814   8.202   9.357   8.095 -0.3914 -0.7709  0.7972
  355MOL0     C47815   8.076   9.323   8.133 -0.4784 -0.0217  0.3141
  355MOL0     C47816   7.985   9.307   8.037  0.6919 -0.8021 -0.6497
  355MOL0     C47817   7.852   9.276   8.070 -0.6085  0.6053 -0.0876
  355MOL0     C47818   7.761   9.245   7.956 -0.4741  0.6267 -0.2566
  355MOL0     C47819   7.809   9.266   8.208  0.6966  0.6391 -0.3272
  355MOL0     C47820   7.685   9.201   8.250 -0.6122 -0.2589 -0.0382
  355MOL0     O47821   7.668   9.201   8.387  0.4154 -0.4901 -0.4666
  355MOL0     C47822   7.555   9.152   8.441 -0.0535 -0.0854 -0.6098
  355MOL0     C47823   7.428   9.197   8.402  0.3418 -0.1156 -0.6596
  355MOL0     C47824   7.308   9.156   8.464  0.1896 -0.2282 -0.4742
  355MOL0     C47825   7.306   9.053   8.568 -1.0099 -0.0246  0.1124
  355MOL0     O47826   7.187   9.006   8.626 -0.5635  0.4979  0.1014
  355MOL0     C47827   7.200   8.871   8.681  0.0385 -1.4293 -0.2592
  355MOL0     C47828   7.058   8.820   8.716 -0.1944 -0.7000 -1.2878
  355MOL0     C47829   7.049   8.672   8.705  0.4789 -0.4896  0.2373
  355MOL0     C47830   7.112   8.577   8.817 -0.5640 -0.2428  0.5573
  355MOL0     C47831   7.166   8.458   8.739 -0.6300  0.0988 -0.1187
  355MOL0     C47832   7.224   8.348   8.821 -0.1235  0.5854  0.1304
  355MOL0     C47833   7.236   8.223   8.739  0.1013 -0.7087 -0.4159
  355MOL0     C47834   7.284   8.105   8.822 -0.2366 -0.2105  0.7482
  355MOL0    Cl47835   7.154   8.047   8.943 -0.1911 -0.1159  0.1754
  355MOL0     C47836   7.435   9.009   8.611 -0.6800 -0.0921 -0.6792
  355MOL0     C47837   7.560   9.054   8.545  1.2615  0.2768 -1.1826
  355MOL0     O47838   7.615   9.143   8.171  0.8556  0.8265  0.0474
  355MOL0     C47839   7.907   9.287   8.305  0.2959 -0.2278 -0.0175
  355MOL0     C47840   8.038   9.307   8.267  0.6187 -0.3162 -0.4305
  355MOL0     N47841   8.597   9.463   8.033 -0.0841  0.1265 -0.3308
  355MOL0     N47842   8.673   9.485   7.935 -0.0330  0.3962  0.3653
  355MOL0     C47843   9.263   8.956   7.810 -0.4884 -0.0375  0.1949
  355MOL0     C47844   9.245   8.867   7.702  0.4901 -0.1072  1.2806
  355MOL0     C47845   9.272   8.689   7.312 -1.0152 -0.1793 -1.3264
  355MOL0     C47846   9.399   8.665   7.248 -0.0159  0.6836 -0.8825
  355MOL0     C47847   9.406   8.565   7.146  0.3702  0.3756 -0.2590
  355MOL0     C47848   9.291   8.492   7.114 -1.4792 -0.9073  0.4623
  355MOL0     O47849   9.271   8.403   7.012 -0.5717  0.0117 -0.4491
  355MOL0     C47850   9.350   8.412   6.892  0.3141  1.4849 -0.8445
  355MOL0     C47851   9.282   8.511   6.803 -1.0635  0.0496 -0.2831
  355MOL0     C47852   9.139   8.483   6.755 -0.5251 -0.4666  1.0695
  355MOL0     C47853   9.098   8.558   6.624 -0.0064  0.8869  0.5059
  355MOL0     C47854   8.959   8.539   6.587  0.0653 -0.2480  0.1503
  355MOL0     C47855   8.850   8.550   6.532 -0.2395 -0.9625  0.0565
  355MOL0     C47856   9.170   8.513   7.186  0.3106 -0.4381  0.4596
  355MOL0     C47857   9.161   8.611   7.281  1.1444 -0.0994  0.2758
  355MOL0     H47858   8.967   8.997   7.558 -2.4187 -3.0346  1.3525
  355MOL0     H47859   8.968   9.130   7.766 -0.6400 -1.2920  0.4652
  355MOL0     H47860   9.174   9.319   7.843  0.0194  1.9905  0.5256
  355MOL0     H47861   9.025   9.268   7.921  0.7569 -1.9612  0.6567
  355MOL0     H47862   9.170   9.262   8.145  0.4868 -1.6769  0.4315
  355MOL0     H47863   9.302   9.345   8.052 -1.0948  2.8560 -1.3078
  355MOL0     H47864   9.026   9.467   8.078 -0.5148 -0.5820  0.3469
  355MOL0     H47865   9.171   9.515   8.172  1.1944  0.4776 -1.2469
  355MOL0     H47866   9.284   9.569   7.956 -0.3426 -2.1589 -2.0188
  355MOL0     H47867   9.139   9.559   7.866  0.9186 -0.3021 -0.9868
  355MOL0     H47868   9.216   9.721   8.112 -2.2678  1.3100  0.7458
  355MOL0     H47869   9.194   9.783   7.952  2.1428 -2.1659 -0.8929
  355MOL0     H47870   8.949   9.689   8.111 -4.0441  2.5770  0.4658
  355MOL0     H47871   9.016   9.860   8.111  1.1507 -0.7628  0.9685
  355MOL0     H47872   8.850   9.864   7.953 -2.0742 -1.7354  0.4662
  355MOL0     H47873   8.983   9.822   7.848  1.6942 -1.6418  0.4605
  355MOL0     H47874   8.918   9.571   7.888  0.0221 -0.9566 -2.7594
  355MOL0     H47875   8.837   9.671   7.781  1.8968  3.6538  1.2471
  355MOL0     H47876   8.708   9.750   8.122 -1.0422 -0.2526  0.7776
  355MOL0     H47877   8.537   9.470   8.308  2.9057  1.0228  2.7669
  355MOL0     H47878   8.596   9.633   8.332  0.2530 -1.0269  0.5245
  355MOL0     H47879   8.391   9.732   8.243 -0.1525 -0.6740 -3.4976
  355MOL0     H47880   8.363   9.599   8.362  3.4025  2.4756  2.4095
  355MOL0     H47881   8.315   9.596   8.075  3.1167  0.6411  0.0127
  355MOL0     H47882   8.190   9.588   8.204  0.1439  0.1747 -1.1953
  355MOL0     H47883   8.288   9.378   8.280 -0.9139  2.5017  1.0800
  355MOL0     H47884   8.399   9.374   8.139  0.1290  0.5825 -0.1543
  355MOL0     H47885   8.010   9.308   7.932 -1.9997  0.3613 -1.3772
  355MOL0     H47886   7.807   9.286   7.866  1.8928  1.5328  1.2855
  355MOL0     H47887   7.750   9.137   7.941  0.2434  0.6433 -0.9232
  355MOL0     H47888   7.660   9.286   7.964 -0.8442  0.1777 -2.1383
  355MOL0     H47889   7.435   9.261   8.315  2.2271  0.6181 -0.0230
  355MOL0     H47890   7.212   9.197   8.438  0.6484  1.5734  0.5558
  355MOL0     H47891   7.221   8.819   8.587 -2.3377 -0.4923 -1.4178
  355MOL0     H47892   7.266   8.859   8.767  1.5453  1.0635 -0.9764
  355MOL0     H47893   7.011   8.859   8.806 -1.2380 -0.7755 -1.7815
  355MOL0     H47894   6.984   8.857   8.644 -1.8738 -0.4716  0.4766
  355MOL0     H47895   7.097   8.646   8.610  2.4921 -1.1357  1.3825
  355MOL0     H47896   6.947   8.636   8.689  1.0494 -2.2610  0.3517
  355MOL0     H47897   7.183   8.642   8.868 -2.2505  3.0107 -0.9090
  355MOL0     H47898   7.032   8.556   8.889 -2.1048  2.4065 -0.2540
  355MOL0     H47899   7.246   8.492   8.673 -3.2054  2.4277 -2.2946
  355MOL0     H47900   7.081   8.418   8.682 -1.8274  3.4331 -0.9214
  355MOL0     H47901   7.321   8.382   8.858 -0.3257  0.4175  0.8338
  355MOL0     H47902   7.160   8.316   8.904  0.1316 -1.4325 -0.3980
  355MOL0     H47903   7.294   8.237   8.647  1.0881 -1.5269  0.0571
  355MOL0     H47904   7.140   8.188   8.701 -0.6082 -1.0948  1.6223
  355MOL0     H47905   7.373   8.147   8.871 -1.4312  1.8756  1.2768
  355MOL0     H47906   7.316   8.033   8.747 -1.6447 -0.5907  0.4796
  355MOL0     H47907   7.440   8.943   8.697  0.5912  0.5812 -0.2083
  355MOL0     H47908   7.659   9.031   8.583  0.1399 -2.0605  0.6309
  355MOL0     H47909   7.896   9.282   8.413  0.8887  0.2726  0.0729
  355MOL0     H47910   8.117   9.310   8.342  0.1718  0.8120  0.0176
  355MOL0     H47911   9.343   8.950   7.883  3.2506 -0.4038 -3.4987
  355MOL0     H47912   9.313   8.782   7.693  0.4611  0.0396 -0.8010
  355MOL0     H47913   9.481   8.735   7.262  3.3935 -2.5619 -2.7554
  355MOL0     H47914   9.499   8.548   7.092  1.2879 -1.3127  1.6889
  355MOL0     H47915   9.454   8.442   6.910  0.1885  1.3677  0.1530
  355MOL0     H47916   9.357   8.317   6.839 -0.1475  1.1577 -0.3283
  355MOL0     H47917   9.337   8.519   6.708  0.8668 -1.3840  0.6622
  355MOL0     H47918   9.279   8.609   6.850 -1.8712  0.7268 -1.6639
  355MOL0     H47919   9.068   8.513   6.832 -0.8646  2.0499 -0.1279
  355MOL0     H47920   9.128   8.374   6.752  1.8614 -0.7710  1.2936
  355MOL0     H47921   9.153   8.506   6.545  1.0639 -0.5923  2.1485
  355MOL0     H47922   9.127   8.663   6.631 -0.4919  0.9217  2.6514
  355MOL0     H47923   8.763   8.535   6.471  1.6228 -1.9510 -2.5120
  355MOL0     H47924   9.084   8.449   7.166  0.9601 -0.7467 -1.6229
  355MOL0     H47925   9.069   8.630   7.336  1.9109  2.2877  0.8748
  356MOL0     O47926   1.761   9.928   6.696  0.6388  0.2501 -0.8534
  356MOL0     C47927   1.858   9.951   6.627  1.0349  0.2176  0.2089
  356MOL0     O47928   1.882  10.070   6.567 -0.5348 -0.0264 -0.0012
  356MOL0     C47929   1.812  10.177   6.605  0.0328 -0.9131  0.1408
  356MOL0     C47930   1.674  10.191   6.581 -0.1199  0.5792 -0.5451
  356MOL0     C47931   1.604  10.297   6.643  0.1837  0.5501  0.5888
  356MOL0     C47932   1.673  10.395   6.717  0.8272 -0.8741 -0.4843
  356MOL0     O47933   1.600  10.482   6.787 -1.1719 -0.5040 -0.5068
  356MOL0     C47934   1.538  10.420   6.896  1.0756 -0.9444 -0.6703
  356MOL0     C47935   1.469  10.517   6.994  0.4568 -0.5685  0.0386
  356MOL0     C47936   1.380  10.444   7.095  0.5018 -0.0708 -0.1359
  356MOL0     C47937   1.343  10.538   7.211  1.0791 -0.9245 -0.8944
  356MOL0     C47938   1.256  10.492   7.328  0.4086 -0.0678 -0.1770
  356MOL0     C47939   1.138  10.399   7.291 -0.8649 -0.2989  1.1237
  356MOL0     C47940   1.052  10.343   7.403  0.0508  0.0828 -0.9047
  356MOL0     C47941   1.136  10.319   7.542 -0.9348  0.7113 -0.0964
  356MOL0     N47942   1.040  10.281   7.655  0.0311 -0.3693 -0.1636
  356MOL0     C47943   1.034  10.153   7.704 -0.4466 -0.2356 -0.3028
  356MOL0     C47944   0.954  10.167   7.817  0.5263  0.2517 -0.7051
  356MOL0     C47945   0.925  10.054   7.905 -1.3836  0.5461 -0.5013
  356MOL0     C47946   1.045  10.004   7.985  0.0975  0.2687  0.2010
  356MOL0     C47947   0.999   9.923   8.106 -0.8712 -0.2009  0.0869
  356MOL0     C47948   1.113   9.855   8.180  0.6855  0.0781  0.3703
  356MOL0     O47949   1.215   9.953   8.219 -0.8188 -0.5186  0.1205
  356MOL0     C47950   1.338   9.898   8.178 -0.6354  0.5506  0.5776
  356MOL0     C47951   1.415   9.820   8.271  0.9226 -0.0782 -0.7168
  356MOL0     C47952   1.530   9.760   8.238  0.2399 -0.3700 -0.4808
  356MOL0     C47953   1.602   9.699   8.350  0.6025 -0.2526  0.5529
  356MOL0     C47954   1.580   9.769   8.107 -0.9553 -0.5682 -0.6986
  356MOL0     C47955   1.706   9.708   8.061 -0.4576 -0.0687 -1.5642
  356MOL0     O47956   1.774   9.779   7.964  0.8747  0.5667 -0.3034
  356MOL0     C47957   1.904   9.748   7.937  0.0153 -0.6323  1.7216
  356MOL0     C47958   1.944   9.621   7.902  1.1022 -0.0060  0.1199
  356MOL0     C47959   2.074   9.599   7.866  0.2225  0.5088 -0.5140
  356MOL0     C47960   2.167   9.701   7.864  0.3129  0.9427 -0.0772
  356MOL0     O47961   2.302   9.665   7.847  0.1914 -0.5171  0.0676
  356MOL0     C47962   2.398   9.765   7.893 -0.5435  0.1059 -1.4099
  356MOL0     C47963   2.546   9.713   7.874  0.8404  0.0370  0.4539
  356MOL0     C47964   2.592   9.721   7.734 -0.2295  0.6220  0.1335
  356MOL0     C47965   2.726   9.641   7.715  0.3383  0.6470 -0.1281
  356MOL0     C47966   2.751   9.630   7.556  0.7694  0.7060  0.3748
  356MOL0     C47967   2.657   9.525   7.482  0.7375  0.0598 -0.1960
  356MOL0     C47968   2.650   9.536   7.330  0.9444 -0.0054  0.2531
  356MOL0     C47969   2.674   9.401   7.250 -0.0753  0.2401 -0.9354
  356MOL0    Cl47970   2.840   9.336   7.303 -0.0030 -0.1805  0.0149
  356MOL0     C47971   2.126   9.828   7.895 -0.8831 -0.7998  0.2964
  356MOL0     C47972   1.991   9.855   7.932  0.4469  0.8619 -1.1029
  356MOL0     O47973   1.740   9.603   8.120 -0.0335  0.6639  0.1265
  356MOL0     C47974   1.517   9.857   8.019  0.2834 -0.5319 -0.6103
  356MOL0     C47975   1.397   9.919   8.054 -0.5615  0.2263  0.1918
  356MOL0     N47976   0.905  10.300   7.831 -0.2425  0.0764 -0.6309
  356MOL0     N47977   0.954  10.360   7.726 -0.1513 -0.7104  0.1958
  356MOL0     C47978   1.803  10.389   6.728  0.1096 -0.3010 -0.1396
  356MOL0     C47979   1.878  10.281   6.671  0.0378  0.8554 -0.5096
  356MOL0     C47980   1.954   9.840   6.593  0.5408  0.0037 -0.4895
  356MOL0     C47981   1.973   9.733   6.678 -0.5006  0.2071 -0.3709
  356MOL0     C47982   2.064   9.629   6.657 -0.0698 -0.1896 -0.1884
  356MOL0     C47983   2.141   9.631   6.546 -0.0337 -0.2995  0.5539
  356MOL0     O47984   2.242   9.541   6.536 -0.9987  0.3299  0.8402
  356MOL0     C47985   2.190   9.407   6.527 -0.8540  1.3096  1.1674
  356MOL0     C47986   2.290   9.298   6.562  0.4665 -0.6319  0.3317
  356MOL0     C47987   2.419   9.315   6.482 -0.3212  0.3785  0.1834
  356MOL0     C47988   2.543   9.353   6.561 -0.2406 -0.5989  0.1221
  356MOL0     C47989   2.581   9.255   6.661  0.9744 -0.2779 -0.1077
  356MOL0     C47990   2.621   9.175   6.743 -0.2467 -0.1748 -0.3203
  356MOL0     C47991   2.126   9.734   6.454  0.4265  0.0058  0.5861
  356MOL0     C47992   2.036   9.844   6.480 -0.4493  0.3799 -0.2195
  356MOL0     H47993   1.618  10.121   6.520  1.8639  0.6940 -2.6498
  356MOL0     H47994   1.497  10.289   6.631  0.4417  0.7852 -3.3883
  356MOL0     H47995   1.459  10.350   6.870 -0.7404  0.0503  1.7843
  356MOL0     H47996   1.609  10.358   6.952  2.6104 -1.7083 -3.2863
  356MOL0     H47997   1.547  10.583   7.033 -0.2155  0.8554 -0.9643
  356MOL0     H47998   1.396  10.576   6.939 -1.8273 -0.1731  3.1990
  356MOL0     H47999   1.293  10.415   7.035 -0.3742  2.2850 -0.0882
  356MOL0     H48000   1.423  10.350   7.132  0.6468 -0.3223 -0.9251
  356MOL0     H48001   1.439  10.577   7.248 -0.1482  0.2700  1.1755
  356MOL0     H48002   1.301  10.631   7.170 -0.0848 -1.1694 -0.2781
  356MOL0     H48003   1.320  10.432   7.394 -3.3152 -4.6615 -0.2357
  356MOL0     H48004   1.218  10.585   7.372 -1.6274 -2.3078  3.2644
  356MOL0     H48005   1.083  10.456   7.216  0.9538  0.0623  0.0017
  356MOL0     H48006   1.180  10.313   7.237  0.3390  0.0440  1.4753
  356MOL0     H48007   0.970  10.414   7.419 -0.2965 -0.5204  0.0289
  356MOL0     H48008   1.011  10.248   7.366 -1.6442  0.7822 -0.9446
  356MOL0     H48009   1.189  10.412   7.567 -2.8702  2.7235 -2.8107
  356MOL0     H48010   1.219  10.250   7.526  0.5600  2.2326  0.7094
  356MOL0     H48011   1.087  10.067   7.664  0.8163  0.9530 -1.3005
  356MOL0     H48012   0.856  10.090   7.982  0.0450 -0.2916  1.2564
  356MOL0     H48013   0.886   9.975   7.841  0.6628 -0.4370 -0.6222
  356MOL0     H48014   1.102  10.086   8.028 -0.8755  0.8660  0.3872
  356MOL0     H48015   1.098   9.936   7.918 -1.5768  0.4264 -1.3766
  356MOL0     H48016   0.933   9.843   8.072 -1.9483  1.1741 -1.2283
  356MOL0     H48017   0.937   9.976   8.179 -1.8767 -0.3915 -0.6132
  356MOL0     H48018   1.148   9.791   8.098  2.3743  2.4570 -0.8951
  356MOL0     H48019   1.076   9.792   8.261  1.8712  0.6970  1.4178
  356MOL0     H48020   1.372   9.813   8.370  0.3618 -3.2185 -1.0729
  356MOL0     H48021   1.559   9.603   8.378 -2.2362  0.6153 -0.4928
  356MOL0     H48022   1.707   9.703   8.318 -0.0054  1.8647 -1.5401
  356MOL0     H48023   1.576   9.771   8.428 -0.0523  1.8877 -1.5089
  356MOL0     H48024   1.873   9.540   7.910 -2.7118  3.0666  0.6503
  356MOL0     H48025   2.104   9.496   7.851  0.3784  0.1642  1.8010
  356MOL0     H48026   2.401   9.857   7.833  1.9251  0.2541 -1.1728
  356MOL0     H48027   2.371   9.798   7.993  0.5892  0.2949 -1.1587
  356MOL0     H48028   2.614   9.778   7.930  2.3571 -0.8527 -0.2995
  356MOL0     H48029   2.546   9.608   7.903 -5.0010  0.0127  1.5377
  356MOL0     H48030   2.588   9.818   7.684 -0.0219  0.7155  0.2952
  356MOL0     H48031   2.517   9.663   7.680 -0.2807 -0.2809  1.1399
  356MOL0     H48032   2.805   9.697   7.764  1.8722 -2.0832  0.7535
  356MOL0     H48033   2.724   9.542   7.763  0.7522  0.3893 -0.6370
  356MOL0     H48034   2.855   9.610   7.530  0.0739 -1.7001 -0.7875
  356MOL0     H48035   2.722   9.730   7.521 -0.1142  0.0179 -0.9489
  356MOL0     H48036   2.696   9.424   7.495 -0.4639 -0.5208 -0.8855
  356MOL0     H48037   2.560   9.538   7.530  0.3316  2.3962 -1.5420
  356MOL0     H48038   2.733   9.606   7.313 -0.4547  2.2389  2.0251
  356MOL0     H48039   2.554   9.576   7.295 -0.0174 -1.9778  0.4749
  356MOL0     H48040   2.668   9.399   7.140 -1.1792  0.9026 -0.9090
  356MOL0     H48041   2.600   9.326   7.278 -0.7006  0.6210 -1.5207
  356MOL0     H48042   2.186   9.918   7.903 -0.7470 -0.7485 -1.0737
  356MOL0     H48043   1.965   9.956   7.962  0.6140  0.1927  1.6091
  356MOL0     H48044   1.545   9.888   7.919  1.7200  1.8598  0.4271
  356MOL0     H48045   1.337   9.976   7.984  0.2423  3.3696  1.8716
  356MOL0     H48046   1.845  10.460   6.798 -1.6702  0.0054  0.6792
  356MOL0     H48047   1.987  10.281   6.678 -0.0050 -0.7671  1.1903
  356MOL0     H48048   1.928   9.724   6.776  1.2456  0.8007  0.5193
  356MOL0     H48049   2.062   9.543   6.724 -1.8895 -0.4258 -0.4857
  356MOL0     H48050   2.107   9.381   6.593  0.7834  1.4306  3.3921
  356MOL0     H48051   2.156   9.383   6.426  0.2769 -1.8425  1.4372
  356MOL0     H48052   2.231   9.210   6.535 -1.5340  0.2805  1.5736
  356MOL0     H48053   2.314   9.300   6.668 -1.6305  1.5067  0.8408
  356MOL0     H48054   2.401   9.359   6.384 -3.7070 -1.8051 -0.3147
  356MOL0     H48055   2.444   9.213   6.454  1.3271  0.2913  1.7730
  356MOL0     H48056   2.530   9.452   6.607  0.5050 -0.3090 -0.2834
  356MOL0     H48057   2.626   9.368   6.492  0.4092 -0.4295  0.9235
  356MOL0     H48058   2.660   9.105   6.815  0.9098  0.6110 -0.1685
  356MOL0     H48059   2.176   9.738   6.358 -1.9995  0.2976 -0.7769
  356MOL0     H48060   2.026   9.935   6.422  1.9452  1.2263  0.5781
  357MOL0     O48061   1.103   4.616   2.603  0.5785 -0.3954 -0.0976
  357MOL0     C48062   1.031   4.633   2.498  0.3100  0.3316 -0.2845
  357MOL0     O48063   1.063   4.585   2.379  0.0509 -0.4376  0.3084
  357MOL0     C48064   1.186   4.522   2.357 -0.0222 -0.3535 -0.7137
  357MOL0     C48065   1.192   4.386   2.384  0.3470 -0.1033 -0.2512
  357MOL0     C48066   1.318   4.327   2.385  0.5420 -0.8973 -0.7965
  357MOL0     C48067   1.434   4.393   2.365 -0.1530 -0.0838 -0.5043
  357MOL0     O48068   1.554   4.334   2.356 -0.1895 -0.5984  0.2118
  357MOL0     C48069   1.653   4.391   2.264 -0.3364  1.2703  0.3530
  357MOL0     C48070   1.723   4.266   2.202 -0.4574  0.2282 -0.1875
  357MOL0     C48071   1.796   4.185   2.308 -0.4919  0.0178  0.2248
  357MOL0     C48072   1.862   4.060   2.241 -0.8432 -0.4203 -0.1803
  357MOL0     C48073   1.954   3.996   2.352  0.1216  0.1973  0.7684
  357MOL0     C48074   1.874   3.900   2.434  0.1364 -0.5516 -0.3711
  357MOL0     C48075   1.953   3.871   2.563 -0.1758  0.9477  0.2091
  357MOL0     C48076   1.964   3.974   2.670 -1.0207  0.5039  0.0605
  357MOL0     N48077   1.826   3.995   2.723 -0.1163 -0.1926 -0.4916
  357MOL0     C48078   1.753   4.105   2.696  0.3003  0.1434  0.3690
  357MOL0     C48079   1.639   4.090   2.769  0.3853  0.4915  1.1166
  357MOL0     C48080   1.511   4.172   2.753 -0.2242 -0.5083 -1.1478
  357MOL0     C48081   1.536   4.331   2.781 -0.6144 -0.6667  0.1570
  357MOL0     C48082   1.407   4.421   2.753  0.1550  0.4028 -0.1054
  357MOL0     C48083   1.410   4.579   2.774 -0.4522 -0.0466  0.4984
  357MOL0     O48084   1.412   4.629   2.907 -0.0739  0.3756 -0.5897
  357MOL0     C48085   1.297   4.631   2.987  0.0871 -0.2260 -0.0042
  357MOL0     C48086   1.306   4.710   3.107  0.3999  0.3761  0.4888
  357MOL0     C48087   1.198   4.715   3.201  0.5571  0.1734  0.0929
  357MOL0     C48088   1.226   4.793   3.329  0.5901  0.6594  0.7970
  357MOL0     C48089   1.073   4.652   3.167 -0.8842 -0.3306  0.1430
  357MOL0     C48090   0.959   4.642   3.257 -0.7119 -0.6094  0.6558
  357MOL0     O48091   0.857   4.562   3.220 -0.1689 -0.3294  0.3509
  357MOL0     C48092   0.729   4.552   3.272 -0.5094 -0.1562  0.0093
  357MOL0     C48093   0.629   4.494   3.192 -0.3657  0.1698 -1.4286
  357MOL0     C48094   0.504   4.462   3.252 -0.5204 -0.7855  0.4667
  357MOL0     C48095   0.480   4.490   3.388  0.0990  1.3379  0.5885
  357MOL0     O48096   0.357   4.469   3.453 -0.4278  0.9302  0.8829
  357MOL0     C48097   0.243   4.479   3.361 -0.0521 -0.6649  0.3072
  357MOL0     C48098   0.121   4.517   3.449  0.7664 -0.1491  1.0178
  357MOL0     C48099  -0.012   4.545   3.369  0.8472 -0.0516  1.3692
  357MOL0     C48100  -0.150   4.561   3.443  0.6239  0.2402 -0.3941
  357MOL0     C48101  -0.198   4.706   3.440  0.8648 -0.1228 -0.3663
  357MOL0     C48102  -0.132   4.782   3.553 -0.1440  0.7894 -0.0856
  357MOL0     C48103  -0.133   4.938   3.524  0.8900 -1.3421 -0.2491
  357MOL0     C48104  -0.066   4.988   3.399 -0.6817  1.0494 -0.3597
  357MOL0    Cl48105   0.102   4.915   3.396 -0.2565 -0.0526  0.1906
  357MOL0     C48106   0.586   4.546   3.467  0.3900  0.5416 -0.4425
  357MOL0     C48107   0.710   4.567   3.407  0.3963 -0.0480  0.2689
  357MOL0     O48108   0.967   4.712   3.358  0.9150  0.2222 -0.2840
  357MOL0     C48109   1.073   4.572   3.046 -0.2446  0.2415  0.4955
  357MOL0     C48110   1.177   4.563   2.956 -0.6458 -0.4452  0.5558
  357MOL0     N48111   1.631   3.964   2.831  0.3427  0.0056  0.7895
  357MOL0     N48112   1.746   3.915   2.803 -0.6680  0.2323 -0.4901
  357MOL0     C48113   1.423   4.532   2.339  0.6532  0.4374 -0.0169
  357MOL0     C48114   1.300   4.596   2.335  1.2210 -0.2813 -0.0696
  357MOL0     C48115   0.911   4.718   2.506 -1.1992  0.2119 -0.4516
  357MOL0     C48116   0.850   4.766   2.392 -0.2847  0.2049  0.3765
  357MOL0     C48117   0.738   4.838   2.399  0.4080  0.1842  0.8800
  357MOL0     C48118   0.688   4.880   2.518  0.4194 -0.0786 -0.2426
  357MOL0     O48119   0.587   4.974   2.530 -1.0536  0.0738 -0.7007
  357MOL0     C48120   0.521   5.013   2.412 -0.2070 -0.3529  0.2744
  357MOL0     C48121   0.400   5.102   2.429 -0.7387  0.2860 -0.3658
  357MOL0     C48122   0.310   5.102   2.301  0.2302  0.2410  0.1897
  357MOL0     C48123   0.214   5.225   2.294  0.7599  0.3416 -0.2092
  357MOL0     C48124   0.276   5.358   2.264  0.1330 -0.3304 -0.1539
  357MOL0     C48125   0.306   5.473   2.250  0.5843  0.1366  0.4837
  357MOL0     C48126   0.745   4.842   2.634  0.6794  0.9304  0.2534
  357MOL0     C48127   0.860   4.755   2.628  0.6097 -1.2221  0.3090
  357MOL0     H48128   1.106   4.332   2.421 -0.2769 -0.3874 -2.0286
  357MOL0     H48129   1.322   4.224   2.419 -1.7711  0.1540  3.2867
  357MOL0     H48130   1.593   4.433   2.183 -4.5427 -4.1915  0.0904
  357MOL0     H48131   1.725   4.459   2.312  2.4373 -2.7041  2.4757
  357MOL0     H48132   1.655   4.199   2.149 -0.9134  0.9358 -0.5200
  357MOL0     H48133   1.788   4.304   2.122  2.0186 -0.7637  1.2592
  357MOL0     H48134   1.872   4.246   2.357  2.2696 -1.4061 -2.0372
  357MOL0     H48135   1.728   4.146   2.385  0.0431 -1.2902  0.0608
  357MOL0     H48136   1.793   3.980   2.213  1.0858 -2.5229  0.7059
  357MOL0     H48137   1.925   4.091   2.156  0.7217  2.0991  1.7676
  357MOL0     H48138   2.024   3.933   2.295 -1.0762 -0.4256 -0.0576
  357MOL0     H48139   2.012   4.064   2.415 -0.3692  2.1912 -0.8417
  357MOL0     H48140   1.780   3.947   2.466 -1.0301 -3.2554  0.4852
  357MOL0     H48141   1.855   3.811   2.374 -1.8799 -1.7184  1.8032
  357MOL0     H48142   1.914   3.781   2.612 -1.5019 -0.3127 -2.8451
  357MOL0     H48143   2.054   3.834   2.545  0.4879  1.8964  1.8105
  357MOL0     H48144   2.012   4.061   2.625 -0.7058 -0.0452 -0.6811
  357MOL0     H48145   2.023   3.932   2.753 -1.1558  1.0842  0.4588
  357MOL0     H48146   1.783   4.173   2.618  1.0950  0.0584  0.5930
  357MOL0     H48147   1.459   4.135   2.664  0.0815 -1.5699 -0.9013
  357MOL0     H48148   1.451   4.135   2.837 -0.1890 -1.3719 -1.4848
  357MOL0     H48149   1.613   4.364   2.711  0.6842 -0.2253  1.7312
  357MOL0     H48150   1.572   4.352   2.882  0.8933 -1.2467 -0.2315
  357MOL0     H48151   1.329   4.372   2.813  0.3499  0.5230  0.2504
  357MOL0     H48152   1.387   4.404   2.647 -0.2869 -3.4802  0.4687
  357MOL0     H48153   1.323   4.625   2.728 -0.7958  0.5180  1.6621
  357MOL0     H48154   1.500   4.611   2.722 -0.9811  1.5555  0.5275
  357MOL0     H48155   1.390   4.766   3.146 -0.2660 -0.6173  3.6257
  357MOL0     H48156   1.206   4.898   3.306  2.8373  0.4235 -3.0862
  357MOL0     H48157   1.173   4.752   3.415  0.7001 -2.6895 -0.5728
  357MOL0     H48158   1.331   4.779   3.357  0.8017 -0.3807 -0.4350
  357MOL0     H48159   0.652   4.471   3.089 -1.7454 -0.6769 -1.5657
  357MOL0     H48160   0.428   4.420   3.186  0.5779  0.9145 -1.9921
  357MOL0     H48161   0.259   4.561   3.291  0.7933 -0.6073  0.5649
  357MOL0     H48162   0.229   4.384   3.309  0.7037  0.2337 -1.6216
  357MOL0     H48163   0.097   4.447   3.529  3.2889 -0.0731  1.9145
  357MOL0     H48164   0.132   4.611   3.504  1.9445  0.4967 -0.2440
  357MOL0     H48165  -0.027   4.459   3.303 -0.6748  0.7967  0.5472
  357MOL0     H48166  -0.008   4.629   3.299  0.1390 -0.5733  0.6757
  357MOL0     H48167  -0.232   4.499   3.405 -0.9629  0.6127  2.2518
  357MOL0     H48168  -0.144   4.510   3.539 -0.7005  2.8593  1.1768
  357MOL0     H48169  -0.306   4.703   3.456  1.2765 -1.2786  3.1474
  357MOL0     H48170  -0.177   4.757   3.345  0.9215 -0.9006 -0.7807
  357MOL0     H48171  -0.174   4.767   3.652  0.2402  0.4119  0.0225
  357MOL0     H48172  -0.028   4.754   3.571 -0.0324  0.9074 -0.5253
  357MOL0     H48173  -0.090   4.991   3.609 -1.2069 -0.4419  0.3150
  357MOL0     H48174  -0.238   4.967   3.512  0.4130 -2.7622  0.3299
  357MOL0     H48175  -0.067   5.097   3.404  5.6414  1.5461 -1.8345
  357MOL0     H48176  -0.112   4.958   3.304 -0.6376  1.0656 -0.3860
  357MOL0     H48177   0.561   4.575   3.569  1.2839 -0.7721  0.1752
  357MOL0     H48178   0.783   4.591   3.484 -2.7659  0.4885  3.3827
  357MOL0     H48179   0.983   4.517   3.020  0.0476  0.2973 -0.6857
  357MOL0     H48180   1.153   4.523   2.857  2.0282  1.6276 -1.0849
  357MOL0     H48181   1.513   4.590   2.320  0.9090 -0.1347 -0.6032
  357MOL0     H48182   1.293   4.699   2.304  1.8343 -1.0553 -3.0809
  357MOL0     H48183   0.885   4.746   2.291 -4.0283  1.8062 -1.4422
  357MOL0     H48184   0.690   4.864   2.305  0.6087  0.3742  0.8311
  357MOL0     H48185   0.589   5.059   2.339  1.0951 -2.2794  0.1927
  357MOL0     H48186   0.494   4.916   2.370  2.1699 -0.4406 -1.2667
  357MOL0     H48187   0.432   5.206   2.446 -0.8045  0.1653  0.5451
  357MOL0     H48188   0.341   5.069   2.515 -0.2909 -1.2395 -0.6211
  357MOL0     H48189   0.251   5.011   2.290  0.6951  0.2351 -3.2202
  357MOL0     H48190   0.372   5.090   2.211  0.2737  0.0285  0.2448
  357MOL0     H48191   0.163   5.223   2.390 -0.3089  0.7504 -0.7520
  357MOL0     H48192   0.142   5.194   2.217 -0.7458 -0.2760  1.4024
  357MOL0     H48193   0.333   5.576   2.237 -2.0810  0.9961  1.1250
  357MOL0     H48194   0.718   4.890   2.728 -2.7767 -0.5255  0.1602
  357MOL0     H48195   0.900   4.725   2.724  0.9971 -0.4739  0.3912
  358MOL0     O48196   8.353  10.723   9.946  0.1620 -0.3527  0.5488
  358MOL0     C48197   8.426  10.632   9.991 -0.3708 -0.1925  0.6208
  358MOL0     O48198   8.391  10.501   9.980 -0.9484  0.5344  0.1088
  358MOL0     C48199   8.263  10.472   9.945  0.3608 -0.1298 -0.0905
  358MOL0     C48200   8.141  10.542   9.971  0.1650 -0.6175 -1.2125
  358MOL0     C48201   8.019  10.494   9.939 -0.1101  0.1306 -0.4837
  358MOL0     C48202   8.008  10.371   9.879 -0.5721  0.1080 -0.2270
  358MOL0     O48203   7.882  10.330   9.843  0.0137  0.5705 -0.6989
  358MOL0     C48204   7.835  10.196   9.832 -0.6470  1.0254  1.0246
  358MOL0     C48205   7.854  10.105   9.956  1.1681 -0.2976  0.3236
  358MOL0     C48206   7.767   9.974   9.943  0.8254 -0.4101 -0.2889
  358MOL0     C48207   7.734   9.912  10.082  0.8328  0.5163 -0.0179
  358MOL0     C48208   7.858   9.836  10.142 -0.1508  0.2795 -0.2323
  358MOL0     C48209   7.860   9.801  10.300  0.4920 -0.4120 -1.0428
  358MOL0     C48210   7.978   9.704  10.341 -0.2508  0.5521 -0.3025
  358MOL0     C48211   7.983   9.571  10.266 -0.2892  0.3827 -0.0178
  358MOL0     N48212   8.050   9.466  10.341 -0.3995  0.4205  0.4425
  358MOL0     C48213   8.187   9.468  10.376 -0.5467  0.9735 -0.6461
  358MOL0     C48214   8.210   9.335  10.407  0.1425  1.2152  0.9082
  358MOL0     C48215   8.331   9.262  10.456 -0.1723  0.1888  0.5812
  358MOL0     C48216   8.378   9.152  10.353 -0.4773 -0.8395  0.4776
  358MOL0     C48217   8.410   9.208  10.213 -0.0630 -0.3500  0.3252
  358MOL0     C48218   8.483   9.103  10.124  0.2818 -0.5087  0.8471
  358MOL0     O48219   8.519   9.137   9.992 -0.6841  0.0203 -0.3443
  358MOL0     C48220   8.609   9.238   9.966  0.1331  0.7783 -0.2923
  358MOL0     C48221   8.705   9.284  10.054  0.2333  0.3610  0.0850
  358MOL0     C48222   8.800   9.380  10.025 -0.5003 -0.1301  0.1721
  358MOL0     C48223   8.893   9.415  10.131 -0.3643  0.3944  0.0790
  358MOL0     C48224   8.808   9.438   9.897 -0.1423 -0.1962  0.0142
  358MOL0     C48225   8.915   9.530   9.848  0.4315  0.4930  0.2754
  358MOL0     O48226   8.860   9.633   9.778  0.4425 -0.6952  0.9745
  358MOL0     C48227   8.947   9.730   9.737  0.6067  0.6175 -0.2970
  358MOL0     C48228   8.993   9.731   9.601  0.1615  0.8891 -0.0461
  358MOL0     C48229   9.065   9.838   9.546  0.4401  0.0247 -0.0423
  358MOL0     C48230   9.086   9.949   9.633 -0.8769  0.3129 -0.7651
  358MOL0     O48231   9.164  10.048   9.593 -0.1722 -0.3135  0.3043
  358MOL0     C48232   9.098  10.174   9.594 -0.8926 -0.5092  0.1327
  358MOL0     C48233   9.206  10.279   9.551  0.1899  0.9143 -0.3140
  358MOL0     C48234   9.329  10.305   9.648 -0.5144  0.7153  0.0238
  358MOL0     C48235   9.435  10.370   9.563 -0.8344  0.3449 -0.3572
  358MOL0     C48236   9.578  10.367   9.620  0.5937 -0.4265  0.0880
  358MOL0     C48237   9.595  10.456   9.741 -0.8950  0.0683  0.5385
  358MOL0     C48238   9.737  10.424   9.808  0.9092  0.4897 -0.2958
  358MOL0     C48239   9.849  10.481   9.729  0.2962 -0.2281 -0.4547
  358MOL0    Cl48240   9.998  10.472   9.832 -0.2157  0.2428 -0.3549
  358MOL0     C48241   9.046   9.930   9.775 -1.0775 -0.6309  0.4885
  358MOL0     C48242   8.966   9.829   9.818 -0.4055  0.2119 -0.2718
  358MOL0     O48243   9.033   9.520   9.875  0.4098 -0.1617 -1.0388
  358MOL0     C48244   8.712   9.393   9.809 -0.1411  0.5190 -0.5457
  358MOL0     C48245   8.616   9.297   9.840 -0.1524  0.5011 -0.4987
  358MOL0     N48246   8.082   9.275  10.408  0.4386  0.2794  0.3200
  358MOL0     N48247   7.985   9.349  10.378  0.9648 -0.1252 -0.2714
  358MOL0     C48248   8.125  10.295   9.855 -0.4884 -0.5246 -0.7698
  358MOL0     C48249   8.252  10.337   9.900  0.1880  0.0293  0.9504
  358MOL0     C48250   8.545  10.670  10.057 -0.2807  0.2107  0.2629
  358MOL0     C48251   8.642  10.579  10.087 -0.0992 -0.3771 -0.7681
  358MOL0     C48252   8.763  10.613  10.140  0.0502  0.4725 -0.7618
  358MOL0     C48253   8.803  10.746  10.158 -0.2496 -0.0901  0.1016
  358MOL0     O48254   8.929  10.785  10.197 -0.1113  0.2928  0.5692
  358MOL0     C48255   8.993  10.688  10.293  0.2459 -0.5978  1.2512
  358MOL0     C48256   9.090  10.586  10.221 -0.2813 -0.0879 -1.0218
  358MOL0     C48257   9.206  10.657  10.159 -0.0644 -0.6037  0.4298
  358MOL0     C48258   9.308  10.550  10.117 -0.4094  0.0240  0.9516
  358MOL0     C48259   9.411  10.622  10.042 -0.0865 -0.7469 -0.5552
  358MOL0     C48260   9.491  10.686   9.973 -0.3928  0.7003 -0.0843
  358MOL0     C48261   8.708  10.838  10.125  0.0290 -0.5756  0.2901
  358MOL0     C48262   8.575  10.803  10.081  0.0462 -0.6737  1.0595
  358MOL0     H48263   8.143  10.637  10.024 -5.6808 -0.8386  0.0294
  358MOL0     H48264   7.923  10.542   9.955 -1.0324 -1.9846  0.7611
  358MOL0     H48265   7.730  10.220   9.812 -0.4527  0.2639 -1.1955
  358MOL0     H48266   7.872  10.148   9.742  1.6259 -1.1802  2.9904
  358MOL0     H48267   7.960  10.083   9.961  1.1443 -0.3102  0.8445
  358MOL0     H48268   7.810  10.167  10.036 -0.7111  1.3687 -1.8497
  358MOL0     H48269   7.673   9.987   9.889  0.9755  0.9874 -0.2333
  358MOL0     H48270   7.827   9.907   9.881  0.5238 -0.2554 -0.7521
  358MOL0     H48271   7.699   9.991  10.150 -1.0746  0.4512 -0.8922
  358MOL0     H48272   7.645   9.849  10.085 -0.5689  2.4360  0.5912
  358MOL0     H48273   7.860   9.738  10.093 -0.5179 -0.8425  1.8871
  358MOL0     H48274   7.945   9.896  10.113 -0.2179  1.1743  1.2859
  358MOL0     H48275   7.875   9.896  10.352  0.6916 -0.6998 -0.5709
  358MOL0     H48276   7.762   9.758  10.324  0.3059  1.3441  1.7608
  358MOL0     H48277   8.066   9.763  10.319 -2.9088  4.2212 -2.0917
  358MOL0     H48278   7.974   9.687  10.449  4.3767  0.3953  0.0388
  358MOL0     H48279   8.025   9.586  10.166 -1.3202 -2.4879 -0.9824
  358MOL0     H48280   7.880   9.539  10.248  0.3252 -1.0299 -1.3599
  358MOL0     H48281   8.245   9.560  10.373  0.9352  0.1288  0.9348
  358MOL0     H48282   8.411   9.331  10.485  0.4799 -0.4310  0.2851
  358MOL0     H48283   8.296   9.221  10.551 -0.5340  3.0214  1.7834
  358MOL0     H48284   8.302   9.074  10.353 -1.1264 -0.3251  3.1588
  358MOL0     H48285   8.461   9.096  10.398  0.7720  1.8766  1.7912
  358MOL0     H48286   8.469   9.300  10.222 -2.6028  1.3283  0.7703
  358MOL0     H48287   8.311   9.237  10.179 -0.3580  0.1547  1.5653
  358MOL0     H48288   8.420   9.014  10.120  1.3697 -1.3422  1.4542
  358MOL0     H48289   8.574   9.073  10.178  2.9205 -0.1685 -3.0574
  358MOL0     H48290   8.713   9.246  10.155  1.1620 -1.9769 -0.7980
  358MOL0     H48291   8.952   9.504  10.109 -0.7609  0.3924 -1.0147
  358MOL0     H48292   8.825   9.439  10.214 -3.0084 -0.8153 -1.6019
  358MOL0     H48293   8.964   9.338  10.164 -3.0964 -0.9626  3.4190
  358MOL0     H48294   8.989   9.647   9.532  4.6864  0.4891 -0.0952
  358MOL0     H48295   9.096   9.822   9.444  2.1962  1.3994  0.2256
  358MOL0     H48296   9.010  10.167   9.530  0.4022 -1.4483 -1.6289
  358MOL0     H48297   9.064  10.214   9.690 -1.6870  0.0115 -0.3544
  358MOL0     H48298   9.249  10.241   9.457  1.3290 -1.3999  1.0634
  358MOL0     H48299   9.153  10.375   9.545 -4.1690 -1.3240 -1.1386
  358MOL0     H48300   9.368  10.208   9.681  1.1173 -0.1669 -3.9593
  358MOL0     H48301   9.295  10.370   9.729 -1.7618  0.7485 -0.4890
  358MOL0     H48302   9.442  10.320   9.466 -0.2233  1.8610 -1.1287
  358MOL0     H48303   9.404  10.474   9.547  1.8062  1.4514  0.9802
  358MOL0     H48304   9.658  10.399   9.553 -0.0394  0.7614 -0.1289
  358MOL0     H48305   9.597  10.265   9.655  0.3686  0.3108  2.5659
  358MOL0     H48306   9.572  10.562   9.728 -2.6092 -0.3451 -0.0326
  358MOL0     H48307   9.521  10.436   9.819 -2.2711  0.6102 -0.5796
  358MOL0     H48308   9.747  10.316   9.823 -0.7185  0.4938  1.0946
  358MOL0     H48309   9.732  10.474   9.905  0.8708 -1.7785  0.9272
  358MOL0     H48310   9.833  10.587   9.707  2.5987  0.2410 -0.1581
  358MOL0     H48311   9.861  10.428   9.634 -2.1049  0.5428 -1.2687
  358MOL0     H48312   9.083  10.005   9.845 -0.5176  0.2899 -0.7515
  358MOL0     H48313   8.947   9.835   9.925  2.4379  0.9331  0.2699
  358MOL0     H48314   8.711   9.433   9.708 -0.0450  1.5416 -0.1592
  358MOL0     H48315   8.545   9.268   9.764 -0.2426  2.8641 -1.3926
  358MOL0     H48316   8.107  10.202   9.802 -2.8003 -0.7568  0.3141
  358MOL0     H48317   8.337  10.275   9.874  0.1533 -0.2852  1.5700
  358MOL0     H48318   8.634  10.471  10.075  0.0034 -0.3823 -0.7918
  358MOL0     H48319   8.815  10.523  10.171  0.4847  1.6790  2.3718
  358MOL0     H48320   9.043  10.755  10.364 -0.0662  2.3658 -1.0993
  358MOL0     H48321   8.924  10.630  10.355 -1.0613  0.6413  1.0102
  358MOL0     H48322   9.034  10.539  10.139 -2.4239 -0.4891  0.5999
  358MOL0     H48323   9.131  10.513  10.291  2.6513  1.5172 -0.9039
  358MOL0     H48324   9.259  10.726  10.225  3.9172 -2.0562 -0.9425
  358MOL0     H48325   9.169  10.717  10.075  1.9631  0.7971  0.4628
  358MOL0     H48326   9.265  10.476  10.049 -0.5627  0.0095  1.0610
  358MOL0     H48327   9.348  10.492  10.201 -2.9055 -2.9854  0.2487
  358MOL0     H48328   9.555  10.733   9.902  2.0635 -2.6389 -0.2923
  358MOL0     H48329   8.734  10.941  10.148  0.3585  0.1581 -2.9441
  358MOL0     H48330   8.516  10.889  10.051  0.3364 -1.3008 -1.5761
  359MOL0     O48331   0.033   6.245   9.673  0.0053  0.9680 -0.4921
  359MOL0     C48332   0.098   6.285   9.579 -0.0616  0.0791  0.2955
  359MOL0     O48333   0.042   6.322   9.468  0.4784  0.1590 -0.4927
  359MOL0     C48334  -0.093   6.334   9.454 -0.2249  0.8668  0.7641
  359MOL0     C48335  -0.169   6.419   9.527 -0.5612  0.3350 -0.5266
  359MOL0     C48336  -0.301   6.427   9.491 -1.0141  0.0655  0.3441
  359MOL0     C48337  -0.361   6.355   9.386  0.2924 -0.9796  0.1384
  359MOL0     O48338  -0.493   6.355   9.356 -0.5959 -0.3211  1.1888
  359MOL0     C48339  -0.570   6.467   9.393 -0.3828  0.3314  0.3280
  359MOL0     C48340  -0.686   6.480   9.297 -1.1866  1.7041 -0.4998
  359MOL0     C48341  -0.780   6.586   9.343  0.7944 -0.1075 -0.7620
  359MOL0     C48342  -0.900   6.611   9.249 -0.1653  0.0777 -0.2038
  359MOL0     C48343  -1.026   6.649   9.327 -0.1672  0.3091 -0.5047
  359MOL0     C48344  -1.139   6.681   9.230 -1.0111  0.1226  0.0955
  359MOL0     C48345  -1.262   6.678   9.309  0.0350 -0.1137 -0.9690
  359MOL0     C48346  -1.349   6.801   9.284  0.7375 -0.2897  0.3199
  359MOL0     N48347  -1.402   6.779   9.149 -0.1736 -0.3901  0.3909
  359MOL0     C48348  -1.509   6.697   9.113  0.4384  0.9447 -0.6680
  359MOL0     C48349  -1.537   6.736   8.985  1.2052 -0.5713  0.5388
  359MOL0     C48350  -1.667   6.682   8.917 -0.4476 -0.6683 -0.2425
  359MOL0     C48351  -1.620   6.594   8.800 -0.0810  0.0864 -0.0828
  359MOL0     C48352  -1.731   6.528   8.717  0.0435 -1.4752  0.0535
  359MOL0     C48353  -1.669   6.458   8.604  1.0174  0.3348 -0.6675
  359MOL0     O48354  -1.711   6.523   8.486 -0.1735  0.3764 -0.0732
  359MOL0     C48355  -1.844   6.525   8.455 -0.3307 -0.4999  0.6743
  359MOL0     C48356  -1.936   6.429   8.508  0.1402  0.2968 -0.2198
  359MOL0     C48357  -2.069   6.428   8.466  0.5184  0.8996  0.8176
  359MOL0     C48358  -2.170   6.332   8.537  0.1065  1.3432 -0.4764
  359MOL0     C48359  -2.123   6.526   8.377  0.2331 -0.9561 -0.0323
  359MOL0     C48360  -2.263   6.528   8.334  0.2791  0.8485  0.3876
  359MOL0     O48361  -2.314   6.652   8.293 -0.5006  0.2396  0.6044
  359MOL0     C48362  -2.448   6.681   8.266 -0.0172 -0.0153  0.6171
  359MOL0     C48363  -2.465   6.786   8.183 -0.7673  0.0566 -0.1811
  359MOL0     C48364  -2.592   6.826   8.120 -0.8456 -0.1674 -0.7763
  359MOL0     C48365  -2.705   6.753   8.164  0.5086  0.2295  0.4906
  359MOL0     O48366  -2.841   6.768   8.121 -0.4745  0.3691  0.2584
  359MOL0     C48367  -2.871   6.888   8.049  0.3594  0.1786 -0.5408
  359MOL0     C48368  -3.010   6.925   8.056  1.1075 -1.0290  0.1490
  359MOL0     C48369  -3.064   6.939   8.206 -0.4031 -0.5743  0.9348
  359MOL0     C48370  -3.208   7.002   8.208  0.0392  0.9309  0.0626
  359MOL0     C48371  -3.259   7.036   8.354  0.0422  0.0093  0.3593
  359MOL0     C48372  -3.216   7.171   8.420 -0.0478  0.5586  0.1077
  359MOL0     C48373  -3.265   7.184   8.559  0.0355 -0.1659 -0.0050
  359MOL0     C48374  -3.415   7.169   8.594 -0.3360  0.6788 -0.9719
  359MOL0    Cl48375  -3.449   7.223   8.757  0.0760 -0.1707  0.1805
  359MOL0     C48376  -2.687   6.648   8.252  0.1363 -0.1867  0.4501
  359MOL0     C48377  -2.560   6.606   8.298  0.2163 -0.3350  0.5613
  359MOL0     O48378  -2.313   6.417   8.315 -0.2557 -0.2718  0.3063
  359MOL0     C48379  -2.033   6.634   8.346 -0.7420  0.0568  0.6796
  359MOL0     C48380  -1.893   6.614   8.367  0.6889  0.0183 -0.9620
  359MOL0     N48381  -1.446   6.831   8.941  0.6121 -0.1477 -0.8720
  359MOL0     N48382  -1.365   6.852   9.043 -0.2157  0.2782  0.1081
  359MOL0     C48383  -0.284   6.270   9.307 -0.4549 -0.2412 -0.1985
  359MOL0     C48384  -0.152   6.261   9.343  0.1181  0.9068 -0.1798
  359MOL0     C48385   0.251   6.304   9.585  0.6768 -0.1008  0.0515
  359MOL0     C48386   0.324   6.308   9.457 -0.6303 -1.0091 -0.2365
  359MOL0     C48387   0.458   6.347   9.458 -0.6909  0.3042  0.1287
  359MOL0     C48388   0.519   6.363   9.582 -0.5755 -0.4282  0.1317
  359MOL0     O48389   0.653   6.382   9.601  0.0640  0.5002 -0.7129
  359MOL0     C48390   0.728   6.346   9.488  0.1173 -0.3336 -0.1537
  359MOL0     C48391   0.880   6.354   9.506  1.1968  0.2193 -0.4608
  359MOL0     C48392   0.922   6.496   9.522 -0.5819 -0.2127  0.4329
  359MOL0     C48393   1.043   6.502   9.617  0.1339  1.1385  0.6012
  359MOL0     C48394   1.089   6.642   9.632 -0.0244  0.0389  0.3440
  359MOL0     C48395   1.118   6.760   9.645  0.0831  0.7349  0.7578
  359MOL0     C48396   0.444   6.366   9.699 -0.1925 -0.2312 -0.0674
  359MOL0     C48397   0.309   6.334   9.709 -0.3553  0.0231 -0.6753
  359MOL0     H48398  -0.127   6.494   9.594 -1.0882 -0.6208  0.9322
  359MOL0     H48399  -0.362   6.478   9.565  2.6357  0.9072  3.0536
  359MOL0     H48400  -0.593   6.476   9.500 -0.7274  0.1247  0.2727
  359MOL0     H48401  -0.510   6.556   9.372  1.0435 -1.0378 -1.7620
  359MOL0     H48402  -0.638   6.503   9.201  1.6861  1.4173  0.7762
  359MOL0     H48403  -0.736   6.384   9.286 -0.3484  1.1329  0.5365
  359MOL0     H48404  -0.822   6.546   9.436  1.0876 -0.1450 -0.6455
  359MOL0     H48405  -0.735   6.684   9.357 -2.2833  1.3359 -0.0800
  359MOL0     H48406  -0.888   6.693   9.178  1.2364  1.4710  1.5404
  359MOL0     H48407  -0.927   6.517   9.200 -0.7576  0.8282 -1.3640
  359MOL0     H48408  -1.056   6.574   9.401 -1.3379  0.7496 -0.5102
  359MOL0     H48409  -1.004   6.742   9.381  0.1201  0.4612 -0.8748
  359MOL0     H48410  -1.114   6.776   9.182  1.1168 -0.3863  0.0996
  359MOL0     H48411  -1.153   6.600   9.158  1.1075 -0.0347 -0.2130
  359MOL0     H48412  -1.319   6.587   9.289 -0.2554 -0.2664  0.4254
  359MOL0     H48413  -1.247   6.668   9.417  0.6245 -1.6977 -1.1694
  359MOL0     H48414  -1.288   6.892   9.286 -0.1639  0.4221 -1.9661
  359MOL0     H48415  -1.429   6.810   9.358  1.4305  2.5943  0.8648
  359MOL0     H48416  -1.548   6.625   9.184  2.8223  0.9648  0.7616
  359MOL0     H48417  -1.720   6.612   8.983  1.5784 -0.2102  2.0384
  359MOL0     H48418  -1.731   6.760   8.875 -2.0941 -2.1885 -0.6755
  359MOL0     H48419  -1.556   6.519   8.849  1.0069  1.8410  1.3072
  359MOL0     H48420  -1.572   6.654   8.722  0.8607 -2.6469 -1.7377
  359MOL0     H48421  -1.795   6.609   8.679  1.5764  2.1105  4.2286
  359MOL0     H48422  -1.785   6.448   8.769 -4.2121 -0.4786 -2.3358
  359MOL0     H48423  -1.700   6.353   8.612  1.4874  0.3228  1.2232
  359MOL0     H48424  -1.561   6.467   8.611  0.8275  1.3057  2.0237
  359MOL0     H48425  -1.901   6.360   8.585 -0.3755  1.8983  1.5268
  359MOL0     H48426  -2.264   6.374   8.573  0.0862 -0.2135  1.4518
  359MOL0     H48427  -2.198   6.252   8.468 -0.5110 -0.1398  1.4310
  359MOL0     H48428  -2.123   6.270   8.614 -1.4162 -2.2950 -2.2366
  359MOL0     H48429  -2.372   6.840   8.174  0.2353 -1.2702  1.5994
  359MOL0     H48430  -2.597   6.913   8.055 -3.8390 -0.2482 -0.8090
  359MOL0     H48431  -2.819   6.974   8.090 -0.9371  0.4688  0.5615
  359MOL0     H48432  -2.845   6.869   7.944  0.9352  1.6316 -0.6750
  359MOL0     H48433  -3.019   7.023   8.008  0.9260 -1.7262 -1.2993
  359MOL0     H48434  -3.076   6.862   7.996  1.5425  0.3694 -1.8978
  359MOL0     H48435  -3.007   7.014   8.262 -0.6966 -1.3710  2.3557
  359MOL0     H48436  -3.056   6.844   8.259 -0.8321  1.1988  4.4934
  359MOL0     H48437  -3.220   7.092   8.147  1.6377  0.5936 -0.8058
  359MOL0     H48438  -3.270   6.924   8.164  2.8308 -0.6613 -1.3203
  359MOL0     H48439  -3.239   6.947   8.414 -0.8429 -1.5554 -1.5323
  359MOL0     H48440  -3.368   7.037   8.344  0.1926 -1.4173 -2.3789
  359MOL0     H48441  -3.107   7.173   8.408 -0.0961 -0.8646 -0.8100
  359MOL0     H48442  -3.260   7.254   8.363 -2.3839  0.0255  1.0368
  359MOL0     H48443  -3.245   7.290   8.575  0.8769  0.0848 -2.2382
  359MOL0     H48444  -3.202   7.131   8.631  0.4012 -0.5313 -0.5899
  359MOL0     H48445  -3.424   7.060   8.599  2.3303  0.4588  1.8686
  359MOL0     H48446  -3.491   7.210   8.527 -1.9760  0.7281  0.8030
  359MOL0     H48447  -2.763   6.582   8.291  1.2672 -1.1061  1.1579
  359MOL0     H48448  -2.542   6.521   8.363 -1.9821 -0.6476  0.8319
  359MOL0     H48449  -2.074   6.706   8.277 -0.0121 -3.7673 -4.3156
  359MOL0     H48450  -1.822   6.690   8.333  1.8090 -0.4239  0.3038
  359MOL0     H48451  -0.334   6.216   9.228 -0.9099  0.0042 -0.0841
  359MOL0     H48452  -0.076   6.203   9.291 -0.1566  1.4285 -1.1766
  359MOL0     H48453   0.283   6.304   9.357 -2.6955  1.6637  0.3951
  359MOL0     H48454   0.513   6.344   9.365 -4.0901 -1.7939 -2.0499
  359MOL0     H48455   0.704   6.246   9.454  0.4924 -0.4974  0.0522
  359MOL0     H48456   0.707   6.412   9.403 -0.4889  1.6637  1.4534
  359MOL0     H48457   0.936   6.315   9.421 -1.1172  1.3464 -2.6116
  359MOL0     H48458   0.909   6.304   9.599 -0.2712 -0.8366 -0.5248
  359MOL0     H48459   0.837   6.557   9.556 -1.5875 -0.4391 -1.5028
  359MOL0     H48460   0.953   6.533   9.424 -0.4103 -2.6287 -0.4881
  359MOL0     H48461   1.130   6.451   9.574 -2.6109 -2.7148 -0.9318
  359MOL0     H48462   1.015   6.457   9.713  2.4836 -0.3660  0.6544
  359MOL0     H48463   1.143   6.864   9.635  2.6464  0.0876 -0.3422
  359MOL0     H48464   0.500   6.377   9.792 -0.6652  1.6973  0.0353
  359MOL0     H48465   0.251   6.325   9.800  0.2915  1.5400 -0.0728
  360MOL0     O48466   4.829   0.188  10.424 -0.0177 -0.1700  0.2451
  360MOL0     C48467   4.785   0.079  10.427  0.7078 -0.3093 -0.7439
  360MOL0     O48468   4.832  -0.029  10.482 -0.0503 -0.0219  0.2891
  360MOL0     C48469   4.954  -0.028  10.538 -0.2791  0.5828 -0.4302
  360MOL0     C48470   4.964  -0.084  10.672  0.2831 -0.4104  0.5277
  360MOL0     C48471   5.089  -0.078  10.733  0.0160  0.3411  0.2071
  360MOL0     C48472   5.197  -0.037  10.678 -0.3740  0.3365  0.1483
  360MOL0     O48473   5.314  -0.024  10.747 -0.1189 -0.1647 -0.0587
  360MOL0     C48474   5.317   0.095  10.821 -0.2708 -0.1423  0.8993
  360MOL0     C48475   5.439   0.109  10.910 -0.3640  0.5061  1.0778
  360MOL0     C48476   5.576   0.113  10.829 -0.0558 -0.1802 -0.0805
  360MOL0     C48477   5.591   0.225  10.728 -0.1512 -0.0160  0.2328
  360MOL0     C48478   5.740   0.242  10.675 -0.5685 -0.0591 -0.1013
  360MOL0     C48479   5.790   0.140  10.566  0.3083  0.8070  0.7118
  360MOL0     C48480   5.935   0.156  10.517  0.3569 -0.2973 -1.0210
  360MOL0     C48481   5.989   0.028  10.444  0.3303 -0.0162 -0.2566
  360MOL0     N48482   6.092   0.059  10.348 -0.1624  0.4723 -0.2068
  360MOL0     C48483   6.214   0.114  10.376 -0.3444 -0.5020  0.2680
  360MOL0     C48484   6.283   0.114  10.255 -0.4702 -0.0941 -0.2971
  360MOL0     C48485   6.420   0.161  10.212 -0.1575 -0.5331 -0.3494
  360MOL0     C48486   6.438   0.314  10.252 -1.0343 -0.7264  0.4600
  360MOL0     C48487   6.493   0.335  10.397 -0.1720 -0.1331  1.0990
  360MOL0     C48488   6.492   0.485  10.418  0.0631 -0.4615 -0.0894
  360MOL0     O48489   6.357   0.538  10.415 -0.3759  0.1368 -0.0611
  360MOL0     C48490   6.272   0.515  10.519 -0.5591 -0.8147  0.3977
  360MOL0     C48491   6.152   0.566  10.505  0.9126  0.3778 -0.5954
  360MOL0     C48492   6.058   0.560  10.607  0.4316 -0.6182 -0.0048
  360MOL0     C48493   5.924   0.623  10.585  0.1890 -0.0455 -0.1946
  360MOL0     C48494   6.087   0.485  10.729  1.0604  0.3804  0.3748
  360MOL0     C48495   5.994   0.465  10.846 -0.0142 -0.6108 -0.5304
  360MOL0     O48496   5.890   0.554  10.878 -0.1715  0.8330 -1.0589
  360MOL0     C48497   5.784   0.525  10.966 -0.1854  0.4577 -1.0971
  360MOL0     C48498   5.697   0.631  10.989 -0.0862 -0.8071  0.3306
  360MOL0     C48499   5.590   0.612  11.061 -0.1668  0.2376 -0.3951
  360MOL0     C48500   5.561   0.491  11.130 -0.8874 -0.2061  0.7141
  360MOL0     O48501   5.448   0.482  11.215  0.0444 -1.3038  0.7869
  360MOL0     C48502   5.330   0.515  11.152  0.4489 -0.8019  0.4760
  360MOL0     C48503   5.209   0.461  11.219  0.0177  0.3404 -0.2716
  360MOL0     C48504   5.193   0.312  11.224 -0.1942  0.3066 -0.4860
  360MOL0     C48505   5.049   0.279  11.272  0.0991 -0.5213 -0.1235
  360MOL0     C48506   4.995   0.149  11.213  0.1656 -0.0943  1.2679
  360MOL0     C48507   5.056   0.021  11.282  0.0575  0.3987  0.6589
  360MOL0     C48508   5.116   0.033  11.426 -0.1089  0.5155 -0.2685
  360MOL0     C48509   5.135  -0.095  11.503  0.1995  0.0193  0.2703
  360MOL0    Cl48510   4.984  -0.149  11.588 -0.1847  0.0347 -0.3249
  360MOL0     C48511   5.646   0.383  11.111  0.6410  0.0257  0.3838
  360MOL0     C48512   5.762   0.401  11.039 -0.1227  0.1518 -0.9442
  360MOL0     O48513   6.006   0.354  10.890 -0.8972 -0.2771  0.0177
  360MOL0     C48514   6.214   0.440  10.740 -0.6633 -0.1451 -0.5458
  360MOL0     C48515   6.308   0.451  10.643  0.2757  0.1269  0.4745
  360MOL0     N48516   6.194   0.065  10.162 -0.6560  1.3143  0.1223
  360MOL0     N48517   6.087   0.045  10.209  0.1315  0.0899 -0.2188
  360MOL0     C48518   5.194  -0.003  10.543 -0.2287 -0.3297 -0.0099
  360MOL0     C48519   5.067   0.011  10.473 -0.3278  0.0909  0.3029
  360MOL0     C48520   4.639   0.076  10.367 -0.0713 -0.3587 -0.2068
  360MOL0     C48521   4.554  -0.028  10.413  0.2967 -0.2948 -0.0314
  360MOL0     C48522   4.432  -0.040  10.355  0.3226  0.9535 -1.0375
  360MOL0     C48523   4.389   0.039  10.257 -0.1519 -0.5287 -0.0251
  360MOL0     O48524   4.262   0.023  10.216  0.5050 -0.1851 -0.2378
  360MOL0     C48525   4.231   0.064  10.084  0.2150 -0.3130 -0.0297
  360MOL0     C48526   4.080   0.097  10.093 -0.4310 -0.8718  0.9524
  360MOL0     C48527   3.978  -0.003  10.140 -1.0249  0.1686  0.4872
  360MOL0     C48528   3.836   0.052  10.113 -0.1024 -0.4184  0.2649
  360MOL0     C48529   3.738  -0.050  10.100 -0.3676  0.0983 -0.2070
  360MOL0     C48530   3.646  -0.124  10.067  0.6976  0.0807 -0.3055
  360MOL0     C48531   4.470   0.142  10.208 -0.6317 -0.6837  0.5089
  360MOL0     C48532   4.599   0.165  10.264  0.3118 -0.4279 -0.0419
  360MOL0     H48533   4.889  -0.113  10.744  1.2687  0.2155  1.8643
  360MOL0     H48534   5.088  -0.100  10.839 -3.2480  1.0683  0.4317
  360MOL0     H48535   5.306   0.183  10.756 -0.1535  1.4006  2.8663
  360MOL0     H48536   5.235   0.097  10.894  0.8461  1.2672  2.1851
  360MOL0     H48537   5.425   0.203  10.964  1.4535  0.8254  1.0631
  360MOL0     H48538   5.430   0.025  10.980 -0.3785  0.8524  1.4948
  360MOL0     H48539   5.653   0.112  10.906 -2.6295  3.4029  2.8520
  360MOL0     H48540   5.589   0.018  10.775 -1.3052 -0.0110 -0.7203
  360MOL0     H48541   5.525   0.215  10.642  0.4131 -3.3400  0.0198
  360MOL0     H48542   5.568   0.315  10.786 -0.0806 -0.7203  1.3996
  360MOL0     H48543   5.757   0.340  10.630  3.3837 -1.3884 -1.9065
  360MOL0     H48544   5.810   0.242  10.758  0.0339  1.3520 -0.5839
  360MOL0     H48545   5.768   0.038  10.599  1.3274 -0.4433 -2.1696
  360MOL0     H48546   5.723   0.167  10.483  0.9546  0.7041  0.1509
  360MOL0     H48547   5.938   0.222  10.430 -0.0794 -1.0721 -1.6306
  360MOL0     H48548   5.999   0.176  10.603 -0.8652 -2.4132  0.4686
  360MOL0     H48549   5.906  -0.017  10.390 -1.8750  3.0591  0.2565
  360MOL0     H48550   6.027  -0.046  10.514 -0.6243 -0.3351 -0.0557
  360MOL0     H48551   6.249   0.155  10.471 -0.2060 -1.1314  0.4962
  360MOL0     H48552   6.504   0.101  10.249  0.3286  1.3222  1.8102
  360MOL0     H48553   6.420   0.160  10.103 -1.7345 -1.1463 -0.3632
  360MOL0     H48554   6.340   0.362  10.239 -0.4821  0.0048 -1.3099
  360MOL0     H48555   6.492   0.366  10.172  0.6032  0.0105  1.9702
  360MOL0     H48556   6.594   0.293  10.401 -0.2412 -0.8508 -2.0874
  360MOL0     H48557   6.430   0.287  10.472 -2.5178 -0.3557 -0.8850
  360MOL0     H48558   6.552   0.522  10.335  1.0776  0.1989  0.9052
  360MOL0     H48559   6.542   0.514  10.511  0.3014 -0.1110 -0.3257
  360MOL0     H48560   6.127   0.608  10.408  1.5263 -3.5912 -2.6858
  360MOL0     H48561   5.854   0.539  10.584  1.0372 -0.8300  1.5048
  360MOL0     H48562   5.901   0.683  10.673 -0.9427 -0.7683  0.0120
  360MOL0     H48563   5.915   0.682  10.493  0.8521  0.2175 -0.1000
  360MOL0     H48564   5.697   0.726  10.936 -1.7402 -0.1403  1.4488
  360MOL0     H48565   5.509   0.685  11.067  0.6578  1.4512 -2.7714
  360MOL0     H48566   5.310   0.622  11.138 -0.3305 -0.8534  1.1304
  360MOL0     H48567   5.332   0.471  11.052 -0.5571 -2.7184  1.2461
  360MOL0     H48568   5.214   0.521  11.311 -1.4711 -0.3251  0.2704
  360MOL0     H48569   5.123   0.503  11.166 -0.0764  0.7510  0.1968
  360MOL0     H48570   5.263   0.279  11.302 -1.4482 -1.5609 -0.0733
  360MOL0     H48571   5.217   0.270  11.126  0.5407  1.3603 -0.7712
  360MOL0     H48572   5.049   0.269  11.380  2.0861  1.7268  0.1956
  360MOL0     H48573   4.976   0.356  11.246  0.2150 -0.9380 -1.8018
  360MOL0     H48574   4.987   0.142  11.104 -3.2502 -0.3243  1.4362
  360MOL0     H48575   4.891   0.146  11.244 -0.7663  1.7587 -1.3364
  360MOL0     H48576   4.977  -0.055  11.281  0.6520 -0.3415 -2.6608
  360MOL0     H48577   5.132  -0.012  11.211 -1.2195 -0.5121 -0.3394
  360MOL0     H48578   5.058   0.099  11.491 -0.1769  1.4068 -1.2094
  360MOL0     H48579   5.211   0.086  11.418  0.3389  0.0516  1.5555
  360MOL0     H48580   5.214  -0.085  11.578 -1.1162  2.7197  1.4501
  360MOL0     H48581   5.170  -0.179  11.443 -1.6955 -0.9103  0.4057
  360MOL0     H48582   5.615   0.296  11.167  0.5447 -1.2278 -1.5346
  360MOL0     H48583   5.828   0.315  11.038  1.9424  1.6412 -0.3665
  360MOL0     H48584   6.238   0.389  10.833 -4.1244 -0.4273  0.3337
  360MOL0     H48585   6.405   0.411  10.667 -0.4403 -2.8744 -1.0603
  360MOL0     H48586   5.285   0.025  10.490 -0.6653  0.4113 -0.3807
  360MOL0     H48587   5.046   0.050  10.374 -1.2175 -0.4290  0.2796
  360MOL0     H48588   4.583  -0.101  10.488 -0.8352  0.2220  0.9471
  360MOL0     H48589   4.359  -0.107  10.398 -0.3276  1.1987 -1.7487
  360MOL0     H48590   4.279   0.153  10.042 -1.3453 -0.4658 -2.3000
  360MOL0     H48591   4.247  -0.019  10.015 -3.0404 -1.9753  1.0146
  360MOL0     H48592   4.058   0.108   9.986  1.2367  1.3247  0.7821
  360MOL0     H48593   4.061   0.195  10.136  2.7187  1.2763 -2.0296
  360MOL0     H48594   3.996  -0.034  10.243  0.2067  0.6003  0.4174
  360MOL0     H48595   3.995  -0.092  10.078  1.6533  1.2057 -0.4250
  360MOL0     H48596   3.838   0.111  10.021 -2.0915 -4.1100 -2.4168
  360MOL0     H48597   3.808   0.125  10.190  2.1775  0.8412 -0.0116
  360MOL0     H48598   3.564  -0.191  10.052 -0.7159  1.8567 -0.9172
  360MOL0     H48599   4.452   0.210  10.125 -0.3230 -2.4493 -1.0683
  360MOL0     H48600   4.673   0.241  10.242 -0.7452  0.0681 -2.1213
  361MOL0     O48601   8.607   3.890   2.389  0.2863 -0.0601  0.3929
  361MOL0     C48602   8.647   3.771   2.398  0.6553 -1.0354 -0.3088
  361MOL0     O48603   8.606   3.685   2.499  0.9834 -0.4630  0.0279
  361MOL0     C48604   8.515   3.743   2.584 -0.5726  1.1770  0.1900
  361MOL0     C48605   8.559   3.844   2.671  0.0392  0.4509 -0.4138
  361MOL0     C48606   8.466   3.907   2.761  0.6500 -0.7608  0.5111
  361MOL0     C48607   8.331   3.862   2.769  0.4498  0.3724 -0.0956
  361MOL0     O48608   8.243   3.894   2.866  0.3048 -0.3695  0.3687
  361MOL0     C48609   8.285   3.839   2.996  0.0806 -0.2956  0.1659
  361MOL0     C48610   8.181   3.873   3.104  0.1768  0.0908 -0.1514
  361MOL0     C48611   8.244   3.899   3.238  0.8005  0.0949 -0.1645
  361MOL0     C48612   8.333   3.789   3.291 -0.5416  1.0901  0.1566
  361MOL0     C48613   8.372   3.774   3.435 -0.0306  0.5896  0.8838
  361MOL0     C48614   8.475   3.878   3.476 -0.5760 -0.0153  0.3109
  361MOL0     C48615   8.479   3.882   3.627  0.6592 -1.5320 -0.4168
  361MOL0     C48616   8.543   3.769   3.698  0.6555 -0.7734  0.3106
  361MOL0     N48617   8.586   3.794   3.836 -0.5078 -0.2607 -0.4120
  361MOL0     C48618   8.702   3.860   3.861 -1.1123  0.8851 -0.4209
  361MOL0     C48619   8.736   3.835   3.994 -0.1269  0.0196 -0.4782
  361MOL0     C48620   8.854   3.880   4.080  0.0328  0.0022  0.0137
  361MOL0     C48621   8.948   3.765   4.111 -0.4797 -0.5925  0.9982
  361MOL0     C48622   9.004   3.705   3.974 -0.3100 -0.0966 -0.2220
  361MOL0     C48623   9.124   3.622   3.989 -0.3990  0.3093  0.4861
  361MOL0     O48624   9.138   3.541   3.864 -0.3554  0.3213  0.0450
  361MOL0     C48625   9.253   3.531   3.801  0.6003 -0.2844  0.7463
  361MOL0     C48626   9.379   3.577   3.838  0.1152  0.5968  0.3509
  361MOL0     C48627   9.494   3.535   3.769 -0.0118 -0.6011 -0.2249
  361MOL0     C48628   9.628   3.578   3.825  0.4630 -0.0850 -0.9441
  361MOL0     C48629   9.487   3.455   3.654 -0.1013 -0.0590  0.3846
  361MOL0     C48630   9.598   3.417   3.556 -0.4654 -1.0035  0.4032
  361MOL0     O48631   9.565   3.347   3.439  0.3651  0.3119 -0.4978
  361MOL0     C48632   9.672   3.321   3.348  0.4772 -0.9370  0.0179
  361MOL0     C48633   9.764   3.222   3.375  0.1526  0.0019 -0.8076
  361MOL0     C48634   9.857   3.170   3.289  0.8099 -0.3516 -0.0105
  361MOL0     C48635   9.864   3.236   3.171 -0.2375 -0.5432 -0.6483
  361MOL0     O48636   9.977   3.204   3.084 -0.5853  0.1802 -0.8796
  361MOL0     C48637  10.077   3.102   3.130 -0.3402 -0.8007  0.0499
  361MOL0     C48638  10.207   3.157   3.195 -0.2341  0.9102 -0.6900
  361MOL0     C48639  10.257   3.290   3.127 -1.2442 -0.2858  0.4254
  361MOL0     C48640  10.405   3.325   3.155 -1.0433 -0.0134  0.4259
  361MOL0     C48641  10.447   3.453   3.093 -0.4256  0.3475  0.2038
  361MOL0     C48642  10.591   3.497   3.113 -0.9940  0.0630  0.4319
  361MOL0     C48643  10.608   3.643   3.081 -0.3441  0.0532 -1.0571
  361MOL0     C48644  10.743   3.692   3.030 -0.1075 -0.5181  0.4315
  361MOL0    Cl48645  10.869   3.599   3.104  0.1333 -0.2238  0.0045
  361MOL0     C48646   9.765   3.326   3.127  0.0632 -0.0218  0.1584
  361MOL0     C48647   9.663   3.367   3.209  0.0002  0.1590  0.1908
  361MOL0     O48648   9.710   3.462   3.591  0.1406  0.7603  0.0345
  361MOL0     C48649   9.360   3.411   3.624 -0.4738 -1.2753  0.0947
  361MOL0     C48650   9.244   3.446   3.690 -0.1106  0.3682 -0.6245
  361MOL0     N48651   8.633   3.767   4.045 -0.1066 -0.6954  0.1217
  361MOL0     N48652   8.548   3.738   3.952 -0.5833  0.4026 -0.3515
  361MOL0     C48653   8.290   3.758   2.693  0.9480  0.3395  0.3851
  361MOL0     C48654   8.379   3.696   2.598  0.0844  0.4360 -0.3518
  361MOL0     C48655   8.719   3.702   2.285  0.1871  0.0832  0.1600
  361MOL0     C48656   8.819   3.607   2.309  0.5070  0.2383 -0.3681
  361MOL0     C48657   8.893   3.545   2.210  0.1734 -0.1945  0.2692
  361MOL0     C48658   8.865   3.568   2.074  0.3721 -0.9150  0.2997
  361MOL0     O48659   8.935   3.505   1.981 -0.4642  0.2063  0.9408
  361MOL0     C48660   8.870   3.509   1.855 -1.1955 -0.2319 -0.8493
  361MOL0     C48661   8.912   3.634   1.768  0.3981 -0.4641  0.6227
  361MOL0     C48662   8.788   3.678   1.693  0.1465 -0.1891  0.3861
  361MOL0     C48663   8.745   3.569   1.584 -0.3876  0.5078 -0.5648
  361MOL0     C48664   8.682   3.445   1.634 -0.7255 -0.4175 -0.8181
  361MOL0     C48665   8.633   3.334   1.654 -0.3548 -0.0925 -0.3954
  361MOL0     C48666   8.768   3.676   2.051 -0.8106 -0.4351  0.9193
  361MOL0     C48667   8.700   3.741   2.153  0.5352  0.1683  0.0896
  361MOL0     H48668   8.662   3.875   2.664 -0.4080  1.6251 -3.5184
  361MOL0     H48669   8.512   3.989   2.815  1.3061 -0.9404  0.2425
  361MOL0     H48670   8.310   3.733   2.997  1.3241 -0.1133 -2.2201
  361MOL0     H48671   8.376   3.888   3.033 -0.1990  0.0936  0.3505
  361MOL0     H48672   8.134   3.965   3.067 -0.0774  0.7699  1.7609
  361MOL0     H48673   8.101   3.799   3.109 -0.6141  0.8220 -1.4260
  361MOL0     H48674   8.293   3.997   3.242 -6.1155  4.2289 -0.3306
  361MOL0     H48675   8.164   3.897   3.313 -0.6293 -3.5062 -1.5749
  361MOL0     H48676   8.279   3.695   3.280 -1.8816  1.6160  1.7112
  361MOL0     H48677   8.417   3.782   3.222  0.3125 -1.2712  1.3277
  361MOL0     H48678   8.281   3.795   3.493  0.2894  1.3663  1.1121
  361MOL0     H48679   8.401   3.669   3.448 -1.6411 -0.2133 -1.3538
  361MOL0     H48680   8.575   3.854   3.438 -0.5202  0.0952  0.3878
  361MOL0     H48681   8.446   3.978   3.441 -0.8266  0.7986  2.6751
  361MOL0     H48682   8.525   3.979   3.645 -1.2255 -0.8958  1.4542
  361MOL0     H48683   8.381   3.902   3.672  0.8462  2.1242 -1.3701
  361MOL0     H48684   8.627   3.740   3.635  1.7258  2.5642 -0.0038
  361MOL0     H48685   8.470   3.687   3.698  0.1118 -0.3030 -0.4593
  361MOL0     H48686   8.754   3.926   3.791 -3.7736  2.7826 -0.7564
  361MOL0     H48687   8.910   3.949   4.016 -2.0960  1.9560  0.0966
  361MOL0     H48688   8.819   3.941   4.164  2.0980  0.8286  0.3293
  361MOL0     H48689   8.899   3.692   4.175  1.4471 -1.4974  1.5174
  361MOL0     H48690   9.036   3.807   4.162  1.3247  0.0349 -2.3266
  361MOL0     H48691   9.030   3.781   3.899 -1.4158  1.7557  1.1899
  361MOL0     H48692   8.920   3.653   3.928 -0.6047  2.6726 -3.2097
  361MOL0     H48693   9.108   3.550   4.071  1.9410 -0.5165  0.2971
  361MOL0     H48694   9.214   3.674   4.022 -0.1138 -0.2069  0.5406
  361MOL0     H48695   9.393   3.641   3.924  0.4753 -1.0121  1.5260
  361MOL0     H48696   9.627   3.623   3.925  0.8419 -4.1745  1.1077
  361MOL0     H48697   9.688   3.488   3.842  1.1440  0.8697  2.6034
  361MOL0     H48698   9.681   3.647   3.760 -0.0604 -0.9572 -2.3520
  361MOL0     H48699   9.766   3.200   3.481  0.4734  0.4443 -0.7172
  361MOL0     H48700   9.930   3.097   3.325  2.4605  1.6602  0.9474
  361MOL0     H48701  10.037   3.013   3.180 -1.1112 -0.1405  0.6492
  361MOL0     H48702  10.114   3.063   3.035  0.2204  0.4287 -0.2457
  361MOL0     H48703  10.176   3.172   3.299  1.9331 -0.9854  0.3251
  361MOL0     H48704  10.279   3.074   3.201 -1.6810 -0.3605 -0.2223
  361MOL0     H48705  10.201   3.380   3.154 -0.2966  0.7425 -0.9128
  361MOL0     H48706  10.243   3.285   3.019  1.1889  0.8515 -0.0162
  361MOL0     H48707  10.422   3.318   3.263 -1.0128  2.9168  0.6777
  361MOL0     H48708  10.462   3.241   3.114 -2.1200 -0.7282  0.3561
  361MOL0     H48709  10.392   3.535   3.141  0.5748 -0.3845  2.7864
  361MOL0     H48710  10.416   3.452   2.988 -0.7989  0.1342  0.3111
  361MOL0     H48711  10.628   3.483   3.215  3.1327  0.8156 -0.8038
  361MOL0     H48712  10.653   3.444   3.040 -2.7832 -2.8277  0.8447
  361MOL0     H48713  10.567   3.700   3.165  1.3657 -2.6779  1.8629
  361MOL0     H48714  10.543   3.656   2.994 -2.6665 -0.2990  0.5120
  361MOL0     H48715  10.763   3.796   3.058 -0.7321 -0.0770 -0.6946
  361MOL0     H48716  10.753   3.671   2.923  0.5930 -2.1910  0.7937
  361MOL0     H48717   9.778   3.370   3.029 -1.2755  1.1676  0.4920
  361MOL0     H48718   9.578   3.434   3.200 -1.3352 -1.4083  0.5881
  361MOL0     H48719   9.353   3.359   3.529  2.4662  3.0385 -2.8023
  361MOL0     H48720   9.156   3.402   3.644  0.5896 -2.7283  0.7161
  361MOL0     H48721   8.197   3.709   2.720  0.7872  1.5556  2.1418
  361MOL0     H48722   8.349   3.615   2.532 -1.2234  1.3453 -0.9218
  361MOL0     H48723   8.836   3.576   2.412  0.1740 -1.8905 -0.9005
  361MOL0     H48724   8.974   3.475   2.229  0.3000  0.0953  0.8085
  361MOL0     H48725   8.921   3.420   1.817 -1.8021 -1.3039  0.7088
  361MOL0     H48726   8.762   3.498   1.868 -0.8341 -1.3639  2.1900
  361MOL0     H48727   8.996   3.606   1.704  1.3865  1.7688  0.8460
  361MOL0     H48728   8.945   3.714   1.835 -0.8114 -0.6177  1.4404
  361MOL0     H48729   8.805   3.774   1.643  2.5530 -0.7522 -0.0048
  361MOL0     H48730   8.698   3.693   1.753  0.3567  0.1690  0.6153
  361MOL0     H48731   8.829   3.543   1.519 -0.9581 -2.0704 -0.4030
  361MOL0     H48732   8.666   3.617   1.526 -0.7970  0.2801 -0.2000
  361MOL0     H48733   8.588   3.242   1.686  3.7342 -1.6841  1.4153
  361MOL0     H48734   8.734   3.706   1.952 -0.8924 -1.9363  0.4638
  361MOL0     H48735   8.620   3.814   2.141  0.5162  0.2028  0.4284
  362MOL0     O48736   4.754   4.754   4.188 -0.2492  0.5262 -0.2116
  362MOL0     C48737   4.764   4.685   4.086 -0.7074 -0.1674 -0.7196
  362MOL0     O48738   4.747   4.549   4.087  0.2822  0.8763 -0.0165
  362MOL0     C48739   4.704   4.489   4.200  0.5649  0.4603 -0.3097
  362MOL0     C48740   4.795   4.432   4.281 -0.3231  0.0233 -0.2310
  362MOL0     C48741   4.753   4.363   4.400 -0.2420 -0.1251  0.0695
  362MOL0     C48742   4.614   4.341   4.423 -0.5854  0.0023 -0.1012
  362MOL0     O48743   4.582   4.268   4.537 -0.2772  0.4914 -0.4112
  362MOL0     C48744   4.493   4.323   4.635 -0.5912 -0.2716  0.2230
  362MOL0     C48745   4.494   4.243   4.764  0.5516 -0.1543  0.5769
  362MOL0     C48746   4.629   4.197   4.809  0.6498  0.2332  0.0851
  362MOL0     C48747   4.713   4.310   4.874  0.7773  0.4328  0.2075
  362MOL0     C48748   4.845   4.253   4.918  0.6665 -0.3158 -0.9360
  362MOL0     C48749   4.887   4.309   5.062  0.1418 -0.0730  0.3687
  362MOL0     C48750   5.033   4.259   5.094  0.1685 -0.5569 -0.0708
  362MOL0     C48751   5.151   4.322   5.015  0.4905  0.1856  0.0979
  362MOL0     N48752   5.272   4.264   5.069 -0.4001 -0.0530 -0.3129
  362MOL0     C48753   5.323   4.143   5.022  0.1433  0.3474 -0.4058
  362MOL0     C48754   5.433   4.120   5.098 -0.7473  0.4192  1.6620
  362MOL0     C48755   5.514   3.988   5.107 -0.2555 -1.0464 -0.1373
  362MOL0     C48756   5.633   4.010   5.202  0.0299 -0.1859  0.5192
  362MOL0     C48757   5.711   3.868   5.238  0.1425  0.7520 -0.3207
  362MOL0     C48758   5.786   3.798   5.117 -0.5217 -0.0311  1.0747
  362MOL0     O48759   5.789   3.653   5.148 -0.3039 -0.3138 -0.7248
  362MOL0     C48760   5.894   3.577   5.106  1.5253  0.1575  0.8488
  362MOL0     C48761   5.922   3.452   5.166 -0.5143  0.4011  0.0690
  362MOL0     C48762   6.020   3.361   5.128 -0.6636 -0.2614 -0.0715
  362MOL0     C48763   6.057   3.244   5.221  0.8145  0.3635 -0.4836
  362MOL0     C48764   6.098   3.394   5.013 -0.0568 -0.2417  0.5152
  362MOL0     C48765   6.205   3.307   4.959 -0.3226 -0.1555 -0.1875
  362MOL0     O48766   6.252   3.347   4.839 -0.2300  0.3681 -0.3744
  362MOL0     C48767   6.384   3.325   4.799 -0.2323  0.3312 -0.2763
  362MOL0     C48768   6.410   3.275   4.674  0.4303  0.3014 -0.5941
  362MOL0     C48769   6.540   3.239   4.637  0.3667 -0.5890  0.0001
  362MOL0     C48770   6.645   3.269   4.721  0.0669 -0.1795  0.4573
  362MOL0     O48771   6.771   3.214   4.709 -0.1665  0.1207 -0.0827
  362MOL0     C48772   6.795   3.105   4.616  0.1770 -0.6292 -0.2558
  362MOL0     C48773   6.947   3.064   4.617 -0.6564 -0.4873  0.3754
  362MOL0     C48774   7.001   2.990   4.736 -0.0882 -0.9840  0.7165
  362MOL0     C48775   7.062   3.073   4.851 -0.1956  0.4835 -0.2761
  362MOL0     C48776   7.145   2.993   4.944  0.2658  0.4740  0.2668
  362MOL0     C48777   7.257   2.912   4.885  1.3083  0.0229 -0.0830
  362MOL0     C48778   7.370   2.984   4.817  1.4656 -0.7133  0.2452
  362MOL0     C48779   7.503   2.900   4.824 -0.4534 -0.4093 -0.5412
  362MOL0    Cl48780   7.481   2.748   4.742 -0.0177  0.3114  0.1662
  362MOL0     C48781   6.618   3.338   4.837 -0.7567  0.5792 -0.5152
  362MOL0     C48782   6.490   3.370   4.887 -0.0818 -0.1393 -0.1391
  362MOL0     O48783   6.250   3.217   5.029 -0.2333  0.0364  0.2017
  362MOL0     C48784   6.071   3.518   4.941 -0.1045  0.8993 -0.2348
  362MOL0     C48785   5.971   3.607   4.993  0.3601 -0.1567 -0.0679
  362MOL0     N48786   5.467   4.238   5.170 -0.2371  0.7739  0.1506
  362MOL0     N48787   5.361   4.314   5.155  0.3997  0.3177 -0.7043
  362MOL0     C48788   4.519   4.395   4.331 -1.2330 -0.4508 -0.9664
  362MOL0     C48789   4.569   4.472   4.225  0.4882  0.5133 -0.8709
  362MOL0     C48790   4.802   4.749   3.961  0.2570 -0.9111 -0.8281
  362MOL0     C48791   4.852   4.876   3.955 -1.4651  0.9375  0.2817
  362MOL0     C48792   4.904   4.923   3.829  1.3159 -0.0134 -0.1930
  362MOL0     C48793   4.888   4.850   3.708 -0.6040 -0.3771  0.7877
  362MOL0     O48794   4.949   4.916   3.602 -0.2386 -0.2092 -0.0927
  362MOL0     C48795   4.934   4.885   3.463 -0.0705 -1.7231 -0.0981
  362MOL0     C48796   4.865   5.008   3.394 -0.1243 -0.1451 -0.0838
  362MOL0     C48797   4.963   5.064   3.291 -0.9572  0.4870  0.2572
  362MOL0     C48798   5.071   5.148   3.351 -0.2228  1.0639  0.3775
  362MOL0     C48799   5.040   5.273   3.416 -0.1997 -1.1451 -0.4832
  362MOL0     C48800   5.014   5.384   3.471 -0.2036  1.1093 -0.2740
  362MOL0     C48801   4.820   4.729   3.715  0.4225  0.3434 -0.8259
  362MOL0     C48802   4.786   4.678   3.839  0.3739 -0.4925  0.1994
  362MOL0     H48803   4.900   4.446   4.256 -0.2717 -0.6002 -0.3741
  362MOL0     H48804   4.838   4.331   4.459  0.6190  0.8642 -0.5740
  362MOL0     H48805   4.534   4.422   4.657 -0.3142 -0.9154  2.9578
  362MOL0     H48806   4.385   4.331   4.618 -1.4123 -3.3508  2.9643
  362MOL0     H48807   4.442   4.297   4.843 -0.7834 -0.5784  0.0058
  362MOL0     H48808   4.435   4.154   4.741  0.8611 -0.8381  2.2463
  362MOL0     H48809   4.601   4.123   4.884 -1.8123  0.8284 -0.1585
  362MOL0     H48810   4.682   4.159   4.720  1.4399  1.5029 -0.0088
  362MOL0     H48811   4.718   4.387   4.797 -3.5020  0.3892 -0.3469
  362MOL0     H48812   4.663   4.355   4.960 -3.3714  0.0604 -1.7526
  362MOL0     H48813   4.834   4.144   4.928  0.3827 -0.5013 -2.8707
  362MOL0     H48814   4.913   4.263   4.832  0.3003  1.0068 -1.0886
  362MOL0     H48815   4.883   4.417   5.078 -2.1128 -0.2646  1.3702
  362MOL0     H48816   4.809   4.269   5.127 -1.2874 -0.0819 -1.2821
  362MOL0     H48817   5.053   4.278   5.200 -0.6776 -0.2893  0.0547
  362MOL0     H48818   5.043   4.150   5.098  1.5339 -0.4218  0.9565
  362MOL0     H48819   5.151   4.431   5.026  0.0777 -0.0579  3.9168
  362MOL0     H48820   5.156   4.295   4.909  2.2683 -2.0649  0.6817
  362MOL0     H48821   5.279   4.078   4.947  1.9849 -0.8400 -0.5329
  362MOL0     H48822   5.453   3.913   5.158  0.5925 -1.1136  0.8042
  362MOL0     H48823   5.556   3.952   5.012  2.6857 -1.3530  1.1509
  362MOL0     H48824   5.611   4.061   5.296 -0.3586 -0.7520  0.7430
  362MOL0     H48825   5.705   4.078   5.156 -1.4486  1.8377  1.0625
  362MOL0     H48826   5.640   3.797   5.279  0.4513  1.8203  2.2571
  362MOL0     H48827   5.789   3.880   5.314 -0.0352  2.1587 -0.3268
  362MOL0     H48828   5.892   3.827   5.111  0.8973 -4.3575  1.6034
  362MOL0     H48829   5.729   3.813   5.025  0.6160 -2.1682 -0.0471
  362MOL0     H48830   5.863   3.433   5.255 -1.9765 -0.3741 -1.0186
  362MOL0     H48831   6.055   3.150   5.165  1.5311  2.4733 -4.4104
  362MOL0     H48832   6.158   3.257   5.263 -0.1426  1.0408  1.7723
  362MOL0     H48833   6.001   3.233   5.314  3.1198 -2.6479  0.7399
  362MOL0     H48834   6.325   3.262   4.609 -0.3292  0.8353  0.2757
  362MOL0     H48835   6.548   3.182   4.545  1.9899  1.6737 -1.3792
  362MOL0     H48836   6.733   3.021   4.650 -1.8455  0.9063  0.0428
  362MOL0     H48837   6.758   3.138   4.519  2.0211  0.6019 -0.5796
  362MOL0     H48838   6.956   2.992   4.535  2.3509 -1.8759  1.7585
  362MOL0     H48839   7.007   3.154   4.601 -0.7864 -0.7668 -2.1211
  362MOL0     H48840   7.082   2.931   4.693  0.2256  0.3069 -0.5356
  362MOL0     H48841   6.928   2.927   4.787  0.2715 -3.0628 -1.1877
  362MOL0     H48842   7.128   3.150   4.810  2.4569 -0.8822  1.1688
  362MOL0     H48843   6.979   3.114   4.908  1.4936  0.1901  2.5790
  362MOL0     H48844   7.070   2.937   5.000 -0.1954  1.4384  0.6362
  362MOL0     H48845   7.189   3.057   5.021  1.3191 -0.4825  0.4760
  362MOL0     H48846   7.308   2.865   4.970 -1.0611 -0.0339  1.3910
  362MOL0     H48847   7.209   2.826   4.837  3.0063 -1.9505  1.5348
  362MOL0     H48848   7.384   3.087   4.853 -2.5580  1.5478 -3.6583
  362MOL0     H48849   7.347   3.011   4.713  0.9164  2.0791  1.0050
  362MOL0     H48850   7.527   2.876   4.928 -2.9621  0.3267  0.2880
  362MOL0     H48851   7.578   2.954   4.766 -0.4986  2.3373  1.7099
  362MOL0     H48852   6.702   3.349   4.904 -2.9051 -1.3875  2.8192
  362MOL0     H48853   6.461   3.414   4.981 -0.6960 -1.9499  0.5716
  362MOL0     H48854   6.128   3.550   4.854 -0.8402 -1.2280 -1.6040
  362MOL0     H48855   5.953   3.692   4.928 -1.0686 -0.0047  0.4918
  362MOL0     H48856   4.417   4.385   4.369  0.2572 -0.1365  3.7854
  362MOL0     H48857   4.485   4.509   4.167  0.6018  0.8843 -0.8025
  362MOL0     H48858   4.872   4.927   4.049 -1.7251 -3.8690  3.2374
  362MOL0     H48859   4.946   5.022   3.821 -0.0262  0.4146 -3.6711
  362MOL0     H48860   5.033   4.868   3.418  0.1241  2.0488 -1.4497
  362MOL0     H48861   4.870   4.797   3.450 -1.1186 -1.0119  0.1754
  362MOL0     H48862   4.845   5.090   3.463 -0.0414 -1.0873  1.0992
  362MOL0     H48863   4.769   4.970   3.356 -1.3968 -1.0839  3.6302
  362MOL0     H48864   4.903   5.113   3.214 -2.7653 -0.1339  1.2232
  362MOL0     H48865   5.010   4.981   3.239  0.3459  0.5332  1.3026
  362MOL0     H48866   5.131   5.184   3.267  1.1854  3.8867  2.4372
  362MOL0     H48867   5.145   5.102   3.418 -2.0534  0.3950  2.0125
  362MOL0     H48868   5.006   5.484   3.509  1.3749  0.1019  3.0417
  362MOL0     H48869   4.793   4.666   3.631 -0.8714 -2.0529  1.2651
  362MOL0     H48870   4.746   4.577   3.848  1.0681 -0.6483  1.8413
  363MOL0     O48871   1.828   9.861   0.879  0.3979  0.6289  0.4835
  363MOL0     C48872   1.722   9.921   0.861 -0.1276 -0.3176 -0.3166
  363MOL0     O48873   1.626   9.945   0.959  0.8086 -0.7378  0.1385
  363MOL0     C48874   1.613   9.848   1.052 -1.0785  0.5598 -0.1031
  363MOL0     C48875   1.554   9.719   1.033  0.3672 -0.3208 -0.6867
  363MOL0     C48876   1.523   9.633   1.137 -0.6478  0.1303 -1.3652
  363MOL0     C48877   1.567   9.669   1.272 -0.9447  0.2148  0.2989
  363MOL0     O48878   1.554   9.594   1.386  0.3518 -0.1609 -1.1701
  363MOL0     C48879   1.462   9.480   1.386  0.5442 -0.6760  0.1714
  363MOL0     C48880   1.319   9.533   1.395  0.2171 -0.4586  0.3996
  363MOL0     C48881   1.228   9.412   1.418  0.1467  0.3929 -0.8255
  363MOL0     C48882   1.238   9.361   1.563 -0.0109 -0.3386 -0.4702
  363MOL0     C48883   1.160   9.233   1.604 -0.3649 -0.4873 -0.4538
  363MOL0     C48884   1.014   9.255   1.619  0.8436  0.1741 -0.8951
  363MOL0     C48885   0.953   9.131   1.681  0.2925  0.2568 -0.1393
  363MOL0     C48886   0.813   9.150   1.721 -0.5072 -0.1271  0.2964
  363MOL0     N48887   0.734   9.036   1.765 -0.3123 -0.6079  1.0426
  363MOL0     C48888   0.600   9.019   1.737  0.1029  0.7975 -0.6639
  363MOL0     C48889   0.555   8.926   1.834  0.2826 -0.0445  0.9821
  363MOL0     C48890   0.409   8.892   1.851  0.2621 -0.2754  0.0260
  363MOL0     C48891   0.371   8.804   1.736 -0.2061  0.7890 -0.0785
  363MOL0     C48892   0.225   8.738   1.750 -0.5089 -0.2495 -0.1429
  363MOL0     C48893   0.155   8.695   1.630 -0.7788 -0.5033 -0.4823
  363MOL0     O48894   0.122   8.809   1.540  0.3337  0.8755 -0.1860
  363MOL0     C48895   0.040   8.779   1.439  0.0831  0.4590  0.5423
  363MOL0     C48896  -0.102   8.755   1.447 -0.9268  0.4006 -0.0683
  363MOL0     C48897  -0.173   8.702   1.344 -0.6005  0.4519  0.4964
  363MOL0     C48898  -0.322   8.654   1.375  0.0553  0.0697  0.6138
  363MOL0     C48899  -0.116   8.704   1.213  1.5266  0.5374 -0.3260
  363MOL0     C48900  -0.175   8.655   1.089 -0.0166  0.3907 -0.4498
  363MOL0     O48901  -0.093   8.650   0.981  0.1727 -0.1504 -0.2161
  363MOL0     C48902  -0.113   8.577   0.868  0.2377  0.0344 -0.4309
  363MOL0     C48903  -0.020   8.602   0.769 -0.8155 -0.3197 -0.2783
  363MOL0     C48904  -0.032   8.534   0.648 -0.0454 -0.3299 -0.2394
  363MOL0     C48905  -0.122   8.436   0.619  0.5879 -0.2527 -0.8472
  363MOL0     O48906  -0.119   8.363   0.504 -0.1740  0.1218  0.4254
  363MOL0     C48907  -0.068   8.426   0.384 -0.4339 -0.0873  0.2586
  363MOL0     C48908  -0.103   8.326   0.272 -1.1543  0.1893 -0.7177
  363MOL0     C48909  -0.001   8.211   0.255 -0.1719 -0.6132  0.1083
  363MOL0     C48910  -0.065   8.093   0.198  0.8185  0.4014  0.5505
  363MOL0     C48911  -0.144   8.008   0.288  0.8123 -0.0528  0.1467
  363MOL0     C48912  -0.167   7.858   0.259 -0.3620  0.4582 -0.1235
  363MOL0     C48913  -0.238   7.824   0.131  0.3120  0.3597 -0.0150
  363MOL0     C48914  -0.264   7.677   0.119  0.3338  0.3837  0.8919
  363MOL0    Cl48915  -0.365   7.649  -0.026  0.2964  0.4339 -0.4674
  363MOL0     C48916  -0.218   8.411   0.714  0.2706  1.4982  0.6544
  363MOL0     C48917  -0.218   8.484   0.840 -0.0816  0.8583  0.5278
  363MOL0     O48918  -0.286   8.608   1.091 -0.3755 -0.2768 -0.0317
  363MOL0     C48919   0.019   8.741   1.209 -0.5216  0.8467 -0.1772
  363MOL0     C48920   0.094   8.774   1.314 -0.0968 -0.4160 -0.4401
  363MOL0     N48921   0.665   8.898   1.912  0.7146  0.6579  0.5182
  363MOL0     N48922   0.764   8.980   1.884  0.4156 -0.1097  0.2473
  363MOL0     C48923   1.648   9.783   1.291 -0.1838  0.4322 -0.1001
  363MOL0     C48924   1.663   9.871   1.179 -0.1815  0.2152 -0.1231
  363MOL0     C48925   1.705   9.980   0.727 -0.1209 -0.8448 -0.7342
  363MOL0     C48926   1.822  10.009   0.641  0.2456  0.4513  0.1608
  363MOL0     C48927   1.808  10.089   0.526 -0.2271  0.0357 -0.7012
  363MOL0     C48928   1.684  10.141   0.493  0.0383 -0.0133 -0.2442
  363MOL0     O48929   1.656  10.213   0.382  0.7285  0.9835 -0.0017
  363MOL0     C48930   1.601  10.138   0.274  0.3148 -0.6537 -0.1038
  363MOL0     C48931   1.662  10.159   0.138  0.7325 -0.3351  0.2782
  363MOL0     C48932   1.803  10.106   0.132  0.5533  0.6677  0.0010
  363MOL0     C48933   1.867  10.139  -0.007  0.6790  0.8955  0.2074
  363MOL0     C48934   1.889  10.282  -0.014  0.0380  0.5309  0.0885
  363MOL0     C48935   1.898  10.399  -0.020 -0.3848 -0.5099 -1.3221
  363MOL0     C48936   1.586  10.141   0.589 -0.8366  0.7505 -0.4266
  363MOL0     C48937   1.598  10.055   0.697  0.2185  0.0171 -0.0057
  363MOL0     H48938   1.533   9.698   0.929 -2.8945  4.3194 -1.2756
  363MOL0     H48939   1.473   9.539   1.120  0.5876 -0.8700  0.2358
  363MOL0     H48940   1.483   9.415   1.300  1.9622 -0.4108  0.2885
  363MOL0     H48941   1.484   9.416   1.473 -0.6833  2.3517  2.8905
  363MOL0     H48942   1.309   9.614   1.467  2.0356  0.5698 -0.4259
  363MOL0     H48943   1.295   9.569   1.294  3.2692  0.4742 -0.1023
  363MOL0     H48944   1.123   9.440   1.405 -0.0969  0.0382  0.2865
  363MOL0     H48945   1.236   9.329   1.348  0.8059  0.6740 -1.0898
  363MOL0     H48946   1.339   9.326   1.582 -0.3370 -1.3319 -0.4635
  363MOL0     H48947   1.217   9.444   1.631  0.1847 -1.1833  0.6512
  363MOL0     H48948   1.176   9.145   1.542 -0.7625 -1.5756  0.9390
  363MOL0     H48949   1.190   9.200   1.704  0.6485 -0.9437 -0.8965
  363MOL0     H48950   0.990   9.334   1.691 -1.4280 -0.0968 -1.2789
  363MOL0     H48951   0.965   9.284   1.525 -1.7022  0.0362  0.3092
  363MOL0     H48952   0.968   9.035   1.630  1.9682  0.3829  0.0754
  363MOL0     H48953   1.000   9.122   1.779  1.0395  1.3192 -0.3851
  363MOL0     H48954   0.754   9.194   1.640  1.1668  0.3535 -0.7043
  363MOL0     H48955   0.808   9.223   1.802 -0.9268  1.6789 -1.2837
  363MOL0     H48956   0.549   9.081   1.664  1.6626  2.6934 -0.2014
  363MOL0     H48957   0.394   8.847   1.950  1.6127  1.7397  1.2305
  363MOL0     H48958   0.345   8.980   1.839 -1.7586 -1.4007  1.9015
  363MOL0     H48959   0.442   8.722   1.735  0.3199  1.2389 -0.4431
  363MOL0     H48960   0.385   8.867   1.647  0.3179  0.9911  0.1462
  363MOL0     H48961   0.166   8.816   1.798  0.6138 -0.4624  1.7002
  363MOL0     H48962   0.225   8.651   1.817  0.4635  0.3076  0.6118
  363MOL0     H48963   0.058   8.661   1.667  0.0983 -1.0478  1.4077
  363MOL0     H48964   0.197   8.619   1.563  0.0755 -0.1791 -0.3298
  363MOL0     H48965  -0.149   8.766   1.544  0.4846  4.6566  0.3382
  363MOL0     H48966  -0.405   8.704   1.324 -0.5520  0.7877  2.2420
  363MOL0     H48967  -0.338   8.547   1.359 -1.4978 -0.1084  2.8460
  363MOL0     H48968  -0.348   8.661   1.481  2.0607  5.1518  1.0505
  363MOL0     H48969   0.064   8.667   0.794 -2.4635  1.6852  0.3606
  363MOL0     H48970   0.041   8.577   0.579  1.2179 -0.8550  0.7279
  363MOL0     H48971  -0.104   8.524   0.350  1.2656  1.2196  1.9967
  363MOL0     H48972   0.039   8.450   0.392 -0.9628  3.0093 -0.4757
  363MOL0     H48973  -0.200   8.277   0.285 -0.8612 -0.9613 -2.4628
  363MOL0     H48974  -0.100   8.383   0.178  0.9718 -1.7301 -1.9206
  363MOL0     H48975   0.047   8.184   0.350  0.7113  0.9563  0.1470
  363MOL0     H48976   0.073   8.240   0.179 -1.2036  1.7179 -0.0724
  363MOL0     H48977  -0.116   8.106   0.103 -0.5581 -3.5129  0.5894
  363MOL0     H48978   0.022   8.035   0.166 -0.2842 -0.4674 -0.9822
  363MOL0     H48979  -0.245   8.050   0.298  2.2386  3.7338  0.1945
  363MOL0     H48980  -0.109   8.019   0.391 -0.1062  0.2644  0.4340
  363MOL0     H48981  -0.069   7.809   0.256  0.3057  1.6708  0.9735
  363MOL0     H48982  -0.213   7.818   0.349  1.3410 -0.2331  0.4656
  363MOL0     H48983  -0.187   7.867   0.044  0.5307  0.1961  0.0306
  363MOL0     H48984  -0.337   7.868   0.138 -0.6420 -1.6626 -0.1267
  363MOL0     H48985  -0.331   7.644   0.199 -1.8347  0.4433 -0.7890
  363MOL0     H48986  -0.169   7.622   0.111 -0.1896 -0.4726  0.3716
  363MOL0     H48987  -0.299   8.349   0.678 -0.1188  0.9372  2.4214
  363MOL0     H48988  -0.296   8.459   0.911  0.2021 -0.4623  0.3994
  363MOL0     H48989   0.075   8.738   1.116  1.9811  1.5685  1.2116
  363MOL0     H48990   0.197   8.807   1.307 -0.1107 -0.1745  0.3782
  363MOL0     H48991   1.678   9.802   1.393 -1.0209  0.0838  0.2156
  363MOL0     H48992   1.708   9.966   1.208  1.9834 -1.6068  3.1018
  363MOL0     H48993   1.912   9.954   0.667  0.3531  1.0753  1.1748
  363MOL0     H48994   1.900  10.102   0.471  1.9998 -3.7748  1.6717
  363MOL0     H48995   1.601  10.032   0.301 -1.8126 -1.0938 -1.6007
  363MOL0     H48996   1.496  10.166   0.262  0.2790 -1.2188 -1.2536
  363MOL0     H48997   1.642  10.263   0.109  0.2391 -1.0247 -2.0355
  363MOL0     H48998   1.614  10.098   0.061 -0.7357  1.7934 -0.6005
  363MOL0     H48999   1.801   9.997   0.143 -0.4589  0.4578 -1.8416
  363MOL0     H49000   1.862  10.143   0.217  0.2289  1.3350 -0.0595
  363MOL0     H49001   1.809  10.103  -0.092 -1.3775  0.2015  1.8280
  363MOL0     H49002   1.965  10.090  -0.005  1.2439  1.9870  1.6860
  363MOL0     H49003   1.904  10.506  -0.023  0.7500 -0.2981  2.7146
  363MOL0     H49004   1.488  10.184   0.574 -1.0916  0.4294  0.2617
  363MOL0     H49005   1.510  10.060   0.761  0.2486 -1.3809  0.1897
  364MOL0     O49006   1.149   6.334   5.867  0.2639 -0.4001 -0.3956
  364MOL0     C49007   1.271   6.353   5.862 -0.6046 -0.8073  0.7979
  364MOL0     O49008   1.372   6.369   5.969 -0.2542 -0.4713  0.2132
  364MOL0     C49009   1.328   6.418   6.093 -0.2266  0.5114 -0.7840
  364MOL0     C49010   1.240   6.527   6.091  0.7252 -1.0313  0.2629
  364MOL0     C49011   1.207   6.592   6.211  0.6368  0.4089 -0.6835
  364MOL0     C49012   1.264   6.549   6.334  0.0295 -0.4290 -1.1075
  364MOL0     O49013   1.220   6.603   6.451 -0.3412  0.2321 -0.2645
  364MOL0     C49014   1.328   6.659   6.539  0.4911 -0.6151  0.3113
  364MOL0     C49015   1.266   6.729   6.660  0.5755  0.3095  0.5291
  364MOL0     C49016   1.178   6.630   6.746 -0.1576 -0.2774 -0.3389
  364MOL0     C49017   1.029   6.646   6.722  0.5515  0.5519 -0.2493
  364MOL0     C49018   0.925   6.587   6.811 -0.8468 -1.1493 -0.6882
  364MOL0     C49019   0.824   6.702   6.876 -0.3403 -0.1185  0.8893
  364MOL0     C49020   0.701   6.639   6.937  0.3033  0.3988  0.4717
  364MOL0     C49021   0.609   6.753   6.998  0.4237  0.2543  0.1803
  364MOL0     N49022   0.505   6.706   7.093  0.2508 -0.1205  0.8816
  364MOL0     C49023   0.398   6.616   7.064  0.4031 -0.4822  0.2156
  364MOL0     C49024   0.357   6.561   7.176 -0.6928 -0.3336  0.0886
  364MOL0     C49025   0.259   6.445   7.185 -0.1384  0.1125  0.2086
  364MOL0     C49026   0.330   6.304   7.195  0.3200 -0.6747  0.6840
  364MOL0     C49027   0.400   6.260   7.060  0.4203  0.7590  0.6175
  364MOL0     C49028   0.293   6.227   6.952 -0.0724 -0.6387 -0.5635
  364MOL0     O49029   0.283   6.354   6.886  0.0708  0.5148 -0.2886
  364MOL0     C49030   0.203   6.363   6.774 -0.2050 -0.1761 -0.8175
  364MOL0     C49031   0.072   6.318   6.767 -0.1401  0.5691  0.4647
  364MOL0     C49032  -0.015   6.344   6.653 -0.1971 -0.1933 -0.7401
  364MOL0     C49033  -0.167   6.302   6.658 -0.2468 -0.2191  1.0169
  364MOL0     C49034   0.042   6.412   6.540 -0.0615  0.0945 -0.4642
  364MOL0     C49035  -0.020   6.424   6.399 -0.4649 -0.0528 -0.0300
  364MOL0     O49036   0.049   6.497   6.303  0.6635  0.1961  0.2766
  364MOL0     C49037   0.002   6.506   6.167 -0.5443  0.4572 -0.3096
  364MOL0     C49038   0.017   6.386   6.089  0.3233 -0.1945  0.4824
  364MOL0     C49039  -0.040   6.382   5.960  0.6247  0.0690  0.0608
  364MOL0     C49040  -0.101   6.499   5.901 -0.4339  0.7366 -0.3766
  364MOL0     O49041  -0.117   6.487   5.769 -0.2703  0.3240  0.1780
  364MOL0     C49042  -0.011   6.431   5.691 -0.0370 -0.9749 -0.9126
  364MOL0     C49043  -0.038   6.468   5.544 -0.0148 -0.5767  0.7512
  364MOL0     C49044   0.089   6.458   5.452  1.0629  0.9977  0.5109
  364MOL0     C49045   0.162   6.596   5.431  0.3021  0.9977  0.2949
  364MOL0     C49046   0.102   6.688   5.320  0.4357 -0.1121 -0.3333
  364MOL0     C49047   0.145   6.652   5.176  0.4523 -0.6562  0.6457
  364MOL0     C49048   0.078   6.740   5.069 -0.5119  0.4439  0.0959
  364MOL0     C49049   0.101   6.881   5.101 -0.6349 -0.2450 -0.4424
  364MOL0    Cl49050   0.079   6.987   4.959  0.5099 -0.0428 -0.2566
  364MOL0     C49051  -0.106   6.617   5.977 -0.0163 -0.0825  0.5589
  364MOL0     C49052  -0.060   6.619   6.111 -0.3075 -0.4729 -0.2663
  364MOL0     O49053  -0.128   6.366   6.379  0.5406  0.0149  0.1940
  364MOL0     C49054   0.177   6.459   6.554  0.4704  0.1768  0.2835
  364MOL0     C49055   0.249   6.441   6.677  0.1075  0.1188  0.1569
  364MOL0     N49056   0.438   6.617   7.280 -0.6655 -0.1047 -0.1226
  364MOL0     N49057   0.523   6.704   7.227  0.2427 -0.0425  0.1612
  364MOL0     C49058   1.353   6.443   6.336 -0.1852 -0.7345  0.0640
  364MOL0     C49059   1.387   6.379   6.210  0.0053 -0.1043  0.1654
  364MOL0     C49060   1.315   6.375   5.723 -0.7473 -0.2448 -0.7693
  364MOL0     C49061   1.449   6.406   5.697 -0.5876  0.4822 -0.5033
  364MOL0     C49062   1.487   6.430   5.567 -0.5997 -0.0936  0.3353
  364MOL0     C49063   1.398   6.427   5.454  0.6451 -0.9042  0.5632
  364MOL0     O49064   1.432   6.463   5.330  1.2874  0.3469 -1.1302
  364MOL0     C49065   1.362   6.558   5.251 -0.9132  0.5383  0.5459
  364MOL0     C49066   1.426   6.608   5.126 -0.7676  0.8674  0.2522
  364MOL0     C49067   1.475   6.487   5.042 -0.1434  0.3362 -0.1885
  364MOL0     C49068   1.498   6.517   4.884 -0.2180 -0.3641 -0.0791
  364MOL0     C49069   1.606   6.614   4.857 -0.1016 -0.3558 -0.1767
  364MOL0     C49070   1.701   6.680   4.817 -0.4119 -0.1556  0.0293
  364MOL0     C49071   1.258   6.411   5.487 -0.8910  0.5553 -0.1213
  364MOL0     C49072   1.224   6.389   5.622  0.7557 -0.3785  0.4004
  364MOL0     H49073   1.193   6.561   5.999  0.8377  1.4685  1.0580
  364MOL0     H49074   1.128   6.667   6.218 -0.1687 -0.2881 -1.9819
  364MOL0     H49075   1.404   6.588   6.573  1.6437  0.7052  0.5719
  364MOL0     H49076   1.380   6.739   6.485 -2.5791  1.1753 -0.2068
  364MOL0     H49077   1.347   6.770   6.722  1.0696  1.6892 -0.9574
  364MOL0     H49078   1.203   6.814   6.633  0.3555  0.1194  0.4461
  364MOL0     H49079   1.208   6.525   6.749 -3.1051 -1.1907  1.3861
  364MOL0     H49080   1.209   6.656   6.848 -0.8999 -2.1885  0.4133
  364MOL0     H49081   1.005   6.752   6.716  1.9145  1.0639  2.1037
  364MOL0     H49082   1.009   6.599   6.625  0.4796  1.5408 -0.7175
  364MOL0     H49083   0.870   6.505   6.763 -1.3338 -1.6734  0.7310
  364MOL0     H49084   0.979   6.539   6.893  2.2482  3.4607  0.3093
  364MOL0     H49085   0.894   6.756   6.941 -0.6086  0.5139  0.6597
  364MOL0     H49086   0.796   6.777   6.801 -0.7230 -2.2837 -1.2612
  364MOL0     H49087   0.642   6.595   6.857 -1.4909  3.1530  0.1321
  364MOL0     H49088   0.728   6.567   7.015  1.8888 -1.1853 -1.4290
  364MOL0     H49089   0.565   6.817   6.921 -0.6808  2.5346  2.5230
  364MOL0     H49090   0.680   6.814   7.056  1.1348 -2.9723  3.0385
  364MOL0     H49091   0.365   6.583   6.966  0.0852 -2.6210  1.0030
  364MOL0     H49092   0.193   6.459   7.271 -1.1400 -2.0034 -0.1619
  364MOL0     H49093   0.187   6.439   7.103 -0.3867  1.9987  0.2401
  364MOL0     H49094   0.262   6.226   7.230  0.0326 -1.4473 -1.4499
  364MOL0     H49095   0.414   6.317   7.263  2.8153 -1.3803 -2.0798
  364MOL0     H49096   0.444   6.162   7.082 -0.2717  0.0486 -0.9948
  364MOL0     H49097   0.476   6.333   7.030 -1.6583  2.2953 -1.2229
  364MOL0     H49098   0.199   6.193   6.997  0.0341 -1.0063 -0.6176
  364MOL0     H49099   0.348   6.158   6.887 -0.4614  0.1893 -1.8008
  364MOL0     H49100   0.021   6.269   6.849  0.2630 -0.0061  0.3727
  364MOL0     H49101  -0.230   6.390   6.671 -2.2864 -0.7466 -3.4307
  364MOL0     H49102  -0.192   6.249   6.566 -2.2592 -1.0130  1.9665
  364MOL0     H49103  -0.180   6.228   6.738  0.8083 -1.7964 -0.1931
  364MOL0     H49104   0.055   6.293   6.129 -0.3292 -2.2787 -3.2716
  364MOL0     H49105  -0.048   6.291   5.902  2.9050 -0.9993  1.2863
  364MOL0     H49106   0.085   6.471   5.725 -0.7911 -0.5317  0.8221
  364MOL0     H49107  -0.009   6.322   5.697 -0.6248 -0.9788 -0.7122
  364MOL0     H49108  -0.121   6.410   5.502 -0.1411 -1.3492  1.9996
  364MOL0     H49109  -0.082   6.567   5.532 -0.0268 -0.7415 -0.6649
  364MOL0     H49110   0.058   6.410   5.359  3.6849 -0.4539  0.2886
  364MOL0     H49111   0.160   6.384   5.491  0.3686 -0.6013 -1.1363
  364MOL0     H49112   0.172   6.639   5.531 -0.9183 -0.5024  1.1182
  364MOL0     H49113   0.263   6.574   5.398 -0.2027 -2.0852  0.5169
  364MOL0     H49114   0.131   6.786   5.358  1.0346  0.2990 -1.8024
  364MOL0     H49115  -0.007   6.682   5.327 -0.2890 -1.0853 -6.4634
  364MOL0     H49116   0.252   6.675   5.178  0.4036  0.3348 -2.3686
  364MOL0     H49117   0.122   6.548   5.154  0.3337 -0.3962 -0.5343
  364MOL0     H49118  -0.025   6.706   5.053 -0.8589  0.1182  2.6758
  364MOL0     H49119   0.133   6.735   4.975 -1.7531 -0.4148 -0.6231
  364MOL0     H49120   0.198   6.892   5.151 -2.2559 -3.0195  3.9166
  364MOL0     H49121   0.036   6.900   5.187  1.1207 -3.6339  1.8483
  364MOL0     H49122  -0.148   6.707   5.935  4.1354  1.0101 -1.7583
  364MOL0     H49123  -0.087   6.705   6.171 -1.8972 -1.0575 -0.0737
  364MOL0     H49124   0.224   6.510   6.470  1.1487 -2.8921 -1.3392
  364MOL0     H49125   0.344   6.493   6.670  2.1172 -3.4472 -2.0489
  364MOL0     H49126   1.398   6.407   6.428  1.4029 -0.1359 -0.4407
  364MOL0     H49127   1.459   6.298   6.199 -0.8535 -0.8479 -0.0792
  364MOL0     H49128   1.525   6.396   5.773 -0.8934  3.7748  0.3997
  364MOL0     H49129   1.595   6.445   5.566 -0.3430 -1.7114  0.9071
  364MOL0     H49130   1.269   6.515   5.215 -0.0814 -0.6073 -0.3136
  364MOL0     H49131   1.348   6.645   5.317 -0.0295 -1.3858  3.5081
  364MOL0     H49132   1.511   6.677   5.138 -0.0592  0.2111 -0.8129
  364MOL0     H49133   1.354   6.651   5.056 -4.1938 -1.7746  1.8950
  364MOL0     H49134   1.404   6.405   5.029  0.1182  0.1951 -0.8103
  364MOL0     H49135   1.570   6.455   5.086  0.5447 -0.5913 -2.1921
  364MOL0     H49136   1.407   6.541   4.829  0.8167  0.5796 -1.4315
  364MOL0     H49137   1.527   6.424   4.834  0.3478  0.0626 -0.5477
  364MOL0     H49138   1.784   6.741   4.787 -1.4229  1.1044 -0.3102
  364MOL0     H49139   1.194   6.422   5.401  2.2755 -1.4042 -2.9778
  364MOL0     H49140   1.119   6.369   5.639  0.1280 -0.9907 -3.3360
  365MOL0     O49141   6.701  11.254   1.264 -0.4679  0.2601 -0.1578
  365MOL0     C49142   6.760  11.310   1.173 -0.9797 -0.9513  0.9284
  365MOL0     O49143   6.729  11.426   1.101  0.3521 -0.2476  0.3350
  365MOL0     C49144   6.596  11.458   1.109 -0.6305 -0.3004  0.5856
  365MOL0     C49145   6.507  11.417   1.010  1.1508  0.9291  0.0159
  365MOL0     C49146   6.370  11.440   1.025 -0.3435 -0.3406 -0.0190
  365MOL0     C49147   6.315  11.503   1.133  0.0112 -0.0108  0.1832
  365MOL0     O49148   6.174  11.511   1.141  0.5456 -0.8774  0.6412
  365MOL0     C49149   6.112  11.483   1.263  0.9816 -0.1431  0.2391
  365MOL0     C49150   5.964  11.452   1.222 -0.6625 -0.2929 -0.2042
  365MOL0     C49151   5.880  11.390   1.327  0.7119 -0.7097  0.0960
  365MOL0     C49152   5.888  11.464   1.466 -0.9348  1.1488 -0.1820
  365MOL0     C49153   5.792  11.404   1.571  0.2512  0.1336  0.3031
  365MOL0     C49154   5.641  11.440   1.541  0.5140 -0.3202  0.4461
  365MOL0     C49155   5.548  11.354   1.627 -0.1630  0.4474  0.1320
  365MOL0     C49156   5.408  11.406   1.638 -0.2022  0.7365  0.1469
  365MOL0     N49157   5.310  11.310   1.707 -0.0460 -0.3837 -0.4165
  365MOL0     C49158   5.262  11.342   1.835 -0.8387  0.1153  0.4487
  365MOL0     C49159   5.183  11.235   1.855 -0.4581 -0.7473  0.4363
  365MOL0     C49160   5.100  11.210   1.982  0.3598 -0.5474 -0.5705
  365MOL0     C49161   5.172  11.119   2.077  0.0762  0.3128  0.1385
  365MOL0     C49162   5.110  11.119   2.214 -0.6344  0.3350  0.4775
  365MOL0     C49163   4.973  11.049   2.217  0.2433  0.8078 -0.0200
  365MOL0     O49164   4.962  10.965   2.337  0.0271  0.2820  0.4732
  365MOL0     C49165   4.885  10.853   2.324  0.9444 -0.1443  0.5288
  365MOL0     C49166   4.925  10.751   2.251  0.2606 -0.0063 -0.1815
  365MOL0     C49167   4.864  10.630   2.232 -0.1246 -0.7876  0.1194
  365MOL0     C49168   4.934  10.524   2.159 -0.3756  0.6057 -0.2469
  365MOL0     C49169   4.733  10.617   2.281 -0.1198 -0.4594  0.6319
  365MOL0     C49170   4.657  10.494   2.271 -0.2691  0.3669 -0.4344
  365MOL0     O49171   4.524  10.513   2.234 -0.8656 -0.1110 -0.0810
  365MOL0     C49172   4.437  10.409   2.241 -0.2459  0.4994  0.1116
  365MOL0     C49173   4.332  10.404   2.142 -0.7504  0.2732 -0.4544
  365MOL0     C49174   4.235  10.311   2.147 -0.5862  0.6382 -0.2047
  365MOL0     C49175   4.254  10.199   2.232 -0.7137  0.6867  0.5447
  365MOL0     O49176   4.154  10.102   2.237 -0.9028  0.3633  0.4101
  365MOL0     C49177   4.204   9.968   2.201  0.1909 -0.1338  0.6552
  365MOL0     C49178   4.110   9.896   2.091 -0.1778 -0.2908  0.0067
  365MOL0     C49179   4.111   9.974   1.951  0.1341  0.5498 -0.0457
  365MOL0     C49180   4.249   9.994   1.898 -0.5726  0.2715  0.9023
  365MOL0     C49181   4.253  10.052   1.757 -0.8202 -0.8384 -0.7657
  365MOL0     C49182   4.396  10.078   1.690  1.3838  1.1294  0.5174
  365MOL0     C49183   4.374  10.130   1.548 -0.5460 -0.1277 -0.1275
  365MOL0     C49184   4.513  10.137   1.488  0.4380 -0.6878 -0.1178
  365MOL0    Cl49185   4.581   9.989   1.448 -0.3719  0.2516  0.1542
  365MOL0     C49186   4.361  10.202   2.321  0.5242 -0.0310  0.2492
  365MOL0     C49187   4.446  10.309   2.335  0.4625  0.4214 -0.3262
  365MOL0     O49188   4.710  10.389   2.309  0.5902 -0.3863  0.9183
  365MOL0     C49189   4.676  10.727   2.360 -0.2566  0.0407  0.0788
  365MOL0     C49190   4.751  10.844   2.369  0.0519  0.6973  0.1646
  365MOL0     N49191   5.172  11.151   1.748 -1.3507 -0.5540  0.2015
  365MOL0     N49192   5.253  11.198   1.657 -0.3645 -0.0056  0.4206
  365MOL0     C49193   6.406  11.533   1.238  0.0674 -0.3222  0.0712
  365MOL0     C49194   6.545  11.514   1.227 -0.5131  0.8099  0.0302
  365MOL0     C49195   6.889  11.251   1.136  0.3163  0.2642 -0.9993
  365MOL0     C49196   6.969  11.315   1.042 -0.2752 -0.6573 -0.0856
  365MOL0     C49197   7.091  11.255   0.993  0.5770 -0.3600 -0.4864
  365MOL0     C49198   7.123  11.128   1.041 -0.0191 -0.1182  0.2412
  365MOL0     O49199   7.237  11.064   1.013  0.1559 -0.3881  0.4373
  365MOL0     C49200   7.355  11.132   0.960  0.6049 -0.2605 -0.3744
  365MOL0     C49201   7.430  11.192   1.069  0.0622  0.0658 -0.4342
  365MOL0     C49202   7.576  11.210   1.020  0.2438  0.1537 -0.3609
  365MOL0     C49203   7.659  11.267   1.144  0.7485  0.7749  0.7665
  365MOL0     C49204   7.642  11.205   1.276 -0.0510 -0.0070 -0.0882
  365MOL0     C49205   7.621  11.153   1.387 -0.0042  0.1577  0.3389
  365MOL0     C49206   7.040  11.066   1.130  0.4714  0.1993 -1.1174
  365MOL0     C49207   6.935  11.124   1.190  0.0639 -1.4107  0.6322
  365MOL0     H49208   6.541  11.355   0.928 -0.7828 -2.2076  1.3762
  365MOL0     H49209   6.312  11.395   0.945 -1.6664 -2.5655  2.0641
  365MOL0     H49210   6.153  11.397   1.318  2.9348 -0.5159 -1.6501
  365MOL0     H49211   6.114  11.567   1.333  1.3164 -0.0939  0.1726
  365MOL0     H49212   5.918  11.541   1.178  0.7495 -0.7387 -2.8009
  365MOL0     H49213   5.959  11.384   1.136  0.7389 -2.4281  1.3279
  365MOL0     H49214   5.780  11.396   1.283 -0.8435 -1.7423  3.1770
  365MOL0     H49215   5.907  11.285   1.341 -2.7118 -1.5313  1.5992
  365MOL0     H49216   5.988  11.444   1.504 -0.9803  0.7963 -0.2486
  365MOL0     H49217   5.857  11.569   1.457 -0.0582  1.3788 -0.5633
  365MOL0     H49218   5.799  11.295   1.568 -1.5128 -0.0714  1.8495
  365MOL0     H49219   5.824  11.433   1.671  1.5430  1.4353 -0.4453
  365MOL0     H49220   5.626  11.542   1.575  0.0225 -0.0418 -0.5695
  365MOL0     H49221   5.617  11.430   1.435  0.7528  0.0203  0.3618
  365MOL0     H49222   5.553  11.260   1.573  0.3913  0.0372  0.8841
  365MOL0     H49223   5.582  11.340   1.730 -0.6232  4.9742  1.1177
  365MOL0     H49224   5.371  11.415   1.535 -3.3024 -2.1799  0.8407
  365MOL0     H49225   5.407  11.505   1.686 -0.5409 -1.1267  4.3964
  365MOL0     H49226   5.282  11.420   1.907  1.3761 -3.2686  3.8623
  365MOL0     H49227   5.081  11.309   2.023  2.4264  0.0748 -1.0316
  365MOL0     H49228   5.005  11.164   1.952 -1.0207  1.3185  0.7428
  365MOL0     H49229   5.272  11.163   2.083 -1.0123  3.0284  0.0329
  365MOL0     H49230   5.172  11.017   2.038 -2.2981  0.1119  0.4954
  365MOL0     H49231   5.101  11.220   2.255 -2.4308  0.5549 -0.3421
  365MOL0     H49232   5.192  11.066   2.264  0.0912  0.4515 -0.5672
  365MOL0     H49233   4.956  10.986   2.130  0.6875 -0.5093  0.8102
  365MOL0     H49234   4.905  11.134   2.211 -0.1313  0.7688  2.5711
  365MOL0     H49235   5.029  10.747   2.220  1.8279 -2.0652  4.5275
  365MOL0     H49236   4.864  10.498   2.079 -1.4552  1.7552  0.2840
  365MOL0     H49237   5.031  10.545   2.114  0.2896 -3.8891 -1.3522
  365MOL0     H49238   4.951  10.441   2.228  1.9427  0.9908 -0.2801
  365MOL0     H49239   4.322  10.484   2.069 -2.9190 -0.0729 -0.6117
  365MOL0     H49240   4.157  10.310   2.071  0.6515  0.6223 -1.5284
  365MOL0     H49241   4.305   9.972   2.160 -0.0018 -0.0299  0.1809
  365MOL0     H49242   4.198   9.906   2.291 -0.3655 -1.6918 -0.3960
  365MOL0     H49243   4.137   9.791   2.079 -0.2199 -0.1345 -1.7096
  365MOL0     H49244   4.006   9.910   2.121  0.6541  1.7439  2.3147
  365MOL0     H49245   4.054  10.066   1.963 -1.2077 -0.2135 -0.3789
  365MOL0     H49246   4.052   9.908   1.886  1.5624 -3.3819  2.2970
  365MOL0     H49247   4.307  10.062   1.961 -0.0294  0.2446  0.4410
  365MOL0     H49248   4.294   9.895   1.884 -2.6835 -0.5879 -0.2210
  365MOL0     H49249   4.211  10.153   1.753 -0.2212 -0.6177 -1.8952
  365MOL0     H49250   4.190   9.991   1.691 -1.0811 -2.3390  0.7956
  365MOL0     H49251   4.466  10.146   1.740  0.9438  3.2045 -1.5105
  365MOL0     H49252   4.448   9.981   1.696  0.0410  0.3316 -0.2245
  365MOL0     H49253   4.318  10.224   1.552  1.0062  1.3775 -5.1676
  365MOL0     H49254   4.315  10.058   1.490  1.9364 -2.0762 -0.4052
  365MOL0     H49255   4.582  10.191   1.553  0.3502  0.8915 -1.2781
  365MOL0     H49256   4.511  10.195   1.395  2.6762 -2.6251 -1.4958
  365MOL0     H49257   4.376  10.118   2.389 -0.1320  0.3139  0.8425
  365MOL0     H49258   4.522  10.319   2.412  0.5710  0.0258 -0.3779
  365MOL0     H49259   4.586  10.718   2.419 -0.8136  0.2464 -0.7251
  365MOL0     H49260   4.723  10.929   2.430  5.1514  2.2483  0.8465
  365MOL0     H49261   6.360  11.562   1.331  0.6469 -1.4384  0.7207
  365MOL0     H49262   6.609  11.541   1.311  0.0275 -1.4790  0.4409
  365MOL0     H49263   6.945  11.416   1.009  2.6553  0.6136  1.3096
  365MOL0     H49264   7.154  11.306   0.921  2.7398 -0.4956  1.2150
  365MOL0     H49265   7.408  11.050   0.912  0.0896 -0.6108 -0.3553
  365MOL0     H49266   7.334  11.212   0.888 -0.9911  0.2804  0.6361
  365MOL0     H49267   7.430  11.129   1.159 -3.2609  1.6667  0.8652
  365MOL0     H49268   7.386  11.291   1.085 -1.9630 -0.6908 -0.9821
  365MOL0     H49269   7.569  11.281   0.938 -1.8003 -1.0444 -1.2927
  365MOL0     H49270   7.629  11.121   0.983 -1.7786  0.0438 -3.3077
  365MOL0     H49271   7.630  11.370   1.168  0.3881  0.6998  0.6690
  365MOL0     H49272   7.765  11.262   1.120  0.9713  0.1654  1.8027
  365MOL0     H49273   7.599  11.117   1.485 -1.1511  1.2461  0.5038
  365MOL0     H49274   7.076  10.965   1.146  2.1594  0.6858 -1.6683
  365MOL0     H49275   6.880  11.071   1.267  2.7092 -1.4344  2.6163
  366MOL0     O49276   1.395   4.906   3.613  1.0367 -0.3963  0.9128
  366MOL0     C49277   1.315   4.990   3.582 -0.5163  0.5012  0.0214
  366MOL0     O49278   1.347   5.101   3.495  0.3691  0.4297 -0.1326
  366MOL0     C49279   1.470   5.114   3.438  0.4377  0.2685 -0.3950
  366MOL0     C49280   1.468   5.100   3.298 -0.0163  0.4264  1.0821
  366MOL0     C49281   1.586   5.085   3.223 -0.3190  0.0080  0.0052
  366MOL0     C49282   1.711   5.099   3.289 -0.2043  0.0587  0.3532
  366MOL0     O49283   1.826   5.102   3.213  0.5896  0.4234  0.2607
  366MOL0     C49284   1.949   5.161   3.257  0.7304 -0.0873 -0.6136
  366MOL0     C49285   2.044   5.184   3.144 -0.5066  0.6019 -0.6798
  366MOL0     C49286   2.148   5.075   3.098  1.0226 -0.5704  0.3727
  366MOL0     C49287   2.078   4.938   3.079 -0.2113  0.2082 -1.0846
  366MOL0     C49288   2.162   4.854   2.976 -0.6188 -0.2623 -0.2321
  366MOL0     C49289   2.297   4.812   3.024 -0.0637  1.0155 -0.5759
  366MOL0     C49290   2.365   4.727   2.921 -0.5645 -0.1423  0.0521
  366MOL0     C49291   2.499   4.672   2.961 -0.7008  0.2039  0.4694
  366MOL0     N49292   2.570   4.628   2.840 -0.5184 -0.6715  0.5769
  366MOL0     C49293   2.530   4.534   2.757 -0.0853  0.0381  0.5128
  366MOL0     C49294   2.628   4.522   2.668 -1.0539  0.4562  0.4481
  366MOL0     C49295   2.637   4.416   2.562 -0.0094  0.2770  0.0225
  366MOL0     C49296   2.737   4.459   2.455 -0.7777 -0.6604  0.5896
  366MOL0     C49297   2.725   4.394   2.317  0.5608 -0.9256  0.3959
  366MOL0     C49298   2.742   4.245   2.330 -0.2745  0.8705  0.1321
  366MOL0     O49299   2.763   4.171   2.200 -0.2308 -0.0404 -0.2530
  366MOL0     C49300   2.669   4.066   2.192 -0.1242 -0.4414  0.4646
  366MOL0     C49301   2.532   4.091   2.210  0.0896 -0.0550  0.5723
  366MOL0     C49302   2.436   3.989   2.213 -0.7539  0.1331 -0.3117
  366MOL0     C49303   2.288   4.034   2.196 -0.5291  0.3110 -0.1300
  366MOL0     C49304   2.475   3.851   2.220 -0.7318  0.7500 -0.3513
  366MOL0     C49305   2.394   3.737   2.270  1.1327  0.4405  0.4576
  366MOL0     O49306   2.310   3.754   2.381  0.3020  0.4886 -0.8127
  366MOL0     C49307   2.209   3.665   2.383  1.1229  0.0982 -0.2220
  366MOL0     C49308   2.109   3.649   2.282 -0.3673 -0.0261  0.2868
  366MOL0     C49309   1.997   3.573   2.299 -0.0740  0.5798 -0.0882
  366MOL0     C49310   1.990   3.490   2.411  1.1888  0.4831 -0.2632
  366MOL0     O49311   1.899   3.388   2.428 -0.0560 -0.4970 -0.0479
  366MOL0     C49312   1.846   3.333   2.307 -0.0080 -0.2216  0.8547
  366MOL0     C49313   1.755   3.220   2.326  0.2431  0.2212  0.8237
  366MOL0     C49314   1.643   3.236   2.430  1.5389  0.6887 -0.7915
  366MOL0     C49315   1.552   3.111   2.429 -0.3117  0.2809 -0.1875
  366MOL0     C49316   1.415   3.144   2.503 -1.3212  0.1408 -0.0075
  366MOL0     C49317   1.301   3.213   2.416 -0.0364 -0.0240  0.9826
  366MOL0     C49318   1.180   3.248   2.501 -0.4087 -0.0746  0.2225
  366MOL0     C49319   1.131   3.387   2.467  0.4216  0.0746 -0.4446
  366MOL0    Cl49320   1.039   3.394   2.317  0.1555 -0.2525  0.0284
  366MOL0     C49321   2.078   3.509   2.510  0.6091 -0.6257  0.1551
  366MOL0     C49322   2.184   3.597   2.499 -0.0677 -0.0832  0.7599
  366MOL0     O49323   2.424   3.632   2.210  0.3800  0.1364 -0.1971
  366MOL0     C49324   2.616   3.833   2.193 -0.0601 -0.1632  0.3975
  366MOL0     C49325   2.707   3.930   2.187  0.2804  0.6482  0.2904
  366MOL0     N49326   2.739   4.604   2.701 -0.2205  0.1133 -0.5022
  366MOL0     N49327   2.701   4.665   2.811 -0.8864 -0.0393 -0.2779
  366MOL0     C49328   1.711   5.120   3.430  0.2670 -1.0226  0.7001
  366MOL0     C49329   1.597   5.127   3.502 -0.0140 -0.8052 -0.0943
  366MOL0     C49330   1.169   4.973   3.608  0.6821 -0.6393  0.1501
  366MOL0     C49331   1.074   5.052   3.532 -0.6896 -1.0784 -0.3114
  366MOL0     C49332   0.939   5.021   3.541  0.4050 -0.2172 -0.0965
  366MOL0     C49333   0.881   4.932   3.622 -0.5406  0.8723 -0.3673
  366MOL0     O49334   0.738   4.898   3.635  0.4638  0.3975  0.1110
  366MOL0     C49335   0.660   4.906   3.515  0.7961  0.3596  0.0713
  366MOL0     C49336   0.550   5.019   3.507  0.4798  0.8288  0.8066
  366MOL0     C49337   0.464   4.999   3.382 -0.1064 -0.3796  0.1696
  366MOL0     C49338   0.360   5.110   3.378 -0.5976 -0.4049  0.8661
  366MOL0     C49339   0.410   5.247   3.321 -0.8791  0.4316  0.1606
  366MOL0     C49340   0.442   5.352   3.281  0.6759  0.1304 -1.1285
  366MOL0     C49341   0.972   4.870   3.710 -0.4593 -0.0248 -0.1924
  366MOL0     C49342   1.106   4.884   3.697 -0.2800  1.3669  0.2863
  366MOL0     H49343   1.377   5.094   3.239  1.8651 -0.4908 -1.9489
  366MOL0     H49344   1.579   5.087   3.114 -1.7978 -0.2685  0.0755
  366MOL0     H49345   1.925   5.256   3.305  0.7967 -0.2988 -0.1553
  366MOL0     H49346   2.007   5.099   3.326 -1.5604  0.7187  2.1947
  366MOL0     H49347   1.993   5.225   3.056 -0.5022 -0.2429 -1.0978
  366MOL0     H49348   2.116   5.257   3.180  1.2597 -1.8760  1.1429
  366MOL0     H49349   2.192   5.099   3.001  1.7390  0.6233  0.9700
  366MOL0     H49350   2.237   5.064   3.161  0.8836 -2.5391  0.3104
  366MOL0     H49351   2.070   4.887   3.176  3.4855 -1.3986 -1.4338
  366MOL0     H49352   1.983   4.939   3.026  0.1188 -2.0629 -1.8505
  366MOL0     H49353   2.104   4.763   2.956  0.1045 -1.5216  2.7603
  366MOL0     H49354   2.171   4.911   2.883 -0.0237  1.8798  1.0808
  366MOL0     H49355   2.355   4.900   3.055  0.7402  0.5631 -0.7580
  366MOL0     H49356   2.283   4.748   3.111  0.5557 -3.3728 -3.3624
  366MOL0     H49357   2.295   4.650   2.888 -2.0380  1.5479 -0.9599
  366MOL0     H49358   2.377   4.797   2.838  0.8136  2.6418  2.4148
  366MOL0     H49359   2.485   4.586   3.027  1.6697 -1.5186 -1.1408
  366MOL0     H49360   2.541   4.759   3.013 -1.6012 -0.1234  1.7917
  366MOL0     H49361   2.434   4.486   2.762  0.2214 -0.4743  3.8460
  366MOL0     H49362   2.690   4.336   2.614  1.9866  1.4456 -0.0967
  366MOL0     H49363   2.544   4.369   2.530  0.9137 -1.9040  0.3692
  366MOL0     H49364   2.841   4.446   2.486  0.0370  0.2265 -1.5456
  366MOL0     H49365   2.717   4.565   2.438 -2.2516 -0.7626  1.4721
  366MOL0     H49366   2.800   4.429   2.246  0.6432  1.1804  1.4379
  366MOL0     H49367   2.627   4.423   2.276  0.8513 -1.3883 -0.6451
  366MOL0     H49368   2.666   4.195   2.391  3.9373 -5.7116  1.0546
  366MOL0     H49369   2.834   4.220   2.383  0.5163 -2.3529 -2.4663
  366MOL0     H49370   2.485   4.189   2.205 -2.5142 -1.3027 -2.0684
  366MOL0     H49371   2.282   4.139   2.168  1.4275  1.1948  2.3522
  366MOL0     H49372   2.218   3.986   2.127  1.2185  0.2302 -1.9606
  366MOL0     H49373   2.240   4.022   2.293 -0.5783  2.2379  0.1249
  366MOL0     H49374   2.122   3.715   2.197 -1.2942 -0.6363 -0.3396
  366MOL0     H49375   1.917   3.575   2.225 -0.9559  0.2480  0.8376
  366MOL0     H49376   1.780   3.404   2.257 -0.3748 -2.7001 -2.6071
  366MOL0     H49377   1.919   3.303   2.231 -1.2396  0.0114 -0.4703
  366MOL0     H49378   1.706   3.196   2.231  0.6422 -1.8458  1.0926
  366MOL0     H49379   1.821   3.136   2.350 -1.3600 -1.3713 -0.1553
  366MOL0     H49380   1.581   3.326   2.419 -1.0238 -0.9816 -0.6734
  366MOL0     H49381   1.697   3.249   2.524  2.7832  0.2089 -1.4091
  366MOL0     H49382   1.526   3.086   2.326 -0.5595 -0.0521 -0.0467
  366MOL0     H49383   1.599   3.024   2.475  2.4920  1.2500 -1.0142
  366MOL0     H49384   1.436   3.211   2.588 -1.8120 -0.6555  0.7505
  366MOL0     H49385   1.369   3.053   2.540  1.3778 -1.0450  0.7016
  366MOL0     H49386   1.349   3.308   2.393 -2.3630  1.4884  1.9428
  366MOL0     H49387   1.284   3.157   2.324 -1.9975 -0.0504  1.3014
  366MOL0     H49388   1.210   3.263   2.605  0.3326  1.5495 -0.1835
  366MOL0     H49389   1.099   3.175   2.494 -1.7084  1.3883 -1.0287
  366MOL0     H49390   1.214   3.457   2.480  0.4378 -0.2764  1.7020
  366MOL0     H49391   1.055   3.404   2.545 -1.4601 -3.3983 -1.3349
  366MOL0     H49392   2.070   3.461   2.606  1.7401  2.9000  2.2007
  366MOL0     H49393   2.256   3.607   2.579 -0.0597  1.8180  0.5631
  366MOL0     H49394   2.656   3.733   2.177 -1.4425 -0.5742 -0.6129
  366MOL0     H49395   2.811   3.897   2.183 -0.0933 -0.9758  2.4234
  366MOL0     H49396   1.802   5.151   3.480  1.6751  1.8455 -3.0964
  366MOL0     H49397   1.601   5.143   3.609 -1.6614  0.4991 -0.1930
  366MOL0     H49398   1.115   5.119   3.458 -0.5374  1.0058  1.5539
  366MOL0     H49399   0.870   5.072   3.474  1.2104 -0.0866 -0.8549
  366MOL0     H49400   0.715   4.893   3.421  2.2880  4.0334  0.2791
  366MOL0     H49401   0.587   4.824   3.519  0.2004  0.9278  1.3463
  366MOL0     H49402   0.610   5.111   3.512 -2.1922  2.6853  1.1310
  366MOL0     H49403   0.485   5.016   3.595  0.7666  1.9233  1.0723
  366MOL0     H49404   0.414   4.907   3.413 -0.6681  0.4352  1.7780
  366MOL0     H49405   0.521   4.993   3.288  0.3125 -1.5117  0.4717
  366MOL0     H49406   0.318   5.114   3.479 -0.0879  1.9924  1.0542
  366MOL0     H49407   0.283   5.090   3.303  0.2354 -0.8252  0.1148
  366MOL0     H49408   0.455   5.448   3.236 -0.4519  0.5330 -0.6195
  366MOL0     H49409   0.934   4.810   3.792  0.2182  2.2203  1.8531
  366MOL0     H49410   1.162   4.807   3.749  1.6795  1.0859 -2.0708
  367MOL0     O49411   1.573   4.197  10.034 -0.0786  0.1046  0.2047
  367MOL0     C49412   1.660   4.286  10.017  0.8283 -1.3273  0.2136
  367MOL0     O49413   1.629   4.408   9.964  0.0404 -0.2726  0.1619
  367MOL0     C49414   1.501   4.432   9.950 -0.1992  0.3939 -1.4353
  367MOL0     C49415   1.444   4.522  10.049 -0.2366 -0.3538  0.2169
  367MOL0     C49416   1.312   4.555  10.032  0.4353 -0.2590 -0.3952
  367MOL0     C49417   1.239   4.519   9.918 -0.7206 -0.0005 -0.2204
  367MOL0     O49418   1.117   4.588   9.907  0.5324  0.5860 -0.5886
  367MOL0     C49419   1.039   4.554   9.799 -0.0151  0.1141  0.9162
  367MOL0     C49420   0.905   4.619   9.811  0.8844 -0.9176 -0.0482
  367MOL0     C49421   0.899   4.769   9.832  0.2228 -0.0639 -0.0324
  367MOL0     C49422   0.759   4.825   9.803 -0.1721  1.1701 -0.5819
  367MOL0     C49423   0.752   4.980   9.817  0.3185  0.2239 -0.0069
  367MOL0     C49424   0.703   5.037   9.955 -0.0636 -0.0324  1.2814
  367MOL0     C49425   0.709   5.190   9.961  0.5413 -0.3201 -0.5054
  367MOL0     C49426   0.650   5.261  10.087 -0.6063 -0.2063  0.4619
  367MOL0     N49427   0.514   5.221  10.108 -0.0048  0.7025 -0.5977
  367MOL0     C49428   0.420   5.216  10.012  0.3937 -0.4935  0.0711
  367MOL0     C49429   0.325   5.145  10.066 -0.5767  0.5880 -0.3384
  367MOL0     C49430   0.187   5.114  10.014  0.6785  0.7191 -0.3154
  367MOL0     C49431   0.167   5.020   9.895  0.4959 -0.2086  0.4212
  367MOL0     C49432   0.012   5.018   9.878  0.5330 -0.4904  0.1947
  367MOL0     C49433  -0.037   4.930   9.770 -0.6743 -0.4177  0.6492
  367MOL0     O49434  -0.167   4.966   9.733  0.2815  0.1673  0.8613
  367MOL0     C49435  -0.264   4.962   9.825  0.4265  0.1626 -0.2706
  367MOL0     C49436  -0.279   4.857   9.911  0.0688 -0.4699  0.6279
  367MOL0     C49437  -0.368   4.858  10.014  0.6481 -0.5596 -0.7973
  367MOL0     C49438  -0.348   4.740  10.104 -0.4315 -0.0122  0.0031
  367MOL0     C49439  -0.460   4.967  10.027  0.1740  0.7271 -0.1253
  367MOL0     C49440  -0.540   4.994  10.148  0.3018 -0.4458 -0.8435
  367MOL0     O49441  -0.496   4.935  10.271 -1.2388 -0.0195  1.1855
  367MOL0     C49442  -0.562   4.943  10.383  0.7351  0.1172  0.3436
  367MOL0     C49443  -0.571   5.063  10.454 -0.8453 -0.5452 -0.7057
  367MOL0     C49444  -0.660   5.069  10.566  0.0495  0.4053 -1.2974
  367MOL0     C49445  -0.724   4.956  10.611  0.7998 -0.3024 -0.1341
  367MOL0     O49446  -0.809   4.960  10.715 -0.2886  0.3910  0.4885
  367MOL0     C49447  -0.826   4.838  10.789  0.0626 -0.0353 -0.1627
  367MOL0     C49448  -0.973   4.781  10.777  0.5949  0.7693  0.3929
  367MOL0     C49449  -0.982   4.627  10.799 -0.6222 -0.7502 -0.2304
  367MOL0     C49450  -1.100   4.565  10.722  0.3279 -0.6808  1.0361
  367MOL0     C49451  -1.226   4.582  10.808  0.0046  0.3010 -0.1387
  367MOL0     C49452  -1.351   4.560  10.726 -0.0135  0.0158 -0.4100
  367MOL0     C49453  -1.389   4.414  10.703  0.6113  0.7476  0.3460
  367MOL0     C49454  -1.530   4.393  10.638 -0.8611 -1.4389  0.5708
  367MOL0    Cl49455  -1.559   4.221  10.602  0.1269  0.2695 -0.6344
  367MOL0     C49456  -0.719   4.837  10.528  1.0448 -0.5639 -0.4925
  367MOL0     C49457  -0.640   4.831  10.417 -0.4999  0.0027  0.0935
  367MOL0     O49458  -0.629   5.074  10.137 -0.2791  0.1205 -0.1195
  367MOL0     C49459  -0.464   5.062   9.925 -0.0855  0.8143 -0.4775
  367MOL0     C49460  -0.355   5.068   9.831  1.2251 -0.4695  0.2531
  367MOL0     N49461   0.361   5.092  10.182 -0.1585  0.0287  0.5067
  367MOL0     N49462   0.484   5.139  10.214 -0.2243  0.9058  0.7983
  367MOL0     C49463   1.294   4.426   9.827  0.1978  0.1555 -0.2600
  367MOL0     C49464   1.426   4.376   9.846  0.0912 -0.2738 -0.1295
  367MOL0     C49465   1.801   4.266  10.036 -0.3175 -0.0788  0.7691
  367MOL0     C49466   1.841   4.186  10.140  0.3528 -0.4781 -0.4082
  367MOL0     C49467   1.973   4.167  10.176 -0.0658 -0.9792  0.2822
  367MOL0     C49468   2.072   4.218  10.101 -0.0062  0.3935  0.0940
  367MOL0     O49469   2.199   4.184  10.142 -0.7304  0.1534 -0.5530
  367MOL0     C49470   2.311   4.271  10.120 -0.5905 -0.1850 -0.2332
  367MOL0     C49471   2.406   4.213  10.025  0.4603 -0.4456  0.3164
  367MOL0     C49472   2.552   4.257  10.058  0.0395 -0.0559  0.0695
  367MOL0     C49473   2.656   4.189   9.964  0.3872 -0.1705 -0.9390
  367MOL0     C49474   2.658   4.042   9.977  0.1907 -0.3253 -0.6153
  367MOL0     C49475   2.674   3.920  10.002  0.3527 -0.3688 -0.2765
  367MOL0     C49476   2.038   4.305  10.002  0.2819 -0.3429  0.1324
  367MOL0     C49477   1.904   4.336   9.967 -0.7523  0.6093  0.8354
  367MOL0     H49478   1.489   4.556  10.142 -1.9487 -1.0818  1.3739
  367MOL0     H49479   1.266   4.629  10.096 -0.3830  0.7805 -2.1101
  367MOL0     H49480   1.089   4.589   9.708 -1.4637 -0.3847 -0.1040
  367MOL0     H49481   1.032   4.447   9.775  1.5358  0.1569  0.0911
  367MOL0     H49482   0.846   4.600   9.722  0.1978  1.3375 -0.1563
  367MOL0     H49483   0.850   4.570   9.892 -0.7074  1.1781  0.2346
  367MOL0     H49484   0.926   4.811   9.930 -0.2652  2.0627 -0.7418
  367MOL0     H49485   0.969   4.821   9.766  0.3072  0.3093  0.3417
  367MOL0     H49486   0.731   4.796   9.701 -0.5219  1.7048 -0.6420
  367MOL0     H49487   0.681   4.781   9.867 -1.5458  1.8782 -1.7034
  367MOL0     H49488   0.843   5.027   9.778 -1.0663  2.2440 -0.9495
  367MOL0     H49489   0.683   5.014   9.739  1.4553 -0.8668 -1.5701
  367MOL0     H49490   0.601   5.011   9.982 -0.0786  0.0652  1.3199
  367MOL0     H49491   0.764   4.978  10.024  2.0566 -1.2722 -1.4413
  367MOL0     H49492   0.811   5.229   9.953 -0.1565  1.2567 -2.4985
  367MOL0     H49493   0.648   5.225   9.877 -4.5828 -3.9236  1.1878
  367MOL0     H49494   0.649   5.368  10.066 -0.6383 -0.2978 -0.0029
  367MOL0     H49495   0.713   5.235  10.173 -0.2620 -0.8688  0.0118
  367MOL0     H49496   0.419   5.277   9.923 -1.1483 -1.5179 -0.6539
  367MOL0     H49497   0.140   5.069  10.102  4.3385 -0.2504  1.3356
  367MOL0     H49498   0.141   5.212  10.002  0.2010  0.6589  0.9617
  367MOL0     H49499   0.213   4.923   9.918 -0.7861 -1.1574 -0.8536
  367MOL0     H49500   0.210   5.064   9.805  0.4164  0.2708  0.6133
  367MOL0     H49501  -0.032   5.116   9.857  0.9324  0.0243  1.6204
  367MOL0     H49502  -0.031   4.981   9.972  3.7144 -2.0245  1.1852
  367MOL0     H49503  -0.030   4.823   9.796 -3.0069 -0.4100  1.5302
  367MOL0     H49504   0.038   4.943   9.692  2.4835 -0.0275  3.5108
  367MOL0     H49505  -0.211   4.775   9.894  1.6070  1.4791 -4.8752
  367MOL0     H49506  -0.298   4.655  10.057 -0.4339  1.6996 -3.4012
  367MOL0     H49507  -0.299   4.757  10.201  1.3162 -1.1427 -0.6429
  367MOL0     H49508  -0.450   4.707  10.127 -0.3352  0.3045  0.9580
  367MOL0     H49509  -0.503   5.138  10.416 -2.9337  1.8222 -0.0354
  367MOL0     H49510  -0.674   5.161  10.621 -0.9966 -0.3984 -0.1444
  367MOL0     H49511  -0.746   4.764  10.800  0.4600  0.6639  2.1912
  367MOL0     H49512  -0.825   4.866  10.894 -0.2958 -4.4271  1.2258
  367MOL0     H49513  -1.036   4.827  10.854 -0.8193  1.4903 -1.1465
  367MOL0     H49514  -1.006   4.815  10.679  2.5438 -0.6223 -0.8140
  367MOL0     H49515  -1.002   4.604  10.904 -0.3318  0.4938  0.1149
  367MOL0     H49516  -0.887   4.578  10.776  1.2670  1.8136  1.5356
  367MOL0     H49517  -1.097   4.607  10.621 -3.5886 -1.2902  0.5125
  367MOL0     H49518  -1.079   4.458  10.718 -3.2693 -1.4830  0.6739
  367MOL0     H49519  -1.220   4.685  10.845  1.2396  0.7116 -1.4022
  367MOL0     H49520  -1.229   4.512  10.893  1.0814 -0.7725 -0.9523
  367MOL0     H49521  -1.432   4.619  10.771  0.2004 -2.8891  4.4878
  367MOL0     H49522  -1.339   4.612  10.631 -2.7767  2.3307  0.3428
  367MOL0     H49523  -1.383   4.370  10.802  0.7359 -0.0081  0.0094
  367MOL0     H49524  -1.314   4.369  10.638 -0.5069  1.2962 -1.4104
  367MOL0     H49525  -1.542   4.454  10.548 -0.8268  1.0175  2.1491
  367MOL0     H49526  -1.613   4.419  10.705  1.0556  1.0750  2.1442
  367MOL0     H49527  -0.786   4.756  10.554 -0.5635  1.4684  2.0926
  367MOL0     H49528  -0.636   4.750  10.344  1.1517  2.7288 -3.1587
  367MOL0     H49529  -0.542   5.137   9.925 -1.8270 -0.7705 -3.6514
  367MOL0     H49530  -0.328   5.145   9.759  2.2994  0.8627  1.9916
  367MOL0     H49531   1.243   4.380   9.743  1.2813 -0.6812 -0.4707
  367MOL0     H49532   1.456   4.291   9.785  1.7673  1.3314 -1.6475
  367MOL0     H49533   1.775   4.132  10.207  0.5287  0.9014  0.9141
  367MOL0     H49534   2.005   4.098  10.253 -0.5050  0.5474  1.9166
  367MOL0     H49535   2.288   4.374  10.092 -2.4939 -1.0318 -2.0443
  367MOL0     H49536   2.358   4.287  10.218  1.6094 -0.3480 -1.2056
  367MOL0     H49537   2.367   4.235   9.925 -2.3941 -0.3902  1.3398
  367MOL0     H49538   2.400   4.105  10.040  0.9909 -0.4525  0.4889
  367MOL0     H49539   2.569   4.241  10.165 -0.8152  3.8303  0.9230
  367MOL0     H49540   2.559   4.366  10.059  0.4184  0.0928 -4.0922
  367MOL0     H49541   2.754   4.233   9.984  0.9583 -0.8751 -2.0690
  367MOL0     H49542   2.626   4.210   9.861 -0.9674 -1.3557 -0.8189
  367MOL0     H49543   2.686   3.815  10.019  0.4146 -0.4552 -0.8332
  367MOL0     H49544   2.116   4.357   9.948  0.8150  0.6405  1.8123
  367MOL0     H49545   1.876   4.400   9.884 -0.2556  1.5490  1.3863
  368MOL0     O49546   0.998   5.583  10.298  0.2427  0.4814  0.6533
  368MOL0     C49547   0.930   5.478  10.314  1.0743 -0.2541  0.2854
  368MOL0     O49548   0.795   5.477  10.327 -0.6132  0.3131 -0.1397
  368MOL0     C49549   0.726   5.578  10.379  0.7355 -0.6249  0.7423
  368MOL0     C49550   0.608   5.604  10.310  0.9986 -0.1090  0.8038
  368MOL0     C49551   0.520   5.710  10.350  0.7718  0.4179  0.9733
  368MOL0     C49552   0.556   5.781  10.465  0.3080  0.2871  0.5015
  368MOL0     O49553   0.465   5.874  10.515 -0.4832 -1.0842 -0.7150
  368MOL0     C49554   0.524   6.002  10.533 -0.4205 -1.0860  0.1230
  368MOL0     C49555   0.434   6.107  10.480  0.7272 -1.0749  0.5932
  368MOL0     C49556   0.294   6.116  10.557  0.5627 -0.4314 -0.1011
  368MOL0     C49557   0.172   6.116  10.460 -0.0282  0.5016 -0.2311
  368MOL0     C49558   0.044   6.127  10.541  0.1593 -0.3692  0.1927
  368MOL0     C49559  -0.077   6.150  10.455 -0.4819  0.5397  0.7039
  368MOL0     C49560  -0.210   6.151  10.530  0.1095  0.8305  0.2084
  368MOL0     C49561  -0.327   6.176  10.437 -0.2348  0.7168  0.8314
  368MOL0     N49562  -0.341   6.321  10.416 -0.6089 -0.2582  0.3626
  368MOL0     C49563  -0.388   6.405  10.505  1.0499 -0.7306  0.0296
  368MOL0     C49564  -0.378   6.535  10.460 -1.2964  0.5271  0.4897
  368MOL0     C49565  -0.425   6.652  10.530  1.0180  0.5193  0.3453
  368MOL0     C49566  -0.335   6.696  10.647  0.9342  0.6055 -0.2242
  368MOL0     C49567  -0.415   6.796  10.737 -0.1729  0.6263  0.3678
  368MOL0     C49568  -0.526   6.738  10.830  0.4535 -0.0136  0.2691
  368MOL0     O49569  -0.650   6.725  10.759 -0.7114 -0.0064  0.2381
  368MOL0     C49570  -0.728   6.615  10.790 -0.5422  0.8797  0.8971
  368MOL0     C49571  -0.663   6.491  10.779  0.9693 -0.4615 -0.5461
  368MOL0     C49572  -0.740   6.377  10.804  0.5850  0.2648 -0.9203
  368MOL0     C49573  -0.688   6.247  10.745 -0.0026 -0.0793 -0.2306
  368MOL0     C49574  -0.858   6.382  10.874  0.3098  0.6464 -0.3640
  368MOL0     C49575  -0.953   6.259  10.891  0.7443  0.1433  0.5039
  368MOL0     O49576  -1.086   6.294  10.872 -0.5809  0.1886 -0.2808
  368MOL0     C49577  -1.186   6.198  10.848  0.1347 -0.0597  1.0039
  368MOL0     C49578  -1.166   6.074  10.802 -0.2400  0.4590 -0.0130
  368MOL0     C49579  -1.280   5.998  10.767 -0.3781 -0.0405 -0.1375
  368MOL0     C49580  -1.410   6.041  10.794 -0.1378 -1.0085  0.1386
  368MOL0     O49581  -1.505   5.949  10.766 -0.0024  0.3238 -0.3920
  368MOL0     C49582  -1.637   5.982  10.779  0.7637  0.3677 -0.2769
  368MOL0     C49583  -1.720   5.855  10.773  0.0091  0.2012  0.5510
  368MOL0     C49584  -1.858   5.883  10.841  0.1237 -0.9293  0.6391
  368MOL0     C49585  -1.949   5.764  10.863 -1.0414 -0.4254 -0.6112
  368MOL0     C49586  -2.075   5.801  10.941  0.0161 -0.3641 -0.1899
  368MOL0     C49587  -2.181   5.696  10.965 -0.0001 -0.2006  0.2261
  368MOL0     C49588  -2.223   5.622  10.837 -0.3684  0.2896  0.5205
  368MOL0     C49589  -2.352   5.537  10.846 -0.6256 -0.7114  0.4318
  368MOL0    Cl49590  -2.331   5.395  10.945  0.2619 -0.2481 -0.0458
  368MOL0     C49591  -1.431   6.173  10.835  0.6234  0.9505  0.6522
  368MOL0     C49592  -1.317   6.251  10.864  0.1861  0.4400  0.0597
  368MOL0     O49593  -0.911   6.151  10.938 -0.4628 -0.2201  0.0339
  368MOL0     C49594  -0.916   6.508  10.904 -0.5613  0.8134 -0.2445
  368MOL0     C49595  -0.848   6.623  10.857 -0.1613 -0.4561 -0.2764
  368MOL0     N49596  -0.311   6.531  10.338  0.1073  0.1480  0.4127
  368MOL0     N49597  -0.277   6.405  10.322  0.2888  0.0408  0.5223
  368MOL0     C49598   0.678   5.757  10.530 -0.1215  0.7802  0.6698
  368MOL0     C49599   0.764   5.658  10.483 -0.8749  0.2471  0.0479
  368MOL0     C49600   0.991   5.346  10.302  0.2721 -0.0463  0.5594
  368MOL0     C49601   1.117   5.327  10.246  0.3354  0.0199  0.0577
  368MOL0     C49602   1.178   5.198  10.237 -0.0008  0.1904 -0.7391
  368MOL0     C49603   1.113   5.082  10.290  0.0683 -0.4072 -0.1054
  368MOL0     O49604   1.172   4.956  10.278  0.4813 -0.7640 -0.1768
  368MOL0     C49605   1.268   4.917  10.185  0.1225 -0.4175  0.2628
  368MOL0     C49606   1.207   4.904  10.052 -0.5352 -0.6260 -0.0184
  368MOL0     C49607   1.313   4.872   9.945 -0.7678 -0.1172  0.2327
  368MOL0     C49608   1.352   4.983   9.852 -0.0723  0.3880  0.0679
  368MOL0     C49609   1.248   5.037   9.761 -0.0022  0.4310  1.5366
  368MOL0     C49610   1.185   5.075   9.667  0.7184  0.4341  0.7086
  368MOL0     C49611   0.983   5.103  10.342 -0.6381 -0.3527  0.0006
  368MOL0     C49612   0.922   5.230  10.346 -0.7594 -0.3215  0.3255
  368MOL0     H49613   0.580   5.543  10.225 -2.7609  2.2801  0.1157
  368MOL0     H49614   0.429   5.730  10.295 -0.4900 -1.3266  2.2834
  368MOL0     H49615   0.555   6.029  10.635  0.8802  0.6116 -0.6650
  368MOL0     H49616   0.614   6.007  10.471 -0.1666  0.5553  0.5594
  368MOL0     H49617   0.484   6.204  10.473  2.6969 -1.9174  2.0697
  368MOL0     H49618   0.404   6.088  10.377 -1.7433 -0.8815  1.2053
  368MOL0     H49619   0.287   6.035  10.629 -1.7351  0.2658  0.5304
  368MOL0     H49620   0.299   6.207  10.618  3.7240 -1.2999  1.1345
  368MOL0     H49621   0.194   6.194  10.387 -0.5162 -1.1649 -2.2470
  368MOL0     H49622   0.179   6.024  10.403  1.7613  1.3226 -1.3944
  368MOL0     H49623   0.015   6.037  10.597  0.6328 -2.1517 -2.2454
  368MOL0     H49624   0.042   6.214  10.607 -0.3723  0.6483 -1.1282
  368MOL0     H49625  -0.073   6.234  10.384 -1.5702 -0.6540 -0.8289
  368MOL0     H49626  -0.091   6.063  10.390  0.1046  0.1834  1.0498
  368MOL0     H49627  -0.216   6.049  10.570 -1.3083  0.0939 -1.7112
  368MOL0     H49628  -0.209   6.221  10.614  1.7369  1.4447 -0.2727
  368MOL0     H49629  -0.410   6.126  10.487  0.2689 -1.2133 -0.1949
  368MOL0     H49630  -0.316   6.132  10.338 -3.1333 -0.2129  0.8565
  368MOL0     H49631  -0.425   6.392  10.606 -2.4867  2.2138 -0.6697
  368MOL0     H49632  -0.418   6.730  10.453  1.9023  0.9004  0.8053
  368MOL0     H49633  -0.530   6.631  10.553  0.3284  0.7840 -2.1790
  368MOL0     H49634  -0.250   6.748  10.601  0.6547  0.8711 -0.4503
  368MOL0     H49635  -0.309   6.606  10.703 -0.7824 -0.1770 -0.6185
  368MOL0     H49636  -0.442   6.883  10.677  1.1913  0.7200 -0.1562
  368MOL0     H49637  -0.340   6.829  10.811  0.0944 -1.5374  1.1211
  368MOL0     H49638  -0.553   6.804  10.913 -0.5026 -1.0841  0.8337
  368MOL0     H49639  -0.485   6.645  10.870  0.0208 -1.1556 -1.7888
  368MOL0     H49640  -0.566   6.494  10.731  0.7795  3.3081 -0.9576
  368MOL0     H49641  -0.769   6.174  10.736 -1.1608  0.8464  1.9785
  368MOL0     H49642  -0.652   6.262  10.643 -1.5761  2.0539 -0.5377
  368MOL0     H49643  -0.612   6.211  10.816 -0.0889  0.7365  0.2895
  368MOL0     H49644  -1.070   6.027  10.782 -0.5184 -0.3186  0.4245
  368MOL0     H49645  -1.267   5.898  10.726  1.0329  0.3530 -0.7262
  368MOL0     H49646  -1.656   6.037  10.871 -3.3258  0.0034 -0.6994
  368MOL0     H49647  -1.668   6.052  10.700  0.3317  4.0799  2.8990
  368MOL0     H49648  -1.719   5.821  10.669  2.0533  0.2077  0.5351
  368MOL0     H49649  -1.681   5.768  10.828 -3.7223 -1.6365  0.6044
  368MOL0     H49650  -1.908   5.963  10.784 -0.1899 -0.4189  1.6097
  368MOL0     H49651  -1.823   5.924  10.936  0.7429  0.6918 -0.2376
  368MOL0     H49652  -1.996   5.721  10.774  0.3993 -1.1995 -1.0413
  368MOL0     H49653  -1.882   5.693  10.914 -0.0968  1.2932  0.6310
  368MOL0     H49654  -2.131   5.880  10.889  1.3225  1.0972  0.5289
  368MOL0     H49655  -2.041   5.838  11.038 -0.0403  0.6734 -0.5551
  368MOL0     H49656  -2.142   5.641  11.051  1.6631  4.3189  2.7136
  368MOL0     H49657  -2.272   5.749  10.997 -1.0497 -1.3455 -0.7569
  368MOL0     H49658  -2.131   5.563  10.824 -0.4141  0.2415  0.4152
  368MOL0     H49659  -2.242   5.691  10.755  0.3704  0.3836  0.4134
  368MOL0     H49660  -2.377   5.499  10.747  0.9422 -2.5920  0.7092
  368MOL0     H49661  -2.434   5.604  10.874  0.9798  1.6152 -0.1365
  368MOL0     H49662  -1.530   6.216  10.852  0.7671  1.3564  0.4537
  368MOL0     H49663  -1.323   6.335  10.933  2.6227 -1.1004  2.3187
  368MOL0     H49664  -1.016   6.523  10.945 -2.4711 -3.5797 -2.5571
  368MOL0     H49665  -0.891   6.720  10.878  0.6336 -0.3629  1.0985
  368MOL0     H49666   0.715   5.820  10.611  3.4573 -1.8244  1.3361
  368MOL0     H49667   0.862   5.648  10.529 -1.0125  1.0881  0.5556
  368MOL0     H49668   1.176   5.408  10.205 -0.1271  0.7286  0.7673
  368MOL0     H49669   1.270   5.200  10.179  0.7779  1.1372  0.4831
  368MOL0     H49670   1.358   4.979  10.188  1.5828 -2.2518 -1.9325
  368MOL0     H49671   1.320   4.827  10.220 -0.9977 -1.3368 -0.3580
  368MOL0     H49672   1.158   4.999  10.030 -2.0907 -0.8026  2.3544
  368MOL0     H49673   1.128   4.828  10.058  0.0468 -1.2949 -0.5939
  368MOL0     H49674   1.277   4.788   9.885  1.3085 -0.2811 -0.8584
  368MOL0     H49675   1.402   4.843  10.001 -1.0227 -2.6367 -0.5587
  368MOL0     H49676   1.432   4.943   9.789  1.3699  0.7205  1.6110
  368MOL0     H49677   1.400   5.059   9.913  0.8274 -0.8759  0.9934
  368MOL0     H49678   1.139   5.099   9.573  0.8434 -3.3311 -0.4634
  368MOL0     H49679   0.941   5.021  10.400 -1.1967 -1.0923 -1.4221
  368MOL0     H49680   0.834   5.244  10.407 -1.6061 -6.1639  1.0624
  369MOL0     O49681  10.792   7.615   4.233  0.6064  0.1210  1.3297
  369MOL0     C49682  10.842   7.510   4.269 -0.8601  0.2620  0.2049
  369MOL0     O49683  10.819   7.384   4.212 -0.1948  0.6796 -0.0890
  369MOL0     C49684  10.742   7.384   4.098  0.6439 -0.0801  0.4534
  369MOL0     C49685  10.609   7.355   4.098  0.7394 -0.1685 -0.5055
  369MOL0     C49686  10.525   7.369   3.987  0.4020 -0.6187  0.4846
  369MOL0     C49687  10.575   7.417   3.869  0.3442  0.2530  0.2446
  369MOL0     O49688  10.486   7.435   3.771  1.0459  1.0043 -0.7082
  369MOL0     C49689  10.517   7.356   3.654  0.8137  0.0725  0.0455
  369MOL0     C49690  10.494   7.207   3.684  0.1465 -0.1407  1.2677
  369MOL0     C49691  10.354   7.161   3.726  0.0970  0.2653  0.4497
  369MOL0     C49692  10.248   7.176   3.613 -1.7979 -0.2801  0.2120
  369MOL0     C49693  10.102   7.129   3.642 -0.7514 -0.1407 -1.0078
  369MOL0     C49694  10.092   6.983   3.697 -0.1653  0.5631  0.2915
  369MOL0     C49695   9.943   6.952   3.710  1.1805 -0.4686 -0.4254
  369MOL0     C49696   9.936   6.820   3.797 -0.6075  0.3399 -0.2454
  369MOL0     N49697   9.983   6.695   3.730  0.5051 -0.6847 -0.6071
  369MOL0     C49698  10.103   6.639   3.744 -1.2296  0.7709 -0.2443
  369MOL0     C49699  10.093   6.530   3.669 -0.0640  0.1703 -0.2860
  369MOL0     C49700  10.201   6.423   3.644 -0.2390  0.1121  0.0620
  369MOL0     C49701  10.321   6.475   3.565  0.3085  0.0617 -0.0343
  369MOL0     C49702  10.427   6.535   3.659  0.1264  0.2589  0.0114
  369MOL0     C49703  10.540   6.602   3.577 -0.5685 -0.0830 -0.1344
  369MOL0     O49704  10.651   6.636   3.664  0.0239 -0.5682  0.1220
  369MOL0     C49705  10.769   6.643   3.607 -1.2275 -0.5935  1.0878
  369MOL0     C49706  10.793   6.694   3.472  0.5937  0.3416 -0.9913
  369MOL0     C49707  10.906   6.670   3.401  0.6446 -1.1413  0.4427
  369MOL0     C49708  10.908   6.722   3.255  0.4250  0.2970  0.1476
  369MOL0     C49709  11.013   6.614   3.476  0.4028 -0.7202  0.3243
  369MOL0     C49710  11.138   6.572   3.413 -0.3100 -0.3974  0.3459
  369MOL0     O49711  11.149   6.556   3.274 -0.6768 -0.2147  0.1466
  369MOL0     C49712  11.265   6.518   3.212  0.2480  0.4887 -0.2300
  369MOL0     C49713  11.302   6.572   3.087 -0.8648 -1.0424 -0.0929
  369MOL0     C49714  11.422   6.531   3.022  0.5231  0.1163 -1.0162
  369MOL0     C49715  11.503   6.430   3.082 -0.7346 -0.8286 -1.2134
  369MOL0     O49716  11.612   6.369   3.025 -0.0825 -0.0870 -0.3205
  369MOL0     C49717  11.641   6.382   2.886  0.8357  0.3579  0.3053
  369MOL0     C49718  11.760   6.290   2.843  0.0943 -0.9362 -0.3432
  369MOL0     C49719  11.770   6.278   2.702  0.3466  0.0496  0.6064
  369MOL0     C49720  11.911   6.254   2.652  0.3509  0.0835 -0.0671
  369MOL0     C49721  11.923   6.267   2.495 -0.0510  0.9711  0.5317
  369MOL0     C49722  12.051   6.201   2.446  0.8045  0.1429  0.5099
  369MOL0     C49723  12.071   6.227   2.295 -0.4799 -0.7922  0.4757
  369MOL0     C49724  12.216   6.192   2.247 -0.7301 -0.7368  0.3830
  369MOL0    Cl49725  12.243   6.020   2.252  0.2440  0.1036 -0.6430
  369MOL0     C49726  11.459   6.380   3.209  1.3103 -0.1802 -0.5708
  369MOL0     C49727  11.343   6.420   3.270  0.1018 -0.8570  0.1742
  369MOL0     O49728  11.237   6.580   3.486  0.0114  0.1244  0.0655
  369MOL0     C49729  11.005   6.580   3.607  0.1973  0.3972  0.0467
  369MOL0     C49730  10.882   6.589   3.670 -0.3584 -0.6166  0.0217
  369MOL0     N49731   9.971   6.526   3.604  1.2028 -0.1900 -0.6641
  369MOL0     N49732   9.903   6.615   3.649  0.8539  0.0432  0.0474
  369MOL0     C49733  10.708   7.461   3.867  0.5234  0.1863  1.0612
  369MOL0     C49734  10.794   7.436   3.979  0.2444 -0.3762 -0.2501
  369MOL0     C49735  10.939   7.512   4.376 -0.2066 -0.5185 -0.5678
  369MOL0     C49736  10.986   7.396   4.447 -0.3776  0.2357  0.1434
  369MOL0     C49737  11.076   7.410   4.551 -0.1547 -0.0475 -0.6059
  369MOL0     C49738  11.122   7.532   4.593 -0.0399  0.1301  0.0972
  369MOL0     O49739  11.219   7.528   4.694  0.3442 -0.1547  0.1530
  369MOL0     C49740  11.275   7.650   4.741  0.7090 -0.6463  0.8425
  369MOL0     C49741  11.353   7.603   4.862 -1.2391 -0.1481  0.1517
  369MOL0     C49742  11.408   7.719   4.935  0.0833 -0.1742 -0.4799
  369MOL0     C49743  11.436   7.673   5.082 -0.1897 -0.1981  0.0757
  369MOL0     C49744  11.520   7.779   5.140  0.1195  0.0158  0.6865
  369MOL0     C49745  11.601   7.866   5.170  1.5189  0.6369  0.0001
  369MOL0     C49746  11.073   7.649   4.532  1.3174 -0.6394  0.4975
  369MOL0     C49747  10.990   7.635   4.420  0.8173 -0.3799  0.8772
  369MOL0     H49748  10.561   7.304   4.181 -2.5798  0.2528 -2.0290
  369MOL0     H49749  10.422   7.342   4.010  0.9632 -3.7860 -0.2037
  369MOL0     H49750  10.439   7.380   3.582 -0.4021 -1.8284  0.6650
  369MOL0     H49751  10.618   7.372   3.615  0.4357  1.0695 -0.5632
  369MOL0     H49752  10.527   7.157   3.592 -0.9423 -0.1735  0.8781
  369MOL0     H49753  10.567   7.178   3.760  1.3893 -0.7526 -0.1005
  369MOL0     H49754  10.358   7.056   3.755  0.4683  0.5156  1.3482
  369MOL0     H49755  10.325   7.223   3.811 -0.0241  0.5831  0.1804
  369MOL0     H49756  10.251   7.281   3.583 -0.9684 -1.0563 -2.8098
  369MOL0     H49757  10.294   7.117   3.533  1.3826 -1.5436  2.7314
  369MOL0     H49758  10.048   7.195   3.711  2.5793  2.3474 -0.5225
  369MOL0     H49759  10.047   7.146   3.549 -3.3488  1.9640  0.7258
  369MOL0     H49760  10.140   6.907   3.635 -1.6868 -0.6639  0.5707
  369MOL0     H49761  10.139   6.983   3.796  1.5591 -3.4644 -0.3306
  369MOL0     H49762   9.888   7.029   3.763 -2.1035 -3.3088  0.6512
  369MOL0     H49763   9.894   6.941   3.613 -0.9780  0.7463  0.4593
  369MOL0     H49764   9.831   6.806   3.821 -0.4331  1.8290  1.6038
  369MOL0     H49765   9.996   6.837   3.887  2.4813  1.4900 -2.3259
  369MOL0     H49766  10.184   6.669   3.810  0.8638 -1.4628 -1.6593
  369MOL0     H49767  10.233   6.396   3.745 -1.6938  1.2227  0.8687
  369MOL0     H49768  10.153   6.331   3.609 -0.9878 -0.6559  2.8257
  369MOL0     H49769  10.275   6.553   3.504  2.1510  0.8987 -0.4313
  369MOL0     H49770  10.363   6.393   3.505 -0.6997 -0.3151 -0.2479
  369MOL0     H49771  10.452   6.449   3.722 -3.8330 -1.7675 -0.8891
  369MOL0     H49772  10.384   6.606   3.731  1.1710 -0.9096  1.8782
  369MOL0     H49773  10.500   6.694   3.534  0.8034 -0.1173 -1.5511
  369MOL0     H49774  10.590   6.535   3.507  1.1002 -0.0839  1.0004
  369MOL0     H49775  10.701   6.735   3.433 -1.6118 -2.2641  1.0506
  369MOL0     H49776  10.813   6.760   3.214  1.8916 -0.1057 -4.0800
  369MOL0     H49777  10.984   6.800   3.244 -0.6931  2.0178  3.3984
  369MOL0     H49778  10.939   6.634   3.199 -0.0552 -0.5361  1.1658
  369MOL0     H49779  11.239   6.654   3.052  1.8926 -0.1471 -3.5289
  369MOL0     H49780  11.447   6.577   2.927 -0.7307  1.5313 -0.6989
  369MOL0     H49781  11.562   6.334   2.828 -0.8189 -1.5601  3.7849
  369MOL0     H49782  11.655   6.482   2.844 -0.2045 -0.6546 -2.6518
  369MOL0     H49783  11.854   6.322   2.889 -1.1210 -1.9015  3.1576
  369MOL0     H49784  11.747   6.186   2.873  2.2305 -1.8038 -2.1567
  369MOL0     H49785  11.737   6.372   2.657  2.7859  0.1447 -1.2150
  369MOL0     H49786  11.705   6.195   2.673  1.2146 -0.6483  0.5900
  369MOL0     H49787  11.981   6.326   2.695  1.7653 -0.1511 -1.8451
  369MOL0     H49788  11.939   6.154   2.686  0.9349  0.7434  1.4795
  369MOL0     H49789  11.900   6.368   2.463 -1.4465 -0.1006 -2.1314
  369MOL0     H49790  11.840   6.213   2.448  1.7861 -0.5532 -1.1329
  369MOL0     H49791  12.138   6.236   2.503  0.4966 -2.3458  2.7479
  369MOL0     H49792  12.053   6.092   2.456  1.1401 -0.1190 -1.8450
  369MOL0     H49793  12.056   6.332   2.271 -1.2580 -1.0687 -0.2941
  369MOL0     H49794  11.992   6.171   2.244 -0.1368  0.3728 -1.4052
  369MOL0     H49795  12.290   6.249   2.303  0.5679 -0.4851 -1.5042
  369MOL0     H49796  12.230   6.224   2.143  1.5113 -0.3416  0.7548
  369MOL0     H49797  11.523   6.307   3.257  0.6220  0.0536  0.7284
  369MOL0     H49798  11.312   6.379   3.366  1.0833  0.6762  1.1854
  369MOL0     H49799  11.089   6.528   3.654  1.0747  0.0321 -1.8288
  369MOL0     H49800  10.863   6.555   3.771 -0.5240  0.0982  0.2363
  369MOL0     H49801  10.745   7.514   3.779 -0.1240 -2.4106 -0.9053
  369MOL0     H49802  10.901   7.452   3.972  0.0875  0.0808 -2.3460
  369MOL0     H49803  10.956   7.294   4.428 -0.4142 -0.4308  3.1503
  369MOL0     H49804  11.117   7.321   4.598 -1.4119 -1.3646 -1.8934
  369MOL0     H49805  11.341   7.697   4.668 -0.5353 -2.3742 -1.5540
  369MOL0     H49806  11.198   7.716   4.783 -0.3089 -0.7202 -0.8194
  369MOL0     H49807  11.438   7.543   4.828 -1.2765 -1.4278  2.1626
  369MOL0     H49808  11.285   7.546   4.925  0.6616 -0.8921  1.6225
  369MOL0     H49809  11.340   7.804   4.949 -1.4143 -1.2003 -1.2372
  369MOL0     H49810  11.498   7.768   4.897  1.7610  0.6903  4.0223
  369MOL0     H49811  11.496   7.582   5.088  1.4843  0.9600  4.1095
  369MOL0     H49812  11.344   7.643   5.134  1.4775 -2.2557  2.0568
  369MOL0     H49813  11.654   7.951   5.209 -0.8986  1.8293  0.9445
  369MOL0     H49814  11.118   7.745   4.558 -0.7151  0.1526  1.2818
  369MOL0     H49815  10.962   7.720   4.358  2.5269  0.2879  0.9559
  370MOL0     O49816   6.909   2.777   9.702  0.2694 -0.6382 -0.1376
  370MOL0     C49817   7.000   2.715   9.754  0.5567 -1.1757  0.3309
  370MOL0     O49818   6.986   2.598   9.817  0.4715 -0.6307 -0.4955
  370MOL0     C49819   6.862   2.550   9.827  0.5122 -0.0926  0.0583
  370MOL0     C49820   6.747   2.627   9.870  0.1254  0.3992 -0.0555
  370MOL0     C49821   6.618   2.568   9.873 -0.1051 -0.4312  0.3287
  370MOL0     C49822   6.601   2.427   9.853  1.7194  0.2318 -0.3849
  370MOL0     O49823   6.480   2.370   9.841  0.5679  0.5306  0.3186
  370MOL0     C49824   6.373   2.438   9.779  0.9767 -0.1033 -0.7992
  370MOL0     C49825   6.292   2.319   9.728 -0.4835 -0.0647 -0.2034
  370MOL0     C49826   6.165   2.363   9.665  0.3898  0.1358  0.8682
  370MOL0     C49827   6.070   2.425   9.774 -0.2083 -0.7633 -0.0893
  370MOL0     C49828   5.954   2.494   9.710  0.5307 -0.4834 -0.6632
  370MOL0     C49829   5.848   2.516   9.824  0.4474  0.5451 -1.0517
  370MOL0     C49830   5.721   2.591   9.789 -0.3821  0.2125 -1.0973
  370MOL0     C49831   5.728   2.747   9.772 -0.0626 -0.1393  1.2996
  370MOL0     N49832   5.590   2.799   9.791  0.5521 -0.3205 -0.0716
  370MOL0     C49833   5.547   2.887   9.886 -0.0872  0.1392 -0.1717
  370MOL0     C49834   5.416   2.892   9.887  0.8719 -0.8430  1.2710
  370MOL0     C49835   5.349   2.987   9.982  0.5798  0.8949  0.1282
  370MOL0     C49836   5.315   3.113   9.910 -0.2250 -0.9414  1.5977
  370MOL0     C49837   5.245   3.212  10.002 -0.1639  0.0927  0.2796
  370MOL0     C49838   5.290   3.357   9.995  0.0016 -0.3810 -0.6755
  370MOL0     O49839   5.228   3.423  10.106 -0.7683 -0.7064  0.5784
  370MOL0     C49840   5.224   3.556  10.121 -0.3505 -0.4105  0.7333
  370MOL0     C49841   5.284   3.645  10.028 -0.2748 -0.6494 -1.2331
  370MOL0     C49842   5.278   3.782  10.045  0.0015 -0.3209  0.3491
  370MOL0     C49843   5.354   3.868   9.946 -0.1760 -0.3997 -0.8757
  370MOL0     C49844   5.232   3.837  10.170  0.4662 -0.1696  0.5341
  370MOL0     C49845   5.248   3.975  10.215 -0.0190 -1.3499  0.4918
  370MOL0     O49846   5.242   3.985  10.348  0.1337 -0.9520  0.9135
  370MOL0     C49847   5.201   4.104  10.403  0.3309  0.6708 -0.1096
  370MOL0     C49848   5.179   4.088  10.541 -0.6864  0.8997  0.6667
  370MOL0     C49849   5.146   4.187  10.634  0.6008 -0.1608  0.2317
  370MOL0     C49850   5.131   4.312  10.579  0.7439  0.0402  0.5438
  370MOL0     O49851   5.085   4.420  10.655  0.3181 -0.6596  0.6686
  370MOL0     C49852   5.119   4.427  10.790  0.0787 -0.8592 -0.3573
  370MOL0     C49853   5.127   4.576  10.830 -0.7738  0.4063  0.2969
  370MOL0     C49854   4.994   4.644  10.830 -0.4002  0.5074 -1.0596
  370MOL0     C49855   5.007   4.795  10.847 -0.3050  0.1941 -0.1249
  370MOL0     C49856   4.888   4.851  10.923  0.1609  0.4055 -0.5983
  370MOL0     C49857   4.911   5.000  10.951 -0.1832  0.3430 -0.7552
  370MOL0     C49858   4.804   5.072  11.044 -0.1458 -0.1111 -0.2921
  370MOL0     C49859   4.839   5.217  11.061 -0.2143  0.1328  0.4185
  370MOL0    Cl49860   4.826   5.293  10.900  0.5750 -0.3552  0.0705
  370MOL0     C49861   5.142   4.339  10.441  0.4523  0.2227 -0.3951
  370MOL0     C49862   5.188   4.235  10.357 -0.3711 -0.5146  0.1955
  370MOL0     O49863   5.271   4.064  10.133 -0.0568  0.6078  0.0414
  370MOL0     C49864   5.169   3.752  10.254  0.2656  0.1142  0.2889
  370MOL0     C49865   5.162   3.606  10.233  0.8225  0.0297 -0.3232
  370MOL0     N49866   5.365   2.812   9.788 -0.7354 -0.8524  0.4471
  370MOL0     N49867   5.472   2.758   9.726 -0.0257 -0.6150 -0.4513
  370MOL0     C49868   6.718   2.357   9.843  0.8621 -0.3879 -0.0258
  370MOL0     C49869   6.840   2.418   9.821 -0.0523 -1.0458  0.8612
  370MOL0     C49870   7.136   2.763   9.727  0.0058 -0.7990 -0.0898
  370MOL0     C49871   7.241   2.679   9.703 -0.0159  0.1613 -0.7978
  370MOL0     C49872   7.370   2.732   9.687  0.0127 -1.0431  0.1851
  370MOL0     C49873   7.389   2.871   9.659 -0.6375  0.7773  0.1863
  370MOL0     O49874   7.510   2.935   9.628 -0.0481  0.3701  0.0453
  370MOL0     C49875   7.576   2.892   9.513 -0.0611  0.1151 -0.2243
  370MOL0     C49876   7.727   2.928   9.505 -0.1726  1.1941 -0.2658
  370MOL0     C49877   7.816   2.855   9.614  0.2820  0.0309  0.2070
  370MOL0     C49878   7.812   2.706   9.573 -0.1953 -0.2285 -0.1317
  370MOL0     C49879   7.939   2.645   9.621 -0.2398  0.7787  0.3989
  370MOL0     C49880   8.047   2.590   9.640  0.4456 -0.5508  0.6173
  370MOL0     C49881   7.276   2.951   9.685  0.1152 -0.1914 -0.2417
  370MOL0     C49882   7.155   2.903   9.705 -0.0676  0.7327 -0.0621
  370MOL0     H49883   6.750   2.734   9.888  0.7725  0.3232  0.3314
  370MOL0     H49884   6.532   2.631   9.890  0.5089  1.3193 -2.4087
  370MOL0     H49885   6.327   2.492   9.863  1.2282  0.8041 -1.2285
  370MOL0     H49886   6.387   2.513   9.701  1.3466 -0.6836 -1.2943
  370MOL0     H49887   6.360   2.274   9.655  0.1870  0.5486  0.0326
  370MOL0     H49888   6.262   2.251   9.808  1.6368  0.5512  1.1991
  370MOL0     H49889   6.186   2.432   9.582  4.1896 -2.4279 -0.5938
  370MOL0     H49890   6.118   2.275   9.620  1.1756  0.2845 -0.3005
  370MOL0     H49891   6.029   2.341   9.832  1.8994 -2.2300 -0.6007
  370MOL0     H49892   6.130   2.490   9.838  0.4595 -0.4538 -1.0156
  370MOL0     H49893   5.981   2.590   9.664  1.6613 -0.5612 -0.1955
  370MOL0     H49894   5.916   2.428   9.631  0.3199  0.2587 -1.1920
  370MOL0     H49895   5.817   2.416   9.856 -0.7649  0.9053 -1.0382
  370MOL0     H49896   5.881   2.587   9.900  1.7254  1.0168 -2.0183
  370MOL0     H49897   5.676   2.548   9.699  1.5717  2.3175 -3.2326
  370MOL0     H49898   5.652   2.573   9.872 -1.2560 -0.6512 -1.9872
  370MOL0     H49899   5.759   2.762   9.668 -0.0630  0.2741  1.3554
  370MOL0     H49900   5.796   2.806   9.835 -1.8773  2.5534  0.9160
  370MOL0     H49901   5.614   2.943   9.951 -0.9892  1.3115 -0.2194
  370MOL0     H49902   5.261   2.931  10.014  1.5285  0.4916  2.1905
  370MOL0     H49903   5.411   3.009  10.069 -1.3980  3.5384  1.0221
  370MOL0     H49904   5.256   3.096   9.819  0.4142  2.4191  0.4168
  370MOL0     H49905   5.408   3.150   9.867 -1.3611  0.9722  0.6601
  370MOL0     H49906   5.242   3.180  10.106 -0.8483 -0.3415  0.1333
  370MOL0     H49907   5.143   3.212   9.963 -0.9396  2.3294  2.0533
  370MOL0     H49908   5.266   3.409   9.902  0.7658  1.1829 -0.0349
  370MOL0     H49909   5.399   3.363  10.006 -0.0148  0.3372 -0.8214
  370MOL0     H49910   5.321   3.613   9.931 -0.3232 -0.3127 -1.3654
  370MOL0     H49911   5.285   3.921   9.879  0.9284 -1.8356 -3.2851
  370MOL0     H49912   5.422   3.939   9.994 -0.0431 -1.1635  0.0869
  370MOL0     H49913   5.412   3.803   9.879  2.0047 -0.0949  0.6262
  370MOL0     H49914   5.208   3.987  10.568 -0.2841  0.3690 -1.5747
  370MOL0     H49915   5.136   4.163  10.740  0.0290  0.0908  0.2395
  370MOL0     H49916   5.036   4.373  10.835 -0.9318 -0.3594 -1.5602
  370MOL0     H49917   5.220   4.386  10.804 -0.1709 -1.4059 -0.1451
  370MOL0     H49918   5.172   4.591  10.928  0.5808  1.1651 -0.4131
  370MOL0     H49919   5.200   4.622  10.762  1.2617 -0.4010  1.8453
  370MOL0     H49920   4.935   4.617  10.918 -1.3525  0.8366 -1.5910
  370MOL0     H49921   4.941   4.613  10.740  0.3074 -3.1080 -0.3868
  370MOL0     H49922   5.097   4.831  10.898  0.0694  0.6429 -1.0799
  370MOL0     H49923   4.995   4.851  10.754 -2.6382  0.0900  0.0477
  370MOL0     H49924   4.881   4.787  11.011 -0.4817 -0.4047 -1.2248
  370MOL0     H49925   4.792   4.844  10.870 -0.3120 -0.4572  0.3448
  370MOL0     H49926   5.010   5.018  10.993  0.3842  0.0790 -1.9369
  370MOL0     H49927   4.907   5.048  10.853  2.6118 -0.8839 -1.5891
  370MOL0     H49928   4.812   5.021  11.141 -2.4691  1.3101  0.7461
  370MOL0     H49929   4.707   5.064  10.995  0.1905 -1.7072 -0.7524
  370MOL0     H49930   4.939   5.224  11.104  0.1132 -0.4832 -0.2167
  370MOL0     H49931   4.762   5.268  11.120 -1.5631 -0.2699 -0.9273
  370MOL0     H49932   5.124   4.438  10.399  1.3118  0.5425 -0.0420
  370MOL0     H49933   5.209   4.266  10.255 -0.4681  1.8737  0.8359
  370MOL0     H49934   5.119   3.791  10.343  2.6703  2.0173  0.9103
  370MOL0     H49935   5.117   3.527  10.292  0.4471 -0.1138 -0.7902
  370MOL0     H49936   6.709   2.249   9.831  1.8297 -0.3409 -1.4644
  370MOL0     H49937   6.931   2.359   9.816  1.5561  1.3195  0.8154
  370MOL0     H49938   7.218   2.574   9.720 -1.5873  1.0716  4.3553
  370MOL0     H49939   7.463   2.676   9.686  1.4789  1.2306 -1.3636
  370MOL0     H49940   7.568   2.785   9.493  0.0958 -0.2060  1.3008
  370MOL0     H49941   7.537   2.936   9.420 -1.3764  2.0726  1.1617
  370MOL0     H49942   7.747   3.035   9.516 -0.0504  1.5545 -3.0884
  370MOL0     H49943   7.778   2.908   9.410  0.0982 -2.4647  0.5127
  370MOL0     H49944   7.777   2.861   9.716  3.0256 -0.6715  1.3686
  370MOL0     H49945   7.917   2.896   9.623  0.4361  0.0867 -1.3460
  370MOL0     H49946   7.792   2.686   9.467 -2.2579 -2.3485  0.5800
  370MOL0     H49947   7.724   2.662   9.619  0.0490 -0.8959 -0.2916
  370MOL0     H49948   8.148   2.558   9.659  0.3237 -0.7932  0.8662
  370MOL0     H49949   7.306   3.054   9.673  0.8223 -0.1344  1.6330
  370MOL0     H49950   7.070   2.969   9.717 -0.6003  0.4140 -1.8358
  371MOL0     O49951   2.369   1.632  10.800  0.3999  0.6465  0.2831
  371MOL0     C49952   2.380   1.516  10.778  0.5495  0.3608  0.3818
  371MOL0     O49953   2.278   1.433  10.743  0.4072 -0.3839 -0.3318
  371MOL0     C49954   2.149   1.488  10.718  0.0611  0.1712 -0.4359
  371MOL0     C49955   2.084   1.532  10.836  0.6082 -1.0278  0.7995
  371MOL0     C49956   1.955   1.567  10.821  0.7869  0.2256 -0.3546
  371MOL0     C49957   1.890   1.574  10.702 -0.1000 -0.2383  0.1029
  371MOL0     O49958   1.756   1.599  10.679 -0.0523 -0.6553 -0.2434
  371MOL0     C49959   1.662   1.587  10.783 -0.0672 -0.4299 -0.2956
  371MOL0     C49960   1.522   1.601  10.724  0.5057  0.5237  0.5676
  371MOL0     C49961   1.478   1.535  10.595  0.0939 -0.5528  0.5091
  371MOL0     C49962   1.555   1.584  10.473 -0.4089 -0.1975  0.4596
  371MOL0     C49963   1.474   1.612  10.350  0.2707  0.4613  1.2751
  371MOL0     C49964   1.419   1.476  10.292 -1.0616 -0.5241 -0.2112
  371MOL0     C49965   1.324   1.479  10.176 -0.0940 -0.0778  0.2755
  371MOL0     C49966   1.414   1.524  10.057  0.0537  0.2301  0.4536
  371MOL0     N49967   1.387   1.658  10.003 -0.2201 -0.0030  0.7928
  371MOL0     C49968   1.294   1.681   9.909  0.4326 -0.0757  0.3017
  371MOL0     C49969   1.302   1.818   9.900  0.2982 -0.6174 -0.2420
  371MOL0     C49970   1.208   1.892   9.809  0.2715  0.5234 -0.2034
  371MOL0     C49971   1.260   1.927   9.673 -0.2810  1.3842 -0.1350
  371MOL0     C49972   1.408   1.958   9.656 -0.0585 -0.1061 -0.3442
  371MOL0     C49973   1.426   2.038   9.519 -0.0792 -0.0366 -0.4558
  371MOL0     O49974   1.561   2.024   9.473  1.1248  0.1260  0.2276
  371MOL0     C49975   1.608   1.907   9.418 -0.3545  0.2228  0.2298
  371MOL0     C49976   1.570   1.857   9.292 -0.8205  0.8875  0.6090
  371MOL0     C49977   1.637   1.748   9.219  0.2432 -0.1032 -0.5628
  371MOL0     C49978   1.617   1.734   9.066  0.8221 -0.6910  0.3152
  371MOL0     C49979   1.730   1.672   9.293  0.3066 -1.3281 -1.1941
  371MOL0     C49980   1.822   1.562   9.245  1.3619 -0.3574  0.5460
  371MOL0     O49981   1.857   1.552   9.117  0.7727  0.1832 -0.4940
  371MOL0     C49982   1.992   1.539   9.084  0.5013  0.6804  0.4132
  371MOL0     C49983   2.057   1.408   9.102  1.0465 -0.1327  0.3935
  371MOL0     C49984   2.184   1.375   9.046  0.6727 -0.1846  0.3941
  371MOL0     C49985   2.244   1.478   8.966  0.0706  0.2726  0.4583
  371MOL0     O49986   2.364   1.460   8.905  0.0458 -0.3930  0.6539
  371MOL0     C49987   2.425   1.320   8.887 -0.4415 -0.0678 -0.1360
  371MOL0     C49988   2.544   1.332   8.796  0.0875  0.2263 -0.0149
  371MOL0     C49989   2.524   1.388   8.659  0.3148 -0.1703 -0.0268
  371MOL0     C49990   2.647   1.444   8.603 -0.0105 -0.0685  1.0178
  371MOL0     C49991   2.620   1.475   8.447  0.2655  0.2962 -0.3245
  371MOL0     C49992   2.742   1.543   8.386  0.3394 -0.4185 -0.3785
  371MOL0     C49993   2.729   1.565   8.231 -0.5425 -0.5514 -0.0313
  371MOL0     C49994   2.672   1.445   8.159 -0.0003  0.8614  1.3225
  371MOL0    Cl49995   2.725   1.430   7.995  0.2751  0.1414  0.2616
  371MOL0     C49996   2.196   1.610   8.972 -0.3078  0.6366  0.1785
  371MOL0     C49997   2.061   1.642   9.016 -0.2861 -0.2113  0.3422
  371MOL0     O49998   1.867   1.486   9.332  0.5984  1.1407  1.2229
  371MOL0     C49999   1.753   1.713   9.428 -0.2697 -0.2758 -0.3399
  371MOL0     C50000   1.695   1.828   9.491 -0.4719 -0.0097 -0.0796
  371MOL0     N50001   1.401   1.878   9.976  1.3155  0.0713  0.1263
  371MOL0     N50002   1.445   1.776  10.037 -0.4693 -0.2175  0.0894
  371MOL0     C50003   1.959   1.536  10.582  0.5809 -0.3457  0.3761
  371MOL0     C50004   2.090   1.495  10.598  0.4042  0.5574  0.3281
  371MOL0     C50005   2.511   1.451  10.797  0.0982 -0.9190 -0.1342
  371MOL0     C50006   2.624   1.530  10.800  0.4750 -0.3626 -0.1620
  371MOL0     C50007   2.743   1.480  10.851 -0.4078  0.9147  0.4634
  371MOL0     C50008   2.751   1.340  10.893 -0.6482 -0.1695  0.5835
  371MOL0     O50009   2.864   1.273  10.934 -0.1647 -0.5458  0.4141
  371MOL0     C50010   2.978   1.351  10.978  0.6044 -0.8895 -0.8201
  371MOL0     C50011   3.065   1.391  10.862  0.6476  0.6306  0.0679
  371MOL0     C50012   3.183   1.483  10.905  0.8159  0.3418  0.1012
  371MOL0     C50013   3.291   1.514  10.791 -1.0013  0.0195  0.2679
  371MOL0     C50014   3.416   1.564  10.847  0.3018  0.9967 -0.3999
  371MOL0     C50015   3.523   1.601  10.884 -0.8442 -0.0694 -0.0372
  371MOL0     C50016   2.641   1.266  10.886  0.5864  0.3768  0.0711
  371MOL0     C50017   2.521   1.318  10.839  0.6326 -0.2150  0.0697
  371MOL0     H50018   2.125   1.525  10.936  3.3001  2.6591  0.1835
  371MOL0     H50019   1.883   1.588  10.900  1.0105  2.1974 -0.6143
  371MOL0     H50020   1.653   1.488  10.829 -2.4806  0.5628  1.6415
  371MOL0     H50021   1.658   1.664  10.860 -1.8609 -0.2892 -0.4722
  371MOL0     H50022   1.461   1.573  10.810  4.0529 -0.7043  2.9177
  371MOL0     H50023   1.502   1.709  10.721  2.3593  0.9178  1.1437
  371MOL0     H50024   1.491   1.428  10.612 -1.9029 -0.7188  1.2513
  371MOL0     H50025   1.373   1.563  10.604  1.1682  4.5679  0.3400
  371MOL0     H50026   1.601   1.679  10.503  1.4223 -1.5662  2.2634
  371MOL0     H50027   1.645   1.532  10.440 -1.9279 -2.2474 -0.7305
  371MOL0     H50028   1.388   1.674  10.379 -0.2486  0.7523 -0.7147
  371MOL0     H50029   1.526   1.665  10.269 -2.3997 -1.9975 -2.3857
  371MOL0     H50030   1.501   1.411  10.262  1.6422  2.4810  0.0686
  371MOL0     H50031   1.374   1.435  10.383  3.3406 -2.8840  1.2044
  371MOL0     H50032   1.268   1.387  10.156  0.6702 -0.7707  1.2066
  371MOL0     H50033   1.244   1.550  10.197  1.2145  1.0485  1.7345
  371MOL0     H50034   1.413   1.453   9.975 -0.2173  2.1625 -1.2907
  371MOL0     H50035   1.521   1.520  10.081  1.3455  2.5413 -3.8468
  371MOL0     H50036   1.226   1.610   9.863 -0.3102 -1.4954  3.3439
  371MOL0     H50037   1.128   1.829   9.769  2.6505 -0.9205 -3.1137
  371MOL0     H50038   1.177   1.986   9.855 -4.4147  0.2349 -2.2078
  371MOL0     H50039   1.216   2.020   9.638  1.4462  2.2447 -0.1037
  371MOL0     H50040   1.240   1.844   9.604  1.3016  2.8100 -2.4325
  371MOL0     H50041   1.453   1.858   9.657 -0.1290 -0.1576  1.4831
  371MOL0     H50042   1.452   2.016   9.738 -2.5191  2.3040 -0.5643
  371MOL0     H50043   1.410   2.144   9.539 -0.1215 -0.2561  0.7671
  371MOL0     H50044   1.363   1.995   9.440  1.5775 -2.5329 -0.5419
  371MOL0     H50045   1.490   1.915   9.246 -3.0988 -1.6195  1.1537
  371MOL0     H50046   1.597   1.630   9.039 -0.9526 -0.4096  0.4283
  371MOL0     H50047   1.531   1.794   9.033 -1.4312 -3.8991 -0.0503
  371MOL0     H50048   1.702   1.770   9.007 -0.3549 -0.3168 -1.1936
  371MOL0     H50049   2.005   1.326   9.149  2.0046 -2.5134 -2.3653
  371MOL0     H50050   2.232   1.278   9.059 -0.6037 -0.5972  2.6196
  371MOL0     H50051   2.443   1.267   8.981 -1.7945 -1.8628 -0.8255
  371MOL0     H50052   2.358   1.259   8.826 -0.0869  0.0826 -0.6789
  371MOL0     H50053   2.609   1.398   8.855 -0.6819 -0.5283  1.7559
  371MOL0     H50054   2.594   1.236   8.780  2.2478  1.4366 -0.9894
  371MOL0     H50055   2.447   1.465   8.667 -1.9129 -2.0218 -2.2736
  371MOL0     H50056   2.478   1.307   8.602 -0.7618 -2.2479  3.4408
  371MOL0     H50057   2.677   1.530   8.663  1.1188  0.5846 -0.4205
  371MOL0     H50058   2.740   1.388   8.609 -0.9886 -1.9067 -0.0951
  371MOL0     H50059   2.543   1.552   8.434  1.2536  1.4827  0.5453
  371MOL0     H50060   2.604   1.379   8.398 -0.9314  0.4130 -0.1936
  371MOL0     H50061   2.765   1.639   8.434  0.4389 -0.7191  0.1782
  371MOL0     H50062   2.829   1.479   8.407  0.9872  1.3136  2.8704
  371MOL0     H50063   2.830   1.582   8.193 -0.4841  0.3276  0.4912
  371MOL0     H50064   2.664   1.649   8.203 -0.4838 -1.0269 -1.7033
  371MOL0     H50065   2.563   1.438   8.169 -0.1494 -1.6958 -1.1424
  371MOL0     H50066   2.717   1.359   8.210 -1.4898 -0.6893  0.1272
  371MOL0     H50067   2.249   1.690   8.921  0.5085 -1.1198 -1.8856
  371MOL0     H50068   2.010   1.738   9.013  1.8749  0.9832 -1.7859
  371MOL0     H50069   1.834   1.665   9.482  0.6482 -0.3561 -1.7374
  371MOL0     H50070   1.733   1.865   9.586  0.2264 -0.4375 -0.1801
  371MOL0     H50071   1.923   1.511  10.483  2.6240  0.1510 -0.5563
  371MOL0     H50072   2.149   1.450  10.519 -0.6441  1.5741 -1.0812
  371MOL0     H50073   2.613   1.636  10.782  0.8918 -0.2140  0.4512
  371MOL0     H50074   2.830   1.543  10.841  2.0722 -2.2372  0.5154
  371MOL0     H50075   2.949   1.445  11.027 -1.0586 -2.1210  0.6671
  371MOL0     H50076   3.041   1.287  11.040  1.8240 -0.5347 -1.6580
  371MOL0     H50077   3.004   1.431  10.781  2.7870  1.0929 -1.3974
  371MOL0     H50078   3.107   1.298  10.821 -0.4884  0.4931 -0.8163
  371MOL0     H50079   3.238   1.439  10.988  1.9114  1.1398 -0.1596
  371MOL0     H50080   3.133   1.570  10.948 -0.6993 -1.7530  2.8826
  371MOL0     H50081   3.260   1.581  10.711 -0.4346  0.5777  0.5039
  371MOL0     H50082   3.322   1.424  10.738  2.9108  0.7786  0.9354
  371MOL0     H50083   3.629   1.613  10.897 -0.7872  0.5241 -0.9273
  371MOL0     H50084   2.646   1.160  10.910 -0.4550  0.0208 -1.1578
  371MOL0     H50085   2.438   1.250  10.823  2.0758 -1.4523 -2.7222
  372MOL0     O50086   2.981   6.329   1.085  0.0254  0.6165 -0.4038
  372MOL0     C50087   2.910   6.228   1.085  0.1212 -0.6501  0.3258
  372MOL0     O50088   2.961   6.096   1.101  0.7325 -0.4537  0.0808
  372MOL0     C50089   3.088   6.104   1.163 -0.5956  0.5761  0.9624
  372MOL0     C50090   3.083   6.094   1.294  0.2609  0.3944  0.1805
  372MOL0     C50091   3.204   6.070   1.360 -0.9345  0.4293 -0.5106
  372MOL0     C50092   3.326   6.073   1.299  0.0362 -0.4371  0.1577
  372MOL0     O50093   3.433   6.047   1.382 -0.0233 -0.0309 -0.2928
  372MOL0     C50094   3.558   6.031   1.319 -0.4734 -0.7521  0.4388
  372MOL0     C50095   3.666   5.964   1.413 -0.0608 -1.1155 -0.6956
  372MOL0     C50096   3.799   5.952   1.328 -0.8228  0.5570  0.5367
  372MOL0     C50097   3.911   6.042   1.393  0.0883 -0.7638 -0.1245
  372MOL0     C50098   4.015   6.075   1.290  0.2753  0.8069 -1.0494
  372MOL0     C50099   4.074   5.948   1.214  0.2971 -0.0292  0.4676
  372MOL0     C50100   4.118   5.838   1.305 -0.9910 -0.5343 -0.4039
  372MOL0     C50101   4.272   5.870   1.345 -0.2918 -0.3148  0.4593
  372MOL0     N50102   4.314   5.797   1.463 -0.8537 -0.3455 -0.7650
  372MOL0     C50103   4.322   5.831   1.596  0.1281 -0.6013  0.0023
  372MOL0     C50104   4.380   5.729   1.651 -0.9562  0.0886 -0.0180
  372MOL0     C50105   4.399   5.726   1.795 -0.7382  0.0153  0.1727
  372MOL0     C50106   4.285   5.646   1.857  0.0786 -0.1987 -1.0600
  372MOL0     C50107   4.326   5.621   2.005 -0.2466  0.1914  0.1339
  372MOL0     C50108   4.209   5.569   2.087 -0.2332  0.0568 -0.2909
  372MOL0     O50109   4.110   5.676   2.083  0.0057 -0.3299  0.2020
  372MOL0     C50110   3.993   5.676   2.161  0.3270 -1.0102  0.3429
  372MOL0     C50111   3.901   5.779   2.123 -0.3147 -0.5316 -0.7389
  372MOL0     C50112   3.793   5.805   2.198  0.2305 -0.8047  1.2042
  372MOL0     C50113   3.706   5.923   2.152  0.5056  0.5428 -0.3669
  372MOL0     C50114   3.764   5.731   2.318  0.8550 -0.1252 -0.1867
  372MOL0     C50115   3.649   5.754   2.414 -0.3519  0.2471 -0.1423
  372MOL0     O50116   3.676   5.704   2.541  0.7009 -0.0247  0.3857
  372MOL0     C50117   3.585   5.735   2.639 -0.5059  0.7485  0.3355
  372MOL0     C50118   3.592   5.652   2.748  0.5865  1.0214  0.1363
  372MOL0     C50119   3.513   5.662   2.858  0.2583 -0.1030 -0.6481
  372MOL0     C50120   3.423   5.773   2.873  0.4993  0.0025  0.1695
  372MOL0     O50121   3.335   5.793   2.973  0.0564  0.0279  0.0527
  372MOL0     C50122   3.404   5.801   3.100  0.3188  0.9858 -0.1298
  372MOL0     C50123   3.294   5.864   3.184 -0.8386 -0.9320  0.1629
  372MOL0     C50124   3.340   5.842   3.329 -0.8434 -0.1753  0.7480
  372MOL0     C50125   3.220   5.899   3.416 -0.5185 -0.1696  0.2980
  372MOL0     C50126   3.262   5.879   3.566  0.0726 -0.5732 -0.1634
  372MOL0     C50127   3.153   5.885   3.673  0.2956 -0.0047 -0.1842
  372MOL0     C50128   3.216   5.901   3.814 -0.1232 -0.2134  0.5069
  372MOL0     C50129   3.118   5.894   3.933  0.9919 -0.8762 -0.5087
  372MOL0    Cl50130   3.004   6.033   3.948  0.1087  0.6316  0.2375
  372MOL0     C50131   3.421   5.864   2.770 -0.3778 -1.5063  1.3635
  372MOL0     C50132   3.498   5.844   2.656 -0.7967 -0.8064 -0.0444
  372MOL0     O50133   3.544   5.798   2.371  0.5628  0.8528  0.8555
  372MOL0     C50134   3.857   5.628   2.355 -0.1018 -0.6225 -0.3769
  372MOL0     C50135   3.969   5.603   2.281 -0.3616 -0.4738  0.3105
  372MOL0     N50136   4.426   5.641   1.559  0.6260 -0.8110 -0.2268
  372MOL0     N50137   4.398   5.693   1.439 -0.1645  0.4671  0.5242
  372MOL0     C50138   3.331   6.100   1.167  0.3220  0.0120  0.9332
  372MOL0     C50139   3.210   6.115   1.094 -0.6626  0.7235 -0.1948
  372MOL0     C50140   2.771   6.246   1.044 -0.1510  0.1915 -0.3514
  372MOL0     C50141   2.681   6.145   1.073 -0.2901 -0.9931  0.0100
  372MOL0     C50142   2.548   6.169   1.037  0.5012 -0.2076  0.3488
  372MOL0     C50143   2.502   6.282   0.974  0.3566  0.1180  1.0173
  372MOL0     O50144   2.369   6.300   0.930  0.8608  0.5044  0.2295
  372MOL0     C50145   2.274   6.189   0.912 -0.0749 -0.3623 -0.9555
  372MOL0     C50146   2.163   6.238   0.829 -0.0712 -0.4222 -0.4548
  372MOL0     C50147   2.049   6.132   0.792 -0.0741  0.1866 -0.4636
  372MOL0     C50148   2.103   6.010   0.710 -0.0100  0.9292 -1.1068
  372MOL0     C50149   2.194   6.052   0.600  1.0577 -0.1267 -0.0578
  372MOL0     C50150   2.276   6.065   0.511  0.3787 -0.0790 -0.5968
  372MOL0     C50151   2.598   6.380   0.947  0.0731 -0.4109  0.8723
  372MOL0     C50152   2.729   6.364   0.977 -0.1677  0.1264 -0.6812
  372MOL0     H50153   2.984   6.097   1.339  0.1700  1.7063 -0.0904
  372MOL0     H50154   3.191   6.051   1.466  2.8560  2.0843  0.4268
  372MOL0     H50155   3.542   5.970   1.230  1.1020 -0.5025 -0.0548
  372MOL0     H50156   3.601   6.125   1.284 -1.3819 -0.1094  1.0090
  372MOL0     H50157   3.686   6.016   1.507 -0.9142 -0.7812 -0.6929
  372MOL0     H50158   3.620   5.869   1.443 -1.9223  0.7077  2.9221
  372MOL0     H50159   3.835   5.849   1.330 -1.4443  0.3454  1.3352
  372MOL0     H50160   3.788   5.985   1.224 -0.7114 -2.3927 -0.4924
  372MOL0     H50161   3.865   6.134   1.430 -1.6417 -3.0772  4.3955
  372MOL0     H50162   3.950   6.003   1.488  2.1336 -0.1651 -0.6803
  372MOL0     H50163   3.974   6.149   1.222  1.3386  2.5865  0.1624
  372MOL0     H50164   4.103   6.115   1.340  2.7633 -4.4114 -0.5798
  372MOL0     H50165   3.998   5.906   1.146  0.9716  1.6068 -1.3928
  372MOL0     H50166   4.160   5.981   1.155 -0.5149  2.4640  0.5676
  372MOL0     H50167   4.058   5.827   1.396 -0.7050 -0.1106 -0.1609
  372MOL0     H50168   4.127   5.741   1.255  3.5218  1.1492 -3.5689
  372MOL0     H50169   4.277   5.978   1.364 -3.6762  0.3806 -1.7085
  372MOL0     H50170   4.335   5.845   1.260  0.3365  4.3164 -0.7189
  372MOL0     H50171   4.288   5.927   1.634  0.4124  0.1132 -1.4930
  372MOL0     H50172   4.495   5.680   1.818 -0.6174  0.4998  0.6625
  372MOL0     H50173   4.396   5.830   1.828 -0.7423  0.8223 -2.1392
  372MOL0     H50174   4.269   5.560   1.791 -1.0344 -2.8824  2.3975
  372MOL0     H50175   4.193   5.705   1.861 -0.2274 -0.6536 -1.3263
  372MOL0     H50176   4.368   5.712   2.050 -0.7163  0.8780 -0.7856
  372MOL0     H50177   4.401   5.541   2.000 -0.1947  0.1943  0.7321
  372MOL0     H50178   4.238   5.536   2.188 -4.1143 -0.1789  0.9384
  372MOL0     H50179   4.162   5.476   2.052 -0.5998 -0.6343  1.8816
  372MOL0     H50180   3.926   5.832   2.032  4.3880 -1.5958 -0.2982
  372MOL0     H50181   3.606   5.942   2.191  0.8234 -0.9493  1.3167
  372MOL0     H50182   3.774   6.008   2.170  0.8357 -0.0499  1.3032
  372MOL0     H50183   3.702   5.919   2.043  3.6178  2.9193 -0.7126
  372MOL0     H50184   3.656   5.566   2.735 -2.7792 -2.5362  4.1437
  372MOL0     H50185   3.523   5.582   2.930 -1.3018 -0.1752 -0.4817
  372MOL0     H50186   3.431   5.704   3.144 -0.2425  1.5651  1.5529
  372MOL0     H50187   3.496   5.860   3.089  1.7740 -1.1148  0.0743
  372MOL0     H50188   3.290   5.971   3.159 -1.0926 -0.9160  0.2660
  372MOL0     H50189   3.198   5.818   3.160 -0.3116 -1.3487 -1.2616
  372MOL0     H50190   3.429   5.904   3.346 -1.2558 -0.1152  2.9901
  372MOL0     H50191   3.364   5.738   3.354 -1.8714 -1.9830 -4.5644
  372MOL0     H50192   3.218   6.006   3.396 -0.8236 -0.8582 -4.6864
  372MOL0     H50193   3.130   5.843   3.389 -0.2811 -0.3104 -0.2193
  372MOL0     H50194   3.328   5.966   3.574 -0.4632  0.3585 -4.0468
  372MOL0     H50195   3.315   5.784   3.581 -1.3270 -1.4836 -0.8424
  372MOL0     H50196   3.083   5.968   3.660 -1.2904 -1.3778 -0.7619
  372MOL0     H50197   3.104   5.788   3.664  1.2358 -0.2556 -5.5625
  372MOL0     H50198   3.282   5.988   3.819  1.0599 -1.0521  0.0634
  372MOL0     H50199   3.292   5.822   3.810  1.2318  1.0576 -2.2759
  372MOL0     H50200   3.165   5.882   4.032  0.8891  0.1007 -0.3385
  372MOL0     H50201   3.050   5.809   3.922 -3.5236  1.9285  2.4128
  372MOL0     H50202   3.359   5.953   2.773  1.7756  0.1305  0.7150
  372MOL0     H50203   3.482   5.915   2.576 -1.0549  1.4381  1.9050
  372MOL0     H50204   3.853   5.566   2.445 -2.2781  0.0337  0.0422
  372MOL0     H50205   4.040   5.525   2.311 -0.2532  0.8239  3.9812
  372MOL0     H50206   3.422   6.100   1.109 -0.8388  0.2820 -0.9821
  372MOL0     H50207   3.211   6.123   0.986  2.9690  1.9050 -0.1796
  372MOL0     H50208   2.723   6.051   1.106  2.0954  0.0289  0.1232
  372MOL0     H50209   2.482   6.084   1.055  0.5857  0.1391  2.5431
  372MOL0     H50210   2.327   6.098   0.883  2.4486  0.6411  0.2756
  372MOL0     H50211   2.228   6.184   1.012  0.8670  3.1362 -0.2121
  372MOL0     H50212   2.216   6.277   0.742  0.2039 -0.5941 -0.3691
  372MOL0     H50213   2.120   6.320   0.886 -1.2955 -1.7476  0.6026
  372MOL0     H50214   1.972   6.166   0.723  0.3202  0.5008 -0.7510
  372MOL0     H50215   1.995   6.100   0.882 -1.3340  0.2884 -1.1701
  372MOL0     H50216   2.022   5.949   0.671 -0.0594  0.2736 -0.0168
  372MOL0     H50217   2.153   5.944   0.782 -0.2159 -1.9312 -3.4032
  372MOL0     H50218   2.339   6.081   0.426  0.5606  2.6678 -0.0289
  372MOL0     H50219   2.560   6.468   0.896  0.5838 -1.2442 -1.0264
  372MOL0     H50220   2.804   6.439   0.953  0.5685 -0.1645  0.6545
  373MOL0     O50221   4.246   6.306   1.647  0.7247  0.4541  0.5055
  373MOL0     C50222   4.291   6.315   1.526  0.4162 -0.4203 -0.3386
  373MOL0     O50223   4.234   6.378   1.422  0.7602  0.1252 -0.2160
  373MOL0     C50224   4.176   6.501   1.426  0.3140  0.4712 -0.2968
  373MOL0     C50225   4.215   6.606   1.512  0.8868 -0.3829  0.4809
  373MOL0     C50226   4.145   6.728   1.511  0.6691 -0.9058  0.6708
  373MOL0     C50227   4.049   6.756   1.415  0.7162  0.3071  1.1046
  373MOL0     O50228   3.974   6.873   1.408 -0.0747  0.7450  0.0178
  373MOL0     C50229   3.834   6.862   1.408 -0.1202 -0.2637  0.5323
  373MOL0     C50230   3.773   6.868   1.551  0.0449  0.6616 -0.7186
  373MOL0     C50231   3.622   6.869   1.558  0.6814 -0.5723  0.1257
  373MOL0     C50232   3.561   6.863   1.694 -0.1460  0.4242  0.6542
  373MOL0     C50233   3.410   6.823   1.693 -0.6100 -0.7945  0.2688
  373MOL0     C50234   3.388   6.677   1.651  0.0864 -0.7978 -0.4476
  373MOL0     C50235   3.263   6.622   1.708  0.8095 -0.2957 -0.3063
  373MOL0     C50236   3.259   6.480   1.673  0.1928  0.0870  0.5720
  373MOL0     N50237   3.154   6.406   1.727 -0.2368  0.1550  0.8259
  373MOL0     C50238   3.035   6.394   1.661  0.4843 -0.9354  0.2005
  373MOL0     C50239   2.984   6.289   1.725 -0.1137  0.9567 -0.9443
  373MOL0     C50240   2.854   6.216   1.703 -0.1241  0.4596  0.1265
  373MOL0     C50241   2.871   6.124   1.581  0.1633 -0.4089 -0.0684
  373MOL0     C50242   2.749   6.041   1.540 -0.3600  0.5198  0.1398
  373MOL0     C50243   2.628   6.131   1.514  0.4723 -0.7046  0.5107
  373MOL0     O50244   2.639   6.210   1.395  0.1595  0.7807 -0.1213
  373MOL0     C50245   2.526   6.283   1.352 -0.1396  0.5018 -0.3587
  373MOL0     C50246   2.548   6.409   1.304 -1.0368  0.1692  0.3463
  373MOL0     C50247   2.444   6.487   1.250 -0.1427  1.1489 -0.2903
  373MOL0     C50248   2.493   6.617   1.201 -0.1055  0.3135  0.2555
  373MOL0     C50249   2.315   6.424   1.242  1.6374 -0.4851  0.5278
  373MOL0     C50250   2.188   6.509   1.218  0.7278 -0.0698 -0.4274
  373MOL0     O50251   2.202   6.632   1.156 -0.5228  0.1559 -1.2339
  373MOL0     C50252   2.099   6.699   1.105  0.1236 -1.0760 -0.0351
  373MOL0     C50253   2.083   6.727   0.974 -0.5977  0.3291  0.2394
  373MOL0     C50254   1.976   6.807   0.926  0.0597  0.6045 -0.3368
  373MOL0     C50255   1.872   6.839   1.014 -0.1714 -1.0402 -0.3035
  373MOL0     O50256   1.766   6.906   0.964 -0.6436 -0.4822 -0.0194
  373MOL0     C50257   1.717   7.011   1.050 -0.4772 -0.0770 -0.6173
  373MOL0     C50258   1.634   7.109   0.976  0.4939 -0.5445  0.5591
  373MOL0     C50259   1.570   7.224   1.063  0.3231 -0.3458 -0.1892
  373MOL0     C50260   1.485   7.174   1.180 -1.1087  0.0952  0.2120
  373MOL0     C50261   1.372   7.071   1.143 -0.7432  0.0175  0.6339
  373MOL0     C50262   1.287   7.026   1.267 -0.8940  0.4129  0.3426
  373MOL0     C50263   1.185   6.914   1.244  0.2575 -0.5620  0.2841
  373MOL0     C50264   1.107   6.893   1.371  0.1121  0.1760 -0.4375
  373MOL0    Cl50265   1.004   7.037   1.417  0.2388 -0.3330  0.1351
  373MOL0     C50266   1.885   6.803   1.148  0.1011 -0.7968  0.3285
  373MOL0     C50267   2.005   6.747   1.192  0.6845  0.0715  1.3544
  373MOL0     O50268   2.078   6.460   1.251 -1.0463 -0.4722  0.0866
  373MOL0     C50269   2.301   6.286   1.296  0.6003 -0.3532  0.5424
  373MOL0     C50270   2.406   6.215   1.350  0.4334 -1.2278  0.9458
  373MOL0     N50271   3.063   6.250   1.830  0.3273 -0.0877  0.4114
  373MOL0     N50272   3.173   6.316   1.824 -0.7454  0.2495  0.3391
  373MOL0     C50273   4.034   6.664   1.311  0.1682 -0.1485 -0.6703
  373MOL0     C50274   4.089   6.532   1.317  0.1035  0.1895 -0.9035
  373MOL0     C50275   4.418   6.236   1.505 -0.3154 -0.0493 -0.7549
  373MOL0     C50276   4.458   6.209   1.374 -0.5187 -0.8195 -0.0421
  373MOL0     C50277   4.563   6.127   1.343  0.2443 -0.4277  0.5541
  373MOL0     C50278   4.620   6.057   1.451  0.3787 -0.1855  0.3582
  373MOL0     O50279   4.727   5.976   1.413  0.4114 -0.2567  0.1625
  373MOL0     C50280   4.747   5.859   1.497  0.5304  0.3017 -0.0574
  373MOL0     C50281   4.868   5.789   1.449  0.2615  0.6981 -1.1305
  373MOL0     C50282   4.846   5.696   1.331 -0.4503 -0.7527 -0.2979
  373MOL0     C50283   4.970   5.628   1.269 -0.6272 -0.3739 -0.2111
  373MOL0     C50284   5.047   5.732   1.187  0.5876 -0.5520  0.0052
  373MOL0     C50285   5.108   5.816   1.118 -0.7842  0.6275  0.0188
  373MOL0     C50286   4.583   6.082   1.582  0.4151  0.2566  0.7304
  373MOL0     C50287   4.479   6.166   1.611  0.4477  0.0994 -0.6233
  373MOL0     H50288   4.288   6.591   1.590  2.9182 -0.2178 -1.2992
  373MOL0     H50289   4.163   6.807   1.583  4.2374  0.2849 -1.2888
  373MOL0     H50290   3.787   6.944   1.351  0.3854  0.6622  1.4132
  373MOL0     H50291   3.801   6.774   1.351  0.0089 -0.1709  0.3126
  373MOL0     H50292   3.792   6.775   1.606 -2.1599 -0.6527 -2.0062
  373MOL0     H50293   3.833   6.938   1.608  2.5622 -3.1014  1.7462
  373MOL0     H50294   3.578   6.946   1.494  2.6637 -1.2647 -2.2193
  373MOL0     H50295   3.592   6.778   1.504 -3.2195  0.8873 -0.4590
  373MOL0     H50296   3.613   6.794   1.762  1.1437  3.1826  2.6315
  373MOL0     H50297   3.559   6.962   1.739 -1.3098  0.8356 -0.2606
  373MOL0     H50298   3.363   6.840   1.790  0.4602 -1.8017  0.9780
  373MOL0     H50299   3.348   6.895   1.638  1.5448  0.4800 -0.6165
  373MOL0     H50300   3.389   6.675   1.542  0.7791 -0.3262 -0.4616
  373MOL0     H50301   3.464   6.610   1.694 -1.9347 -1.8979  1.6443
  373MOL0     H50302   3.255   6.634   1.817 -0.0186  2.0104 -0.5774
  373MOL0     H50303   3.172   6.666   1.669 -0.7249 -2.6725  0.3453
  373MOL0     H50304   3.352   6.427   1.696 -0.7744 -2.8061 -1.7024
  373MOL0     H50305   3.263   6.472   1.564 -2.0912  0.2095  0.4422
  373MOL0     H50306   2.986   6.444   1.578  1.7059 -1.6915 -1.0083
  373MOL0     H50307   2.839   6.152   1.791 -1.7080  0.3111 -0.2306
  373MOL0     H50308   2.773   6.288   1.691 -0.2051  0.8403  2.3942
  373MOL0     H50309   2.951   6.051   1.597  1.7471  1.1950 -0.3528
  373MOL0     H50310   2.905   6.187   1.498 -0.5815 -1.6208 -1.3553
  373MOL0     H50311   2.728   5.976   1.625  0.5171 -1.8139 -1.3439
  373MOL0     H50312   2.766   5.970   1.459 -1.3550 -1.1816  1.3666
  373MOL0     H50313   2.618   6.198   1.600  0.7585 -0.0646  0.0511
  373MOL0     H50314   2.549   6.056   1.513  2.1072 -2.5167  0.9801
  373MOL0     H50315   2.647   6.444   1.332 -1.3396 -0.7754  2.7938
  373MOL0     H50316   2.573   6.599   1.128  1.8796 -0.3490  2.4662
  373MOL0     H50317   2.423   6.686   1.154  1.3275  0.8643 -1.1593
  373MOL0     H50318   2.553   6.672   1.274  1.4494 -1.8435  0.7061
  373MOL0     H50319   2.155   6.693   0.900 -1.6938  1.4811 -1.4137
  373MOL0     H50320   1.969   6.841   0.824 -0.2707  0.1186 -0.4820
  373MOL0     H50321   1.653   6.963   1.125  1.6592 -2.4880 -0.2097
  373MOL0     H50322   1.791   7.066   1.109 -0.8537 -0.3489  0.1123
  373MOL0     H50323   1.694   7.156   0.897 -1.5260 -0.6942 -1.1779
  373MOL0     H50324   1.558   7.052   0.922 -0.5432  0.6555  0.6970
  373MOL0     H50325   1.509   7.289   0.998  0.1527  2.1790  2.3013
  373MOL0     H50326   1.649   7.289   1.102  0.8828  1.7853 -4.2604
  373MOL0     H50327   1.551   7.139   1.260  0.1910 -0.0782 -0.8997
  373MOL0     H50328   1.425   7.256   1.220 -3.1263 -1.4446  0.5454
  373MOL0     H50329   1.417   6.989   1.086  1.0560  0.4878  1.3111
  373MOL0     H50330   1.296   7.124   1.084 -2.2624 -3.1003 -0.4279
  373MOL0     H50331   1.351   7.001   1.352 -0.7942  0.1342  0.1855
  373MOL0     H50332   1.240   7.118   1.302  0.1911  0.2793  2.2981
  373MOL0     H50333   1.227   6.818   1.213 -0.6881 -0.6263 -0.8851
  373MOL0     H50334   1.114   6.944   1.165  0.1796 -1.9512 -0.1928
  373MOL0     H50335   1.182   6.875   1.449  0.9342  0.6374 -1.1037
  373MOL0     H50336   1.037   6.809   1.376 -0.5816  0.8286  1.5084
  373MOL0     H50337   1.812   6.833   1.223 -2.4952 -1.1336 -1.9152
  373MOL0     H50338   2.021   6.740   1.299 -0.4421  0.9329  1.5929
  373MOL0     H50339   2.213   6.224   1.283  2.7023 -3.5201  0.0703
  373MOL0     H50340   2.377   6.120   1.395  1.5183 -0.5556  3.2332
  373MOL0     H50341   3.967   6.699   1.233 -1.0795  1.1717  0.9160
  373MOL0     H50342   4.057   6.464   1.238  0.2946 -0.5594 -0.3550
  373MOL0     H50343   4.410   6.263   1.292  3.2647  1.0234 -1.2709
  373MOL0     H50344   4.591   6.097   1.242 -2.3828 -0.3466 -0.2724
  373MOL0     H50345   4.782   5.899   1.593 -4.7136  1.5760  1.7006
  373MOL0     H50346   4.656   5.800   1.516  0.5625 -0.0958 -1.0844
  373MOL0     H50347   4.906   5.727   1.531 -0.4632  0.0200 -1.2995
  373MOL0     H50348   4.947   5.859   1.420  1.0159  0.8357  1.0771
  373MOL0     H50349   4.789   5.749   1.254  1.0968 -1.3989 -1.9385
  373MOL0     H50350   4.784   5.612   1.365  1.6590 -1.9530  0.7784
  373MOL0     H50351   4.933   5.543   1.211  1.5761 -0.5659 -1.4452
  373MOL0     H50352   5.034   5.592   1.350 -1.2190  2.3913  1.6423
  373MOL0     H50353   5.153   5.890   1.055 -1.0526 -0.3453 -1.3354
  373MOL0     H50354   4.619   6.019   1.663  3.4027  0.6196 -0.1643
  373MOL0     H50355   4.458   6.185   1.716  0.4069 -1.2559 -0.3729
  374MOL0     O50356   9.509   0.379   9.839 -0.2110  0.0770 -0.3013
  374MOL0     C50357   9.535   0.258   9.837 -0.1878 -0.6841 -0.1450
  374MOL0     O50358   9.442   0.160   9.866 -0.0001  1.1294 -0.5694
  374MOL0     C50359   9.312   0.181   9.881  0.3270 -0.0327 -0.3206
  374MOL0     C50360   9.236   0.068   9.842  2.2427  0.2709  0.0591
  374MOL0     C50361   9.094   0.069   9.856  0.4340 -0.9867  1.1799
  374MOL0     C50362   9.036   0.192   9.899  0.8766 -0.1065  0.2021
  374MOL0     O50363   8.900   0.209   9.908  0.2567  0.1619  0.9271
  374MOL0     C50364   8.834   0.145   9.797  0.7924 -0.1377 -0.5402
  374MOL0     C50365   8.690   0.204   9.787 -0.2767  0.0187  0.3699
  374MOL0     C50366   8.686   0.359   9.757  0.1077  0.0450 -0.1687
  374MOL0     C50367   8.538   0.410   9.770 -0.1093  0.3452 -0.3604
  374MOL0     C50368   8.534   0.561   9.759 -0.2522  0.1484  0.2424
  374MOL0     C50369   8.398   0.628   9.789  0.4906  0.2351 -1.0195
  374MOL0     C50370   8.329   0.691   9.669  0.2999  0.0272 -0.9266
  374MOL0     C50371   8.294   0.584   9.553  0.5357  0.6400 -0.0971
  374MOL0     N50372   8.156   0.527   9.578  0.2295  0.3287 -0.3816
  374MOL0     C50373   8.031   0.599   9.589 -0.0797 -0.3369 -0.2783
  374MOL0     C50374   7.941   0.497   9.623  0.5306 -0.3173 -0.3366
  374MOL0     C50375   7.794   0.505   9.641 -0.6001 -0.2812 -0.7246
  374MOL0     C50376   7.723   0.448   9.519  0.6765 -0.3613 -0.0611
  374MOL0     C50377   7.569   0.433   9.545 -0.1483  0.0062  0.6259
  374MOL0     C50378   7.484   0.372   9.436 -0.3569  0.1070  0.3844
  374MOL0     O50379   7.504   0.458   9.318  0.1317 -0.8999 -0.1948
  374MOL0     C50380   7.434   0.440   9.204  0.0764  0.3909  0.2939
  374MOL0     C50381   7.457   0.534   9.104  0.1237 -0.1632 -0.6598
  374MOL0     C50382   7.394   0.516   8.980 -0.2345  0.5741  0.0586
  374MOL0     C50383   7.417   0.621   8.876  0.4904 -0.2932 -0.1666
  374MOL0     C50384   7.315   0.404   8.948  0.0942  1.3333 -0.9253
  374MOL0     C50385   7.235   0.387   8.817  0.3288 -0.2376  0.4322
  374MOL0     O50386   7.210   0.490   8.738 -0.9159  0.6633  0.3016
  374MOL0     C50387   7.165   0.490   8.601 -0.9120 -0.6209  0.1328
  374MOL0     C50388   7.093   0.388   8.538  0.5629 -0.0743 -0.3745
  374MOL0     C50389   7.063   0.391   8.403  0.1537  0.5889 -0.0585
  374MOL0     C50390   7.096   0.494   8.321  0.8593  0.0653 -0.2620
  374MOL0     O50391   7.054   0.482   8.184 -0.1885 -0.0990 -0.3274
  374MOL0     C50392   7.089   0.590   8.094  0.2417  0.7415  0.6358
  374MOL0     C50393   7.019   0.562   7.953  0.9000  0.5488 -0.4130
  374MOL0     C50394   7.072   0.650   7.843 -0.1461 -0.5239  0.1366
  374MOL0     C50395   7.046   0.799   7.870  0.4519 -1.0045  0.0904
  374MOL0     C50396   6.901   0.842   7.863  0.7588 -0.3310  0.6945
  374MOL0     C50397   6.877   0.993   7.893 -1.1135  1.2100  0.0887
  374MOL0     C50398   6.723   1.016   7.890  0.4823 -0.6555 -0.2421
  374MOL0     C50399   6.675   1.093   7.767 -0.2529 -0.0262 -0.4526
  374MOL0    Cl50400   6.700   0.990   7.625 -0.1255 -0.0483  0.2263
  374MOL0     C50401   7.159   0.605   8.382 -0.0694 -0.0059  0.2210
  374MOL0     C50402   7.196   0.604   8.516  0.3168  0.4629 -0.5180
  374MOL0     O50403   7.207   0.270   8.795 -0.5515  0.5055 -0.0233
  374MOL0     C50404   7.304   0.302   9.059  0.9690 -0.8826 -0.1781
  374MOL0     C50405   7.359   0.328   9.181  0.2242 -0.1756 -0.5835
  374MOL0     N50406   8.003   0.380   9.633 -0.5072  0.8335 -0.2380
  374MOL0     N50407   8.132   0.403   9.609 -0.0079  1.1133 -0.7445
  374MOL0     C50408   9.115   0.288   9.963  0.5164 -0.3356  0.5515
  374MOL0     C50409   9.258   0.284   9.964  0.3946 -0.1904 -0.1311
  374MOL0     C50410   9.669   0.216   9.788 -0.0652  0.9390 -0.7924
  374MOL0     C50411   9.770   0.316   9.771  0.2220 -0.1810  0.6883
  374MOL0     C50412   9.900   0.288   9.727  0.2136  1.5734  0.0369
  374MOL0     C50413   9.935   0.158   9.709  0.4307  0.4386  0.1234
  374MOL0     O50414  10.059   0.121   9.658  0.1210 -0.0240 -0.4801
  374MOL0     C50415  10.089   0.139   9.517  0.3519  0.5061  0.0054
  374MOL0     C50416  10.045   0.251   9.427  0.7665  0.1752  0.0469
  374MOL0     C50417  10.099   0.224   9.286 -0.2373  0.1535 -0.0997
  374MOL0     C50418  10.057   0.103   9.201 -0.1496 -0.3016  0.0585
  374MOL0     C50419  10.106   0.117   9.059 -1.2961  0.4111 -1.0184
  374MOL0     C50420  10.130   0.137   8.939 -0.6974  0.0839  0.0096
  374MOL0     C50421   9.834   0.054   9.727  0.3753 -0.5458 -0.6288
  374MOL0     C50422   9.701   0.081   9.757  1.1138 -0.8793 -0.4016
  374MOL0     H50423   9.280  -0.015   9.789  1.0655 -0.1891 -0.2265
  374MOL0     H50424   9.036  -0.015   9.819 -0.6322  0.9933 -1.9982
  374MOL0     H50425   8.882   0.163   9.701 -2.1224  1.8968 -1.7698
  374MOL0     H50426   8.823   0.037   9.810 -0.7112 -0.1154 -1.3301
  374MOL0     H50427   8.631   0.152   9.711 -0.7881  4.2471 -2.5003
  374MOL0     H50428   8.646   0.180   9.884  0.0976 -1.8478  0.1111
  374MOL0     H50429   8.738   0.414   9.835 -1.2341 -0.0587  0.8320
  374MOL0     H50430   8.714   0.381   9.653  1.8279 -2.4696 -0.3310
  374MOL0     H50431   8.491   0.368   9.680 -0.6245 -0.7290  0.3874
  374MOL0     H50432   8.484   0.377   9.859  1.7460 -0.3142  0.5722
  374MOL0     H50433   8.612   0.618   9.810  1.1587 -0.6007 -0.9889
  374MOL0     H50434   8.571   0.589   9.660  1.0154  0.3048  0.7353
  374MOL0     H50435   8.339   0.543   9.824  4.6041 -3.3942 -1.9047
  374MOL0     H50436   8.422   0.704   9.864  0.3667 -0.5515 -0.1503
  374MOL0     H50437   8.242   0.736   9.718  0.5867 -2.1601  1.8229
  374MOL0     H50438   8.392   0.769   9.624 -0.3442  0.8796 -0.3912
  374MOL0     H50439   8.378   0.514   9.547  0.9742  1.2467 -1.5226
  374MOL0     H50440   8.296   0.633   9.455 -1.6057  4.2387  1.4556
  374MOL0     H50441   8.004   0.704   9.574 -0.3622 -0.1075  1.5392
  374MOL0     H50442   7.753   0.447   9.724 -0.2208 -2.2139 -1.8349
  374MOL0     H50443   7.771   0.609   9.664  1.6117 -0.3853  2.6724
  374MOL0     H50444   7.759   0.346   9.503 -0.7669 -0.4011 -4.1430
  374MOL0     H50445   7.753   0.495   9.425 -0.6787 -2.5347 -1.6955
  374MOL0     H50446   7.533   0.535   9.559 -1.2927 -0.0166 -1.6251
  374MOL0     H50447   7.550   0.363   9.626  0.6866  0.6492  1.4023
  374MOL0     H50448   7.384   0.371   9.479  0.1921 -1.4217  1.7267
  374MOL0     H50449   7.507   0.268   9.408  0.7483  0.8673 -1.7586
  374MOL0     H50450   7.528   0.615   9.116 -0.8125  0.4338  1.2520
  374MOL0     H50451   7.436   0.578   8.777  0.3143 -2.2198  0.5953
  374MOL0     H50452   7.336   0.694   8.868  3.2152  2.8276 -2.5124
  374MOL0     H50453   7.510   0.671   8.904 -0.9091  1.3154  1.9501
  374MOL0     H50454   7.080   0.295   8.593 -0.3690 -0.9193 -1.9463
  374MOL0     H50455   7.024   0.305   8.350 -1.0486  1.8307 -1.2709
  374MOL0     H50456   7.041   0.682   8.129 -1.5963 -0.5913  1.8454
  374MOL0     H50457   7.196   0.608   8.081  1.1263 -2.7622  1.9228
  374MOL0     H50458   7.033   0.457   7.928  1.3066  0.6931 -0.8077
  374MOL0     H50459   6.913   0.586   7.969  0.7787  1.0783 -1.8310
  374MOL0     H50460   7.030   0.609   7.750 -0.3078  0.7348 -0.3612
  374MOL0     H50461   7.180   0.636   7.846  0.0596  0.8338 -0.4294
  374MOL0     H50462   7.075   0.818   7.974 -2.0887  0.0492  0.6880
  374MOL0     H50463   7.093   0.866   7.798  0.2149 -0.3126  0.5642
  374MOL0     H50464   6.844   0.779   7.932 -0.9711  1.2514  0.7596
  374MOL0     H50465   6.868   0.822   7.760 -3.6029 -2.0606  2.2403
  374MOL0     H50466   6.921   1.015   7.991  3.3746 -1.2639 -1.0738
  374MOL0     H50467   6.931   1.057   7.823 -0.5005  1.5327  0.8383
  374MOL0     H50468   6.699   1.082   7.975  3.9221 -1.0998  1.2357
  374MOL0     H50469   6.654   0.932   7.905 -0.0260 -0.1029  0.6040
  374MOL0     H50470   6.739   1.181   7.768 -0.4350  0.1715  2.4597
  374MOL0     H50471   6.569   1.120   7.767 -0.6553 -1.3424 -2.8738
  374MOL0     H50472   7.175   0.693   8.321 -1.0618  0.1883  0.2206
  374MOL0     H50473   7.239   0.675   8.586  0.8952 -1.2807  0.9850
  374MOL0     H50474   7.243   0.213   9.048  0.4423 -1.8829  6.5466
  374MOL0     H50475   7.338   0.258   9.261  2.3024 -0.5848 -0.3421
  374MOL0     H50476   9.064   0.375  10.004  1.4381 -0.3169  1.7212
  374MOL0     H50477   9.316   0.370   9.994 -1.4404  0.8949  0.4670
  374MOL0     H50478   9.742   0.420   9.782 -0.9157 -0.0340 -2.4866
  374MOL0     H50479   9.971   0.365   9.699  3.7635 -1.5248 -0.1948
  374MOL0     H50480  10.199   0.140   9.522  0.4614  3.3428 -1.1029
  374MOL0     H50481  10.051   0.047   9.473  3.0901  0.3193 -2.2743
  374MOL0     H50482  10.075   0.351   9.461 -4.3001  1.9155  0.1349
  374MOL0     H50483   9.936   0.251   9.429  0.7712 -0.8156  0.8293
  374MOL0     H50484  10.208   0.217   9.290  0.0856  2.6158 -1.9531
  374MOL0     H50485  10.085   0.317   9.231  2.4601  0.0430 -1.1079
  374MOL0     H50486   9.951   0.076   9.201  0.2072 -1.7298  0.0150
  374MOL0     H50487  10.111   0.019   9.245 -1.3487 -1.5477 -0.7615
  374MOL0     H50488  10.133   0.150   8.833 -1.7424 -0.4749 -0.1079
  374MOL0     H50489   9.881  -0.038   9.697 -0.6816 -1.5034  0.5431
  374MOL0     H50490   9.628   0.003   9.741 -0.2670  0.4785 -1.0188
  375MOL0     O50491   3.163   9.839   8.038  0.5400  0.3587 -0.2333
  375MOL0     C50492   3.087   9.901   8.105  0.7795 -0.5943 -1.0591
  375MOL0     O50493   2.984   9.839   8.176 -0.0953  0.4624  0.6604
  375MOL0     C50494   2.964   9.701   8.163  0.4362 -0.0634  0.2723
  375MOL0     C50495   2.892   9.641   8.060  0.0724 -0.4062  0.4659
  375MOL0     C50496   2.891   9.498   8.049 -0.0698  0.1854  0.1171
  375MOL0     C50497   2.956   9.421   8.152  0.2378  0.1206  0.3998
  375MOL0     O50498   2.940   9.284   8.171 -0.1465 -0.8129  0.3346
  375MOL0     C50499   2.828   9.251   8.254 -0.5637 -0.5668 -0.0369
  375MOL0     C50500   2.735   9.158   8.178 -0.2721 -0.2562  1.1219
  375MOL0     C50501   2.630   9.234   8.092 -0.5808  0.3238 -0.4164
  375MOL0     C50502   2.535   9.134   8.029  0.2210  0.6011  0.0209
  375MOL0     C50503   2.414   9.195   7.951  0.2706  0.0388 -0.3380
  375MOL0     C50504   2.467   9.295   7.843  0.1309 -0.1823  0.0323
  375MOL0     C50505   2.348   9.329   7.756  0.9629 -0.9526  0.0766
  375MOL0     C50506   2.288   9.212   7.666 -0.4695  0.1520 -0.2338
  375MOL0     N50507   2.389   9.169   7.560 -0.3836 -0.1950 -0.1382
  375MOL0     C50508   2.497   9.086   7.565  0.3158  0.0421 -0.2093
  375MOL0     C50509   2.547   9.064   7.445  0.1156 -0.1300  0.4560
  375MOL0     C50510   2.668   8.986   7.392 -0.5798 -0.5551 -0.5941
  375MOL0     C50511   2.662   8.914   7.251  0.9939 -0.2226  0.3264
  375MOL0     C50512   2.803   8.909   7.195  0.5724  1.1693  0.2860
  375MOL0     C50513   2.906   8.819   7.280  0.2195 -1.0941 -0.1615
  375MOL0     O50514   2.851   8.694   7.286 -0.1184  1.0542 -0.0642
  375MOL0     C50515   2.904   8.595   7.364 -0.4234 -0.7786  0.2631
  375MOL0     C50516   3.008   8.616   7.449 -0.7296  0.0312 -0.6398
  375MOL0     C50517   3.063   8.506   7.520  0.6070  0.1236  0.1553
  375MOL0     C50518   3.193   8.524   7.597 -0.7339 -0.0516 -0.2945
  375MOL0     C50519   2.998   8.381   7.525  0.1694 -0.2547  0.9051
  375MOL0     C50520   3.029   8.275   7.625  0.5452 -0.2191  0.3526
  375MOL0     O50521   3.003   8.309   7.757 -0.3419 -0.4569 -0.6697
  375MOL0     C50522   3.039   8.220   7.850 -0.5984 -0.5566  0.0878
  375MOL0     C50523   2.974   8.099   7.888  0.5378 -0.0306  0.6871
  375MOL0     C50524   3.034   8.018   7.981  0.3227 -1.0073  0.0702
  375MOL0     C50525   3.146   8.052   8.057 -0.4711 -0.4566 -0.4262
  375MOL0     O50526   3.208   7.965   8.145  0.6919 -0.2191 -0.6117
  375MOL0     C50527   3.280   8.005   8.260 -0.0919 -0.7221 -0.0287
  375MOL0     C50528   3.282   7.889   8.358 -0.1654  0.3241  0.8061
  375MOL0     C50529   3.316   7.923   8.510 -0.8750  0.2101 -0.7448
  375MOL0     C50530   3.280   7.801   8.601  0.6299  0.3167 -0.1908
  375MOL0     C50531   3.331   7.790   8.747 -0.5285  0.9422 -0.2073
  375MOL0     C50532   3.304   7.651   8.810 -0.0218  0.7350 -0.2646
  375MOL0     C50533   3.398   7.548   8.756 -0.3019 -0.0961  0.2403
  375MOL0     C50534   3.395   7.421   8.841 -0.2465 -0.8433  0.8344
  375MOL0    Cl50535   3.535   7.313   8.799  0.0344 -0.3310  0.0810
  375MOL0     C50536   3.206   8.176   8.025 -0.7473  0.3547  0.4934
  375MOL0     C50537   3.151   8.257   7.919 -0.0632  0.3551 -0.1593
  375MOL0     O50538   3.047   8.162   7.581 -0.4487  0.3765 -0.2333
  375MOL0     C50539   2.904   8.362   7.432  0.0932 -0.7188 -0.2910
  375MOL0     C50540   2.854   8.469   7.353  0.0611 -0.5750 -0.1595
  375MOL0     N50541   2.454   9.113   7.362 -0.2399 -0.5178  0.0173
  375MOL0     N50542   2.378   9.195   7.425  0.9294  0.2441 -0.0563
  375MOL0     C50543   3.042   9.482   8.247  0.5919  0.4556 -0.2721
  375MOL0     C50544   3.042   9.625   8.255  0.0486  0.5767 -0.0271
  375MOL0     C50545   3.115  10.038   8.110  0.1668  0.4382  0.0551
  375MOL0     C50546   3.018  10.114   8.178 -0.8013  0.4447  0.4212
  375MOL0     C50547   3.049  10.249   8.218 -0.4936  0.6146  0.2999
  375MOL0     C50548   3.174  10.308   8.174  0.4817 -0.2092 -0.1492
  375MOL0     O50549   3.209  10.440   8.203 -0.5220  0.2866  0.6257
  375MOL0     C50550   3.350  10.478   8.219  1.0767  0.3998  0.3215
  375MOL0     C50551   3.344  10.625   8.271 -0.2293  1.0124  0.0123
  375MOL0     C50552   3.314  10.608   8.423 -0.1006  0.6691  0.9393
  375MOL0     C50553   3.320  10.739   8.491  0.0399 -0.6476  0.3375
  375MOL0     C50554   3.201  10.814   8.466  0.0121 -0.1133  0.3746
  375MOL0     C50555   3.111  10.896   8.464  0.6920  1.0186 -0.8420
  375MOL0     C50556   3.262  10.232   8.086  0.6788  0.1717 -0.1057
  375MOL0     C50557   3.236  10.091   8.065 -0.8407 -1.1672  0.2853
  375MOL0     H50558   2.828   9.701   7.996 -0.3324 -0.3871  0.8814
  375MOL0     H50559   2.838   9.436   7.978  1.1846 -0.1630 -0.5471
  375MOL0     H50560   2.849   9.202   8.350  1.3126 -4.0593 -2.0192
  375MOL0     H50561   2.773   9.343   8.272 -0.6230 -0.3479 -1.2475
  375MOL0     H50562   2.804   9.094   8.121 -1.0495  1.9459 -2.6260
  375MOL0     H50563   2.677   9.103   8.251  1.5676 -1.2260  1.9221
  375MOL0     H50564   2.573   9.304   8.154  0.7373 -0.1582  1.4208
  375MOL0     H50565   2.691   9.288   8.019 -0.2770  0.4978 -0.0383
  375MOL0     H50566   2.576   9.060   7.959 -0.5305  2.2505 -2.2859
  375MOL0     H50567   2.495   9.076   8.113 -0.0567 -0.8355 -1.0551
  375MOL0     H50568   2.362   9.108   7.910  2.0287 -0.7660 -0.9592
  375MOL0     H50569   2.348   9.256   8.014 -1.5520 -2.0805 -0.0654
  375MOL0     H50570   2.501   9.390   7.885 -0.9562 -0.5242  1.8092
  375MOL0     H50571   2.551   9.259   7.782  0.7025 -1.0105  1.2630
  375MOL0     H50572   2.268   9.366   7.821  2.4799 -0.5795  1.8055
  375MOL0     H50573   2.391   9.404   7.689  0.4732 -1.5658 -0.9471
  375MOL0     H50574   2.200   9.247   7.611 -0.4925 -0.2785 -0.4733
  375MOL0     H50575   2.258   9.127   7.727  3.8046 -0.5523  1.2041
  375MOL0     H50576   2.545   9.056   7.658  0.0847  0.9883  0.2258
  375MOL0     H50577   2.751   9.056   7.405 -1.5429 -0.0100  4.4422
  375MOL0     H50578   2.691   8.905   7.461 -0.6765 -1.3764 -1.4991
  375MOL0     H50579   2.594   8.969   7.185  2.3665  0.5334 -0.5064
  375MOL0     H50580   2.630   8.811   7.270  2.8518 -1.0009 -0.4487
  375MOL0     H50581   2.834   9.011   7.169 -3.1276  2.5635  0.8061
  375MOL0     H50582   2.798   8.854   7.101 -0.4973  0.6332  0.6470
  375MOL0     H50583   2.913   8.861   7.380  3.1479  0.7502 -1.0002
  375MOL0     H50584   3.003   8.819   7.228  0.9528  0.7398  1.0906
  375MOL0     H50585   3.055   8.713   7.464  0.5443 -0.7269  0.6117
  375MOL0     H50586   3.262   8.590   7.544  1.2866 -2.9204 -1.5145
  375MOL0     H50587   3.172   8.553   7.700 -0.5520  2.9948 -1.0224
  375MOL0     H50588   3.242   8.427   7.606 -1.2812 -0.3960 -0.9165
  375MOL0     H50589   2.880   8.069   7.842 -1.0921  1.7074  2.6795
  375MOL0     H50590   2.978   7.927   7.998 -2.3395  0.5578  0.4111
  375MOL0     H50591   3.377   8.038   8.223 -0.2287 -0.6791 -0.3551
  375MOL0     H50592   3.230   8.095   8.297  2.3264  0.9367 -0.5346
  375MOL0     H50593   3.185   7.842   8.370  1.3082 -2.7774  1.5418
  375MOL0     H50594   3.347   7.815   8.310 -2.9724 -0.7786 -1.5754
  375MOL0     H50595   3.266   8.010   8.555 -0.1643  0.0966  0.2934
  375MOL0     H50596   3.422   7.940   8.531  0.1832 -1.9989 -3.6386
  375MOL0     H50597   3.172   7.783   8.603  0.5109  1.0068 -0.1034
  375MOL0     H50598   3.336   7.723   8.549  1.6862  1.0305 -0.1709
  375MOL0     H50599   3.281   7.863   8.811 -0.0767  2.9760 -2.0664
  375MOL0     H50600   3.436   7.818   8.758 -0.1458  0.5221 -2.3376
  375MOL0     H50601   3.325   7.654   8.917  0.6424 -1.6419 -0.2849
  375MOL0     H50602   3.200   7.618   8.800  0.7080 -1.6003 -0.7589
  375MOL0     H50603   3.501   7.586   8.762  0.8003 -3.0015  1.6976
  375MOL0     H50604   3.380   7.521   8.651 -1.1248  0.6950  0.1685
  375MOL0     H50605   3.300   7.370   8.823 -0.1921 -0.9867  0.9485
  375MOL0     H50606   3.406   7.453   8.945  2.9176  2.8541 -0.3895
  375MOL0     H50607   3.274   8.221   8.097 -0.7526 -0.4181  0.9818
  375MOL0     H50608   3.186   8.357   7.896 -0.7172  1.1047  1.8501
  375MOL0     H50609   2.869   8.262   7.409  1.5728 -1.1597 -0.7231
  375MOL0     H50610   2.779   8.440   7.280 -0.1992  0.8460 -0.4914
  375MOL0     H50611   3.096   9.429   8.325  1.3039 -3.3127 -2.9872
  375MOL0     H50612   3.090   9.683   8.333 -3.4194  3.4020  0.2574
  375MOL0     H50613   2.929  10.066   8.216 -0.0636 -1.6665 -0.3853
  375MOL0     H50614   2.973  10.292   8.282 -3.3847  0.6429 -2.8501
  375MOL0     H50615   3.421  10.417   8.275  0.9634  0.0652  0.1065
  375MOL0     H50616   3.385  10.479   8.115 -0.4750  1.2504 -0.2429
  375MOL0     H50617   3.264  10.675   8.216 -1.3810 -0.6195  0.1399
  375MOL0     H50618   3.440  10.674   8.256 -0.2098  1.0555  0.2869
  375MOL0     H50619   3.385  10.537   8.468 -1.9697 -0.5973  2.0017
  375MOL0     H50620   3.221  10.553   8.435  1.2054 -1.7893  0.5024
  375MOL0     H50621   3.413  10.793   8.472  0.3440 -1.0689  0.6241
  375MOL0     H50622   3.321  10.716   8.598 -0.8527  1.1882  0.7854
  375MOL0     H50623   3.036  10.973   8.456  0.8772  1.3563  0.3961
  375MOL0     H50624   3.356  10.274   8.055 -0.6604  2.4048 -1.4382
  375MOL0     H50625   3.313  10.035   8.014  1.3249  1.2308  0.7108
  376MOL0     O50626   0.302   7.780   3.936 -0.0177 -0.2209 -1.1285
  376MOL0     C50627   0.290   7.873   4.018 -0.3140  0.9984 -0.1581
  376MOL0     O50628   0.290   7.866   4.152  0.3863  0.6559  0.2019
  376MOL0     C50629   0.332   7.747   4.205 -0.1921  0.5118 -0.5693
  376MOL0     C50630   0.450   7.748   4.274  0.4026 -0.0050 -0.9793
  376MOL0     C50631   0.501   7.623   4.315  0.3781  0.3999  0.0713
  376MOL0     C50632   0.445   7.498   4.297  0.5585  0.8082  0.7304
  376MOL0     O50633   0.524   7.397   4.342  0.7042 -0.5532 -0.4425
  376MOL0     C50634   0.465   7.272   4.378  0.0395  0.5014 -0.2445
  376MOL0     C50635   0.472   7.161   4.280 -0.1144 -0.2625 -0.6378
  376MOL0     C50636   0.411   7.037   4.336 -0.0423  0.7411 -0.4324
  376MOL0     C50637   0.412   6.910   4.251  0.0812  0.2344  0.0823
  376MOL0     C50638   0.332   6.796   4.304 -1.2524  0.9343  1.5305
  376MOL0     C50639   0.336   6.678   4.205 -0.2984 -0.3279  0.2967
  376MOL0     C50640   0.203   6.602   4.203 -0.3855  0.4186  0.2878
  376MOL0     C50641   0.221   6.468   4.140  0.6115 -0.6806 -0.3093
  376MOL0     N50642   0.107   6.451   4.052 -0.4286 -0.1913 -0.5267
  376MOL0     C50643   0.121   6.448   3.915  0.6010 -0.6878  0.0523
  376MOL0     C50644  -0.011   6.442   3.878 -0.3269  0.3628 -0.5613
  376MOL0     C50645  -0.054   6.440   3.732  0.2733 -0.5549  0.2643
  376MOL0     C50646  -0.063   6.307   3.672 -0.1748  0.0240 -0.2882
  376MOL0     C50647   0.061   6.257   3.588 -0.1680  0.1392 -0.5380
  376MOL0     C50648   0.044   6.100   3.566 -0.2966  0.3739  0.5931
  376MOL0     O50649   0.145   6.052   3.478  0.1366  0.7040 -0.7341
  376MOL0     C50650   0.124   5.932   3.417  0.4236  0.0351  0.9697
  376MOL0     C50651   0.178   5.915   3.295 -0.1794  0.7245  0.8109
  376MOL0     C50652   0.177   5.798   3.234 -0.6061  0.6085  0.9666
  376MOL0     C50653   0.264   5.780   3.110 -1.1183 -0.0031  0.0610
  376MOL0     C50654   0.104   5.695   3.293 -0.8508  1.0921 -0.2544
  376MOL0     C50655   0.079   5.566   3.209 -0.1457  0.3773 -0.8102
  376MOL0     O50656   0.044   5.453   3.287  0.0377 -0.1812 -0.4786
  376MOL0     C50657  -0.023   5.357   3.210 -0.2108 -1.0034  0.8631
  376MOL0     C50658   0.052   5.254   3.152  0.1981  0.2363  0.1324
  376MOL0     C50659  -0.011   5.154   3.084 -0.1530  0.5264  0.8183
  376MOL0     C50660  -0.151   5.146   3.085 -0.1219  0.3296 -0.1435
  376MOL0     O50661  -0.209   5.045   3.019  0.2990 -0.2477 -0.0397
  376MOL0     C50662  -0.334   4.995   3.071  0.3478 -0.4655  0.4575
  376MOL0     C50663  -0.361   4.857   3.016  0.4907 -0.3547 -0.3810
  376MOL0     C50664  -0.484   4.780   3.081  0.0425 -0.5318  0.2723
  376MOL0     C50665  -0.503   4.655   2.997 -0.8056 -0.0108  0.2421
  376MOL0     C50666  -0.538   4.529   3.080 -0.9279  0.2226  0.0164
  376MOL0     C50667  -0.418   4.469   3.158 -0.4412  0.0706 -0.0836
  376MOL0     C50668  -0.468   4.354   3.245  0.1107 -0.8070  0.6830
  376MOL0     C50669  -0.535   4.245   3.163  0.2637 -0.0271  0.3598
  376MOL0    Cl50670  -0.433   4.198   3.030 -0.2294  0.3166 -0.4161
  376MOL0     C50671  -0.233   5.252   3.149  0.1858  0.0587 -0.8353
  376MOL0     C50672  -0.161   5.359   3.207 -0.2715  0.1201 -0.0399
  376MOL0     O50673   0.083   5.567   3.090  0.1893  0.1895 -0.4647
  376MOL0     C50674   0.045   5.707   3.421  0.2823 -0.9559  0.1519
  376MOL0     C50675   0.056   5.828   3.486 -0.5567  0.0288 -0.0208
  376MOL0     N50676  -0.090   6.423   3.993  0.5099 -0.1929  0.0052
  376MOL0     N50677  -0.024   6.443   4.094  0.4335 -0.2697 -0.7141
  376MOL0     C50678   0.316   7.499   4.238 -0.0732 -0.1278 -0.1535
  376MOL0     C50679   0.264   7.627   4.197  0.3715  1.3524 -0.9807
  376MOL0     C50680   0.290   8.006   3.961  0.3504 -0.7368  0.4490
  376MOL0     C50681   0.226   8.114   4.033  0.2101 -0.0124 -0.2638
  376MOL0     C50682   0.235   8.246   3.972  0.0263  0.8446 -1.2265
  376MOL0     C50683   0.288   8.270   3.844  0.8351  0.9688 -0.4021
  376MOL0     O50684   0.284   8.399   3.800  0.4776  0.0165 -0.0911
  376MOL0     C50685   0.356   8.434   3.684  0.9392 -0.7183  1.1327
  376MOL0     C50686   0.303   8.564   3.635 -0.5583 -0.4581  0.4096
  376MOL0     C50687   0.286   8.692   3.723  0.1634  0.9037 -0.4296
  376MOL0     C50688   0.412   8.736   3.781 -1.0210 -0.5012  0.5208
  376MOL0     C50689   0.386   8.867   3.852  0.1363 -0.0720 -0.3158
  376MOL0     C50690   0.365   8.986   3.886 -0.6104 -0.1027 -0.2244
  376MOL0     C50691   0.359   8.160   3.781  0.7395 -0.4197  0.1988
  376MOL0     C50692   0.352   8.028   3.838  0.4691  0.3964 -0.3342
  376MOL0     H50693   0.504   7.834   4.311 -1.2677 -0.0031  1.8095
  376MOL0     H50694   0.595   7.627   4.369  0.9195  0.1648 -0.8211
  376MOL0     H50695   0.525   7.243   4.464  1.8636  1.9134 -0.9748
  376MOL0     H50696   0.360   7.286   4.405 -0.7044 -2.0403 -1.5342
  376MOL0     H50697   0.424   7.194   4.187 -0.2041  0.6900 -0.2717
  376MOL0     H50698   0.581   7.155   4.275 -0.1434 -0.0921 -1.7768
  376MOL0     H50699   0.461   7.010   4.429 -0.3125 -1.3838 -0.8541
  376MOL0     H50700   0.310   7.040   4.379 -1.1332 -2.7311 -2.3075
  376MOL0     H50701   0.366   6.932   4.154 -3.4630  1.6595  1.8774
  376MOL0     H50702   0.515   6.882   4.227 -0.3820  0.1077 -1.9149
  376MOL0     H50703   0.372   6.774   4.403 -1.0533  0.1296  1.2718
  376MOL0     H50704   0.230   6.836   4.312 -0.5239  2.7379  2.5346
  376MOL0     H50705   0.367   6.707   4.105  0.7241  3.3749  1.5437
  376MOL0     H50706   0.418   6.615   4.241  0.0806  0.0750  0.1391
  376MOL0     H50707   0.150   6.595   4.299  0.7362 -3.4274  0.8124
  376MOL0     H50708   0.135   6.664   4.145  1.5711  1.6440 -0.7907
  376MOL0     H50709   0.239   6.378   4.200  2.9753 -0.8216 -1.1274
  376MOL0     H50710   0.314   6.474   4.082 -1.0746  0.1700 -3.1033
  376MOL0     H50711   0.208   6.449   3.849 -0.8037 -0.5411 -1.8791
  376MOL0     H50712  -0.152   6.490   3.735  0.7497  0.3567  1.1835
  376MOL0     H50713   0.011   6.506   3.674 -0.6208 -0.0407 -0.1725
  376MOL0     H50714  -0.158   6.312   3.619 -0.4792 -0.8301  0.1527
  376MOL0     H50715  -0.073   6.239   3.758 -1.7510  1.9248  1.1135
  376MOL0     H50716   0.150   6.289   3.642  0.6427 -2.6087 -0.1171
  376MOL0     H50717   0.055   6.323   3.501 -2.3770  0.2279 -0.3681
  376MOL0     H50718  -0.047   6.057   3.524  0.6953 -2.1670  0.8374
  376MOL0     H50719   0.066   6.055   3.664 -1.0032  0.2468  0.6960
  376MOL0     H50720   0.225   6.003   3.251 -1.8856  0.3834 -1.9313
  376MOL0     H50721   0.335   5.863   3.112  2.2697 -2.6933  0.7071
  376MOL0     H50722   0.319   5.686   3.109 -1.9086 -0.4780  0.0123
  376MOL0     H50723   0.208   5.787   3.016 -0.9927  0.8398  0.0433
  376MOL0     H50724   0.156   5.274   3.174  0.1094  1.0949 -0.1770
  376MOL0     H50725   0.051   5.083   3.031  0.6864  1.7691  0.0882
  376MOL0     H50726  -0.330   4.994   3.180  3.6062 -2.1582  0.4511
  376MOL0     H50727  -0.415   5.062   3.039 -0.5359 -1.4303  0.6198
  376MOL0     H50728  -0.376   4.862   2.907 -2.2799  2.7138 -0.0206
  376MOL0     H50729  -0.274   4.796   3.041  1.0372  0.1297 -1.0563
  376MOL0     H50730  -0.576   4.839   3.078  0.0829 -0.3312  2.0028
  376MOL0     H50731  -0.466   4.753   3.185 -1.9584 -3.3840 -0.0223
  376MOL0     H50732  -0.577   4.682   2.921 -1.8494 -2.1634  0.4234
  376MOL0     H50733  -0.411   4.630   2.943 -1.4381 -1.7893 -0.0750
  376MOL0     H50734  -0.558   4.448   3.009 -1.8516 -1.2039  1.8432
  376MOL0     H50735  -0.623   4.538   3.149  0.0614  0.7085  1.2078
  376MOL0     H50736  -0.341   4.438   3.086  0.0225 -0.5942  0.6736
  376MOL0     H50737  -0.374   4.539   3.230  1.8926 -0.2916 -1.0532
  376MOL0     H50738  -0.538   4.394   3.320  1.3061 -0.3229  1.5704
  376MOL0     H50739  -0.385   4.302   3.293  0.5415 -1.1197 -0.3878
  376MOL0     H50740  -0.631   4.284   3.128  1.2443 -0.3880 -3.0085
  376MOL0     H50741  -0.554   4.158   3.226  2.2745 -1.4797 -0.9225
  376MOL0     H50742  -0.341   5.254   3.147  0.1035 -2.0014 -2.9222
  376MOL0     H50743  -0.211   5.441   3.258 -0.9825 -2.2947  3.5154
  376MOL0     H50744  -0.018   5.633   3.469 -0.0941 -0.0245  1.1444
  376MOL0     H50745   0.017   5.843   3.586 -2.5066 -2.3271 -0.3313
  376MOL0     H50746   0.247   7.415   4.232 -1.8684  0.8060  3.7107
  376MOL0     H50747   0.171   7.634   4.141 -0.2708  1.2070  0.0445
  376MOL0     H50748   0.168   8.089   4.121 -0.2422 -1.7755 -1.0236
  376MOL0     H50749   0.224   8.336   4.032 -0.6793  0.3543 -0.6062
  376MOL0     H50750   0.464   8.450   3.699  1.2175 -1.0410 -0.4090
  376MOL0     H50751   0.349   8.361   3.603 -3.0531  0.2640  0.4089
  376MOL0     H50752   0.203   8.540   3.599 -1.7768 -0.4720  3.4723
  376MOL0     H50753   0.363   8.596   3.550  1.2531 -2.7005  0.7658
  376MOL0     H50754   0.221   8.675   3.809  1.5892  2.8310  1.1245
  376MOL0     H50755   0.239   8.769   3.660  0.5654  2.6572  1.2998
  376MOL0     H50756   0.488   8.749   3.703  0.5111  1.9119  2.2616
  376MOL0     H50757   0.448   8.668   3.859  1.5461  0.8049  0.5684
  376MOL0     H50758   0.349   9.079   3.938  3.2484  2.7857 -3.5826
  376MOL0     H50759   0.405   8.175   3.684 -0.8246  0.7828 -0.3881
  376MOL0     H50760   0.400   7.946   3.786 -0.5960  0.6555 -1.7879
  377MOL0     O50761   9.933   0.786   7.379  0.3567  0.2082  0.3679
  377MOL0     C50762  10.012   0.770   7.288  0.6469  0.1920  0.5413
  377MOL0     O50763  10.129   0.826   7.285 -0.2650  0.6350 -0.2298
  377MOL0     C50764  10.162   0.900   7.399  0.7476  0.7019  0.0402
  377MOL0     C50765  10.235   0.840   7.506  0.1395  0.2212 -0.7370
  377MOL0     C50766  10.274   0.911   7.616  0.7073  0.8343 -0.9502
  377MOL0     C50767  10.245   1.051   7.625  0.4892  0.1230  0.7208
  377MOL0     O50768  10.274   1.140   7.727  0.6099 -1.1066 -0.1427
  377MOL0     C50769  10.357   1.098   7.842 -0.2503  0.3924  0.1810
  377MOL0     C50770  10.503   1.137   7.809 -0.2477  0.7209 -0.7430
  377MOL0     C50771  10.599   1.092   7.911  0.8308 -0.4525 -0.0471
  377MOL0     C50772  10.631   0.948   7.917 -0.3281  0.7009  0.1713
  377MOL0     C50773  10.781   0.920   7.885 -0.0130 -0.0699 -0.1529
  377MOL0     C50774  10.796   0.776   7.861 -0.3823  0.9734 -0.3614
  377MOL0     C50775  10.942   0.729   7.868 -0.1881  0.3787 -0.1181
  377MOL0     C50776  11.013   0.761   7.727  0.0245 -0.0770 -0.3180
  377MOL0     N50777  11.132   0.681   7.721 -0.6016 -0.0224 -0.0842
  377MOL0     C50778  11.254   0.712   7.648  0.6386 -0.8057 -0.3502
  377MOL0     C50779  11.324   0.604   7.657 -0.2162 -0.2800  0.0152
  377MOL0     C50780  11.452   0.577   7.575  0.2263 -0.3267 -0.1153
  377MOL0     C50781  11.579   0.607   7.642 -0.6650  0.3193  0.5241
  377MOL0     C50782  11.599   0.748   7.694 -0.2684  1.3921 -0.1133
  377MOL0     C50783  11.745   0.762   7.739 -0.9748 -0.2298  0.2632
  377MOL0     O50784  11.760   0.901   7.783  0.7043  0.1022 -0.2780
  377MOL0     C50785  11.875   0.951   7.815 -0.3338  0.3393 -0.0393
  377MOL0     C50786  11.910   1.089   7.809  0.1591 -0.2210 -0.1961
  377MOL0     C50787  12.033   1.133   7.854 -0.0279 -0.5974  0.6478
  377MOL0     C50788  12.049   1.285   7.854 -0.0512 -0.5993 -0.6563
  377MOL0     C50789  12.133   1.043   7.895 -0.2197  0.0110 -0.4429
  377MOL0     C50790  12.266   1.090   7.938 -0.5480 -0.6988  0.2896
  377MOL0     O50791  12.320   1.190   7.869 -0.1819  0.6745  0.7762
  377MOL0     C50792  12.449   1.229   7.906 -0.8709 -0.4419 -0.2776
  377MOL0     C50793  12.559   1.207   7.819 -0.2336 -1.1391  0.7065
  377MOL0     C50794  12.692   1.253   7.848  0.4063 -0.5365  0.8165
  377MOL0     C50795  12.711   1.323   7.959  0.4431 -0.4201 -0.6386
  377MOL0     O50796  12.838   1.368   7.986 -0.0486  0.1147  0.2723
  377MOL0     C50797  12.864   1.507   8.026  0.2151  0.7507  0.1492
  377MOL0     C50798  13.010   1.530   8.012  0.2922 -0.5507 -0.1380
  377MOL0     C50799  13.055   1.561   7.876  0.3254  0.2970  0.1962
  377MOL0     C50800  13.199   1.605   7.855 -0.3158 -1.6082  0.0001
  377MOL0     C50801  13.216   1.682   7.728 -0.0266  0.1141 -0.0361
  377MOL0     C50802  13.363   1.701   7.682  0.8379 -0.3515 -0.5804
  377MOL0     C50803  13.362   1.740   7.525  0.7463  0.3359 -0.1760
  377MOL0     C50804  13.488   1.707   7.445 -0.3074  0.1503  0.0139
  377MOL0    Cl50805  13.516   1.836   7.323  0.0978  0.1856 -0.0225
  377MOL0     C50806  12.597   1.347   8.048 -0.1364 -0.0830  0.1806
  377MOL0     C50807  12.475   1.299   8.020 -0.4716 -0.2685  0.7807
  377MOL0     O50808  12.328   1.029   8.028  1.4970  0.3683  0.1230
  377MOL0     C50809  12.096   0.912   7.895 -0.7730  0.0193  0.1347
  377MOL0     C50810  11.971   0.864   7.854  0.1203 -0.4952  0.2300
  377MOL0     N50811  11.255   0.505   7.726  0.4385  0.2295  0.5858
  377MOL0     N50812  11.138   0.553   7.764 -0.5980  0.6688 -0.1261
  377MOL0     C50813  10.178   1.109   7.516 -0.0110  0.1527 -0.2902
  377MOL0     C50814  10.145   1.035   7.400 -0.2191  0.5426  0.1930
  377MOL0     C50815   9.975   0.687   7.170  0.2271  0.1876  0.0544
  377MOL0     C50816   9.874   0.598   7.193  0.2263  0.8757  0.3465
  377MOL0     C50817   9.830   0.521   7.076  0.6291 -0.9655 -0.9670
  377MOL0     C50818   9.903   0.515   6.957 -0.1620  0.2694 -0.4590
  377MOL0     O50819   9.858   0.437   6.852 -0.0799  0.5531 -0.8265
  377MOL0     C50820   9.889   0.490   6.718 -0.3463  0.6324  0.7785
  377MOL0     C50821   9.827   0.415   6.601 -0.1499 -0.0245 -0.0582
  377MOL0     C50822   9.862   0.268   6.602 -0.1594  0.3481 -1.2734
  377MOL0     C50823   9.786   0.200   6.497 -0.5140  0.0082 -0.5337
  377MOL0     C50824   9.828   0.059   6.490 -0.5009 -0.4521  0.6961
  377MOL0     C50825   9.882  -0.051   6.493  0.0223 -1.8252 -0.3762
  377MOL0     C50826  10.006   0.612   6.947 -0.3270 -0.2407 -0.1253
  377MOL0     C50827  10.050   0.689   7.055  0.8441  0.0802 -0.2211
  377MOL0     H50828  10.266   0.736   7.498 -1.4807 -0.4645  0.9834
  377MOL0     H50829  10.332   0.859   7.691 -0.3751  0.6419 -0.2151
  377MOL0     H50830  10.323   1.150   7.932  0.0546 -1.2687  1.3056
  377MOL0     H50831  10.349   0.990   7.857  1.0222  0.3924  0.9419
  377MOL0     H50832  10.538   1.088   7.718  0.1552  1.5543 -1.0462
  377MOL0     H50833  10.514   1.245   7.802  1.8871  0.8438  2.4269
  377MOL0     H50834  10.692   1.140   7.877 -0.4777  3.5063  1.3189
  377MOL0     H50835  10.556   1.125   8.006  1.3553  0.0399  0.0273
  377MOL0     H50836  10.621   0.928   8.024  4.5276  0.9254  0.9016
  377MOL0     H50837  10.561   0.881   7.867  0.6747 -0.9658  0.9422
  377MOL0     H50838  10.814   0.968   7.792  0.4290 -1.4464 -0.7416
  377MOL0     H50839  10.841   0.959   7.966 -2.2360  1.7302  0.7361
  377MOL0     H50840  10.741   0.731   7.945  1.0446  1.1901  0.7303
  377MOL0     H50841  10.745   0.742   7.770 -1.0567  1.0684 -0.0228
  377MOL0     H50842  11.002   0.767   7.952 -1.1155 -1.2882  1.3691
  377MOL0     H50843  10.933   0.622   7.884  0.2836  0.3130 -0.2621
  377MOL0     H50844  11.053   0.863   7.728  0.6635 -0.2688  2.3616
  377MOL0     H50845  10.950   0.731   7.643  0.4253 -0.3799 -0.5116
  377MOL0     H50846  11.276   0.801   7.589 -1.2439 -1.6525 -2.4561
  377MOL0     H50847  11.453   0.469   7.555  2.4860 -0.8704  2.3712
  377MOL0     H50848  11.449   0.630   7.479 -0.5116  1.9245  1.0844
  377MOL0     H50849  11.654   0.589   7.564 -0.7840 -2.3308  0.9499
  377MOL0     H50850  11.603   0.535   7.720  4.0032  0.2546 -0.6602
  377MOL0     H50851  11.533   0.780   7.776  1.6783  0.3467  1.9528
  377MOL0     H50852  11.572   0.819   7.614  0.0581  0.9862 -0.5872
  377MOL0     H50853  11.814   0.719   7.665 -0.9132 -3.8836  2.1935
  377MOL0     H50854  11.769   0.693   7.820 -0.6436  0.1347  0.4782
  377MOL0     H50855  11.834   1.164   7.793 -0.7705 -1.1378 -0.1924
  377MOL0     H50856  11.962   1.338   7.815 -1.2956 -0.7182  1.8013
  377MOL0     H50857  12.062   1.319   7.958  1.5883 -0.7042 -0.7896
  377MOL0     H50858  12.137   1.321   7.799  1.1775  0.9315  2.0951
  377MOL0     H50859  12.543   1.156   7.724  1.8364  0.1679 -0.4404
  377MOL0     H50860  12.777   1.238   7.782  0.0714 -1.1348  0.5129
  377MOL0     H50861  12.802   1.576   7.968 -0.4519 -0.7781 -1.0199
  377MOL0     H50862  12.845   1.517   8.133  0.8725 -0.3577  0.3835
  377MOL0     H50863  13.026   1.617   8.077 -0.5712  0.7393 -1.5872
  377MOL0     H50864  13.056   1.446   8.065 -1.8196 -1.3910  0.4661
  377MOL0     H50865  12.996   1.647   7.844  0.5830  1.5037  2.7371
  377MOL0     H50866  13.023   1.472   7.820  0.7053 -0.5529  1.2894
  377MOL0     H50867  13.226   1.667   7.940 -0.8353 -0.7981 -0.4187
  377MOL0     H50868  13.269   1.521   7.867  0.3549 -0.9909  0.5083
  377MOL0     H50869  13.159   1.775   7.741 -0.4793 -0.1682  0.0453
  377MOL0     H50870  13.161   1.642   7.642  0.4862 -2.0663  0.5905
  377MOL0     H50871  13.422   1.769   7.743  1.9027 -1.6973 -0.0579
  377MOL0     H50872  13.396   1.597   7.684 -2.1083 -1.3909  1.1355
  377MOL0     H50873  13.359   1.849   7.534  0.0929  0.2271  1.3475
  377MOL0     H50874  13.273   1.706   7.471  0.8261  1.6662 -1.2092
  377MOL0     H50875  13.478   1.618   7.383  2.0067 -1.2218  1.4813
  377MOL0     H50876  13.575   1.691   7.510 -1.0740 -1.6921  0.6440
  377MOL0     H50877  12.624   1.400   8.139  1.0206 -1.6280  0.7895
  377MOL0     H50878  12.397   1.322   8.092  1.1272  0.2686  2.4216
  377MOL0     H50879  12.157   0.824   7.916 -2.3169 -1.3483 -0.8085
  377MOL0     H50880  11.961   0.756   7.855 -0.8617 -0.4066  0.7721
  377MOL0     H50881  10.163   1.216   7.519 -0.8299  0.0918 -1.4860
  377MOL0     H50882  10.092   1.059   7.308 -3.1461 -3.0575  0.7323
  377MOL0     H50883   9.832   0.588   7.293  2.8341 -0.1344  1.4480
  377MOL0     H50884   9.749   0.448   7.080 -1.1728  0.9284 -0.9582
  377MOL0     H50885   9.862   0.594   6.697  0.6045  0.6933 -0.3090
  377MOL0     H50886   9.998   0.478   6.720 -0.5074 -1.9187  5.2939
  377MOL0     H50887   9.860   0.472   6.514 -0.5497  2.2314  1.1931
  377MOL0     H50888   9.718   0.418   6.596 -0.0848  0.4891 -2.4791
  377MOL0     H50889   9.833   0.223   6.697 -0.2021 -2.4367 -2.5014
  377MOL0     H50890   9.969   0.247   6.592 -0.0447 -0.3600  0.9629
  377MOL0     H50891   9.804   0.249   6.401 -1.1251 -3.5254 -2.6205
  377MOL0     H50892   9.678   0.193   6.516 -0.5611 -2.0741 -1.2764
  377MOL0     H50893   9.920  -0.150   6.507 -1.6321 -2.1486  2.8057
  377MOL0     H50894  10.051   0.636   6.851  1.7848  0.4718  0.9856
  377MOL0     H50895  10.134   0.754   7.035  0.4545  1.1334  1.3773
  378MOL0     O50896   4.779   3.666  10.390  0.0639 -0.7405  0.1920
  378MOL0     C50897   4.784   3.559  10.454  0.1661  0.0489 -0.0317
  378MOL0     O50898   4.680   3.460  10.462  0.3032  0.1600 -0.0576
  378MOL0     C50899   4.552   3.482  10.407 -0.5294  0.7315  0.0524
  378MOL0     C50900   4.488   3.379  10.348 -0.0258 -0.5106  0.5648
  378MOL0     C50901   4.366   3.412  10.280  0.5163  1.2116 -0.6529
  378MOL0     C50902   4.294   3.531  10.302  0.7407 -0.8062  0.2064
  378MOL0     O50903   4.157   3.541  10.266 -0.7804 -0.7021 -0.6332
  378MOL0     C50904   4.137   3.496  10.130 -0.4247 -0.3665 -0.6577
  378MOL0     C50905   4.048   3.371  10.136  0.5799  0.0261  0.5720
  378MOL0     C50906   3.919   3.408  10.203  0.7358  0.2646 -0.2524
  378MOL0     C50907   3.807   3.284  10.210  0.3371  0.1522 -0.1574
  378MOL0     C50908   3.654   3.336  10.219 -0.7508  1.7090  0.1092
  378MOL0     C50909   3.559   3.216  10.238  0.3787 -0.7755 -0.1730
  378MOL0     C50910   3.543   3.108  10.125  1.2808 -0.2696  1.0223
  378MOL0     C50911   3.501   3.181  10.001  0.4218  0.0134  0.4916
  378MOL0     N50912   3.448   3.076   9.908 -0.4451 -0.5666 -0.1130
  378MOL0     C50913   3.524   2.971   9.852 -0.5269 -0.7454 -0.6420
  378MOL0     C50914   3.432   2.900   9.786  0.6978  0.9266  0.6387
  378MOL0     C50915   3.464   2.768   9.704 -0.0257 -0.0962  0.0906
  378MOL0     C50916   3.378   2.781   9.572  0.2771  0.2157 -0.0496
  378MOL0     C50917   3.418   2.662   9.475  0.3818 -0.0306  0.6382
  378MOL0     C50918   3.301   2.636   9.382  0.4816 -0.5111  0.1411
  378MOL0     O50919   3.307   2.500   9.344 -0.1479  0.2110 -0.0763
  378MOL0     C50920   3.241   2.474   9.222 -0.7814  0.1403  0.0741
  378MOL0     C50921   3.318   2.388   9.141 -0.8526  0.0231  0.2637
  378MOL0     C50922   3.275   2.360   9.003 -0.5805 -0.6884 -0.6808
  378MOL0     C50923   3.370   2.286   8.917 -1.1958  0.4626 -0.5779
  378MOL0     C50924   3.146   2.397   8.965  0.0857  0.0527 -0.1718
  378MOL0     C50925   3.103   2.372   8.829  0.1286  0.1536  0.7385
  378MOL0     O50926   3.169   2.422   8.722  0.3144  0.1733 -0.4077
  378MOL0     C50927   3.146   2.375   8.591 -0.8912 -0.3100  0.0772
  378MOL0     C50928   3.263   2.352   8.526 -1.0268 -0.0423 -0.3741
  378MOL0     C50929   3.259   2.292   8.394  0.6491 -0.7665  0.0921
  378MOL0     C50930   3.133   2.249   8.338 -0.9141 -0.3528  0.4616
  378MOL0     O50931   3.123   2.186   8.213  0.3181  0.3196 -0.8602
  378MOL0     C50932   3.242   2.168   8.127 -0.1038 -0.6923  0.4056
  378MOL0     C50933   3.222   2.084   7.995 -0.3203 -0.2163  0.0418
  378MOL0     C50934   3.150   1.952   8.014  0.0896  0.0456  1.1503
  378MOL0     C50935   3.106   1.891   7.886  0.8192  0.1506 -0.1827
  378MOL0     C50936   3.027   1.774   7.932  0.3368  0.3138  0.0644
  378MOL0     C50937   2.994   1.671   7.826 -0.6608 -0.0420  0.2341
  378MOL0     C50938   3.100   1.625   7.726 -0.7635  0.8587  0.3966
  378MOL0     C50939   3.224   1.576   7.786 -1.0339 -0.1640  0.1478
  378MOL0    Cl50940   3.204   1.410   7.845 -0.0792 -0.4149  0.4127
  378MOL0     C50941   3.020   2.278   8.407 -0.0715 -0.0653 -0.8411
  378MOL0     C50942   3.026   2.337   8.534  0.4617  0.3023 -0.2980
  378MOL0     O50943   3.011   2.290   8.833 -1.1033 -0.2193  0.2556
  378MOL0     C50944   3.069   2.471   9.051 -1.2474  1.7626 -0.4375
  378MOL0     C50945   3.119   2.506   9.179  0.2193  0.4141 -0.6853
  378MOL0     N50946   3.304   2.952   9.807  0.2540  0.4096  0.4104
  378MOL0     N50947   3.318   3.060   9.876  0.1912  0.6600 -0.6996
  378MOL0     C50948   4.366   3.633  10.372  0.1103  0.1373  0.5473
  378MOL0     C50949   4.490   3.606  10.423 -0.7004  0.7324  0.7293
  378MOL0     C50950   4.902   3.520  10.527  1.1381  0.0320  0.0594
  378MOL0     C50951   4.925   3.389  10.578  0.0677 -0.3636  0.0535
  378MOL0     C50952   5.038   3.362  10.653  0.3404  0.1750  0.6656
  378MOL0     C50953   5.136   3.461  10.683  0.9221 -0.2566 -0.3968
  378MOL0     O50954   5.250   3.445  10.763 -0.1150  0.5568 -0.6735
  378MOL0     C50955   5.334   3.353  10.707 -0.2174 -0.0545  0.0906
  378MOL0     C50956   5.472   3.383  10.744  0.0179 -0.3339  0.3047
  378MOL0     C50957   5.576   3.281  10.688 -0.0429  0.2798  0.2973
  378MOL0     C50958   5.719   3.319  10.730 -0.1443  0.9578 -0.0161
  378MOL0     C50959   5.825   3.224  10.688  0.2688 -0.0398  0.4032
  378MOL0     C50960   5.919   3.166  10.644  0.0232  0.4241  1.1743
  378MOL0     C50961   5.105   3.592  10.655  0.5645  0.1383 -0.2522
  378MOL0     C50962   4.993   3.622  10.571  0.0318 -0.7210 -0.5947
  378MOL0     H50963   4.534   3.281  10.335  0.0119 -0.5835  1.2030
  378MOL0     H50964   4.316   3.339  10.217  0.1265  2.1511 -1.4561
  378MOL0     H50965   4.089   3.580  10.077  1.4554 -0.0116 -1.8841
  378MOL0     H50966   4.227   3.477  10.070  2.6136  0.3500  3.2725
  378MOL0     H50967   4.027   3.344  10.032  0.1216  3.6425 -0.3984
  378MOL0     H50968   4.093   3.285  10.186  0.9446 -1.7425 -2.4956
  378MOL0     H50969   3.935   3.439  10.307 -0.0122  1.0515 -0.3664
  378MOL0     H50970   3.880   3.498  10.156  2.6524  1.1834 -0.1526
  378MOL0     H50971   3.824   3.228  10.118  2.1765 -1.0667  0.8661
  378MOL0     H50972   3.844   3.219  10.290  0.1309 -1.6724 -1.4861
  378MOL0     H50973   3.647   3.405  10.304  1.6353  2.8824 -0.5675
  378MOL0     H50974   3.627   3.394  10.130  2.9905  3.0915 -0.3043
  378MOL0     H50975   3.582   3.163  10.330 -1.4418  0.5581  1.1093
  378MOL0     H50976   3.463   3.268  10.239  0.7147 -0.0697 -1.3445
  378MOL0     H50977   3.634   3.047  10.118  1.0178 -0.8029  1.9754
  378MOL0     H50978   3.454   3.050  10.151 -0.0862  1.4793  0.4495
  378MOL0     H50979   3.586   3.237   9.959 -2.2823  3.0887 -1.3983
  378MOL0     H50980   3.412   3.242  10.019  0.9201  1.0603 -0.4659
  378MOL0     H50981   3.632   2.954   9.857  0.1872  3.0989  0.7810
  378MOL0     H50982   3.570   2.764   9.679  0.1823 -2.9359  1.0550
  378MOL0     H50983   3.442   2.675   9.758  0.4442  0.8461  2.0070
  378MOL0     H50984   3.389   2.875   9.517  0.7484 -0.2181 -0.7167
  378MOL0     H50985   3.275   2.754   9.599  0.1755 -0.1450 -0.7848
  378MOL0     H50986   3.453   2.575   9.531  1.0311 -0.6012 -0.5972
  378MOL0     H50987   3.513   2.690   9.427  1.0437  1.1695  2.5477
  378MOL0     H50988   3.310   2.712   9.304 -1.4872 -0.7974 -0.3942
  378MOL0     H50989   3.203   2.650   9.428 -0.1853  1.3236 -1.7153
  378MOL0     H50990   3.417   2.358   9.175  0.0678  1.8576 -0.6930
  378MOL0     H50991   3.473   2.321   8.926 -1.0630 -0.3683  1.9659
  378MOL0     H50992   3.363   2.185   8.959  2.5857 -0.6244 -2.1722
  378MOL0     H50993   3.341   2.268   8.813 -2.6212  1.1081 -0.3154
  378MOL0     H50994   3.365   2.384   8.544 -0.5536 -1.9371  0.5621
  378MOL0     H50995   3.339   2.280   8.322 -0.0650  2.5152 -1.4250
  378MOL0     H50996   3.280   2.267   8.100 -2.2908  0.2399  0.4681
  378MOL0     H50997   3.312   2.112   8.189 -0.3096 -1.1886  0.1956
  378MOL0     H50998   3.155   2.139   7.929 -1.1118 -0.9985  0.1707
  378MOL0     H50999   3.325   2.067   7.960  1.0699  2.5601  2.4125
  378MOL0     H51000   3.060   1.977   8.071 -0.7273 -1.7330  0.7286
  378MOL0     H51001   3.221   1.880   8.058 -0.6308 -1.4750 -0.0622
  378MOL0     H51002   3.039   1.953   7.826 -2.1151 -3.5131 -1.0836
  378MOL0     H51003   3.193   1.865   7.824  0.7069 -2.1045  0.5268
  378MOL0     H51004   2.939   1.823   7.975 -0.2710  2.7329 -3.5804
  378MOL0     H51005   3.074   1.727   8.019  2.0683 -1.3687 -1.7028
  378MOL0     H51006   2.956   1.588   7.885 -0.4724 -0.3151 -0.0268
  378MOL0     H51007   2.915   1.716   7.764  1.4831  5.1978  0.7905
  378MOL0     H51008   3.138   1.709   7.667 -0.1923  1.4812  1.6097
  378MOL0     H51009   3.059   1.544   7.664 -0.4790 -1.3623  2.8879
  378MOL0     H51010   3.256   1.642   7.867  1.3281 -0.1774 -0.7155
  378MOL0     H51011   3.296   1.576   7.704 -2.8879  1.8258 -1.5845
  378MOL0     H51012   2.923   2.254   8.367  0.1304 -2.0650 -0.2744
  378MOL0     H51013   2.945   2.354   8.603  1.3854 -0.8292  1.1323
  378MOL0     H51014   2.970   2.500   9.017 -4.3273 -1.3548  4.5920
  378MOL0     H51015   3.051   2.561   9.242  2.3657  1.5629  0.7524
  378MOL0     H51016   4.323   3.732  10.385  1.3915  0.6494  1.0503
  378MOL0     H51017   4.544   3.688  10.470 -3.2438  3.9456 -1.4994
  378MOL0     H51018   4.860   3.307  10.547  0.0894 -0.3376 -0.0626
  378MOL0     H51019   5.067   3.260  10.677 -0.1025  0.2541  1.6191
  378MOL0     H51020   5.303   3.258  10.752  1.8450  1.0108  4.3063
  378MOL0     H51021   5.333   3.347  10.598  4.9417 -0.5096 -0.1796
  378MOL0     H51022   5.470   3.378  10.853  0.7752  0.9473  0.4001
  378MOL0     H51023   5.497   3.486  10.718  0.9358 -0.9112 -1.2349
  378MOL0     H51024   5.568   3.281  10.579 -0.0372 -1.4515  0.2758
  378MOL0     H51025   5.554   3.177  10.716 -2.3663  0.5958 -0.0730
  378MOL0     H51026   5.728   3.322  10.839 -1.0039  2.2790  0.0261
  378MOL0     H51027   5.736   3.416  10.683  0.1759 -0.1163 -2.2632
  378MOL0     H51028   6.001   3.103  10.616 -2.4823 -1.6833 -2.2065
  378MOL0     H51029   5.175   3.668  10.690  3.3981 -2.3832  0.0133
  378MOL0     H51030   4.967   3.726  10.553 -2.3200 -0.3326  3.6408
  379MOL0     O51031  11.159   2.022   7.718 -0.4574  0.2194 -0.1253
  379MOL0     C51032  11.135   2.132   7.666 -0.8787  0.6894  0.1783
  379MOL0     O51033  11.009   2.194   7.674 -0.0920 -0.3675  0.3219
  379MOL0     C51034  10.900   2.131   7.730  0.5052  0.4591 -0.1052
  379MOL0     C51035  10.913   2.092   7.859 -0.2238 -0.1522  0.4145
  379MOL0     C51036  10.805   2.030   7.925 -0.2107 -0.7466 -0.5493
  379MOL0     C51037  10.676   2.020   7.859 -0.2739  0.0703  0.0147
  379MOL0     O51038  10.574   1.969   7.934  0.1286  0.1473  0.1596
  379MOL0     C51039  10.449   1.944   7.858  0.8908 -0.0071 -0.1844
  379MOL0     C51040  10.339   1.903   7.956  0.5510 -0.4469 -0.7280
  379MOL0     C51041  10.199   1.871   7.882 -0.6812 -0.4867  0.3634
  379MOL0     C51042  10.071   1.881   7.971 -0.6118  0.2889 -0.0389
  379MOL0     C51043   9.939   1.896   7.880  0.2389  0.0591 -0.7080
  379MOL0     C51044   9.889   1.777   7.797 -0.3986  0.1866  0.5496
  379MOL0     C51045   9.771   1.805   7.705  0.3086 -0.3512  0.5288
  379MOL0     C51046   9.746   1.673   7.632  0.0334 -0.5440  1.1779
  379MOL0     N51047   9.634   1.688   7.532 -1.1084  0.7252 -0.0360
  379MOL0     C51048   9.514   1.607   7.540  1.0236 -0.4067 -0.7757
  379MOL0     C51049   9.447   1.635   7.422 -1.0589 -0.4437 -0.5841
  379MOL0     C51050   9.325   1.566   7.376 -0.3800  0.2173 -0.1561
  379MOL0     C51051   9.210   1.655   7.360  0.6583 -0.6628 -0.5512
  379MOL0     C51052   9.087   1.567   7.329  0.1973  0.6430  0.1852
  379MOL0     C51053   8.967   1.621   7.402 -1.1615  0.1065  1.1559
  379MOL0     O51054   8.856   1.547   7.348  0.3992 -0.1185  0.5694
  379MOL0     C51055   8.794   1.590   7.233  0.5208  0.6145 -0.9657
  379MOL0     C51056   8.829   1.679   7.130 -0.6878 -0.3341  0.1104
  379MOL0     C51057   8.744   1.691   7.018  0.0957 -0.2237 -0.4093
  379MOL0     C51058   8.775   1.800   6.915 -0.1280 -0.8986 -0.2073
  379MOL0     C51059   8.634   1.602   7.000  0.1371  0.3131 -0.6217
  379MOL0     C51060   8.536   1.604   6.889  0.6656 -0.8625 -0.3726
  379MOL0     O51061   8.515   1.714   6.818 -0.0092 -0.2879  0.5656
  379MOL0     C51062   8.440   1.700   6.703 -0.4565 -0.3764  0.2112
  379MOL0     C51063   8.497   1.713   6.580 -0.0503  0.8242  0.0316
  379MOL0     C51064   8.418   1.704   6.460  1.0071  0.7504 -0.6175
  379MOL0     C51065   8.276   1.699   6.475  0.2316 -0.0130  1.0901
  379MOL0     O51066   8.194   1.697   6.370 -0.5393 -0.6070  1.5245
  379MOL0     C51067   8.240   1.695   6.234  0.4033 -0.4271 -1.0548
  379MOL0     C51068   8.129   1.760   6.151  0.6835  0.5494  0.0112
  379MOL0     C51069   7.995   1.696   6.158  0.3989  0.3689  0.2579
  379MOL0     C51070   8.001   1.557   6.085 -0.0020  1.3622  0.7088
  379MOL0     C51071   7.967   1.444   6.189 -0.5530 -0.2481 -0.1154
  379MOL0     C51072   7.929   1.319   6.103 -0.1103  0.6695  0.5412
  379MOL0     C51073   8.030   1.268   5.990  0.1312 -1.3843 -0.9717
  379MOL0     C51074   8.009   1.131   5.942 -0.8669  0.2444 -0.7148
  379MOL0    Cl51075   7.856   1.130   5.837 -0.4148  0.2451  0.0173
  379MOL0     C51076   8.225   1.679   6.607  0.4085 -0.5545  0.4056
  379MOL0     C51077   8.304   1.682   6.716  0.4457 -0.7315 -0.1839
  379MOL0     O51078   8.502   1.495   6.854  0.2801  0.3226 -0.0176
  379MOL0     C51079   8.602   1.513   7.106  0.8926  0.0805 -0.0357
  379MOL0     C51080   8.687   1.506   7.213  0.2747  0.8424  0.8294
  379MOL0     N51081   9.516   1.734   7.351 -0.0275  0.3659 -0.1337
  379MOL0     N51082   9.625   1.762   7.423  0.2068  0.2645 -0.9273
  379MOL0     C51083  10.674   2.051   7.727  0.4448 -1.0225  0.2614
  379MOL0     C51084  10.778   2.113   7.658  0.0096 -1.1078  0.5401
  379MOL0     C51085  11.249   2.215   7.608  1.4594 -0.1057 -0.3861
  379MOL0     C51086  11.382   2.185   7.640 -1.3047 -0.0677 -0.0641
  379MOL0     C51087  11.480   2.263   7.576 -0.5608  0.8397 -0.2889
  379MOL0     C51088  11.446   2.374   7.503 -1.2233  0.3177 -0.4453
  379MOL0     O51089  11.531   2.462   7.441 -0.7650 -0.0494  0.2828
  379MOL0     C51090  11.666   2.427   7.413  0.6815 -0.3308 -1.1780
  379MOL0     C51091  11.674   2.367   7.271  0.1986  0.1859 -1.0222
  379MOL0     C51092  11.648   2.462   7.165 -0.3020  0.5962 -0.0870
  379MOL0     C51093  11.638   2.415   7.023 -0.1871  0.7939  0.0387
  379MOL0     C51094  11.771   2.376   6.968 -0.3763 -0.0550 -0.7876
  379MOL0     C51095  11.875   2.329   6.925  0.5440  0.1426 -0.3712
  379MOL0     C51096  11.320   2.413   7.493  0.4888 -0.4746  0.5231
  379MOL0     C51097  11.216   2.336   7.548 -0.5309 -0.4314 -0.7842
  379MOL0     H51098  11.015   2.104   7.896  0.8016  2.5518 -2.7973
  379MOL0     H51099  10.827   1.997   8.026  1.8492  1.6363 -0.1310
  379MOL0     H51100  10.413   2.032   7.804 -0.0875  0.1608  0.7151
  379MOL0     H51101  10.459   1.864   7.784  2.4307  0.5122 -0.5836
  379MOL0     H51102  10.365   1.817   8.019  0.1131 -1.0253 -1.3252
  379MOL0     H51103  10.316   1.994   8.013 -1.4860  1.2454 -3.9560
  379MOL0     H51104  10.176   1.948   7.808  4.0143  0.0177 -0.8611
  379MOL0     H51105  10.209   1.775   7.830 -0.1987 -0.8742  1.1425
  379MOL0     H51106  10.060   1.795   8.037  1.9844  2.1465  3.1250
  379MOL0     H51107  10.069   1.976   8.027  0.0926 -1.2716  2.8438
  379MOL0     H51108   9.855   1.924   7.944  0.5912 -2.1827  0.8843
  379MOL0     H51109   9.955   1.980   7.813 -2.4297 -0.7344 -2.4955
  379MOL0     H51110   9.971   1.739   7.734  0.1614  1.4133  0.4964
  379MOL0     H51111   9.863   1.699   7.869 -2.8561  1.2412  0.8901
  379MOL0     H51112   9.687   1.826   7.773  0.7764  2.3184  0.4205
  379MOL0     H51113   9.785   1.877   7.624  0.9571 -2.1507 -1.0195
  379MOL0     H51114   9.722   1.599   7.709  2.2571 -2.3536  0.2524
  379MOL0     H51115   9.833   1.628   7.583 -0.2859 -0.1454  0.2241
  379MOL0     H51116   9.498   1.525   7.609  4.1605 -0.2763  0.2857
  379MOL0     H51117   9.353   1.521   7.281 -0.0947 -1.3828  0.6535
  379MOL0     H51118   9.303   1.491   7.452 -1.6606  0.7335  0.0128
  379MOL0     H51119   9.225   1.744   7.298 -2.7771  0.5759  0.2060
  379MOL0     H51120   9.193   1.703   7.457  1.9408  1.4357 -1.2975
  379MOL0     H51121   9.098   1.468   7.374  0.5391 -0.0544 -1.3681
  379MOL0     H51122   9.067   1.563   7.222  0.3841  1.6670  0.0984
  379MOL0     H51123   8.964   1.729   7.385  2.2428  0.3638  1.3941
  379MOL0     H51124   8.960   1.593   7.507  0.6815 -1.6218  0.8927
  379MOL0     H51125   8.917   1.743   7.137 -1.9907  1.4783  0.6750
  379MOL0     H51126   8.784   1.769   6.811 -1.9865 -2.2479 -0.0267
  379MOL0     H51127   8.693   1.871   6.896  2.0406  1.4203 -1.5138
  379MOL0     H51128   8.862   1.856   6.949  0.0544  1.3913 -3.9546
  379MOL0     H51129   8.602   1.739   6.578 -0.6226  3.4104 -0.1459
  379MOL0     H51130   8.457   1.702   6.359 -3.1695 -0.8587 -2.4551
  379MOL0     H51131   8.333   1.747   6.210  0.4450 -0.3465 -0.7248
  379MOL0     H51132   8.245   1.592   6.199 -2.2964 -1.2577  0.7268
  379MOL0     H51133   8.120   1.863   6.186  2.2822  1.1818 -1.3086
  379MOL0     H51134   8.168   1.762   6.049 -2.6393  1.7657 -1.3638
  379MOL0     H51135   7.934   1.768   6.103  2.0284  0.4503 -1.5317
  379MOL0     H51136   7.980   1.666   6.262  1.9952 -2.9572 -0.3464
  379MOL0     H51137   7.927   1.557   6.004 -1.6090 -2.3546  1.9389
  379MOL0     H51138   8.095   1.529   6.037  0.0439 -1.0433  2.0421
  379MOL0     H51139   7.885   1.483   6.251 -0.0853  1.2428 -0.3990
  379MOL0     H51140   8.051   1.429   6.258 -0.5659  0.0769 -0.0256
  379MOL0     H51141   7.899   1.243   6.175  0.1445  1.3529  1.3749
  379MOL0     H51142   7.833   1.345   6.057 -0.1391  0.3660  0.4233
  379MOL0     H51143   8.131   1.280   6.031 -0.8972 -0.2413  1.3952
  379MOL0     H51144   8.026   1.344   5.911  1.1977  1.9697  1.9194
  379MOL0     H51145   7.976   1.067   6.025 -2.0431  3.9601  1.9523
  379MOL0     H51146   8.097   1.087   5.894 -0.6982  0.8071 -0.9241
  379MOL0     H51147   8.117   1.672   6.622 -0.5325  5.6034 -0.6422
  379MOL0     H51148   8.262   1.657   6.812 -1.7958 -2.0660 -1.4312
  379MOL0     H51149   8.506   1.463   7.099  0.6650  0.4858  0.1433
  379MOL0     H51150   8.663   1.430   7.287  3.1014 -2.9729 -1.7976
  379MOL0     H51151  10.587   2.038   7.663  0.4913 -0.3151  0.0439
  379MOL0     H51152  10.768   2.158   7.559  1.0732  1.0745  1.3606
  379MOL0     H51153  11.407   2.103   7.705  1.3205  0.0982 -0.7558
  379MOL0     H51154  11.583   2.232   7.592 -0.4969  1.3024  0.2474
  379MOL0     H51155  11.720   2.522   7.410 -1.6539  1.1685  0.3753
  379MOL0     H51156  11.708   2.362   7.490  2.0686  2.1186  0.2926
  379MOL0     H51157  11.594   2.292   7.271  1.2501 -0.9947 -2.0648
  379MOL0     H51158  11.773   2.323   7.254 -0.7312 -1.9397 -1.2896
  379MOL0     H51159  11.732   2.532   7.160  0.9424 -0.7957  0.8271
  379MOL0     H51160  11.557   2.520   7.188  0.4806  1.3379  1.2646
  379MOL0     H51161  11.597   2.492   6.957 -1.3782  1.5396  1.5761
  379MOL0     H51162  11.586   2.319   7.020  2.6496 -0.9376  1.8147
  379MOL0     H51163  11.966   2.300   6.876  1.0633 -1.2440  1.2991
  379MOL0     H51164  11.283   2.499   7.437 -2.0611 -2.1543 -0.5805
  379MOL0     H51165  11.115   2.374   7.541 -0.1024  0.4183 -3.4517
  380MOL0     O51166   2.064   5.119   9.662 -0.0308  0.2751 -0.3699
  380MOL0     C51167   2.143   5.137   9.746 -0.1604 -1.1004 -0.4284
  380MOL0     O51168   2.150   5.251   9.828 -0.7126  0.0297 -0.6058
  380MOL0     C51169   2.057   5.354   9.824 -0.2653  0.6650 -0.5185
  380MOL0     C51170   2.042   5.418   9.950  0.0521 -0.6978 -0.4283
  380MOL0     C51171   1.970   5.537   9.961  1.0390 -0.4067 -0.4831
  380MOL0     C51172   1.902   5.594   9.851 -0.3553  0.5003 -0.3965
  380MOL0     O51173   1.816   5.704   9.859 -0.5071  0.1638  0.2652
  380MOL0     C51174   1.849   5.804   9.952  0.1210 -1.3044  0.8361
  380MOL0     C51175   1.783   5.941   9.900  0.4809  0.7680 -0.1437
  380MOL0     C51176   1.800   5.964   9.744  1.3237  0.3365 -0.0838
  380MOL0     C51177   1.709   6.057   9.676  0.1038  0.2181  0.3841
  380MOL0     C51178   1.560   6.059   9.734  0.4027 -0.5513  0.4820
  380MOL0     C51179   1.464   6.171   9.672 -1.1952  0.3394  0.1473
  380MOL0     C51180   1.325   6.144   9.727  0.5437 -0.2593 -0.3545
  380MOL0     C51181   1.271   6.244   9.830  0.7008  0.2310 -0.2431
  380MOL0     N51182   1.145   6.190   9.882 -0.2964  1.3388 -0.0969
  380MOL0     C51183   1.110   6.136  10.003  0.1310 -0.2828  1.1557
  380MOL0     C51184   0.972   6.120  10.002 -0.8358 -0.0885 -0.4998
  380MOL0     C51185   0.889   6.054  10.127  0.4978  0.3098  0.2392
  380MOL0     C51186   0.825   6.157  10.220 -0.2572  0.1053  0.5589
  380MOL0     C51187   0.717   6.244  10.162 -0.6682 -0.1941  0.5716
  380MOL0     C51188   0.598   6.178  10.085 -0.3964  0.8007 -0.2294
  380MOL0     O51189   0.546   6.054  10.145 -0.5640 -0.5833 -0.1608
  380MOL0     C51190   0.447   5.983  10.072 -1.4034  0.3907 -0.0172
  380MOL0     C51191   0.471   5.852  10.014 -0.8694 -0.5190 -0.2255
  380MOL0     C51192   0.363   5.781   9.950  1.1766  0.1870 -0.5316
  380MOL0     C51193   0.391   5.648   9.885 -0.9394  0.2985  1.3927
  380MOL0     C51194   0.233   5.843   9.947  0.2853 -0.0232 -0.7329
  380MOL0     C51195   0.113   5.791   9.875  0.7166  0.0083 -0.0277
  380MOL0     O51196   0.020   5.881   9.835  0.1497  0.0142 -0.0028
  380MOL0     C51197  -0.102   5.845   9.775  0.7754  0.4207 -0.2771
  380MOL0     C51198  -0.155   5.942   9.694  0.5388  0.5862  0.1092
  380MOL0     C51199  -0.275   5.919   9.615  0.2394 -0.0837  1.0708
  380MOL0     C51200  -0.352   5.804   9.648 -0.2681  0.3241 -0.4794
  380MOL0     O51201  -0.481   5.784   9.609 -0.1214  0.5357  0.1133
  380MOL0     C51202  -0.570   5.889   9.654 -0.8242  0.1675 -0.0153
  380MOL0     C51203  -0.700   5.825   9.697  0.9814 -0.8292  0.5982
  380MOL0     C51204  -0.696   5.705   9.788  0.7140  0.4033 -0.2730
  380MOL0     C51205  -0.833   5.672   9.838 -0.4736 -0.6904 -0.2680
  380MOL0     C51206  -0.930   5.617   9.731  0.1752 -0.2556  0.3874
  380MOL0     C51207  -1.050   5.548   9.809 -1.1976  0.9049  0.1793
  380MOL0     C51208  -1.154   5.500   9.707  0.3398  0.3538  0.0373
  380MOL0     C51209  -1.245   5.391   9.777  0.0776 -0.4830 -0.2891
  380MOL0    Cl51210  -1.392   5.357   9.677  0.1483  0.1543 -0.0915
  380MOL0     C51211  -0.302   5.709   9.738 -0.0245  0.2588  0.6653
  380MOL0     C51212  -0.179   5.723   9.799 -1.0648 -0.4105 -0.4003
  380MOL0     O51213   0.096   5.673   9.859 -1.0029 -0.4290 -0.0514
  380MOL0     C51214   0.215   5.967  10.009 -0.0237 -0.1647  0.3972
  380MOL0     C51215   0.319   6.033  10.072  0.1879 -0.3483  0.3004
  380MOL0     N51216   0.929   6.182   9.889 -0.3454 -0.0970  0.3411
  380MOL0     N51217   1.026   6.215   9.819 -0.7753 -0.3093 -0.3481
  380MOL0     C51218   1.900   5.517   9.730  0.3329  0.8799 -0.0532
  380MOL0     C51219   1.983   5.403   9.717 -0.0372 -0.0677  0.8364
  380MOL0     C51220   2.245   5.035   9.771  0.3352  0.7860  0.0123
  380MOL0     C51221   2.255   4.920   9.694 -1.0298 -0.8683  0.2100
  380MOL0     C51222   2.346   4.821   9.730  0.8322  0.1747  0.0928
  380MOL0     C51223   2.434   4.826   9.838  0.3986  0.9026 -0.3010
  380MOL0     O51224   2.518   4.721   9.880  0.3569 -0.2701 -0.4817
  380MOL0     C51225   2.656   4.745   9.855 -0.9404  0.1579  0.7992
  380MOL0     C51226   2.733   4.629   9.889 -0.8278 -0.4363  0.0179
  380MOL0     C51227   2.711   4.513   9.800  0.6356 -0.1483  0.3094
  380MOL0     C51228   2.835   4.431   9.758  0.3788 -0.0846  0.4511
  380MOL0     C51229   2.813   4.324   9.664 -0.5489  0.0780  0.2740
  380MOL0     C51230   2.788   4.249   9.571 -0.1684 -0.3495 -0.5525
  380MOL0     C51231   2.409   4.938   9.917 -0.1071 -0.8622  0.0019
  380MOL0     C51232   2.321   5.042   9.886  0.1851 -0.5627 -0.0370
  380MOL0     H51233   2.103   5.375  10.029 -0.1020  0.6901  0.4799
  380MOL0     H51234   1.969   5.584  10.059  0.1743 -0.9715 -0.2066
  380MOL0     H51235   1.811   5.774  10.050 -0.6790 -1.1312  0.5802
  380MOL0     H51236   1.958   5.816   9.948 -0.0050 -0.3145 -1.7376
  380MOL0     H51237   1.678   5.932   9.926 -0.5680 -1.2850 -4.2233
  380MOL0     H51238   1.824   6.028   9.951  0.9382  0.4637  0.0152
  380MOL0     H51239   1.903   5.992   9.723  1.1972 -0.1526 -1.4495
  380MOL0     H51240   1.776   5.872   9.690 -1.6289 -0.0858  1.7077
  380MOL0     H51241   1.746   6.160   9.687 -1.8900  1.2973 -2.1272
  380MOL0     H51242   1.710   6.052   9.567  0.9167  3.6258  0.0948
  380MOL0     H51243   1.517   5.960   9.714 -0.3692  0.2607 -2.4459
  380MOL0     H51244   1.571   6.083   9.840 -0.6404  0.1912  0.4379
  380MOL0     H51245   1.497   6.273   9.696 -2.2806  1.2911 -2.1590
  380MOL0     H51246   1.461   6.165   9.563  2.7090  0.4337 -0.1058
  380MOL0     H51247   1.255   6.152   9.644 -1.3145 -0.0901  1.1559
  380MOL0     H51248   1.317   6.041   9.763  0.1813  0.7377  2.7679
  380MOL0     H51249   1.266   6.338   9.775  5.6911 -0.8865 -3.2894
  380MOL0     H51250   1.334   6.259   9.919  1.5716  1.2223 -1.0050
  380MOL0     H51251   1.181   6.093  10.073  1.5497 -3.8050 -2.1524
  380MOL0     H51252   0.808   6.003  10.075 -0.6110  3.0551 -0.9551
  380MOL0     H51253   0.947   5.994  10.198 -0.0831  1.2418  1.5591
  380MOL0     H51254   0.892   6.234  10.260 -1.1148  1.4223 -0.4519
  380MOL0     H51255   0.780   6.108  10.306 -2.4916 -0.4315 -0.8352
  380MOL0     H51256   0.771   6.315  10.098 -2.0901  1.7914  1.4930
  380MOL0     H51257   0.676   6.306  10.242  0.0830  0.2919  0.5953
  380MOL0     H51258   0.627   6.152   9.982 -0.3161 -3.2960  0.6322
  380MOL0     H51259   0.518   6.250  10.074 -0.6988  0.4764 -0.1677
  380MOL0     H51260   0.571   5.810  10.025 -2.0020 -3.0893  1.2708
  380MOL0     H51261   0.363   5.571   9.957 -1.2744  2.0242  3.2072
  380MOL0     H51262   0.341   5.630   9.789  2.6925 -2.0964 -0.2507
  380MOL0     H51263   0.493   5.646   9.847 -1.9705 -0.3289 -1.7169
  380MOL0     H51264  -0.112   6.041   9.686 -2.1338  2.2313  3.4757
  380MOL0     H51265  -0.308   5.995   9.544 -0.2951 -2.2387 -1.1376
  380MOL0     H51266  -0.532   5.942   9.742 -3.7584  2.0417  0.2473
  380MOL0     H51267  -0.576   5.964   9.574  1.2601 -0.6173 -0.9876
  380MOL0     H51268  -0.775   5.898   9.730  1.0920 -1.0346  1.3222
  380MOL0     H51269  -0.743   5.789   9.604  2.1336  1.0811 -0.7381
  380MOL0     H51270  -0.634   5.712   9.878 -1.1326 -3.1085  1.5023
  380MOL0     H51271  -0.668   5.617   9.730  0.6556 -0.4102  0.8998
  380MOL0     H51272  -0.824   5.595   9.916 -2.2461  0.4258  1.1404
  380MOL0     H51273  -0.887   5.755   9.885  0.8660  0.3128 -0.4376
  380MOL0     H51274  -0.883   5.553   9.656 -0.6865  1.1833 -1.4616
  380MOL0     H51275  -0.979   5.695   9.671 -0.8468 -0.7994  0.4832
  380MOL0     H51276  -1.014   5.457   9.860 -2.7484 -1.4132 -2.5978
  380MOL0     H51277  -1.091   5.624   9.876  0.3524  2.3118 -0.3769
  380MOL0     H51278  -1.104   5.449   9.625 -3.1326 -0.4246 -1.7507
  380MOL0     H51279  -1.196   5.588   9.657  3.1523  0.1984 -2.8965
  380MOL0     H51280  -1.278   5.421   9.877 -4.2787 -0.1154 -1.5967
  380MOL0     H51281  -1.182   5.303   9.789 -0.2116 -0.4491  1.7509
  380MOL0     H51282  -0.362   5.620   9.751 -1.3781  0.7829 -1.4362
  380MOL0     H51283  -0.151   5.644   9.868  1.8111  0.0726 -0.8536
  380MOL0     H51284   0.128   6.025   9.982 -0.5163 -1.7513 -1.7193
  380MOL0     H51285   0.285   6.126  10.114 -2.7861  0.3396 -3.1588
  380MOL0     H51286   1.836   5.535   9.644  1.5967 -0.3207 -1.2909
  380MOL0     H51287   1.994   5.360   9.619  0.8760  0.6784  0.5983
  380MOL0     H51288   2.177   4.899   9.621 -0.3675 -1.2334 -0.3984
  380MOL0     H51289   2.334   4.726   9.678  0.6918 -0.5624  1.4085
  380MOL0     H51290   2.674   4.761   9.748  1.2241  0.5758  1.1696
  380MOL0     H51291   2.700   4.819   9.923 -2.4431 -3.0452  5.8063
  380MOL0     H51292   2.709   4.610   9.994  2.2020 -1.1891  0.6652
  380MOL0     H51293   2.837   4.661   9.881 -1.8287  3.5620  0.9083
  380MOL0     H51294   2.662   4.541   9.706 -0.9970 -2.7065  0.3033
  380MOL0     H51295   2.632   4.456   9.851  1.3041  0.3754  1.9877
  380MOL0     H51296   2.879   4.380   9.844 -0.8580  1.7348  2.2735
  380MOL0     H51297   2.913   4.496   9.718  1.1814 -0.2285  1.7398
  380MOL0     H51298   2.794   4.168   9.501  3.7153 -1.4251  0.7459
  380MOL0     H51299   2.463   4.938  10.011  2.0031 -1.7806 -1.1531
  380MOL0     H51300   2.315   5.112   9.968  2.6066 -2.1424  1.6244
  381MOL0     O51301   3.304   8.541   8.091  0.7968  0.5522  0.1520
  381MOL0     C51302   3.296   8.661   8.081 -1.1160  0.1321 -0.2330
  381MOL0     O51303   3.227   8.750   8.155  0.6836  0.4483  0.3009
  381MOL0     C51304   3.196   8.716   8.287 -1.0948  0.0982  0.4560
  381MOL0     C51305   3.297   8.663   8.366  0.8422  1.0645  0.0428
  381MOL0     C51306   3.281   8.634   8.506  0.5223  0.7234 -0.6182
  381MOL0     C51307   3.155   8.672   8.563 -0.4487  0.4329 -0.4598
  381MOL0     O51308   3.125   8.654   8.696 -1.0442  0.8203  0.9489
  381MOL0     C51309   3.138   8.514   8.735  0.1780  0.5142  0.5390
  381MOL0     C51310   3.025   8.475   8.824  1.2824 -0.0559 -0.7052
  381MOL0     C51311   3.062   8.485   8.969 -0.4910  0.4197  0.2371
  381MOL0     C51312   2.953   8.411   9.055  0.3148 -0.1130 -0.5530
  381MOL0     C51313   2.985   8.416   9.211  0.0744 -0.5064 -0.0465
  381MOL0     C51314   2.874   8.333   9.277 -0.2067 -0.3715 -0.3934
  381MOL0     C51315   2.897   8.338   9.430  0.1318  0.5794 -0.3163
  381MOL0     C51316   2.866   8.471   9.492 -0.5831 -0.0572 -0.2810
  381MOL0     N51317   2.898   8.483   9.631  0.1366 -0.1675  0.2422
  381MOL0     C51318   3.020   8.490   9.688  0.2058  0.5470  0.7500
  381MOL0     C51319   2.998   8.464   9.815 -0.4839  0.5165  0.8045
  381MOL0     C51320   3.095   8.415   9.919 -0.2748  0.0036  0.2464
  381MOL0     C51321   3.242   8.469   9.915  0.3176 -0.0818 -0.9384
  381MOL0     C51322   3.262   8.619   9.950  0.3135  0.5864 -0.0722
  381MOL0     C51323   3.418   8.643   9.933  0.3264  0.2794  0.2835
  381MOL0     O51324   3.435   8.774   9.968 -0.0908 -0.1401  0.5814
  381MOL0     C51325   3.576   8.800   9.966  0.0493  1.4981  0.7989
  381MOL0     C51326   3.662   8.750  10.062 -0.0730 -0.6106 -0.8454
  381MOL0     C51327   3.796   8.787  10.061 -0.0265 -0.7307  0.0925
  381MOL0     C51328   3.884   8.715  10.164 -0.4229 -0.6343 -0.1411
  381MOL0     C51329   3.844   8.862   9.954 -0.4172 -1.1266  1.1511
  381MOL0     C51330   3.990   8.891   9.936 -0.0462  0.4097  0.3085
  381MOL0     O51331   4.028   9.005   9.869  0.5292 -0.6379 -0.8213
  381MOL0     C51332   4.157   9.006   9.820 -0.3315 -0.0994  0.6443
  381MOL0     C51333   4.209   8.905   9.732 -0.5546 -0.3403 -0.7768
  381MOL0     C51334   4.331   8.930   9.667  0.3498  0.4040  0.5204
  381MOL0     C51335   4.405   9.047   9.693 -0.0289 -0.5569 -0.4775
  381MOL0     O51336   4.528   9.047   9.634  0.3498 -0.4171 -0.3245
  381MOL0     C51337   4.617   9.151   9.678 -0.3243  0.2997 -0.4341
  381MOL0     C51338   4.753   9.133   9.608 -0.4621  0.6150  0.2545
  381MOL0     C51339   4.871   9.199   9.689  0.7209 -0.5360  0.5296
  381MOL0     C51340   5.001   9.215   9.605  0.2687  0.2257 -1.2434
  381MOL0     C51341   5.128   9.201   9.694 -0.9726 -0.3051  0.2528
  381MOL0     C51342   5.121   9.294   9.826  0.6365 -0.1260  0.2100
  381MOL0     C51343   5.239   9.273   9.920 -0.7877  1.4774 -0.8129
  381MOL0     C51344   5.227   9.142   9.993  1.0951 -0.8034  1.1929
  381MOL0    Cl51345   5.345   9.122  10.115  0.3708  0.2797  0.4072
  381MOL0     C51346   4.361   9.127   9.803 -0.1008  0.9716 -0.2794
  381MOL0     C51347   4.236   9.108   9.860  0.4040 -0.1984  0.5538
  381MOL0     O51348   4.068   8.806   9.991 -0.1502 -0.3658  0.4082
  381MOL0     C51349   3.757   8.925   9.860  0.1797  0.2720  0.4134
  381MOL0     C51350   3.620   8.896   9.866 -0.4449  0.5498  0.6517
  381MOL0     N51351   2.860   8.437   9.820 -0.6001 -0.8330 -0.5711
  381MOL0     N51352   2.794   8.464   9.715  0.5278  0.0734 -0.3631
  381MOL0     C51353   3.060   8.732   8.486  0.1440  0.2923  0.5434
  381MOL0     C51354   3.084   8.748   8.350  0.1078 -0.3154 -0.6963
  381MOL0     C51355   3.335   8.714   7.946  0.1831  0.3401 -0.0535
  381MOL0     C51356   3.408   8.634   7.856 -0.3508 -0.6794  0.4016
  381MOL0     C51357   3.440   8.686   7.725  0.1716 -0.9856 -1.4740
  381MOL0     C51358   3.394   8.804   7.676  0.5232  0.3771  1.0710
  381MOL0     O51359   3.422   8.830   7.543  0.2607 -0.1223  0.4599
  381MOL0     C51360   3.372   8.953   7.476  0.9324 -0.0301  1.3820
  381MOL0     C51361   3.402   8.930   7.331  0.1564  0.2990 -1.3584
  381MOL0     C51362   3.405   9.054   7.241 -0.6085  0.4721 -0.4236
  381MOL0     C51363   3.261   9.091   7.210  1.3509  0.3912 -0.4697
  381MOL0     C51364   3.256   9.226   7.152 -0.6882  0.5122 -0.3984
  381MOL0     C51365   3.256   9.330   7.098  0.7553 -0.6612  0.2198
  381MOL0     C51366   3.331   8.886   7.767 -0.8162 -0.2968  0.4379
  381MOL0     C51367   3.295   8.849   7.894  0.2115 -0.2169  0.2931
  381MOL0     H51368   3.391   8.639   8.318  1.6754 -0.5817  2.3143
  381MOL0     H51369   3.357   8.582   8.564 -0.4720  0.3827  0.4095
  381MOL0     H51370   3.114   8.446   8.652 -0.0171 -1.3366  2.0468
  381MOL0     H51371   3.242   8.496   8.762  1.3117  0.2782 -3.3763
  381MOL0     H51372   2.930   8.528   8.806  0.3267 -1.4216  0.0916
  381MOL0     H51373   2.997   8.370   8.813  4.0329 -0.8597 -0.6326
  381MOL0     H51374   3.156   8.435   8.994 -0.5534  0.6697  0.9717
  381MOL0     H51375   3.067   8.593   8.984  0.6116  0.3689  0.3325
  381MOL0     H51376   2.866   8.474   9.037  0.3080  0.6212  1.7503
  381MOL0     H51377   2.930   8.307   9.027 -1.9297 -0.0245  0.7033
  381MOL0     H51378   3.082   8.366   9.223 -0.5046 -1.7019 -0.2374
  381MOL0     H51379   2.992   8.520   9.244  1.0473 -1.3001  2.4940
  381MOL0     H51380   2.775   8.378   9.264 -0.1026  0.0940  0.3412
  381MOL0     H51381   2.872   8.227   9.250 -0.7520 -1.1998  2.5346
  381MOL0     H51382   2.833   8.258   9.468 -0.4507 -0.5345 -3.3762
  381MOL0     H51383   3.000   8.307   9.452 -0.1214  0.5877  0.9792
  381MOL0     H51384   2.764   8.504   9.470 -0.4475  2.2057  2.0170
  381MOL0     H51385   2.928   8.549   9.446 -2.1943  1.4961  0.0385
  381MOL0     H51386   3.119   8.496   9.644 -0.6107 -3.6123 -2.2850
  381MOL0     H51387   3.047   8.443  10.013 -1.8700  0.2000 -0.5799
  381MOL0     H51388   3.094   8.306   9.913 -3.5074  0.0088 -2.5361
  381MOL0     H51389   3.283   8.459   9.814 -0.0661 -0.6508 -1.0423
  381MOL0     H51390   3.304   8.409   9.982  1.3182  1.4545 -0.4480
  381MOL0     H51391   3.223   8.631  10.052  0.8547 -1.0257  0.3463
  381MOL0     H51392   3.213   8.684   9.877  1.1396 -1.6609 -2.7991
  381MOL0     H51393   3.457   8.620   9.833  2.3668 -0.5180  1.2224
  381MOL0     H51394   3.479   8.573   9.991 -1.1070  0.1528  1.6955
  381MOL0     H51395   3.622   8.681  10.137 -1.7074  0.1812 -0.9563
  381MOL0     H51396   3.957   8.789  10.200 -2.3213  0.2288  2.2092
  381MOL0     H51397   3.837   8.667  10.250  2.8133 -1.9429  1.0637
  381MOL0     H51398   3.932   8.628  10.118  0.7730 -0.6402  1.0529
  381MOL0     H51399   4.150   8.820   9.696  0.3091 -0.5829 -1.6560
  381MOL0     H51400   4.374   8.866   9.591  1.8782  2.9912 -0.9414
  381MOL0     H51401   4.574   9.248   9.651 -1.2007 -0.1330 -0.6437
  381MOL0     H51402   4.639   9.149   9.785  0.2128 -0.1489 -0.5490
  381MOL0     H51403   4.769   9.025   9.623  1.3721  0.8887  0.5834
  381MOL0     H51404   4.754   9.154   9.501  3.2569 -1.9562 -0.4100
  381MOL0     H51405   4.892   9.127   9.770  1.4171 -1.0626 -0.1027
  381MOL0     H51406   4.840   9.297   9.727 -2.9295 -0.9636 -1.0078
  381MOL0     H51407   5.005   9.132   9.535  2.2950 -2.3258  1.6120
  381MOL0     H51408   4.991   9.312   9.555 -2.5416  1.1425  0.8480
  381MOL0     H51409   5.215   9.230   9.633 -0.1403  2.3964  2.5153
  381MOL0     H51410   5.154   9.099   9.724  0.5891 -0.2122 -0.6324
  381MOL0     H51411   5.117   9.391   9.774 -0.5898  0.1016  0.6946
  381MOL0     H51412   5.023   9.282   9.874 -0.0395 -1.7126 -1.4457
  381MOL0     H51413   5.266   9.354   9.988  1.3611 -0.3145  0.6224
  381MOL0     H51414   5.326   9.259   9.856 -1.1692 -2.6461 -0.6970
  381MOL0     H51415   5.233   9.060   9.920  1.3369  1.5498 -1.6185
  381MOL0     H51416   5.130   9.153  10.042  0.3433 -1.5401 -0.0687
  381MOL0     H51417   4.410   9.216   9.841 -0.9767  1.8679 -1.1582
  381MOL0     H51418   4.206   9.168   9.946 -1.1554  1.1128 -0.8478
  381MOL0     H51419   3.794   8.985   9.777 -1.3970  2.8208  1.4390
  381MOL0     H51420   3.557   8.929   9.784 -1.5169 -0.7158  0.9292
  381MOL0     H51421   2.964   8.750   8.533  0.1892  1.9791  0.0511
  381MOL0     H51422   3.005   8.803   8.300  0.0837  0.7197  0.4282
  381MOL0     H51423   3.450   8.536   7.878  1.3174 -0.0670  0.0940
  381MOL0     H51424   3.505   8.629   7.660  0.1195 -2.4608 -0.2924
  381MOL0     H51425   3.263   8.945   7.479  1.0033 -1.4452  1.1932
  381MOL0     H51426   3.418   9.040   7.524  2.0341  0.8766 -1.1850
  381MOL0     H51427   3.333   8.851   7.300 -1.3910 -0.0209  2.3866
  381MOL0     H51428   3.506   8.896   7.327  0.4331 -0.0033  3.1277
  381MOL0     H51429   3.468   9.047   7.152 -1.4662  0.2561 -1.0297
  381MOL0     H51430   3.450   9.138   7.295  1.4972  0.4318 -1.9772
  381MOL0     H51431   3.188   9.081   7.292  0.4374  1.5844 -1.1165
  381MOL0     H51432   3.227   9.023   7.131 -0.5915  1.4657 -0.6253
  381MOL0     H51433   3.288   9.420   7.049  3.3652 -1.9466 -0.6093
  381MOL0     H51434   3.302   8.984   7.732  0.4054  0.5043  1.6098
  381MOL0     H51435   3.241   8.921   7.954  0.8667 -0.8622  1.7065
  382MOL0     O51436   9.686   9.685   5.959  0.2310  0.0550  0.5749
  382MOL0     C51437   9.574   9.710   5.902  0.2289  0.2860  1.0848
  382MOL0     O51438   9.457   9.745   5.962  0.0698 -0.5319  0.4156
  382MOL0     C51439   9.455   9.765   6.101 -0.1853  0.4886  0.3169
  382MOL0     C51440   9.434   9.895   6.138 -0.2611 -0.3765 -0.5565
  382MOL0     C51441   9.416   9.929   6.275  0.0813  0.3448  0.8931
  382MOL0     C51442   9.431   9.837   6.375  0.1154  0.5670  0.0468
  382MOL0     O51443   9.414   9.888   6.512 -0.3178  0.2993  0.1860
  382MOL0     C51444   9.462   9.795   6.616  0.1226 -0.9304 -0.1836
  382MOL0     C51445   9.471   9.879   6.748  0.3031  0.1162  0.3149
  382MOL0     C51446   9.571   9.988   6.727  0.2645 -0.0043  0.0557
  382MOL0     C51447   9.610  10.059   6.868  0.2973  0.9101  1.0500
  382MOL0     C51448   9.483  10.135   6.927  0.5980  0.4509  0.1648
  382MOL0     C51449   9.504  10.272   6.990 -1.0922 -0.2284  0.4263
  382MOL0     C51450   9.386  10.320   7.078 -0.6168 -0.2386  0.0252
  382MOL0     C51451   9.370  10.244   7.209  0.5088  0.8719 -0.5132
  382MOL0     N51452   9.283  10.296   7.315 -0.2086  0.4534  0.6567
  382MOL0     C51453   9.207  10.418   7.300  0.4105  0.4629 -0.1599
  382MOL0     C51454   9.196  10.465   7.426  0.3318 -0.1509  0.8870
  382MOL0     C51455   9.140  10.594   7.492 -0.6681  1.0539 -0.2019
  382MOL0     C51456   9.054  10.668   7.400  0.1596  0.2505  0.6498
  382MOL0     C51457   8.963  10.778   7.474 -0.3380  0.3322  0.7023
  382MOL0     C51458   8.885  10.737   7.603  0.2392 -0.2847  1.3838
  382MOL0     O51459   8.772  10.659   7.557 -0.7439 -0.1557  0.2283
  382MOL0     C51460   8.674  10.639   7.646  0.1674 -0.7483 -0.1121
  382MOL0     C51461   8.561  10.727   7.637 -0.4388  0.0818 -0.4076
  382MOL0     C51462   8.446  10.717   7.730 -0.3022  0.0820 -0.2693
  382MOL0     C51463   8.320  10.805   7.705  0.5833  0.0516 -0.1752
  382MOL0     C51464   8.459  10.609   7.830 -0.1479 -0.2074  0.5120
  382MOL0     C51465   8.344  10.582   7.916 -0.4262  0.5268 -0.1685
  382MOL0     O51466   8.264  10.686   7.958 -0.3484 -0.8363 -0.0260
  382MOL0     C51467   8.168  10.670   8.053  0.2700 -0.7780  0.4418
  382MOL0     C51468   8.157  10.575   8.155  1.3857  0.3502  0.2612
  382MOL0     C51469   8.041  10.572   8.234 -1.3775 -0.3787  0.1998
  382MOL0     C51470   7.944  10.673   8.231  0.5506 -0.7594 -1.1713
  382MOL0     O51471   7.835  10.661   8.315 -0.0504  0.4658  0.4623
  382MOL0     C51472   7.715  10.729   8.292  1.4156  0.0517  0.0962
  382MOL0     C51473   7.676  10.807   8.413 -0.1755 -0.0839 -0.1050
  382MOL0     C51474   7.539  10.761   8.465  0.8298  0.8628  0.1602
  382MOL0     C51475   7.481  10.820   8.590  0.3678  0.4482  0.1531
  382MOL0     C51476   7.364  10.733   8.649  0.0787  0.7499  0.3638
  382MOL0     C51477   7.290  10.808   8.771 -0.7929  0.2448 -0.6653
  382MOL0     C51478   7.173  10.725   8.824  0.4026 -0.6113  0.2572
  382MOL0     C51479   7.102  10.782   8.943 -0.8763 -0.1979  0.0737
  382MOL0    Cl51480   7.223  10.780   9.082  0.5570  0.4416  0.0718
  382MOL0     C51481   7.958  10.778   8.138 -0.4110 -0.0014 -0.1442
  382MOL0     C51482   8.064  10.770   8.059 -1.3592 -0.1153  0.0695
  382MOL0     O51483   8.339  10.468   7.959 -0.3632  0.0635  0.1354
  382MOL0     C51484   8.576  10.531   7.836 -0.6057  0.0154 -0.9096
  382MOL0     C51485   8.687  10.541   7.743 -0.3501 -0.0374 -0.0577
  382MOL0     N51486   9.245  10.373   7.517 -0.6741 -0.0260  0.9966
  382MOL0     N51487   9.299  10.277   7.445 -0.1119  0.4757 -0.4448
  382MOL0     C51488   9.438   9.701   6.338 -0.1701  0.5138 -0.1654
  382MOL0     C51489   9.460   9.664   6.205 -0.6117  0.0309  0.7388
  382MOL0     C51490   9.569   9.701   5.754  0.3340 -0.1248 -0.3303
  382MOL0     C51491   9.674   9.654   5.687 -0.8002  0.2987 -0.4611
  382MOL0     C51492   9.663   9.625   5.551 -0.1024 -0.1405  0.5884
  382MOL0     C51493   9.545   9.645   5.474 -0.1266 -0.4324 -0.6895
  382MOL0     O51494   9.541   9.598   5.342 -0.3463 -0.0098 -0.0906
  382MOL0     C51495   9.414   9.617   5.284 -0.5762 -1.2879 -0.1610
  382MOL0     C51496   9.427   9.554   5.147 -0.6072  0.3188  0.1866
  382MOL0     C51497   9.298   9.559   5.064 -0.4170 -1.0825  0.0912
  382MOL0     C51498   9.291   9.480   4.940  0.2555 -0.1812  0.4402
  382MOL0     C51499   9.224   9.351   4.975  0.0668  1.0556 -0.8169
  382MOL0     C51500   9.176   9.251   5.018 -0.0754 -0.1177  0.0777
  382MOL0     C51501   9.438   9.693   5.544 -0.0473 -1.0611  1.0740
  382MOL0     C51502   9.450   9.736   5.682  0.0131  0.2198 -0.2133
  382MOL0     H51503   9.422   9.972   6.062  2.1794  0.3917 -0.2659
  382MOL0     H51504   9.398  10.033   6.300 -1.3280  0.1188  0.9202
  382MOL0     H51505   9.398   9.708   6.633  0.2430 -0.5494  2.6216
  382MOL0     H51506   9.552   9.738   6.592 -0.5876 -3.0728  1.8818
  382MOL0     H51507   9.367   9.913   6.759  0.4548  0.3944  0.8841
  382MOL0     H51508   9.492   9.808   6.828  0.3456  0.1714  0.3533
  382MOL0     H51509   9.655   9.940   6.676  0.1579 -1.2090  0.9513
  382MOL0     H51510   9.539  10.064   6.656  0.3039 -0.4840 -0.4827
  382MOL0     H51511   9.657   9.991   6.940 -1.6694 -1.0944  0.5619
  382MOL0     H51512   9.682  10.134   6.835 -0.4524  1.1930  0.0015
  382MOL0     H51513   9.399  10.142   6.858  1.7009  0.2425 -1.2440
  382MOL0     H51514   9.465  10.068   7.012  2.0988 -0.5843 -0.2754
  382MOL0     H51515   9.594  10.280   7.050 -1.9332  1.7672  1.5279
  382MOL0     H51516   9.517  10.351   6.916 -0.5340  0.2228  0.9938
  382MOL0     H51517   9.407  10.425   7.100  0.0768 -0.4353  0.3450
  382MOL0     H51518   9.294  10.306   7.021 -0.6942  0.4615 -0.0328
  382MOL0     H51519   9.464  10.217   7.257 -2.2891 -2.2860  3.9276
  382MOL0     H51520   9.326  10.145   7.194  1.5293 -0.1209  2.4602
  382MOL0     H51521   9.177  10.467   7.208 -2.5552 -2.6700 -1.0608
  382MOL0     H51522   9.099  10.556   7.586  0.4808 -1.7837 -0.7575
  382MOL0     H51523   9.223  10.659   7.521 -0.7803  1.0734  0.0824
  382MOL0     H51524   9.000  10.595   7.339 -0.6658 -0.8334  2.6081
  382MOL0     H51525   9.124  10.722   7.336  0.0150  2.2251  2.0525
  382MOL0     H51526   8.880  10.815   7.413 -1.3284 -0.0836  1.7657
  382MOL0     H51527   9.031  10.859   7.499 -0.5015  0.9440 -0.7260
  382MOL0     H51528   8.848  10.827   7.654 -0.1403  0.2928  0.1335
  382MOL0     H51529   8.947  10.688   7.679  0.6042 -0.0217  1.2595
  382MOL0     H51530   8.551  10.799   7.558  0.1981 -2.5116 -3.0217
  382MOL0     H51531   8.331  10.827   7.598  4.0909 -2.1617 -0.4175
  382MOL0     H51532   8.227  10.752   7.729  0.3332  1.0410  1.1106
  382MOL0     H51533   8.315  10.897   7.764 -0.4963  0.0421 -0.2230
  382MOL0     H51534   8.229  10.496   8.172  1.5992 -0.4734 -3.6664
  382MOL0     H51535   8.052  10.493   8.308 -0.9953 -1.8640 -1.3865
  382MOL0     H51536   7.709  10.797   8.207 -0.3499  0.4203  0.4639
  382MOL0     H51537   7.646  10.647   8.272  0.5152  1.1722 -1.6654
  382MOL0     H51538   7.756  10.783   8.484  1.1546 -1.6518 -2.0273
  382MOL0     H51539   7.671  10.914   8.390 -2.0497  0.6848  3.2167
  382MOL0     H51540   7.531  10.653   8.482  0.3754  0.8925  0.1515
  382MOL0     H51541   7.469  10.791   8.386 -0.2153  1.2594  1.2194
  382MOL0     H51542   7.553  10.837   8.671 -0.4791  3.3818  0.4406
  382MOL0     H51543   7.445  10.923   8.576 -0.8500  0.3128  1.9742
  382MOL0     H51544   7.402  10.637   8.686 -2.3930 -2.5990 -4.6731
  382MOL0     H51545   7.286  10.708   8.576  0.4461  0.1145  0.1773
  382MOL0     H51546   7.357  10.823   8.855 -0.5605 -0.3763 -0.7312
  382MOL0     H51547   7.258  10.910   8.751 -0.7645  0.2312 -0.7800
  382MOL0     H51548   7.204  10.620   8.824  1.8460 -0.2476 -1.5357
  382MOL0     H51549   7.110  10.733   8.735 -0.3891 -4.3743  0.3174
  382MOL0     H51550   7.014  10.725   8.973  0.1153 -0.6732  2.3098
  382MOL0     H51551   7.067  10.885   8.929  0.6024  0.4671  0.9520
  382MOL0     H51552   7.884  10.856   8.123  0.1131  0.6638  0.6010
  382MOL0     H51553   8.097  10.857   8.005  1.9975  1.2283  3.7797
  382MOL0     H51554   8.583  10.453   7.912 -0.1738  2.3079  1.5649
  382MOL0     H51555   8.767  10.468   7.748 -1.1829 -1.1378 -1.8424
  382MOL0     H51556   9.432   9.622   6.412  2.0124  0.7085  0.2963
  382MOL0     H51557   9.467   9.557   6.188 -0.1986  0.4545 -2.4831
  382MOL0     H51558   9.770   9.645   5.737 -1.4037 -0.9293  0.5389
  382MOL0     H51559   9.759   9.596   5.510 -0.1994  0.7006 -0.2646
  382MOL0     H51560   9.335   9.569   5.343 -2.7261  1.5340 -0.5432
  382MOL0     H51561   9.378   9.719   5.272  0.9531 -0.4970  1.4533
  382MOL0     H51562   9.461   9.451   5.156 -0.3028  0.0162 -3.2639
  382MOL0     H51563   9.503   9.607   5.089 -1.5609  0.1563 -1.2622
  382MOL0     H51564   9.289   9.664   5.036 -1.4689 -1.0589  0.4754
  382MOL0     H51565   9.218   9.534   5.134  1.3181 -0.5266  2.3713
  382MOL0     H51566   9.394   9.461   4.910  1.0873  3.6458  0.4180
  382MOL0     H51567   9.243   9.536   4.860 -3.8577  0.4347  3.0532
  382MOL0     H51568   9.140   9.164   5.068  1.6747 -0.7444  0.3051
  382MOL0     H51569   9.341   9.714   5.499 -0.6159  0.6632  2.9410
  382MOL0     H51570   9.358   9.772   5.729 -0.7028 -1.4673 -0.2694
  383MOL0     O51571   7.738   2.065  10.484  0.6819  0.3279 -0.4523
  383MOL0     C51572   7.692   2.082  10.374  0.1712  1.0337 -0.2022
  383MOL0     O51573   7.762   2.121  10.258  0.1795  0.1663  0.0597
  383MOL0     C51574   7.898   2.135  10.276 -0.3808 -0.0712  0.3710
  383MOL0     C51575   7.958   2.243  10.340 -0.4690  0.6326 -1.2952
  383MOL0     C51576   8.094   2.253  10.352 -0.2953  0.2347 -0.0925
  383MOL0     C51577   8.172   2.146  10.297  0.6453  0.7281 -0.8139
  383MOL0     O51578   8.301   2.140  10.299  0.5372 -0.5561 -0.1999
  383MOL0     C51579   8.373   2.227  10.395  0.7471  0.3227 -0.1157
  383MOL0     C51580   8.520   2.177  10.402 -0.0577  0.9384  0.0434
  383MOL0     C51581   8.586   2.176  10.265 -0.1765  0.3772 -0.8786
  383MOL0     C51582   8.735   2.141  10.281 -0.6579 -0.9443  0.3041
  383MOL0     C51583   8.813   2.201  10.157  1.1148 -0.2478 -0.1525
  383MOL0     C51584   8.959   2.218  10.201 -0.1214  0.1890 -0.3320
  383MOL0     C51585   9.034   2.276  10.080 -0.4865 -0.0698 -0.6632
  383MOL0     C51586   9.043   2.185   9.955  0.4044  0.1210 -0.0971
  383MOL0     N51587   9.081   2.266   9.840  0.0634  0.2222  0.3558
  383MOL0     C51588   9.208   2.322   9.816 -0.0008  1.2154  0.3636
  383MOL0     C51589   9.185   2.408   9.711  0.2998 -1.3038  0.6303
  383MOL0     C51590   9.283   2.502   9.653 -0.0605 -0.3180  0.2184
  383MOL0     C51591   9.419   2.439   9.616  0.5213  0.2850 -0.1947
  383MOL0     C51592   9.497   2.544   9.539 -0.4032  0.9145  0.2780
  383MOL0     C51593   9.627   2.493   9.483 -1.2645 -0.2890 -0.3342
  383MOL0     O51594   9.625   2.420   9.354 -0.0839  0.8942  0.3372
  383MOL0     C51595   9.733   2.462   9.275  0.5450 -0.1074  0.4729
  383MOL0     C51596   9.843   2.381   9.276 -0.5146 -1.3275  0.0508
  383MOL0     C51597   9.959   2.427   9.205 -0.9894 -0.4889 -0.3791
  383MOL0     C51598  10.083   2.341   9.225 -0.0680  0.3527  0.4062
  383MOL0     C51599   9.954   2.545   9.124  0.9526 -0.6288  0.0585
  383MOL0     C51600  10.070   2.603   9.047 -0.2474  0.0737  0.8017
  383MOL0     O51601  10.048   2.717   8.973 -1.0248 -0.0762  0.2853
  383MOL0     C51602  10.164   2.784   8.930  1.0721 -0.1866  0.1690
  383MOL0     C51603  10.224   2.745   8.809  0.4571 -0.0767 -0.4174
  383MOL0     C51604  10.330   2.818   8.756  0.2859  0.4476 -0.3889
  383MOL0     C51605  10.379   2.925   8.828 -0.6991  0.4490 -0.0897
  383MOL0     O51606  10.491   2.986   8.781  0.3254  0.1601 -0.6254
  383MOL0     C51607  10.484   3.017   8.644 -0.2818  0.2276  0.6562
  383MOL0     C51608  10.608   3.123   8.612  0.3007  0.0247 -0.1604
  383MOL0     C51609  10.574   3.248   8.696  0.0122 -0.1043 -0.1576
  383MOL0     C51610  10.685   3.355   8.704 -0.4860  0.2566  0.4882
  383MOL0     C51611  10.626   3.493   8.728  0.4560  0.1881 -0.2416
  383MOL0     C51612  10.733   3.591   8.771 -0.2198  0.8031 -0.8911
  383MOL0     C51613  10.689   3.717   8.840  0.4217 -0.2945  0.5640
  383MOL0     C51614  10.819   3.777   8.896  0.1588 -0.6229 -0.2014
  383MOL0    Cl51615  10.770   3.927   8.988 -0.4723  0.1086 -0.3544
  383MOL0     C51616  10.326   2.955   8.955 -0.0480 -0.0211 -0.1515
  383MOL0     C51617  10.219   2.880   9.005  0.6116 -0.0835  0.0895
  383MOL0     O51618  10.180   2.547   9.056  0.5263  0.1227 -0.4919
  383MOL0     C51619   9.827   2.610   9.107 -0.2938 -0.3380  0.0538
  383MOL0     C51620   9.720   2.576   9.195 -0.8599  0.0861 -0.1505
  383MOL0     N51621   9.056   2.387   9.658  0.0689  0.0925 -0.3625
  383MOL0     N51622   8.995   2.315   9.742 -0.3271 -0.4564 -0.8897
  383MOL0     C51623   8.110   2.028  10.236 -0.6640 -0.6185  0.1736
  383MOL0     C51624   7.976   2.030  10.224  0.8355  0.7668 -0.2663
  383MOL0     C51625   7.545   2.028  10.360  0.1839  0.0404  0.1318
  383MOL0     C51626   7.489   2.017  10.228 -0.7276 -0.5095  0.1201
  383MOL0     C51627   7.354   1.978  10.210  0.4770 -0.1442  0.2027
  383MOL0     C51628   7.267   1.944  10.315 -0.4059  0.4971 -0.2930
  383MOL0     O51629   7.133   1.911  10.320  0.6512  0.2841  0.0854
  383MOL0     C51630   7.051   1.933  10.204 -0.2131 -0.2856 -0.1164
  383MOL0     C51631   6.987   2.069  10.203  0.0757 -0.1120  0.4827
  383MOL0     C51632   6.891   2.080  10.075  0.4019 -0.1408  0.3421
  383MOL0     C51633   6.940   2.038   9.936  0.7109  0.4772  0.4733
  383MOL0     C51634   7.067   2.094   9.891  0.6558  0.3970  0.0339
  383MOL0     C51635   7.178   2.142   9.853 -0.3233 -0.1691  0.1312
  383MOL0     C51636   7.323   1.945  10.443 -0.3268  0.0169  0.1949
  383MOL0     C51637   7.458   1.991  10.468  0.1336  0.3664  0.1424
  383MOL0     H51638   7.896   2.327  10.371  0.3716  1.1127 -0.9000
  383MOL0     H51639   8.127   2.342  10.406  2.1225 -1.3323  1.1872
  383MOL0     H51640   8.362   2.331  10.361 -3.0681 -0.2302 -1.0330
  383MOL0     H51641   8.330   2.216  10.495 -1.0877 -0.2664 -0.9265
  383MOL0     H51642   8.579   2.223  10.482  2.3536 -1.5619 -0.1324
  383MOL0     H51643   8.517   2.069  10.422 -1.6518  0.5949 -1.8490
  383MOL0     H51644   8.540   2.100  10.201  1.3904 -1.9493  0.6132
  383MOL0     H51645   8.568   2.271  10.213  1.5787  0.7132 -0.9345
  383MOL0     H51646   8.769   2.198  10.368 -0.6383  0.3364 -0.5209
  383MOL0     H51647   8.742   2.032  10.285 -0.7604 -1.1053 -2.1763
  383MOL0     H51648   8.812   2.144  10.064 -0.0475  2.7513 -2.1157
  383MOL0     H51649   8.770   2.294  10.120  0.9782 -1.0348 -2.0930
  383MOL0     H51650   8.964   2.300  10.273 -0.6341  2.5015 -2.7865
  383MOL0     H51651   9.004   2.124  10.234  1.7401  0.9023 -0.7664
  383MOL0     H51652   8.984   2.373  10.066  0.9397  0.5513 -1.6709
  383MOL0     H51653   9.138   2.291  10.111  0.6995 -2.5142 -3.0792
  383MOL0     H51654   8.957   2.121   9.937  0.1011 -0.8862  4.0956
  383MOL0     H51655   9.124   2.114   9.971 -1.8465 -2.4195  0.6727
  383MOL0     H51656   9.301   2.295   9.865  0.4417 -0.3422 -1.2080
  383MOL0     H51657   9.241   2.539   9.559 -0.0435  0.9824  0.6960
  383MOL0     H51658   9.296   2.589   9.718  3.0251 -1.3046  1.0645
  383MOL0     H51659   9.405   2.343   9.566  3.8734 -0.7258  0.5787
  383MOL0     H51660   9.475   2.424   9.708  1.5117  0.3470 -0.7694
  383MOL0     H51661   9.515   2.612   9.623 -3.8757 -1.6793  3.5008
  383MOL0     H51662   9.438   2.580   9.455 -2.1286 -0.0572  1.0119
  383MOL0     H51663   9.673   2.437   9.565  0.6956  1.4501 -0.1879
  383MOL0     H51664   9.691   2.580   9.468  1.0187 -1.8040  0.1623
  383MOL0     H51665   9.843   2.293   9.340 -0.5006 -1.2414  0.1685
  383MOL0     H51666  10.060   2.252   9.284  2.0663 -0.0895  0.6634
  383MOL0     H51667  10.123   2.304   9.130  2.8749 -1.4469  2.1838
  383MOL0     H51668  10.162   2.393   9.280  0.3044 -1.0954  1.3024
  383MOL0     H51669  10.177   2.658   8.763 -1.2958  0.5581  0.0910
  383MOL0     H51670  10.372   2.794   8.659 -2.9073 -2.5490 -1.2548
  383MOL0     H51671  10.508   2.922   8.594  3.6132  1.5251 -0.2925
  383MOL0     H51672  10.398   3.073   8.607  0.3604  1.7912  1.4834
  383MOL0     H51673  10.700   3.073   8.646 -0.3810 -1.1488 -0.0111
  383MOL0     H51674  10.609   3.147   8.505 -3.8179  1.0822 -0.1238
  383MOL0     H51675  10.548   3.223   8.800  3.5520 -1.6067  0.5350
  383MOL0     H51676  10.491   3.288   8.638  0.1441 -1.7102 -1.5255
  383MOL0     H51677  10.742   3.300   8.779  0.4900 -2.2042 -1.8777
  383MOL0     H51678  10.739   3.359   8.609 -1.0848 -2.1866 -0.0123
  383MOL0     H51679  10.556   3.480   8.811 -1.0946  1.4282 -1.2898
  383MOL0     H51680  10.563   3.528   8.646  0.0968  0.6873  0.2349
  383MOL0     H51681  10.807   3.532   8.825 -1.9067 -1.9569 -1.3736
  383MOL0     H51682  10.787   3.622   8.681  1.4411  2.0682  0.4820
  383MOL0     H51683  10.623   3.693   8.924 -1.1972  0.1000 -0.5592
  383MOL0     H51684  10.632   3.771   8.764  1.9225 -3.0410 -2.8024
  383MOL0     H51685  10.892   3.799   8.817 -0.8241  1.8790 -0.4978
  383MOL0     H51686  10.873   3.711   8.964  3.8544  0.4727 -1.8215
  383MOL0     H51687  10.375   3.033   9.014 -1.5967 -0.9668  2.5868
  383MOL0     H51688  10.176   2.904   9.102  2.4505  2.3208  0.4314
  383MOL0     H51689   9.803   2.695   9.044  1.2217  0.3490  0.3653
  383MOL0     H51690   9.629   2.630   9.172  1.0646  4.0776  0.7294
  383MOL0     H51691   8.170   1.941  10.212 -0.9802 -1.0501  0.9103
  383MOL0     H51692   7.932   1.942  10.180  2.1304  0.7928 -1.6746
  383MOL0     H51693   7.545   2.037  10.137 -0.3599  0.4432  0.5443
  383MOL0     H51694   7.323   1.987  10.106 -1.4242  2.1288  0.8951
  383MOL0     H51695   7.121   1.912  10.123  2.3672 -0.8541  2.0851
  383MOL0     H51696   6.980   1.850  10.214  0.6968 -0.9961  0.7338
  383MOL0     H51697   7.070   2.137  10.181 -0.7729  0.6667 -0.4284
  383MOL0     H51698   6.937   2.099  10.296 -0.5278 -3.5735  1.4187
  383MOL0     H51699   6.859   2.184  10.068 -0.0558 -0.3158 -0.3348
  383MOL0     H51700   6.795   2.028  10.089 -1.8534  3.5336 -0.0200
  383MOL0     H51701   6.863   2.068   9.864 -0.2432 -1.5047  0.5890
  383MOL0     H51702   6.948   1.929   9.943  0.6829  0.1995 -2.4961
  383MOL0     H51703   7.263   2.201   9.825 -1.1107  0.9812  0.0709
  383MOL0     H51704   7.258   1.918  10.525 -0.1709 -2.6948 -0.4822
  383MOL0     H51705   7.502   1.995  10.568  2.5859  2.7151 -0.9016
  384MOL0     O51706   2.988  10.065   6.183  0.3007  0.1010 -0.2969
  384MOL0     C51707   2.975   9.957   6.127  0.1324 -1.0153  0.0976
  384MOL0     O51708   2.917   9.846   6.189 -0.7560 -0.8614 -0.4958
  384MOL0     C51709   2.823   9.859   6.286 -0.1176 -0.8370 -0.1887
  384MOL0     C51710   2.750   9.977   6.320 -0.7348 -0.0350  0.0318
  384MOL0     C51711   2.652   9.975   6.427 -0.0342  0.6060  0.1723
  384MOL0     C51712   2.615   9.853   6.489  0.3878  0.7509 -0.1370
  384MOL0     O51713   2.529   9.830   6.590  0.1377  0.0105 -0.1118
  384MOL0     C51714   2.418   9.919   6.626  0.0942  0.3025 -0.2026
  384MOL0     C51715   2.409   9.933   6.775 -0.4381  0.0168  0.2189
  384MOL0     C51716   2.280   9.875   6.827  0.2156 -0.6861 -0.2164
  384MOL0     C51717   2.248   9.918   6.981  0.3778  0.8539  0.4421
  384MOL0     C51718   2.098   9.902   7.026 -0.1023 -1.1816  0.2178
  384MOL0     C51719   2.010  10.023   6.985 -0.2638  0.0670 -0.6284
  384MOL0     C51720   1.885  10.027   7.071 -0.4225  0.2749  0.0821
  384MOL0     C51721   1.773  10.120   7.023  0.0665  0.2944  0.4269
  384MOL0     N51722   1.655  10.113   7.120 -0.3769  0.4793 -0.2950
  384MOL0     C51723   1.593   9.993   7.155 -0.7392 -0.4318 -0.3350
  384MOL0     C51724   1.508  10.026   7.257  0.2763 -0.0479 -0.1030
  384MOL0     C51725   1.403   9.928   7.320  0.7491 -0.0221 -0.2716
  384MOL0     C51726   1.269   9.949   7.245 -0.0565  0.8103  0.6781
  384MOL0     C51727   1.162   9.850   7.274  0.1316  0.0566 -0.5400
  384MOL0     C51728   1.053   9.855   7.163  0.2959 -0.0599 -0.3483
  384MOL0     O51729   1.101   9.791   7.039 -0.1850  0.4639  0.9508
  384MOL0     C51730   0.998   9.757   6.949 -0.2445 -0.4349 -0.8582
  384MOL0     C51731   0.904   9.849   6.900  1.1190 -0.3920  0.0813
  384MOL0     C51732   0.793   9.809   6.818 -1.0737  0.0791  1.1625
  384MOL0     C51733   0.685   9.923   6.779 -0.0447  0.1112  0.4915
  384MOL0     C51734   0.790   9.681   6.772 -0.7209 -0.2265 -0.5761
  384MOL0     C51735   0.692   9.637   6.669 -0.8390 -0.2642  0.5838
  384MOL0     O51736   0.630   9.520   6.689 -0.1230  0.1863  0.2361
  384MOL0     C51737   0.542   9.528   6.793  0.1840  0.6911 -0.2165
  384MOL0     C51738   0.580   9.505   6.928  0.7603  0.0792  0.8105
  384MOL0     C51739   0.479   9.502   7.030  0.5104  0.0126  0.7159
  384MOL0     C51740   0.343   9.527   7.001 -0.2243  0.0618  0.1544
  384MOL0     O51741   0.246   9.500   7.097  0.5718  0.7203 -0.0298
  384MOL0     C51742   0.123   9.439   7.041  0.9351  0.8807 -0.5978
  384MOL0     C51743   0.025   9.413   7.160  1.1081  0.5634  0.2705
  384MOL0     C51744  -0.097   9.324   7.131  0.2313  0.3612 -0.8298
  384MOL0     C51745  -0.124   9.247   7.260  0.2090  0.2311 -0.3276
  384MOL0     C51746  -0.255   9.168   7.236  0.5468  0.2812 -0.6827
  384MOL0     C51747  -0.290   9.079   7.364 -0.8441 -0.6620  0.2677
  384MOL0     C51748  -0.267   9.155   7.503  1.2208 -0.3344 -0.0126
  384MOL0     C51749  -0.310   9.072   7.625  0.3866  0.0110 -1.3948
  384MOL0    Cl51750  -0.475   9.013   7.622 -0.4177 -0.0475 -0.5160
  384MOL0     C51751   0.313   9.566   6.868 -0.6630  0.1381  1.1616
  384MOL0     C51752   0.416   9.568   6.766  0.0264 -0.0627 -1.0058
  384MOL0     O51753   0.662   9.712   6.575 -0.1961  0.7946 -0.8750
  384MOL0     C51754   0.892   9.590   6.818  0.6328 -1.0653 -0.1837
  384MOL0     C51755   0.989   9.627   6.913 -0.0636  0.3697 -0.2109
  384MOL0     N51756   1.530  10.165   7.290 -0.0832  0.1388 -0.6288
  384MOL0     N51757   1.615  10.208   7.198  0.3161 -0.0046 -0.5368
  384MOL0     C51758   2.678   9.734   6.436  0.5098 -1.0600 -0.1427
  384MOL0     C51759   2.783   9.739   6.344 -0.0903  0.4375 -0.5630
  384MOL0     C51760   3.043   9.932   6.000 -0.1271  0.1582 -0.6889
  384MOL0     C51761   3.039   9.810   5.940  0.2667  0.2012 -0.2175
  384MOL0     C51762   3.099   9.789   5.811  0.4365 -0.6927 -0.0117
  384MOL0     C51763   3.173   9.897   5.752 -0.1940  0.2382  0.2711
  384MOL0     O51764   3.240   9.869   5.636  0.6975 -0.4260 -0.1470
  384MOL0     C51765   3.167   9.929   5.525 -0.0056 -0.9475  0.7370
  384MOL0     C51766   3.258   9.942   5.405 -0.4878 -0.4801 -0.5490
  384MOL0     C51767   3.397   9.979   5.434  0.1167  0.5431 -0.0934
  384MOL0     C51768   3.484  10.005   5.311 -0.1321  0.0060  0.3078
  384MOL0     C51769   3.620  10.017   5.351  0.3192  0.8800 -0.1923
  384MOL0     C51770   3.745  10.026   5.371  0.3924  0.4199 -0.2843
  384MOL0     C51771   3.194  10.014   5.826 -0.0380 -0.2121 -0.7149
  384MOL0     C51772   3.119  10.034   5.939  0.6511  0.7106 -0.1778
  384MOL0     H51773   2.784  10.071   6.279 -0.3833  0.4231  1.3357
  384MOL0     H51774   2.601  10.064   6.462  2.3012  2.0540  0.1257
  384MOL0     H51775   2.427  10.022   6.590  0.5488  0.8840  1.4472
  384MOL0     H51776   2.323   9.879   6.591  0.6509 -1.1395 -0.1212
  384MOL0     H51777   2.490   9.876   6.821 -0.8309 -2.1238 -1.5565
  384MOL0     H51778   2.421  10.034   6.816  0.9151  1.6466 -3.7054
  384MOL0     H51779   2.199   9.917   6.767 -1.2943 -1.2963  1.3080
  384MOL0     H51780   2.277   9.766   6.821  0.4436 -0.9897  3.2249
  384MOL0     H51781   2.302   9.848   7.045  1.7286  3.0586  1.8301
  384MOL0     H51782   2.268  10.024   7.001 -0.9971  1.5467 -1.5062
  384MOL0     H51783   2.057   9.811   6.981 -1.7958 -0.4207  0.1225
  384MOL0     H51784   2.102   9.905   7.135  0.4035  2.2253  0.2193
  384MOL0     H51785   2.067  10.116   7.000 -3.1461  2.4024 -2.7708
  384MOL0     H51786   1.988  10.013   6.878 -1.3438  0.2173 -0.4323
  384MOL0     H51787   1.834   9.931   7.073  1.5822 -0.9290  3.9974
  384MOL0     H51788   1.923  10.049   7.171 -1.3928  0.8877  0.3200
  384MOL0     H51789   1.748  10.102   6.918  0.5159 -0.2708  0.4093
  384MOL0     H51790   1.808  10.224   7.024 -1.2324  0.7773  2.7211
  384MOL0     H51791   1.584   9.897   7.104 -1.2843 -0.9241  0.6564
  384MOL0     H51792   1.435   9.825   7.305  2.1476  0.8932 -5.8380
  384MOL0     H51793   1.384   9.946   7.426  1.3677 -1.4400  0.0989
  384MOL0     H51794   1.294   9.942   7.139 -0.4455  1.1595  0.5591
  384MOL0     H51795   1.234  10.052   7.260  0.7579  1.3290 -0.7307
  384MOL0     H51796   1.131   9.881   7.374  1.0998 -0.5828 -0.0269
  384MOL0     H51797   1.198   9.747   7.279 -4.2130 -1.5912  0.9443
  384MOL0     H51798   1.026   9.959   7.147 -0.3917  0.4396  3.2143
  384MOL0     H51799   0.959   9.810   7.195  0.2166 -0.3295 -0.9521
  384MOL0     H51800   0.908   9.949   6.942 -0.1741 -0.9541  1.6718
  384MOL0     H51801   0.722   9.989   6.700  1.9953 -0.0783  1.2485
  384MOL0     H51802   0.590   9.883   6.741 -0.1076  0.6921  0.0178
  384MOL0     H51803   0.667   9.990   6.864 -0.8922 -0.7902  1.0418
  384MOL0     H51804   0.686   9.487   6.944  0.9482 -0.5325 -0.8820
  384MOL0     H51805   0.495   9.476   7.134 -0.3967 -0.7914  0.6667
  384MOL0     H51806   0.069   9.502   6.970  1.6265  2.2141  0.0032
  384MOL0     H51807   0.141   9.349   6.981 -2.0285  1.7772 -3.1069
  384MOL0     H51808   0.085   9.372   7.241  2.1614  2.5179  0.5431
  384MOL0     H51809  -0.005   9.512   7.196 -1.0182  1.5996 -3.6801
  384MOL0     H51810  -0.086   9.256   7.046 -0.4402  0.8481 -1.3129
  384MOL0     H51811  -0.186   9.382   7.105 -0.7830 -1.0598 -0.6287
  384MOL0     H51812  -0.034   9.187   7.278  1.9633  1.7971 -3.2135
  384MOL0     H51813  -0.138   9.324   7.337 -1.5361  0.0298 -0.4098
  384MOL0     H51814  -0.243   9.091   7.159 -1.5951 -2.0971  1.1773
  384MOL0     H51815  -0.339   9.229   7.204 -0.9351 -1.2679  0.0830
  384MOL0     H51816  -0.397   9.053   7.361 -1.2097  0.5761  1.5153
  384MOL0     H51817  -0.231   8.988   7.375 -0.4397 -0.1633  3.1265
  384MOL0     H51818  -0.330   9.245   7.503 -1.1980 -1.9345  0.2742
  384MOL0     H51819  -0.164   9.185   7.526  1.0576 -0.6510  1.2112
  384MOL0     H51820  -0.278   9.126   7.714 -2.5629 -0.2472 -0.0584
  384MOL0     H51821  -0.244   8.985   7.631  2.6320  1.6475 -1.1665
  384MOL0     H51822   0.215   9.586   6.828 -0.8426 -1.1439  0.9218
  384MOL0     H51823   0.389   9.592   6.664 -1.2461 -0.9487 -0.9136
  384MOL0     H51824   0.903   9.489   6.780  1.5564 -1.3340  0.7640
  384MOL0     H51825   1.062   9.558   6.954 -0.0426  1.0751  0.9805
  384MOL0     H51826   2.641   9.648   6.489  1.8893 -1.4847  0.1789
  384MOL0     H51827   2.830   9.648   6.308 -0.7836 -0.3656  0.5070
  384MOL0     H51828   2.979   9.729   5.980  1.3858 -0.2972  0.4830
  384MOL0     H51829   3.079   9.696   5.759 -0.4812 -2.3249  3.0085
  384MOL0     H51830   3.085   9.857   5.514 -1.9136  0.9304  1.9827
  384MOL0     H51831   3.119  10.026   5.543  0.1680 -0.3802 -1.4993
  384MOL0     H51832   3.216  10.020   5.341 -0.6365 -0.7933 -0.8357
  384MOL0     H51833   3.255   9.845   5.356  3.6647 -2.0612  1.7777
  384MOL0     H51834   3.437   9.890   5.485 -0.0153  2.2381  3.2736
  384MOL0     H51835   3.414  10.062   5.503  3.3177 -0.6780  0.7849
  384MOL0     H51836   3.461  10.102   5.266 -1.3250 -0.3462  0.1295
  384MOL0     H51837   3.474   9.930   5.232 -2.4903  1.5286 -0.9355
  384MOL0     H51838   3.846  10.054   5.393  0.3861  0.4767 -0.3252
  384MOL0     H51839   3.255  10.099   5.796 -0.5904  0.5455  0.2714
  384MOL0     H51840   3.125  10.133   5.984  2.9903  0.9003 -0.7682
  385MOL0     O51841   8.095   6.757   9.695 -0.1821 -0.0657  0.4999
  385MOL0     C51842   8.190   6.751   9.623  0.5219  0.5547 -0.1396
  385MOL0     O51843   8.207   6.798   9.497 -0.9886 -0.1697 -0.2664
  385MOL0     C51844   8.104   6.848   9.409 -0.6838  0.4339 -1.4719
  385MOL0     C51845   8.131   6.866   9.273 -0.4643  0.1621 -0.1752
  385MOL0     C51846   8.040   6.914   9.181 -0.2769  0.3518 -0.8566
  385MOL0     C51847   7.908   6.941   9.226 -0.2664 -0.3355 -0.4780
  385MOL0     O51848   7.819   6.973   9.125  0.2075 -0.4574 -0.0912
  385MOL0     C51849   7.678   6.967   9.161 -0.6020  0.2342 -1.1544
  385MOL0     C51850   7.611   6.966   9.014 -0.2523 -0.6430 -0.4755
  385MOL0     C51851   7.474   6.895   9.022  0.1271  0.2919  0.4263
  385MOL0     C51852   7.401   6.897   8.884  0.2376 -0.8697 -0.6982
  385MOL0     C51853   7.361   7.039   8.852 -0.4983 -0.4841  0.4180
  385MOL0     C51854   7.253   7.026   8.751  0.1099 -0.0802 -0.6426
  385MOL0     C51855   7.228   7.159   8.683  0.1191 -0.1472  0.1569
  385MOL0     C51856   7.155   7.154   8.547  0.2372  0.0361  0.2133
  385MOL0     N51857   7.014   7.109   8.568 -1.1408 -0.0433  0.8240
  385MOL0     C51858   6.909   7.179   8.631  0.1157 -0.0786  0.7473
  385MOL0     C51859   6.801   7.088   8.625 -0.8943 -0.0598 -0.8460
  385MOL0     C51860   6.657   7.119   8.671  0.5064  1.0757  0.0143
  385MOL0     C51861   6.597   7.035   8.791 -0.0404 -0.3175 -0.0360
  385MOL0     C51862   6.577   6.892   8.776 -0.2260 -0.0568 -0.1388
  385MOL0     C51863   6.449   6.849   8.704 -0.5717 -0.7386  0.0316
  385MOL0     O51864   6.337   6.863   8.785 -0.0069 -0.5387  0.0532
  385MOL0     C51865   6.225   6.798   8.746  0.9205  0.0679  0.0216
  385MOL0     C51866   6.206   6.723   8.622  1.5832 -0.8257  0.1582
  385MOL0     C51867   6.085   6.658   8.592 -1.1876  0.3049  0.0252
  385MOL0     C51868   6.086   6.580   8.462  0.4032  0.6440 -0.7738
  385MOL0     C51869   5.968   6.671   8.667  0.1874 -0.1541 -0.0340
  385MOL0     C51870   5.833   6.625   8.635  0.3479  0.5554 -0.0336
  385MOL0     O51871   5.728   6.662   8.727  0.0394  0.2006 -1.0463
  385MOL0     C51872   5.602   6.615   8.716  0.4041  0.1915  0.0330
  385MOL0     C51873   5.512   6.711   8.677  0.2047 -0.5661 -0.6486
  385MOL0     C51874   5.376   6.682   8.666 -0.7628 -0.1486  0.0089
  385MOL0     C51875   5.319   6.551   8.692  0.5938  0.5781  0.2335
  385MOL0     O51876   5.183   6.526   8.685  0.6717  0.2828 -0.0322
  385MOL0     C51877   5.093   6.641   8.666  0.6955 -0.1301 -0.1303
  385MOL0     C51878   4.950   6.606   8.704  0.1966 -0.1462 -0.5663
  385MOL0     C51879   4.862   6.732   8.673 -0.0722  0.2722 -0.5341
  385MOL0     C51880   4.712   6.712   8.704  0.1934 -0.5532  0.3601
  385MOL0     C51881   4.616   6.818   8.663 -1.1519  0.6220  0.5408
  385MOL0     C51882   4.641   6.846   8.513  0.2375  0.3941  0.1227
  385MOL0     C51883   4.550   6.960   8.461  0.0204 -0.3345 -0.2850
  385MOL0     C51884   4.405   6.917   8.435 -0.3200 -0.3856 -1.1036
  385MOL0    Cl51885   4.322   7.041   8.340 -0.2406  0.0375 -0.0721
  385MOL0     C51886   5.420   6.449   8.725 -0.9733  0.2868  0.0092
  385MOL0     C51887   5.556   6.481   8.742 -0.8703 -0.5122  0.2217
  385MOL0     O51888   5.819   6.544   8.540  0.1272  0.5497 -0.4419
  385MOL0     C51889   5.981   6.754   8.783  1.9710 -1.0567 -0.4771
  385MOL0     C51890   6.104   6.801   8.825  0.4699  0.4045 -0.8292
  385MOL0     N51891   6.844   6.975   8.569  1.0952  0.7152 -0.6011
  385MOL0     N51892   6.970   6.980   8.543 -0.9812  0.4634 -0.3915
  385MOL0     C51893   7.867   6.922   9.359  0.3902  0.1982 -0.3011
  385MOL0     C51894   7.969   6.876   9.453  0.6386 -0.2178 -0.3553
  385MOL0     C51895   8.309   6.694   9.690  0.6901 -0.4124 -0.4840
  385MOL0     C51896   8.298   6.588   9.782  1.0320  0.5530  0.0506
  385MOL0     C51897   8.407   6.544   9.859 -0.3012  0.2138  0.7804
  385MOL0     C51898   8.530   6.605   9.838  0.1726  0.8501  0.7107
  385MOL0     O51899   8.648   6.576   9.909 -0.0167  0.2423 -0.9765
  385MOL0     C51900   8.633   6.471  10.005  0.3649  0.0402 -0.6348
  385MOL0     C51901   8.636   6.325   9.944  0.0440 -0.5822  0.0823
  385MOL0     C51902   8.781   6.296   9.900 -0.7105  0.0448  1.5389
  385MOL0     C51903   8.866   6.232  10.011 -0.0151 -0.1048  0.1163
  385MOL0     C51904   8.960   6.133   9.958 -0.9972  0.4934 -0.2376
  385MOL0     C51905   9.031   6.039   9.917  0.3022  0.6130  0.5419
  385MOL0     C51906   8.541   6.709   9.748  0.4726  0.6419  1.0804
  385MOL0     C51907   8.430   6.757   9.677  0.5431 -0.8532  0.0637
  385MOL0     H51908   8.235   6.858   9.242 -0.2204 -1.9366  1.0042
  385MOL0     H51909   8.081   6.930   9.082  1.8608 -0.8515 -0.2228
  385MOL0     H51910   7.642   6.881   9.217  1.9859 -0.7789 -0.9501
  385MOL0     H51911   7.666   7.060   9.219  2.2687  0.2504 -0.4469
  385MOL0     H51912   7.601   7.074   8.999 -1.1149 -0.2654  2.2487
  385MOL0     H51913   7.680   6.922   8.942  0.9120  1.9198 -1.0296
  385MOL0     H51914   7.498   6.789   9.035  0.7108  0.4148  0.3562
  385MOL0     H51915   7.406   6.921   9.104  1.1862 -1.7298  2.0346
  385MOL0     H51916   7.446   6.840   8.802 -3.1921 -0.6168 -2.9705
  385MOL0     H51917   7.308   6.843   8.903 -0.5852  0.9689  0.7574
  385MOL0     H51918   7.327   7.091   8.942  2.1616 -0.3774  1.4621
  385MOL0     H51919   7.450   7.098   8.824 -2.0333  1.9932  0.4504
  385MOL0     H51920   7.288   6.962   8.669 -0.0411  0.1367 -0.8794
  385MOL0     H51921   7.163   6.993   8.803  1.2802  1.2076  2.4313
  385MOL0     H51922   7.184   7.227   8.757  2.8809  0.2019  1.6070
  385MOL0     H51923   7.331   7.190   8.663  0.6358 -1.9340 -0.1179
  385MOL0     H51924   7.200   7.087   8.474 -1.3976 -0.9382  0.0342
  385MOL0     H51925   7.153   7.256   8.508 -0.0012  0.6834  1.8421
  385MOL0     H51926   6.907   7.282   8.665 -0.6782 -0.4320  1.8088
  385MOL0     H51927   6.662   7.220   8.712  0.3125  1.6274 -1.2573
  385MOL0     H51928   6.590   7.119   8.584 -1.4856 -0.6995  1.4547
  385MOL0     H51929   6.508   7.090   8.822 -2.7299 -2.9235 -2.4316
  385MOL0     H51930   6.672   7.040   8.870 -2.1935  0.6740  2.1017
  385MOL0     H51931   6.580   6.848   8.876  1.4795 -0.2269 -0.2303
  385MOL0     H51932   6.659   6.847   8.720  1.7286  0.3470  2.2326
  385MOL0     H51933   6.456   6.747   8.664 -1.4919 -1.7242  2.2350
  385MOL0     H51934   6.438   6.905   8.611 -2.7186 -1.3698 -0.1302
  385MOL0     H51935   6.288   6.723   8.551  1.0112  0.3177 -0.5360
  385MOL0     H51936   6.058   6.475   8.477  2.1285  0.0908 -1.1892
  385MOL0     H51937   6.001   6.610   8.399 -0.2808 -0.6392 -0.4979
  385MOL0     H51938   6.188   6.592   8.423  1.3448 -1.1452  0.9526
  385MOL0     H51939   5.553   6.811   8.666  4.6697 -2.2761 -1.7999
  385MOL0     H51940   5.312   6.758   8.623 -1.6605 -0.1621  1.2565
  385MOL0     H51941   5.125   6.728   8.723  3.2330 -0.4062 -1.0307
  385MOL0     H51942   5.087   6.676   8.563 -2.8208  0.2904  0.0883
  385MOL0     H51943   4.929   6.521   8.639 -0.5102 -1.3083  1.1415
  385MOL0     H51944   4.949   6.576   8.809  0.8125  0.6122 -0.3368
  385MOL0     H51945   4.872   6.757   8.567 -3.1320  1.0084 -0.7366
  385MOL0     H51946   4.905   6.811   8.735 -2.6497  1.2108  0.1621
  385MOL0     H51947   4.671   6.616   8.672 -1.9571  0.3037  0.3297
  385MOL0     H51948   4.714   6.696   8.813 -2.0959  2.2124  0.9616
  385MOL0     H51949   4.642   6.908   8.718  2.0028 -0.6695  1.3639
  385MOL0     H51950   4.515   6.779   8.683 -0.5298 -0.7586  1.1563
  385MOL0     H51951   4.736   6.894   8.490  0.1768  0.5042  0.1024
  385MOL0     H51952   4.634   6.754   8.454  0.2446 -0.2295  1.0632
  385MOL0     H51953   4.592   6.986   8.363  1.4189 -1.2008  0.0482
  385MOL0     H51954   4.553   7.045   8.529 -2.5671  1.5477 -2.3362
  385MOL0     H51955   4.344   6.914   8.526 -2.2690  0.9059 -2.2831
  385MOL0     H51956   4.411   6.821   8.382  0.5290 -0.0942 -1.5455
  385MOL0     H51957   5.382   6.348   8.738  1.1538 -0.6685 -0.7823
  385MOL0     H51958   5.632   6.413   8.780 -1.6387 -0.4171  2.0573
  385MOL0     H51959   5.904   6.780   8.855  0.8307 -2.8425 -0.9821
  385MOL0     H51960   6.104   6.850   8.922 -1.8751  1.0459 -1.0834
  385MOL0     H51961   7.765   6.939   9.391  0.8556  1.0690  0.7741
  385MOL0     H51962   7.938   6.867   9.556  0.3668  1.0318 -0.3177
  385MOL0     H51963   8.199   6.553   9.807  0.2831  2.5929  0.1747
  385MOL0     H51964   8.398   6.457   9.924  4.5802 -0.4904  0.9040
  385MOL0     H51965   8.712   6.475  10.080  0.4216  1.3234 -0.7377
  385MOL0     H51966   8.544   6.497  10.063  0.4284  1.9042 -1.2833
  385MOL0     H51967   8.572   6.318   9.855  1.6378  3.6000 -1.6480
  385MOL0     H51968   8.601   6.259  10.024  0.3346  1.7593  2.2576
  385MOL0     H51969   8.839   6.383   9.870  1.4708 -1.8228 -0.0029
  385MOL0     H51970   8.762   6.232   9.813 -3.2127  1.0768  1.2501
  385MOL0     H51971   8.807   6.175  10.082  1.7452 -0.4482  1.3746
  385MOL0     H51972   8.924   6.313  10.056  1.2209 -0.4171 -0.8493
  385MOL0     H51973   9.104   5.966   9.889  1.6645  1.1040  2.5438
  385MOL0     H51974   8.640   6.753   9.740 -0.4466  2.3619 -2.6771
  385MOL0     H51975   8.432   6.835   9.602 -3.4364 -0.3255  0.3053
  386MOL0     O51976   3.324   5.562  10.705  0.3555  0.0305  0.0380
  386MOL0     C51977   3.320   5.685  10.704 -0.0238 -0.0926  0.2221
  386MOL0     O51978   3.212   5.766  10.745 -0.1930  0.2709 -0.2613
  386MOL0     C51979   3.097   5.706  10.780 -1.4228  0.0231  0.3951
  386MOL0     C51980   3.077   5.644  10.906 -0.3641  0.2890  0.7091
  386MOL0     C51981   2.962   5.582  10.938  0.3273  0.1367  0.4735
  386MOL0     C51982   2.846   5.600  10.860  0.0941  0.6472 -0.4652
  386MOL0     O51983   2.730   5.534  10.885 -0.0411  0.8007  0.0228
  386MOL0     C51984   2.729   5.402  10.950 -0.6604 -0.2831 -0.0234
  386MOL0     C51985   2.593   5.334  10.907 -0.0107  0.1197  0.2918
  386MOL0     C51986   2.580   5.200  10.984  0.3828  0.4551 -0.1119
  386MOL0     C51987   2.458   5.124  10.915 -0.6297  0.1061  0.4418
  386MOL0     C51988   2.323   5.195  10.937  0.3423 -0.6223  0.8237
  386MOL0     C51989   2.206   5.108  10.885  0.3126 -0.8749  0.0850
  386MOL0     C51990   2.077   5.185  10.900  0.1161  0.1878  0.1033
  386MOL0     C51991   1.964   5.129  10.821  0.0932  0.2891 -0.9148
  386MOL0     N51992   1.951   4.984  10.850 -0.2665  0.7141 -0.2756
  386MOL0     C51993   1.879   4.930  10.948  0.2532 -0.8571 -1.2131
  386MOL0     C51994   1.907   4.794  10.947 -0.8031 -0.0669 -1.1759
  386MOL0     C51995   1.841   4.692  11.041  0.4717 -0.5835  0.7735
  386MOL0     C51996   1.717   4.614  10.988 -0.4584  0.0101  0.1156
  386MOL0     C51997   1.592   4.702  10.975 -0.0027 -0.1530 -0.5302
  386MOL0     C51998   1.472   4.620  10.920  0.0270 -0.5419  0.3018
  386MOL0     O51999   1.375   4.717  10.884  0.3571 -0.3422 -0.3725
  386MOL0     C52000   1.277   4.667  10.806 -0.1264 -0.0440 -0.0065
  386MOL0     C52001   1.219   4.536  10.813 -0.5822 -0.5276 -0.8570
  386MOL0     C52002   1.125   4.494  10.728 -0.6078  1.1484  0.0255
  386MOL0     C52003   1.056   4.359  10.757  0.0059  1.2169 -0.8750
  386MOL0     C52004   1.070   4.576  10.627 -0.3949 -1.3922 -0.2289
  386MOL0     C52005   0.961   4.540  10.529 -0.3604  0.5663 -0.4176
  386MOL0     O52006   0.921   4.644  10.450  0.1576 -0.0624 -0.4701
  386MOL0     C52007   0.812   4.641  10.367  0.2251  0.0705 -0.2158
  386MOL0     C52008   0.728   4.751  10.374 -0.7672  0.5873  0.2434
  386MOL0     C52009   0.622   4.762  10.285  0.3566  0.0108 -0.1329
  386MOL0     C52010   0.578   4.649  10.210 -0.5261 -0.1555  0.8379
  386MOL0     O52011   0.464   4.642  10.136 -0.5571 -0.4758 -0.4812
  386MOL0     C52012   0.369   4.745  10.161  0.0464 -1.1206 -0.5416
  386MOL0     C52013   0.225   4.701  10.117 -0.6813  0.0426 -1.2226
  386MOL0     C52014   0.184   4.564  10.175  0.9156  0.9028  0.3163
  386MOL0     C52015   0.047   4.534  10.120  0.1719  0.8729  0.7373
  386MOL0     C52016   0.009   4.385  10.115 -0.5803  0.0804  0.1634
  386MOL0     C52017  -0.030   4.341  10.249 -0.5346  0.1036 -0.3320
  386MOL0     C52018  -0.110   4.214  10.242  0.1469  0.2465  0.1964
  386MOL0     C52019  -0.018   4.085  10.246  0.7383 -0.5254 -0.7094
  386MOL0    Cl52020   0.050   4.053  10.084 -0.6440 -0.3010 -0.2896
  386MOL0     C52021   0.657   4.542  10.215 -0.2900  1.0578  0.7557
  386MOL0     C52022   0.774   4.535  10.284 -0.8328  0.7819  0.1915
  386MOL0     O52023   0.919   4.425  10.514 -0.1993  0.0979 -0.1124
  386MOL0     C52024   1.136   4.697  10.622  0.9842 -0.3681 -0.8357
  386MOL0     C52025   1.239   4.741  10.704  0.3948 -0.0018  1.2666
  386MOL0     N52026   1.982   4.772  10.840 -0.0065 -0.4208  0.7854
  386MOL0     N52027   2.015   4.882  10.780  0.1587 -0.4381 -0.9229
  386MOL0     C52028   2.864   5.686  10.751 -0.2973  0.3053  0.4862
  386MOL0     C52029   2.983   5.734  10.703  0.5231  0.0386  1.0153
  386MOL0     C52030   3.437   5.766  10.653  0.9242  0.0699  0.3128
  386MOL0     C52031   3.446   5.906  10.675  0.5678  0.0591  0.2897
  386MOL0     C52032   3.552   5.974  10.605  0.1072  0.3134  0.9987
  386MOL0     C52033   3.654   5.918  10.524  0.8624  0.2658 -0.8832
  386MOL0     O52034   3.746   5.995  10.454 -0.5711 -0.3529 -1.0497
  386MOL0     C52035   3.871   5.938  10.417 -0.6809 -0.8144 -0.6164
  386MOL0     C52036   3.975   5.905  10.529  0.6365 -0.0218 -0.9030
  386MOL0     C52037   4.056   6.028  10.566 -0.1427  0.1636  0.3528
  386MOL0     C52038   4.151   5.980  10.684 -0.0363  0.2712 -0.2374
  386MOL0     C52039   4.212   6.105  10.723 -0.9515  0.0548  0.9123
  386MOL0     C52040   4.253   6.213  10.758 -0.1617  0.6399  0.5485
  386MOL0     C52041   3.644   5.777  10.518  0.4835  0.3228  0.2897
  386MOL0     C52042   3.545   5.706  10.596 -0.5761 -0.3409  0.4578
  386MOL0     H52043   3.153   5.642  10.984  0.5335 -2.2896 -0.1389
  386MOL0     H52044   2.960   5.535  11.036  0.9153 -0.2629  0.2978
  386MOL0     H52045   2.814   5.338  10.924 -0.3558  0.1665 -0.1298
  386MOL0     H52046   2.722   5.411  11.058  1.0515  0.8207  0.0107
  386MOL0     H52047   2.511   5.406  10.919 -0.9236 -0.0428 -3.6951
  386MOL0     H52048   2.588   5.315  10.800 -2.9620  2.0281 -0.0329
  386MOL0     H52049   2.675   5.145  10.977 -0.1973 -0.5534 -0.3019
  386MOL0     H52050   2.563   5.209  11.091  1.0328  3.9271 -0.1957
  386MOL0     H52051   2.482   5.100  10.811  1.0855  0.2781  0.7681
  386MOL0     H52052   2.459   5.028  10.966 -0.6398  0.6135  1.4268
  386MOL0     H52053   2.312   5.224  11.042  0.1960 -0.1706  0.6872
  386MOL0     H52054   2.335   5.285  10.877  0.9612  0.8626  3.0361
  386MOL0     H52055   2.236   5.079  10.784  0.9054 -2.6833  0.7356
  386MOL0     H52056   2.198   5.019  10.948  9.8557 -1.5691  1.7505
  386MOL0     H52057   2.056   5.198  11.007  2.6397  0.1256  0.6489
  386MOL0     H52058   2.096   5.280  10.850  1.9530  0.3032  0.9746
  386MOL0     H52059   1.987   5.142  10.715  5.0094 -2.0386 -0.4194
  386MOL0     H52060   1.873   5.186  10.838 -2.0333 -2.4213 -2.4059
  386MOL0     H52061   1.812   4.981  11.017  1.7923 -1.0863  0.5391
  386MOL0     H52062   1.919   4.627  11.081  1.4573 -0.5915 -1.0847
  386MOL0     H52063   1.798   4.748  11.125  0.5742  2.7491 -1.2086
  386MOL0     H52064   1.682   4.537  11.057 -1.6972  2.5392  2.5009
  386MOL0     H52065   1.718   4.574  10.886  0.2441  0.2452  0.0264
  386MOL0     H52066   1.613   4.789  10.913 -0.8927 -1.2982 -2.5441
  386MOL0     H52067   1.573   4.734  11.078 -0.0864 -2.5559  0.2672
  386MOL0     H52068   1.434   4.551  10.996  1.4461 -1.7726 -0.0492
  386MOL0     H52069   1.498   4.566  10.829 -0.7169  2.2321 -1.6692
  386MOL0     H52070   1.259   4.470  10.890 -1.0583  0.2483  0.0939
  386MOL0     H52071   1.063   4.289  10.673 -1.7859 -0.9674  0.6852
  386MOL0     H52072   1.109   4.300  10.832 -0.7833  2.5751  0.8036
  386MOL0     H52073   0.953   4.359  10.792  1.1180  0.4206  2.7817
  386MOL0     H52074   0.751   4.833  10.442 -1.3170  0.9138  0.0402
  386MOL0     H52075   0.576   4.860  10.278  3.5099  1.5428 -2.3687
  386MOL0     H52076   0.361   4.768  10.268  1.4238  0.8910 -0.8306
  386MOL0     H52077   0.396   4.835  10.106  0.6500  0.2262  1.7964
  386MOL0     H52078   0.160   4.781  10.153  0.2664  1.3872 -2.3852
  386MOL0     H52079   0.225   4.705  10.008 -3.0761 -1.7691 -1.3662
  386MOL0     H52080   0.178   4.562  10.284 -3.5642  2.2724  0.2958
  386MOL0     H52081   0.252   4.485  10.141  2.0811  1.7871  0.5438
  386MOL0     H52082  -0.030   4.602  10.156 -1.5125 -0.9028  0.6468
  386MOL0     H52083   0.052   4.563  10.014 -2.5067  1.8695  0.7923
  386MOL0     H52084   0.097   4.326  10.087 -1.1907 -1.9769  2.2495
  386MOL0     H52085  -0.076   4.377  10.047 -0.3491 -1.1191 -0.0100
  386MOL0     H52086   0.054   4.329  10.319 -0.2844 -0.1171 -0.6630
  386MOL0     H52087  -0.099   4.415  10.290  4.3145  3.0954  3.4961
  386MOL0     H52088  -0.169   4.211  10.150 -1.1555 -0.4626  1.0081
  386MOL0     H52089  -0.179   4.210  10.327  0.2834  0.1857  0.3025
  386MOL0     H52090  -0.073   3.995  10.275  1.8427 -1.7077 -2.1160
  386MOL0     H52091   0.051   4.102  10.328 -2.6176  1.7350  1.9367
  386MOL0     H52092   0.619   4.467  10.146 -2.4873  2.3896  0.3891
  386MOL0     H52093   0.853   4.460  10.274 -1.4272  0.0024  1.1076
  386MOL0     H52094   1.091   4.768  10.554 -1.0831 -0.7462  0.0457
  386MOL0     H52095   1.273   4.843  10.691  0.8663 -0.2568  0.4188
  386MOL0     H52096   2.788   5.708  10.676 -0.3487 -1.4105 -0.0068
  386MOL0     H52097   2.990   5.790  10.610 -0.2261  0.8548  1.4408
  386MOL0     H52098   3.374   5.960  10.734 -1.7554  0.2899 -2.5102
  386MOL0     H52099   3.563   6.081  10.624 -1.9633  0.7474  0.0611
  386MOL0     H52100   3.851   5.845  10.364  1.9024 -2.4408  1.0496
  386MOL0     H52101   3.923   5.999  10.343  1.6490 -0.4516  1.2083
  386MOL0     H52102   4.045   5.825  10.503  1.8260  0.7224 -0.0722
  386MOL0     H52103   3.916   5.869  10.614 -0.8903  0.1289 -1.8611
  386MOL0     H52104   3.978   6.100  10.593 -0.1837 -0.0132  0.7073
  386MOL0     H52105   4.116   6.058  10.479 -0.7744  1.1829  0.2512
  386MOL0     H52106   4.225   5.910  10.645  0.1047 -0.0633  0.6073
  386MOL0     H52107   4.106   5.922  10.765  2.8837 -0.9581  0.6390
  386MOL0     H52108   4.301   6.308  10.775  0.2320  0.4452  0.5387
  386MOL0     H52109   3.715   5.718  10.461 -0.0123 -0.8300  0.8293
  386MOL0     H52110   3.551   5.598  10.594  2.0400 -0.2490 -1.4337
  387MOL0     O52111   2.063   2.874   0.595 -0.1074  0.7893 -0.9255
  387MOL0     C52112   2.145   2.967   0.598  1.1607  0.2414 -0.3927
  387MOL0     O52113   2.228   3.010   0.494  0.2104 -0.2669  0.6404
  387MOL0     C52114   2.219   2.932   0.388  0.0064 -0.2439 -0.3097
  387MOL0     C52115   2.309   2.829   0.380  0.8541  0.6046  0.3904
  387MOL0     C52116   2.285   2.714   0.300 -0.6127 -0.4196  0.1595
  387MOL0     C52117   2.179   2.720   0.209 -0.0108  0.7343 -0.4563
  387MOL0     O52118   2.159   2.603   0.129 -0.1845 -0.2813 -0.2786
  387MOL0     C52119   2.026   2.566   0.082  0.2221  0.2279 -0.6425
  387MOL0     C52120   1.916   2.557   0.198  0.7403  0.1348  0.4607
  387MOL0     C52121   1.960   2.466   0.315  0.0248 -0.0996 -0.5486
  387MOL0     C52122   1.871   2.436   0.424  0.9978 -0.1699 -0.7955
  387MOL0     C52123   1.851   2.552   0.529 -0.4022 -0.2351  0.8841
  387MOL0     C52124   1.933   2.548   0.655 -0.2664  0.1628 -0.3858
  387MOL0     C52125   2.087   2.558   0.633 -0.2421  0.8529  0.0782
  387MOL0     C52126   2.157   2.577   0.764  0.4448 -1.0174  0.3921
  387MOL0     N52127   2.298   2.552   0.758 -0.2768  0.7508  0.1863
  387MOL0     C52128   2.363   2.437   0.730  0.3169  0.5525  0.5522
  387MOL0     C52129   2.490   2.453   0.774 -1.5042  0.5140  0.9340
  387MOL0     C52130   2.614   2.357   0.761  0.6924  0.1607 -0.1336
  387MOL0     C52131   2.654   2.304   0.902  0.1692 -0.2091 -0.5957
  387MOL0     C52132   2.592   2.168   0.932 -0.6826 -0.9615  0.2759
  387MOL0     C52133   2.585   2.143   1.080 -0.1673  0.4657 -0.7874
  387MOL0     O52134   2.517   2.023   1.105  0.1551  0.5806  0.0251
  387MOL0     C52135   2.382   2.021   1.121 -0.3060  0.3059 -0.2218
  387MOL0     C52136   2.306   2.141   1.145  0.8026 -0.2236  2.0415
  387MOL0     C52137   2.165   2.144   1.133  0.1509 -0.7537  0.1773
  387MOL0     C52138   2.104   2.282   1.137  0.4797  0.2702 -0.7977
  387MOL0     C52139   2.096   2.017   1.126 -0.2333  0.2554 -0.0671
  387MOL0     C52140   1.952   2.004   1.130 -0.5570 -0.6976 -0.7136
  387MOL0     O52141   1.901   1.879   1.103  0.6074 -0.4187 -0.0588
  387MOL0     C52142   1.765   1.872   1.103 -0.0295 -0.7006  0.1425
  387MOL0     C52143   1.704   1.775   1.188 -0.0803  0.1958  0.9441
  387MOL0     C52144   1.561   1.767   1.193 -0.4403 -0.6599 -0.4243
  387MOL0     C52145   1.485   1.844   1.101 -0.9113  0.4457 -0.9842
  387MOL0     O52146   1.345   1.829   1.087 -0.2091 -0.8139  0.4064
  387MOL0     C52147   1.271   1.835   1.206  0.5131  0.2954  0.0360
  387MOL0     C52148   1.118   1.806   1.162  0.4005  0.5899  0.2842
  387MOL0     C52149   1.014   1.825   1.270 -0.1328 -0.2987 -0.0777
  387MOL0     C52150   0.983   1.975   1.272  0.5599  0.3355 -0.0344
  387MOL0     C52151   0.854   2.021   1.350 -0.4610 -0.1713  0.1671
  387MOL0     C52152   0.863   1.999   1.500 -0.0353 -0.1580 -0.8049
  387MOL0     C52153   0.747   2.067   1.587 -0.4308  0.1473 -0.2177
  387MOL0     C52154   0.613   2.002   1.557 -1.1802  0.1777  0.5526
  387MOL0    Cl52155   0.552   2.031   1.395 -0.3362  0.0442  0.0380
  387MOL0     C52156   1.553   1.909   1.001 -0.3826 -0.3536 -0.2935
  387MOL0     C52157   1.690   1.925   1.005 -0.3511  0.5022  0.2249
  387MOL0     O52158   1.886   2.095   1.178 -0.5481  0.5830  0.6812
  387MOL0     C52159   2.168   1.898   1.109  0.2952  0.2808 -1.1428
  387MOL0     C52160   2.312   1.898   1.104  0.5898 -0.5833 -0.2450
  387MOL0     N52161   2.499   2.580   0.826 -1.0491 -0.3081  0.1432
  387MOL0     N52162   2.389   2.643   0.794 -0.1756  0.3624 -0.4564
  387MOL0     C52163   2.089   2.829   0.209  0.0452 -0.3121 -0.4331
  387MOL0     C52164   2.107   2.938   0.297 -0.7435 -0.0889 -1.1378
  387MOL0     C52165   2.178   3.020   0.734 -0.1723 -0.8008 -1.0553
  387MOL0     C52166   2.107   2.964   0.846 -0.4550 -0.3302  0.1774
  387MOL0     C52167   2.133   3.024   0.969 -0.4522  0.6327  0.4879
  387MOL0     C52168   2.224   3.125   0.987 -0.4951  0.1574  0.2025
  387MOL0     O52169   2.257   3.181   1.108  0.3584 -0.6103 -0.5501
  387MOL0     C52170   2.212   3.119   1.231  0.7688  0.1142  0.7094
  387MOL0     C52171   2.099   3.208   1.289  0.1767 -0.3724 -0.5254
  387MOL0     C52172   1.985   3.258   1.197 -0.0514  0.3840  0.2398
  387MOL0     C52173   1.883   3.155   1.152 -0.1198  0.0294 -0.4218
  387MOL0     C52174   1.750   3.181   1.213 -0.8944 -0.1505  0.6236
  387MOL0     C52175   1.654   3.212   1.283 -0.3582  0.1359  0.4019
  387MOL0     C52176   2.295   3.184   0.884 -1.0575 -0.1015 -0.5195
  387MOL0     C52177   2.280   3.127   0.756  0.6994  0.6295 -0.3725
  387MOL0     H52178   2.401   2.838   0.437  2.5058  1.5576 -2.2153
  387MOL0     H52179   2.335   2.618   0.301 -1.6891 -1.0477  2.7236
  387MOL0     H52180   1.992   2.628  -0.001 -0.2493 -3.2096 -3.2685
  387MOL0     H52181   2.024   2.466   0.038  1.3186 -0.6226  1.0951
  387MOL0     H52182   1.898   2.662   0.223  3.6534  1.2124 -1.3970
  387MOL0     H52183   1.826   2.511   0.155  0.2798  0.8403  0.6340
  387MOL0     H52184   1.984   2.375   0.259 -3.2476  1.1784 -4.5526
  387MOL0     H52185   2.054   2.494   0.363 -0.5492  0.4552  0.2897
  387MOL0     H52186   1.769   2.419   0.390  1.4157 -1.8683 -1.3023
  387MOL0     H52187   1.897   2.345   0.479 -0.7604  0.1491  0.6317
  387MOL0     H52188   1.867   2.652   0.489  0.2793 -0.7996 -0.3081
  387MOL0     H52189   1.744   2.550   0.555 -1.3613  1.0908 -2.4413
  387MOL0     H52190   1.897   2.621   0.729 -0.4217 -0.4470  0.1493
  387MOL0     H52191   1.912   2.451   0.702  4.5741  0.2804  2.7247
  387MOL0     H52192   2.117   2.467   0.580  0.4682  1.3967 -0.4846
  387MOL0     H52193   2.111   2.642   0.566 -3.5273  1.4736 -0.5137
  387MOL0     H52194   2.118   2.501   0.831 -2.5529 -1.2275 -1.4159
  387MOL0     H52195   2.132   2.673   0.811 -1.9215  0.1418 -2.7993
  387MOL0     H52196   2.331   2.342   0.689 -0.6800  1.9224 -2.0926
  387MOL0     H52197   2.581   2.275   0.696 -1.7361  1.6223 -0.8468
  387MOL0     H52198   2.689   2.409   0.701 -1.8231  0.4049 -3.3340
  387MOL0     H52199   2.612   2.376   0.974  2.1912  0.7215 -0.2761
  387MOL0     H52200   2.763   2.311   0.910  0.1975 -1.0185 -0.1941
  387MOL0     H52201   2.666   2.096   0.898  1.0831 -0.5854  2.9829
  387MOL0     H52202   2.490   2.156   0.894  0.1555 -0.4855 -2.2797
  387MOL0     H52203   2.535   2.232   1.119 -3.4126 -2.0221  1.2777
  387MOL0     H52204   2.687   2.137   1.120 -0.7292 -1.6679  0.5051
  387MOL0     H52205   2.355   2.237   1.146 -1.0490  0.8724 -0.6078
  387MOL0     H52206   2.011   2.285   1.195 -0.6720 -1.3436 -2.4290
  387MOL0     H52207   2.172   2.357   1.178  2.4770 -2.9013  2.3471
  387MOL0     H52208   2.080   2.313   1.035  0.1368  2.2155 -0.1669
  387MOL0     H52209   1.771   1.708   1.240  1.8893  2.7868  1.9425
  387MOL0     H52210   1.516   1.692   1.256 -1.4246  0.5376  0.3521
  387MOL0     H52211   1.293   1.754   1.276  0.2322 -0.0039 -0.2179
  387MOL0     H52212   1.274   1.935   1.251  1.3362  1.2065 -1.8949
  387MOL0     H52213   1.096   1.854   1.066  0.9421  0.8164  0.2684
  387MOL0     H52214   1.121   1.699   1.139  0.1449  0.8357 -1.0025
  387MOL0     H52215   1.061   1.809   1.368  3.7766  2.0658 -1.3522
  387MOL0     H52216   0.925   1.769   1.241 -0.3884  1.0023 -1.9538
  387MOL0     H52217   1.068   2.032   1.311 -0.4012  1.5757  0.3397
  387MOL0     H52218   0.956   2.009   1.172 -2.2296  0.3316  0.6510
  387MOL0     H52219   0.780   1.960   1.298  3.6439 -4.4193 -1.3845
  387MOL0     H52220   0.832   2.126   1.331  2.4971 -0.0720 -3.8639
  387MOL0     H52221   0.874   1.894   1.530  0.6305  0.4337  1.1906
  387MOL0     H52222   0.961   2.046   1.515  0.5353 -1.1213 -1.4139
  387MOL0     H52223   0.744   2.175   1.570 -0.4189  0.4561  1.5102
  387MOL0     H52224   0.772   2.041   1.690  0.1869 -1.9082 -0.8357
  387MOL0     H52225   0.544   2.035   1.635 -2.5010 -2.8683  0.7856
  387MOL0     H52226   0.607   1.897   1.586  0.5162  0.1530  0.9580
  387MOL0     H52227   1.505   1.943   0.910 -1.8834  1.1810  1.0079
  387MOL0     H52228   1.748   1.965   0.922  1.7555 -0.1255  1.3297
  387MOL0     H52229   2.121   1.800   1.104  0.5983 -0.2299  2.7717
  387MOL0     H52230   2.376   1.810   1.098 -0.9088 -1.8100  0.9924
  387MOL0     H52231   2.010   2.831   0.135 -0.8163  0.5007  0.4830
  387MOL0     H52232   2.040   3.024   0.298  0.1104  0.5975 -0.0329
  387MOL0     H52233   2.037   2.882   0.835  0.0051 -0.7042 -0.0217
  387MOL0     H52234   2.079   2.967   1.043  0.0106 -0.6446 -0.1326
  387MOL0     H52235   2.175   3.018   1.211 -0.2095  1.0191 -2.7631
  387MOL0     H52236   2.296   3.108   1.300  0.4855  2.1467  1.4337
  387MOL0     H52237   2.143   3.297   1.335 -1.0930 -0.6729  1.4049
  387MOL0     H52238   2.057   3.157   1.376  1.4828 -1.3600 -0.4426
  387MOL0     H52239   2.030   3.310   1.111  1.5869  2.4895  2.2020
  387MOL0     H52240   1.933   3.337   1.252 -3.1906 -1.3384 -0.0164
  387MOL0     H52241   1.927   3.058   1.177 -0.6035 -0.4904 -1.5172
  387MOL0     H52242   1.875   3.147   1.043  0.4583 -0.3205 -0.4430
  387MOL0     H52243   1.575   3.264   1.333  0.0041  0.3625  0.7430
  387MOL0     H52244   2.374   3.251   0.915 -0.5066 -1.3236  0.8156
  387MOL0     H52245   2.347   3.149   0.673  0.5030 -1.3297 -1.1051
  388MOL0     O52246   3.041   7.728   6.270 -0.1626  0.1860 -1.0126
  388MOL0     C52247   3.112   7.792   6.348  0.5897 -0.6612  0.3185
  388MOL0     O52248   3.095   7.935   6.373  0.5583  1.4086 -0.3782
  388MOL0     C52249   2.964   7.984   6.376  0.4299 -0.1677  0.5425
  388MOL0     C52250   2.949   8.117   6.330  0.5457 -0.2507 -0.0640
  388MOL0     C52251   2.824   8.183   6.338  0.3800  0.3287 -0.4684
  388MOL0     C52252   2.709   8.102   6.379 -0.6180 -0.1403 -0.2403
  388MOL0     O52253   2.588   8.152   6.390  0.5277 -0.0459 -0.0318
  388MOL0     C52254   2.583   8.278   6.465  0.1215  0.2199 -0.5875
  388MOL0     C52255   2.437   8.307   6.520 -1.1354  0.2704  0.3406
  388MOL0     C52256   2.404   8.215   6.640  0.1304  0.1687 -0.2418
  388MOL0     C52257   2.444   8.065   6.624 -0.2338  0.3623 -0.7803
  388MOL0     C52258   2.401   7.990   6.753  0.1082  0.2568 -0.8868
  388MOL0     C52259   2.439   7.840   6.760  0.0051 -0.2055 -0.3475
  388MOL0     C52260   2.587   7.825   6.778 -0.6465 -0.8878  0.5442
  388MOL0     C52261   2.626   7.684   6.765  0.7396  0.0347 -0.3898
  388MOL0     N52262   2.769   7.668   6.752 -0.4432 -0.9407  0.4686
  388MOL0     C52263   2.866   7.735   6.829  0.2265  0.2477 -0.2505
  388MOL0     C52264   2.986   7.689   6.769  1.6417 -0.0009 -0.5384
  388MOL0     C52265   3.129   7.718   6.812 -0.5764  0.4993 -0.3184
  388MOL0     C52266   3.170   7.607   6.919  1.1012 -0.5362  0.6163
  388MOL0     C52267   3.307   7.635   6.981 -0.9972  0.7364  0.2060
  388MOL0     C52268   3.367   7.506   7.041 -0.2552 -0.6087  0.6064
  388MOL0     O52269   3.265   7.454   7.116  0.5428 -0.1803  0.2008
  388MOL0     C52270   3.319   7.399   7.231 -0.7234 -0.7729 -0.0792
  388MOL0     C52271   3.367   7.264   7.234 -0.3625 -0.4956  0.9262
  388MOL0     C52272   3.431   7.205   7.338 -0.4099 -0.2440  0.1954
  388MOL0     C52273   3.481   7.065   7.308  0.0922 -0.2491 -0.2741
  388MOL0     C52274   3.436   7.270   7.456 -0.2008  0.8510 -0.7580
  388MOL0     C52275   3.512   7.227   7.571  0.6196  0.0460 -0.5169
  388MOL0     O52276   3.587   7.304   7.650 -0.2064 -0.5686  0.0598
  388MOL0     C52277   3.637   7.250   7.761  0.2023  0.1027 -0.3225
  388MOL0     C52278   3.757   7.180   7.744 -0.6534 -0.6355 -0.0726
  388MOL0     C52279   3.834   7.147   7.857  0.4905  0.1885 -0.1989
  388MOL0     C52280   3.790   7.179   7.987 -0.1303  0.2437  0.1812
  388MOL0     O52281   3.855   7.140   8.100  0.0512  0.7868 -0.3982
  388MOL0     C52282   3.977   7.205   8.132 -0.2258  0.3697  0.3601
  388MOL0     C52283   3.971   7.357   8.149  0.3386  0.8284  0.6629
  388MOL0     C52284   4.106   7.423   8.198  0.4121  0.7328 -0.7248
  388MOL0     C52285   4.160   7.377   8.335 -0.3890  0.7328 -0.5155
  388MOL0     C52286   4.284   7.461   8.373  0.7076 -0.0214 -0.4123
  388MOL0     C52287   4.375   7.417   8.487 -0.0726 -0.2586  0.6148
  388MOL0     C52288   4.290   7.417   8.622  0.2079  0.1763  0.2541
  388MOL0     C52289   4.226   7.546   8.663 -0.3555  0.2280 -0.9911
  388MOL0    Cl52290   4.185   7.546   8.833 -0.3085  0.5307  0.0472
  388MOL0     C52291   3.667   7.246   7.993  0.3261  0.0887 -0.1742
  388MOL0     C52292   3.592   7.293   7.879 -0.5257  0.4153 -0.3802
  388MOL0     O52293   3.481   7.110   7.593 -0.2964 -0.1468  0.0460
  388MOL0     C52294   3.391   7.402   7.466  0.2748 -0.6956 -0.2847
  388MOL0     C52295   3.332   7.469   7.353 -1.5557 -0.0599 -0.0860
  388MOL0     N52296   2.957   7.621   6.654  1.1510  0.6976  0.1942
  388MOL0     N52297   2.832   7.601   6.653  0.1435 -0.4244 -0.2099
  388MOL0     C52298   2.732   7.971   6.428  0.2463  0.6852  0.0070
  388MOL0     C52299   2.852   7.910   6.421 -0.7140 -0.3565 -0.1638
  388MOL0     C52300   3.241   7.750   6.400  0.1139 -0.1606 -0.5468
  388MOL0     C52301   3.317   7.633   6.353 -0.0215  0.1882 -0.6994
  388MOL0     C52302   3.444   7.600   6.402  0.3715 -0.8474 -0.4842
  388MOL0     C52303   3.498   7.671   6.508  0.2398 -0.0713 -0.0439
  388MOL0     O52304   3.624   7.628   6.557 -0.8951 -0.2061  0.2768
  388MOL0     C52305   3.716   7.736   6.552  0.3690 -0.4471 -0.3995
  388MOL0     C52306   3.784   7.755   6.684  0.3433  0.1551  0.0944
  388MOL0     C52307   3.881   7.634   6.696  0.1470 -0.3938  0.5980
  388MOL0     C52308   4.021   7.677   6.742  0.4386 -0.0453  0.1240
  388MOL0     C52309   3.994   7.747   6.867 -0.0692 -0.3499 -0.2508
  388MOL0     C52310   3.982   7.812   6.973  1.2968  0.5270  0.2535
  388MOL0     C52311   3.431   7.781   6.563  0.5000  0.3333 -0.7209
  388MOL0     C52312   3.304   7.817   6.516  0.5924 -0.3817 -0.0891
  388MOL0     H52313   3.028   8.161   6.272 -0.4052 -4.2379 -5.1154
  388MOL0     H52314   2.816   8.280   6.290  2.4994 -1.4153 -4.9463
  388MOL0     H52315   2.646   8.277   6.554 -0.2947 -1.1521 -0.2754
  388MOL0     H52316   2.613   8.356   6.395  0.0117  0.1952 -0.6616
  388MOL0     H52317   2.433   8.411   6.553 -0.3015  0.7338 -0.9364
  388MOL0     H52318   2.359   8.300   6.444 -2.3888 -2.3147  1.7092
  388MOL0     H52319   2.446   8.242   6.737 -1.6764 -3.4978  1.8006
  388MOL0     H52320   2.296   8.219   6.654 -0.1446 -0.4907 -1.9600
  388MOL0     H52321   2.402   8.021   6.534  3.2449  0.8097 -2.8241
  388MOL0     H52322   2.554   8.062   6.626 -0.2325 -0.3387  2.0527
  388MOL0     H52323   2.438   8.036   6.845  1.0534  0.3582 -1.3044
  388MOL0     H52324   2.292   7.997   6.747  0.1899  1.2982 -1.3282
  388MOL0     H52325   2.388   7.806   6.850  0.7620 -0.5527 -0.0414
  388MOL0     H52326   2.393   7.788   6.675 -2.1920  2.3631 -0.8655
  388MOL0     H52327   2.641   7.865   6.693 -2.6592  3.1927  0.9276
  388MOL0     H52328   2.624   7.867   6.872 -2.5782 -1.0233  1.4271
  388MOL0     H52329   2.574   7.642   6.678 -0.5550  1.3727 -0.2941
  388MOL0     H52330   2.591   7.634   6.856 -2.5466  2.6191 -0.0379
  388MOL0     H52331   2.862   7.798   6.917  3.7210 -0.1916  0.3654
  388MOL0     H52332   3.204   7.703   6.733  2.2531 -0.3494  2.3339
  388MOL0     H52333   3.125   7.815   6.861 -1.5598  0.0936  0.4346
  388MOL0     H52334   3.169   7.506   6.876  0.0732 -1.0230  1.7225
  388MOL0     H52335   3.089   7.602   6.992  1.5608 -1.2407  1.0852
  388MOL0     H52336   3.299   7.714   7.056  0.2810  0.1703  0.9815
  388MOL0     H52337   3.379   7.674   6.908 -2.7376  1.6810 -1.0645
  388MOL0     H52338   3.463   7.523   7.092 -2.2644 -0.2240  4.6628
  388MOL0     H52339   3.394   7.448   6.952 -1.5524  0.1861 -0.3501
  388MOL0     H52340   3.337   7.215   7.142 -1.0739  2.1564 -0.3547
  388MOL0     H52341   3.400   6.992   7.302  0.4788 -0.6097 -1.2683
  388MOL0     H52342   3.540   7.076   7.217 -0.2768  4.2874 -0.1806
  388MOL0     H52343   3.558   7.032   7.379  0.5056 -1.1034 -1.1067
  388MOL0     H52344   3.787   7.166   7.640 -0.1311  1.5553 -0.2765
  388MOL0     H52345   3.927   7.092   7.850  0.9847 -0.0187  4.4353
  388MOL0     H52346   4.011   7.161   8.227 -0.6307 -0.7179  0.0207
  388MOL0     H52347   4.059   7.180   8.064  0.3786 -1.2227  1.6100
  388MOL0     H52348   3.954   7.403   8.051  0.3129  0.2597  0.3974
  388MOL0     H52349   3.895   7.395   8.218  0.8501  0.3981  1.4837
  388MOL0     H52350   4.094   7.530   8.218  3.3622  0.7178  1.7448
  388MOL0     H52351   4.178   7.403   8.118 -1.2354 -3.4092 -1.4358
  388MOL0     H52352   4.090   7.376   8.419  0.9911  1.5040  0.6920
  388MOL0     H52353   4.202   7.276   8.328 -0.2689  0.8803 -3.1037
  388MOL0     H52354   4.247   7.564   8.366 -1.4130 -0.7861 -1.3464
  388MOL0     H52355   4.344   7.455   8.281 -0.2013  1.8305 -1.1844
  388MOL0     H52356   4.418   7.317   8.471  2.7301  0.1790  4.1001
  388MOL0     H52357   4.460   7.485   8.500  1.0437 -0.6490 -3.3057
  388MOL0     H52358   4.365   7.407   8.700 -0.0522  0.0364  0.4866
  388MOL0     H52359   4.230   7.326   8.632  2.8463 -1.8792 -1.1200
  388MOL0     H52360   4.127   7.538   8.618 -0.8033 -2.8133  0.2923
  388MOL0     H52361   4.276   7.640   8.636  1.5320 -0.9367 -1.7251
  388MOL0     H52362   3.640   7.278   8.093  1.2761 -2.7310  1.0773
  388MOL0     H52363   3.511   7.364   7.882  0.4665  1.5702  0.1455
  388MOL0     H52364   3.399   7.455   7.561  1.4647 -2.0146  0.3986
  388MOL0     H52365   3.291   7.569   7.354 -0.2380  0.5033 -0.7865
  388MOL0     H52366   2.648   7.908   6.459  2.0939 -0.1162  4.0008
  388MOL0     H52367   2.860   7.804   6.444  0.5998 -0.1357  0.4879
  388MOL0     H52368   3.293   7.574   6.264 -1.7508 -0.6357  0.2424
  388MOL0     H52369   3.499   7.511   6.374 -2.0833 -2.5175 -0.3105
  388MOL0     H52370   3.779   7.726   6.463  1.0879 -1.4363  0.1937
  388MOL0     H52371   3.665   7.830   6.530  0.9140 -0.2373 -0.7861
  388MOL0     H52372   3.708   7.753   6.762 -0.0935  3.2254 -0.1150
  388MOL0     H52373   3.837   7.851   6.686  1.8458 -0.6164 -0.8526
  388MOL0     H52374   3.898   7.589   6.598  0.4883 -0.3801  0.6495
  388MOL0     H52375   3.856   7.556   6.768  1.6956 -0.6884  0.8342
  388MOL0     H52376   4.070   7.751   6.678 -0.1240  2.4346  2.3579
  388MOL0     H52377   4.082   7.588   6.761  1.5977  0.2967 -1.7180
  388MOL0     H52378   3.963   7.877   7.056  0.1984  3.2652 -1.9855
  388MOL0     H52379   3.473   7.803   6.660  0.9224  1.9848 -1.2519
  388MOL0     H52380   3.250   7.898   6.563  1.2514 -0.9174  1.6596
  389MOL0     O52381   3.038   4.838  10.811 -0.2104  0.4913 -0.2741
  389MOL0     C52382   3.056   4.711  10.788  1.0130 -0.6842  0.3051
  389MOL0     O52383   2.963   4.609  10.818  0.1271  0.2236  0.2310
  389MOL0     C52384   2.829   4.637  10.849 -0.8378 -0.8162 -0.5684
  389MOL0     C52385   2.767   4.539  10.928  0.6800 -0.1294 -0.6853
  389MOL0     C52386   2.639   4.557  10.977 -0.1830  0.0450 -0.0031
  389MOL0     C52387   2.560   4.663  10.935 -0.2126  0.8198  0.8181
  389MOL0     O52388   2.442   4.684  11.007 -0.1641 -0.1402 -0.8891
  389MOL0     C52389   2.325   4.685  10.926 -0.6575 -0.0224  0.3372
  389MOL0     C52390   2.252   4.548  10.886 -0.3599  0.3588 -0.2948
  389MOL0     C52391   2.186   4.474  11.010 -0.6681  0.2670  0.7374
  389MOL0     C52392   2.091   4.362  10.971  0.4254  0.2882  0.3603
  389MOL0     C52393   2.061   4.271  11.085  0.1717  0.7261 -0.6536
  389MOL0     C52394   1.984   4.157  11.033 -0.8749  0.5604  0.5877
  389MOL0     C52395   1.974   4.032  11.130 -0.9871 -0.4697 -0.1073
  389MOL0     C52396   1.840   3.951  11.109  0.3495  0.1084 -0.4175
  389MOL0     N52397   1.718   4.035  11.115 -0.5664 -0.0969  0.3093
  389MOL0     C52398   1.607   4.013  11.045  1.2317  0.7280 -0.0636
  389MOL0     C52399   1.534   4.128  11.074 -0.2157  0.7131  0.2199
  389MOL0     C52400   1.391   4.160  11.023 -0.2171  0.4552  0.2858
  389MOL0     C52401   1.319   4.025  10.981 -0.7568  1.0439  0.1371
  389MOL0     C52402   1.165   4.029  10.977 -0.3498 -0.6349  0.2247
  389MOL0     C52403   1.118   3.910  10.892  0.0361  0.4972 -0.3511
  389MOL0     O52404   1.154   3.931  10.758 -0.1695  0.4785  0.5585
  389MOL0     C52405   1.105   3.860  10.659  0.6437  0.1961 -0.3772
  389MOL0     C52406   1.047   3.930  10.559  0.1326 -0.9191 -1.2610
  389MOL0     C52407   0.992   3.866  10.447 -0.2426  0.4429 -0.0726
  389MOL0     C52408   0.930   3.969  10.350 -0.1738 -0.0668 -0.4486
  389MOL0     C52409   0.980   3.729  10.443  0.3508 -0.3127  0.2210
  389MOL0     C52410   0.909   3.654  10.329  0.1819 -0.4754  0.4434
  389MOL0     O52411   0.824   3.727  10.251 -0.1346 -0.2503  0.0807
  389MOL0     C52412   0.729   3.671  10.173 -0.5124  0.2137 -0.2271
  389MOL0     C52413   0.758   3.553  10.105 -0.0370 -0.3714  1.0363
  389MOL0     C52414   0.661   3.505  10.009 -0.8747  0.4237 -1.0918
  389MOL0     C52415   0.543   3.569   9.988  0.3922  0.1272 -0.1362
  389MOL0     O52416   0.440   3.525   9.911 -0.5888  0.3368 -0.2136
  389MOL0     C52417   0.449   3.391   9.870 -0.8116 -0.2984  0.7088
  389MOL0     C52418   0.311   3.357   9.806 -0.5051 -0.4459  0.0180
  389MOL0     C52419   0.298   3.420   9.680  0.4693 -0.3928 -0.0386
  389MOL0     C52420   0.369   3.348   9.559 -0.5522  0.3898  0.3181
  389MOL0     C52421   0.410   3.450   9.454 -0.6950  0.2842  0.4253
  389MOL0     C52422   0.465   3.373   9.328 -0.9345  0.4690  0.0837
  389MOL0     C52423   0.489   3.472   9.207 -0.5800  0.1297 -0.4951
  389MOL0     C52424   0.498   3.396   9.074  0.0816 -0.6035 -0.1924
  389MOL0    Cl52425   0.544   3.507   8.935  0.1954 -0.0712 -0.1047
  389MOL0     C52426   0.527   3.693  10.049 -0.4727  0.9386  0.3337
  389MOL0     C52427   0.615   3.742  10.136  0.2239 -0.0663 -0.6981
  389MOL0     O52428   0.926   3.531  10.324 -0.0167  0.4447  0.1073
  389MOL0     C52429   1.031   3.657  10.553 -0.2462 -0.4989  1.0506
  389MOL0     C52430   1.096   3.721  10.656  0.3181  0.4843  0.1126
  389MOL0     N52431   1.607   4.222  11.146  0.5187  0.1891  0.8053
  389MOL0     N52432   1.713   4.161  11.181  0.0976 -0.2057  0.2019
  389MOL0     C52433   2.618   4.757  10.851 -0.5115  0.3737  0.7929
  389MOL0     C52434   2.752   4.748  10.807  0.0709  0.8281  0.8477
  389MOL0     C52435   3.178   4.675  10.727 -1.2347  0.7796  0.5421
  389MOL0     C52436   3.202   4.542  10.693  0.3643 -0.2817 -0.2070
  389MOL0     C52437   3.313   4.511  10.618  0.4058 -0.3011  0.3339
  389MOL0     C52438   3.419   4.597  10.593  0.2377 -0.3038 -0.2920
  389MOL0     O52439   3.525   4.541  10.521  0.4443 -0.1982  0.4687
  389MOL0     C52440   3.658   4.575  10.553 -0.2014 -0.2487 -0.1960
  389MOL0     C52441   3.703   4.493  10.680  0.7872  0.6412  0.8211
  389MOL0     C52442   3.755   4.350  10.644  0.2458  1.3128  0.3651
  389MOL0     C52443   3.852   4.307  10.755 -0.5929 -0.0907 -0.3784
  389MOL0     C52444   3.928   4.187  10.719 -0.0323  0.1492 -0.1103
  389MOL0     C52445   3.990   4.084  10.695  0.2344  0.3759  0.7938
  389MOL0     C52446   3.406   4.742  10.626 -0.9590  1.1054 -0.8731
  389MOL0     C52447   3.282   4.774  10.696 -0.0683  1.0351 -0.8497
  389MOL0     H52448   2.831   4.455  10.953 -1.8653 -1.3198  2.5565
  389MOL0     H52449   2.583   4.485  11.036 -0.0430  1.7978  2.4000
  389MOL0     H52450   2.251   4.750  10.974 -2.1475 -2.5567  1.6717
  389MOL0     H52451   2.357   4.729  10.831 -0.0542  0.8946  0.9536
  389MOL0     H52452   2.174   4.573  10.813 -0.9075 -1.6254 -0.4734
  389MOL0     H52453   2.312   4.480  10.825 -2.0120  0.0971 -1.7160
  389MOL0     H52454   2.268   4.434  11.070  0.0631  1.4839  0.5859
  389MOL0     H52455   2.124   4.545  11.065  0.8989  0.3959  2.4312
  389MOL0     H52456   1.991   4.396  10.943  0.0108 -0.9149  0.3180
  389MOL0     H52457   2.142   4.308  10.891  3.0364  1.8463  0.8687
  389MOL0     H52458   2.147   4.216  11.124 -1.9717 -0.1580  3.4119
  389MOL0     H52459   2.006   4.315  11.169 -2.4491 -1.4576 -1.0495
  389MOL0     H52460   1.886   4.184  10.995 -1.1013  2.0880  2.1388
  389MOL0     H52461   2.026   4.123  10.938 -1.9126  1.2130 -0.1250
  389MOL0     H52462   2.061   3.967  11.115  0.9264  2.0152 -0.4015
  389MOL0     H52463   1.983   4.070  11.232 -2.6563 -0.6618  0.1256
  389MOL0     H52464   1.835   3.871  11.184 -0.2744  1.8344  1.4922
  389MOL0     H52465   1.834   3.899  11.013 -3.0395 -2.5713  0.9993
  389MOL0     H52466   1.574   3.923  10.996 -1.6630  0.5919  1.8786
  389MOL0     H52467   1.329   4.196  11.105 -1.6759  1.2610 -1.1219
  389MOL0     H52468   1.404   4.237  10.947 -1.6587  0.9316  0.4884
  389MOL0     H52469   1.333   3.952  11.062 -1.8437  1.0789  0.3648
  389MOL0     H52470   1.368   3.986  10.892  1.9515  0.0872  1.8868
  389MOL0     H52471   1.137   4.131  10.948 -1.1492  0.0704  3.1561
  389MOL0     H52472   1.112   4.027  11.072 -0.8123  0.0829 -0.0062
  389MOL0     H52473   1.013   3.896  10.922 -0.0829 -1.4398 -1.5297
  389MOL0     H52474   1.149   3.816  10.938 -1.4707 -0.2459 -0.7854
  389MOL0     H52475   1.048   4.038  10.571 -0.4395 -1.0660  0.4661
  389MOL0     H52476   0.963   4.072  10.368  0.0831 -0.4022  1.1892
  389MOL0     H52477   0.961   3.947  10.248 -0.0112 -3.2649  0.1774
  389MOL0     H52478   0.822   3.959  10.365  0.0921 -0.7477  1.1364
  389MOL0     H52479   0.841   3.487  10.125  0.5981  0.0515 -0.1095
  389MOL0     H52480   0.688   3.411   9.963  1.3114 -0.3830  1.6146
  389MOL0     H52481   0.524   3.379   9.791 -0.6021  0.2941  0.8165
  389MOL0     H52482   0.471   3.323   9.953 -3.9846  0.1751  2.0657
  389MOL0     H52483   0.310   3.248   9.799  4.5070 -0.6442 -1.9917
  389MOL0     H52484   0.225   3.384   9.868  0.7790  0.4997  1.4687
  389MOL0     H52485   0.334   3.523   9.681 -0.5276 -0.0313  0.0798
  389MOL0     H52486   0.190   3.435   9.668  0.8520  2.5577 -0.4047
  389MOL0     H52487   0.464   3.306   9.595  1.1157  1.6289 -2.3016
  389MOL0     H52488   0.304   3.269   9.521 -2.9387  1.5548  1.7453
  389MOL0     H52489   0.498   3.505   9.489  1.6451 -3.3152  0.7529
  389MOL0     H52490   0.322   3.513   9.441 -1.0326 -0.3091 -0.1968
  389MOL0     H52491   0.563   3.331   9.349 -0.4654  1.6998  0.4359
  389MOL0     H52492   0.396   3.290   9.309 -0.8145  0.8352 -2.3692
  389MOL0     H52493   0.584   3.518   9.233  0.1002 -1.5520  0.1243
  389MOL0     H52494   0.408   3.546   9.199 -2.5689 -1.9115 -0.4216
  389MOL0     H52495   0.406   3.341   9.052 -1.0643  1.7830 -1.9058
  389MOL0     H52496   0.574   3.318   9.075  0.3270 -0.3667 -0.0269
  389MOL0     H52497   0.438   3.749  10.024 -0.6494  0.5546  0.0907
  389MOL0     H52498   0.597   3.844  10.171  0.3784 -0.2800  0.0225
  389MOL0     H52499   0.999   3.555  10.574  0.4819 -0.5918  1.7944
  389MOL0     H52500   1.114   3.659  10.743 -1.6931 -2.8265 -1.6366
  389MOL0     H52501   2.560   4.847  10.837 -0.5389  0.3011  0.4252
  389MOL0     H52502   2.800   4.824  10.747 -0.0796  0.5820  0.4138
  389MOL0     H52503   3.123   4.468  10.700 -0.6410  0.6484 -1.2255
  389MOL0     H52504   3.317   4.422  10.557  2.6414  0.0310 -0.0820
  389MOL0     H52505   3.720   4.556  10.466 -1.7123 -1.4871 -1.0481
  389MOL0     H52506   3.675   4.676  10.592  2.9885 -2.0099  3.7180
  389MOL0     H52507   3.620   4.481  10.750  0.6160  0.2490  0.5492
  389MOL0     H52508   3.786   4.547  10.727  1.8281 -1.5093  1.6005
  389MOL0     H52509   3.797   4.343  10.544 -3.0118  0.8574 -1.0977
  389MOL0     H52510   3.667   4.285  10.653  1.5939 -0.5625  0.5999
  389MOL0     H52511   3.803   4.275  10.847  2.0573 -1.8630  0.5520
  389MOL0     H52512   3.924   4.390  10.761  0.8582 -1.2873 -0.7781
  389MOL0     H52513   4.042   3.992  10.676 -2.6695 -1.7863  2.4702
  389MOL0     H52514   3.482   4.814  10.599  0.7082 -0.0913  0.4041
  389MOL0     H52515   3.268   4.879  10.718  2.6189  1.1174  0.8880
  390MOL0     O52516   6.939   4.823   0.749  0.0250  0.4914 -0.2394
  390MOL0     C52517   6.826   4.856   0.788 -0.5052 -0.3674  0.0763
  390MOL0     O52518   6.741   4.783   0.869  0.2940  0.8521 -0.2107
  390MOL0     C52519   6.739   4.640   0.890  0.2151 -0.2025  0.7305
  390MOL0     C52520   6.836   4.549   0.836  1.6541  0.2327  0.3890
  390MOL0     C52521   6.826   4.411   0.858 -0.6339 -0.2993 -0.4040
  390MOL0     C52522   6.713   4.359   0.924 -0.1990  0.1269 -0.3664
  390MOL0     O52523   6.685   4.226   0.963 -0.4572 -1.0407  0.7362
  390MOL0     C52524   6.757   4.123   0.890  0.3451 -0.5326  0.2441
  390MOL0     C52525   6.750   3.997   0.970 -0.0781  0.0377 -0.3613
  390MOL0     C52526   6.809   3.876   0.888 -0.3105  0.3730 -1.1861
  390MOL0     C52527   6.859   3.766   0.979 -0.3883  1.5280  0.2898
  390MOL0     C52528   6.960   3.666   0.916  0.4654 -0.3399 -0.5291
  390MOL0     C52529   6.887   3.570   0.823 -0.7447  0.0462 -0.6797
  390MOL0     C52530   6.990   3.483   0.759  0.8256  0.2774  0.4389
  390MOL0     C52531   6.928   3.366   0.693 -0.4903  0.7296  0.3844
  390MOL0     N52532   7.030   3.277   0.646  0.5411  0.2804 -0.8269
  390MOL0     C52533   6.992   3.146   0.625  0.3718 -0.3093  0.0319
  390MOL0     C52534   7.101   3.093   0.572  0.9496 -0.2324  1.0358
  390MOL0     C52535   7.109   2.956   0.532 -0.3284  0.3098 -0.1949
  390MOL0     C52536   7.049   2.855   0.635  0.7491  0.2580 -0.1784
  390MOL0     C52537   7.128   2.726   0.614  0.9109 -0.6180 -0.0127
  390MOL0     C52538   7.068   2.613   0.696  0.1548  0.6187  0.0880
  390MOL0     O52539   7.149   2.486   0.682  0.6944  0.1457  0.3602
  390MOL0     C52540   7.125   2.384   0.775 -1.6378 -0.7027 -1.0120
  390MOL0     C52541   7.037   2.394   0.878  0.3963  0.3646  0.2483
  390MOL0     C52542   7.012   2.287   0.967  0.5958 -0.2575 -0.2085
  390MOL0     C52543   6.909   2.296   1.072  0.2454  0.7193 -0.3437
  390MOL0     C52544   7.081   2.161   0.945 -0.3082 -0.0620  0.6476
  390MOL0     C52545   7.049   2.036   1.003 -0.4032  1.1317  0.2531
  390MOL0     O52546   7.160   1.955   1.025  0.5508  1.4247 -0.9680
  390MOL0     C52547   7.161   1.832   1.098 -0.7080  0.5163 -0.1276
  390MOL0     C52548   7.291   1.778   1.117  0.2257 -0.8097 -0.7978
  390MOL0     C52549   7.318   1.668   1.200 -0.4885 -0.1738 -0.1462
  390MOL0     C52550   7.215   1.593   1.255  0.0659 -0.5228  0.5589
  390MOL0     O52551   7.249   1.474   1.325 -0.4015  0.1767  0.2782
  390MOL0     C52552   7.145   1.416   1.416  0.1135 -0.2540 -0.6509
  390MOL0     C52553   7.205   1.302   1.484  0.0660 -0.6686  0.1650
  390MOL0     C52554   7.234   1.184   1.391 -0.7059 -1.0369 -0.0582
  390MOL0     C52555   7.266   1.055   1.475  0.3864  0.2256 -0.1958
  390MOL0     C52556   7.400   1.061   1.560  1.0066 -0.2773  0.9471
  390MOL0     C52557   7.440   0.919   1.615  0.1190  0.5917  0.0728
  390MOL0     C52558   7.321   0.844   1.682 -0.7304 -0.4879  0.5587
  390MOL0     C52559   7.377   0.735   1.770 -0.4595 -0.6015 -0.7263
  390MOL0    Cl52560   7.486   0.798   1.903  0.1473 -0.4412  0.3489
  390MOL0     C52561   7.084   1.645   1.238  0.2423  0.6888  0.0637
  390MOL0     C52562   7.057   1.756   1.157 -0.1716  0.2096 -0.1963
  390MOL0     O52563   6.935   2.008   1.037 -0.0748 -0.2386  0.3551
  390MOL0     C52564   7.194   2.166   0.861  0.3154  0.3891  0.1366
  390MOL0     C52565   7.218   2.275   0.774  0.0331  0.4444  0.3351
  390MOL0     N52566   7.201   3.189   0.555 -0.3667 -0.0065  0.3671
  390MOL0     N52567   7.161   3.295   0.604  0.8731  0.0197 -0.2090
  390MOL0     C52568   6.626   4.453   0.986  0.3577 -0.0902  0.4633
  390MOL0     C52569   6.638   4.589   0.963 -0.2761 -0.1097  0.6800
  390MOL0     C52570   6.787   4.989   0.754 -0.0499 -0.0979  0.7090
  390MOL0     C52571   6.655   5.030   0.788 -0.2607  0.2230  0.1764
  390MOL0     C52572   6.616   5.156   0.739  0.4937 -0.7896  0.0055
  390MOL0     C52573   6.704   5.233   0.666 -0.2399 -0.7702 -0.7474
  390MOL0     O52574   6.644   5.350   0.614 -0.6259  0.1912  0.2950
  390MOL0     C52575   6.715   5.419   0.505  0.3153  0.4259  0.0261
  390MOL0     C52576   6.697   5.341   0.379  0.8025  0.5149  0.9371
  390MOL0     C52577   6.554   5.298   0.358  0.8144  0.6813  0.0498
  390MOL0     C52578   6.524   5.274   0.211 -0.3695  0.2944  0.2276
  390MOL0     C52579   6.500   5.395   0.132  0.0742  0.1827  0.2037
  390MOL0     C52580   6.470   5.486   0.058  0.0128 -0.4236 -0.9043
  390MOL0     C52581   6.838   5.203   0.653 -0.2907 -0.8335  0.4417
  390MOL0     C52582   6.876   5.081   0.691 -0.6540 -0.1451 -0.2929
  390MOL0     H52583   6.923   4.585   0.781  1.4157 -0.3875 -0.4054
  390MOL0     H52584   6.903   4.354   0.807  0.4134  2.0914 -1.6489
  390MOL0     H52585   6.703   4.119   0.795 -3.0987  1.8831  1.8861
  390MOL0     H52586   6.861   4.151   0.870 -0.2490  3.1095  1.3861
  390MOL0     H52587   6.788   4.013   1.071  1.8834  0.3289 -1.1057
  390MOL0     H52588   6.646   3.970   0.988  0.2398 -2.4532 -1.6699
  390MOL0     H52589   6.736   3.837   0.817 -0.8367 -0.1148 -0.3983
  390MOL0     H52590   6.894   3.919   0.834  0.3594  0.8322  0.1816
  390MOL0     H52591   6.909   3.814   1.063  1.3039  1.3755 -0.5977
  390MOL0     H52592   6.765   3.718   1.010 -0.7584  2.1292  0.1182
  390MOL0     H52593   7.036   3.728   0.868  0.8679  1.4066  2.1217
  390MOL0     H52594   7.003   3.602   0.994 -0.3502  1.5865  1.6194
  390MOL0     H52595   6.835   3.501   0.890  3.3882  1.4432  4.6455
  390MOL0     H52596   6.827   3.624   0.750  1.7444  0.6349 -2.4174
  390MOL0     H52597   7.042   3.549   0.689 -1.2541 -0.0114 -1.5185
  390MOL0     H52598   7.062   3.454   0.835 -0.3005 -0.3723  1.2960
  390MOL0     H52599   6.878   3.399   0.601 -2.2877 -0.2507  0.9576
  390MOL0     H52600   6.856   3.316   0.759 -0.6917 -0.5206 -0.7522
  390MOL0     H52601   6.894   3.099   0.618  1.5956 -2.8060 -2.3994
  390MOL0     H52602   7.055   2.944   0.437 -1.0674 -1.9414  0.4378
  390MOL0     H52603   7.215   2.933   0.518  0.0720  2.4096 -0.8981
  390MOL0     H52604   6.943   2.835   0.618  1.2867 -1.9858 -1.4171
  390MOL0     H52605   7.060   2.889   0.738 -0.9162  0.7261 -0.1212
  390MOL0     H52606   7.226   2.750   0.657  0.2176  0.6568  0.9239
  390MOL0     H52607   7.135   2.702   0.508 -1.7293  0.2838 -0.4583
  390MOL0     H52608   6.962   2.595   0.673  0.5186  0.3855 -1.5643
  390MOL0     H52609   7.076   2.648   0.799 -2.2455  1.2984  0.0993
  390MOL0     H52610   6.975   2.483   0.877 -0.9428 -0.5270 -1.2774
  390MOL0     H52611   6.941   2.234   1.156  2.9369  0.6566 -1.3097
  390MOL0     H52612   6.893   2.400   1.103  1.2133  0.8171 -0.1369
  390MOL0     H52613   6.819   2.260   1.022  1.1309  0.8653 -2.0970
  390MOL0     H52614   7.364   1.843   1.071 -2.7817  2.0167 -1.9994
  390MOL0     H52615   7.423   1.645   1.211 -0.8619 -2.3012 -0.6120
  390MOL0     H52616   7.128   1.495   1.490 -0.2677 -0.2700 -0.7174
  390MOL0     H52617   7.048   1.395   1.370 -1.4995  3.2661  0.7778
  390MOL0     H52618   7.296   1.325   1.540 -1.3982 -1.5777  3.1418
  390MOL0     H52619   7.131   1.276   1.560  0.7340  2.0936  1.8924
  390MOL0     H52620   7.323   1.202   1.331  0.3389  0.0301  1.7117
  390MOL0     H52621   7.150   1.168   1.322 -1.5047  1.5947  0.1649
  390MOL0     H52622   7.178   1.021   1.530  0.7732 -0.4696  0.0230
  390MOL0     H52623   7.282   0.976   1.401 -0.5939  0.6372 -0.8636
  390MOL0     H52624   7.377   1.123   1.647  1.5491 -0.8548  1.5144
  390MOL0     H52625   7.489   1.110   1.520  1.6674 -2.0556  0.1123
  390MOL0     H52626   7.492   0.850   1.548 -1.3949 -2.9967  2.2686
  390MOL0     H52627   7.510   0.952   1.692  1.3902 -2.3573  0.3092
  390MOL0     H52628   7.253   0.802   1.607  1.5489 -1.3353 -1.1724
  390MOL0     H52629   7.266   0.912   1.747  0.3061  1.4013 -0.4489
  390MOL0     H52630   7.433   0.655   1.722 -0.0065 -0.5328 -0.3245
  390MOL0     H52631   7.300   0.669   1.810 -0.9750 -2.5132 -4.4924
  390MOL0     H52632   6.992   1.599   1.275  0.0056  1.0682 -0.0532
  390MOL0     H52633   6.954   1.788   1.148 -0.6213 -1.1458 -0.1956
  390MOL0     H52634   7.273   2.092   0.856  0.1298 -0.4249  4.8401
  390MOL0     H52635   7.305   2.276   0.709  1.0538  2.6067  1.6220
  390MOL0     H52636   6.537   4.411   1.033 -1.7711  1.2053 -2.1722
  390MOL0     H52637   6.556   4.647   1.004 -2.4129 -2.5333  0.0564
  390MOL0     H52638   6.581   4.964   0.832  2.1479 -2.1110  0.9927
  390MOL0     H52639   6.520   5.198   0.764  1.9106  1.5073  2.1051
  390MOL0     H52640   6.674   5.520   0.500 -0.6378  0.1442  1.4393
  390MOL0     H52641   6.823   5.431   0.521  0.3689  0.8939 -0.6813
  390MOL0     H52642   6.756   5.249   0.373  0.0746  0.0741  0.2605
  390MOL0     H52643   6.721   5.408   0.296 -2.6536  0.4353 -0.3170
  390MOL0     H52644   6.482   5.369   0.400  0.8732 -0.1381  1.5759
  390MOL0     H52645   6.541   5.205   0.414  1.9774  0.4114 -0.1045
  390MOL0     H52646   6.433   5.212   0.208  0.5174 -1.1912  1.8618
  390MOL0     H52647   6.600   5.210   0.165  0.3923  2.5642 -1.8545
  390MOL0     H52648   6.451   5.573  -0.001  0.6687  0.9678  0.8464
  390MOL0     H52649   6.906   5.279   0.616  1.3502 -0.3612  4.0485
  390MOL0     H52650   6.978   5.051   0.668 -0.1319 -0.9019  2.5849
  391MOL0     O52651   9.362   7.928   0.675  0.5852 -0.1427  0.5463
  391MOL0     C52652   9.314   7.981   0.775  0.1352  0.2186 -0.0528
  391MOL0     O52653   9.186   8.036   0.777  0.3415  0.0306 -0.4358
  391MOL0     C52654   9.105   8.013   0.675 -0.3177  0.7405  0.8208
  391MOL0     C52655   9.049   8.120   0.604 -0.7028 -1.2498  0.6263
  391MOL0     C52656   8.954   8.103   0.499 -0.0752 -0.5099 -0.2671
  391MOL0     C52657   8.921   7.972   0.478  0.5955 -0.4368  0.2532
  391MOL0     O52658   8.818   7.959   0.393 -0.6991 -0.2009 -0.8757
  391MOL0     C52659   8.708   7.878   0.426  0.6319  0.3255 -0.8963
  391MOL0     C52660   8.570   7.961   0.435 -0.7359  0.5395  0.3570
  391MOL0     C52661   8.450   7.868   0.429 -0.3477  0.0584  0.0903
  391MOL0     C52662   8.451   7.779   0.558 -0.0585  0.4791  0.0750
  391MOL0     C52663   8.341   7.679   0.574 -0.1416 -0.8073 -0.4754
  391MOL0     C52664   8.358   7.537   0.527 -0.3936 -0.4908 -0.0215
  391MOL0     C52665   8.412   7.535   0.382 -0.6133  0.8352  0.1061
  391MOL0     C52666   8.456   7.389   0.345 -0.1673  1.3065 -0.2149
  391MOL0     N52667   8.355   7.274   0.359 -0.1262 -0.6116  0.4509
  391MOL0     C52668   8.247   7.254   0.279  0.2367  0.2002 -0.2689
  391MOL0     C52669   8.206   7.125   0.301 -1.0195 -0.0791  0.0716
  391MOL0     C52670   8.074   7.062   0.254  0.2720  0.9193 -0.4913
  391MOL0     C52671   7.988   7.002   0.368  0.3366 -0.3095 -0.2806
  391MOL0     C52672   7.895   6.896   0.312  0.1861  0.1758 -0.3326
  391MOL0     C52673   7.789   6.829   0.402 -0.1137  0.3220 -0.1936
  391MOL0     O52674   7.857   6.747   0.494 -1.1562  0.4932 -0.2845
  391MOL0     C52675   7.783   6.665   0.583  0.0013  0.5654 -0.7615
  391MOL0     C52676   7.643   6.655   0.584  0.2760 -0.8264 -0.2915
  391MOL0     C52677   7.574   6.582   0.680  0.2816  0.4544  0.3046
  391MOL0     C52678   7.421   6.594   0.689  1.1866  0.1432  0.2443
  391MOL0     C52679   7.648   6.502   0.770 -1.0985  0.0733 -0.5324
  391MOL0     C52680   7.598   6.408   0.875  0.0691 -0.1541 -0.6521
  391MOL0     O52681   7.680   6.349   0.962 -0.6165 -0.0260  0.1865
  391MOL0     C52682   7.645   6.271   1.066  0.2422  1.6682 -0.5194
  391MOL0     C52683   7.589   6.140   1.037  0.3691 -0.5533  0.1785
  391MOL0     C52684   7.569   6.051   1.144 -0.0504 -0.4569 -0.8389
  391MOL0     C52685   7.619   6.086   1.274 -0.1763 -0.2230 -0.3514
  391MOL0     O52686   7.593   6.005   1.385  0.4948 -0.1719  0.5723
  391MOL0     C52687   7.608   5.862   1.363  0.4993 -0.8097 -0.5896
  391MOL0     C52688   7.742   5.823   1.290 -0.4133 -0.8985 -0.7085
  391MOL0     C52689   7.756   5.672   1.273  0.7503 -0.7088  0.3817
  391MOL0     C52690   7.891   5.650   1.209 -0.6175  0.6814 -0.1121
  391MOL0     C52691   7.914   5.496   1.203 -0.0105  0.4585 -0.1524
  391MOL0     C52692   8.063   5.444   1.198 -0.6666 -0.1228 -0.4069
  391MOL0     C52693   8.136   5.507   1.080 -0.8314  0.2793  0.7298
  391MOL0     C52694   8.288   5.501   1.099 -0.0897  0.0693  0.6604
  391MOL0    Cl52695   8.364   5.532   0.933  0.2564 -0.1372 -0.0418
  391MOL0     C52696   7.666   6.211   1.299 -1.3061 -0.1576  0.7336
  391MOL0     C52697   7.675   6.307   1.201  0.5005  0.1548  1.0250
  391MOL0     O52698   7.472   6.403   0.885  0.4249  0.4787  0.4421
  391MOL0     C52699   7.793   6.506   0.758 -0.6043  0.4669 -0.2965
  391MOL0     C52700   7.856   6.584   0.665 -0.6226 -0.3248  0.1114
  391MOL0     N52701   8.299   7.070   0.383 -0.6375  0.3359  0.7633
  391MOL0     N52702   8.385   7.159   0.424 -0.1425  0.4441 -0.0587
  391MOL0     C52703   8.985   7.865   0.530 -0.6462 -0.6466 -0.1540
  391MOL0     C52704   9.077   7.885   0.629 -0.3496  1.5396 -0.0294
  391MOL0     C52705   9.389   7.993   0.902 -1.4606  0.0679 -0.2189
  391MOL0     C52706   9.336   8.078   0.998  0.2741 -0.2366 -0.5675
  391MOL0     C52707   9.403   8.085   1.125  0.1524  0.5588  0.1347
  391MOL0     C52708   9.515   8.010   1.156  0.1716 -0.0580  0.4408
  391MOL0     O52709   9.588   8.023   1.273  1.0361 -0.1803 -0.6097
  391MOL0     C52710   9.521   8.081   1.383  1.1127 -0.0703  0.0632
  391MOL0     C52711   9.606   8.035   1.506  0.1365  0.2235 -0.4127
  391MOL0     C52712   9.755   8.086   1.496 -0.2901  0.5826  0.0724
  391MOL0     C52713   9.843   8.044   1.619  0.5696  0.1731  0.7456
  391MOL0     C52714   9.866   7.902   1.609 -0.0846  0.5191  0.2052
  391MOL0     C52715   9.910   7.790   1.610  0.0109 -0.1230 -0.3702
  391MOL0     C52716   9.570   7.933   1.049 -0.5845  0.3491 -0.5273
  391MOL0     C52717   9.512   7.927   0.919 -0.6888 -0.0300 -0.0424
  391MOL0     H52718   9.088   8.214   0.642 -0.6577  0.4446 -3.0963
  391MOL0     H52719   8.900   8.187   0.458  1.4719  0.3771 -0.5882
  391MOL0     H52720   8.699   7.810   0.341  0.2456  1.3007 -1.6525
  391MOL0     H52721   8.727   7.825   0.520 -0.8110  1.4559  0.0790
  391MOL0     H52722   8.573   8.019   0.528  1.6964 -1.3015  1.5401
  391MOL0     H52723   8.577   8.024   0.346  1.9704 -2.4505 -1.7817
  391MOL0     H52724   8.363   7.933   0.417 -0.9915 -0.6134  0.9380
  391MOL0     H52725   8.453   7.814   0.334  4.0666  2.4191 -1.4125
  391MOL0     H52726   8.537   7.714   0.575 -1.9243 -2.4059 -0.6177
  391MOL0     H52727   8.430   7.839   0.646 -0.3442 -0.0712  0.3901
  391MOL0     H52728   8.337   7.664   0.683  4.2931  0.5128  0.0777
  391MOL0     H52729   8.243   7.716   0.544  1.4593  1.6070 -3.1638
  391MOL0     H52730   8.440   7.499   0.589  2.5879  0.7163 -2.9580
  391MOL0     H52731   8.270   7.471   0.532  0.7629 -2.0740  0.2931
  391MOL0     H52732   8.341   7.570   0.307 -2.6662 -0.7504  1.1710
  391MOL0     H52733   8.505   7.591   0.380 -0.7655  1.1280  0.8676
  391MOL0     H52734   8.541   7.358   0.407 -0.4271 -1.1869 -0.9653
  391MOL0     H52735   8.485   7.388   0.240  0.0049 -0.8522 -0.1936
  391MOL0     H52736   8.186   7.326   0.225 -0.1592  1.0926  1.2868
  391MOL0     H52737   8.023   7.141   0.197  0.6218  0.7501 -1.0386
  391MOL0     H52738   8.096   6.985   0.181 -0.6089  0.5897 -0.4227
  391MOL0     H52739   7.925   7.084   0.404  1.7491  1.2979 -1.3772
  391MOL0     H52740   8.044   6.969   0.456 -3.2099  1.5485  3.0147
  391MOL0     H52741   7.953   6.820   0.259  0.8821  0.2467  0.3099
  391MOL0     H52742   7.833   6.943   0.236 -0.0811 -1.9365 -1.4926
  391MOL0     H52743   7.710   6.779   0.345 -0.3126 -0.3765  0.6762
  391MOL0     H52744   7.736   6.907   0.458  1.4444  0.6508  0.8773
  391MOL0     H52745   7.583   6.717   0.518 -0.1904 -0.6787  0.2618
  391MOL0     H52746   7.382   6.656   0.607  1.8528 -0.9398 -0.9158
  391MOL0     H52747   7.375   6.495   0.683  2.9496 -0.7947  1.2995
  391MOL0     H52748   7.395   6.619   0.793 -1.8040 -1.6191  0.0307
  391MOL0     H52749   7.560   6.102   0.940 -0.3352 -2.0101  0.9301
  391MOL0     H52750   7.507   5.967   1.115 -0.7802  0.9048 -3.5426
  391MOL0     H52751   7.596   5.828   1.466 -2.6049  3.7712  0.8708
  391MOL0     H52752   7.531   5.821   1.296  4.1303 -1.3042 -4.9635
  391MOL0     H52753   7.744   5.876   1.195 -1.0477  0.6184  0.0955
  391MOL0     H52754   7.829   5.866   1.340  1.1463 -1.7539 -2.5443
  391MOL0     H52755   7.674   5.641   1.207 -0.3821 -0.7690  1.7539
  391MOL0     H52756   7.747   5.607   1.361  1.5710 -1.3883 -0.0274
  391MOL0     H52757   7.892   5.704   1.114 -3.2006  2.4879  0.7702
  391MOL0     H52758   7.966   5.685   1.281 -1.0755 -1.4994  1.5751
  391MOL0     H52759   7.867   5.462   1.110  0.8167  0.7760 -0.6894
  391MOL0     H52760   7.873   5.438   1.287  2.1597 -0.7757  0.1281
  391MOL0     H52761   8.107   5.472   1.295 -2.4086  0.8510  0.1405
  391MOL0     H52762   8.060   5.335   1.188 -2.5237 -0.0441 -1.0565
  391MOL0     H52763   8.096   5.609   1.078 -0.5056  0.4510  2.0558
  391MOL0     H52764   8.097   5.453   0.994 -3.4289  2.2148  0.5468
  391MOL0     H52765   8.327   5.406   1.135 -4.2171 -2.2189 -0.2719
  391MOL0     H52766   8.327   5.569   1.176  2.2701  0.7556 -0.9995
  391MOL0     H52767   7.706   6.229   1.399 -0.6666  1.8761  0.1596
  391MOL0     H52768   7.713   6.408   1.210 -0.6623  0.6475  0.5314
  391MOL0     H52769   7.859   6.450   0.823  1.1638  3.2296  0.4734
  391MOL0     H52770   7.964   6.589   0.656 -0.7970  0.3715 -2.5065
  391MOL0     H52771   8.964   7.761   0.504 -0.6884 -0.8604  0.6875
  391MOL0     H52772   9.116   7.797   0.680 -1.4078  0.9518 -0.2159
  391MOL0     H52773   9.253   8.143   0.974  0.5308  1.2854  2.2517
  391MOL0     H52774   9.346   8.138   1.201  0.0385 -0.3475  0.7047
  391MOL0     H52775   9.518   8.190   1.384  0.3356 -0.0828 -0.2905
  391MOL0     H52776   9.418   8.050   1.401  1.5018 -0.3628  1.9854
  391MOL0     H52777   9.612   7.926   1.501 -1.4554  0.0274  1.0104
  391MOL0     H52778   9.543   8.064   1.591 -1.4659  0.3732 -1.6033
  391MOL0     H52779   9.755   8.194   1.476  3.0394  0.6817  0.1606
  391MOL0     H52780   9.798   8.043   1.406 -0.9026  1.8550 -0.8706
  391MOL0     H52781   9.779   8.085   1.698 -1.6136  1.1192 -1.3745
  391MOL0     H52782   9.939   8.096   1.612 -0.5523  2.4938  1.6232
  391MOL0     H52783   9.947   7.691   1.623  3.8964  1.4996  2.6706
  391MOL0     H52784   9.665   7.881   1.055 -1.2885 -0.9900 -0.5331
  391MOL0     H52785   9.550   7.880   0.829  2.7586  1.4571  0.4827
  392MOL0     O52786   2.615   6.265  11.372  0.1536 -0.0300 -0.7134
  392MOL0     C52787   2.500   6.225  11.373 -0.0882  0.5793 -0.8684
  392MOL0     O52788   2.438   6.161  11.485 -0.4956 -0.1514 -0.7415
  392MOL0     C52789   2.534   6.107  11.563  0.3839 -0.9503  1.0398
  392MOL0     C52790   2.543   6.160  11.691 -0.0104  0.1835  0.1785
  392MOL0     C52791   2.646   6.114  11.769  0.5094 -0.3673  0.7841
  392MOL0     C52792   2.731   6.012  11.729 -0.7866 -0.2287 -0.0540
  392MOL0     O52793   2.830   5.951  11.806  0.3526  1.2008  1.0082
  392MOL0     C52794   2.870   6.016  11.925 -0.5400  0.0092 -1.2615
  392MOL0     C52795   2.957   5.927  12.016 -0.1449  0.4094  0.4653
  392MOL0     C52796   3.097   5.905  11.952 -0.6261 -0.1086 -0.6274
  392MOL0     C52797   3.204   5.989  12.021 -0.1872 -0.5332 -0.3291
  392MOL0     C52798   3.343   5.935  12.009  1.3584 -0.1565 -0.3930
  392MOL0     C52799   3.386   5.906  11.868 -0.5274 -0.8551 -0.4883
  392MOL0     C52800   3.538   5.891  11.847  0.5632  0.5401  0.2339
  392MOL0     C52801   3.607   5.763  11.916  0.8204  0.1205 -0.1062
  392MOL0     N52802   3.518   5.647  11.922 -0.2075  0.5786  0.2923
  392MOL0     C52803   3.467   5.595  11.801  0.7272  0.5910 -0.8771
  392MOL0     C52804   3.382   5.491  11.848  0.0375  0.1559  0.1550
  392MOL0     C52805   3.290   5.410  11.749  0.4642  0.4235  0.4727
  392MOL0     C52806   3.351   5.276  11.716 -0.6278  0.0849  0.3049
  392MOL0     C52807   3.274   5.199  11.609 -0.8678 -1.6311 -0.1390
  392MOL0     C52808   3.134   5.150  11.632 -0.2312  0.2326  0.0646
  392MOL0     O52809   3.147   5.021  11.695 -0.2619  0.6664 -0.4060
  392MOL0     C52810   3.055   4.984  11.795 -0.6389 -0.0233  0.3849
  392MOL0     C52811   2.923   5.024  11.791  0.1994 -0.1403  0.4177
  392MOL0     C52812   2.830   4.992  11.894 -1.0077 -0.3035 -0.7948
  392MOL0     C52813   2.684   5.052  11.884 -0.7330 -0.6775  0.3449
  392MOL0     C52814   2.877   4.901  11.992  0.8352  0.1485 -0.0600
  392MOL0     C52815   2.794   4.852  12.101 -0.2348  0.1096 -0.3138
  392MOL0     O52816   2.797   4.923  12.222  0.7597  0.1461 -0.0005
  392MOL0     C52817   2.705   4.897  12.320  0.8866  1.1560  0.1304
  392MOL0     C52818   2.565   4.878  12.304 -0.1451 -0.5386  0.3170
  392MOL0     C52819   2.482   4.844  12.416 -0.6213  0.3106  0.1184
  392MOL0     C52820   2.541   4.846  12.542  0.0684 -0.7402  0.8182
  392MOL0     O52821   2.453   4.830  12.644 -0.1946  0.1122 -0.4458
  392MOL0     C52822   2.471   4.688  12.698 -0.3283 -0.8887  0.6723
  392MOL0     C52823   2.332   4.643  12.738  0.2141 -0.0677 -0.8566
  392MOL0     C52824   2.251   4.595  12.623 -0.2362 -0.3180 -0.1826
  392MOL0     C52825   2.126   4.511  12.660 -0.2392 -0.5414  0.6518
  392MOL0     C52826   2.030   4.484  12.536  0.0110  0.1520  0.4789
  392MOL0     C52827   1.984   4.339  12.533  0.9483 -0.3719 -0.5110
  392MOL0     C52828   1.881   4.318  12.422  0.3874  0.3433  0.5975
  392MOL0     C52829   1.778   4.205  12.453  0.4227 -1.0021 -0.1094
  392MOL0    Cl52830   1.681   4.162  12.309  0.2756  0.1945 -0.2441
  392MOL0     C52831   2.677   4.869  12.557 -0.4552 -0.2565 -0.1168
  392MOL0     C52832   2.751   4.898  12.448 -0.3874  0.1171 -0.0319
  392MOL0     O52833   2.727   4.748  12.084  0.1637 -0.0180  0.2542
  392MOL0     C52834   3.006   4.852  11.988 -0.7781  0.6690 -0.2078
  392MOL0     C52835   3.098   4.887  11.889  0.8499 -0.4969  0.8247
  392MOL0     N52836   3.397   5.481  11.994 -0.0430  0.1724  0.3702
  392MOL0     N52837   3.466   5.580  12.031  0.0372  0.0363 -0.7986
  392MOL0     C52838   2.715   5.950  11.613  0.8413 -0.4054  0.1086
  392MOL0     C52839   2.613   5.997  11.527 -0.4794  0.8058  0.5489
  392MOL0     C52840   2.422   6.257  11.254  0.0801 -0.0267 -0.0961
  392MOL0     C52841   2.280   6.260  11.261  0.9865 -0.4261 -0.2957
  392MOL0     C52842   2.196   6.274  11.149  1.0369  0.2570 -0.5671
  392MOL0     C52843   2.258   6.284  11.027  0.5639  0.3990  0.0379
  392MOL0     O52844   2.166   6.299  10.925 -0.7868  0.0553  0.0461
  392MOL0     C52845   2.215   6.336  10.802 -0.7656 -0.3480 -0.2288
  392MOL0     C52846   2.285   6.223  10.717  0.1677  0.4487  0.0432
  392MOL0     C52847   2.184   6.113  10.686 -0.2782 -0.1761  0.6350
  392MOL0     C52848   2.258   5.992  10.613 -0.0630 -0.2831  0.1046
  392MOL0     C52849   2.304   6.023  10.478  0.5840  0.5169  1.0255
  392MOL0     C52850   2.328   6.055  10.366  0.4547  0.7015  1.0013
  392MOL0     C52851   2.400   6.282  11.007  0.1360 -0.0615 -0.1623
  392MOL0     C52852   2.476   6.267  11.129 -0.1472 -0.4272 -0.0080
  392MOL0     H52853   2.476   6.237  11.727 -0.2894 -1.4416  3.5030
  392MOL0     H52854   2.649   6.173  11.860 -4.8821  4.3033 -1.4392
  392MOL0     H52855   2.908   6.118  11.919 -1.7678  0.4932 -1.1725
  392MOL0     H52856   2.779   6.028  11.986 -0.5577 -3.0846 -0.5144
  392MOL0     H52857   2.987   5.975  12.109  4.5747  0.1908 -0.6890
  392MOL0     H52858   2.903   5.832  12.030 -3.2282  1.5453 -2.3376
  392MOL0     H52859   3.128   5.801  11.970  0.6137 -0.0353 -2.0408
  392MOL0     H52860   3.106   5.913  11.843  4.8904 -0.6532 -0.5039
  392MOL0     H52861   3.190   6.088  11.977 -0.6586 -0.9618 -1.1650
  392MOL0     H52862   3.182   5.985  12.128 -1.8262 -0.4414 -0.6351
  392MOL0     H52863   3.399   6.024  12.042 -1.1968  1.5460 -0.3416
  392MOL0     H52864   3.365   5.850  12.074 -0.6040 -2.0044 -1.9911
  392MOL0     H52865   3.330   5.823  11.824  0.7554 -1.8734 -0.2476
  392MOL0     H52866   3.351   5.993  11.810 -0.7384 -0.1120  0.7257
  392MOL0     H52867   3.563   5.883  11.741 -0.3525 -3.8646  0.1565
  392MOL0     H52868   3.584   5.984  11.882 -0.0118  1.5243 -1.5177
  392MOL0     H52869   3.649   5.790  12.013  1.6829  0.7398 -0.6409
  392MOL0     H52870   3.690   5.735  11.850  0.2940 -0.2970 -0.6051
  392MOL0     H52871   3.494   5.629  11.702  3.3352  1.4406  0.0673
  392MOL0     H52872   3.190   5.398  11.792  0.8012  1.3864  1.5877
  392MOL0     H52873   3.275   5.460  11.653 -2.0456 -2.3794 -0.7528
  392MOL0     H52874   3.342   5.215  11.806 -2.3801  0.4070  0.3741
  392MOL0     H52875   3.453   5.299  11.685 -1.8863  2.4068 -2.6241
  392MOL0     H52876   3.342   5.117  11.586  4.0111  2.5485 -2.6576
  392MOL0     H52877   3.264   5.255  11.515 -3.1061 -1.0394  0.3902
  392MOL0     H52878   3.098   5.130  11.530  3.3606 -0.1375 -1.2880
  392MOL0     H52879   3.074   5.229  11.678 -4.9498 -1.6030 -2.2764
  392MOL0     H52880   2.899   5.097  11.714 -1.0953 -0.3902  0.5647
  392MOL0     H52881   2.618   4.986  11.942 -1.5314  0.0631  0.2976
  392MOL0     H52882   2.680   5.158  11.908  0.7054  0.0357 -2.1822
  392MOL0     H52883   2.645   5.038  11.783  0.6125  1.8774 -0.6072
  392MOL0     H52884   2.533   4.876  12.200  2.9476 -1.7443 -0.7446
  392MOL0     H52885   2.379   4.816  12.400  0.1604 -3.0282  0.2031
  392MOL0     H52886   2.515   4.623  12.622  1.0780  0.2115  0.5075
  392MOL0     H52887   2.542   4.693  12.781  1.8004  1.0864 -1.1304
  392MOL0     H52888   2.324   4.571  12.819  1.2657  0.7420  0.0072
  392MOL0     H52889   2.284   4.731  12.782  0.8959  0.1342 -0.4945
  392MOL0     H52890   2.312   4.525  12.566  1.5887  1.1244 -0.0982
  392MOL0     H52891   2.225   4.681  12.561  1.6889  1.3330  1.1478
  392MOL0     H52892   2.169   4.417  12.694  1.1371 -0.0511  0.3002
  392MOL0     H52893   2.073   4.562  12.742 -0.5570  1.7357 -0.8646
  392MOL0     H52894   2.096   4.504  12.450  2.5558 -0.5739  2.1567
  392MOL0     H52895   1.954   4.562  12.541  1.8687  2.1269 -0.1489
  392MOL0     H52896   2.065   4.266  12.527  0.3795 -1.1400  0.7029
  392MOL0     H52897   1.945   4.319  12.633  2.9363 -0.7534  0.2343
  392MOL0     H52898   1.940   4.293  12.334 -0.5361 -0.3494  0.1591
  392MOL0     H52899   1.826   4.411  12.406  0.1483  0.5045  2.1598
  392MOL0     H52900   1.709   4.244  12.529 -1.0174 -1.8663 -0.9240
  392MOL0     H52901   1.830   4.115  12.487  0.4118 -1.3668 -1.0152
  392MOL0     H52902   2.725   4.867  12.655 -0.1069  3.0192 -0.1273
  392MOL0     H52903   2.857   4.907  12.467 -0.3870 -0.4073  0.2138
  392MOL0     H52904   3.032   4.769  12.052 -0.2732 -1.6842 -3.2676
  392MOL0     H52905   3.198   4.846  11.885  0.2394 -2.0437  0.2747
  392MOL0     H52906   2.781   5.870  11.582 -0.3754 -1.2094 -0.5163
  392MOL0     H52907   2.604   5.934  11.439  1.1624  0.5165  0.5670
  392MOL0     H52908   2.226   6.247  11.354  0.0561  2.2792 -0.3569
  392MOL0     H52909   2.090   6.272  11.172  0.4308  0.2505 -3.1037
  392MOL0     H52910   2.136   6.390  10.750 -0.3351 -0.8741 -1.4653
  392MOL0     H52911   2.284   6.420  10.817 -2.8188  1.5041 -0.6009
  392MOL0     H52912   2.369   6.169  10.762  0.4838 -0.6822 -1.8322
  392MOL0     H52913   2.326   6.280  10.633  3.3368 -1.9654 -0.2349
  392MOL0     H52914   2.094   6.155  10.641 -2.6659 -2.3907  2.9801
  392MOL0     H52915   2.144   6.073  10.780 -3.2133 -2.5572 -1.4253
  392MOL0     H52916   2.191   5.905  10.602  1.2760 -1.0662 -3.0288
  392MOL0     H52917   2.342   5.953  10.671  2.1822  0.8509 -2.1936
  392MOL0     H52918   2.354   6.087  10.267 -2.4616  5.1013  1.4181
  392MOL0     H52919   2.435   6.292  10.905 -3.0819 -1.2936 -1.5085
  392MOL0     H52920   2.584   6.270  11.124 -0.1653  2.5783 -0.9571
  393MOL0     O52921  10.956   2.302   8.208 -0.0867  0.0620 -0.0359
  393MOL0     C52922  10.983   2.369   8.110  0.0264  0.7067  1.0779
  393MOL0     O52923  10.895   2.430   8.037 -0.1154  0.0454  0.6811
  393MOL0     C52924  10.766   2.419   8.058 -0.1487  0.0030 -0.4398
  393MOL0     C52925  10.707   2.293   8.085  1.9141 -0.8708  0.5939
  393MOL0     C52926  10.567   2.286   8.081  0.7167  0.0913  0.2115
  393MOL0     C52927  10.481   2.403   8.067 -0.7209  0.1102 -0.3591
  393MOL0     O52928  10.345   2.392   8.081 -0.3685 -0.0572 -0.3173
  393MOL0     C52929  10.270   2.495   8.023  0.6425  0.4412  0.1384
  393MOL0     C52930  10.116   2.441   8.014  0.3873  0.4332 -0.0796
  393MOL0     C52931  10.097   2.305   7.934  0.4940 -0.5092  0.6477
  393MOL0     C52932  10.118   2.316   7.783  1.3831 -0.4120  0.2137
  393MOL0     C52933  10.254   2.310   7.731  0.6233 -0.5323 -0.1645
  393MOL0     C52934  10.263   2.354   7.581  0.6269  0.1386  0.2350
  393MOL0     C52935  10.396   2.424   7.542  0.1059 -0.3335  0.7337
  393MOL0     C52936  10.524   2.349   7.593  0.3106 -0.6352 -0.2264
  393MOL0     N52937  10.639   2.438   7.601 -0.8363  0.2947 -0.9879
  393MOL0     C52938  10.728   2.456   7.714  1.7054  0.5161  0.5878
  393MOL0     C52939  10.816   2.539   7.664  0.6531 -1.0543  0.1879
  393MOL0     C52940  10.950   2.580   7.725 -0.4217 -0.3898  0.3170
  393MOL0     C52941  10.938   2.729   7.756  0.7863 -0.0657  0.8314
  393MOL0     C52942  11.063   2.772   7.836  0.8675 -0.1037 -0.8027
  393MOL0     C52943  11.201   2.751   7.774  0.5230  0.4943  0.0269
  393MOL0     O52944  11.195   2.809   7.641 -0.8410  0.0326 -0.0988
  393MOL0     C52945  11.321   2.827   7.583  0.5416 -0.4097  0.6083
  393MOL0     C52946  11.353   2.947   7.525 -0.4475  0.0986 -0.2776
  393MOL0     C52947  11.487   2.980   7.483  0.9856 -0.3784  0.2268
  393MOL0     C52948  11.500   3.112   7.412  0.0719 -0.5170  0.1884
  393MOL0     C52949  11.580   2.880   7.486 -0.1119  0.4854  0.2751
  393MOL0     C52950  11.720   2.903   7.442  0.0299  0.1340  0.5209
  393MOL0     O52951  11.777   3.022   7.452  0.0800 -0.0866  0.3726
  393MOL0     C52952  11.881   3.067   7.371 -0.0065 -0.6994 -0.2901
  393MOL0     C52953  12.007   3.085   7.434 -1.3972 -0.1998 -0.3235
  393MOL0     C52954  12.112   3.147   7.359  0.4108  0.7137 -0.1284
  393MOL0     C52955  12.094   3.188   7.228  0.0821 -0.7728 -0.3410
  393MOL0     O52956  12.189   3.250   7.157 -0.2943 -0.0748  0.0689
  393MOL0     C52957  12.198   3.394   7.179 -0.0622 -0.5672  0.6695
  393MOL0     C52958  12.062   3.469   7.150 -0.1979 -0.0056  0.7599
  393MOL0     C52959  12.096   3.619   7.122  0.3348 -0.1178  0.0313
  393MOL0     C52960  11.984   3.708   7.155 -0.1452 -0.8716 -0.6366
  393MOL0     C52961  11.882   3.732   7.044 -1.0034 -0.0679 -0.4425
  393MOL0     C52962  11.751   3.789   7.089  0.1852  0.4084 -0.2724
  393MOL0     C52963  11.633   3.731   7.012  0.2160 -0.1192 -0.5353
  393MOL0     C52964  11.504   3.760   7.088 -0.1956 -0.1498 -0.2851
  393MOL0    Cl52965  11.478   3.938   7.098 -0.0525  0.4587  0.7454
  393MOL0     C52966  11.976   3.157   7.164 -0.1896 -0.2040  0.4297
  393MOL0     C52967  11.869   3.101   7.237 -0.7651  0.5055 -0.9308
  393MOL0     O52968  11.780   2.801   7.406 -0.3704 -0.1517 -0.3797
  393MOL0     C52969  11.553   2.749   7.536 -0.3290 -0.3590  0.6476
  393MOL0     C52970  11.423   2.728   7.586 -0.0384 -0.2900  0.5514
  393MOL0     N52971  10.799   2.566   7.530  0.5252  0.1981 -0.9944
  393MOL0     N52972  10.689   2.511   7.498  0.4864  0.1458 -0.1442
  393MOL0     C52973  10.553   2.525   8.035 -0.0670  1.1021 -0.2573
  393MOL0     C52974  10.689   2.533   8.040  0.4316 -0.1671  0.2370
  393MOL0     C52975  11.122   2.392   8.079 -0.4426 -0.8777 -1.0871
  393MOL0     C52976  11.172   2.366   7.955  0.3956  0.3782  0.4847
  393MOL0     C52977  11.296   2.400   7.927 -0.8655 -1.0717 -0.0369
  393MOL0     C52978  11.384   2.478   8.012  0.4782 -0.0303 -0.7902
  393MOL0     O52979  11.511   2.517   7.991 -0.3026 -0.2298 -0.3886
  393MOL0     C52980  11.545   2.584   7.868  0.0758 -0.4971  0.8792
  393MOL0     C52981  11.700   2.602   7.864 -1.1813 -0.2301  0.8395
  393MOL0     C52982  11.772   2.473   7.824 -0.5296 -0.0623 -0.0103
  393MOL0     C52983  11.916   2.458   7.871  0.0679  0.5638  0.1306
  393MOL0     C52984  11.993   2.572   7.837 -0.6342 -0.5689  0.8476
  393MOL0     C52985  12.047   2.676   7.806  0.0905 -0.0129 -1.1776
  393MOL0     C52986  11.334   2.497   8.146  0.6201  0.5173  0.5820
  393MOL0     C52987  11.203   2.449   8.178  0.5686 -0.4753  0.2003
  393MOL0     H52988  10.758   2.199   8.101  1.8531 -2.1188 -4.7012
  393MOL0     H52989  10.513   2.193   8.092 -1.0398  1.3295  3.1266
  393MOL0     H52990  10.262   2.586   8.084 -1.6892  1.8380 -2.0420
  393MOL0     H52991  10.301   2.532   7.925  1.1974  1.7907  0.7900
  393MOL0     H52992  10.082   2.441   8.118  3.8326  2.4712  1.2223
  393MOL0     H52993  10.056   2.511   7.955 -1.1719 -2.5071 -2.2340
  393MOL0     H52994  10.167   2.227   7.967  0.0587 -0.5924  1.4026
  393MOL0     H52995  10.000   2.259   7.956 -0.0394  0.1630 -0.2121
  393MOL0     H52996  10.070   2.226   7.744  1.3279 -0.4291  0.3197
  393MOL0     H52997  10.052   2.400   7.757  1.3714  0.6125  3.1151
  393MOL0     H52998  10.310   2.385   7.788  0.0162 -0.8384  0.8675
  393MOL0     H52999  10.294   2.208   7.740  2.6060  0.1515 -0.6593
  393MOL0     H53000  10.263   2.276   7.504 -0.8519 -1.0693  1.3844
  393MOL0     H53001  10.175   2.411   7.551 -0.6756 -2.5112 -1.3480
  393MOL0     H53002  10.390   2.429   7.433 -1.1397 -3.4185  0.5649
  393MOL0     H53003  10.401   2.529   7.572  3.4641  0.4566 -2.0042
  393MOL0     H53004  10.550   2.271   7.521  0.9413 -1.6106  1.0193
  393MOL0     H53005  10.508   2.308   7.693  1.6638  0.4587  0.4752
  393MOL0     H53006  10.742   2.411   7.812  1.6690  1.6453  1.1315
  393MOL0     H53007  10.960   2.527   7.820 -2.1155  0.4987  1.0394
  393MOL0     H53008  11.035   2.558   7.660  0.2990 -0.9081  1.4121
  393MOL0     H53009  10.852   2.752   7.820  0.6307 -2.2427  1.4684
  393MOL0     H53010  10.942   2.772   7.656  0.5984 -3.6062 -0.8366
  393MOL0     H53011  11.071   2.723   7.933  2.2637 -0.5454 -1.0985
  393MOL0     H53012  11.060   2.878   7.859  1.7683 -0.4469  1.1363
  393MOL0     H53013  11.228   2.645   7.780  0.1102  0.4257  0.8721
  393MOL0     H53014  11.282   2.795   7.832  1.0549 -1.1135  0.5738
  393MOL0     H53015  11.277   3.024   7.516  1.3100  2.1010  1.0394
  393MOL0     H53016  11.413   3.177   7.424 -0.0930 -1.0820  2.4772
  393MOL0     H53017  11.585   3.163   7.457  1.7799 -1.3215 -1.9338
  393MOL0     H53018  11.516   3.104   7.304  1.0533  4.3503 -0.2355
  393MOL0     H53019  12.016   3.049   7.536  0.6712 -0.4690 -0.5684
  393MOL0     H53020  12.210   3.168   7.399  1.0315  0.8710 -1.6513
  393MOL0     H53021  12.234   3.407   7.281 -0.5918 -2.5592  1.1620
  393MOL0     H53022  12.263   3.439   7.103 -2.7585  2.1585 -0.2200
  393MOL0     H53023  12.012   3.428   7.062  1.5648 -1.8542  0.5401
  393MOL0     H53024  12.002   3.449   7.239  0.2668 -1.6180  0.7461
  393MOL0     H53025  12.134   3.635   7.020 -1.6175 -3.0677 -1.2738
  393MOL0     H53026  12.182   3.632   7.189  0.2424 -1.6822  0.4756
  393MOL0     H53027  11.932   3.675   7.246  0.8915 -0.4826  0.1224
  393MOL0     H53028  12.018   3.807   7.187  0.0491 -1.8129  2.3750
  393MOL0     H53029  11.853   3.640   6.993  0.4142 -0.7473 -0.0915
  393MOL0     H53030  11.922   3.802   6.970 -0.8972 -0.0750 -0.3917
  393MOL0     H53031  11.724   3.762   7.192 -3.6134  2.4687 -0.5462
  393MOL0     H53032  11.755   3.898   7.086  1.2734  0.3775 -0.4086
  393MOL0     H53033  11.650   3.628   6.980  4.0885 -0.4586  1.9588
  393MOL0     H53034  11.616   3.798   6.927  3.4322  1.5657 -0.0148
  393MOL0     H53035  11.495   3.712   7.186  1.9629  1.2111  0.6379
  393MOL0     H53036  11.420   3.740   7.019  0.2544  0.9262 -1.1727
  393MOL0     H53037  11.965   3.179   7.058  0.2652 -0.2104  0.3793
  393MOL0     H53038  11.776   3.075   7.187 -0.1502 -0.0650 -1.8154
  393MOL0     H53039  11.624   2.668   7.538 -0.5810 -0.5840  2.3084
  393MOL0     H53040  11.397   2.626   7.611  2.1313 -0.4384  2.4460
  393MOL0     H53041  10.502   2.618   8.012  1.4094  1.9853 -0.0782
  393MOL0     H53042  10.733   2.630   8.021 -3.0616  1.9188  1.9788
  393MOL0     H53043  11.122   2.314   7.874  0.2414  1.7907 -0.3554
  393MOL0     H53044  11.333   2.374   7.829 -2.7445 -1.5008 -0.6900
  393MOL0     H53045  11.517   2.527   7.778 -1.2796  1.3837  0.0536
  393MOL0     H53046  11.493   2.680   7.861  1.7168  0.3264 -2.1093
  393MOL0     H53047  11.739   2.655   7.951  0.7879  1.7577 -1.0939
  393MOL0     H53048  11.725   2.666   7.778  0.3838 -2.9104 -0.8448
  393MOL0     H53049  11.772   2.457   7.716 -1.9855  0.5622 -0.1320
  393MOL0     H53050  11.716   2.384   7.856 -0.2087 -0.4867 -0.6134
  393MOL0     H53051  11.951   2.372   7.812 -0.0755  0.3470  0.3585
  393MOL0     H53052  11.927   2.439   7.978 -2.3090  0.8510  0.4715
  393MOL0     H53053  12.096   2.766   7.774 -1.0354 -0.7845 -5.8238
  393MOL0     H53054  11.365   2.557   8.231 -2.5655 -2.6489  4.3939
  393MOL0     H53055  11.172   2.455   8.282  0.1996  0.7607  0.0383
  394MOL0     O53056   7.655  10.291  10.671  0.8432  0.1819 -0.0552
  394MOL0     C53057   7.687  10.341  10.565  0.0378  0.0076 -0.1539
  394MOL0     O53058   7.625  10.440  10.501  1.0583 -0.7199  0.2983
  394MOL0     C53059   7.515  10.516  10.554 -0.2894  0.6725 -0.2726
  394MOL0     C53060   7.484  10.529  10.693 -0.1426 -1.1174 -0.4999
  394MOL0     C53061   7.388  10.619  10.736  0.3641 -0.0565 -1.0038
  394MOL0     C53062   7.322  10.704  10.651  0.0287 -0.4278 -0.7229
  394MOL0     O53063   7.224  10.791  10.689 -0.1350 -0.0474 -0.3036
  394MOL0     C53064   7.176  10.806  10.823 -0.0239  0.1680 -0.3966
  394MOL0     C53065   7.101  10.679  10.879 -0.4807 -0.0807 -0.3907
  394MOL0     C53066   6.958  10.657  10.830  0.3939  0.1314 -0.4586
  394MOL0     C53067   6.925  10.509  10.823 -0.0993  0.3205  0.8959
  394MOL0     C53068   6.780  10.495  10.781  0.4573  0.0672  0.5578
  394MOL0     C53069   6.680  10.519  10.892 -0.7243 -0.8835  0.0527
  394MOL0     C53070   6.539  10.481  10.842  0.1396  0.2273  0.3206
  394MOL0     C53071   6.421  10.517  10.943  0.0607 -0.5454  0.4996
  394MOL0     N53072   6.289  10.452  10.917 -0.2355 -0.8684  0.2173
  394MOL0     C53073   6.263  10.377  10.808 -0.2026 -0.2259  0.0747
  394MOL0     C53074   6.141  10.328  10.832 -0.1950 -0.1548 -0.0346
  394MOL0     C53075   6.076  10.231  10.748 -0.1840  0.3655  0.2092
  394MOL0     C53076   6.012  10.294  10.625 -0.0959 -0.0131  0.5518
  394MOL0     C53077   5.878  10.370  10.646 -0.0424 -0.3550  0.3774
  394MOL0     C53078   5.771  10.295  10.727  0.7106 -0.2969 -1.0443
  394MOL0     O53079   5.733  10.173  10.657 -0.3634  0.3028  0.2293
  394MOL0     C53080   5.607  10.176  10.608 -0.6206  0.1623  0.4801
  394MOL0     C53081   5.614  10.133  10.478 -0.7379  0.0845  0.8848
  394MOL0     C53082   5.492  10.120  10.408  0.0405 -0.9156 -0.0377
  394MOL0     C53083   5.500  10.075  10.265  0.2976 -0.2321  0.7325
  394MOL0     C53084   5.370  10.166  10.462 -0.2469 -0.6153  0.0589
  394MOL0     C53085   5.236  10.133  10.415 -0.9726 -0.0091  0.4272
  394MOL0     O53086   5.126  10.208  10.461 -1.0164  0.0946 -0.5886
  394MOL0     C53087   4.997  10.160  10.474  0.1602  0.3566 -0.3610
  394MOL0     C53088   4.918  10.111  10.369  0.1491  0.6991 -0.5907
  394MOL0     C53089   4.784  10.073  10.389  1.0893 -0.0699 -0.5423
  394MOL0     C53090   4.721  10.093  10.514 -0.7359 -0.2082 -0.4754
  394MOL0     O53091   4.585  10.061  10.528 -0.6513  1.5569  0.2605
  394MOL0     C53092   4.505  10.122  10.629 -0.0759 -0.4242 -0.4364
  394MOL0     C53093   4.377  10.050  10.638 -0.9069 -0.0060 -0.1103
  394MOL0     C53094   4.392   9.899  10.639  0.1788  0.0481 -0.3929
  394MOL0     C53095   4.260   9.828  10.663 -0.3249 -0.0045  0.7305
  394MOL0     C53096   4.289   9.672  10.680  0.5476 -0.8269  1.0135
  394MOL0     C53097   4.172   9.590  10.705  0.7926  0.0100  0.9388
  394MOL0     C53098   4.062   9.558  10.591 -0.2110  0.0108  0.0156
  394MOL0     C53099   3.936   9.497  10.654 -0.5761  0.3546 -0.3337
  394MOL0    Cl53100   3.991   9.352  10.745 -0.4618  0.0131 -0.2256
  394MOL0     C53101   4.810  10.149  10.618  1.2777 -0.0462  0.1246
  394MOL0     C53102   4.944  10.174  10.607  0.6460  0.2261  0.5509
  394MOL0     O53103   5.222  10.048  10.335  0.1790 -0.1648  0.4068
  394MOL0     C53104   5.377  10.217  10.587 -1.1440 -0.1281 -0.0578
  394MOL0     C53105   5.492  10.225  10.659  0.3800 -0.1680 -0.0386
  394MOL0     N53106   6.089  10.376  10.949  0.3521  0.0737 -0.4232
  394MOL0     N53107   6.185  10.444  11.010  0.1525 -0.4179 -0.2534
  394MOL0     C53108   7.351  10.695  10.514 -0.8739  0.3073 -0.7130
  394MOL0     C53109   7.447  10.601  10.464  0.3131 -0.2192  0.1283
  394MOL0     C53110   7.799  10.272  10.485  0.0675 -0.2983 -0.2536
  394MOL0     C53111   7.869  10.151  10.523  0.6073 -0.4317  0.2446
  394MOL0     C53112   7.975  10.105  10.450 -0.6462  0.0179  0.8779
  394MOL0     C53113   8.024  10.174  10.327 -0.5727  0.6383 -0.2401
  394MOL0     O53114   8.141  10.116  10.283  0.3781  0.1093 -0.2906
  394MOL0     C53115   8.225  10.193  10.198  0.7486 -0.8088  0.8083
  394MOL0     C53116   8.298  10.292  10.274  0.3215 -0.6501 -0.0666
  394MOL0     C53117   8.352  10.251  10.410  0.1694  0.8276 -0.1588
  394MOL0     C53118   8.342  10.348  10.530  0.7029  0.4401 -0.2157
  394MOL0     C53119   8.426  10.461  10.489  0.6277  0.2740 -1.2714
  394MOL0     C53120   8.495  10.557  10.470 -0.4853 -0.3631  0.7581
  394MOL0     C53121   7.953  10.290  10.297  0.0624  0.1049 -0.3402
  394MOL0     C53122   7.845  10.338  10.372  0.8928 -0.3272 -0.1245
  394MOL0     H53123   7.533  10.470  10.771  2.6504  0.6755 -0.7694
  394MOL0     H53124   7.371  10.629  10.843  0.5466  4.6179 -1.2003
  394MOL0     H53125   7.264  10.839  10.878 -0.2824 -0.4935  0.4275
  394MOL0     H53126   7.092  10.876  10.823 -2.2517 -2.3189 -1.1021
  394MOL0     H53127   7.155  10.586  10.857  0.9139  0.9713 -1.6420
  394MOL0     H53128   7.106  10.693  10.987 -0.3447 -0.3227 -0.3667
  394MOL0     H53129   6.885  10.710  10.893  0.9154  1.8013 -1.2004
  394MOL0     H53130   6.951  10.700  10.730 -0.1634 -1.1235 -0.9831
  394MOL0     H53131   6.994  10.477  10.745  0.8023  3.1649  0.4373
  394MOL0     H53132   6.941  10.450  10.914 -0.8328  1.9651  2.1550
  394MOL0     H53133   6.753  10.567  10.703 -1.7259  0.8500  1.9363
  394MOL0     H53134   6.766  10.397  10.734 -0.0995  0.6408 -0.5048
  394MOL0     H53135   6.712  10.455  10.974  1.1782 -0.4442 -0.2952
  394MOL0     H53136   6.681  10.623  10.925  1.1752 -0.9681  0.3860
  394MOL0     H53137   6.509  10.521  10.745  1.1078 -1.7973 -0.8782
  394MOL0     H53138   6.537  10.373  10.821 -3.7294  0.5027 -1.6079
  394MOL0     H53139   6.410  10.626  10.931 -0.8928 -0.7396 -0.4454
  394MOL0     H53140   6.438  10.500  11.050 -0.2374 -1.0640  0.4670
  394MOL0     H53141   6.329  10.353  10.725 -0.1402 -0.3940  0.1730
  394MOL0     H53142   6.155  10.162  10.714 -1.3507 -0.0318 -1.9045
  394MOL0     H53143   6.004  10.170  10.803 -2.3197  2.3094 -0.2936
  394MOL0     H53144   6.000  10.213  10.553  1.3541  3.1098 -3.6528
  394MOL0     H53145   6.080  10.366  10.579 -1.1805  0.5524 -0.1937
  394MOL0     H53146   5.843  10.372  10.543  1.5765 -0.3954 -0.2020
  394MOL0     H53147   5.898  10.464  10.699 -1.5393 -0.2241  0.7644
  394MOL0     H53148   5.686  10.360  10.744  1.4401 -0.0611  2.6962
  394MOL0     H53149   5.807  10.272  10.828  1.4249 -2.0673 -1.6670
  394MOL0     H53150   5.711  10.116  10.433 -0.7197  3.4953 -0.7314
  394MOL0     H53151   5.599  10.045  10.231 -0.2182 -1.5237  0.2896
  394MOL0     H53152   5.434   9.989  10.249 -1.0171  0.6875  0.9935
  394MOL0     H53153   5.450  10.151  10.204 -1.0354 -3.1526 -2.1758
  394MOL0     H53154   4.969  10.114  10.273  1.9005 -2.4557  0.1244
  394MOL0     H53155   4.728  10.042  10.301  0.8237 -2.1359  0.3054
  394MOL0     H53156   4.555  10.116  10.727 -1.0772 -0.4142  0.0808
  394MOL0     H53157   4.500  10.228  10.603  0.8032 -0.6899 -1.8460
  394MOL0     H53158   4.320  10.087  10.724 -0.2073  0.7430  0.0408
  394MOL0     H53159   4.310  10.084  10.559  0.4721  1.1453 -0.8267
  394MOL0     H53160   4.455   9.873  10.725  0.4006 -2.5760 -1.2627
  394MOL0     H53161   4.448   9.864  10.552  1.3937 -0.5223  0.5820
  394MOL0     H53162   4.206   9.873  10.748 -2.5770  1.0577 -1.1328
  394MOL0     H53163   4.199   9.853  10.575  2.1099  1.2031 -0.7038
  394MOL0     H53164   4.358   9.666  10.765  1.3127 -2.8754  0.3108
  394MOL0     H53165   4.342   9.637  10.591  0.2748  3.5146 -1.1253
  394MOL0     H53166   4.222   9.496  10.730  1.0172 -0.5039 -1.2725
  394MOL0     H53167   4.119   9.627  10.793  1.4811  1.5212  0.7381
  394MOL0     H53168   4.117   9.490  10.526 -3.7294 -4.1239  0.9290
  394MOL0     H53169   4.032   9.647  10.534 -1.9951 -0.6557 -0.1347
  394MOL0     H53170   3.858   9.464  10.584  1.6032 -3.5639 -1.2134
  394MOL0     H53171   3.900   9.564  10.733  1.6173  0.4385  0.6493
  394MOL0     H53172   4.775  10.151  10.720  0.4891  0.1477 -0.1365
  394MOL0     H53173   5.000  10.226  10.684 -0.2597 -1.0149  2.1106
  394MOL0     H53174   5.286  10.246  10.639 -0.2608  3.8905 -0.4410
  394MOL0     H53175   5.494  10.262  10.761  2.0601  0.5586 -0.3059
  394MOL0     H53176   7.303  10.755  10.436 -1.5884 -2.5634 -2.6382
  394MOL0     H53177   7.479  10.600  10.360 -0.8286 -0.8784 -0.2308
  394MOL0     H53178   7.815  10.099  10.601 -1.5437  0.6362 -0.4502
  394MOL0     H53179   8.018  10.011  10.484  0.2855  0.7503  1.8241
  394MOL0     H53180   8.290  10.125  10.143 -1.5846 -0.2836 -2.9513
  394MOL0     H53181   8.157  10.232  10.121 -1.7428 -2.2076  2.1955
  394MOL0     H53182   8.232  10.377  10.292  3.0390  0.9229  3.4954
  394MOL0     H53183   8.377  10.317  10.203  1.0294 -2.3292  0.0810
  394MOL0     H53184   8.452  10.209  10.396 -1.3573 -3.0315 -0.7139
  394MOL0     H53185   8.302  10.156  10.433 -1.1533  1.6757  0.6094
  394MOL0     H53186   8.387  10.305  10.619  0.6218  1.4072  0.3094
  394MOL0     H53187   8.236  10.369  10.548 -0.9470 -2.4659 -4.7784
  394MOL0     H53188   8.550  10.647  10.449 -1.7952  0.3041  0.0241
  394MOL0     H53189   7.996  10.349  10.217  0.8125 -2.9403 -2.3581
  394MOL0     H53190   7.811  10.435  10.339  3.4159  1.0525  1.0358
  395MOL0     O53191   1.723   0.267   3.378 -1.1811 -0.2487 -0.6261
  395MOL0     C53192   1.673   0.173   3.316 -0.6256  0.8704  0.0958
  395MOL0     O53193   1.550   0.170   3.269 -0.1163 -0.2752 -0.4259
  395MOL0     C53194   1.449   0.259   3.294 -0.1729  0.2434 -0.3876
  395MOL0     C53195   1.415   0.297   3.432  0.3574  0.4760  0.9369
  395MOL0     C53196   1.311   0.389   3.454  0.3920  0.3350  0.2822
  395MOL0     C53197   1.237   0.447   3.347 -0.5708 -0.7675 -0.2834
  395MOL0     O53198   1.124   0.513   3.373  0.4351  0.5326  0.9104
  395MOL0     C53199   1.086   0.611   3.277  0.5573  0.3433  0.1131
  395MOL0     C53200   1.068   0.740   3.351  0.7894 -0.1569 -0.6747
  395MOL0     C53201   0.972   0.726   3.478 -0.3911 -0.6848 -0.0543
  395MOL0     C53202   0.837   0.654   3.449 -0.2721 -0.8044  0.4014
  395MOL0     C53203   0.741   0.647   3.568 -0.4413 -0.1852 -0.8046
  395MOL0     C53204   0.655   0.784   3.579 -0.3247  0.1022  0.2756
  395MOL0     C53205   0.561   0.786   3.705  1.0739  0.3261 -0.5057
  395MOL0     C53206   0.619   0.872   3.825  0.6323  0.3621 -0.1131
  395MOL0     N53207   0.545   0.995   3.840  0.1137  0.5664 -0.5539
  395MOL0     C53208   0.419   0.990   3.883  1.2593 -0.4961 -0.6729
  395MOL0     C53209   0.396   1.113   3.926  0.4165 -0.1899 -0.1422
  395MOL0     C53210   0.267   1.174   3.974  0.8608  0.6724 -0.3407
  395MOL0     C53211   0.246   1.320   3.917 -0.9616 -0.3983  0.3575
  395MOL0     C53212   0.091   1.347   3.938 -1.0003  0.3025  0.1305
  395MOL0     C53213   0.055   1.483   3.902  0.1609  0.5216 -0.5432
  395MOL0     O53214  -0.063   1.518   3.968 -0.5126 -0.1044  0.3895
  395MOL0     C53215  -0.080   1.650   3.994 -0.0173 -0.2653  0.0001
  395MOL0     C53216  -0.179   1.679   4.085  0.1769 -0.5597 -0.2326
  395MOL0     C53217  -0.209   1.818   4.125 -0.7275  0.3434 -1.0497
  395MOL0     C53218  -0.336   1.834   4.204  0.2627 -0.2899 -0.0667
  395MOL0     C53219  -0.121   1.923   4.072  1.1097  0.6188  1.1921
  395MOL0     C53220  -0.151   2.069   4.086 -1.0674  0.0768 -0.8271
  395MOL0     O53221  -0.067   2.160   4.011 -0.7479  0.3502 -0.5953
  395MOL0     C53222  -0.074   2.289   4.058 -1.4929  0.3541  0.2915
  395MOL0     C53223  -0.010   2.341   4.171 -0.0317 -0.4111 -0.3378
  395MOL0     C53224   0.010   2.484   4.194 -0.1872  0.3805 -0.2436
  395MOL0     C53225  -0.052   2.574   4.103 -0.6843  0.2052 -0.2353
  395MOL0     O53226  -0.033   2.708   4.138 -0.6988  0.4078 -0.8989
  395MOL0     C53227  -0.115   2.804   4.062  0.0307 -0.1071 -0.6773
  395MOL0     C53228  -0.051   2.860   3.940 -0.6374  0.6619 -0.6396
  395MOL0     C53229  -0.111   2.988   3.878  1.1756  0.3957  0.0587
  395MOL0     C53230  -0.113   3.100   3.986 -0.7939 -0.6747 -0.2064
  395MOL0     C53231  -0.088   3.226   3.916 -0.3110 -0.7044  0.8729
  395MOL0     C53232  -0.075   3.338   4.026  0.3934 -1.2230 -0.0322
  395MOL0     C53233  -0.015   3.473   3.971 -0.5950  0.0089 -0.3737
  395MOL0     C53234  -0.106   3.584   3.925 -0.3503 -0.6131 -0.0451
  395MOL0    Cl53235  -0.213   3.531   3.795 -0.3795  0.2155 -0.2482
  395MOL0     C53236  -0.127   2.519   3.997 -0.8098  0.0396  0.1565
  395MOL0     C53237  -0.130   2.383   3.973  0.0971  0.3957 -0.4283
  395MOL0     O53238  -0.242   2.107   4.160  0.4357  0.1370 -0.1865
  395MOL0     C53239  -0.013   1.888   3.988 -0.3920 -0.0687 -0.1441
  395MOL0     C53240   0.006   1.760   3.945  1.1487  0.5113 -0.0562
  395MOL0     N53241   0.506   1.187   3.911  0.1170 -0.2578  0.7935
  395MOL0     N53242   0.600   1.111   3.871 -0.6227 -0.4692 -0.0844
  395MOL0     C53243   1.269   0.403   3.216 -0.1581  0.2446  0.1828
  395MOL0     C53244   1.372   0.307   3.186  0.7701  0.1887 -0.5154
  395MOL0     C53245   1.771   0.065   3.291  0.2131 -0.6145  0.8318
  395MOL0     C53246   1.730  -0.051   3.215 -0.5648  0.3460  0.9069
  395MOL0     C53247   1.802  -0.168   3.213 -0.2407  0.6470  0.8261
  395MOL0     C53248   1.926  -0.176   3.265  0.1915 -0.1075  0.1610
  395MOL0     O53249   2.018  -0.278   3.255  1.0334 -0.3864  0.3105
  395MOL0     C53250   2.013  -0.377   3.150 -1.0613  0.1781 -0.2245
  395MOL0     C53251   2.038  -0.318   3.012  0.1929 -0.0811  0.1117
  395MOL0     C53252   2.017  -0.427   2.904 -0.6539  0.1086  0.3834
  395MOL0     C53253   1.920  -0.389   2.795  1.1861  0.5388  0.0851
  395MOL0     C53254   1.788  -0.356   2.850  0.1073 -0.9405  0.2534
  395MOL0     C53255   1.684  -0.336   2.909 -0.2431  0.9753  1.3928
  395MOL0     C53256   1.970  -0.062   3.346 -0.0575  0.6716 -0.2140
  395MOL0     C53257   1.895   0.062   3.360 -0.2237 -0.0916  0.5731
  395MOL0     H53258   1.477   0.271   3.517  2.8259  1.4774 -0.4598
  395MOL0     H53259   1.281   0.427   3.551  0.3158 -0.7373  0.6933
  395MOL0     H53260   1.149   0.638   3.192 -2.1550  3.6084 -1.1042
  395MOL0     H53261   0.986   0.589   3.237  0.0188 -0.4342  1.7967
  395MOL0     H53262   1.164   0.777   3.389 -0.2563  3.6277 -1.2994
  395MOL0     H53263   1.045   0.832   3.296 -0.8619  1.0557  1.8447
  395MOL0     H53264   1.026   0.674   3.558 -1.5168  0.3094  1.4013
  395MOL0     H53265   0.947   0.827   3.510  1.6960 -0.4403  0.9162
  395MOL0     H53266   0.791   0.713   3.369 -0.4253  1.2233  1.8981
  395MOL0     H53267   0.855   0.553   3.411  2.9166 -1.2333  2.6299
  395MOL0     H53268   0.681   0.556   3.564 -0.8816  0.0533  0.0900
  395MOL0     H53269   0.796   0.641   3.662 -2.6867  0.4443  0.6520
  395MOL0     H53270   0.722   0.870   3.583  0.2687 -0.3629  0.4249
  395MOL0     H53271   0.597   0.808   3.490 -2.7004 -2.0051  1.1423
  395MOL0     H53272   0.466   0.834   3.681  1.9573  1.3100 -2.2463
  395MOL0     H53273   0.545   0.684   3.740 -0.0197  0.2984 -1.0650
  395MOL0     H53274   0.727   0.889   3.823  0.8250 -0.5673  1.1098
  395MOL0     H53275   0.601   0.821   3.920  0.0865  2.3999  0.9467
  395MOL0     H53276   0.340   0.915   3.879 -1.5717  1.9329  3.1255
  395MOL0     H53277   0.179   1.118   3.943 -0.1794  0.1530  3.0789
  395MOL0     H53278   0.258   1.162   4.083  1.6358  3.2109  0.0710
  395MOL0     H53279   0.257   1.308   3.809 -1.2070 -4.9397  0.6597
  395MOL0     H53280   0.319   1.388   3.961  2.3547 -3.3082 -0.1771
  395MOL0     H53281   0.067   1.337   4.044 -2.2874  1.8798  0.0178
  395MOL0     H53282   0.033   1.284   3.869 -0.2353  0.9181 -1.1053
  395MOL0     H53283   0.043   1.495   3.794 -2.0784  0.2761 -0.3555
  395MOL0     H53284   0.144   1.539   3.932  0.9336 -0.5978 -0.6767
  395MOL0     H53285  -0.245   1.599   4.117 -0.3274  1.1291  3.5344
  395MOL0     H53286  -0.417   1.880   4.148  2.1334  2.7315 -0.5366
  395MOL0     H53287  -0.377   1.737   4.233 -3.6934  1.3975  0.5389
  395MOL0     H53288  -0.308   1.896   4.290 -0.1706  1.0106 -0.8375
  395MOL0     H53289   0.038   2.276   4.244 -1.0994 -0.5533  0.2662
  395MOL0     H53290   0.051   2.530   4.283 -2.0440  1.4923  0.1080
  395MOL0     H53291  -0.219   2.777   4.042 -0.4541  1.0485  0.0977
  395MOL0     H53292  -0.124   2.889   4.132 -0.6928 -1.1050  0.4852
  395MOL0     H53293   0.048   2.890   3.978 -0.0760 -0.0823 -1.4730
  395MOL0     H53294  -0.052   2.780   3.865 -2.4742 -0.6433  0.6912
  395MOL0     H53295  -0.210   2.957   3.842  1.7567  0.2969 -1.5344
  395MOL0     H53296  -0.046   3.004   3.791 -0.1553  1.0133 -0.8635
  395MOL0     H53297  -0.206   3.095   4.043 -0.1386 -0.6256  0.8745
  395MOL0     H53298  -0.026   3.094   4.052  0.0925  0.7654 -1.1839
  395MOL0     H53299  -0.172   3.242   3.847 -0.3743 -1.1390  0.8428
  395MOL0     H53300  -0.003   3.216   3.848 -1.1464  0.6142 -0.4193
  395MOL0     H53301  -0.161   3.368   4.086 -0.1444 -0.7365 -1.0268
  395MOL0     H53302   0.003   3.312   4.099  0.7744  1.2757  0.5499
  395MOL0     H53303   0.056   3.458   3.889  2.7481  0.3497  2.2230
  395MOL0     H53304   0.053   3.505   4.051 -0.1462 -3.9935  1.0836
  395MOL0     H53305  -0.045   3.669   3.894 -0.6139  0.6059  2.4607
  395MOL0     H53306  -0.170   3.619   4.007 -0.4586 -2.1843  0.5631
  395MOL0     H53307  -0.184   2.588   3.936 -0.4519  1.6781  1.5785
  395MOL0     H53308  -0.171   2.360   3.875 -0.9068  0.6937 -0.0866
  395MOL0     H53309   0.048   1.965   3.942 -0.2917 -1.6819 -2.9375
  395MOL0     H53310   0.086   1.741   3.875  0.6679  2.7789 -1.2936
  395MOL0     H53311   1.194   0.407   3.138  1.0741 -1.9176 -1.2243
  395MOL0     H53312   1.368   0.264   3.086 -4.7200 -0.1641 -0.4434
  395MOL0     H53313   1.632  -0.048   3.169 -0.0536 -0.0362 -0.2247
  395MOL0     H53314   1.760  -0.256   3.164 -2.1187  2.3121 -0.7392
  395MOL0     H53315   2.087  -0.458   3.156 -0.4157  0.5615 -2.0443
  395MOL0     H53316   1.918  -0.430   3.156 -0.6065 -0.4689  2.7138
  395MOL0     H53317   2.144  -0.288   3.011  0.9352 -2.5133  0.6532
  395MOL0     H53318   1.968  -0.235   2.999 -0.6562 -0.2132  3.1103
  395MOL0     H53319   1.990  -0.520   2.955 -0.6937 -0.1619 -0.1166
  395MOL0     H53320   2.115  -0.441   2.857  0.1863  0.1641  2.0685
  395MOL0     H53321   1.900  -0.468   2.723 -0.2339  1.8337 -1.0112
  395MOL0     H53322   1.970  -0.311   2.736  2.2974 -0.5803 -0.4939
  395MOL0     H53323   1.590  -0.312   2.954 -1.9746 -2.2329 -0.1068
  395MOL0     H53324   2.059  -0.084   3.404 -0.0265  0.3137 -0.3971
  395MOL0     H53325   1.925   0.143   3.426  0.1070 -0.5467  0.9859
  396MOL0     O53326   0.430   2.660   2.916  0.8040 -0.0441  0.2544
  396MOL0     C53327   0.341   2.742   2.877 -0.0900  0.0528  0.2921
  396MOL0     O53328   0.353   2.877   2.901  0.5707 -0.5122 -0.0517
  396MOL0     C53329   0.467   2.912   2.971 -0.9321  0.3695  0.7109
  396MOL0     C53330   0.458   2.912   3.110 -1.1963 -0.3501 -0.5572
  396MOL0     C53331   0.574   2.943   3.185 -0.5994 -0.0591 -1.3597
  396MOL0     C53332   0.696   2.970   3.119  0.8461  0.1768  0.0654
  396MOL0     O53333   0.812   3.017   3.169 -0.6282  0.9577  0.4056
  396MOL0     C53334   0.838   3.027   3.309  0.6648 -0.3187  0.8259
  396MOL0     C53335   0.986   2.999   3.336 -0.8162  0.3171  1.0979
  396MOL0     C53336   1.033   2.860   3.276 -0.4281 -0.6254 -0.3287
  396MOL0     C53337   0.958   2.739   3.340  0.8897  0.6365 -0.5425
  396MOL0     C53338   0.993   2.612   3.261 -0.3575  0.0925 -0.6468
  396MOL0     C53339   0.887   2.594   3.159  0.1838 -0.1738  0.1777
  396MOL0     C53340   0.904   2.465   3.069  0.0990 -1.4058 -0.7495
  396MOL0     C53341   0.936   2.337   3.154  0.1346 -0.0754  0.2770
  396MOL0     N53342   0.826   2.280   3.232  0.4811  0.1261  0.4155
  396MOL0     C53343   0.701   2.259   3.189 -0.3362  0.3755 -0.2548
  396MOL0     C53344   0.642   2.210   3.296  0.1334  0.2233 -0.0468
  396MOL0     C53345   0.493   2.182   3.289  0.6966  0.7593  0.2137
  396MOL0     C53346   0.420   2.172   3.423 -0.2479  0.1695  0.7510
  396MOL0     C53347   0.294   2.083   3.408  0.0281 -0.2968  0.2412
  396MOL0     C53348   0.168   2.145   3.336  0.1068 -0.4260 -0.6569
  396MOL0     O53349   0.066   2.046   3.371  0.6818 -0.2393  0.2684
  396MOL0     C53350  -0.026   2.017   3.275 -0.3678 -0.6312  0.3229
  396MOL0     C53351  -0.163   2.026   3.299 -0.5258  0.2071 -0.0355
  396MOL0     C53352  -0.251   2.009   3.197 -0.3729 -0.4226  0.5836
  396MOL0     C53353  -0.392   2.002   3.238  0.8732  0.4278  0.6069
  396MOL0     C53354  -0.208   1.962   3.064 -0.6690 -1.4506  1.0646
  396MOL0     C53355  -0.302   1.952   2.947 -0.2210  0.5037  0.8295
  396MOL0     O53356  -0.267   1.859   2.855 -0.1364  0.6652  0.0602
  396MOL0     C53357  -0.350   1.839   2.750  0.0847 -0.0047  0.0154
  396MOL0     C53358  -0.389   1.712   2.716  0.5130 -0.8742 -0.5499
  396MOL0     C53359  -0.464   1.684   2.601 -0.2631  0.1500  0.7007
  396MOL0     C53360  -0.489   1.786   2.508 -0.2557  0.9496 -0.0900
  396MOL0     O53361  -0.543   1.750   2.386  0.0496 -0.0623 -0.2670
  396MOL0     C53362  -0.532   1.844   2.284 -0.0204 -0.7795 -0.2801
  396MOL0     C53363  -0.554   1.760   2.149 -0.4164  0.3574 -0.4511
  396MOL0     C53364  -0.541   1.846   2.024  0.8170  0.2094 -0.2793
  396MOL0     C53365  -0.564   1.772   1.890 -0.0714 -0.9446  0.3254
  396MOL0     C53366  -0.712   1.775   1.844  1.0766  0.1061 -1.6184
  396MOL0     C53367  -0.729   1.798   1.693 -0.2341 -0.8185  0.3396
  396MOL0     C53368  -0.876   1.797   1.667 -0.2413 -0.1407  1.0268
  396MOL0     C53369  -0.923   1.794   1.514  0.0992 -0.2726 -0.5477
  396MOL0    Cl53370  -0.945   1.633   1.444  0.6506  0.2696 -0.0200
  396MOL0     C53371  -0.464   1.920   2.546  0.8493 -1.0641 -0.0358
  396MOL0     C53372  -0.391   1.951   2.662  0.4107  0.3905  0.0057
  396MOL0     O53373  -0.411   2.007   2.948 -0.1076 -1.6162  0.3466
  396MOL0     C53374  -0.070   1.963   3.037 -0.0346  0.7197  0.7856
  396MOL0     C53375   0.015   1.987   3.143 -0.2414 -0.3848  0.4759
  396MOL0     N53376   0.729   2.195   3.404  0.8323  0.8079  0.3125
  396MOL0     N53377   0.841   2.226   3.353 -0.2218  0.2670  0.6499
  396MOL0     C53378   0.702   2.967   2.972  0.8244  0.5913 -0.3328
  396MOL0     C53379   0.582   2.946   2.903  0.0385 -0.1637 -0.1292
  396MOL0     C53380   0.227   2.689   2.801 -0.4520  0.4879  0.0873
  396MOL0     C53381   0.240   2.561   2.732 -0.1159 -0.4801 -0.2471
  396MOL0     C53382   0.132   2.518   2.646 -0.3824 -0.1113  0.1538
  396MOL0     C53383   0.022   2.591   2.636 -0.0176  0.1910 -0.0845
  396MOL0     O53384  -0.076   2.556   2.544  0.6315  0.0609 -0.6446
  396MOL0     C53385  -0.150   2.435   2.583  0.0922  0.4531  0.6807
  396MOL0     C53386  -0.300   2.455   2.587  0.2213  0.1441 -0.3353
  396MOL0     C53387  -0.379   2.491   2.452 -0.5842 -0.2513  0.6618
  396MOL0     C53388  -0.468   2.378   2.410  0.4509  0.8525 -0.4479
  396MOL0     C53389  -0.392   2.270   2.349  0.8588 -0.3064  0.0483
  396MOL0     C53390  -0.325   2.181   2.301 -1.2487  0.9087 -0.0481
  396MOL0     C53391   0.009   2.712   2.707 -0.3241 -0.8038  0.0628
  396MOL0     C53392   0.108   2.758   2.791 -0.2543 -0.4424 -0.2164
  396MOL0     H53393   0.367   2.875   3.156 -0.6348 -3.3311 -1.5982
  396MOL0     H53394   0.573   2.950   3.293  2.2754 -0.8319 -1.1892
  396MOL0     H53395   0.807   3.129   3.334 -0.1002  0.6061 -3.2511
  396MOL0     H53396   0.772   2.959   3.364 -0.6196  0.1420 -0.0986
  396MOL0     H53397   1.037   3.087   3.296 -2.2121  0.4255 -0.5758
  396MOL0     H53398   1.018   2.996   3.440  0.0177 -2.0705  0.8272
  396MOL0     H53399   1.043   2.859   3.167  1.4595 -1.1279 -0.1950
  396MOL0     H53400   1.136   2.852   3.311 -1.2993 -2.1372  2.2118
  396MOL0     H53401   1.000   2.732   3.440  2.0675  0.1204 -1.0537
  396MOL0     H53402   0.849   2.749   3.342  0.8882  1.1731 -2.0945
  396MOL0     H53403   1.094   2.607   3.220 -0.1093  1.7029 -0.3303
  396MOL0     H53404   0.986   2.533   3.337  1.2404  1.0491  0.5704
  396MOL0     H53405   0.790   2.597   3.210  0.3796  0.2870  0.5302
  396MOL0     H53406   0.885   2.675   3.086  0.3382 -0.4462 -0.1336
  396MOL0     H53407   0.808   2.441   3.023 -2.3059  3.2908  1.2027
  396MOL0     H53408   0.971   2.495   2.988  0.6562 -0.2044  0.1248
  396MOL0     H53409   1.016   2.357   3.226 -0.3645 -1.1383  1.1538
  396MOL0     H53410   0.963   2.252   3.090 -2.4173 -2.9498  2.7192
  396MOL0     H53411   0.662   2.263   3.088 -1.9952 -0.3266  0.3339
  396MOL0     H53412   0.437   2.257   3.233 -1.3178 -2.5473 -2.5574
  396MOL0     H53413   0.478   2.096   3.223 -1.2222  0.9226  0.3887
  396MOL0     H53414   0.401   2.275   3.456 -2.8013  0.7999 -2.1602
  396MOL0     H53415   0.481   2.113   3.491 -0.4742 -0.9288  0.0217
  396MOL0     H53416   0.253   2.055   3.506 -0.7682 -2.1788 -0.5770
  396MOL0     H53417   0.310   1.986   3.359  1.2622 -1.0267  1.9911
  396MOL0     H53418   0.189   2.160   3.230  0.3282  1.4746 -0.3674
  396MOL0     H53419   0.143   2.244   3.376 -3.1931 -1.5758  0.4622
  396MOL0     H53420  -0.207   2.057   3.394 -0.4818  0.9460 -0.2486
  396MOL0     H53421  -0.456   2.082   3.198  0.3506 -0.0866  0.4041
  396MOL0     H53422  -0.439   1.915   3.191  3.8455 -0.8195 -0.2484
  396MOL0     H53423  -0.409   2.004   3.346 -1.2067  2.4608  0.3468
  396MOL0     H53424  -0.358   1.629   2.779 -0.1144 -0.3174  0.5401
  396MOL0     H53425  -0.488   1.580   2.580 -0.9406  0.6158 -1.0325
  396MOL0     H53426  -0.588   1.936   2.299  0.7561  0.0669 -2.3298
  396MOL0     H53427  -0.429   1.878   2.270 -0.3648  0.6578  0.4601
  396MOL0     H53428  -0.483   1.678   2.164  1.5868  2.3692  2.0526
  396MOL0     H53429  -0.653   1.714   2.153  0.5709 -1.8401  1.2948
  396MOL0     H53430  -0.437   1.879   2.026  1.6886 -2.3169 -0.4030
  396MOL0     H53431  -0.612   1.929   2.034 -2.4916 -2.5539  1.2530
  396MOL0     H53432  -0.513   1.841   1.821 -2.3997  2.0139  1.3523
  396MOL0     H53433  -0.527   1.670   1.878 -0.1114 -0.6189 -4.7897
  396MOL0     H53434  -0.757   1.858   1.899  3.2423 -0.2932  0.9623
  396MOL0     H53435  -0.754   1.679   1.873  0.7161  1.0581  1.3357
  396MOL0     H53436  -0.673   1.886   1.661 -0.4632 -1.2271 -1.2961
  396MOL0     H53437  -0.677   1.719   1.637  1.8210 -0.1318  1.1740
  396MOL0     H53438  -0.919   1.886   1.714  0.4729  0.9503 -0.3050
  396MOL0     H53439  -0.919   1.702   1.701  0.0225 -0.5724  0.1913
  396MOL0     H53440  -0.854   1.852   1.453 -2.2665  1.0029 -2.1473
  396MOL0     H53441  -1.024   1.836   1.517 -0.1211 -0.8585  0.5204
  396MOL0     H53442  -0.484   2.000   2.475  2.6912  0.3744  0.9772
  396MOL0     H53443  -0.368   2.056   2.675 -1.5510  1.0393 -1.2886
  396MOL0     H53444  -0.020   1.929   2.947 -0.6180 -2.2905  1.4821
  396MOL0     H53445   0.120   1.989   3.117 -0.5882 -0.5971 -1.0514
  396MOL0     H53446   0.803   2.989   2.937  0.2354  1.8269 -1.3434
  396MOL0     H53447   0.569   2.958   2.796  0.3585  2.3753  0.0433
  396MOL0     H53448   0.329   2.500   2.738  0.3239  0.0480 -1.1821
  396MOL0     H53449   0.147   2.428   2.587  0.8151  2.1219 -3.2592
  396MOL0     H53450  -0.127   2.351   2.518  1.3186 -0.1324  1.8267
  396MOL0     H53451  -0.118   2.411   2.685  0.9238 -1.3016  0.0481
  396MOL0     H53452  -0.322   2.530   2.664  1.3779  1.4074 -1.1804
  396MOL0     H53453  -0.328   2.361   2.636 -0.6757  1.5351  2.0531
  396MOL0     H53454  -0.312   2.515   2.368 -1.5699 -0.4031 -0.1816
  396MOL0     H53455  -0.457   2.567   2.462  0.2777  0.7733 -0.1194
  396MOL0     H53456  -0.555   2.406   2.349 -0.9935 -0.8781  0.7463
  396MOL0     H53457  -0.507   2.336   2.502 -2.8354 -2.7806 -3.1883
  396MOL0     H53458  -0.281   2.098   2.249 -2.1046 -1.1493  2.3405
  396MOL0     H53459  -0.081   2.769   2.686  0.8112  0.3739 -1.9858
  396MOL0     H53460   0.093   2.854   2.841  0.2494 -0.1608 -0.5915
  397MOL0     O53461   1.256   8.218  10.703  1.1110  0.2002 -0.0183
  397MOL0     C53462   1.269   8.262  10.817 -0.0122  0.3899  0.3060
  397MOL0     O53463   1.306   8.388  10.847  0.7937  0.7321 -0.1812
  397MOL0     C53464   1.321   8.462  10.732 -0.2244  0.3001 -0.2357
  397MOL0     C53465   1.219   8.527  10.673  0.1056 -0.5053 -0.5911
  397MOL0     C53466   1.245   8.604  10.564 -0.4554 -0.1442 -0.6534
  397MOL0     C53467   1.366   8.625  10.511 -0.5906 -0.0462 -0.9330
  397MOL0     O53468   1.371   8.719  10.405  0.0305 -0.2505 -0.7112
  397MOL0     C53469   1.490   8.801  10.396 -0.0860 -1.4108  0.5496
  397MOL0     C53470   1.499   8.885  10.268 -1.0465  0.6606  0.1486
  397MOL0     C53471   1.644   8.925  10.237 -0.2698 -0.6038 -0.7400
  397MOL0     C53472   1.666   8.909  10.088  0.0767  0.5875  0.5088
  397MOL0     C53473   1.799   8.958  10.048  0.3458  0.5698  0.6556
  397MOL0     C53474   1.824   8.939   9.898 -0.0333 -0.4563 -0.2625
  397MOL0     C53475   1.796   8.800   9.833  0.4929  0.2156  0.0916
  397MOL0     C53476   1.656   8.777   9.778 -0.5705  0.7883 -0.0564
  397MOL0     N53477   1.629   8.879   9.684  0.1372  0.6529  0.0451
  397MOL0     C53478   1.688   8.901   9.560 -0.2185 -0.7979 -1.3273
  397MOL0     C53479   1.637   9.023   9.522 -0.2332 -0.1312  1.3473
  397MOL0     C53480   1.653   9.096   9.395 -0.2857 -0.3098 -0.3319
  397MOL0     C53481   1.784   9.054   9.334 -0.0909 -0.0832  0.3516
  397MOL0     C53482   1.838   9.132   9.213 -0.0802 -0.1678  1.4260
  397MOL0     C53483   1.933   9.038   9.130 -0.1797  0.1795  0.7351
  397MOL0     O53484   2.033   8.982   9.214 -0.0549 -0.2275 -0.1182
  397MOL0     C53485   2.086   8.865   9.165  0.5776  0.0373 -0.8441
  397MOL0     C53486   2.167   8.860   9.049  0.6281 -0.0660 -0.3260
  397MOL0     C53487   2.211   8.733   8.999  0.0171 -0.4289 -0.7746
  397MOL0     C53488   2.291   8.742   8.874  1.1735  0.2909  0.1381
  397MOL0     C53489   2.182   8.615   9.072 -0.2150  0.3787  0.5054
  397MOL0     C53490   2.235   8.477   9.035 -0.3633 -0.6773 -1.2534
  397MOL0     O53491   2.303   8.462   8.916 -0.6784 -0.3976  0.0777
  397MOL0     C53492   2.374   8.347   8.887  0.5205 -1.3191  0.8394
  397MOL0     C53493   2.316   8.221   8.885  0.7782  0.6983 -0.8429
  397MOL0     C53494   2.378   8.114   8.828 -0.3436  0.2767 -0.5717
  397MOL0     C53495   2.513   8.124   8.781  0.4660  1.0477  0.0039
  397MOL0     O53496   2.578   8.027   8.712 -0.5342  0.4729 -0.4449
  397MOL0     C53497   2.502   7.932   8.629  0.2881  0.0409  0.1417
  397MOL0     C53498   2.575   7.878   8.504 -0.6558  0.2017  0.0303
  397MOL0     C53499   2.708   7.816   8.536 -1.5065 -0.3358 -0.0445
  397MOL0     C53500   2.691   7.668   8.567  0.7617  0.3945  0.5086
  397MOL0     C53501   2.826   7.595   8.609  1.2809 -0.0808 -0.1224
  397MOL0     C53502   2.802   7.448   8.654  0.4199 -0.7423 -0.1154
  397MOL0     C53503   2.930   7.367   8.663  0.1404  0.3812  0.3246
  397MOL0     C53504   2.906   7.218   8.633  0.7399  0.4503 -0.0193
  397MOL0    Cl53505   3.058   7.115   8.621 -0.1230 -0.4638 -0.5660
  397MOL0     C53506   2.580   8.249   8.793  0.1062  0.5689  0.2912
  397MOL0     C53507   2.505   8.359   8.842  0.2561  0.0037  0.1114
  397MOL0     O53508   2.214   8.389   9.116 -0.4569  0.0237  0.3854
  397MOL0     C53509   2.111   8.626   9.191 -0.1854 -0.4631 -0.5031
  397MOL0     C53510   2.070   8.747   9.240  0.0233  0.4167  1.7323
  397MOL0     N53511   1.543   9.057   9.620 -0.3560  0.1726  0.0798
  397MOL0     N53512   1.543   8.973   9.712  0.6244  0.5239 -0.3212
  397MOL0     C53513   1.474   8.565  10.576  0.0506 -0.7248 -0.1860
  397MOL0     C53514   1.446   8.480  10.685  0.2230 -0.1790  0.2682
  397MOL0     C53515   1.227   8.183  10.938  0.1899 -0.2966  0.0362
  397MOL0     C53516   1.148   8.083  10.910  1.2834  0.8653 -0.4122
  397MOL0     C53517   1.103   7.991  11.019  0.0936 -0.3660  0.5730
  397MOL0     C53518   1.150   8.017  11.146  0.9791 -0.5056 -0.4758
  397MOL0     O53519   1.111   7.933  11.248 -0.6962  0.0553 -0.0176
  397MOL0     C53520   1.122   7.797  11.224 -0.1353  0.1874  0.4502
  397MOL0     C53521   1.129   7.717  11.354 -0.6703 -0.3900  0.2977
  397MOL0     C53522   1.003   7.736  11.456  0.9145 -0.3519 -0.8608
  397MOL0     C53523   0.883   7.656  11.409  0.0223 -0.1274 -0.7797
  397MOL0     C53524   0.808   7.598  11.522 -0.0731  1.3634  1.0513
  397MOL0     C53525   0.755   7.532  11.615 -0.3308 -0.6161 -0.3859
  397MOL0     C53526   1.232   8.135  11.173  0.4095  0.1649  0.6450
  397MOL0     C53527   1.272   8.217  11.066  0.3595  0.4854 -0.3154
  397MOL0     H53528   1.116   8.520  10.706  0.2362  0.0149 -0.0638
  397MOL0     H53529   1.158   8.651  10.518 -0.8506 -0.1169  0.1012
  397MOL0     H53530   1.484   8.866  10.483 -2.6729 -0.7359 -0.0461
  397MOL0     H53531   1.579   8.737  10.393  1.8460  1.1896 -0.4126
  397MOL0     H53532   1.449   8.838  10.183 -0.0505  1.3877 -0.8738
  397MOL0     H53533   1.441   8.971  10.300  0.1467  1.2497  0.8064
  397MOL0     H53534   1.655   9.026  10.277  2.8010 -1.3697  0.6807
  397MOL0     H53535   1.713   8.868  10.300 -1.6671 -1.2932  0.2224
  397MOL0     H53536   1.657   8.801  10.073 -0.9819  0.8443 -0.8730
  397MOL0     H53537   1.588   8.960  10.031  0.0252 -2.0907 -2.0636
  397MOL0     H53538   1.806   9.066  10.064  1.0591  0.8032 -1.0391
  397MOL0     H53539   1.884   8.903  10.090  0.5709 -0.3599 -0.9231
  397MOL0     H53540   1.760   9.015   9.854  3.7744  3.2043 -0.0606
  397MOL0     H53541   1.925   8.966   9.867 -0.0491  0.9385  0.7694
  397MOL0     H53542   1.865   8.795   9.749 -0.0231  1.4107 -0.4298
  397MOL0     H53543   1.814   8.723   9.909 -2.8747 -1.6054 -0.7562
  397MOL0     H53544   1.581   8.767   9.857  0.6162 -1.0054  0.9075
  397MOL0     H53545   1.666   8.678   9.731  3.7831  0.5140  1.0248
  397MOL0     H53546   1.762   8.834   9.518  1.7511 -0.3207  1.1074
  397MOL0     H53547   1.564   9.073   9.335  0.0184 -0.9556 -0.5482
  397MOL0     H53548   1.659   9.204   9.407  1.1821 -0.0427 -2.7664
  397MOL0     H53549   1.771   8.951   9.302 -0.3288  0.3426 -0.9890
  397MOL0     H53550   1.856   9.042   9.416 -1.3224  0.4367  1.5477
  397MOL0     H53551   1.883   9.225   9.249 -2.3262  0.3010  3.2228
  397MOL0     H53552   1.752   9.149   9.149 -0.0317 -0.4168  1.2938
  397MOL0     H53553   1.986   9.097   9.055 -1.3647 -2.7486 -2.7290
  397MOL0     H53554   1.894   8.960   9.064  1.4227 -1.0163  1.1292
  397MOL0     H53555   2.185   8.958   9.006 -0.7609  0.4777  0.2725
  397MOL0     H53556   2.395   8.716   8.899  0.8632 -1.9647 -0.6914
  397MOL0     H53557   2.261   8.676   8.792 -0.3048  0.3216  0.6349
  397MOL0     H53558   2.302   8.845   8.836  1.7414  0.7467  1.4641
  397MOL0     H53559   2.216   8.207   8.925 -0.0002 -0.5466 -3.0467
  397MOL0     H53560   2.321   8.022   8.822 -1.1797  0.6854  0.7856
  397MOL0     H53561   2.472   7.849   8.695  2.0807 -1.5182 -0.8995
  397MOL0     H53562   2.411   7.977   8.590 -0.0358 -0.0101  0.8170
  397MOL0     H53563   2.507   7.810   8.452 -2.5749  1.8400  0.2723
  397MOL0     H53564   2.589   7.962   8.436 -2.2328  2.7771  2.6267
  397MOL0     H53565   2.758   7.874   8.616 -1.6070  2.9600 -2.1717
  397MOL0     H53566   2.788   7.820   8.461  0.2845 -2.0938  1.6346
  397MOL0     H53567   2.614   7.670   8.645  0.4640 -0.4069  0.2432
  397MOL0     H53568   2.657   7.616   8.477 -2.3478 -0.7133  2.1521
  397MOL0     H53569   2.874   7.652   8.690  2.2989  1.9179 -2.0164
  397MOL0     H53570   2.899   7.600   8.528  0.2307 -1.9148 -1.2475
  397MOL0     H53571   2.756   7.451   8.753  0.5440 -0.4764 -0.0635
  397MOL0     H53572   2.730   7.401   8.586 -2.0967  1.0461  1.1740
  397MOL0     H53573   2.967   7.377   8.766  0.4166  0.0800  0.2576
  397MOL0     H53574   3.020   7.393   8.607  0.4013  0.3175  0.7110
  397MOL0     H53575   2.855   7.205   8.537  0.8120  0.0432 -0.0019
  397MOL0     H53576   2.845   7.171   8.710 -0.6888  2.5596  0.2388
  397MOL0     H53577   2.680   8.253   8.752 -0.8107  0.0816 -2.1991
  397MOL0     H53578   2.544   8.460   8.835  3.3500 -1.0517  0.4230
  397MOL0     H53579   2.094   8.543   9.259  0.6353  0.0181  0.3055
  397MOL0     H53580   2.037   8.750   9.343  2.0803 -0.8906  2.4897
  397MOL0     H53581   1.578   8.584  10.550  0.8675 -0.2783  2.9812
  397MOL0     H53582   1.531   8.450  10.745  1.2106  1.1197 -0.4266
  397MOL0     H53583   1.133   8.059  10.805  4.4895 -0.8208 -0.5870
  397MOL0     H53584   1.042   7.905  10.995 -1.4168  0.8517 -0.1140
  397MOL0     H53585   1.031   7.784  11.165  0.2862  0.8910 -0.4009
  397MOL0     H53586   1.209   7.787  11.157 -1.1231 -0.4163 -0.7792
  397MOL0     H53587   1.216   7.750  11.412  1.7414 -2.7388 -1.7014
  397MOL0     H53588   1.142   7.611  11.328  3.2945  0.2597 -1.1884
  397MOL0     H53589   0.970   7.841  11.458 -0.3891 -0.7456 -0.4417
  397MOL0     H53590   1.021   7.711  11.561  0.4822 -0.4699 -0.8108
  397MOL0     H53591   0.929   7.570  11.359 -1.5118 -2.5042  1.6289
  397MOL0     H53592   0.817   7.705  11.336  0.7677  0.4590 -1.0720
  397MOL0     H53593   0.695   7.494  11.695 -2.2289  0.9392 -0.9745
  397MOL0     H53594   1.265   8.161  11.273 -2.3863  0.5004  1.5630
  397MOL0     H53595   1.349   8.293  11.067  1.9850 -1.0954  0.8139
  398MOL0     O53596   9.290   7.192   0.578 -0.3281 -0.2647 -0.4658
  398MOL0     C53597   9.205   7.182   0.488  0.3183  0.1652  0.3261
  398MOL0     O53598   9.199   7.257   0.371  1.4003  0.4453  0.0952
  398MOL0     C53599   9.283   7.370   0.363  0.5363 -1.0972  0.4227
  398MOL0     C53600   9.397   7.361   0.282 -0.8049  0.5675  0.2342
  398MOL0     C53601   9.478   7.478   0.255  0.2289 -0.1667 -0.3058
  398MOL0     C53602   9.447   7.602   0.313  0.2328 -0.9530 -0.3438
  398MOL0     O53603   9.536   7.711   0.300  0.1177  0.5332  0.3923
  398MOL0     C53604   9.540   7.802   0.418 -0.9570  0.5382  0.0703
  398MOL0     C53605   9.688   7.845   0.433 -0.0047 -0.1692  0.7115
  398MOL0     C53606   9.719   7.933   0.557 -1.1009  0.5215  0.3139
  398MOL0     C53607   9.861   7.910   0.591 -0.5249 -0.1916  0.5172
  398MOL0     C53608   9.909   8.011   0.694 -0.5731  0.0951 -0.2242
  398MOL0     C53609  10.065   8.023   0.706 -0.1474  0.5473 -0.8793
  398MOL0     C53610  10.119   7.909   0.792 -0.7357  0.7407  0.5416
  398MOL0     C53611  10.240   7.950   0.878  0.4718 -0.4030 -0.2375
  398MOL0     N53612  10.294   7.830   0.947  0.6216 -0.0703 -0.1087
  398MOL0     C53613  10.279   7.814   1.089  0.4547 -1.1424 -0.1626
  398MOL0     C53614  10.359   7.705   1.101  0.5852  0.1246 -0.2571
  398MOL0     C53615  10.362   7.622   1.229 -0.0754 -0.8494 -1.1859
  398MOL0     C53616  10.472   7.650   1.330 -0.3500 -0.4848 -0.8488
  398MOL0     C53617  10.599   7.641   1.254 -0.6075  0.5762 -0.7930
  398MOL0     C53618  10.723   7.651   1.350  0.7193 -0.1482  0.0798
  398MOL0     O53619  10.754   7.522   1.410  0.4864 -0.1080  0.6064
  398MOL0     C53620  10.876   7.502   1.455 -0.6454 -0.5753  0.3869
  398MOL0     C53621  10.954   7.605   1.514 -0.4783  0.0245  0.3095
  398MOL0     C53622  11.084   7.586   1.577  0.2711  1.8161 -1.5587
  398MOL0     C53623  11.149   7.700   1.665  0.0349  0.0352  0.4258
  398MOL0     C53624  11.139   7.453   1.568  0.3864 -1.0099  0.5666
  398MOL0     C53625  11.247   7.397   1.647  0.1443 -0.7947  0.2818
  398MOL0     O53626  11.351   7.484   1.674 -0.3452  0.3403  0.2491
  398MOL0     C53627  11.458   7.442   1.754  0.7027  0.1872 -0.1951
  398MOL0     C53628  11.542   7.328   1.717 -0.3215 -0.6102  0.1643
  398MOL0     C53629  11.633   7.276   1.812  0.7930 -0.3842 -0.2777
  398MOL0     C53630  11.636   7.333   1.941 -0.5899 -0.2151  0.1297
  398MOL0     O53631  11.722   7.268   2.029 -0.3766 -0.4467 -0.0732
  398MOL0     C53632  11.706   7.296   2.168 -0.1518  0.4668 -0.1442
  398MOL0     C53633  11.768   7.197   2.250  0.0368  0.2215 -0.0138
  398MOL0     C53634  11.804   7.259   2.389  0.7142  0.3122  0.2280
  398MOL0     C53635  11.924   7.192   2.458 -0.1170  0.0339 -0.4957
  398MOL0     C53636  11.920   7.173   2.612  0.9561 -0.1543 -0.3016
  398MOL0     C53637  12.054   7.105   2.657 -0.6595 -1.0661  0.3642
  398MOL0     C53638  12.041   7.057   2.793  0.4146 -0.5185 -0.0912
  398MOL0     C53639  12.169   7.015   2.861  0.3751  0.7436 -0.3353
  398MOL0    Cl53640  12.125   6.976   3.035 -0.1323 -0.1178  0.1973
  398MOL0     C53641  11.569   7.448   1.979  0.8559 -0.3377 -0.0357
  398MOL0     C53642  11.478   7.496   1.882  0.3964  0.5011 -1.3211
  398MOL0     O53643  11.252   7.279   1.671 -0.0177 -0.1258 -0.2796
  398MOL0     C53644  11.065   7.355   1.496  0.4901  0.8548 -0.4936
  398MOL0     C53645  10.935   7.380   1.447  0.8026  0.5742 -0.2598
  398MOL0     N53646  10.420   7.669   0.978  0.6693 -0.7813  0.0036
  398MOL0     N53647  10.388   7.756   0.892  0.2484  0.4538 -0.0240
  398MOL0     C53648   9.329   7.610   0.391  0.4175  0.4748 -0.5246
  398MOL0     C53649   9.246   7.493   0.413  0.0667 -0.6345 -0.1725
  398MOL0     C53650   9.091   7.103   0.511 -0.4965 -0.2077 -0.5608
  398MOL0     C53651   8.999   7.083   0.413  0.3674 -0.3426 -0.0878
  398MOL0     C53652   8.885   7.003   0.435  0.3983 -1.1082  0.1819
  398MOL0     C53653   8.859   6.956   0.563 -0.2506  0.7337  0.4945
  398MOL0     O53654   8.748   6.880   0.561 -0.0271 -0.8355  0.2921
  398MOL0     C53655   8.693   6.854   0.690  0.0835 -0.0755 -0.9077
  398MOL0     C53656   8.569   6.758   0.691 -0.2846  0.3226  0.2252
  398MOL0     C53657   8.447   6.791   0.609  0.9868  0.5169  0.0859
  398MOL0     C53658   8.347   6.665   0.616 -0.3227  0.5293  0.4646
  398MOL0     C53659   8.362   6.574   0.498  0.8924 -1.1104 -1.0036
  398MOL0     C53660   8.354   6.502   0.403  0.3674  0.5892  0.0424
  398MOL0     C53661   8.952   6.976   0.663 -0.1009 -0.1646 -0.8717
  398MOL0     C53662   9.068   7.046   0.637  0.0947 -0.4872 -0.1648
  398MOL0     H53663   9.420   7.266   0.234  0.5438 -0.0677  2.0439
  398MOL0     H53664   9.568   7.469   0.195  1.2878 -0.0602  1.2217
  398MOL0     H53665   9.468   7.883   0.399  0.9479  2.5306  0.8902
  398MOL0     H53666   9.531   7.740   0.507 -3.1229 -2.9318 -2.3361
  398MOL0     H53667   9.745   7.751   0.435 -1.5541 -1.1488  1.5804
  398MOL0     H53668   9.719   7.908   0.349 -3.0661 -0.0124 -0.4202
  398MOL0     H53669   9.703   8.040   0.538 -0.2050  0.3636 -1.5444
  398MOL0     H53670   9.649   7.900   0.634  1.5627 -1.9409  1.8462
  398MOL0     H53671   9.879   7.807   0.623  0.9697 -0.0900  0.0812
  398MOL0     H53672   9.919   7.918   0.498  0.7607 -0.9755  1.2270
  398MOL0     H53673   9.872   8.104   0.650 -3.1970  0.5732  2.6812
  398MOL0     H53674   9.854   8.001   0.788  1.5830  1.2659  1.2480
  398MOL0     H53675  10.109   8.009   0.606  0.6739  0.2059 -0.4825
  398MOL0     H53676  10.088   8.122   0.747 -1.6080  0.4620  0.2054
  398MOL0     H53677  10.042   7.870   0.859 -1.9277  0.0829 -1.1321
  398MOL0     H53678  10.148   7.824   0.729 -3.7764  0.8050 -1.1088
  398MOL0     H53679  10.196   8.024   0.945  0.6690 -1.3273  0.9609
  398MOL0     H53680  10.320   7.988   0.814  0.1335  1.7942  0.5772
  398MOL0     H53681  10.210   7.852   1.164  0.2562  0.2716 -1.0241
  398MOL0     H53682  10.270   7.637   1.287  0.0047 -2.7302 -0.5184
  398MOL0     H53683  10.365   7.517   1.201  1.3285 -1.1126 -0.1416
  398MOL0     H53684  10.462   7.570   1.404 -1.1509 -2.6990 -3.1505
  398MOL0     H53685  10.461   7.747   1.378 -1.8440 -0.1194 -1.8413
  398MOL0     H53686  10.605   7.718   1.176 -0.2845 -1.4553 -2.8535
  398MOL0     H53687  10.609   7.547   1.199 -2.7690 -0.1636  0.0039
  398MOL0     H53688  10.707   7.725   1.430  1.6550 -1.4925  1.5761
  398MOL0     H53689  10.795   7.690   1.279 -0.1766  0.0177 -0.7607
  398MOL0     H53690  10.911   7.705   1.517 -0.1788  0.1463  2.5798
  398MOL0     H53691  11.074   7.772   1.700  0.7337 -0.7921  4.0885
  398MOL0     H53692  11.194   7.655   1.754  2.4181 -0.4427 -0.9391
  398MOL0     H53693  11.219   7.751   1.599  0.5476  1.7012  2.1588
  398MOL0     H53694  11.549   7.291   1.615  2.5344  1.1781 -0.3929
  398MOL0     H53695  11.695   7.190   1.791  1.1462 -0.7758  2.1306
  398MOL0     H53696  11.738   7.398   2.191 -3.1120  1.2413  0.8887
  398MOL0     H53697  11.603   7.288   2.202 -0.1340 -2.7068 -0.5414
  398MOL0     H53698  11.682   7.130   2.263 -2.0187  2.0657 -2.9327
  398MOL0     H53699  11.856   7.153   2.202 -0.1331 -0.6667  0.4580
  398MOL0     H53700  11.720   7.232   2.455 -2.9058  2.8007 -2.9665
  398MOL0     H53701  11.810   7.367   2.375 -0.2420  0.3992  0.4640
  398MOL0     H53702  11.956   7.093   2.424  2.2075  0.2572  0.7972
  398MOL0     H53703  12.001   7.265   2.433 -1.3713  1.3133 -0.7330
  398MOL0     H53704  11.844   7.101   2.642  3.6733 -3.9479 -1.6930
  398MOL0     H53705  11.897   7.269   2.659 -2.2435 -0.3617 -1.1995
  398MOL0     H53706  12.088   7.025   2.591  2.4172  0.4029 -0.0125
  398MOL0     H53707  12.136   7.178   2.652 -1.0271 -0.4930  2.1023
  398MOL0     H53708  11.954   6.991   2.792 -2.2050  2.5277 -3.7942
  398MOL0     H53709  12.012   7.146   2.850  0.6833 -0.3641 -0.1934
  398MOL0     H53710  12.245   7.093   2.856  1.5075 -0.2991  0.2371
  398MOL0     H53711  12.213   6.927   2.816 -0.5164  0.9203 -1.6098
  398MOL0     H53712  11.593   7.498   2.073  0.0061 -1.2977  0.7241
  398MOL0     H53713  11.412   7.577   1.913  0.6414  0.5838 -1.0153
  398MOL0     H53714  11.100   7.253   1.497  2.8761  1.6024  0.2018
  398MOL0     H53715  10.875   7.311   1.388  1.5510  0.5728 -1.0536
  398MOL0     H53716   9.291   7.706   0.426 -0.7812 -1.3182  3.5413
  398MOL0     H53717   9.155   7.500   0.470 -0.6700  0.0124 -1.3819
  398MOL0     H53718   8.996   7.129   0.315 -0.9095 -0.6765 -0.2320
  398MOL0     H53719   8.812   6.991   0.355 -0.1201  2.7787 -0.0822
  398MOL0     H53720   8.774   6.807   0.748  0.1069  1.4373  0.3623
  398MOL0     H53721   8.654   6.936   0.751 -0.8589 -2.8658  2.5899
  398MOL0     H53722   8.527   6.748   0.792  1.9361 -0.6206  1.1123
  398MOL0     H53723   8.609   6.660   0.662  0.5369  0.3838  1.1234
  398MOL0     H53724   8.472   6.816   0.505  0.4358  3.3868  0.5658
  398MOL0     H53725   8.414   6.887   0.649  0.3980  0.4285 -0.1815
  398MOL0     H53726   8.244   6.703   0.620 -0.1692  0.9430  0.6025
  398MOL0     H53727   8.352   6.606   0.708  0.2782  1.7322  1.2450
  398MOL0     H53728   8.350   6.439   0.316 -1.4465 -0.8143  1.0505
  398MOL0     H53729   8.933   6.950   0.767 -2.7351  0.5094 -1.1115
  398MOL0     H53730   9.139   7.069   0.715 -0.8827  3.6056 -0.2864
  399MOL0     O53731   6.859   2.895   0.232 -1.1389 -0.5442 -0.3362
  399MOL0     C53732   6.860   2.881   0.108  0.5536 -0.3157  0.2774
  399MOL0     O53733   6.762   2.810   0.032 -0.5507 -0.1074  0.3066
  399MOL0     C53734   6.654   2.772   0.098  0.0887  0.0665 -0.5431
  399MOL0     C53735   6.558   2.863   0.139  0.4546  0.3673  0.8225
  399MOL0     C53736   6.445   2.826   0.211 -0.6525 -0.5442  0.4724
  399MOL0     C53737   6.424   2.696   0.245  0.2723  0.3771 -0.7561
  399MOL0     O53738   6.324   2.647   0.332 -0.0227  0.0210  0.3430
  399MOL0     C53739   6.227   2.741   0.381 -0.7765  0.6709  0.3265
  399MOL0     C53740   6.131   2.660   0.454  0.8458  0.2561 -0.1035
  399MOL0     C53741   6.192   2.569   0.564 -0.9704 -0.3641  0.0676
  399MOL0     C53742   6.118   2.541   0.685  0.3662  0.4593  0.7394
  399MOL0     C53743   5.979   2.476   0.655 -1.1927 -0.2402  0.5178
  399MOL0     C53744   5.929   2.422   0.790  0.1889  0.0601 -0.3678
  399MOL0     C53745   5.986   2.285   0.816 -0.1508  0.1651  0.3140
  399MOL0     C53746   5.963   2.240   0.958  0.3122  0.2751  0.9551
  399MOL0     N53747   6.018   2.323   1.069 -1.0881  1.5237 -0.6995
  399MOL0     C53748   6.143   2.381   1.069  0.0424 -0.2010  0.1414
  399MOL0     C53749   6.148   2.442   1.191  0.1438  0.1947 -0.4235
  399MOL0     C53750   6.264   2.496   1.277 -0.1310 -0.5521 -0.0817
  399MOL0     C53751   6.243   2.645   1.304  0.3119  0.6852 -0.0369
  399MOL0     C53752   6.296   2.726   1.182  0.8695 -0.3966  0.2952
  399MOL0     C53753   6.263   2.878   1.200 -0.0044 -0.6796 -0.3046
  399MOL0     O53754   6.382   2.954   1.176  0.1247  0.4520  0.1570
  399MOL0     C53755   6.406   2.986   1.048 -0.3233  0.1959 -0.1526
  399MOL0     C53756   6.342   2.955   0.932  1.0651 -0.8842  0.2537
  399MOL0     C53757   6.360   3.015   0.808 -0.4847  0.3383  0.1952
  399MOL0     C53758   6.294   2.943   0.698  0.2312 -0.3548 -0.3911
  399MOL0     C53759   6.457   3.125   0.788  0.3034 -0.0246 -0.3306
  399MOL0     C53760   6.498   3.193   0.656 -0.2637  0.2002  0.5114
  399MOL0     O53761   6.460   3.141   0.533  0.3478 -0.1673  0.3062
  399MOL0     C53762   6.527   3.194   0.430 -0.5837  0.1149 -0.5684
  399MOL0     C53763   6.636   3.122   0.381 -0.0542  0.8527 -0.9070
  399MOL0     C53764   6.724   3.177   0.287 -0.2958 -0.2987  0.9038
  399MOL0     C53765   6.687   3.298   0.228 -0.1956 -0.0579  0.7934
  399MOL0     O53766   6.760   3.356   0.131 -0.4359 -0.0207 -0.7647
  399MOL0     C53767   6.904   3.318   0.104 -0.2936  0.2551 -0.9131
  399MOL0     C53768   6.977   3.434   0.049 -0.2287 -0.1106  0.3034
  399MOL0     C53769   7.065   3.515   0.149  0.9033  0.5804 -0.0577
  399MOL0     C53770   7.191   3.436   0.186 -0.9331  0.2044 -0.0937
  399MOL0     C53771   7.255   3.505   0.309  0.0845  0.1566 -0.4304
  399MOL0     C53772   7.403   3.459   0.318 -0.3587  0.6061  0.4889
  399MOL0     C53773   7.473   3.520   0.439  0.0244  0.0765 -0.2811
  399MOL0     C53774   7.607   3.449   0.455  0.3363 -0.2506 -0.5017
  399MOL0    Cl53775   7.730   3.523   0.565 -0.1476  0.0630  0.2526
  399MOL0     C53776   6.574   3.365   0.262  0.1868 -0.0567 -0.1170
  399MOL0     C53777   6.501   3.319   0.367 -0.5112 -0.0635  0.4683
  399MOL0     O53778   6.584   3.283   0.673  0.0173  0.1280  0.3859
  399MOL0     C53779   6.516   3.165   0.917 -0.2704 -0.0574  0.3288
  399MOL0     C53780   6.495   3.092   1.038  0.2952  1.1697  0.2625
  399MOL0     N53781   6.022   2.430   1.251  0.6047  0.0584  0.1773
  399MOL0     N53782   5.942   2.378   1.174  0.2674 -0.2936 -0.8480
  399MOL0     C53783   6.518   2.600   0.196 -0.3400  0.3476 -0.5696
  399MOL0     C53784   6.631   2.629   0.119 -0.0041 -0.1256 -0.8332
  399MOL0     C53785   6.963   2.946   0.032  0.0505  0.5156 -0.1483
  399MOL0     C53786   7.077   2.997   0.093  0.0901  0.8139 -0.1129
  399MOL0     C53787   7.169   3.080   0.023  0.0633 -0.2790  0.1792
  399MOL0     C53788   7.145   3.108  -0.118  0.6857 -0.3702 -0.9737
  399MOL0     O53789   7.244   3.185  -0.176 -0.3190  0.2503 -0.5880
  399MOL0     C53790   7.252   3.200  -0.314  0.8748  1.1967  0.1458
  399MOL0     C53791   7.387   3.255  -0.341 -0.3226 -0.2257  0.8399
  399MOL0     C53792   7.404   3.341  -0.474  0.2919 -0.1137 -0.7314
  399MOL0     C53793   7.376   3.264  -0.607  0.6849  0.3052 -0.3666
  399MOL0     C53794   7.236   3.248  -0.642  0.5087 -0.7963  0.2003
  399MOL0     C53795   7.119   3.261  -0.660  0.1850 -0.6785  0.3213
  399MOL0     C53796   7.028   3.059  -0.177 -0.2312  0.3590  0.6383
  399MOL0     C53797   6.937   2.984  -0.105  0.4508  0.6089 -0.1770
  399MOL0     H53798   6.570   2.969   0.122 -1.2808  0.2186 -1.8921
  399MOL0     H53799   6.365   2.897   0.232 -0.0664  0.0377  0.7842
  399MOL0     H53800   6.280   2.803   0.454 -2.5811 -1.1644  3.3815
  399MOL0     H53801   6.165   2.797   0.309  0.4510 -2.0582 -3.1748
  399MOL0     H53802   6.060   2.733   0.493  0.2979  0.0047 -0.6249
  399MOL0     H53803   6.089   2.594   0.378  2.8134  0.1330 -1.1511
  399MOL0     H53804   6.217   2.472   0.521  0.6426  0.2791 -0.5635
  399MOL0     H53805   6.290   2.610   0.590 -1.8361  2.5635 -0.8377
  399MOL0     H53806   6.173   2.480   0.757 -2.3795 -3.0549  0.1110
  399MOL0     H53807   6.096   2.637   0.734 -1.8873 -1.0284  2.9185
  399MOL0     H53808   5.906   2.546   0.613 -1.2637 -0.5267  0.1567
  399MOL0     H53809   5.991   2.404   0.573  2.5474  0.8402 -0.0638
  399MOL0     H53810   5.952   2.494   0.869 -1.2043 -0.5971  0.6790
  399MOL0     H53811   5.820   2.417   0.796  0.2401 -0.0154  0.6643
  399MOL0     H53812   5.941   2.210   0.750  0.2826 -1.4636  1.8105
  399MOL0     H53813   6.093   2.277   0.793 -0.6872 -0.6949 -2.1481
  399MOL0     H53814   5.980   2.132   0.954 -2.8926 -0.3112 -0.5927
  399MOL0     H53815   5.854   2.240   0.970  0.1159 -0.4758 -0.5577
  399MOL0     H53816   6.217   2.377   0.990 -0.2848  2.9157 -0.4864
  399MOL0     H53817   6.278   2.443   1.372  3.8162  0.4849  0.0858
  399MOL0     H53818   6.354   2.475   1.219  0.7140  0.4807  0.8150
  399MOL0     H53819   6.296   2.669   1.397  0.3744  0.4511 -0.0116
  399MOL0     H53820   6.134   2.657   1.309  0.0235  1.2002 -3.9922
  399MOL0     H53821   6.255   2.691   1.087 -1.3201 -1.5502  1.5787
  399MOL0     H53822   6.404   2.713   1.181  1.0868  1.1690  0.9034
  399MOL0     H53823   6.225   2.907   1.298 -0.2555  2.2896 -1.2018
  399MOL0     H53824   6.186   2.918   1.134  1.0104  1.1513 -0.4440
  399MOL0     H53825   6.259   2.885   0.934 -0.2715  0.5868 -0.9267
  399MOL0     H53826   6.257   3.017   0.626 -1.2517  0.3126  0.9945
  399MOL0     H53827   6.360   2.878   0.640  2.0660  1.9600 -1.0191
  399MOL0     H53828   6.199   2.895   0.727  1.0215 -0.3023  2.6000
  399MOL0     H53829   6.639   3.022   0.424 -0.6189  0.5672 -1.5256
  399MOL0     H53830   6.817   3.133   0.251  0.1619  2.0155 -0.9562
  399MOL0     H53831   6.942   3.265   0.192 -1.3465  0.3062 -0.4091
  399MOL0     H53832   6.918   3.249   0.021  0.6091 -0.0095 -0.5592
  399MOL0     H53833   7.045   3.397  -0.029 -1.1022 -1.8933  0.3248
  399MOL0     H53834   6.908   3.505   0.004  1.0507  1.2674  0.4471
  399MOL0     H53835   7.006   3.514   0.241  2.3100  2.7499  0.9623
  399MOL0     H53836   7.093   3.614   0.111 -1.2783  0.8712 -1.0623
  399MOL0     H53837   7.166   3.335   0.219  1.6723  0.0754  1.7772
  399MOL0     H53838   7.253   3.433   0.096  0.5503  0.6851  0.8720
  399MOL0     H53839   7.189   3.483   0.393  0.0067  1.1034 -0.2365
  399MOL0     H53840   7.268   3.612   0.296  1.2523  0.1133  0.2564
  399MOL0     H53841   7.410   3.350   0.316 -3.0198  0.3568 -2.0428
  399MOL0     H53842   7.454   3.487   0.225  4.5097 -1.2796  2.2530
  399MOL0     H53843   7.409   3.499   0.525  0.4956 -1.5406 -0.2863
  399MOL0     H53844   7.494   3.626   0.422 -2.6833  0.3838 -2.4779
  399MOL0     H53845   7.658   3.429   0.361 -0.1964 -2.6874 -0.3414
  399MOL0     H53846   7.584   3.346   0.484 -0.0260 -0.5517 -1.8112
  399MOL0     H53847   6.557   3.461   0.214  2.8868  0.0984 -0.9624
  399MOL0     H53848   6.420   3.382   0.403 -1.3114 -0.1973 -0.9863
  399MOL0     H53849   6.580   3.252   0.908  0.4457 -0.6096  0.0635
  399MOL0     H53850   6.554   3.117   1.125 -0.1486 -0.4960  1.0800
  399MOL0     H53851   6.500   2.496   0.224  2.1823 -0.7910 -2.7848
  399MOL0     H53852   6.703   2.554   0.086 -0.1778 -0.5367 -0.2920
  399MOL0     H53853   7.094   2.987   0.200 -2.1755  1.5867  0.3827
  399MOL0     H53854   7.259   3.104   0.078  0.8536  1.6163 -1.8223
  399MOL0     H53855   7.232   3.103  -0.361  1.2897  0.5512  1.2665
  399MOL0     H53856   7.172   3.267  -0.348  0.4781  1.1176  0.8900
  399MOL0     H53857   7.460   3.173  -0.347  0.3798  0.4675 -2.3454
  399MOL0     H53858   7.414   3.318  -0.257 -0.3287  1.9849 -0.7287
  399MOL0     H53859   7.508   3.373  -0.470  0.3373 -0.1783 -1.2485
  399MOL0     H53860   7.329   3.421  -0.476  2.0774  1.6206 -1.5317
  399MOL0     H53861   7.414   3.162  -0.594 -2.7225 -1.3817 -2.2666
  399MOL0     H53862   7.434   3.304  -0.691  1.8511 -0.6987 -0.0821
  399MOL0     H53863   7.017   3.282  -0.683  0.7945  2.1092 -0.2748
  399MOL0     H53864   6.999   3.088  -0.277  1.0220 -1.3461 -0.2614
  399MOL0     H53865   6.841   2.956  -0.146 -0.3891  2.9015  0.0979
  400MOL0     O53866   2.086   5.485   3.132  0.7497  0.2463  0.3588
  400MOL0     C53867   2.020   5.575   3.083  0.0150  0.2201  0.3778
  400MOL0     O53868   1.897   5.593   3.119 -0.1466 -0.6111  0.3007
  400MOL0     C53869   1.841   5.554   3.238  0.2017 -0.3301  0.9722
  400MOL0     C53870   1.708   5.511   3.243  0.1611 -0.0067 -0.1573
  400MOL0     C53871   1.655   5.474   3.364  0.2059  0.7770  0.3941
  400MOL0     C53872   1.731   5.472   3.474 -0.1269 -0.8395 -0.3191
  400MOL0     O53873   1.669   5.424   3.582 -0.2000  0.6770 -0.0973
  400MOL0     C53874   1.644   5.519   3.683 -0.8109 -0.4909  0.2670
  400MOL0     C53875   1.709   5.497   3.819  0.9511 -0.0686 -0.5845
  400MOL0     C53876   1.668   5.364   3.888 -0.5906  0.2753  0.6327
  400MOL0     C53877   1.516   5.337   3.885 -0.0228 -0.2450 -0.7727
  400MOL0     C53878   1.486   5.215   3.977  0.8872  0.7964 -0.0838
  400MOL0     C53879   1.332   5.206   4.014  0.5998  0.0148  0.1165
  400MOL0     C53880   1.295   5.063   4.060 -0.5973 -0.2173  0.2929
  400MOL0     C53881   1.143   5.046   4.093  0.1787 -0.9887 -0.8711
  400MOL0     N53882   1.099   4.916   4.133 -0.7158 -0.5409 -0.3335
  400MOL0     C53883   1.111   4.861   4.261  0.3693 -0.2213 -0.0900
  400MOL0     C53884   1.064   4.733   4.242 -0.4159 -0.4709 -0.2996
  400MOL0     C53885   1.015   4.644   4.353 -0.2602 -0.1504  0.5942
  400MOL0     C53886   0.852   4.642   4.361 -0.4512  0.6744 -0.7229
  400MOL0     C53887   0.812   4.547   4.473  0.1777 -0.0789 -0.4473
  400MOL0     C53888   0.662   4.535   4.491  1.1201  0.5182  0.6572
  400MOL0     O53889   0.627   4.413   4.567 -0.4694  0.6386  0.5558
  400MOL0     C53890   0.500   4.405   4.605 -0.8865 -0.5761 -0.0912
  400MOL0     C53891   0.471   4.276   4.643  0.3957  0.3188 -0.0380
  400MOL0     C53892   0.347   4.231   4.698 -1.5925  0.1195  0.3231
  400MOL0     C53893   0.326   4.090   4.740 -0.5700 -0.1061  0.4704
  400MOL0     C53894   0.252   4.332   4.703  0.5259  0.0591 -0.5153
  400MOL0     C53895   0.109   4.311   4.739 -0.6288  0.7197  0.2081
  400MOL0     O53896   0.068   4.178   4.757  0.5832  0.7246 -0.7016
  400MOL0     C53897  -0.063   4.136   4.764 -0.7294  0.2378 -0.2173
  400MOL0     C53898  -0.173   4.216   4.753  0.4333  0.5360  0.9289
  400MOL0     C53899  -0.304   4.152   4.754 -0.8890 -0.5402 -0.0589
  400MOL0     C53900  -0.318   4.013   4.749  0.1595 -1.4204 -0.8478
  400MOL0     O53901  -0.444   3.956   4.751 -0.2134  0.0033  0.0801
  400MOL0     C53902  -0.524   3.991   4.866 -0.3321  0.2887  0.1092
  400MOL0     C53903  -0.665   3.919   4.855  0.3774 -1.2644 -0.0037
  400MOL0     C53904  -0.769   4.011   4.779 -0.0958  0.2379  0.0789
  400MOL0     C53905  -0.781   4.160   4.823  0.6850 -0.8687 -0.4685
  400MOL0     C53906  -0.928   4.206   4.839  1.3122 -0.2610  0.4009
  400MOL0     C53907  -0.931   4.344   4.921  0.0798  0.9137 -0.3270
  400MOL0     C53908  -1.065   4.410   4.944  0.2602  0.6046 -0.6424
  400MOL0     C53909  -1.147   4.317   5.026 -0.2322 -0.6928 -0.1453
  400MOL0    Cl53910  -1.294   4.418   5.049 -0.0215 -0.0255  0.0396
  400MOL0     C53911  -0.205   3.937   4.746 -0.4890 -0.2150 -0.1054
  400MOL0     C53912  -0.079   3.994   4.764 -0.9170 -0.1922  0.2073
  400MOL0     O53913   0.035   4.408   4.742  0.7478  0.2185 -0.0637
  400MOL0     C53914   0.281   4.469   4.679 -0.4581  0.6790  0.1037
  400MOL0     C53915   0.402   4.503   4.628 -0.7502  0.3823 -0.4107
  400MOL0     N53916   1.046   4.707   4.106 -0.5342  0.1177 -0.0964
  400MOL0     N53917   1.062   4.821   4.046 -1.0679  0.6883 -0.6829
  400MOL0     C53918   1.854   5.528   3.475 -0.0349 -0.0047  0.5099
  400MOL0     C53919   1.913   5.578   3.358 -0.0040  0.4457  0.2905
  400MOL0     C53920   2.090   5.658   2.980  0.0803  0.1570  0.3282
  400MOL0     C53921   2.229   5.676   2.989 -0.4092 -0.4115  1.2244
  400MOL0     C53922   2.288   5.775   2.905  0.2903 -0.0396  0.2110
  400MOL0     C53923   2.216   5.835   2.805 -0.3221 -0.3871 -0.0473
  400MOL0     O53924   2.261   5.942   2.726  0.6081  0.6883  0.1655
  400MOL0     C53925   2.376   5.896   2.646  0.1645 -0.2023 -0.2433
  400MOL0     C53926   2.410   5.988   2.531 -1.4899 -0.6237 -0.3759
  400MOL0     C53927   2.418   6.139   2.574  0.6876  0.2865  0.0098
  400MOL0     C53928   2.499   6.236   2.484 -0.4532  0.5756  0.7994
  400MOL0     C53929   2.642   6.230   2.516 -0.0554  1.0544  0.5091
  400MOL0     C53930   2.764   6.233   2.541 -0.2930  0.4849  0.1050
  400MOL0     C53931   2.086   5.803   2.793 -0.4179  0.2865  0.4100
  400MOL0     C53932   2.021   5.717   2.876 -0.2491  0.6212  0.0792
  400MOL0     H53933   1.660   5.506   3.145  0.7364 -2.0301 -0.3769
  400MOL0     H53934   1.556   5.429   3.358  1.1026 -1.1428 -0.8144
  400MOL0     H53935   1.684   5.618   3.657 -0.3821 -0.7978 -0.2499
  400MOL0     H53936   1.538   5.536   3.702 -1.4028  0.3991 -3.1663
  400MOL0     H53937   1.817   5.499   3.804  1.4040 -0.5452  2.0892
  400MOL0     H53938   1.683   5.584   3.881  1.6595 -0.8580  0.8471
  400MOL0     H53939   1.711   5.284   3.827 -0.6359  0.3428  0.5107
  400MOL0     H53940   1.707   5.359   3.990 -2.2303 -0.0488  1.2838
  400MOL0     H53941   1.456   5.418   3.927  2.0778  0.6175  0.7679
  400MOL0     H53942   1.491   5.300   3.785 -1.2373 -2.6482  0.3269
  400MOL0     H53943   1.504   5.130   3.911 -2.2296  0.2184 -0.3381
  400MOL0     H53944   1.544   5.198   4.068  0.3915  1.2230  0.3197
  400MOL0     H53945   1.308   5.274   4.097  0.9651 -1.0980  1.1595
  400MOL0     H53946   1.266   5.228   3.930 -0.2770 -0.3047  0.7017
  400MOL0     H53947   1.314   4.989   3.983  0.0531 -0.2957  0.5264
  400MOL0     H53948   1.352   5.039   4.150 -1.5287 -0.4853  0.8350
  400MOL0     H53949   1.108   5.077   3.994  3.6378 -0.9825 -2.2292
  400MOL0     H53950   1.115   5.121   4.167 -1.1773  0.5170 -2.8049
  400MOL0     H53951   1.132   4.904   4.359 -2.0943 -2.4813  1.5572
  400MOL0     H53952   1.050   4.542   4.334  3.5927  1.4054 -1.8070
  400MOL0     H53953   1.049   4.686   4.449 -0.1948  1.8716 -0.2561
  400MOL0     H53954   0.809   4.602   4.269 -1.4225 -0.0077  0.0118
  400MOL0     H53955   0.809   4.742   4.375 -1.3338  0.0313  1.6609
  400MOL0     H53956   0.860   4.581   4.566  0.4152  4.1681 -1.9079
  400MOL0     H53957   0.856   4.451   4.446 -3.0249 -1.2383 -2.0400
  400MOL0     H53958   0.624   4.519   4.390 -0.8343  1.2627  1.2350
  400MOL0     H53959   0.631   4.625   4.544 -1.3802  0.0332  0.1680
  400MOL0     H53960   0.558   4.212   4.629 -0.6198 -0.3279 -5.0017
  400MOL0     H53961   0.421   4.035   4.743  0.1796  0.8003 -2.9007
  400MOL0     H53962   0.284   4.086   4.841 -0.2986  0.8449  0.6281
  400MOL0     H53963   0.258   4.034   4.676 -1.6647 -1.2584  2.5271
  400MOL0     H53964  -0.170   4.325   4.751 -0.4240  0.5630  1.0199
  400MOL0     H53965  -0.391   4.215   4.764 -1.8974 -2.1789  3.3210
  400MOL0     H53966  -0.468   3.958   4.954 -1.9149 -0.9697  0.6774
  400MOL0     H53967  -0.530   4.100   4.870  3.2025  0.5713  2.8385
  400MOL0     H53968  -0.668   3.826   4.798 -2.8586 -1.7069  0.6890
  400MOL0     H53969  -0.713   3.901   4.951  0.9479 -0.1971  0.5097
  400MOL0     H53970  -0.871   3.974   4.790  0.6916 -1.9503  0.4866
  400MOL0     H53971  -0.738   3.996   4.675  1.8794 -0.8793  0.7764
  400MOL0     H53972  -0.743   4.157   4.926 -3.1070 -0.7764  1.1047
  400MOL0     H53973  -0.723   4.228   4.762 -1.7546 -0.4848 -2.5352
  400MOL0     H53974  -0.993   4.133   4.888 -1.0513  0.7352 -1.0352
  400MOL0     H53975  -0.977   4.235   4.745 -0.6417  2.1090  2.0218
  400MOL0     H53976  -0.894   4.325   5.022 -3.7764 -0.2649  1.0476
  400MOL0     H53977  -0.874   4.419   4.866  3.7941 -0.2109  1.6574
  400MOL0     H53978  -1.108   4.419   4.845 -1.8301 -1.9487 -0.0638
  400MOL0     H53979  -1.042   4.505   4.993  1.4149 -0.6766  1.4827
  400MOL0     H53980  -1.104   4.303   5.126 -0.0553  5.6086  1.0283
  400MOL0     H53981  -1.177   4.222   4.980 -3.3478  0.5708 -0.9793
  400MOL0     H53982  -0.209   3.829   4.734 -0.7659 -0.2768  0.5406
  400MOL0     H53983   0.003   3.927   4.790 -1.1195  0.1429  1.8216
  400MOL0     H53984   0.213   4.554   4.686  0.5852  1.8113 -2.1793
  400MOL0     H53985   0.418   4.610   4.621  4.0134  0.0336  1.4414
  400MOL0     H53986   1.909   5.533   3.568 -0.3256 -0.7027  0.7328
  400MOL0     H53987   2.007   5.632   3.361 -0.0760  0.5587  0.4913
  400MOL0     H53988   2.278   5.642   3.080  3.2772  0.0548 -0.4159
  400MOL0     H53989   2.392   5.803   2.912 -0.3543  2.1727  3.0595
  400MOL0     H53990   2.459   5.888   2.717  1.8308  3.3707 -1.5682
  400MOL0     H53991   2.364   5.798   2.599  1.7356  0.5380 -2.2973
  400MOL0     H53992   2.343   5.981   2.445 -2.5614  2.5943  0.0643
  400MOL0     H53993   2.510   5.952   2.505 -0.2590  1.9530  0.4173
  400MOL0     H53994   2.461   6.143   2.674 -0.0874  1.5813  0.3200
  400MOL0     H53995   2.311   6.164   2.579  0.3191 -1.4353  1.6949
  400MOL0     H53996   2.462   6.336   2.510 -3.5634 -0.8422  2.4790
  400MOL0     H53997   2.486   6.213   2.377  1.7416 -0.7955  0.7688
  400MOL0     H53998   2.871   6.222   2.545 -0.3398 -0.2299 -0.4143
  400MOL0     H53999   2.031   5.842   2.707 -1.8911  1.0525  1.6565
  400MOL0     H54000   1.916   5.693   2.861 -0.1606  0.9229 -1.1368
  401MOL0     O54001   6.706   3.875   1.575 -0.5438 -0.0051  0.1555
  401MOL0     C54002   6.622   3.863   1.663 -0.1179 -0.4013 -0.6042
  401MOL0     O54003   6.609   3.951   1.774  0.0334  0.0044 -0.4996
  401MOL0     C54004   6.694   4.059   1.778  0.4062 -0.1950  0.0237
  401MOL0     C54005   6.833   4.052   1.761  0.0854  0.6719 -0.2153
  401MOL0     C54006   6.914   4.168   1.766  0.0460 -0.3956  0.3623
  401MOL0     C54007   6.853   4.297   1.792  0.3167  0.2648 -0.0453
  401MOL0     O54008   6.922   4.417   1.798 -0.3754 -0.0111  0.3629
  401MOL0     C54009   7.056   4.433   1.745  0.1211  0.1864 -0.4115
  401MOL0     C54010   7.082   4.577   1.743 -0.3300  0.5945  0.7626
  401MOL0     C54011   7.080   4.631   1.884  0.6865 -0.0031  0.5331
  401MOL0     C54012   7.138   4.777   1.880  0.1123  0.3211  0.5028
  401MOL0     C54013   7.065   4.858   1.987 -0.4487  0.6223  0.0855
  401MOL0     C54014   6.919   4.888   1.946 -0.4057 -0.8898  0.5046
  401MOL0     C54015   6.837   4.912   2.071  0.0293  0.2251 -0.8475
  401MOL0     C54016   6.710   4.987   2.055  1.0935 -1.1798  1.2593
  401MOL0     N54017   6.636   4.976   2.176 -0.3566 -0.1939 -0.5876
  401MOL0     C54018   6.518   4.907   2.193 -0.5295 -0.8151 -0.1543
  401MOL0     C54019   6.469   4.968   2.309 -0.5951  1.1379  0.5506
  401MOL0     C54020   6.342   4.929   2.376 -0.0741  1.1233  0.0860
  401MOL0     C54021   6.307   4.992   2.509  0.0548 -0.1729  0.9257
  401MOL0     C54022   6.160   4.973   2.538  0.3762  0.2109 -0.0195
  401MOL0     C54023   6.116   5.034   2.673  0.4128 -0.2175  0.6673
  401MOL0     O54024   5.996   4.972   2.726  0.2083 -0.6990  1.3529
  401MOL0     C54025   5.923   5.025   2.828 -0.7216  0.6012  0.2047
  401MOL0     C54026   5.829   4.944   2.886 -0.1592  0.4531  0.2591
  401MOL0     C54027   5.741   4.984   2.984  0.4356  0.0112  0.4740
  401MOL0     C54028   5.655   4.871   3.037 -0.2632  0.6145  0.2915
  401MOL0     C54029   5.739   5.119   3.019 -0.1306 -0.1679  0.1130
  401MOL0     C54030   5.638   5.179   3.108 -0.2997 -0.2326  0.6115
  401MOL0     O54031   5.681   5.303   3.160 -0.0127  0.1119 -0.8762
  401MOL0     C54032   5.603   5.375   3.248  0.0596  0.2999 -0.8128
  401MOL0     C54033   5.538   5.318   3.365 -0.1364 -0.1447 -0.3582
  401MOL0     C54034   5.455   5.399   3.447  0.4997  0.0510 -0.2890
  401MOL0     C54035   5.436   5.538   3.422 -0.3333  0.2138  0.1917
  401MOL0     O54036   5.346   5.623   3.483 -0.3471  0.3497  0.0469
  401MOL0     C54037   5.310   5.595   3.621 -0.1652 -0.1686 -1.0226
  401MOL0     C54038   5.266   5.721   3.699 -0.6136  0.4263  0.7839
  401MOL0     C54039   5.385   5.822   3.701  0.1549 -0.3296 -0.4314
  401MOL0     C54040   5.346   5.944   3.776 -0.4355 -0.2129 -0.2534
  401MOL0     C54041   5.474   6.034   3.793  0.3827  0.8963  0.3295
  401MOL0     C54042   5.457   6.179   3.844  0.4557 -0.6071  0.8292
  401MOL0     C54043   5.365   6.274   3.762 -0.1056  0.6549 -0.1748
  401MOL0     C54044   5.400   6.299   3.612 -0.9871 -1.0270  0.4801
  401MOL0    Cl54045   5.281   6.399   3.526 -0.1257  0.1708 -0.1948
  401MOL0     C54046   5.497   5.591   3.305  0.2295  0.1394 -0.5114
  401MOL0     C54047   5.575   5.510   3.221  0.3521 -0.6164  0.7570
  401MOL0     O54048   5.528   5.131   3.120 -0.3263  0.6746 -0.2200
  401MOL0     C54049   5.842   5.208   2.969 -0.3881 -0.5692  0.1696
  401MOL0     C54050   5.928   5.157   2.871  0.1744 -0.0541  0.1341
  401MOL0     N54051   6.547   5.065   2.355  0.0270 -0.4844  0.4625
  401MOL0     N54052   6.648   5.071   2.281 -0.7628  0.6506 -1.0896
  401MOL0     C54053   6.708   4.304   1.812 -0.8583 -0.0007 -0.8492
  401MOL0     C54054   6.630   4.184   1.812 -0.5799  0.2502  0.3456
  401MOL0     C54055   6.525   3.748   1.652  0.7561  0.1730 -0.8736
  401MOL0     C54056   6.427   3.719   1.753 -0.3083 -0.4665 -0.6947
  401MOL0     C54057   6.333   3.618   1.742  0.0817 -0.3026 -0.6211
  401MOL0     C54058   6.334   3.533   1.634 -0.2251  0.4640  0.7170
  401MOL0     O54059   6.252   3.426   1.642  0.2628 -0.2277 -0.8708
  401MOL0     C54060   6.229   3.352   1.519 -0.2830 -0.5514  0.1743
  401MOL0     C54061   6.079   3.332   1.519  0.5748 -0.0343 -0.7865
  401MOL0     C54062   6.030   3.256   1.642 -0.9455 -0.7182  0.2786
  401MOL0     C54063   5.885   3.244   1.628  0.7444  0.0902  0.1897
  401MOL0     C54064   5.836   3.149   1.735  0.4024  0.6308  0.4918
  401MOL0     C54065   5.793   3.070   1.814 -0.2134  0.1711  0.0719
  401MOL0     C54066   6.423   3.562   1.523 -0.3419 -0.2871  0.3951
  401MOL0     C54067   6.516   3.668   1.535 -0.2435 -0.2087 -0.5757
  401MOL0     H54068   6.888   3.960   1.746  0.3350  0.5553  1.2489
  401MOL0     H54069   7.017   4.165   1.733 -0.0419  0.2464  0.0207
  401MOL0     H54070   7.133   4.376   1.797 -0.7920 -1.4948 -0.8389
  401MOL0     H54071   7.059   4.399   1.641  0.1275  1.5903 -0.8949
  401MOL0     H54072   7.181   4.582   1.697 -0.9497 -3.5905 -1.4816
  401MOL0     H54073   7.015   4.634   1.678 -0.6852  1.0178  1.4863
  401MOL0     H54074   6.983   4.631   1.936  1.0282 -0.7338  1.2043
  401MOL0     H54075   7.144   4.567   1.946  1.6920  0.4966  0.0309
  401MOL0     H54076   7.247   4.773   1.895  0.4369  0.0207 -1.5640
  401MOL0     H54077   7.119   4.819   1.781 -0.9546 -0.4869  0.3623
  401MOL0     H54078   7.080   4.810   2.083  2.8345  0.0521 -0.6122
  401MOL0     H54079   7.116   4.954   1.997 -0.7043  0.7860 -0.1360
  401MOL0     H54080   6.909   4.977   1.883  1.4380 -0.4022  0.8621
  401MOL0     H54081   6.870   4.808   1.889 -0.9718 -0.0783 -0.1711
  401MOL0     H54082   6.816   4.819   2.124 -0.9284  1.6687  1.4465
  401MOL0     H54083   6.890   4.978   2.140  2.1039  1.3579 -3.3404
  401MOL0     H54084   6.642   4.947   1.979 -0.2297  1.2728  1.0553
  401MOL0     H54085   6.732   5.088   2.021  1.9269 -2.1181 -1.1998
  401MOL0     H54086   6.479   4.822   2.137  1.0778 -1.3820 -0.4606
  401MOL0     H54087   6.267   4.968   2.307 -0.4314  0.0781 -0.1296
  401MOL0     H54088   6.339   4.820   2.370  0.3404  1.1742 -3.8218
  401MOL0     H54089   6.332   5.096   2.487 -0.2181 -0.6156 -1.8629
  401MOL0     H54090   6.371   4.956   2.591  1.0910 -2.7172 -0.8608
  401MOL0     H54091   6.134   4.869   2.518 -0.7718  0.4478  0.1761
  401MOL0     H54092   6.102   5.024   2.460  0.9084 -0.0168 -0.5735
  401MOL0     H54093   6.101   5.142   2.675 -5.5034 -0.6171  4.6214
  401MOL0     H54094   6.200   5.015   2.741  0.8925 -1.4798 -0.2293
  401MOL0     H54095   5.837   4.840   2.854  2.0516  1.2388 -2.0354
  401MOL0     H54096   5.661   4.790   2.964 -0.3975  1.4701 -0.7036
  401MOL0     H54097   5.701   4.826   3.125  0.2547 -2.4277 -1.4240
  401MOL0     H54098   5.553   4.890   3.073 -1.8164 -1.9006 -2.3375
  401MOL0     H54099   5.553   5.212   3.377  1.9229 -0.1074 -2.0798
  401MOL0     H54100   5.406   5.355   3.533 -2.4741  2.0875 -0.7826
  401MOL0     H54101   5.226   5.525   3.625  1.2078 -1.8419  1.8959
  401MOL0     H54102   5.394   5.552   3.677  0.3169  1.4127 -0.4696
  401MOL0     H54103   5.182   5.758   3.639  1.2310  3.1367 -0.3372
  401MOL0     H54104   5.230   5.692   3.798  0.5449  0.1434  1.1385
  401MOL0     H54105   5.418   5.852   3.601  2.2122 -1.1955 -0.0547
  401MOL0     H54106   5.470   5.768   3.743 -1.4851 -2.5849  0.2166
  401MOL0     H54107   5.274   5.998   3.714  0.6677 -1.3932 -2.6700
  401MOL0     H54108   5.303   5.906   3.870 -2.0545  0.9659 -0.4608
  401MOL0     H54109   5.510   6.048   3.691  1.4985 -0.6719  0.4730
  401MOL0     H54110   5.553   5.990   3.855 -0.0077  0.3607  0.4566
  401MOL0     H54111   5.415   6.179   3.945 -1.2867  0.4915  0.1554
  401MOL0     H54112   5.556   6.225   3.841  2.2252 -3.9542  2.3812
  401MOL0     H54113   5.359   6.371   3.811 -2.0666  0.7951 -0.6098
  401MOL0     H54114   5.260   6.242   3.760  0.1535 -0.3055  0.8315
  401MOL0     H54115   5.416   6.198   3.574 -0.8038 -0.8006 -0.0560
  401MOL0     H54116   5.494   6.355   3.614 -0.5594 -1.7198  3.0769
  401MOL0     H54117   5.488   5.696   3.280  4.3034  1.6397  3.1384
  401MOL0     H54118   5.608   5.566   3.134  2.1709  2.3460  3.1187
  401MOL0     H54119   5.836   5.316   2.978  2.5890 -0.3972  1.1387
  401MOL0     H54120   5.990   5.229   2.818 -0.7251  2.9378  2.8277
  401MOL0     H54121   6.661   4.401   1.826 -0.8206 -0.2247  1.0709
  401MOL0     H54122   6.526   4.189   1.843 -0.1757 -1.5115  2.2103
  401MOL0     H54123   6.430   3.787   1.838 -0.4027  0.7979 -1.6724
  401MOL0     H54124   6.249   3.597   1.807 -0.6326  1.2561 -0.9967
  401MOL0     H54125   6.255   3.402   1.425  1.4582 -3.0364 -0.7837
  401MOL0     H54126   6.282   3.257   1.533 -0.2175 -0.2849  2.0750
  401MOL0     H54127   6.050   3.287   1.423 -0.6540  1.1853 -1.0200
  401MOL0     H54128   6.022   3.423   1.501  1.1275 -0.1823 -3.9494
  401MOL0     H54129   6.060   3.302   1.737  5.0254  0.9408 -1.9493
  401MOL0     H54130   6.079   3.158   1.632 -0.6349 -0.4510 -0.8744
  401MOL0     H54131   5.844   3.212   1.532 -2.4460 -0.0204  1.4551
  401MOL0     H54132   5.842   3.339   1.662  1.8649  0.4432  0.6615
  401MOL0     H54133   5.747   3.006   1.887 -1.1897  0.2047 -0.4981
  401MOL0     H54134   6.431   3.506   1.430  1.7943 -0.8038  0.8352
  401MOL0     H54135   6.589   3.688   1.457  0.9733  1.0355  0.8103
  402MOL0     O54136   7.677   4.964   8.818 -0.1187  0.0006  1.1031
  402MOL0     C54137   7.784   4.921   8.796  0.5715  0.0021  0.4518
  402MOL0     O54138   7.899   4.995   8.789 -1.0208 -0.0293 -0.1841
  402MOL0     C54139   7.875   5.132   8.760 -0.0705  0.7265 -0.2650
  402MOL0     C54140   7.910   5.217   8.861  0.5331 -0.1559  0.3726
  402MOL0     C54141   7.893   5.353   8.834  0.0405 -0.1259 -0.5333
  402MOL0     C54142   7.839   5.402   8.714  0.0742  0.0523  0.4802
  402MOL0     O54143   7.808   5.533   8.692 -0.5056 -0.1085 -0.8445
  402MOL0     C54144   7.746   5.609   8.800 -0.5354  0.6938  0.4266
  402MOL0     C54145   7.597   5.571   8.809 -0.3843  0.6405 -0.1052
  402MOL0     C54146   7.524   5.672   8.900  0.1343 -0.1843  0.3774
  402MOL0     C54147   7.380   5.627   8.914 -0.0422 -0.7700 -0.4742
  402MOL0     C54148   7.313   5.716   9.020 -0.6472  0.2091  0.5211
  402MOL0     C54149   7.348   5.663   9.155 -0.0380  0.6025 -0.9451
  402MOL0     C54150   7.240   5.677   9.264 -0.5988  0.7389  0.1934
  402MOL0     C54151   7.244   5.804   9.350  0.3771  0.4357  0.6214
  402MOL0     N54152   7.180   5.922   9.285  0.1535 -0.5193  0.0645
  402MOL0     C54153   7.070   5.918   9.203 -0.5205 -0.2321 -0.0620
  402MOL0     C54154   7.065   6.038   9.140 -0.8015 -0.3798 -0.9302
  402MOL0     C54155   6.958   6.081   9.047 -0.0157 -0.1359  0.0710
  402MOL0     C54156   6.930   5.977   8.934  0.2696 -0.4949 -0.4991
  402MOL0     C54157   6.848   6.020   8.814 -0.2544 -0.5843 -1.4132
  402MOL0     C54158   6.774   5.924   8.736 -0.0292 -0.7704  0.7563
  402MOL0     O54159   6.676   5.847   8.808 -0.9192 -0.1165 -0.2707
  402MOL0     C54160   6.580   5.781   8.737  0.4471  0.7771 -1.0370
  402MOL0     C54161   6.568   5.747   8.604  0.5380  0.3334 -0.5114
  402MOL0     C54162   6.463   5.677   8.550 -0.5266  1.2267 -0.2826
  402MOL0     C54163   6.455   5.665   8.397 -0.3525  0.2626  0.3577
  402MOL0     C54164   6.357   5.631   8.629 -1.6120 -0.8505  0.2312
  402MOL0     C54165   6.225   5.581   8.593  0.8454  0.2383 -0.5265
  402MOL0     O54166   6.175   5.600   8.465  0.0057 -0.0069 -0.1828
  402MOL0     C54167   6.048   5.587   8.428 -0.9188 -0.0780  0.7193
  402MOL0     C54168   6.030   5.553   8.295  0.2899 -0.5430  0.2188
  402MOL0     C54169   5.904   5.540   8.242  0.4376 -0.6221 -0.3878
  402MOL0     C54170   5.790   5.562   8.321  0.3339 -0.1071  0.5898
  402MOL0     O54171   5.663   5.564   8.275  0.9410 -0.5048 -0.4043
  402MOL0     C54172   5.637   5.488   8.150  0.6866 -0.6819  1.2444
  402MOL0     C54173   5.489   5.442   8.135 -0.1462  0.3856  0.1558
  402MOL0     C54174   5.484   5.293   8.150  0.7225  0.2597 -0.4131
  402MOL0     C54175   5.348   5.247   8.099 -0.6321 -0.1886  0.3697
  402MOL0     C54176   5.328   5.096   8.093  0.0447 -0.0124 -0.4631
  402MOL0     C54177   5.179   5.072   8.059 -0.0688  0.0417  0.0949
  402MOL0     C54178   5.135   4.922   8.085  0.3351 -0.4699 -0.5662
  402MOL0     C54179   5.175   4.820   7.972 -0.9515  0.6816  0.1665
  402MOL0    Cl54180   5.050   4.692   7.996  0.3193 -0.2517  0.4927
  402MOL0     C54181   5.805   5.593   8.453  0.7318  1.1484 -0.0878
  402MOL0     C54182   5.935   5.606   8.511  0.3311  1.2007  0.3028
  402MOL0     O54183   6.168   5.510   8.674  0.3255 -0.3562 -0.7555
  402MOL0     C54184   6.366   5.664   8.765  0.2970 -0.6734 -0.8421
  402MOL0     C54185   6.475   5.740   8.815  0.2008  0.0978 -0.0262
  402MOL0     N54186   7.168   6.116   9.192 -0.1792  0.4773 -0.6670
  402MOL0     N54187   7.240   6.046   9.277 -0.2234 -0.5599 -0.0478
  402MOL0     C54188   7.800   5.310   8.618 -0.9124  0.1981  0.3014
  402MOL0     C54189   7.819   5.174   8.640 -0.5614 -0.3620  0.0043
  402MOL0     C54190   7.788   4.776   8.772  1.0735 -0.2926 -0.1212
  402MOL0     C54191   7.673   4.706   8.760  0.8778 -0.3482  0.0468
  402MOL0     C54192   7.676   4.572   8.728 -0.7154 -0.8369  1.1495
  402MOL0     C54193   7.797   4.497   8.710  0.5118  0.3557 -0.1061
  402MOL0     O54194   7.813   4.362   8.677 -0.1887  0.1992 -0.1714
  402MOL0     C54195   7.716   4.312   8.585  0.8494 -1.0311 -0.3053
  402MOL0     C54196   7.594   4.253   8.655  0.0740 -0.0271 -0.1641
  402MOL0     C54197   7.632   4.105   8.689 -0.1004  0.1878  0.0034
  402MOL0     C54198   7.526   4.030   8.759  0.4027  0.1330 -1.0459
  402MOL0     C54199   7.408   4.011   8.675  0.4779 -0.2403  0.5535
  402MOL0     C54200   7.297   3.982   8.621 -0.2476  0.4710 -1.0489
  402MOL0     C54201   7.919   4.569   8.735  0.1594 -0.1740  0.5243
  402MOL0     C54202   7.912   4.708   8.763  0.4698 -0.1071  0.8427
  402MOL0     H54203   7.945   5.189   8.959  0.0554 -1.6980  0.1328
  402MOL0     H54204   7.912   5.427   8.911  2.2740 -0.4211 -0.7421
  402MOL0     H54205   7.800   5.592   8.894 -1.1569 -1.6482  0.4275
  402MOL0     H54206   7.749   5.714   8.770  0.3280  0.9536  1.3487
  402MOL0     H54207   7.545   5.569   8.713  1.9440  0.6318 -1.4401
  402MOL0     H54208   7.585   5.468   8.844  1.2533 -0.5044 -2.6522
  402MOL0     H54209   7.580   5.673   8.995  2.4523  0.8486 -0.9081
  402MOL0     H54210   7.510   5.772   8.859  2.3296 -0.5414 -1.4048
  402MOL0     H54211   7.331   5.631   8.816  0.5019  2.1802 -0.7209
  402MOL0     H54212   7.373   5.522   8.945 -0.4556  0.4833  4.4265
  402MOL0     H54213   7.349   5.818   9.007  5.3021 -1.3917  1.4565
  402MOL0     H54214   7.205   5.716   9.003 -0.7298  2.1568  0.8472
  402MOL0     H54215   7.362   5.554   9.154  1.5090  0.7689 -2.0678
  402MOL0     H54216   7.432   5.712   9.206 -3.0986  1.4941  3.9055
  402MOL0     H54217   7.141   5.663   9.219  0.7489 -3.3450 -1.9873
  402MOL0     H54218   7.256   5.594   9.333  0.2834  0.6376 -0.1266
  402MOL0     H54219   7.351   5.824   9.365  0.8731 -0.5798 -1.2063
  402MOL0     H54220   7.183   5.793   9.440 -1.4532 -1.0955 -0.7255
  402MOL0     H54221   7.001   5.837   9.185 -1.5130  0.7026 -0.5969
  402MOL0     H54222   6.862   6.092   9.097 -1.8921  0.0432 -3.2594
  402MOL0     H54223   6.974   6.184   9.013  0.6046  0.2721  1.5116
  402MOL0     H54224   6.871   5.902   8.989 -1.1218  2.0459  1.6985
  402MOL0     H54225   7.025   5.941   8.893 -0.1878  0.0497 -2.0996
  402MOL0     H54226   6.921   6.074   8.754 -1.3918  0.4190 -1.9594
  402MOL0     H54227   6.777   6.095   8.850  0.5298 -0.8062  0.7454
  402MOL0     H54228   6.844   5.848   8.701  0.0558 -1.5997  2.6070
  402MOL0     H54229   6.718   5.985   8.664  0.1295  0.5749  1.7285
  402MOL0     H54230   6.650   5.765   8.535  0.9157  1.7129  0.2727
  402MOL0     H54231   6.395   5.576   8.376 -0.6573 -0.0332  2.2985
  402MOL0     H54232   6.410   5.752   8.348 -0.2551 -0.8659 -1.8394
  402MOL0     H54233   6.556   5.659   8.356  0.1387  2.8682  0.9473
  402MOL0     H54234   6.118   5.513   8.245  1.4475 -0.6533  2.2396
  402MOL0     H54235   5.902   5.522   8.135  1.3216 -2.2517 -0.1696
  402MOL0     H54236   5.670   5.546   8.063 -0.4791  1.7989  2.3625
  402MOL0     H54237   5.699   5.398   8.141  1.2043 -0.2094 -0.2096
  402MOL0     H54238   5.414   5.484   8.203  0.0558  0.6533  0.2169
  402MOL0     H54239   5.461   5.477   8.035 -1.3273 -0.5851  0.1105
  402MOL0     H54240   5.467   5.263   8.254 -3.2405  2.4856 -0.2074
  402MOL0     H54241   5.560   5.236   8.096  0.8145  0.7433 -0.7943
  402MOL0     H54242   5.273   5.303   8.155  0.9048 -0.1761  2.5294
  402MOL0     H54243   5.333   5.295   8.001  2.4202  1.4424  0.5887
  402MOL0     H54244   5.357   5.065   8.194  1.0046  0.2363 -0.6527
  402MOL0     H54245   5.395   5.046   8.022  0.0076 -0.2387 -0.3391
  402MOL0     H54246   5.131   5.122   8.143  2.6259 -1.8489  3.0232
  402MOL0     H54247   5.146   5.109   7.962  2.0828  0.1516 -0.6573
  402MOL0     H54248   5.026   4.925   8.087  0.1765 -3.4985  0.5316
  402MOL0     H54249   5.180   4.880   8.176  0.2598  1.4040  0.3940
  402MOL0     H54250   5.270   4.766   7.979 -1.2695  0.0613 -0.2397
  402MOL0     H54251   5.163   4.858   7.870 -1.3848  1.4996  0.5137
  402MOL0     H54252   5.714   5.620   8.506  0.4273  1.1049 -0.5847
  402MOL0     H54253   5.957   5.641   8.611  2.7854  0.0141  0.2319
  402MOL0     H54254   6.280   5.643   8.829 -1.1956 -1.0363 -2.8748
  402MOL0     H54255   6.469   5.772   8.919  0.1990  1.3271 -0.3918
  402MOL0     H54256   7.759   5.356   8.528 -0.0716 -0.5388 -0.4775
  402MOL0     H54257   7.803   5.112   8.553 -0.8226 -1.4480  0.8092
  402MOL0     H54258   7.574   4.748   8.768 -1.3642 -4.8204 -0.6843
  402MOL0     H54259   7.580   4.527   8.706  0.2770 -2.2172 -0.6188
  402MOL0     H54260   7.677   4.392   8.521  3.8476  0.5783 -0.3288
  402MOL0     H54261   7.767   4.235   8.526 -4.0695 -4.8208 -0.2414
  402MOL0     H54262   7.514   4.232   8.584  0.9906 -4.5210 -0.1391
  402MOL0     H54263   7.560   4.313   8.739  0.1588  0.8527 -0.7413
  402MOL0     H54264   7.724   4.109   8.748 -0.1414 -0.2936  0.0991
  402MOL0     H54265   7.654   4.042   8.602  0.2696 -0.5496  0.6180
  402MOL0     H54266   7.498   4.093   8.845  1.9258  2.4909 -2.1576
  402MOL0     H54267   7.571   3.936   8.791 -1.2566 -0.5552 -0.6379
  402MOL0     H54268   7.200   3.964   8.580 -0.2485 -0.0777 -0.8131
  402MOL0     H54269   8.006   4.510   8.707 -0.8873 -0.2750 -2.9783
  402MOL0     H54270   8.007   4.754   8.790  2.5715 -2.8631 -1.1801
  403MOL0     O54271   6.346   1.411   7.727  0.5015  0.5173 -0.0674
  403MOL0     C54272   6.379   1.521   7.690 -0.2527 -0.3434  0.3040
  403MOL0     O54273   6.515   1.565   7.673 -0.1716 -0.2953 -0.7975
  403MOL0     C54274   6.616   1.502   7.748  0.3040  0.6208 -0.0667
  403MOL0     C54275   6.738   1.490   7.687 -0.2382  0.0038  0.3510
  403MOL0     C54276   6.849   1.454   7.764 -0.4680 -0.0750  1.0137
  403MOL0     C54277   6.839   1.403   7.898  0.0544 -0.6201  0.5696
  403MOL0     O54278   6.943   1.366   7.977  0.4196 -0.4086 -0.3416
  403MOL0     C54279   7.066   1.340   7.913 -0.1499 -0.8395 -0.1873
  403MOL0     C54280   7.172   1.305   8.020 -0.5479 -0.3644  0.0357
  403MOL0     C54281   7.145   1.374   8.156  0.3902 -0.1682 -0.0516
  403MOL0     C54282   7.277   1.378   8.247  0.6556 -0.2065 -1.4932
  403MOL0     C54283   7.241   1.435   8.387  0.3303 -0.1477  0.4136
  403MOL0     C54284   7.353   1.478   8.481  0.1514  0.2984  0.1490
  403MOL0     C54285   7.440   1.604   8.439 -0.4354  0.3774  0.4827
  403MOL0     C54286   7.531   1.658   8.551 -0.0029  0.3128  0.5268
  403MOL0     N54287   7.646   1.566   8.580 -0.8465  0.0254  0.1481
  403MOL0     C54288   7.777   1.596   8.572 -1.3962 -0.4636  0.9115
  403MOL0     C54289   7.837   1.485   8.639 -0.0597 -0.0120 -0.0723
  403MOL0     C54290   7.985   1.473   8.625  0.3987  0.2753  0.3010
  403MOL0     C54291   8.020   1.379   8.518  0.0927 -0.1377  0.2174
  403MOL0     C54292   8.171   1.348   8.500 -0.3860  0.0856  0.0432
  403MOL0     C54293   8.204   1.306   8.346  0.1034 -0.1152 -0.4067
  403MOL0     O54294   8.198   1.165   8.332  0.5277 -0.0249  0.5395
  403MOL0     C54295   8.305   1.089   8.279 -0.0083 -0.4963 -1.0027
  403MOL0     C54296   8.415   1.142   8.222 -1.1480  0.1295  0.1156
  403MOL0     C54297   8.525   1.072   8.171  0.1985  1.3321  0.3919
  403MOL0     C54298   8.647   1.142   8.103  0.6955  1.2675  0.3021
  403MOL0     C54299   8.525   0.926   8.186  0.0876  0.3808 -0.3167
  403MOL0     C54300   8.636   0.841   8.146  0.8355  0.4933 -0.3818
  403MOL0     O54301   8.646   0.728   8.217  0.4947  1.2364 -0.0227
  403MOL0     C54302   8.769   0.655   8.213 -0.4111 -0.0250 -0.0338
  403MOL0     C54303   8.813   0.591   8.327  0.3011  0.1644 -0.6369
  403MOL0     C54304   8.931   0.514   8.332 -0.9019 -0.3838  0.9897
  403MOL0     C54305   9.019   0.512   8.218 -0.5123  0.2069 -0.3525
  403MOL0     O54306   9.145   0.456   8.231 -0.2748  0.1550  0.5820
  403MOL0     C54307   9.202   0.432   8.362  0.0089  0.4179  0.1051
  403MOL0     C54308   9.355   0.393   8.346  0.8593  0.3718  0.2161
  403MOL0     C54309   9.367   0.292   8.232 -0.9797 -0.0623  0.2632
  403MOL0     C54310   9.510   0.228   8.211  0.5056  0.6214 -0.4917
  403MOL0     C54311   9.632   0.320   8.178 -0.0500  0.2401  0.5546
  403MOL0     C54312   9.750   0.215   8.147  1.1339 -0.4437  0.0838
  403MOL0     C54313   9.792   0.120   8.269  0.0543  0.2986  0.3775
  403MOL0     C54314   9.930   0.059   8.252  0.7276 -0.6642 -0.3120
  403MOL0    Cl54315   9.941  -0.035   8.092 -0.1843 -0.0263 -0.7069
  403MOL0     C54316   8.986   0.584   8.100  0.1656 -0.3526 -0.3787
  403MOL0     C54317   8.859   0.644   8.100 -0.1776 -0.1929 -0.2516
  403MOL0     O54318   8.689   0.856   8.038 -0.2950  0.3094 -0.0709
  403MOL0     C54319   8.410   0.863   8.246 -1.1615 -0.6655  0.0826
  403MOL0     C54320   8.307   0.946   8.292  0.2229  0.2044 -0.1272
  403MOL0     N54321   7.744   1.393   8.676  0.1213  0.0128 -0.6266
  403MOL0     N54322   7.628   1.441   8.641 -0.2177  0.1775 -0.2929
  403MOL0     C54323   6.711   1.395   7.948 -0.6370 -0.1238  0.0037
  403MOL0     C54324   6.604   1.454   7.880  0.1502  1.0511  0.7433
  403MOL0     C54325   6.280   1.621   7.646 -0.6954  0.1198  0.2534
  403MOL0     C54326   6.143   1.598   7.667 -0.4368  0.0344 -0.0342
  403MOL0     C54327   6.053   1.691   7.622  0.5509  0.3025 -0.3706
  403MOL0     C54328   6.097   1.806   7.561 -0.1792 -0.1081  0.3716
  403MOL0     O54329   5.991   1.890   7.522 -0.2426  0.3914  0.1239
  403MOL0     C54330   6.035   1.997   7.441  0.0364 -0.3457  0.0937
  403MOL0     C54331   5.915   2.069   7.383  0.4883 -0.3251 -0.9732
  403MOL0     C54332   5.854   2.003   7.251 -0.1172  0.1581 -0.3515
  403MOL0     C54333   5.785   1.875   7.278 -0.4382 -0.2017  0.1368
  403MOL0     C54334   5.714   1.817   7.160  0.0593 -0.0726  0.6590
  403MOL0     C54335   5.652   1.775   7.066 -0.3209  0.3253 -0.1229
  403MOL0     C54336   6.234   1.823   7.527  0.1896  0.0311 -0.3792
  403MOL0     C54337   6.319   1.729   7.571 -0.3770 -1.1532 -0.0419
  403MOL0     H54338   6.738   1.511   7.580  2.2090 -2.1067 -0.1583
  403MOL0     H54339   6.946   1.470   7.719 -1.4450  1.0943 -0.8501
  403MOL0     H54340   7.053   1.264   7.836  2.3181  2.4359 -4.2858
  403MOL0     H54341   7.104   1.426   7.856  1.2930 -1.5180 -0.3104
  403MOL0     H54342   7.174   1.197   8.037  1.9712 -0.2964  0.5578
  403MOL0     H54343   7.270   1.332   7.981 -1.1031  1.0407 -0.4409
  403MOL0     H54344   7.121   1.476   8.123 -2.3411 -0.8730 -0.5034
  403MOL0     H54345   7.057   1.333   8.206  0.6320  1.9515  2.3059
  403MOL0     H54346   7.322   1.279   8.258 -0.9103 -0.6904  1.7296
  403MOL0     H54347   7.349   1.451   8.208 -1.8702  1.5535 -3.1306
  403MOL0     H54348   7.185   1.527   8.371 -0.0175 -0.2070  1.2402
  403MOL0     H54349   7.171   1.365   8.433  0.4395 -2.4576 -2.5981
  403MOL0     H54350   7.305   1.501   8.576 -3.6799  0.1723 -1.5802
  403MOL0     H54351   7.425   1.397   8.494 -1.5691 -1.8455 -2.5079
  403MOL0     H54352   7.512   1.575   8.363 -1.4875 -0.9819 -0.0321
  403MOL0     H54353   7.373   1.679   8.396 -0.1182  0.1421 -0.4371
  403MOL0     H54354   7.487   1.689   8.646  0.3570 -0.9961  1.1474
  403MOL0     H54355   7.586   1.743   8.509  0.1760 -0.9094 -1.8733
  403MOL0     H54356   7.829   1.674   8.517 -1.1710  0.0124  1.7936
  403MOL0     H54357   8.040   1.567   8.616 -2.6689  2.2458  0.6714
  403MOL0     H54358   8.008   1.421   8.718  0.5062 -0.0797  0.0754
  403MOL0     H54359   7.984   1.399   8.416 -0.4522 -2.5767 -0.1373
  403MOL0     H54360   7.974   1.285   8.550  1.1435  0.3406  3.5208
  403MOL0     H54361   8.200   1.261   8.559  0.1836 -2.1700 -3.3110
  403MOL0     H54362   8.226   1.438   8.529 -0.9126  1.3004 -2.4345
  403MOL0     H54363   8.304   1.345   8.325  0.7026 -0.3990  1.6944
  403MOL0     H54364   8.138   1.346   8.268  3.0585  0.1533 -2.9538
  403MOL0     H54365   8.421   1.246   8.193  0.1244 -0.1611 -0.7687
  403MOL0     H54366   8.660   1.249   8.120  1.5122  1.6169 -2.1291
  403MOL0     H54367   8.737   1.091   8.139  0.2692  0.8915  0.8487
  403MOL0     H54368   8.641   1.122   7.996 -2.2411 -2.7481  0.9872
  403MOL0     H54369   8.750   0.607   8.414  0.0539 -0.7573 -0.6358
  403MOL0     H54370   8.944   0.455   8.423 -2.0256  0.3590  1.6593
  403MOL0     H54371   9.201   0.519   8.428  1.9376  0.7398 -0.2211
  403MOL0     H54372   9.154   0.349   8.416  3.2539 -0.2615  2.2601
  403MOL0     H54373   9.425   0.477   8.339  1.7280 -0.2487  1.1527
  403MOL0     H54374   9.383   0.333   8.433  3.2489 -1.3445 -1.5831
  403MOL0     H54375   9.327   0.331   8.138  1.3566  1.9213  0.0175
  403MOL0     H54376   9.297   0.212   8.258 -0.6492 -0.2872  0.4619
  403MOL0     H54377   9.536   0.180   8.306 -0.3168  1.0026 -0.0658
  403MOL0     H54378   9.502   0.158   8.128  3.2392 -0.7952  0.3019
  403MOL0     H54379   9.649   0.386   8.263 -1.7555  2.2599 -0.5921
  403MOL0     H54380   9.629   0.379   8.086  2.7434 -1.8817 -1.0585
  403MOL0     H54381   9.717   0.161   8.057  0.6348  1.0031 -0.6342
  403MOL0     H54382   9.842   0.268   8.124  1.0841 -0.8423 -1.1201
  403MOL0     H54383   9.724   0.038   8.292  0.4332 -0.4534 -1.0340
  403MOL0     H54384   9.795   0.191   8.352  1.0651  0.7689 -0.0406
  403MOL0     H54385   9.962  -0.003   8.336 -1.6323 -2.6527 -0.7541
  403MOL0     H54386   9.997   0.146   8.254 -2.2235  2.0489 -4.2498
  403MOL0     H54387   9.046   0.585   8.010  0.2764 -0.1069 -0.3027
  403MOL0     H54388   8.837   0.675   7.999 -2.0640 -0.6345 -0.0213
  403MOL0     H54389   8.390   0.758   8.229 -0.9096 -0.3854 -2.3249
  403MOL0     H54390   8.216   0.904   8.334 -0.0302  0.7502 -0.1085
  403MOL0     H54391   6.705   1.370   8.053  0.0884 -2.8321 -0.5136
  403MOL0     H54392   6.506   1.454   7.925 -0.5862  1.0074 -0.7964
  403MOL0     H54393   6.104   1.506   7.708 -3.8765  0.3227 -2.2804
  403MOL0     H54394   5.948   1.679   7.646  0.9021 -2.1703  0.2207
  403MOL0     H54395   6.101   2.060   7.502  1.1084 -0.1152 -1.2270
  403MOL0     H54396   6.094   1.963   7.355  0.9100  1.2987 -0.0064
  403MOL0     H54397   5.960   2.166   7.359 -1.0379  1.2946  1.9905
  403MOL0     H54398   5.834   2.079   7.456 -0.3419 -1.1825 -1.7534
  403MOL0     H54399   5.930   1.979   7.175 -1.2616  0.5292 -1.6493
  403MOL0     H54400   5.768   2.059   7.214 -2.4501 -2.0577  1.4250
  403MOL0     H54401   5.715   1.882   7.361 -0.4138  4.2544  0.0098
  403MOL0     H54402   5.859   1.801   7.309 -0.6021 -0.5928 -0.3874
  403MOL0     H54403   5.597   1.731   6.985  1.1709 -0.2367 -0.8555
  403MOL0     H54404   6.281   1.906   7.476 -0.4964  0.7584  0.1454
  403MOL0     H54405   6.424   1.750   7.552  0.0513 -1.5282  1.7252
  404MOL0     O54406   5.327   6.666   1.905 -0.0767 -0.4447  0.2773
  404MOL0     C54407   5.341   6.776   1.954 -0.6066 -0.0985 -0.4355
  404MOL0     O54408   5.443   6.812   2.031  0.4697 -0.1617 -0.7012
  404MOL0     C54409   5.570   6.759   2.006  0.7186 -1.6748  1.1717
  404MOL0     C54410   5.661   6.742   2.107 -0.2473 -0.0292  0.3024
  404MOL0     C54411   5.792   6.702   2.086 -0.0180  0.7236 -0.0175
  404MOL0     C54412   5.846   6.696   1.960  0.9655  0.6584 -0.2491
  404MOL0     O54413   5.976   6.672   1.935 -0.3405 -0.3059  0.4671
  404MOL0     C54414   6.071   6.730   2.023  0.0193  0.9543 -0.3384
  404MOL0     C54415   6.202   6.717   1.954  0.4900  0.2676  0.2481
  404MOL0     C54416   6.234   6.571   1.903  0.2855  0.3622 -1.0562
  404MOL0     C54417   6.240   6.456   2.011 -0.7911  0.2159 -0.3301
  404MOL0     C54418   6.274   6.321   1.938  0.3079 -0.1917  0.1622
  404MOL0     C54419   6.189   6.281   1.821  0.3753  0.4415 -0.4048
  404MOL0     C54420   6.029   6.263   1.836 -0.5373 -0.6928  0.3659
  404MOL0     C54421   5.981   6.231   1.691 -0.3338  0.3653  0.0989
  404MOL0     N54422   5.852   6.169   1.697  0.9136  0.6710 -0.6290
  404MOL0     C54423   5.749   6.226   1.759 -0.5659 -0.4907 -0.1035
  404MOL0     C54424   5.646   6.140   1.757 -0.4941  0.2734 -0.5396
  404MOL0     C54425   5.502   6.160   1.800 -0.8193 -0.0654  0.0047
  404MOL0     C54426   5.476   6.289   1.880 -0.3503  0.2294  1.1533
  404MOL0     C54427   5.333   6.341   1.904 -0.6659  0.6065  0.0239
  404MOL0     C54428   5.234   6.243   1.948 -0.5129  0.4283 -0.7223
  404MOL0     O54429   5.101   6.287   1.912 -0.3526  0.0109  0.1831
  404MOL0     C54430   5.032   6.360   2.008 -0.3966  1.6978  0.6261
  404MOL0     C54431   4.993   6.490   1.975  1.1365  0.1482  0.5321
  404MOL0     C54432   4.926   6.573   2.065  0.1508  0.4822  0.5967
  404MOL0     C54433   4.881   6.708   2.023  0.7101 -0.0779 -0.5555
  404MOL0     C54434   4.875   6.513   2.187 -0.4300 -0.2316  0.7779
  404MOL0     C54435   4.770   6.578   2.275 -0.2091  0.3124 -0.0078
  404MOL0     O54436   4.690   6.495   2.336  0.3367  0.0656  0.0964
  404MOL0     C54437   4.578   6.552   2.400 -0.5242  0.2266  0.2454
  404MOL0     C54438   4.453   6.530   2.354 -0.5260  0.1083  0.9296
  404MOL0     C54439   4.340   6.578   2.422 -0.8419  1.2540 -0.2464
  404MOL0     C54440   4.353   6.648   2.543 -0.1578  0.8727  1.5042
  404MOL0     O54441   4.235   6.685   2.616 -0.4552  0.0278 -0.4708
  404MOL0     C54442   4.123   6.603   2.620 -0.8925  0.6539  0.4242
  404MOL0     C54443   4.035   6.635   2.738  0.5802 -0.7562  0.6258
  404MOL0     C54444   3.897   6.574   2.728  0.4769 -0.2056 -0.0810
  404MOL0     C54445   3.836   6.545   2.868 -0.5228  1.2957 -0.2255
  404MOL0     C54446   3.799   6.671   2.943 -0.5230  0.1457  0.7216
  404MOL0     C54447   3.671   6.747   2.895  0.8686 -0.3015  1.2739
  404MOL0     C54448   3.585   6.799   3.003  0.4674 -0.5364 -0.6553
  404MOL0     C54449   3.486   6.903   2.951  0.8831  0.8227 -0.9149
  404MOL0    Cl54450   3.568   7.049   2.938 -0.0991  0.4341 -0.1596
  404MOL0     C54451   4.479   6.674   2.589 -1.0364 -0.7231  0.2380
  404MOL0     C54452   4.587   6.628   2.521 -0.2791 -0.2521  0.0378
  404MOL0     O54453   4.763   6.704   2.280  0.3450  0.1291  0.4300
  404MOL0     C54454   4.903   6.377   2.213  0.1710  0.4547 -0.4380
  404MOL0     C54455   4.986   6.304   2.130  0.0671 -0.1437  0.8956
  404MOL0     N54456   5.694   6.032   1.689 -0.8257 -0.1068 -0.2462
  404MOL0     N54457   5.814   6.049   1.652 -0.0172 -0.0876 -0.8755
  404MOL0     C54458   5.758   6.718   1.854  0.3748 -0.8444  0.9402
  404MOL0     C54459   5.626   6.752   1.880 -0.2254  0.1772 -0.0981
  404MOL0     C54460   5.243   6.889   1.932 -0.3591  0.2046 -1.2898
  404MOL0     C54461   5.117   6.867   1.870 -0.6162  0.7523  0.4699
  404MOL0     C54462   5.024   6.967   1.850  0.2277 -0.1470  0.0040
  404MOL0     C54463   5.048   7.097   1.890  0.3137  0.5775 -0.2066
  404MOL0     O54464   4.952   7.196   1.878  0.1260 -0.0258 -0.4607
  404MOL0     C54465   4.805   7.172   1.851 -0.6463 -0.1792 -0.2331
  404MOL0     C54466   4.723   7.291   1.883  0.2575 -0.6834 -0.4675
  404MOL0     C54467   4.580   7.262   1.840 -0.0667 -0.0086 -0.0617
  404MOL0     C54468   4.484   7.379   1.832 -0.0536 -0.7017  0.3703
  404MOL0     C54469   4.537   7.489   1.746  0.0806  1.6238  0.6266
  404MOL0     C54470   4.577   7.570   1.664 -0.7088  0.1165 -0.7344
  404MOL0     C54471   5.172   7.128   1.948  0.4605 -0.4869 -0.7228
  404MOL0     C54472   5.261   7.028   1.981  0.5659  0.1920 -0.4150
  404MOL0     H54473   5.630   6.769   2.207  1.2135  2.2558  0.2237
  404MOL0     H54474   5.850   6.678   2.175  1.1012 -0.5493 -1.0427
  404MOL0     H54475   6.059   6.838   2.035 -2.1944  0.9820 -2.2004
  404MOL0     H54476   6.067   6.682   2.121 -1.8535  2.4435  0.3797
  404MOL0     H54477   6.200   6.779   1.864  0.6412 -0.5549 -0.3389
  404MOL0     H54478   6.269   6.757   2.030  1.1424  0.2117 -0.2982
  404MOL0     H54479   6.152   6.552   1.833 -1.2208 -0.2059  0.7688
  404MOL0     H54480   6.325   6.567   1.843  1.4433 -1.3192  0.7031
  404MOL0     H54481   6.320   6.485   2.080  0.7480 -0.6166 -1.6857
  404MOL0     H54482   6.150   6.442   2.071 -2.4922  0.3500 -2.7026
  404MOL0     H54483   6.376   6.316   1.900  1.2938  1.5670  2.3585
  404MOL0     H54484   6.266   6.240   2.012 -1.2714  0.0352  0.2793
  404MOL0     H54485   6.200   6.354   1.740 -0.7130 -0.9538 -1.8618
  404MOL0     H54486   6.234   6.189   1.782 -1.0360  0.2511 -1.6560
  404MOL0     H54487   6.017   6.181   1.907  1.6856 -0.9773  0.4766
  404MOL0     H54488   5.975   6.349   1.877  1.2371  0.4346  0.4337
  404MOL0     H54489   6.044   6.159   1.637 -2.8035  0.7377 -3.6658
  404MOL0     H54490   5.984   6.321   1.628  0.5213  0.5689  0.4166
  404MOL0     H54491   5.748   6.321   1.812 -2.6750  0.2750 -1.3762
  404MOL0     H54492   5.443   6.159   1.708 -0.7134 -3.5408 -0.1822
  404MOL0     H54493   5.489   6.068   1.858 -1.1158  1.4650  2.4980
  404MOL0     H54494   5.527   6.379   1.845  2.1614 -0.3807  2.9557
  404MOL0     H54495   5.520   6.280   1.980  0.6704  3.7405  1.1619
  404MOL0     H54496   5.309   6.399   1.815  4.1692  3.2795  0.1165
  404MOL0     H54497   5.344   6.404   1.993  0.7088 -0.1654  0.4423
  404MOL0     H54498   5.250   6.215   2.053  2.0654 -1.3678 -1.5011
  404MOL0     H54499   5.258   6.153   1.892  1.8362  1.7835 -2.0741
  404MOL0     H54500   5.024   6.535   1.881 -1.1956 -1.1836 -0.9786
  404MOL0     H54501   4.772   6.705   2.011  0.6231  4.3104 -2.7178
  404MOL0     H54502   4.910   6.789   2.090 -0.9503 -0.1095  0.2343
  404MOL0     H54503   4.914   6.727   1.920 -2.5743 -3.4971 -2.5199
  404MOL0     H54504   4.444   6.468   2.266 -0.0349  1.6570 -0.2628
  404MOL0     H54505   4.241   6.552   2.384 -1.3043  0.1633  1.5822
  404MOL0     H54506   4.077   6.605   2.521  0.9385  0.7360 -0.4440
  404MOL0     H54507   4.155   6.500   2.639 -2.6108  0.0868  0.4932
  404MOL0     H54508   4.084   6.606   2.831 -0.9907 -1.4191  1.2912
  404MOL0     H54509   4.006   6.741   2.741  0.3220 -0.8481  2.5578
  404MOL0     H54510   3.907   6.482   2.670 -0.8984  0.2350 -1.0770
  404MOL0     H54511   3.831   6.644   2.676 -0.5223  1.1181  2.7878
  404MOL0     H54512   3.748   6.482   2.851 -0.4445  0.8402  0.9804
  404MOL0     H54513   3.906   6.484   2.925 -3.7475 -0.4165  2.1959
  404MOL0     H54514   3.881   6.743   2.941 -0.3796 -0.0213 -0.7174
  404MOL0     H54515   3.782   6.629   3.043 -0.9766  4.5425  2.6955
  404MOL0     H54516   3.682   6.828   2.822 -0.4456 -0.2663  1.0890
  404MOL0     H54517   3.602   6.676   2.850 -0.0689 -0.6656  3.1819
  404MOL0     H54518   3.650   6.845   3.079  0.0748  2.3779 -1.9410
  404MOL0     H54519   3.538   6.706   3.034  0.7818 -1.6518 -3.2547
  404MOL0     H54520   3.409   6.910   3.028  1.5734 -0.2492 -0.0916
  404MOL0     H54521   3.438   6.875   2.856 -1.7179  0.8605  0.2950
  404MOL0     H54522   4.499   6.746   2.667  2.3665  0.2613 -1.3324
  404MOL0     H54523   4.688   6.659   2.547 -1.2766  3.8426 -0.2612
  404MOL0     H54524   4.863   6.323   2.298 -1.0964  1.2884 -0.4875
  404MOL0     H54525   5.010   6.204   2.165 -1.8044 -0.7679  0.5513
  404MOL0     H54526   5.795   6.701   1.754 -2.3917 -0.1350 -0.2840
  404MOL0     H54527   5.569   6.771   1.790 -1.0536  0.0071  0.3850
  404MOL0     H54528   5.098   6.776   1.815 -2.6374  1.6161 -0.3496
  404MOL0     H54529   4.927   6.944   1.806  0.3721 -1.6543  0.3964
  404MOL0     H54530   4.789   7.156   1.744 -0.9913  2.2346 -0.6040
  404MOL0     H54531   4.773   7.090   1.915  2.1969  0.9380  2.9162
  404MOL0     H54532   4.759   7.379   1.828 -1.2819 -1.8244 -3.5187
  404MOL0     H54533   4.725   7.309   1.991 -1.5393 -0.3656 -0.4587
  404MOL0     H54534   4.550   7.194   1.920 -0.7403  1.1037  0.6685
  404MOL0     H54535   4.580   7.222   1.738  2.4768 -0.9348  0.2400
  404MOL0     H54536   4.463   7.431   1.926 -0.7003  0.3372 -0.3414
  404MOL0     H54537   4.387   7.346   1.794 -0.5213 -2.6186  2.9197
  404MOL0     H54538   4.614   7.646   1.599 -1.5036 -1.5019 -3.2340
  404MOL0     H54539   5.179   7.233   1.976 -4.2679 -0.2276  0.2825
  404MOL0     H54540   5.357   7.046   2.029 -0.4539  0.6807  1.5198
  405MOL0     O54541   8.466   3.941  10.207  0.8200 -0.6503 -1.3517
  405MOL0     C54542   8.542   3.940  10.111 -0.4239  0.8388  0.3548
  405MOL0     O54543   8.515   3.884   9.992  0.4750 -0.3345 -0.1371
  405MOL0     C54544   8.385   3.838   9.977 -0.9863 -0.1309  0.0043
  405MOL0     C54545   8.377   3.711   9.923 -0.8136  0.0472 -0.3422
  405MOL0     C54546   8.262   3.649   9.904 -0.6732 -0.0195  0.9880
  405MOL0     C54547   8.139   3.715   9.929 -0.2804  0.7306 -0.8709
  405MOL0     O54548   8.022   3.657   9.913  0.7185 -0.3503  0.2139
  405MOL0     C54549   8.005   3.518   9.958  0.5316  0.2613  0.0381
  405MOL0     C54550   7.904   3.447   9.880  0.0292  0.1024  0.1472
  405MOL0     C54551   7.964   3.395   9.747  0.0932 -1.0893 -0.1777
  405MOL0     C54552   7.866   3.431   9.635 -0.4642 -0.2969 -0.0850
  405MOL0     C54553   7.850   3.580   9.594 -0.4630 -0.6616 -0.6437
  405MOL0     C54554   7.983   3.659   9.574 -0.9132 -0.5123 -0.3797
  405MOL0     C54555   7.964   3.811   9.541 -0.7303 -0.3774  0.6598
  405MOL0     C54556   8.108   3.876   9.513  0.4158 -0.7922  0.9808
  405MOL0     N54557   8.186   3.808   9.412 -0.1272  0.0879  0.6809
  405MOL0     C54558   8.132   3.780   9.287 -1.2638  0.3003  0.4951
  405MOL0     C54559   8.235   3.728   9.215 -0.0786  0.6135 -0.0440
  405MOL0     C54560   8.233   3.679   9.082 -0.4243 -0.8687  0.1200
  405MOL0     C54561   8.112   3.579   9.059  0.1393  0.5192  0.0870
  405MOL0     C54562   8.137   3.453   9.129  0.1648  1.1055 -0.2744
  405MOL0     C54563   8.028   3.348   9.096  0.1870  0.3108 -0.2233
  405MOL0     O54564   7.911   3.382   9.175  0.2092 -0.2225  0.4579
  405MOL0     C54565   7.804   3.290   9.169 -0.9252 -1.1428  0.0659
  405MOL0     C54566   7.701   3.315   9.260 -0.5065 -1.3758 -0.0324
  405MOL0     C54567   7.584   3.246   9.268  0.9289  0.7305 -0.1833
  405MOL0     C54568   7.479   3.289   9.370 -0.0861  0.1024  0.3379
  405MOL0     C54569   7.570   3.134   9.186  0.1797 -0.8604  1.0741
  405MOL0     C54570   7.440   3.047   9.165 -0.1224  0.9601  1.0369
  405MOL0     O54571   7.329   3.075   9.249 -0.2470 -0.3698 -0.5635
  405MOL0     C54572   7.213   2.995   9.247 -0.5047 -0.2079 -0.3624
  405MOL0     C54573   7.219   2.865   9.288 -0.0332  0.4042 -0.3509
  405MOL0     C54574   7.089   2.801   9.278 -0.8075  0.1838  0.8503
  405MOL0     C54575   6.972   2.860   9.237  0.0526  0.0068  0.2570
  405MOL0     O54576   6.849   2.803   9.237 -0.5094  0.4400  0.0488
  405MOL0     C54577   6.825   2.664   9.269  0.2407 -0.7459 -0.4847
  405MOL0     C54578   6.852   2.562   9.162  0.3075 -0.1746  0.0571
  405MOL0     C54579   6.779   2.593   9.033  0.3374 -0.6628 -0.8736
  405MOL0     C54580   6.871   2.612   8.910 -0.2331 -0.0001 -0.6391
  405MOL0     C54581   6.973   2.729   8.935 -0.2583 -0.2901 -1.2276
  405MOL0     C54582   7.045   2.748   8.802  0.2341  0.0377  0.4300
  405MOL0     C54583   7.173   2.654   8.795  1.3071  0.6309  0.6456
  405MOL0     C54584   7.291   2.718   8.858  0.7099 -0.6457 -0.1953
  405MOL0    Cl54585   7.435   2.616   8.839  0.7428 -0.3794  0.1483
  405MOL0     C54586   6.975   2.991   9.188 -0.2059  0.0558  0.7326
  405MOL0     C54587   7.100   3.055   9.194 -0.7776  0.3641  1.0324
  405MOL0     O54588   7.446   2.950   9.084  0.2846 -0.0930  0.8374
  405MOL0     C54589   7.674   3.096   9.097 -0.4458  0.2641  0.1911
  405MOL0     C54590   7.791   3.179   9.094  0.1269 -0.1424 -0.0987
  405MOL0     N54591   8.346   3.731   9.295  0.1835 -0.0053  0.7508
  405MOL0     N54592   8.313   3.775   9.414 -0.5030 -0.5319  0.6410
  405MOL0     C54593   8.145   3.846   9.974 -0.8616  0.5370 -0.5900
  405MOL0     C54594   8.268   3.911   9.998  0.1178  0.1678  1.1778
  405MOL0     C54595   8.680   3.992  10.132 -0.8582 -0.9065  0.1545
  405MOL0     C54596   8.720   4.060  10.251 -0.6132 -0.3431  0.2212
  405MOL0     C54597   8.855   4.091  10.275 -0.7125 -0.9239  0.0093
  405MOL0     C54598   8.957   4.066  10.181 -0.6317 -0.0281  0.2748
  405MOL0     O54599   9.090   4.091  10.189  1.0307  0.6797 -0.5298
  405MOL0     C54600   9.150   4.078  10.325  0.8859  0.3009 -0.0956
  405MOL0     C54601   9.285   4.002  10.320  0.2348  0.6106  0.7978
  405MOL0     C54602   9.390   4.094  10.253  0.6740 -1.0521 -0.1552
  405MOL0     C54603   9.536   4.058  10.298 -0.2919 -0.0990  0.7331
  405MOL0     C54604   9.567   4.181  10.377  0.5125 -0.8673  1.1574
  405MOL0     C54605   9.617   4.281  10.430  0.2710 -0.0034  0.3199
  405MOL0     C54606   8.919   4.001  10.063  0.2295 -0.1070 -1.4283
  405MOL0     C54607   8.785   3.958  10.053  0.3059 -0.7047  0.5264
  405MOL0     H54608   8.477   3.670   9.919  0.4752  2.8550  0.2716
  405MOL0     H54609   8.262   3.549   9.861  0.7490 -0.3280  1.6280
  405MOL0     H54610   8.092   3.452   9.972 -0.1688 -0.8795 -0.8954
  405MOL0     H54611   7.984   3.530  10.065  1.0967 -0.4382  0.2349
  405MOL0     H54612   7.864   3.358   9.929 -2.7387  0.3428 -1.4358
  405MOL0     H54613   7.816   3.512   9.867 -0.7952 -1.2578 -1.5875
  405MOL0     H54614   8.064   3.433   9.723  0.9075 -3.0599 -0.0350
  405MOL0     H54615   7.963   3.286   9.750 -2.8995 -1.1123  2.1410
  405MOL0     H54616   7.902   3.375   9.548  4.5836  0.6051  1.1383
  405MOL0     H54617   7.768   3.390   9.662  0.3490 -2.6156 -0.4395
  405MOL0     H54618   7.803   3.577   9.495  3.6376 -1.7660 -2.7949
  405MOL0     H54619   7.787   3.634   9.665 -1.5314 -1.9485 -0.5704
  405MOL0     H54620   8.029   3.648   9.673 -2.9026 -1.1866  0.5138
  405MOL0     H54621   8.042   3.607   9.497 -1.4143 -1.1321 -0.3484
  405MOL0     H54622   7.912   3.822   9.445 -1.1362 -1.6249  0.7194
  405MOL0     H54623   7.921   3.870   9.621  2.7929  0.8146  1.8760
  405MOL0     H54624   8.164   3.877   9.607 -0.9050 -0.8665  1.8053
  405MOL0     H54625   8.090   3.978   9.478  1.1928  0.1153  3.0597
  405MOL0     H54626   8.030   3.798   9.256 -0.7754 -0.0745 -1.4693
  405MOL0     H54627   8.214   3.767   9.020  0.3133 -1.5108 -1.0513
  405MOL0     H54628   8.331   3.637   9.059  0.5243  0.2357  1.8851
  405MOL0     H54629   8.102   3.557   8.953 -0.7873 -0.5572  0.3810
  405MOL0     H54630   8.017   3.614   9.101 -0.8280 -3.3603  1.5537
  405MOL0     H54631   8.137   3.470   9.237  1.3636  2.0288 -0.3910
  405MOL0     H54632   8.235   3.414   9.100 -0.1605  2.2236 -3.2970
  405MOL0     H54633   8.050   3.245   9.126 -4.8796 -0.6319  1.2238
  405MOL0     H54634   7.999   3.341   8.991  2.1551 -1.9645 -0.7011
  405MOL0     H54635   7.719   3.406   9.317 -1.4066  1.2012 -3.5513
  405MOL0     H54636   7.469   3.225   9.458  3.1776  1.8570  2.1736
  405MOL0     H54637   7.504   3.388   9.408  0.8563 -1.0880  3.0564
  405MOL0     H54638   7.388   3.301   9.310 -0.0576  2.3112  0.6553
  405MOL0     H54639   7.308   2.820   9.331  1.8144  0.8587 -3.4172
  405MOL0     H54640   7.073   2.701   9.316 -1.3447  0.6179  1.8106
  405MOL0     H54641   6.884   2.622   9.351 -2.6471 -2.4631  0.9036
  405MOL0     H54642   6.718   2.660   9.292 -0.5779  1.2821 -3.4336
  405MOL0     H54643   6.958   2.564   9.135  0.0432 -0.1832 -0.9962
  405MOL0     H54644   6.833   2.458   9.189 -0.9861  0.1833  0.5904
  405MOL0     H54645   6.708   2.674   9.051  0.6486 -0.5697 -0.0181
  405MOL0     H54646   6.717   2.506   9.006  1.5148 -2.2966  1.4226
  405MOL0     H54647   6.926   2.519   8.895  2.0023  0.9946  0.8152
  405MOL0     H54648   6.816   2.641   8.820 -0.0257  2.0914 -0.1574
  405MOL0     H54649   7.054   2.714   9.007  0.1470  4.0747 -0.5197
  405MOL0     H54650   6.916   2.819   8.960  0.8223  0.2526 -0.6787
  405MOL0     H54651   6.984   2.733   8.713 -0.4620 -3.3225  1.3467
  405MOL0     H54652   7.080   2.852   8.800 -0.3324  0.3416  2.6730
  405MOL0     H54653   7.183   2.645   8.686  2.7769 -1.5423  0.9042
  405MOL0     H54654   7.146   2.555   8.832 -0.0748 -0.5350 -2.9987
  405MOL0     H54655   7.281   2.741   8.964  1.5581  3.5325 -0.8221
  405MOL0     H54656   7.317   2.807   8.799  1.7564 -2.4668 -2.6338
  405MOL0     H54657   6.883   3.043   9.165 -2.0044 -4.5065 -4.2717
  405MOL0     H54658   7.114   3.156   9.157 -0.6165 -0.0155  0.0302
  405MOL0     H54659   7.659   3.017   9.023  1.2173 -0.0739  0.1717
  405MOL0     H54660   7.863   3.158   9.015 -2.2124  2.1712 -3.1168
  405MOL0     H54661   8.048   3.889   9.994 -0.4704  1.0066  0.3686
  405MOL0     H54662   8.277   4.014  10.031  2.9803 -0.4114  2.4679
  405MOL0     H54663   8.645   4.089  10.324  0.8945 -1.4784  2.3329
  405MOL0     H54664   8.879   4.160  10.355  2.6207  0.0126 -1.6088
  405MOL0     H54665   9.163   4.180  10.362  2.7474 -0.0707  0.3774
  405MOL0     H54666   9.077   4.031  10.393 -2.9845  3.3598 -1.7568
  405MOL0     H54667   9.262   3.909  10.267 -1.9506  1.1297  0.7192
  405MOL0     H54668   9.307   3.975  10.424  0.9439 -2.9516 -0.1401
  405MOL0     H54669   9.363   4.198  10.275 -1.6209 -1.8330  1.1248
  405MOL0     H54670   9.373   4.095  10.145  1.5544 -1.1081 -0.2997
  405MOL0     H54671   9.610   4.035  10.221 -1.0153  0.8720 -0.2712
  405MOL0     H54672   9.536   3.971  10.364  3.9542  0.8632  2.3406
  405MOL0     H54673   9.675   4.364  10.465 -2.1327  1.7751  0.3613
  405MOL0     H54674   8.981   3.966   9.981  1.3951  0.9736 -1.0574
  405MOL0     H54675   8.766   3.916   9.955  1.8363  0.1465 -0.1748
  406MOL0     O54676   7.660  10.360   8.208  0.7509 -0.1558 -0.5719
  406MOL0     C54677   7.761  10.333   8.146 -0.9383 -0.1385  0.0465
  406MOL0     O54678   7.865  10.259   8.199 -0.0795  0.4948 -0.1272
  406MOL0     C54679   7.834  10.194   8.316 -0.3113  0.9990  1.1760
  406MOL0     C54680   7.734  10.103   8.327  0.2610  1.0945  0.1134
  406MOL0     C54681   7.722  10.041   8.457  0.3236  0.3930  0.2824
  406MOL0     C54682   7.790  10.083   8.565 -0.2408 -0.7250 -0.0823
  406MOL0     O54683   7.767  10.032   8.689  0.7693  0.0175  1.1194
  406MOL0     C54684   7.777   9.893   8.705 -1.2295  0.0467 -0.9783
  406MOL0     C54685   7.638   9.832   8.719 -0.5739  0.5952  0.0035
  406MOL0     C54686   7.558   9.884   8.839 -0.7361 -0.1950 -1.0095
  406MOL0     C54687   7.621   9.906   8.972 -0.4618  0.2728  0.5776
  406MOL0     C54688   7.663   9.780   9.037  0.4780  0.4170 -0.5528
  406MOL0     C54689   7.752   9.807   9.164  0.6877 -0.1672  0.4736
  406MOL0     C54690   7.655   9.884   9.256 -0.7296  0.5266  0.0646
  406MOL0     C54691   7.732   9.881   9.394  0.0633  0.7086  0.6847
  406MOL0     N54692   7.645   9.923   9.502  0.0303 -1.1066 -0.1052
  406MOL0     C54693   7.569  10.044   9.499 -1.1216  0.3013 -0.4832
  406MOL0     C54694   7.506  10.054   9.615  0.8534 -0.7519 -0.5932
  406MOL0     C54695   7.405  10.161   9.657 -0.3121  0.0043 -0.0254
  406MOL0     C54696   7.301  10.203   9.553 -0.5628 -0.5623 -0.5602
  406MOL0     C54697   7.248  10.351   9.585 -0.4220  0.2156  0.7210
  406MOL0     C54698   7.169  10.382   9.458  0.2890 -0.3053 -0.5098
  406MOL0     O54699   7.061  10.286   9.424 -0.9609 -0.1911 -0.3383
  406MOL0     C54700   6.971  10.327   9.326  0.2744 -1.1958  0.7032
  406MOL0     C54701   6.865  10.238   9.283 -0.5099 -0.1663  0.0518
  406MOL0     C54702   6.790  10.262   9.168 -0.1879 -0.1350  1.1362
  406MOL0     C54703   6.675  10.167   9.149  0.3506 -0.6096  0.4424
  406MOL0     C54704   6.812  10.376   9.088 -0.0908  0.1169  0.4690
  406MOL0     C54705   6.730  10.411   8.974  0.5892  0.9675  0.4728
  406MOL0     O54706   6.728  10.539   8.922 -0.2623 -0.3159 -0.3988
  406MOL0     C54707   6.626  10.580   8.834  0.3272 -0.1607 -0.6394
  406MOL0     C54708   6.657  10.660   8.725 -0.3547 -0.3906 -0.0939
  406MOL0     C54709   6.554  10.697   8.628 -0.0736  0.0284 -0.6977
  406MOL0     C54710   6.418  10.651   8.634 -0.5511 -0.2084  0.3800
  406MOL0     O54711   6.330  10.695   8.541 -0.1555  0.4262 -0.0483
  406MOL0     C54712   6.189  10.669   8.559 -0.1952  0.5483 -0.0548
  406MOL0     C54713   6.120  10.785   8.482  0.3156  0.3168  0.1463
  406MOL0     C54714   5.973  10.798   8.489  0.0568  0.0235  0.6321
  406MOL0     C54715   5.917  10.940   8.459 -0.3867  0.2678 -0.1602
  406MOL0     C54716   5.771  10.961   8.470  0.3695  0.3313  0.5362
  406MOL0     C54717   5.667  10.881   8.394  0.4279  0.1638  0.2428
  406MOL0     C54718   5.702  10.857   8.242 -0.3722  0.1459 -0.0307
  406MOL0     C54719   5.595  10.787   8.159 -0.2903  0.3940  0.4121
  406MOL0    Cl54720   5.634  10.614   8.163 -0.3869 -0.3357 -0.3756
  406MOL0     C54721   6.407  10.561   8.744  0.9535 -0.1232 -0.0603
  406MOL0     C54722   6.492  10.536   8.848 -0.4276  0.0379 -0.0735
  406MOL0     O54723   6.673  10.325   8.911  0.0340 -0.4485  0.2928
  406MOL0     C54724   6.907  10.470   9.132  0.7211  0.8968 -0.3806
  406MOL0     C54725   6.991  10.446   9.244  0.2699 -0.1298 -0.2784
  406MOL0     N54726   7.538   9.946   9.688 -0.0065  1.0383  0.3548
  406MOL0     N54727   7.619   9.867   9.623  0.0651  0.4293 -0.1721
  406MOL0     C54728   7.894  10.181   8.551  1.0568 -0.1538 -0.0371
  406MOL0     C54729   7.917  10.222   8.423  0.1608 -0.9288 -0.5005
  406MOL0     C54730   7.795  10.415   8.029 -0.2547  0.1186 -0.4835
  406MOL0     C54731   7.922  10.391   7.962 -0.2328 -0.3614  0.2007
  406MOL0     C54732   7.948  10.448   7.837 -0.1093  0.4093  0.2379
  406MOL0     C54733   7.852  10.535   7.780  0.2213 -0.0449  0.4694
  406MOL0     O54734   7.877  10.574   7.649 -0.3795  0.6068 -0.2979
  406MOL0     C54735   7.804  10.681   7.588 -0.0167 -0.0866 -0.6649
  406MOL0     C54736   7.838  10.817   7.653  0.4102 -0.3225  0.3580
  406MOL0     C54737   7.757  10.935   7.605 -0.8484 -0.2638  0.4727
  406MOL0     C54738   7.618  10.927   7.663 -0.1599 -0.4268 -1.2501
  406MOL0     C54739   7.628  10.938   7.810 -0.5368 -0.5810  0.2213
  406MOL0     C54740   7.632  10.917   7.928 -0.4480 -0.5058  0.1762
  406MOL0     C54741   7.732  10.562   7.845 -0.2233  0.3069  0.3596
  406MOL0     C54742   7.701  10.494   7.955  0.4040 -0.1691  1.1921
  406MOL0     H54743   7.675  10.065   8.244  3.6583 -1.5994 -1.3546
  406MOL0     H54744   7.643   9.970   8.481  0.8135  0.1404  1.1987
  406MOL0     H54745   7.839   9.852   8.625 -0.9850 -0.1846 -0.6790
  406MOL0     H54746   7.838   9.876   8.795 -0.3050 -2.7783 -2.0244
  406MOL0     H54747   7.573   9.860   8.636 -2.8750  0.8956  1.8098
  406MOL0     H54748   7.651   9.724   8.723 -1.6370  0.4091 -1.1507
  406MOL0     H54749   7.514   9.980   8.809 -0.4373 -0.6919 -3.2025
  406MOL0     H54750   7.473   9.817   8.851 -0.2669 -0.5781  0.4218
  406MOL0     H54751   7.709   9.972   8.971  0.1662 -0.5299 -0.5378
  406MOL0     H54752   7.545   9.948   9.037  1.4325  1.1567  2.3333
  406MOL0     H54753   7.576   9.721   9.066  0.8643  0.5132  0.8607
  406MOL0     H54754   7.715   9.725   8.959 -2.0710  1.6720 -3.3546
  406MOL0     H54755   7.804   9.720   9.207  2.3001 -0.7994 -2.4553
  406MOL0     H54756   7.837   9.872   9.140 -1.3539  2.8858  0.9934
  406MOL0     H54757   7.644   9.990   9.230 -2.0824  0.3926  0.0215
  406MOL0     H54758   7.557   9.834   9.263  0.1271 -1.0212  1.8974
  406MOL0     H54759   7.821   9.946   9.393  3.2687 -3.2425  1.3205
  406MOL0     H54760   7.779   9.785   9.415 -0.8361  0.3537  1.0683
  406MOL0     H54761   7.586  10.128   9.432  1.2051 -0.2037 -0.6057
  406MOL0     H54762   7.351  10.132   9.748 -0.5149 -1.7211 -0.6428
  406MOL0     H54763   7.465  10.245   9.692 -2.2842  1.2536  0.5316
  406MOL0     H54764   7.218  10.132   9.555 -2.5498  1.6569  0.6216
  406MOL0     H54765   7.348  10.212   9.455  2.1006 -0.9251  0.5884
  406MOL0     H54766   7.338  10.414   9.586  1.5825 -2.4880  0.7305
  406MOL0     H54767   7.198  10.368   9.681 -1.2299  1.1680  0.1403
  406MOL0     H54768   7.233  10.392   9.369  2.5470 -0.2148  1.0420
  406MOL0     H54769   7.129  10.483   9.475  1.6367 -0.1083  1.8807
  406MOL0     H54770   6.841  10.146   9.337  0.0638 -1.1212 -1.2734
  406MOL0     H54771   6.585  10.228   9.138  2.3624  2.4364 -0.3319
  406MOL0     H54772   6.697  10.110   9.058  3.5824  1.4482 -0.2421
  406MOL0     H54773   6.651  10.099   9.231 -1.6204  0.2401  0.6336
  406MOL0     H54774   6.752  10.699   8.690  0.4471 -1.4536  0.8114
  406MOL0     H54775   6.588  10.768   8.553  1.5453  0.6776  0.5837
  406MOL0     H54776   6.181  10.575   8.504  1.6742  1.9476 -2.9399
  406MOL0     H54777   6.157  10.659   8.663  1.8489  0.7232  0.6358
  406MOL0     H54778   6.160  10.885   8.501 -2.5544  1.4251  0.7656
  406MOL0     H54779   6.145  10.774   8.376  0.2633  1.5643 -0.0104
  406MOL0     H54780   5.938  10.769   8.589 -0.7724  0.7360  0.5556
  406MOL0     H54781   5.943  10.729   8.410 -1.8866 -0.0182  1.3400
  406MOL0     H54782   5.965  11.013   8.526 -0.9033  0.3318  0.1455
  406MOL0     H54783   5.943  10.972   8.358  0.1149  1.5203  0.3388
  406MOL0     H54784   5.755  11.064   8.437  1.1986  0.4450  0.4622
  406MOL0     H54785   5.739  10.955   8.574 -0.6504 -1.8137  0.1633
  406MOL0     H54786   5.663  10.784   8.444 -1.0948 -0.8423 -1.6751
  406MOL0     H54787   5.567  10.923   8.406  0.5136  0.2717  0.5909
  406MOL0     H54788   5.798  10.808   8.225  0.2254  0.7080  1.5132
  406MOL0     H54789   5.713  10.957   8.199 -0.9030  0.3776  0.3682
  406MOL0     H54790   5.589  10.827   8.057  3.1218  0.7646  0.2299
  406MOL0     H54791   5.498  10.797   8.209 -0.3977 -1.1681  0.5724
  406MOL0     H54792   6.306  10.522   8.756 -0.1036  2.8536  1.6484
  406MOL0     H54793   6.458  10.467   8.926  0.8908  0.5410  0.9911
  406MOL0     H54794   6.911  10.569   9.088  1.3379  1.0406 -0.0188
  406MOL0     H54795   7.055  10.529   9.271 -1.2777  0.9837  0.0826
  406MOL0     H54796   7.962  10.212   8.629  2.8397  1.1818 -2.0210
  406MOL0     H54797   8.004  10.285   8.407 -1.1565  1.0201 -0.3405
  406MOL0     H54798   7.992  10.327   8.016 -3.1046 -2.5914  1.5377
  406MOL0     H54799   8.039  10.421   7.786 -0.7262 -1.7017  0.1781
  406MOL0     H54800   7.800  10.689   7.479 -2.9218 -1.5276 -0.7599
  406MOL0     H54801   7.698  10.654   7.599  0.4190 -1.2111  1.3424
  406MOL0     H54802   7.943  10.838   7.631 -0.3915  3.2715 -0.6392
  406MOL0     H54803   7.835  10.803   7.761  0.6449  1.4458  0.6192
  406MOL0     H54804   7.750  10.944   7.496  0.5353 -0.2982  0.3660
  406MOL0     H54805   7.816  11.020   7.640 -0.5085 -0.5626  0.6199
  406MOL0     H54806   7.556  10.845   7.625 -2.3630  0.4588  0.2604
  406MOL0     H54807   7.563  11.013   7.623 -1.6859  0.2119  1.8945
  406MOL0     H54808   7.639  10.891   8.031  3.3535 -1.1420 -0.0897
  406MOL0     H54809   7.654  10.625   7.802  2.1094  2.9171 -0.3449
  406MOL0     H54810   7.605  10.517   8.000 -1.2105 -1.3750 -1.4411
  407MOL0     O54811   5.162   7.728   3.730  0.8513  0.3482  0.4586
  407MOL0     C54812   5.228   7.715   3.837 -0.4494  0.1614  0.1997
  407MOL0     O54813   5.175   7.715   3.962  0.1784  0.3111  0.3930
  407MOL0     C54814   5.040   7.710   3.967  0.8990 -0.4577  0.6551
  407MOL0     C54815   4.968   7.829   3.938  0.1572 -0.4856 -0.8917
  407MOL0     C54816   4.824   7.812   3.941 -0.7291  0.1659 -0.1415
  407MOL0     C54817   4.764   7.699   3.987 -0.8345  0.1073  0.6295
  407MOL0     O54818   4.633   7.682   3.964  0.1599 -0.0763  0.4507
  407MOL0     C54819   4.573   7.576   4.031  1.4933 -0.8841 -0.5948
  407MOL0     C54820   4.430   7.597   4.031  0.5343 -0.1565  0.5347
  407MOL0     C54821   4.355   7.475   4.101  0.3284 -1.1323 -0.3030
  407MOL0     C54822   4.214   7.517   4.146  0.8068 -0.0719 -0.2017
  407MOL0     C54823   4.150   7.402   4.230 -0.2797  0.1299 -0.5243
  407MOL0     C54824   4.027   7.441   4.311 -1.0896  0.5555  0.5029
  407MOL0     C54825   3.903   7.471   4.216  0.7167 -0.4251 -0.2996
  407MOL0     C54826   3.781   7.510   4.300  0.2106  0.2266  0.4866
  407MOL0     N54827   3.746   7.397   4.388 -0.4759 -0.3671  0.2119
  407MOL0     C54828   3.685   7.289   4.342  0.0073  0.6172 -0.0998
  407MOL0     C54829   3.691   7.206   4.447 -0.6381 -0.4025 -0.4327
  407MOL0     C54830   3.658   7.063   4.462  0.6513 -0.7661  0.3341
  407MOL0     C54831   3.593   6.996   4.336  0.1107 -0.3812  0.1866
  407MOL0     C54832   3.528   6.856   4.376 -0.7802  1.0693 -0.4931
  407MOL0     C54833   3.635   6.739   4.404  0.4532  0.5866 -0.6079
  407MOL0     O54834   3.560   6.616   4.425  0.5633 -0.4640 -0.0613
  407MOL0     C54835   3.522   6.596   4.557 -0.2096 -0.0389 -0.1009
  407MOL0     C54836   3.614   6.592   4.667 -0.4559 -0.8167 -0.1623
  407MOL0     C54837   3.568   6.574   4.801 -0.2026  0.1554  0.5287
  407MOL0     C54838   3.677   6.582   4.904  0.4114  0.6646 -0.0460
  407MOL0     C54839   3.432   6.549   4.822  0.0642 -0.3175 -0.3636
  407MOL0     C54840   3.365   6.527   4.949 -0.5610 -0.4922  0.4135
  407MOL0     O54841   3.232   6.489   4.943  0.3480 -0.4588 -0.1841
  407MOL0     C54842   3.169   6.470   5.062  0.2968  0.0694  0.1050
  407MOL0     C54843   3.220   6.392   5.163  0.6969 -0.1011  1.0009
  407MOL0     C54844   3.142   6.371   5.274 -0.1639  0.3002 -0.2277
  407MOL0     C54845   3.009   6.421   5.291 -0.7283  0.1359  0.1118
  407MOL0     O54846   2.925   6.411   5.401  0.1313  0.5517  0.3913
  407MOL0     C54847   2.984   6.317   5.501  0.6435 -0.1502  0.1793
  407MOL0     C54848   2.873   6.272   5.604  0.3715  0.4453 -0.2335
  407MOL0     C54849   2.924   6.177   5.714  1.3732 -0.1786  0.0284
  407MOL0     C54850   2.844   6.175   5.844  0.5278  0.3521  0.1631
  407MOL0     C54851   2.883   6.035   5.912 -0.0174 -0.8210  0.2183
  407MOL0     C54852   2.823   6.027   6.052  0.1987 -0.1542  0.8391
  407MOL0     C54853   2.901   5.918   6.127  0.7443  0.2205  0.5668
  407MOL0     C54854   3.024   5.968   6.206 -0.5440 -0.8327  0.3427
  407MOL0    Cl54855   3.067   5.849   6.332  0.1202  0.5564  0.1605
  407MOL0     C54856   2.961   6.502   5.183  0.2941 -0.9367 -1.1374
  407MOL0     C54857   3.043   6.532   5.065  0.4506  0.6789  0.0097
  407MOL0     O54858   3.427   6.551   5.051 -1.2211 -0.6665 -0.2806
  407MOL0     C54859   3.344   6.556   4.711 -0.1768  0.4997  0.0581
  407MOL0     C54860   3.387   6.578   4.580  0.2522 -0.1658 -0.5435
  407MOL0     N54861   3.760   7.270   4.554 -0.5586  0.1238  0.0068
  407MOL0     N54862   3.789   7.386   4.514 -0.3024  0.6024 -0.0811
  407MOL0     C54863   4.845   7.585   4.022 -0.1810 -0.3868 -0.3104
  407MOL0     C54864   4.979   7.599   4.019 -0.8934  0.1191  0.9177
  407MOL0     C54865   5.370   7.703   3.826 -0.7620  0.4537  0.3307
  407MOL0     C54866   5.436   7.653   3.705 -0.1291  0.1260 -0.0174
  407MOL0     C54867   5.576   7.646   3.694  0.5665 -0.1554  0.2963
  407MOL0     C54868   5.656   7.697   3.793 -0.6444  0.6446  0.2528
  407MOL0     O54869   5.793   7.705   3.780 -0.0684 -0.5452 -0.3719
  407MOL0     C54870   5.864   7.590   3.724  0.3415 -0.4414 -0.2142
  407MOL0     C54871   5.990   7.566   3.794  0.2694 -0.2586  0.1584
  407MOL0     C54872   6.075   7.468   3.718  0.1835 -0.8950  0.5087
  407MOL0     C54873   6.178   7.392   3.792  1.3186  0.1417  0.5904
  407MOL0     C54874   6.234   7.277   3.718  0.1285 -0.4490 -0.3982
  407MOL0     C54875   6.283   7.184   3.660 -0.0385  1.0622 -0.4514
  407MOL0     C54876   5.597   7.764   3.900 -0.1038 -0.0782 -0.2416
  407MOL0     C54877   5.466   7.768   3.924 -0.0277 -0.7561 -0.3175
  407MOL0     H54878   5.015   7.923   3.911 -1.2437  0.0432 -1.5617
  407MOL0     H54879   4.759   7.894   3.913 -1.3046  0.6954  2.4896
  407MOL0     H54880   4.597   7.488   3.970  1.1359 -0.7665 -0.9170
  407MOL0     H54881   4.610   7.577   4.133 -0.0807  0.6842  0.0176
  407MOL0     H54882   4.402   7.692   4.077 -0.8748  1.4054 -3.1228
  407MOL0     H54883   4.392   7.589   3.928  0.9511  0.1600  0.3522
  407MOL0     H54884   4.355   7.380   4.046  0.1189 -0.8949 -0.7220
  407MOL0     H54885   4.401   7.444   4.195  0.8786  0.2722 -0.0887
  407MOL0     H54886   4.219   7.604   4.212 -1.9997  2.3059 -2.8430
  407MOL0     H54887   4.155   7.555   4.062 -0.1608  1.3467  1.0806
  407MOL0     H54888   4.139   7.313   4.167 -1.4598 -0.7989  0.9373
  407MOL0     H54889   4.210   7.371   4.316 -1.4653  1.1107  0.7030
  407MOL0     H54890   4.009   7.367   4.390  2.2176  0.4260  1.3222
  407MOL0     H54891   4.060   7.524   4.374 -0.7660  0.4342  0.5005
  407MOL0     H54892   3.922   7.558   4.153 -0.0931  1.1510  1.5211
  407MOL0     H54893   3.883   7.375   4.167  3.3360  0.5842 -3.7102
  407MOL0     H54894   3.707   7.546   4.229  0.2520 -4.4049 -2.3376
  407MOL0     H54895   3.809   7.592   4.366  0.7763 -1.4414  2.4158
  407MOL0     H54896   3.642   7.264   4.245 -0.7225  1.1233  0.0851
  407MOL0     H54897   3.747   7.006   4.489  0.1795 -1.5938  0.1587
  407MOL0     H54898   3.586   7.056   4.544  0.2740 -2.6430 -0.1173
  407MOL0     H54899   3.679   6.981   4.270 -1.2347 -2.3574 -1.2555
  407MOL0     H54900   3.515   7.063   4.298 -2.9737 -4.1126 -0.7168
  407MOL0     H54901   3.466   6.808   4.300 -0.4441 -6.0472  2.8983
  407MOL0     H54902   3.463   6.871   4.463 -0.2452  0.5365  0.0005
  407MOL0     H54903   3.682   6.772   4.497  1.5315  1.9328 -1.5870
  407MOL0     H54904   3.707   6.719   4.325  0.7508 -2.4335  0.3179
  407MOL0     H54905   3.720   6.613   4.654 -0.5901  0.0454  0.0784
  407MOL0     H54906   3.659   6.658   4.981 -2.8709  2.1645 -2.0659
  407MOL0     H54907   3.672   6.491   4.965  2.1441  0.3048 -0.3683
  407MOL0     H54908   3.777   6.583   4.860 -0.6551 -1.2570 -2.7851
  407MOL0     H54909   3.318   6.349   5.144 -0.3990 -1.4349 -2.3161
  407MOL0     H54910   3.192   6.310   5.349 -1.0435  0.7158  0.7131
  407MOL0     H54911   3.037   6.231   5.459  4.6548  0.2426  3.7484
  407MOL0     H54912   3.068   6.364   5.553  2.4169 -0.8589 -1.8633
  407MOL0     H54913   2.839   6.359   5.661 -0.7416 -0.1865  0.0987
  407MOL0     H54914   2.784   6.224   5.564  0.4191  0.5218 -0.4344
  407MOL0     H54915   3.024   6.200   5.752  2.2455 -1.1378 -1.6024
  407MOL0     H54916   2.922   6.075   5.676  1.9617 -0.4534  0.7226
  407MOL0     H54917   2.858   6.259   5.913 -0.4496 -0.9968  2.1181
  407MOL0     H54918   2.735   6.175   5.829  0.4432 -0.9806  0.6252
  407MOL0     H54919   2.992   6.034   5.914  0.0622 -1.8289 -1.7254
  407MOL0     H54920   2.840   5.955   5.851  1.2309  0.1243 -2.0352
  407MOL0     H54921   2.821   6.120   6.109 -1.9159  0.5400 -0.2342
  407MOL0     H54922   2.717   6.003   6.035  0.1936 -0.2385  0.9844
  407MOL0     H54923   2.945   5.856   6.048  1.7211  1.5592  0.0199
  407MOL0     H54924   2.843   5.853   6.194  2.6264  0.5037  2.5850
  407MOL0     H54925   2.999   6.062   6.256  0.1507  0.1586 -1.0983
  407MOL0     H54926   3.109   5.972   6.138  1.9055  1.5854  3.2571
  407MOL0     H54927   2.867   6.552   5.202 -0.2311 -1.8603 -1.2663
  407MOL0     H54928   3.012   6.589   4.979  2.8813  0.9070 -0.8015
  407MOL0     H54929   3.236   6.549   4.717 -0.1452 -1.2645 -0.6562
  407MOL0     H54930   3.324   6.588   4.493  2.8560 -2.6352 -2.9128
  407MOL0     H54931   4.815   7.484   4.044 -1.3203  0.0492  0.2015
  407MOL0     H54932   5.053   7.530   4.059 -1.7336 -0.5861  1.2873
  407MOL0     H54933   5.384   7.606   3.622  1.9659 -2.0040 -0.2413
  407MOL0     H54934   5.623   7.609   3.603  2.2650  0.0909  1.0428
  407MOL0     H54935   5.792   7.509   3.740 -2.6151  2.2364  1.0394
  407MOL0     H54936   5.877   7.595   3.615  0.6965 -1.2618 -0.2215
  407MOL0     H54937   5.970   7.522   3.892  2.8127 -1.0079  0.4153
  407MOL0     H54938   6.044   7.658   3.815  0.2500 -0.3208  0.4784
  407MOL0     H54939   6.123   7.535   3.646 -2.4900  1.6044  0.8754
  407MOL0     H54940   6.014   7.398   3.660  3.0928 -0.8347 -2.9958
  407MOL0     H54941   6.136   7.352   3.885  1.0096  2.4015  1.4899
  407MOL0     H54942   6.259   7.456   3.827  0.6891 -0.4588  3.4297
  407MOL0     H54943   6.333   7.106   3.607 -0.3439 -0.1798  1.0176
  407MOL0     H54944   5.655   7.819   3.973 -2.5895  0.1809  1.6583
  407MOL0     H54945   5.424   7.825   4.006 -1.3232  0.1742 -1.5596
  408MOL0     O54946   7.202   9.925   2.709  0.0790  0.0056  0.3247
  408MOL0     C54947   7.252   9.841   2.634 -1.8175 -0.5009 -0.0826
  408MOL0     O54948   7.331   9.734   2.671  0.2882 -0.4797  0.1043
  408MOL0     C54949   7.398   9.747   2.789  0.9030 -0.0537  0.1228
  408MOL0     C54950   7.379   9.666   2.903  0.0792 -0.3677  0.9369
  408MOL0     C54951   7.447   9.695   3.023  0.1858 -0.4480 -0.3684
  408MOL0     C54952   7.533   9.810   3.023  0.7009  0.0277  0.0433
  408MOL0     O54953   7.607   9.855   3.132  0.5076  0.7351  0.8564
  408MOL0     C54954   7.635   9.759   3.243  0.1837 -0.1840  0.1648
  408MOL0     C54955   7.723   9.821   3.346 -1.0795 -0.2045 -0.0519
  408MOL0     C54956   7.797   9.714   3.429 -0.6773  0.1039  0.2184
  408MOL0     C54957   7.706   9.660   3.540  0.1864  0.2450 -0.1536
  408MOL0     C54958   7.795   9.577   3.637 -0.3122  0.5023  0.4538
  408MOL0     C54959   7.848   9.442   3.582 -0.3181 -0.7363 -0.1199
  408MOL0     C54960   7.930   9.375   3.685 -0.0584  0.2669 -0.4264
  408MOL0     C54961   8.009   9.257   3.634  0.7424 -0.2271 -0.1769
  408MOL0     N54962   7.927   9.156   3.559 -0.1888 -0.3605 -0.0907
  408MOL0     C54963   7.849   9.059   3.612  1.1008 -0.5722 -0.0468
  408MOL0     C54964   7.791   9.003   3.504 -0.6760 -0.0597 -0.3015
  408MOL0     C54965   7.687   8.909   3.529  0.0541  0.3107  0.4696
  408MOL0     C54966   7.690   8.796   3.429  0.4123 -0.6048  1.4275
  408MOL0     C54967   7.614   8.831   3.297  0.1473 -0.2078 -0.0074
  408MOL0     C54968   7.579   8.708   3.219 -0.1691 -0.2211  0.8152
  408MOL0     O54969   7.485   8.623   3.299 -0.8721  0.4765 -0.9539
  408MOL0     C54970   7.545   8.514   3.351  0.7185  0.3749  0.1329
  408MOL0     C54971   7.538   8.505   3.489 -0.0919 -0.4673  0.3508
  408MOL0     C54972   7.596   8.408   3.563  0.2249  0.9628  0.5835
  408MOL0     C54973   7.580   8.411   3.718 -0.4153 -0.3031 -0.3731
  408MOL0     C54974   7.681   8.311   3.494  0.2739 -0.0312 -0.9587
  408MOL0     C54975   7.750   8.212   3.575 -0.2092 -0.4173  0.6701
  408MOL0     O54976   7.819   8.246   3.689  0.6092  0.8600 -0.8027
  408MOL0     C54977   7.875   8.148   3.768  0.0926  0.2994  0.5931
  408MOL0     C54978   7.985   8.192   3.830 -0.2585 -0.4518 -0.4434
  408MOL0     C54979   8.062   8.110   3.915  0.0374 -0.8980  0.0003
  408MOL0     C54980   8.019   7.978   3.947  0.9000 -0.5724  0.0209
  408MOL0     O54981   8.095   7.907   4.036  0.2973  0.0831  0.1303
  408MOL0     C54982   8.094   7.768   4.040 -0.3914 -0.2448 -0.5455
  408MOL0     C54983   8.019   7.720   4.160 -0.5008  0.4935  0.6229
  408MOL0     C54984   8.105   7.636   4.259  0.7951 -0.1448  0.2576
  408MOL0     C54985   8.031   7.627   4.394 -0.5149 -0.4625  1.0714
  408MOL0     C54986   8.116   7.581   4.503 -0.9604  0.0771  0.2348
  408MOL0     C54987   8.025   7.546   4.624  0.9621 -0.0785  0.4139
  408MOL0     C54988   8.107   7.569   4.753 -0.8940  0.3217  0.0009
  408MOL0     C54989   8.037   7.525   4.883  0.7286  0.4911  0.1654
  408MOL0    Cl54990   8.035   7.349   4.893 -0.2894 -0.2612 -0.0829
  408MOL0     C54991   7.901   7.929   3.878  0.4607 -0.8570 -1.7409
  408MOL0     C54992   7.827   8.019   3.796  0.0739  0.8725 -0.4210
  408MOL0     O54993   7.768   8.114   3.508  0.1418 -0.1481 -0.5458
  408MOL0     C54994   7.692   8.323   3.355  1.1105  0.3714  0.1661
  408MOL0     C54995   7.624   8.422   3.281  0.5807 -0.3421 -0.3652
  408MOL0     N54996   7.838   9.064   3.392 -0.0715  0.5024 -0.5984
  408MOL0     N54997   7.924   9.152   3.426 -0.2497  0.2568  0.1431
  408MOL0     C54998   7.545   9.890   2.916 -0.8039  0.3508 -0.1073
  408MOL0     C54999   7.484   9.858   2.799  0.2642  0.4834  0.1940
  408MOL0     C55000   7.227   9.843   2.490 -0.1142 -0.0433 -0.3336
  408MOL0     C55001   7.315   9.786   2.403 -0.5243  0.4485 -0.0730
  408MOL0     C55002   7.267   9.783   2.269  0.0152  0.4956 -0.4173
  408MOL0     C55003   7.142   9.809   2.235 -0.0346  0.1873  0.4107
  408MOL0     O55004   7.092   9.806   2.099 -0.2541  0.2340 -0.2953
  408MOL0     C55005   7.165   9.726   2.009  0.0227 -0.2776  0.1703
  408MOL0     C55006   7.142   9.580   2.046 -0.0105  0.4109  0.3181
  408MOL0     C55007   7.226   9.479   1.950 -0.4907  0.1468 -0.7761
  408MOL0     C55008   7.226   9.349   2.020 -0.4532 -0.5972  0.3596
  408MOL0     C55009   7.292   9.267   1.915 -0.4402 -0.7542 -0.0034
  408MOL0     C55010   7.349   9.204   1.826 -0.6933 -0.1043  1.0197
  408MOL0     C55011   7.060   9.872   2.325 -0.2376  0.0638  0.2528
  408MOL0     C55012   7.105   9.897   2.454  0.1954 -0.6170 -0.8067
  408MOL0     H55013   7.296   9.596   2.910  0.1623 -0.5110  0.5701
  408MOL0     H55014   7.434   9.639   3.115 -0.1300  2.3937  1.4551
  408MOL0     H55015   7.547   9.727   3.300  1.7381 -0.7683  2.3595
  408MOL0     H55016   7.692   9.675   3.201 -0.6799  0.2423 -1.9557
  408MOL0     H55017   7.814   9.862   3.301 -1.3603 -0.8701 -1.2654
  408MOL0     H55018   7.683   9.900   3.410  0.0242 -1.3583  2.1914
  408MOL0     H55019   7.822   9.632   3.360 -2.3013  0.4715 -0.8651
  408MOL0     H55020   7.883   9.751   3.486 -1.4361 -0.9120  2.1016
  408MOL0     H55021   7.667   9.745   3.598 -2.6886 -0.4629 -0.8933
  408MOL0     H55022   7.627   9.600   3.494 -1.2839  0.1992  2.2600
  408MOL0     H55023   7.878   9.643   3.661  0.2401  1.4351 -3.3901
  408MOL0     H55024   7.745   9.558   3.732  3.0838 -0.2754  2.2344
  408MOL0     H55025   7.761   9.384   3.553 -1.0504 -1.0975  2.5762
  408MOL0     H55026   7.910   9.465   3.495  1.5583  0.0209  1.3381
  408MOL0     H55027   7.997   9.453   3.721 -1.9420  2.9191 -2.1902
  408MOL0     H55028   7.860   9.343   3.763  1.8119 -1.8204  0.4952
  408MOL0     H55029   8.067   9.211   3.714  0.7402  3.3862  2.1360
  408MOL0     H55030   8.081   9.307   3.570  1.7637  0.1820  1.2422
  408MOL0     H55031   7.833   9.037   3.717 -1.8679 -1.0967 -0.5232
  408MOL0     H55032   7.701   8.873   3.632 -0.1162  3.2189  1.6120
  408MOL0     H55033   7.596   8.969   3.521  0.6453  1.0563 -1.1037
  408MOL0     H55034   7.639   8.712   3.477  2.1739 -1.6730  1.5050
  408MOL0     H55035   7.788   8.764   3.393 -1.5549 -2.8951 -2.5701
  408MOL0     H55036   7.677   8.910   3.253  1.7641 -0.5434  1.5865
  408MOL0     H55037   7.521   8.886   3.314 -1.2119 -2.2452 -0.6132
  408MOL0     H55038   7.669   8.650   3.196 -0.5011 -1.1524  1.7601
  408MOL0     H55039   7.532   8.742   3.126  1.1584 -2.7526 -0.9253
  408MOL0     H55040   7.469   8.566   3.546 -0.7258 -0.4244 -0.4273
  408MOL0     H55041   7.528   8.326   3.762 -0.5289 -1.2804 -2.3155
  408MOL0     H55042   7.675   8.420   3.773 -2.2851 -1.1897  3.3345
  408MOL0     H55043   7.521   8.498   3.749  1.7423  1.4390 -0.8555
  408MOL0     H55044   8.019   8.292   3.805  0.5840 -0.6410 -0.0706
  408MOL0     H55045   8.161   8.140   3.948 -0.3431 -1.5942  1.8827
  408MOL0     H55046   8.061   7.729   3.943 -1.5500 -4.6853  1.3814
  408MOL0     H55047   8.199   7.736   4.039  0.2198  1.2967 -4.4374
  408MOL0     H55048   7.983   7.809   4.214 -1.0030  0.2936  0.6233
  408MOL0     H55049   7.929   7.669   4.124 -0.0439 -0.5904  0.9714
  408MOL0     H55050   8.197   7.693   4.278  2.5941 -3.2433  1.5278
  408MOL0     H55051   8.133   7.542   4.211 -0.4078  0.7848 -2.4710
  408MOL0     H55052   8.009   7.731   4.423  1.0588  0.3181 -0.3267
  408MOL0     H55053   7.944   7.566   4.370 -0.2326  0.4123 -2.9487
  408MOL0     H55054   8.200   7.648   4.525 -0.5284  0.1891 -1.5678
  408MOL0     H55055   8.172   7.492   4.472  2.2588  2.2277 -0.7025
  408MOL0     H55056   7.938   7.613   4.625  1.8373  1.0636  1.1007
  408MOL0     H55057   7.982   7.447   4.605 -3.2151  1.9194 -2.0645
  408MOL0     H55058   8.139   7.673   4.759 -0.9797  0.6200 -2.9305
  408MOL0     H55059   8.194   7.503   4.743  0.5134  1.5845  2.8470
  408MOL0     H55060   7.933   7.556   4.871 -0.2982 -3.0268 -1.2589
  408MOL0     H55061   8.086   7.569   4.971  0.8956  2.3245 -0.7999
  408MOL0     H55062   7.863   7.830   3.901 -3.0456  0.5789 -0.5919
  408MOL0     H55063   7.728   7.990   3.759  0.4814  1.0362 -1.6812
  408MOL0     H55064   7.741   8.244   3.298  0.5896  1.4239 -1.8261
  408MOL0     H55065   7.621   8.433   3.173  0.0262  1.9879 -0.1725
  408MOL0     H55066   7.613   9.974   2.921  0.4415 -0.4211 -2.5958
  408MOL0     H55067   7.502   9.916   2.709 -2.6653 -2.2208 -2.4117
  408MOL0     H55068   7.417   9.766   2.433 -0.2772  1.0815 -0.4724
  408MOL0     H55069   7.335   9.740   2.196  1.4861 -0.2393  1.2934
  408MOL0     H55070   7.139   9.751   1.906  0.3871 -0.9716 -0.0987
  408MOL0     H55071   7.272   9.747   2.004  0.2442 -1.0934  1.1730
  408MOL0     H55072   7.036   9.551   2.044 -0.7510  2.6509  2.1559
  408MOL0     H55073   7.172   9.569   2.151 -0.8002  4.3803  1.1316
  408MOL0     H55074   7.325   9.515   1.920 -1.1162 -1.0777 -4.8417
  408MOL0     H55075   7.164   9.469   1.861  0.4883  1.3161 -1.6115
  408MOL0     H55076   7.133   9.293   2.035 -1.2040  0.3626 -0.5101
  408MOL0     H55077   7.285   9.348   2.112  1.6013 -1.5596 -0.8975
  408MOL0     H55078   7.409   9.159   1.750 -2.2558  1.8021 -1.4948
  408MOL0     H55079   6.956   9.894   2.301 -0.0813  1.4619  0.7400
  408MOL0     H55080   7.030   9.939   2.520 -1.3140 -1.2784 -2.0443
  409MOL0     O55081   9.982   9.835   2.819  0.0355 -0.5324  0.0173
  409MOL0     C55082   9.978   9.753   2.724  0.2264  1.0999 -0.0475
  409MOL0     O55083   9.893   9.742   2.619  0.5653 -0.2211  0.1882
  409MOL0     C55084   9.795   9.834   2.599 -0.1097 -0.1837 -0.5262
  409MOL0     C55085   9.756   9.873   2.468 -0.1569 -0.4029 -0.1689
  409MOL0     C55086   9.657   9.971   2.448  0.6315  1.1011  1.2073
  409MOL0     C55087   9.580  10.006   2.554  0.9482  0.1432  0.2634
  409MOL0     O55088   9.464  10.083   2.552  0.5044  0.5104  0.4385
  409MOL0     C55089   9.435  10.191   2.458  0.1531  0.2116 -1.3162
  409MOL0     C55090   9.313  10.246   2.525 -0.3509  0.3740 -0.4872
  409MOL0     C55091   9.342  10.316   2.659  0.3910  0.1799 -0.1116
  409MOL0     C55092   9.209  10.359   2.732 -0.3317 -0.4842 -0.1785
  409MOL0     C55093   9.240  10.427   2.869 -0.2389 -0.1346 -0.2375
  409MOL0     C55094   9.111  10.446   2.965 -0.7819  0.5805  0.4356
  409MOL0     C55095   9.135  10.561   3.069 -0.7901 -0.0755 -0.0445
  409MOL0     C55096   9.028  10.567   3.181 -0.1023  0.4269  0.3576
  409MOL0     N55097   8.888  10.568   3.136  0.2800  0.5793  0.8308
  409MOL0     C55098   8.800  10.456   3.118  0.4705  1.3201  0.2876
  409MOL0     C55099   8.690  10.515   3.083  0.4253 -0.0568 -0.4763
  409MOL0     C55100   8.558  10.447   3.053 -0.4082 -0.0647 -0.4663
  409MOL0     C55101   8.456  10.531   2.973  0.0696 -0.0029  0.0921
  409MOL0     C55102   8.496  10.549   2.824  0.2580 -0.3723 -0.2590
  409MOL0     C55103   8.379  10.624   2.750 -0.9281 -0.1588  0.4769
  409MOL0     O55104   8.262  10.538   2.739  0.6201  0.3046  0.4507
  409MOL0     C55105   8.158  10.599   2.665  0.0206  0.2175 -0.6503
  409MOL0     C55106   8.095  10.721   2.687 -0.3609  0.1090  0.2313
  409MOL0     C55107   7.973  10.756   2.619  0.7613 -0.2025  0.5244
  409MOL0     C55108   7.911  10.885   2.655  0.4058  0.2899  0.2771
  409MOL0     C55109   7.919  10.660   2.525 -0.0371 -0.5646  0.3862
  409MOL0     C55110   7.786  10.688   2.461  0.1617 -0.5738  0.4492
  409MOL0     O55111   7.737  10.579   2.404  0.9628 -0.3034 -0.1453
  409MOL0     C55112   7.611  10.581   2.349  1.0921 -0.6094 -0.3961
  409MOL0     C55113   7.499  10.600   2.437 -0.1483  0.3855  0.4893
  409MOL0     C55114   7.370  10.590   2.386  0.1702 -0.2134 -0.4057
  409MOL0     C55115   7.346  10.541   2.255 -0.4433 -0.9794 -0.0291
  409MOL0     O55116   7.227  10.510   2.197 -0.3118 -0.4414 -0.1127
  409MOL0     C55117   7.109  10.519   2.279  0.5645 -0.7825  0.6520
  409MOL0     C55118   6.980  10.485   2.215  0.2289 -0.0077  0.7523
  409MOL0     C55119   6.981  10.357   2.129 -0.3617  0.7167 -0.7095
  409MOL0     C55120   6.835  10.345   2.074  0.7281  0.2916  0.1849
  409MOL0     C55121   6.816  10.223   1.988  0.4067  0.0549 -0.0805
  409MOL0     C55122   6.772  10.100   2.074 -0.0471 -0.8994  0.3180
  409MOL0     C55123   6.762   9.971   1.989  0.4511  0.2071 -0.4238
  409MOL0     C55124   6.717   9.846   2.070  0.4529  0.0099  0.6791
  409MOL0    Cl55125   6.614   9.882   2.216  0.4166 -0.2840  0.3693
  409MOL0     C55126   7.457  10.525   2.171 -0.4300 -0.3351  0.1450
  409MOL0     C55127   7.590  10.540   2.212  0.3273 -0.1625 -0.1070
  409MOL0     O55128   7.750  10.804   2.443  0.3329 -0.3560 -0.2576
  409MOL0     C55129   7.983  10.541   2.502 -0.1162 -0.2836 -0.6303
  409MOL0     C55130   8.095  10.515   2.581  0.1785 -0.1918  0.4191
  409MOL0     N55131   8.703  10.655   3.068 -0.6908 -0.1336  0.3046
  409MOL0     N55132   8.825  10.684   3.111  0.2609 -0.1292 -0.1811
  409MOL0     C55133   9.594   9.950   2.676  0.2973 -0.0752 -0.3793
  409MOL0     C55134   9.712   9.871   2.703  0.1653  0.3697  0.0285
  409MOL0     C55135  10.100   9.672   2.703  0.1689  0.6440  0.4753
  409MOL0     C55136  10.125   9.602   2.587 -1.3423  0.4255 -0.1110
  409MOL0     C55137  10.244   9.520   2.573 -0.2764 -0.0938 -0.1316
  409MOL0     C55138  10.333   9.505   2.683  0.4661 -0.5326 -0.0394
  409MOL0     O55139  10.454   9.443   2.657  0.3007  0.3181 -0.4338
  409MOL0     C55140  10.561   9.450   2.758 -0.6660  0.2011 -0.4674
  409MOL0     C55141  10.512   9.353   2.867 -0.2181 -0.0612  0.3836
  409MOL0     C55142  10.557   9.206   2.848 -0.3815  0.1268  0.1275
  409MOL0     C55143  10.520   9.111   2.968 -0.5433  1.1539 -0.0921
  409MOL0     C55144  10.620   9.002   2.987 -0.7949 -0.0780  0.4053
  409MOL0     C55145  10.701   8.911   2.979  0.0039 -0.0359 -0.2615
  409MOL0     C55146  10.311   9.584   2.794 -0.3487 -0.4839 -0.7223
  409MOL0     C55147  10.193   9.658   2.811  0.0311 -0.9894  1.2598
  409MOL0     H55148   9.821   9.843   2.386  0.0446  1.2735 -0.6735
  409MOL0     H55149   9.637  10.013   2.350  2.8500 -0.4199  0.0262
  409MOL0     H55150   9.504  10.275   2.448 -1.1055  1.4007 -0.3164
  409MOL0     H55151   9.423  10.140   2.362  1.0737 -2.5675 -0.0663
  409MOL0     H55152   9.261  10.326   2.470 -0.6364 -0.8374 -2.0610
  409MOL0     H55153   9.252  10.159   2.548  0.0440  0.5399  1.3783
  409MOL0     H55154   9.405  10.254   2.722  3.1136  1.9816 -0.8988
  409MOL0     H55155   9.389  10.413   2.639  0.5531 -0.2090 -1.7954
  409MOL0     H55156   9.149  10.431   2.677 -0.6676 -0.8035 -0.2368
  409MOL0     H55157   9.149  10.268   2.744 -0.2411 -0.3137  1.8941
  409MOL0     H55158   9.317  10.363   2.913  0.0506 -0.4808 -1.2283
  409MOL0     H55159   9.293  10.523   2.861  0.8711 -0.6711  0.3898
  409MOL0     H55160   9.022  10.466   2.904  0.3529  2.9121 -0.6239
  409MOL0     H55161   9.089  10.356   3.021 -1.5486  0.6330  0.2354
  409MOL0     H55162   9.229  10.553   3.124 -1.3134 -0.0436  0.8851
  409MOL0     H55163   9.149  10.656   3.017  2.1180 -0.1022  0.5198
  409MOL0     H55164   9.044  10.657   3.240  0.1812 -0.8214  2.2960
  409MOL0     H55165   9.045  10.487   3.254 -1.4155 -0.4715 -0.2747
  409MOL0     H55166   8.803  10.349   3.137  0.1144  1.5136  1.4726
  409MOL0     H55167   8.582  10.352   3.005  1.5733 -0.0896  0.4844
  409MOL0     H55168   8.517  10.431   3.153 -1.5066 -1.9579 -1.1697
  409MOL0     H55169   8.438  10.625   3.027 -0.5748 -0.7297  1.1858
  409MOL0     H55170   8.356  10.486   2.976 -0.5057  1.2774  2.6886
  409MOL0     H55171   8.507  10.458   2.765  0.4880  0.8429 -2.1977
  409MOL0     H55172   8.586  10.609   2.811 -0.4463  1.3728  2.2385
  409MOL0     H55173   8.414  10.652   2.651 -1.7305  0.0958  0.2537
  409MOL0     H55174   8.360  10.714   2.810  0.4860 -0.9989  2.2882
  409MOL0     H55175   8.123  10.786   2.769 -1.8423 -0.5045  1.2716
  409MOL0     H55176   7.802  10.875   2.660  0.3235 -1.1011 -2.5206
  409MOL0     H55177   7.944  10.914   2.756  0.0941  1.0856  0.1572
  409MOL0     H55178   7.930  10.962   2.580  0.4891 -2.0534 -2.2398
  409MOL0     H55179   7.515  10.617   2.543  0.0330 -0.0676  0.5399
  409MOL0     H55180   7.299  10.609   2.466  2.9724  1.6271  1.8521
  409MOL0     H55181   7.108  10.465   2.374  0.4329 -0.4055  0.8721
  409MOL0     H55182   7.099  10.626   2.303 -1.3664 -0.5737 -0.7947
  409MOL0     H55183   6.906  10.476   2.295  0.3071 -1.2742  0.6991
  409MOL0     H55184   6.963  10.572   2.151 -0.4507  0.0103  0.9501
  409MOL0     H55185   7.018  10.271   2.185 -1.2920  0.9297  0.2638
  409MOL0     H55186   7.044  10.374   2.041 -0.7829  1.3470 -0.8956
  409MOL0     H55187   6.767  10.329   2.158  2.9871  0.9722  2.2443
  409MOL0     H55188   6.800  10.437   2.025 -2.1391  0.8606  2.9428
  409MOL0     H55189   6.912  10.201   1.940  2.0366  2.5247  1.8188
  409MOL0     H55190   6.742  10.261   1.916 -1.0870  0.3584  1.5478
  409MOL0     H55191   6.841  10.079   2.156 -1.7664  0.1501  2.1260
  409MOL0     H55192   6.678  10.124   2.125 -0.2475  1.2519 -0.9256
  409MOL0     H55193   6.856   9.959   1.936  0.6082  3.5824 -1.1502
  409MOL0     H55194   6.688   9.989   1.909 -0.4101  2.3863  0.7759
  409MOL0     H55195   6.803   9.788   2.105  0.9932  0.7628  0.6340
  409MOL0     H55196   6.648   9.790   2.006 -0.2916  1.2532  0.3510
  409MOL0     H55197   7.438  10.483   2.073  1.8379 -1.8346  0.2811
  409MOL0     H55198   7.676  10.525   2.147 -0.2052  0.7866 -1.0602
  409MOL0     H55199   7.945  10.469   2.431  1.9601 -1.4137 -0.6525
  409MOL0     H55200   8.139  10.419   2.559  0.5334 -0.0219  0.3811
  409MOL0     H55201   9.529   9.984   2.756 -0.2807 -0.6729 -0.5859
  409MOL0     H55202   9.732   9.816   2.794  1.7061 -0.9928 -1.0651
  409MOL0     H55203  10.061   9.623   2.502  0.4031  2.0871 -1.0968
  409MOL0     H55204  10.255   9.461   2.482  0.5846  1.2683 -0.9468
  409MOL0     H55205  10.660   9.420   2.723  1.1783  3.5082  1.4158
  409MOL0     H55206  10.582   9.549   2.798  0.3585 -1.0206  2.2850
  409MOL0     H55207  10.403   9.358   2.873 -0.6671 -3.3979 -1.9521
  409MOL0     H55208  10.553   9.385   2.963  1.7566 -2.4167  0.4327
  409MOL0     H55209  10.666   9.205   2.844 -0.3236  2.7912 -0.8081
  409MOL0     H55210  10.521   9.150   2.760  0.4911  0.8304 -0.6970
  409MOL0     H55211  10.422   9.065   2.952  0.0683 -0.1185 -0.3159
  409MOL0     H55212  10.501   9.157   3.065 -0.7456 -1.6679  1.3349
  409MOL0     H55213  10.784   8.846   2.958 -0.0352 -0.3302  0.4588
  409MOL0     H55214  10.362   9.573   2.889 -2.3191  0.2438  0.4993
  409MOL0     H55215  10.179   9.715   2.902 -0.0313 -2.0876  1.9490
  410MOL0     O55216   2.430   6.898   2.900 -0.6417 -0.1997  0.6059
  410MOL0     C55217   2.429   7.006   2.963 -0.6710  0.6704  0.4849
  410MOL0     O55218   2.334   7.032   3.051 -0.7928 -0.1012  0.7991
  410MOL0     C55219   2.252   6.928   3.090 -0.2659 -0.7117  0.4129
  410MOL0     C55220   2.114   6.941   3.064 -0.6489  0.1932  0.3225
  410MOL0     C55221   2.027   6.848   3.110  1.0786 -0.0223  0.2565
  410MOL0     C55222   2.071   6.740   3.182  0.0408  0.4694 -0.6016
  410MOL0     O55223   1.981   6.645   3.222 -0.0623 -0.2213 -0.2831
  410MOL0     C55224   2.029   6.529   3.292  0.3549  1.0740  0.2863
  410MOL0     C55225   1.919   6.450   3.353  0.3493  0.4596  0.3379
  410MOL0     C55226   1.959   6.334   3.450  0.3515 -0.1684 -0.7132
  410MOL0     C55227   1.968   6.371   3.600  0.7076  0.3921  0.0625
  410MOL0     C55228   1.928   6.249   3.682 -0.1539 -0.2015  0.4598
  410MOL0     C55229   1.956   6.265   3.832 -0.0228 -0.3215 -0.0429
  410MOL0     C55230   1.914   6.142   3.919 -0.4442 -0.0892  0.5375
  410MOL0     C55231   1.896   6.179   4.071 -0.0111 -0.4748  0.2872
  410MOL0     N55232   2.018   6.233   4.125 -0.4984  0.0948  0.1028
  410MOL0     C55233   2.107   6.161   4.194 -0.3182  0.5300 -0.1647
  410MOL0     C55234   2.202   6.255   4.236  0.2619 -0.1887  0.0393
  410MOL0     C55235   2.332   6.237   4.315  0.2794  0.9116  0.9306
  410MOL0     C55236   2.433   6.154   4.229 -0.5567 -0.6228  0.1523
  410MOL0     C55237   2.435   6.189   4.074 -0.5248  0.2747 -0.9794
  410MOL0     C55238   2.579   6.188   4.003  0.1951  0.0644 -0.3734
  410MOL0     O55239   2.558   6.237   3.875  0.3954  0.0457 -0.0462
  410MOL0     C55240   2.626   6.210   3.765  0.4787 -0.2937  0.0358
  410MOL0     C55241   2.563   6.229   3.642 -0.4072  0.0730 -0.1400
  410MOL0     C55242   2.629   6.199   3.526 -0.0618 -0.3707 -0.0072
  410MOL0     C55243   2.543   6.203   3.396 -0.3456 -0.1052  0.5485
  410MOL0     C55244   2.757   6.139   3.528  0.3097 -0.3764  0.0674
  410MOL0     C55245   2.829   6.097   3.405 -0.3540  0.0152 -0.7797
  410MOL0     O55246   2.808   6.188   3.299 -0.1292 -0.0314 -0.0919
  410MOL0     C55247   2.857   6.154   3.181 -0.9176  0.1537  0.8284
  410MOL0     C55248   2.772   6.151   3.071 -0.4987 -0.1235  0.9124
  410MOL0     C55249   2.808   6.092   2.949  0.4155 -0.1153 -0.4633
  410MOL0     C55250   2.932   6.041   2.928  0.6723  0.6624  0.0312
  410MOL0     O55251   2.951   5.977   2.807 -0.0925  0.2702  0.0246
  410MOL0     C55252   3.084   5.919   2.799  0.8594 -0.6460  0.7954
  410MOL0     C55253   3.100   5.858   2.655  0.2609  0.1615 -0.2697
  410MOL0     C55254   3.163   5.949   2.546  0.4519  0.8976 -0.2498
  410MOL0     C55255   3.127   5.896   2.403  0.2351 -0.1581 -0.1395
  410MOL0     C55256   3.210   5.977   2.309  0.1458  0.1309 -0.3197
  410MOL0     C55257   3.152   6.113   2.265  0.0252 -0.8954  0.1738
  410MOL0     C55258   3.258   6.207   2.197 -0.1883 -0.1298 -0.5848
  410MOL0     C55259   3.341   6.138   2.097 -0.6856  0.6214 -0.4323
  410MOL0    Cl55260   3.440   6.257   2.011 -0.2278  0.0112 -0.2197
  410MOL0     C55261   3.025   6.058   3.037 -0.4849 -0.0777 -0.0120
  410MOL0     C55262   2.988   6.114   3.160  0.3086  0.5862 -0.5213
  410MOL0     O55263   2.864   5.982   3.391 -0.3012  0.3849  0.1997
  410MOL0     C55264   2.823   6.124   3.647 -0.7882  0.0258  0.3517
  410MOL0     C55265   2.756   6.166   3.759 -0.3628  1.2566 -0.1222
  410MOL0     N55266   2.154   6.375   4.200  0.3107 -0.6979 -0.1144
  410MOL0     N55267   2.052   6.359   4.126  0.4645 -0.1522 -0.5269
  410MOL0     C55268   2.210   6.719   3.202 -0.1529  0.1271 -0.7937
  410MOL0     C55269   2.296   6.814   3.155  0.3633 -0.1892 -0.0868
  410MOL0     C55270   2.521   7.116   2.923  0.2392 -0.3729 -0.3281
  410MOL0     C55271   2.509   7.251   2.971  1.1378  0.1115  0.7599
  410MOL0     C55272   2.596   7.358   2.935  0.5927  0.7583  0.5484
  410MOL0     C55273   2.706   7.320   2.853 -1.5213 -0.7810  0.1322
  410MOL0     O55274   2.810   7.412   2.816  0.6233  0.7035  0.0925
  410MOL0     C55275   2.777   7.534   2.760  0.1301 -0.6919  0.7894
  410MOL0     C55276   2.876   7.645   2.811 -0.1369 -0.3515 -0.0621
  410MOL0     C55277   2.835   7.778   2.756 -0.3281 -0.1200 -0.2669
  410MOL0     C55278   2.942   7.891   2.775 -0.7943  0.3452  0.5700
  410MOL0     C55279   3.056   7.848   2.708 -0.8540  1.1202  0.3509
  410MOL0     C55280   3.162   7.813   2.663 -0.5990 -0.0705 -0.1697
  410MOL0     C55281   2.720   7.190   2.801  0.8528 -0.4052  0.2005
  410MOL0     C55282   2.623   7.092   2.835 -0.5320  0.3148 -0.0463
  410MOL0     H55283   2.077   7.025   3.006  0.2205 -0.5326 -1.3804
  410MOL0     H55284   1.921   6.840   3.088  1.5272 -3.9818 -1.3792
  410MOL0     H55285   2.078   6.474   3.212 -0.9716 -1.1774  0.9312
  410MOL0     H55286   2.098   6.564   3.370 -2.1669  2.2886  2.1360
  410MOL0     H55287   1.861   6.520   3.413  1.6094  1.7674  0.0819
  410MOL0     H55288   1.853   6.412   3.274 -0.4876  0.5364  0.9839
  410MOL0     H55289   1.881   6.257   3.449  0.5646 -0.3804 -1.3879
  410MOL0     H55290   2.047   6.275   3.423  0.0864 -0.1655 -1.6003
  410MOL0     H55291   2.067   6.410   3.623  0.8578  0.3059 -0.4280
  410MOL0     H55292   1.897   6.446   3.635  0.0268 -1.5390  3.1843
  410MOL0     H55293   1.822   6.222   3.682 -0.3210  0.2572  2.8642
  410MOL0     H55294   1.979   6.161   3.640 -0.4457  0.2957 -0.9961
  410MOL0     H55295   2.064   6.283   3.837 -0.2088  0.6498  3.1523
  410MOL0     H55296   1.910   6.356   3.873 -1.4420 -0.2719 -1.6506
  410MOL0     H55297   1.812   6.110   3.894  0.0007 -0.1430 -1.3402
  410MOL0     H55298   1.976   6.053   3.922 -1.0915 -0.6379  5.0640
  410MOL0     H55299   1.864   6.085   4.117 -1.9825 -0.2646 -0.5759
  410MOL0     H55300   1.814   6.250   4.082  0.9820  1.0229 -1.4131
  410MOL0     H55301   2.089   6.054   4.205 -0.0308  0.3889 -0.9699
  410MOL0     H55302   2.373   6.336   4.339 -1.1776  1.9229 -0.4511
  410MOL0     H55303   2.307   6.184   4.407 -0.4102  0.9215  0.7582
  410MOL0     H55304   2.425   6.048   4.257  2.1049 -0.3825  2.2075
  410MOL0     H55305   2.528   6.181   4.277 -0.5286  0.4483 -0.4785
  410MOL0     H55306   2.413   6.296   4.061 -0.0298  0.2811 -1.8135
  410MOL0     H55307   2.356   6.130   4.027 -1.7437  2.7129 -2.2141
  410MOL0     H55308   2.622   6.087   4.009  2.1317  0.9251  2.3353
  410MOL0     H55309   2.635   6.258   4.065 -2.0969  1.0093  0.7436
  410MOL0     H55310   2.460   6.264   3.651 -1.6244 -2.6379 -2.2417
  410MOL0     H55311   2.566   6.290   3.335  2.0891  0.6062  2.3153
  410MOL0     H55312   2.563   6.114   3.336 -2.6520 -0.8700  0.7930
  410MOL0     H55313   2.434   6.211   3.402 -0.3413  2.6964 -1.4456
  410MOL0     H55314   2.674   6.198   3.072 -0.1378  0.8421 -1.3503
  410MOL0     H55315   2.734   6.079   2.871  1.0334 -1.4669 -0.8657
  410MOL0     H55316   3.158   5.999   2.807  0.3863 -0.1123 -0.0122
  410MOL0     H55317   3.099   5.847   2.880 -0.3031  0.4528  2.0332
  410MOL0     H55318   3.163   5.771   2.676 -1.0695 -1.0861 -1.2329
  410MOL0     H55319   3.016   5.807   2.607  2.2653 -2.3018 -1.3774
  410MOL0     H55320   3.272   5.953   2.556  0.4000  0.7588  0.4207
  410MOL0     H55321   3.125   6.049   2.570 -3.0019 -0.5512  0.9152
  410MOL0     H55322   3.156   5.791   2.393  1.7816  0.2747 -0.4952
  410MOL0     H55323   3.020   5.908   2.384 -0.5100 -1.7508  2.5418
  410MOL0     H55324   3.219   5.914   2.220  0.5529 -1.1610  0.6084
  410MOL0     H55325   3.314   5.982   2.342  0.0727  0.6012 -0.1606
  410MOL0     H55326   3.068   6.098   2.196  0.7483  0.0004 -0.9436
  410MOL0     H55327   3.127   6.169   2.355 -0.8193 -0.1082 -0.5326
  410MOL0     H55328   3.324   6.261   2.265  0.6499 -0.6746 -0.9401
  410MOL0     H55329   3.206   6.284   2.140 -0.7878  1.5246  2.0597
  410MOL0     H55330   3.282   6.079   2.027 -2.6017 -1.5979  2.7444
  410MOL0     H55331   3.402   6.062   2.146  0.2650 -0.0769 -2.6029
  410MOL0     H55332   3.128   6.026   3.022 -0.2420  1.3781 -1.8786
  410MOL0     H55333   3.064   6.109   3.238  0.1434 -0.1637 -0.3950
  410MOL0     H55334   2.925   6.088   3.656 -1.1398 -1.7754 -1.8268
  410MOL0     H55335   2.809   6.149   3.852 -0.7129 -0.4647 -0.2108
  410MOL0     H55336   2.254   6.643   3.265  0.6175  2.3467  1.4871
  410MOL0     H55337   2.403   6.814   3.173 -0.0463  0.7623  2.8710
  410MOL0     H55338   2.421   7.269   3.033 -0.7809 -1.5494 -1.2927
  410MOL0     H55339   2.572   7.455   2.978  0.3502  1.5621 -1.2790
  410MOL0     H55340   2.795   7.525   2.652 -2.7129 -0.5532  0.2202
  410MOL0     H55341   2.674   7.569   2.776 -0.0217 -0.0312 -1.2785
  410MOL0     H55342   2.976   7.609   2.789 -0.9873 -2.0516 -1.4005
  410MOL0     H55343   2.859   7.664   2.918 -0.2830 -0.4672 -0.0648
  410MOL0     H55344   2.746   7.812   2.811  0.9044 -0.8309  2.3602
  410MOL0     H55345   2.815   7.779   2.649 -2.1622  0.5843  0.0477
  410MOL0     H55346   2.977   7.898   2.879 -2.4941 -1.4613  1.3459
  410MOL0     H55347   2.914   7.990   2.740 -0.2310  0.3366  0.0996
  410MOL0     H55348   3.258   7.771   2.640  0.8520  2.4747  0.7907
  410MOL0     H55349   2.802   7.178   2.731 -0.3161  1.2444 -1.5224
  410MOL0     H55350   2.628   6.993   2.790  2.1476  0.3400  0.0485
  411MOL0     O55351   5.073   5.708   7.935  0.5103  0.5695 -0.1152
  411MOL0     C55352   5.120   5.753   8.038 -0.6054 -0.7721  0.3673
  411MOL0     O55353   5.055   5.803   8.144  0.1142 -0.2895 -0.0598
  411MOL0     C55354   4.922   5.818   8.161 -0.1468 -0.5191  0.3601
  411MOL0     C55355   4.885   5.897   8.275  0.0396  0.2512 -0.1051
  411MOL0     C55356   4.745   5.924   8.316 -0.0066  0.4204  0.3513
  411MOL0     C55357   4.642   5.858   8.242 -0.5422 -0.9984  0.2522
  411MOL0     O55358   4.515   5.845   8.281 -0.2600  0.1118  0.4385
  411MOL0     C55359   4.457   5.927   8.378 -0.4550 -0.2763 -0.5446
  411MOL0     C55360   4.307   5.902   8.369  0.5882 -0.4130  0.1510
  411MOL0     C55361   4.253   5.970   8.237  0.0055 -0.1812 -0.8474
  411MOL0     C55362   4.161   5.882   8.163 -0.4401  0.4238 -0.1013
  411MOL0     C55363   4.024   5.884   8.232  0.3757  0.0225 -0.2268
  411MOL0     C55364   3.928   5.815   8.142  0.3853  1.1819 -1.7125
  411MOL0     C55365   3.780   5.809   8.187 -1.0006 -0.7960  0.9836
  411MOL0     C55366   3.739   5.733   8.320  0.0085 -0.9689  0.6391
  411MOL0     N55367   3.781   5.813   8.440  0.7958  0.2755  0.8191
  411MOL0     C55368   3.870   5.785   8.529  0.4200  0.6057  0.2501
  411MOL0     C55369   3.911   5.909   8.573  0.5331  1.3470  0.5941
  411MOL0     C55370   4.049   5.930   8.640  0.7005 -0.3236 -0.0431
  411MOL0     C55371   4.022   5.949   8.788 -0.3103  0.0849  0.3547
  411MOL0     C55372   4.150   5.966   8.876  0.2577 -0.6526  0.5941
  411MOL0     C55373   4.259   5.872   8.858  0.1361  0.3788  0.1812
  411MOL0     O55374   4.358   5.922   8.953  0.9745  0.0125 -0.9220
  411MOL0     C55375   4.484   5.874   8.958  0.2635 -0.3802 -0.3862
  411MOL0     C55376   4.566   5.940   9.042  0.2179  0.6785 -0.0960
  411MOL0     C55377   4.705   5.910   9.046  0.3053  0.1953 -0.0099
  411MOL0     C55378   4.781   6.014   9.131 -0.5226  0.5618 -0.2107
  411MOL0     C55379   4.756   5.796   8.981 -0.3253  0.4771  0.2662
  411MOL0     C55380   4.894   5.766   8.995 -0.5618  0.6102  0.0758
  411MOL0     O55381   4.977   5.823   9.094  1.0043 -0.8434 -0.5733
  411MOL0     C55382   5.090   5.755   9.140 -0.0290 -0.1450  0.2709
  411MOL0     C55383   5.075   5.646   9.228  0.4461 -0.8990  0.2641
  411MOL0     C55384   5.182   5.589   9.292 -0.4255  0.2103 -0.3659
  411MOL0     C55385   5.311   5.638   9.271  0.2487 -0.0136 -0.8195
  411MOL0     O55386   5.427   5.592   9.323 -0.0709 -0.5507 -0.3874
  411MOL0     C55387   5.427   5.451   9.346 -0.3044  0.1712  0.5159
  411MOL0     C55388   5.573   5.411   9.373 -0.0920  0.8209  0.4479
  411MOL0     C55389   5.598   5.273   9.322 -0.0815 -0.0091  0.1211
  411MOL0     C55390   5.747   5.220   9.348  0.4502  0.5777  1.8394
  411MOL0     C55391   5.778   5.220   9.503 -0.8193  0.7487  0.0691
  411MOL0     C55392   5.840   5.349   9.562  0.2711  0.1254 -0.0800
  411MOL0     C55393   5.845   5.337   9.716  1.5443  0.2611 -0.4193
  411MOL0     C55394   5.724   5.393   9.794 -0.5566  0.0183 -0.4259
  411MOL0    Cl55395   5.618   5.256   9.827 -0.1482 -0.0521  0.1879
  411MOL0     C55396   5.323   5.748   9.189 -0.4351 -0.4209 -0.6499
  411MOL0     C55397   5.215   5.810   9.123 -0.1160  0.6991  0.2234
  411MOL0     O55398   4.932   5.679   8.922 -0.1308  0.4235 -0.1132
  411MOL0     C55399   4.665   5.720   8.898  0.0962 -0.1112  0.8057
  411MOL0     C55400   4.529   5.759   8.882 -0.3076  0.1498  0.7719
  411MOL0     N55401   3.831   6.007   8.522  0.2046 -0.6701  0.2447
  411MOL0     N55402   3.748   5.952   8.434 -0.5258 -0.3198  0.4780
  411MOL0     C55403   4.680   5.779   8.129 -0.0902 -0.6801  0.0381
  411MOL0     C55404   4.817   5.765   8.088 -0.5802  0.1241  0.1972
  411MOL0     C55405   5.259   5.774   8.033 -1.3690 -0.0942  0.0711
  411MOL0     C55406   5.337   5.777   8.148 -0.5992 -0.3151  0.4620
  411MOL0     C55407   5.473   5.810   8.130 -0.6215  0.3810  0.2945
  411MOL0     C55408   5.528   5.858   8.012  0.6905  0.3555 -0.1645
  411MOL0     O55409   5.656   5.907   7.984 -1.7379  0.2330  0.6772
  411MOL0     C55410   5.756   5.937   8.084 -0.3069 -0.7265 -0.8381
  411MOL0     C55411   5.889   5.884   8.030 -0.5399  0.1161  0.5166
  411MOL0     C55412   6.008   5.897   8.125 -0.2224  1.0538 -0.8488
  411MOL0     C55413   6.083   6.038   8.112  0.8227  0.7720  0.4383
  411MOL0     C55414   6.014   6.143   8.187  0.9549 -0.2263  0.8890
  411MOL0     C55415   5.963   6.251   8.220 -0.4743 -0.1812  0.0437
  411MOL0     C55416   5.447   5.865   7.896  0.2691  0.0461 -0.1018
  411MOL0     C55417   5.321   5.830   7.912  0.1127  0.2992 -0.5406
  411MOL0     H55418   4.954   5.955   8.336 -2.1330  2.3792  0.4756
  411MOL0     H55419   4.719   5.997   8.391 -0.6683  0.2090  0.3319
  411MOL0     H55420   4.495   5.903   8.478  1.0458 -2.7073 -1.6044
  411MOL0     H55421   4.483   6.032   8.361  3.3327 -1.1508 -1.1243
  411MOL0     H55422   4.291   5.794   8.374  1.0098 -0.4489  0.8702
  411MOL0     H55423   4.273   5.943   8.464 -1.1064 -1.0920 -0.1416
  411MOL0     H55424   4.194   6.059   8.260  1.3852  0.4448  0.3932
  411MOL0     H55425   4.340   5.989   8.174  0.5528 -1.7351 -0.6003
  411MOL0     H55426   4.149   5.925   8.063  2.5451 -0.5098 -0.9732
  411MOL0     H55427   4.213   5.786   8.158 -1.0836  0.0429  0.3162
  411MOL0     H55428   4.044   5.824   8.321  0.3471  0.1121 -0.1610
  411MOL0     H55429   3.994   5.987   8.251 -2.9908 -1.0307  0.8214
  411MOL0     H55430   3.933   5.867   8.046  0.3582  0.3125 -2.1983
  411MOL0     H55431   3.967   5.714   8.128 -1.2944 -0.4214  3.0993
  411MOL0     H55432   3.746   5.913   8.194  1.9830  0.2364  2.0130
  411MOL0     H55433   3.724   5.758   8.109 -2.4350 -1.5002  2.4199
  411MOL0     H55434   3.768   5.628   8.310  0.0486 -0.8974  0.0045
  411MOL0     H55435   3.630   5.731   8.322 -0.0797 -0.5224 -1.5243
  411MOL0     H55436   3.932   5.698   8.546  1.6143  0.5477 -3.5341
  411MOL0     H55437   4.102   5.839   8.614 -1.5668 -1.7577  0.0464
  411MOL0     H55438   4.098   6.022   8.604 -0.6083  0.0638 -0.9155
  411MOL0     H55439   3.980   5.860   8.836 -1.3556  1.6805  2.5953
  411MOL0     H55440   3.958   6.036   8.806 -1.3532 -0.2526 -1.4740
  411MOL0     H55441   4.107   5.967   8.976 -0.4669  4.6406  0.5155
  411MOL0     H55442   4.197   6.064   8.866 -3.5250  1.2967  0.2567
  411MOL0     H55443   4.301   5.860   8.758  0.9328  0.4924  0.4918
  411MOL0     H55444   4.234   5.770   8.887  1.8245  0.0296  0.4909
  411MOL0     H55445   4.517   6.015   9.103 -0.9938 -2.2221  2.7490
  411MOL0     H55446   4.793   5.991   9.237 -1.1014  1.0191 -0.0426
  411MOL0     H55447   4.879   6.046   9.093 -0.1613 -0.7788 -0.4683
  411MOL0     H55448   4.728   6.110   9.137  1.2221  1.5099  0.9077
  411MOL0     H55449   4.986   5.588   9.248  0.9097 -1.6211  0.2864
  411MOL0     H55450   5.151   5.510   9.360  0.9777  0.3471  0.4809
  411MOL0     H55451   5.379   5.420   9.440  0.2214 -0.2042  0.6633
  411MOL0     H55452   5.386   5.402   9.257 -0.5253  1.7274 -0.2683
  411MOL0     H55453   5.642   5.475   9.317 -1.8472  1.7221 -0.7711
  411MOL0     H55454   5.587   5.405   9.482 -0.5580  0.4755  0.4937
  411MOL0     H55455   5.582   5.281   9.214  1.9991  0.1052 -0.2098
  411MOL0     H55456   5.525   5.199   9.356 -0.3906  0.7394  1.1186
  411MOL0     H55457   5.749   5.116   9.317  0.6542  1.0807  0.0856
  411MOL0     H55458   5.815   5.275   9.282 -4.4310 -0.8979 -5.6847
  411MOL0     H55459   5.864   5.152   9.512 -1.1548  0.1726 -0.8815
  411MOL0     H55460   5.695   5.187   9.566  2.2435  0.1849  4.3154
  411MOL0     H55461   5.944   5.353   9.528 -0.7023  0.9712 -3.2180
  411MOL0     H55462   5.799   5.444   9.526 -1.3556  0.3333  2.0850
  411MOL0     H55463   5.935   5.391   9.746  1.1444  1.9014 -1.9674
  411MOL0     H55464   5.858   5.235   9.752 -1.1038 -0.4390 -1.2390
  411MOL0     H55465   5.674   5.477   9.745  0.0852  0.9828  0.5456
  411MOL0     H55466   5.771   5.425   9.887  0.6748 -0.1909 -0.9586
  411MOL0     H55467   5.425   5.779   9.170  0.8563 -2.1731  2.6317
  411MOL0     H55468   5.246   5.887   9.054  3.9559 -0.2881  0.7111
  411MOL0     H55469   4.694   5.637   8.834 -2.6970 -0.2760 -0.3968
  411MOL0     H55470   4.472   5.694   8.816  0.6442 -1.1145  1.1612
  411MOL0     H55471   4.601   5.732   8.071 -1.5141  0.1764  1.1920
  411MOL0     H55472   4.831   5.706   7.998 -1.6006 -0.9486  0.7045
  411MOL0     H55473   5.297   5.749   8.245 -1.5893 -2.5028 -0.5120
  411MOL0     H55474   5.533   5.805   8.220 -1.5395 -1.4557  0.8345
  411MOL0     H55475   5.766   6.043   8.110 -0.4855 -1.0247  0.5366
  411MOL0     H55476   5.733   5.888   8.180  0.5637 -1.6870 -1.1060
  411MOL0     H55477   5.911   5.932   7.934 -0.4149  0.6141  0.7926
  411MOL0     H55478   5.872   5.776   8.020 -1.7198  0.3827 -0.7817
  411MOL0     H55479   6.082   5.819   8.106 -1.5272 -0.6347  0.7542
  411MOL0     H55480   5.980   5.868   8.226 -0.5503  1.6432 -0.7672
  411MOL0     H55481   6.079   6.074   8.009  0.0609 -1.0935 -0.2247
  411MOL0     H55482   6.186   6.034   8.147  0.8770  0.2259  0.2186
  411MOL0     H55483   5.927   6.348   8.247  0.5481 -0.0665  1.0999
  411MOL0     H55484   5.479   5.905   7.800  0.1314  3.1954  1.0483
  411MOL0     H55485   5.251   5.823   7.829 -0.0660  0.5142 -0.4101
  412MOL0     O55486   2.020   4.538  11.332 -0.7358 -0.0029 -0.3778
  412MOL0     C55487   2.022   4.517  11.454 -0.6539  0.8758  1.1860
  412MOL0     O55488   1.929   4.556  11.538  0.3048  0.3134 -0.1028
  412MOL0     C55489   1.799   4.582  11.500 -0.2735  0.4699 -0.0737
  412MOL0     C55490   1.733   4.501  11.415 -0.2141  0.0233 -0.5609
  412MOL0     C55491   1.599   4.542  11.371 -0.9905 -0.1410  0.2340
  412MOL0     C55492   1.542   4.670  11.402 -1.7897  0.0190 -0.1707
  412MOL0     O55493   1.414   4.718  11.388  0.0624  0.0802 -0.1522
  412MOL0     C55494   1.330   4.653  11.293  0.2991  0.1401 -0.0968
  412MOL0     C55495   1.195   4.730  11.308 -0.2011 -0.5454 -0.0156
  412MOL0     C55496   1.119   4.726  11.445 -0.2632  0.0335 -0.1856
  412MOL0     C55497   1.098   4.867  11.508  0.5781 -0.0848  0.5907
  412MOL0     C55498   1.215   4.941  11.578  1.3401  0.0116  1.1347
  412MOL0     C55499   1.162   5.066  11.656 -0.5649  0.0053  0.0705
  412MOL0     C55500   1.272   5.172  11.649  1.4576 -0.5904 -0.0757
  412MOL0     C55501   1.264   5.274  11.770 -0.5179  0.0118  0.2443
  412MOL0     N55502   1.389   5.364  11.771 -0.1788  0.3214 -0.3619
  412MOL0     C55503   1.396   5.484  11.704  0.2027  0.2311  1.1093
  412MOL0     C55504   1.531   5.514  11.709  0.2210 -0.2761  0.3218
  412MOL0     C55505   1.574   5.636  11.626 -0.7390  0.7413  0.2251
  412MOL0     C55506   1.626   5.583  11.493  0.3533 -0.0061 -0.1510
  412MOL0     C55507   1.725   5.691  11.458 -0.1551 -0.2888  0.3954
  412MOL0     C55508   1.764   5.670  11.313  0.3381 -0.1553 -0.2894
  412MOL0     O55509   1.826   5.555  11.276  0.1788  0.7597  1.0263
  412MOL0     C55510   1.816   5.534  11.138  0.6954  0.0240 -0.6451
  412MOL0     C55511   1.915   5.591  11.061  0.2606  0.4218  0.3288
  412MOL0     C55512   1.918   5.573  10.918  0.7545 -0.8750 -0.2944
  412MOL0     C55513   2.047   5.622  10.853 -0.3431 -0.7673 -0.1427
  412MOL0     C55514   1.814   5.509  10.857  0.5556 -0.6050 -0.2863
  412MOL0     C55515   1.811   5.480  10.705 -0.1519  0.2531  0.2266
  412MOL0     O55516   1.689   5.435  10.664  0.4389  0.7281 -0.5758
  412MOL0     C55517   1.664   5.427  10.528  0.0071  0.5603 -0.7509
  412MOL0     C55518   1.533   5.387  10.484 -0.0767 -0.3079 -0.5002
  412MOL0     C55519   1.500   5.366  10.346 -0.2805  0.3641  0.0014
  412MOL0     C55520   1.595   5.400  10.254 -0.3278  0.6842 -0.2047
  412MOL0     O55521   1.545   5.379  10.126 -0.3270 -0.1428  0.3785
  412MOL0     C55522   1.589   5.473  10.018  0.4031  0.3142 -0.2923
  412MOL0     C55523   1.547   5.611  10.039  0.7470 -0.1893  0.1018
  412MOL0     C55524   1.393   5.632  10.017  1.0415 -0.5030  0.4086
  412MOL0     C55525   1.375   5.753   9.929  0.8592  0.1387 -0.0082
  412MOL0     C55526   1.237   5.767   9.882 -0.2365 -0.2128  0.0023
  412MOL0     C55527   1.125   5.732   9.979 -0.2670 -0.5275 -0.4316
  412MOL0     C55528   0.983   5.771   9.932 -0.2739 -0.3621  0.2546
  412MOL0     C55529   0.865   5.718  10.013 -1.1417  0.5956 -0.1467
  412MOL0    Cl55530   0.837   5.550   9.971 -0.2516 -0.2870  0.2551
  412MOL0     C55531   1.718   5.447  10.289  0.9107  0.8716 -0.2889
  412MOL0     C55532   1.754   5.462  10.422 -0.1222 -0.9600 -0.4062
  412MOL0     O55533   1.917   5.452  10.649 -0.7207  0.2057  0.2181
  412MOL0     C55534   1.713   5.455  10.936 -0.4587 -0.2200  0.2888
  412MOL0     C55535   1.711   5.463  11.073  0.1562 -0.1474 -0.2043
  412MOL0     N55536   1.604   5.414  11.767  0.3219 -0.1064 -0.2638
  412MOL0     N55537   1.522   5.323  11.804  0.8587  0.0660  0.2863
  412MOL0     C55538   1.614   4.744  11.496 -0.8843 -0.6139  0.0235
  412MOL0     C55539   1.742   4.705  11.546 -0.0480  0.4149 -0.7277
  412MOL0     C55540   2.145   4.454  11.509  0.2516 -0.2878  0.6360
  412MOL0     C55541   2.256   4.422  11.421  0.7443 -0.7137 -0.2287
  412MOL0     C55542   2.366   4.377  11.480  0.1878  0.1819 -0.4794
  412MOL0     C55543   2.372   4.353  11.622 -0.9818 -0.4192  0.2343
  412MOL0     O55544   2.479   4.303  11.686  0.1517  0.1325  0.0619
  412MOL0     C55545   2.612   4.292  11.626  0.1751  0.7703  0.4705
  412MOL0     C55546   2.687   4.423  11.616 -0.6743  0.5808 -0.0095
  412MOL0     C55547   2.727   4.474  11.753 -0.4400  0.1607 -0.5641
  412MOL0     C55548   2.781   4.618  11.755 -0.0736 -0.3839  0.1385
  412MOL0     C55549   2.847   4.670  11.642 -0.6994 -0.2516 -0.7707
  412MOL0     C55550   2.918   4.685  11.543  0.1214  0.1948 -0.2843
  412MOL0     C55551   2.250   4.368  11.702  0.8911 -0.0539 -0.0110
  412MOL0     C55552   2.144   4.428  11.649  0.5559  0.1929  0.1015
  412MOL0     H55553   1.789   4.411  11.389  1.7539  1.5469 -1.9299
  412MOL0     H55554   1.532   4.476  11.316 -1.9053  0.0121  1.1163
  412MOL0     H55555   1.365   4.657  11.189 -0.5791 -1.1721 -0.4729
  412MOL0     H55556   1.323   4.547  11.319  1.8852  0.3365  1.3099
  412MOL0     H55557   1.217   4.834  11.282 -1.5322 -0.5154 -1.1200
  412MOL0     H55558   1.121   4.694  11.236  0.9360 -3.2051  0.0207
  412MOL0     H55559   1.018   4.684  11.436 -1.7551  3.0107  1.2363
  412MOL0     H55560   1.169   4.654  11.511 -1.6097  0.8414  1.8256
  412MOL0     H55561   1.066   4.932  11.426 -0.7139 -0.3752  0.8374
  412MOL0     H55562   1.011   4.865  11.574  1.6843 -3.2281  2.1601
  412MOL0     H55563   1.271   4.879  11.649  0.4537 -2.2651 -0.0754
  412MOL0     H55564   1.283   4.967  11.497  4.4574 -3.5437  2.3399
  412MOL0     H55565   1.071   5.108  11.613 -1.3980  0.8841  2.5240
  412MOL0     H55566   1.135   5.041  11.759  0.5782 -0.8715  0.1810
  412MOL0     H55567   1.373   5.131  11.654  0.2862 -3.5548  1.6845
  412MOL0     H55568   1.263   5.234  11.559  0.5803  0.0231  0.4187
  412MOL0     H55569   1.270   5.209  11.858  0.0248 -1.4102 -0.7965
  412MOL0     H55570   1.175   5.336  11.773 -1.0860 -0.8114  1.1588
  412MOL0     H55571   1.316   5.543  11.659  0.5572  1.6761  2.2866
  412MOL0     H55572   1.493   5.707  11.609  0.2886  1.6024 -1.4021
  412MOL0     H55573   1.657   5.683  11.680  0.6553 -2.1827  0.8501
  412MOL0     H55574   1.547   5.570  11.418  2.1937 -1.0449 -2.0137
  412MOL0     H55575   1.681   5.490  11.503 -2.0434 -1.8698 -2.6711
  412MOL0     H55576   1.818   5.695  11.516  1.1051 -0.4538 -1.5248
  412MOL0     H55577   1.686   5.792  11.470 -0.2393 -0.4516  1.6575
  412MOL0     H55578   1.819   5.761  11.286 -0.3008  0.4471  0.3723
  412MOL0     H55579   1.668   5.672  11.260 -0.4213 -2.3567  0.8979
  412MOL0     H55580   1.980   5.666  11.104 -0.6316  1.0883  0.5494
  412MOL0     H55581   2.080   5.720  10.888 -3.1777  1.1187 -2.3255
  412MOL0     H55582   2.123   5.547  10.880 -0.3485 -0.7994 -0.2181
  412MOL0     H55583   2.045   5.629  10.744 -0.7954  0.0358 -0.0918
  412MOL0     H55584   1.457   5.374  10.560  0.4387  0.7237  0.2118
  412MOL0     H55585   1.412   5.307  10.322  1.4290 -2.4122  0.1096
  412MOL0     H55586   1.697   5.462  10.007  0.1703 -0.2670 -2.3893
  412MOL0     H55587   1.549   5.439   9.922 -2.5374  3.1043 -0.2322
  412MOL0     H55588   1.572   5.635  10.143  1.4684 -0.8966  0.0972
  412MOL0     H55589   1.607   5.675   9.974  1.9019 -1.0773  0.2579
  412MOL0     H55590   1.342   5.647  10.113  1.5648  0.1193  0.5968
  412MOL0     H55591   1.346   5.548   9.966 -0.9120  0.6286  0.2401
  412MOL0     H55592   1.397   5.834  10.000 -0.6426  0.6708 -0.1061
  412MOL0     H55593   1.447   5.757   9.847 -1.1723  0.1996 -1.8450
  412MOL0     H55594   1.219   5.689   9.807  0.9870 -2.5640  1.9895
  412MOL0     H55595   1.220   5.867   9.841 -4.9222 -0.8513 -0.1723
  412MOL0     H55596   1.126   5.627  10.008 -0.4773 -0.1666  0.9528
  412MOL0     H55597   1.153   5.779  10.073 -0.9379 -0.0864 -0.4430
  412MOL0     H55598   0.981   5.742   9.826  1.8670 -1.0516  0.3572
  412MOL0     H55599   0.970   5.880   9.932 -1.0545 -0.2632  4.6994
  412MOL0     H55600   0.777   5.774   9.979 -1.8848  0.1113  0.9066
  412MOL0     H55601   0.888   5.738  10.118  1.3944 -2.8482  0.1470
  412MOL0     H55602   1.799   5.463  10.218 -0.4119 -1.9559 -2.6843
  412MOL0     H55603   1.852   5.505  10.433  0.3041 -1.6094 -1.4899
  412MOL0     H55604   1.630   5.412  10.881  0.3754 -1.9854  0.3201
  412MOL0     H55605   1.635   5.410  11.130 -0.8675 -2.0394 -3.1079
  412MOL0     H55606   1.560   4.828  11.538 -2.7104 -1.3630 -0.7085
  412MOL0     H55607   1.790   4.776  11.613 -1.7326  1.7816 -0.9141
  412MOL0     H55608   2.266   4.449  11.317  3.3132 -1.1536 -0.1407
  412MOL0     H55609   2.437   4.369  11.398 -2.3708 -0.1558 -2.8436
  412MOL0     H55610   2.674   4.217  11.675  1.2277  1.9349  0.9751
  412MOL0     H55611   2.600   4.264  11.521  0.9160  1.7463  0.1023
  412MOL0     H55612   2.621   4.491  11.562 -2.1681 -0.5609  0.3109
  412MOL0     H55613   2.778   4.411  11.557  0.0214 -2.5570  1.4518
  412MOL0     H55614   2.797   4.407  11.804 -4.7769 -1.6994  3.5849
  412MOL0     H55615   2.638   4.483  11.815  0.6673  1.7649  0.8911
  412MOL0     H55616   2.849   4.625  11.841 -1.6552 -0.6849  1.4635
  412MOL0     H55617   2.692   4.675  11.784  0.6592  1.1266 -0.4517
  412MOL0     H55618   2.974   4.705  11.454  0.6155 -0.8735 -0.2261
  412MOL0     H55619   2.247   4.333  11.805  2.7875  3.0297  1.2324
  412MOL0     H55620   2.057   4.450  11.711  0.7373  0.2467  0.3374
  413MOL0     O55621   3.254   7.099  10.257  1.1709 -0.9064  0.1145
  413MOL0     C55622   3.318   7.129  10.354 -0.0455 -0.1275  0.1602
  413MOL0     O55623   3.294   7.235  10.433 -0.3806 -0.0891 -0.1545
  413MOL0     C55624   3.189   7.319  10.412 -0.5530  0.9293  0.3072
  413MOL0     C55625   3.055   7.267  10.414  0.0778 -0.7060  0.8096
  413MOL0     C55626   2.950   7.358  10.399  0.2828  0.0068 -0.4398
  413MOL0     C55627   2.964   7.491  10.389 -0.1036  0.3835  0.0017
  413MOL0     O55628   2.860   7.584  10.372 -0.0943 -0.9954 -0.0403
  413MOL0     C55629   2.740   7.550  10.444  0.2617 -1.0988 -0.3229
  413MOL0     C55630   2.665   7.678  10.461 -0.4060 -0.5365 -0.4444
  413MOL0     C55631   2.692   7.761  10.587  0.3122  0.5956  0.3511
  413MOL0     C55632   2.582   7.862  10.629  0.5036 -0.0430  0.1317
  413MOL0     C55633   2.633   7.995  10.672  0.6436  0.3721 -0.5639
  413MOL0     C55634   2.543   8.065  10.773  0.1780  0.5217  0.5835
  413MOL0     C55635   2.603   8.182  10.852 -0.5522  0.0112  0.1346
  413MOL0     C55636   2.636   8.303  10.768 -0.0908 -0.2494  0.0417
  413MOL0     N55637   2.726   8.392  10.845 -0.7769 -0.2065  0.5049
  413MOL0     C55638   2.864   8.392  10.823 -0.2120  0.1893 -0.9362
  413MOL0     C55639   2.912   8.511  10.882 -0.3071  0.4637 -1.1984
  413MOL0     C55640   3.064   8.554  10.857 -0.1339 -0.0582  0.1084
  413MOL0     C55641   3.102   8.703  10.863  0.9148  0.3407  0.5422
  413MOL0     C55642   3.255   8.737  10.837  0.2765 -0.3085 -0.8838
  413MOL0     C55643   3.286   8.888  10.805 -0.2833  0.2356  0.2308
  413MOL0     O55644   3.277   8.986  10.910  0.3904  0.2538 -0.1464
  413MOL0     C55645   3.360   9.092  10.905 -0.0785 -0.7369  0.4928
  413MOL0     C55646   3.377   9.162  10.786  0.2484 -0.5784  0.2918
  413MOL0     C55647   3.453   9.276  10.774 -0.4567 -1.0518  0.3016
  413MOL0     C55648   3.464   9.337  10.643 -0.2156 -0.4468 -0.3750
  413MOL0     C55649   3.524   9.327  10.891  0.2290 -0.3015  0.0695
  413MOL0     C55650   3.613   9.448  10.890 -0.0990  0.1629 -0.2970
  413MOL0     O55651   3.710   9.449  10.997 -0.0293  0.7479  0.5556
  413MOL0     C55652   3.803   9.545  11.021  0.4445 -0.1700 -0.4280
  413MOL0     C55653   3.933   9.504  11.026 -0.4244  0.3571  0.2356
  413MOL0     C55654   4.044   9.589  11.057  0.3131 -0.2466  0.6339
  413MOL0     C55655   4.019   9.729  11.054  0.1932 -0.5109  0.5443
  413MOL0     O55656   4.114   9.836  11.075  0.4330 -0.4243  0.2767
  413MOL0     C55657   4.255   9.820  11.066 -0.6008  0.0734 -1.0751
  413MOL0     C55658   4.307   9.961  11.127  0.0298 -0.2308 -0.6875
  413MOL0     C55659   4.454   9.952  11.161  0.3314  0.7059  0.1757
  413MOL0     C55660   4.535   9.923  11.028 -0.3078  0.1712  0.3635
  413MOL0     C55661   4.691   9.942  11.048 -0.4893 -0.3750  0.0343
  413MOL0     C55662   4.789   9.909  10.931  0.9788 -1.1647  0.2863
  413MOL0     C55663   4.927   9.981  10.946  0.3078 -0.7739 -0.7673
  413MOL0     C55664   5.027   9.936  10.846  0.1755  0.3584  0.2170
  413MOL0    Cl55665   5.165  10.061  10.816 -0.2388  0.3606 -0.4408
  413MOL0     C55666   3.883   9.769  11.058  0.2329 -0.4846 -0.1924
  413MOL0     C55667   3.781   9.674  11.045  0.0601 -0.2706 -0.9235
  413MOL0     O55668   3.600   9.539  10.806  0.6190 -0.3047 -0.3887
  413MOL0     C55669   3.500   9.261  11.010 -0.1841  0.3446  0.0894
  413MOL0     C55670   3.419   9.151  11.018 -0.3043  1.1928  0.0268
  413MOL0     N55671   2.804   8.583  10.932 -0.4544  0.5733 -0.2516
  413MOL0     N55672   2.693   8.509  10.919 -0.5346 -0.4785 -0.6922
  413MOL0     C55673   3.092   7.541  10.394 -0.1192  0.0323 -0.2724
  413MOL0     C55674   3.209   7.455  10.417  0.6759 -1.0110  0.5469
  413MOL0     C55675   3.424   7.032  10.404  0.8061 -0.2252  0.4439
  413MOL0     C55676   3.482   7.054  10.528  0.3753 -0.2416  0.2984
  413MOL0     C55677   3.576   6.977  10.581  0.4843  0.2131 -1.1683
  413MOL0     C55678   3.620   6.863  10.512 -0.2521  0.2539 -0.9311
  413MOL0     O55679   3.732   6.803  10.573 -0.6093  0.2515  0.2540
  413MOL0     C55680   3.783   6.691  10.507  0.6416  0.2469 -0.1606
  413MOL0     C55681   3.870   6.622  10.605  0.2334  0.2946  0.7423
  413MOL0     C55682   3.925   6.494  10.543  0.2774 -0.3095 -0.2402
  413MOL0     C55683   4.033   6.522  10.436  0.0324  1.1525 -0.4633
  413MOL0     C55684   4.036   6.399  10.351 -0.5304  0.1082 -0.3237
  413MOL0     C55685   4.055   6.302  10.284  0.1499  0.5931  0.5080
  413MOL0     C55686   3.565   6.833  10.387  0.3664  0.8257 -0.7090
  413MOL0     C55687   3.460   6.913  10.332 -0.6855 -0.6632 -0.2575
  413MOL0     H55688   3.040   7.160  10.421 -0.5125 -0.5951  1.3350
  413MOL0     H55689   2.848   7.320  10.394  0.8192 -1.7043  0.9869
  413MOL0     H55690   2.673   7.491  10.381 -2.2579 -1.3593  2.3636
  413MOL0     H55691   2.771   7.502  10.537  2.9413 -1.0667 -1.1049
  413MOL0     H55692   2.680   7.741  10.373 -2.8937 -0.0860 -0.6155
  413MOL0     H55693   2.558   7.654  10.457 -1.8183  4.3761  0.7902
  413MOL0     H55694   2.721   7.699  10.672  1.1172 -0.0551 -0.3704
  413MOL0     H55695   2.778   7.827  10.572  2.1196 -1.3767  1.4753
  413MOL0     H55696   2.507   7.875  10.550  2.5465  1.7810 -1.6460
  413MOL0     H55697   2.534   7.810  10.712  0.2186 -0.3500 -0.2195
  413MOL0     H55698   2.729   7.983  10.724  0.8160  0.5750 -0.8322
  413MOL0     H55699   2.642   8.053  10.580  0.4660 -1.2443 -1.6401
  413MOL0     H55700   2.453   8.094  10.717  0.1786  1.1163  0.8916
  413MOL0     H55701   2.506   7.996  10.850  1.1095  1.8480  2.2813
  413MOL0     H55702   2.546   8.212  10.940  2.3833  0.8240  1.8917
  413MOL0     H55703   2.695   8.152  10.904 -1.1646 -0.5724  0.9146
  413MOL0     H55704   2.532   8.336  10.757 -0.0653 -0.3727 -0.6141
  413MOL0     H55705   2.667   8.287  10.665  0.4888  0.3700  0.1154
  413MOL0     H55706   2.926   8.320  10.772 -0.2765 -0.4702 -0.1104
  413MOL0     H55707   3.126   8.499  10.928 -0.3931 -0.6057 -0.0827
  413MOL0     H55708   3.098   8.516  10.760  0.6432 -0.9294  0.7131
  413MOL0     H55709   3.071   8.730  10.964 -1.6518 -3.3033  0.9449
  413MOL0     H55710   3.041   8.763  10.795 -0.2326 -0.7792  0.5373
  413MOL0     H55711   3.271   8.676  10.748 -2.1957  0.1018 -1.7019
  413MOL0     H55712   3.317   8.702  10.920  0.9882  0.2749 -1.1609
  413MOL0     H55713   3.217   8.913  10.724  1.8673  1.2427 -1.3723
  413MOL0     H55714   3.378   8.889  10.746 -1.3080 -1.0459 -1.5033
  413MOL0     H55715   3.322   9.125  10.700 -1.8834 -1.0274  1.7483
  413MOL0     H55716   3.406   9.429  10.642  1.2521  0.6132  2.2144
  413MOL0     H55717   3.568   9.355  10.613 -0.0996 -0.5571 -0.0388
  413MOL0     H55718   3.437   9.261  10.569 -2.0185  0.8417 -1.1114
  413MOL0     H55719   3.960   9.399  11.018  0.9745  0.7916 -1.1103
  413MOL0     H55720   4.138   9.542  11.084 -0.5118 -0.6400  3.1286
  413MOL0     H55721   4.294   9.732  11.119  1.7921 -0.1821 -3.0662
  413MOL0     H55722   4.292   9.815  10.963  0.7412  2.7163 -0.8019
  413MOL0     H55723   4.278  10.042  11.060 -1.1023  0.1557  0.2464
  413MOL0     H55724   4.254   9.977  11.221 -1.3640 -2.5040 -0.9934
  413MOL0     H55725   4.476   9.879  11.240 -1.8929  2.5786  2.7383
  413MOL0     H55726   4.486  10.054  11.187  2.9057 -0.5087  2.2444
  413MOL0     H55727   4.522   9.821  10.993 -0.7660 -0.7315  2.9748
  413MOL0     H55728   4.497   9.982  10.944 -0.6238 -1.0463 -0.3670
  413MOL0     H55729   4.743   9.895  11.131  2.6554  3.1669  0.3242
  413MOL0     H55730   4.707  10.049  11.067 -0.2382 -0.5516  0.8598
  413MOL0     H55731   4.807   9.801  10.926 -3.8615 -2.1437 -0.4240
  413MOL0     H55732   4.756   9.936  10.830  0.6707  0.0217  0.6956
  413MOL0     H55733   4.973   9.980  11.045  1.0982  2.1781 -1.0039
  413MOL0     H55734   4.905  10.086  10.922  0.7611 -0.4407  0.2143
  413MOL0     H55735   4.986   9.915  10.747  0.8568 -1.5480  0.2900
  413MOL0     H55736   5.071   9.839  10.874 -0.8522 -0.5747 -1.2424
  413MOL0     H55737   3.850   9.871  11.074  1.2384  0.2101 -2.2991
  413MOL0     H55738   3.679   9.711  11.039  0.2739  1.7749  3.8639
  413MOL0     H55739   3.549   9.303  11.097  0.5066  0.8379 -0.5260
  413MOL0     H55740   3.414   9.102  11.114  4.2167 -0.4209 -0.3342
  413MOL0     H55741   3.099   7.649  10.389 -2.6101  0.2079 -3.2556
  413MOL0     H55742   3.310   7.492  10.436  1.0851 -2.1344  0.6493
  413MOL0     H55743   3.453   7.143  10.581  2.8467  0.6918  0.2002
  413MOL0     H55744   3.623   6.999  10.676 -0.9838 -0.3882 -0.2746
  413MOL0     H55745   3.706   6.616  10.484 -1.0668  1.9745 -0.2944
  413MOL0     H55746   3.834   6.733  10.419  1.6455  3.4303  1.7834
  413MOL0     H55747   3.803   6.589  10.685 -0.4318  2.4906  1.1492
  413MOL0     H55748   3.940   6.698  10.641  1.7938  0.7222 -2.8073
  413MOL0     H55749   3.848   6.442  10.486  0.7241  1.2239 -2.3852
  413MOL0     H55750   3.962   6.438  10.629  0.3586  2.0999  1.4058
  413MOL0     H55751   4.126   6.534  10.492 -0.8505 -0.5739  1.5251
  413MOL0     H55752   4.000   6.610  10.380 -2.6618  1.3443  1.2391
  413MOL0     H55753   4.058   6.208  10.231  0.1510  2.3271 -2.8531
  413MOL0     H55754   3.620   6.752  10.342  0.4392  0.9576 -0.8543
  413MOL0     H55755   3.432   6.886  10.231  0.3247  1.0031 -1.0144
  414MOL0     O55756   3.114   0.205   5.413  0.5862 -0.0690 -0.2007
  414MOL0     C55757   3.208   0.169   5.490  0.5140 -0.1102  0.1049
  414MOL0     O55758   3.226   0.208   5.622  0.4813  0.2108  0.4351
  414MOL0     C55759   3.137   0.275   5.694 -0.4685 -0.2337  0.9456
  414MOL0     C55760   3.176   0.339   5.808  0.3369  1.0318  0.1567
  414MOL0     C55761   3.081   0.407   5.887  0.0525  0.1686  0.7754
  414MOL0     C55762   2.945   0.411   5.855 -0.2285  1.3101  0.3139
  414MOL0     O55763   2.860   0.472   5.939  0.2463 -1.1301 -0.0935
  414MOL0     C55764   2.715   0.458   5.938 -0.9059 -0.3510 -0.7252
  414MOL0     C55765   2.666   0.537   6.057  0.8186 -0.0982 -0.0657
  414MOL0     C55766   2.674   0.692   6.056 -0.8843  0.7243 -0.8548
  414MOL0     C55767   2.611   0.739   6.181  0.7412 -1.0143 -0.5141
  414MOL0     C55768   2.656   0.894   6.194 -0.3230  0.9529 -0.0845
  414MOL0     C55769   2.555   0.982   6.273 -0.4555 -0.1366  1.0947
  414MOL0     C55770   2.616   1.118   6.318 -1.1063  0.1075 -0.1869
  414MOL0     C55771   2.591   1.231   6.218  0.3776 -0.7125 -0.2278
  414MOL0     N55772   2.674   1.211   6.102 -0.7826 -1.1671 -0.1582
  414MOL0     C55773   2.642   1.160   5.980 -0.4459 -0.6984  0.4119
  414MOL0     C55774   2.755   1.135   5.912 -0.0777  0.1461 -0.0563
  414MOL0     C55775   2.763   1.086   5.777 -0.0923  0.7344  0.2767
  414MOL0     C55776   2.787   0.936   5.778  0.1651  0.2641  0.0521
  414MOL0     C55777   2.941   0.918   5.831  0.8821  0.7260  0.4330
  414MOL0     C55778   2.991   0.777   5.808 -0.0053  0.6385 -0.5558
  414MOL0     O55779   3.023   0.750   5.670  0.3714 -0.0460  0.1888
  414MOL0     C55780   3.143   0.703   5.648 -0.1916  0.9138  0.5367
  414MOL0     C55781   3.261   0.765   5.701 -0.3162 -1.1716  0.7977
  414MOL0     C55782   3.388   0.720   5.663 -0.4347  0.2310  0.7341
  414MOL0     C55783   3.506   0.790   5.726 -0.9519 -0.4313  0.8659
  414MOL0     C55784   3.403   0.602   5.583  0.0596  0.0668 -0.2416
  414MOL0     C55785   3.533   0.532   5.540 -0.0735 -0.0943  0.0184
  414MOL0     O55786   3.523   0.453   5.424 -0.6378  0.1791 -0.4923
  414MOL0     C55787   3.614   0.353   5.410  0.3295 -0.6476 -0.7571
  414MOL0     C55788   3.646   0.321   5.283  0.5454 -0.0781  0.7761
  414MOL0     C55789   3.718   0.213   5.250  0.1737  0.1437  0.2617
  414MOL0     C55790   3.777   0.133   5.347 -0.6102  0.4039 -0.1094
  414MOL0     O55791   3.838   0.008   5.312  0.1395  0.2090 -0.1700
  414MOL0     C55792   3.960   0.016   5.231  1.0002  0.7511 -0.2692
  414MOL0     C55793   4.076   0.076   5.307  0.1820 -0.2852 -0.7244
  414MOL0     C55794   4.156   0.173   5.228  0.7950  0.0293 -0.2054
  414MOL0     C55795   4.257   0.244   5.321  0.1849 -0.3695 -0.7854
  414MOL0     C55796   4.369   0.323   5.250  0.4880  0.0811 -0.0426
  414MOL0     C55797   4.475   0.376   5.341 -0.1139  0.4087  0.5639
  414MOL0     C55798   4.581   0.447   5.266 -0.6090  0.7818  0.4830
  414MOL0     C55799   4.664   0.543   5.367  0.0120 -0.5576  0.1603
  414MOL0    Cl55800   4.839   0.503   5.347 -0.0650 -0.0433 -0.0470
  414MOL0     C55801   3.749   0.155   5.479 -0.0610 -0.4246  0.3172
  414MOL0     C55802   3.663   0.261   5.511 -0.0586 -0.1556  0.0063
  414MOL0     O55803   3.639   0.547   5.603 -0.4337 -0.1127  0.2922
  414MOL0     C55804   3.282   0.555   5.527 -1.0545  0.3222  0.3974
  414MOL0     C55805   3.158   0.595   5.563  0.5916 -0.4360  0.4301
  414MOL0     N55806   2.856   1.182   5.986  0.6296 -0.0714 -0.2645
  414MOL0     N55807   2.807   1.223   6.104  0.1070 -0.6063  0.7494
  414MOL0     C55808   2.901   0.331   5.754 -1.0793 -0.1290 -0.0956
  414MOL0     C55809   2.997   0.274   5.669 -1.1911  0.5655 -0.7552
  414MOL0     C55810   3.308   0.072   5.430  0.4058  0.1928 -0.2222
  414MOL0     C55811   3.310   0.036   5.295 -0.8396  0.7966 -0.3718
  414MOL0     C55812   3.403  -0.048   5.244  0.6571  0.9730  0.3523
  414MOL0     C55813   3.508  -0.109   5.314  0.5860 -0.1926 -0.4040
  414MOL0     O55814   3.611  -0.179   5.248  0.2476 -0.0696  0.6298
  414MOL0     C55815   3.696  -0.247   5.331 -0.3261 -0.2442  1.2980
  414MOL0     C55816   3.649  -0.389   5.363 -0.1655 -0.0291  0.4729
  414MOL0     C55817   3.745  -0.449   5.458 -0.4321  0.7109  0.4294
  414MOL0     C55818   3.725  -0.595   5.487 -0.3007  0.1738  0.2702
  414MOL0     C55819   3.592  -0.645   5.524 -0.9306 -0.1889 -0.8264
  414MOL0     C55820   3.478  -0.658   5.554 -0.0365 -0.2458 -0.2426
  414MOL0     C55821   3.510  -0.071   5.450  0.5826 -0.4735 -0.0821
  414MOL0     C55822   3.413   0.015   5.503 -0.0448 -0.0237 -1.3551
  414MOL0     H55823   3.278   0.365   5.832  0.9341 -0.4965 -0.5828
  414MOL0     H55824   3.109   0.462   5.976 -0.7881  0.2087  1.0275
  414MOL0     H55825   2.657   0.501   5.856 -1.3755  0.1421 -0.1418
  414MOL0     H55826   2.682   0.354   5.947 -2.3469  0.1541  0.1056
  414MOL0     H55827   2.564   0.499   6.069  1.2725 -1.4580 -0.3040
  414MOL0     H55828   2.730   0.501   6.138 -2.0365  2.2135  3.5451
  414MOL0     H55829   2.782   0.714   6.051 -0.7748  0.2839 -0.4954
  414MOL0     H55830   2.621   0.726   5.967 -1.0013 -1.3613 -1.6437
  414MOL0     H55831   2.502   0.734   6.170  0.6148  0.1024  0.0305
  414MOL0     H55832   2.626   0.672   6.266  0.4894 -2.2988 -1.4532
  414MOL0     H55833   2.757   0.896   6.237 -0.2332  0.9245 -0.2898
  414MOL0     H55834   2.664   0.946   6.098 -2.1548 -3.3013 -2.8574
  414MOL0     H55835   2.468   0.980   6.207 -0.4844 -2.4002  1.1208
  414MOL0     H55836   2.528   0.932   6.367  1.2050  0.0586  1.7092
  414MOL0     H55837   2.580   1.132   6.420 -2.0679 -3.3338  0.0436
  414MOL0     H55838   2.725   1.108   6.329 -0.4955  2.7415 -2.5298
  414MOL0     H55839   2.618   1.317   6.279  1.8685 -0.7345 -0.8097
  414MOL0     H55840   2.489   1.248   6.181  0.4016  1.7517  0.6756
  414MOL0     H55841   2.542   1.142   5.941  0.4774 -1.5723 -1.6731
  414MOL0     H55842   2.662   1.102   5.736 -1.8326 -1.8024  3.1851
  414MOL0     H55843   2.837   1.140   5.718 -1.5208  1.5211 -0.8816
  414MOL0     H55844   2.777   0.908   5.672 -1.7990  0.8744  0.0411
  414MOL0     H55845   2.711   0.889   5.840 -1.7131  2.9473 -0.0272
  414MOL0     H55846   2.944   0.939   5.938  0.5990  1.7321  0.2511
  414MOL0     H55847   3.009   0.983   5.776 -0.4753  1.0783 -0.8912
  414MOL0     H55848   2.914   0.706   5.842 -0.9769  1.8003 -0.2823
  414MOL0     H55849   3.081   0.764   5.870  0.9693  1.2079 -1.8043
  414MOL0     H55850   3.252   0.845   5.774  0.3727  1.4184 -1.7487
  414MOL0     H55851   3.570   0.716   5.775  1.5092  0.8105 -0.2827
  414MOL0     H55852   3.562   0.839   5.646  1.1374 -1.3014  1.7256
  414MOL0     H55853   3.478   0.871   5.794  0.0642  1.6424 -1.0637
  414MOL0     H55854   3.608   0.380   5.200 -1.0286  0.8857  2.1236
  414MOL0     H55855   3.727   0.196   5.143 -1.8840  3.8470 -0.6457
  414MOL0     H55856   3.989  -0.086   5.203  0.1000  0.6557 -0.9197
  414MOL0     H55857   3.939   0.072   5.139  1.0568 -2.4380 -2.4256
  414MOL0     H55858   4.037   0.129   5.395  2.9887 -0.2260  0.5997
  414MOL0     H55859   4.133  -0.005   5.354 -1.8992 -0.2670  2.1126
  414MOL0     H55860   4.102   0.254   5.180  1.8179  0.3586 -0.8321
  414MOL0     H55861   4.204   0.111   5.152 -0.5292  0.4102 -1.3896
  414MOL0     H55862   4.200   0.313   5.383 -0.3352  0.2538 -1.9336
  414MOL0     H55863   4.284   0.171   5.398 -1.5848 -2.1529 -1.7896
  414MOL0     H55864   4.325   0.415   5.209 -0.7084 -0.6620 -0.4697
  414MOL0     H55865   4.410   0.269   5.165 -2.6471  1.4681 -2.6801
  414MOL0     H55866   4.427   0.446   5.411 -2.0061 -0.0676 -0.1805
  414MOL0     H55867   4.508   0.288   5.396 -2.2977 -1.0288 -0.2749
  414MOL0     H55868   4.534   0.497   5.180 -0.5855  1.4284  0.8356
  414MOL0     H55869   4.649   0.370   5.229 -0.9608 -0.5462  2.4517
  414MOL0     H55870   4.628   0.529   5.469  1.7773 -2.2502  0.6264
  414MOL0     H55871   4.651   0.648   5.340 -0.2887 -0.4776  0.6045
  414MOL0     H55872   3.786   0.081   5.549  1.8200  1.9820  2.0293
  414MOL0     H55873   3.622   0.267   5.611 -1.0063 -2.6318 -0.1689
  414MOL0     H55874   3.291   0.474   5.456 -0.6544  0.0962  0.7025
  414MOL0     H55875   3.069   0.553   5.518  0.9844  0.1701 -0.9823
  414MOL0     H55876   2.795   0.326   5.732 -0.9688  0.8952 -0.9091
  414MOL0     H55877   2.955   0.220   5.586 -1.9954 -0.9329  0.5687
  414MOL0     H55878   3.232   0.068   5.227 -1.2619 -2.3945 -1.5907
  414MOL0     H55879   3.376  -0.076   5.142  2.2681 -3.1282  0.8545
  414MOL0     H55880   3.788  -0.266   5.274  1.0477 -0.7477  3.5527
  414MOL0     H55881   3.731  -0.182   5.412 -0.4869  1.5051  0.0217
  414MOL0     H55882   3.633  -0.442   5.268  0.3472  0.0462  0.3427
  414MOL0     H55883   3.558  -0.384   5.424 -0.3156  0.7674  0.2080
  414MOL0     H55884   3.732  -0.397   5.554 -0.6033 -2.7093  2.4013
  414MOL0     H55885   3.851  -0.443   5.429 -0.1254 -0.4295  1.2485
  414MOL0     H55886   3.808  -0.617   5.554  2.6151 -2.0424 -3.6338
  414MOL0     H55887   3.747  -0.647   5.393  1.8041  1.4779 -0.0293
  414MOL0     H55888   3.373  -0.678   5.559  0.0997 -1.1657 -0.6737
  414MOL0     H55889   3.593  -0.095   5.516  0.6127  1.1081  0.4781
  414MOL0     H55890   3.418   0.027   5.610  0.9811  0.0388 -1.4009
  415MOL0     O55891   7.492   6.558   6.507 -0.8645 -0.8673  0.3102
  415MOL0     C55892   7.439   6.474   6.443 -0.1860  0.0141 -0.8456
  415MOL0     O55893   7.318   6.422   6.472 -0.1243 -0.0665 -0.0518
  415MOL0     C55894   7.259   6.438   6.586  0.1257 -0.3664 -0.2022
  415MOL0     C55895   7.319   6.410   6.708  0.2862  0.0768 -0.0610
  415MOL0     C55896   7.242   6.409   6.833 -0.0632 -0.6209 -0.7081
  415MOL0     C55897   7.105   6.428   6.824  0.3601 -0.4151 -0.2266
  415MOL0     O55898   7.030   6.443   6.936  0.4550  0.0948 -0.2124
  415MOL0     C55899   7.015   6.578   6.987 -0.8615  0.7323  0.5515
  415MOL0     C55900   6.980   6.564   7.135  0.3492  0.5882 -0.5424
  415MOL0     C55901   7.083   6.498   7.235 -0.2438 -0.5364 -1.3588
  415MOL0     C55902   7.220   6.573   7.234 -1.4064 -0.5543 -0.3619
  415MOL0     C55903   7.315   6.534   7.353 -0.0256 -0.2493 -0.5261
  415MOL0     C55904   7.453   6.582   7.321 -0.5676  0.5582  0.0472
  415MOL0     C55905   7.481   6.721   7.379  0.2537  0.3150 -1.1905
  415MOL0     C55906   7.605   6.791   7.323 -0.2572 -0.2638  0.4353
  415MOL0     N55907   7.734   6.736   7.382  0.4175  0.1984 -0.2488
  415MOL0     C55908   7.789   6.617   7.355  0.8385 -0.1980  0.3698
  415MOL0     C55909   7.904   6.614   7.423  0.0704  0.8717 -1.2158
  415MOL0     C55910   8.013   6.505   7.415  0.6892 -0.1732 -0.5100
  415MOL0     C55911   8.127   6.527   7.513 -0.0463  0.5187  0.6036
  415MOL0     C55912   8.234   6.419   7.485  0.3794  0.0327 -0.3197
  415MOL0     C55913   8.343   6.430   7.603 -0.1922  0.7818 -0.2825
  415MOL0     O55914   8.473   6.363   7.571 -0.2905 -0.4921  0.3345
  415MOL0     C55915   8.533   6.323   7.685 -0.4362 -0.0263 -0.1126
  415MOL0     C55916   8.575   6.401   7.797  0.6424  0.5752 -0.2448
  415MOL0     C55917   8.639   6.340   7.913 -0.3403  0.1895  0.0455
  415MOL0     C55918   8.693   6.441   8.017  1.2373  0.5747 -0.6634
  415MOL0     C55919   8.663   6.203   7.906  0.9153 -1.2042 -0.7234
  415MOL0     C55920   8.758   6.146   8.008 -0.0952  0.9593 -0.0942
  415MOL0     O55921   8.774   6.211   8.132  0.0632 -0.1463 -0.4511
  415MOL0     C55922   8.845   6.157   8.241  0.8336 -0.0939  0.2936
  415MOL0     C55923   8.984   6.133   8.236  0.4952 -0.0067  0.2127
  415MOL0     C55924   9.052   6.080   8.348 -0.2602  0.3502 -0.3204
  415MOL0     C55925   8.986   6.047   8.462 -0.6811 -0.2532  0.5810
  415MOL0     O55926   9.049   5.985   8.564  0.8048  0.1401 -0.1991
  415MOL0     C55927   9.184   5.960   8.557  0.2557  0.1174  0.5855
  415MOL0     C55928   9.244   5.889   8.673 -0.2794  0.1992 -0.7626
  415MOL0     C55929   9.233   5.940   8.815  0.0491 -0.0827  0.0558
  415MOL0     C55930   9.288   5.846   8.919 -0.3989 -0.3132 -0.2894
  415MOL0     C55931   9.213   5.862   9.055  0.1427  0.8752  0.4383
  415MOL0     C55932   9.258   5.747   9.153  0.2330  1.2835  0.3844
  415MOL0     C55933   9.201   5.768   9.292 -0.1020  0.4188 -0.1527
  415MOL0     C55934   9.285   5.706   9.397 -0.0262 -0.7107  0.7809
  415MOL0    Cl55935   9.237   5.749   9.561  0.0407 -0.8207  0.0132
  415MOL0     C55936   8.845   6.051   8.452 -1.9476 -0.0363 -1.2610
  415MOL0     C55937   8.773   6.113   8.350  0.7685  0.1682  0.0757
  415MOL0     O55938   8.812   6.036   7.980 -0.0286 -0.4142  0.1887
  415MOL0     C55939   8.622   6.127   7.797 -0.0779 -1.9147 -0.1276
  415MOL0     C55940   8.559   6.192   7.688  0.2281 -0.4862  0.0668
  415MOL0     N55941   7.924   6.729   7.502  0.1211 -0.5270 -0.2157
  415MOL0     N55942   7.816   6.798   7.470 -0.2619 -0.0657  0.6525
  415MOL0     C55943   7.045   6.447   6.699 -0.3274 -0.0120  0.3258
  415MOL0     C55944   7.119   6.444   6.580 -1.0626  0.1096  0.0349
  415MOL0     C55945   7.509   6.417   6.332  0.3894  0.0691 -0.4927
  415MOL0     C55946   7.649   6.417   6.324  0.2189 -0.1750 -1.3087
  415MOL0     C55947   7.716   6.341   6.236  1.0385 -0.9561 -0.0527
  415MOL0     C55948   7.656   6.274   6.129  0.2688  0.7270  0.3390
  415MOL0     O55949   7.729   6.214   6.032 -0.3128 -0.1371  0.3054
  415MOL0     C55950   7.791   6.090   6.065 -0.1605  0.7310 -0.0366
  415MOL0     C55951   7.730   5.998   5.968  0.8947 -0.4994  0.5374
  415MOL0     C55952   7.780   6.002   5.822  0.3133  0.2774  0.1091
  415MOL0     C55953   7.798   5.864   5.756  0.7588  0.5161  1.1104
  415MOL0     C55954   7.676   5.789   5.732 -0.1559  0.3819 -0.5770
  415MOL0     C55955   7.571   5.732   5.721 -0.1321  0.4705  0.0697
  415MOL0     C55956   7.511   6.268   6.133 -0.5499  0.1686  0.3877
  415MOL0     C55957   7.441   6.335   6.233  0.2146 -0.4011 -0.0756
  415MOL0     H55958   7.426   6.406   6.721  0.0866  0.5450  2.2190
  415MOL0     H55959   7.287   6.415   6.931 -1.8842  1.0226  0.1017
  415MOL0     H55960   7.103   6.641   6.982 -0.8744  0.6528 -0.8584
  415MOL0     H55961   6.930   6.630   6.942 -1.4604  2.1092  3.0706
  415MOL0     H55962   6.955   6.665   7.169  0.2195  1.5324 -3.2069
  415MOL0     H55963   6.890   6.501   7.137  0.2379  0.7466  1.6655
  415MOL0     H55964   7.043   6.506   7.336  1.1959 -0.7458 -0.7521
  415MOL0     H55965   7.103   6.396   7.200 -1.4442 -1.0232 -0.6862
  415MOL0     H55966   7.266   6.540   7.140  1.1004 -0.1057  0.6396
  415MOL0     H55967   7.212   6.682   7.231 -1.7664 -0.5940 -2.5334
  415MOL0     H55968   7.283   6.563   7.453 -1.8953 -2.4610 -0.4150
  415MOL0     H55969   7.318   6.425   7.356  1.0426 -0.2131  1.7067
  415MOL0     H55970   7.521   6.512   7.371  0.8269  0.0867 -2.3739
  415MOL0     H55971   7.482   6.581   7.216 -0.7898 -1.5733 -0.0376
  415MOL0     H55972   7.396   6.786   7.359 -1.5047 -2.2209 -2.3200
  415MOL0     H55973   7.496   6.708   7.487 -2.9536 -1.0753 -0.8112
  415MOL0     H55974   7.607   6.899   7.338  0.7459  0.5882 -4.1748
  415MOL0     H55975   7.596   6.776   7.215 -1.1586  0.1634  0.4433
  415MOL0     H55976   7.756   6.547   7.279 -0.0831  1.1806 -0.5427
  415MOL0     H55977   7.955   6.414   7.431 -0.9754  1.0469  0.8565
  415MOL0     H55978   8.061   6.525   7.319  0.8276 -0.0545 -0.4156
  415MOL0     H55979   8.091   6.513   7.616 -0.9540 -2.3512 -0.0241
  415MOL0     H55980   8.184   6.620   7.504 -1.1843  1.3287  1.4326
  415MOL0     H55981   8.293   6.446   7.397  0.8644  0.0164 -0.0053
  415MOL0     H55982   8.200   6.315   7.476  1.3270 -0.1866 -1.6574
  415MOL0     H55983   8.299   6.385   7.692 -1.4167 -0.0554 -1.2794
  415MOL0     H55984   8.353   6.538   7.618  1.3757  0.6507 -0.1985
  415MOL0     H55985   8.554   6.507   7.794  0.8142  0.6762  1.4023
  415MOL0     H55986   8.659   6.410   8.116  1.4262 -0.2719 -0.8505
  415MOL0     H55987   8.802   6.440   8.020  1.2236  1.4235  0.4446
  415MOL0     H55988   8.657   6.541   7.992 -1.9852 -0.1406  0.6099
  415MOL0     H55989   9.027   6.169   8.143 -1.6703 -1.5272 -1.4543
  415MOL0     H55990   9.158   6.058   8.343  0.1628  2.4090 -1.8032
  415MOL0     H55991   9.211   5.893   8.475  1.1645 -0.3270  1.2256
  415MOL0     H55992   9.239   6.054   8.549  3.2181 -1.4890  0.4912
  415MOL0     H55993   9.201   5.789   8.677  2.0728 -0.8245  0.5217
  415MOL0     H55994   9.350   5.876   8.650 -0.9007 -2.4015 -2.6032
  415MOL0     H55995   9.127   5.958   8.836 -0.7609 -2.1664 -1.8778
  415MOL0     H55996   9.284   6.037   8.817 -1.6295  0.8337  1.6302
  415MOL0     H55997   9.271   5.740   8.897 -0.7162 -1.3670  4.0804
  415MOL0     H55998   9.394   5.873   8.926  0.2249 -2.0169 -2.0546
  415MOL0     H55999   9.105   5.861   9.038 -0.1852  2.3921  2.2146
  415MOL0     H56000   9.239   5.957   9.101 -2.7837  1.8292  0.3275
  415MOL0     H56001   9.227   5.649   9.118  0.3473  0.6272  2.0386
  415MOL0     H56002   9.367   5.752   9.145  0.1874  3.0326  0.4232
  415MOL0     H56003   9.101   5.724   9.291  0.1680 -0.2461  0.6684
  415MOL0     H56004   9.198   5.876   9.307 -5.7375  0.4947  0.3146
  415MOL0     H56005   9.392   5.723   9.384  0.3002 -2.7240  0.5451
  415MOL0     H56006   9.265   5.601   9.373 -2.7145  0.1881 -1.4586
  415MOL0     H56007   8.794   6.006   8.536  2.0477 -2.3390  0.1895
  415MOL0     H56008   8.666   6.130   8.341  0.6903 -1.3414 -3.6199
  415MOL0     H56009   8.649   6.022   7.788 -2.3171 -2.4473 -1.3420
  415MOL0     H56010   8.519   6.134   7.606 -2.2838  0.7197  0.3123
  415MOL0     H56011   6.938   6.456   6.689 -0.6364 -2.6036  0.5420
  415MOL0     H56012   7.062   6.451   6.488  1.6892 -0.4271 -1.8575
  415MOL0     H56013   7.707   6.465   6.402  2.4330 -2.3841 -1.4669
  415MOL0     H56014   7.824   6.352   6.233  0.8568  1.4092  0.2719
  415MOL0     H56015   7.900   6.088   6.055 -0.3454 -1.0496 -2.8992
  415MOL0     H56016   7.766   6.054   6.165 -3.6596  0.1798 -0.9572
  415MOL0     H56017   7.620   5.996   5.973  0.7943  1.8711  0.6001
  415MOL0     H56018   7.763   5.900   6.005 -1.0276 -0.0922  3.7621
  415MOL0     H56019   7.877   6.053   5.823 -0.2257  1.3248  0.8393
  415MOL0     H56020   7.708   6.063   5.767 -1.2142 -0.5448  1.1524
  415MOL0     H56021   7.863   5.800   5.817  0.3690 -0.8127  0.1856
  415MOL0     H56022   7.841   5.866   5.655 -1.3923 -3.3589 -0.1093
  415MOL0     H56023   7.477   5.682   5.709  0.5947 -0.7707 -0.6807
  415MOL0     H56024   7.448   6.216   6.061 -0.1672  2.0459 -1.3949
  415MOL0     H56025   7.333   6.324   6.227  0.3458 -0.7793 -2.9262
  416MOL0     O56026   6.053   0.032   9.124 -0.4863  0.3552 -0.6146
  416MOL0     C56027   6.022  -0.077   9.176  0.7958  1.0072  0.4959
  416MOL0     O56028   6.017  -0.194   9.114 -0.0740  0.9364  0.1137
  416MOL0     C56029   6.028  -0.187   8.976 -0.0337  0.6800  0.8512
  416MOL0     C56030   5.943  -0.114   8.890 -0.4635 -0.3997  1.1413
  416MOL0     C56031   5.975  -0.100   8.754  0.1376  0.0966 -0.3532
  416MOL0     C56032   6.069  -0.184   8.700  0.4343  0.7852 -1.0204
  416MOL0     O56033   6.084  -0.203   8.566 -0.9187  0.1886 -0.2848
  416MOL0     C56034   6.014  -0.120   8.479  0.4779  0.0233 -0.1878
  416MOL0     C56035   6.040  -0.167   8.330 -0.7973 -0.7618  0.2393
  416MOL0     C56036   6.181  -0.136   8.296 -0.5070  0.4583 -0.5027
  416MOL0     C56037   6.207  -0.215   8.169 -0.2002  0.2000  0.4497
  416MOL0     C56038   6.349  -0.199   8.121 -0.0568 -0.2052 -0.6067
  416MOL0     C56039   6.370  -0.287   7.996 -0.6125  0.1697  0.0052
  416MOL0     C56040   6.515  -0.304   7.973 -0.3242 -0.6650 -0.7461
  416MOL0     C56041   6.544  -0.366   7.829  0.8143 -0.6978  0.1512
  416MOL0     N56042   6.682  -0.414   7.812 -0.1020 -0.1532  0.4423
  416MOL0     C56043   6.804  -0.349   7.840 -0.0151 -0.3728 -0.5135
  416MOL0     C56044   6.898  -0.441   7.842  0.0836 -0.6600 -0.7532
  416MOL0     C56045   7.042  -0.427   7.851  0.9510  0.0065  0.1755
  416MOL0     C56046   7.089  -0.481   7.977  0.5564 -0.3841 -0.2914
  416MOL0     C56047   7.241  -0.480   7.992 -0.1649 -0.4450 -0.9648
  416MOL0     C56048   7.279  -0.531   8.128 -0.0359 -0.9673  0.5041
  416MOL0     O56049   7.281  -0.429   8.229 -0.1283 -0.8938 -0.7390
  416MOL0     C56050   7.205  -0.432   8.343  0.0508  0.4135 -0.6710
  416MOL0     C56051   7.172  -0.306   8.391  0.4443  0.3679  0.2322
  416MOL0     C56052   7.077  -0.289   8.490 -0.5170  0.1413 -0.1749
  416MOL0     C56053   7.032  -0.148   8.502  0.6494  0.3726  0.0394
  416MOL0     C56054   7.028  -0.409   8.559 -0.0598 -1.0527  0.2270
  416MOL0     C56055   6.919  -0.397   8.665 -0.1587  0.2568  0.6976
  416MOL0     O56056   6.840  -0.282   8.653 -0.7244 -1.0574  0.3786
  416MOL0     C56057   6.744  -0.254   8.746  0.0301  0.1132  0.3788
  416MOL0     C56058   6.778  -0.168   8.844  0.4080  0.5256 -0.0080
  416MOL0     C56059   6.695  -0.153   8.949  0.1830  0.2817 -0.6997
  416MOL0     C56060   6.569  -0.218   8.953  0.3451  0.1413 -0.6553
  416MOL0     O56061   6.460  -0.188   9.046  0.0917 -0.0797  0.1716
  416MOL0     C56062   6.507  -0.105   9.154  0.0884  0.2696 -0.3904
  416MOL0     C56063   6.398  -0.096   9.261 -0.2697  0.8227  0.6355
  416MOL0     C56064   6.404  -0.209   9.366  0.8532 -0.2252  0.8498
  416MOL0     C56065   6.294  -0.206   9.468  0.0441  0.6044  0.1504
  416MOL0     C56066   6.307  -0.328   9.561 -0.1470 -0.3007  0.3345
  416MOL0     C56067   6.196  -0.352   9.667 -0.0762 -0.7823  0.2430
  416MOL0     C56068   6.225  -0.259   9.783  0.2695  0.0130  0.0620
  416MOL0     C56069   6.119  -0.279   9.896 -0.1107  0.4474 -0.1052
  416MOL0    Cl56070   6.120  -0.429   9.996  0.4195 -0.0034  0.4875
  416MOL0     C56071   6.534  -0.306   8.851 -0.5045 -0.6972  0.0841
  416MOL0     C56072   6.621  -0.323   8.748 -0.8939 -0.6587 -0.0478
  416MOL0     O56073   6.896  -0.485   8.746  0.2828  0.3039  0.3063
  416MOL0     C56074   7.084  -0.537   8.523  0.5834  0.6521 -0.2952
  416MOL0     C56075   7.162  -0.546   8.412  0.2228  0.1333 -0.0465
  416MOL0     N56076   6.841  -0.561   7.822  0.2352  1.1316  0.0061
  416MOL0     N56077   6.714  -0.548   7.810 -0.4186 -0.5806  0.0388
  416MOL0     C56078   6.148  -0.274   8.783  0.0594  1.0600 -0.0764
  416MOL0     C56079   6.127  -0.275   8.924  0.2935 -0.2413  0.0518
  416MOL0     C56080   5.991  -0.079   9.317  0.3953  0.5129 -0.3756
  416MOL0     C56081   6.007   0.043   9.385  0.2466 -0.4589 -0.5947
  416MOL0     C56082   5.982   0.051   9.530  0.8773 -0.9477  0.0344
  416MOL0     C56083   5.935  -0.060   9.593  0.2294  0.5171 -0.5083
  416MOL0     O56084   5.919  -0.078   9.724 -0.2577  0.0855 -1.0121
  416MOL0     C56085   5.940   0.030   9.820 -1.0710 -0.3711  0.1190
  416MOL0     C56086   5.797   0.079   9.853 -0.6021 -0.0091  0.2818
  416MOL0     C56087   5.736   0.012   9.978 -0.0115 -0.2659 -0.1442
  416MOL0     C56088   5.709   0.110  10.088  0.2307  0.5319 -0.6838
  416MOL0     C56089   5.664   0.037  10.205 -0.1139 -0.3293 -0.4959
  416MOL0     C56090   5.637  -0.038  10.308 -0.3357  0.1141  0.5284
  416MOL0     C56091   5.918  -0.177   9.522  0.1352 -0.3149 -0.4861
  416MOL0     C56092   5.946  -0.195   9.386  0.1155  0.7858  0.3382
  416MOL0     H56093   5.866  -0.053   8.935 -0.2674 -1.7656  3.4709
  416MOL0     H56094   5.911  -0.038   8.692 -3.9129 -2.7979  0.5429
  416MOL0     H56095   5.906  -0.132   8.494  0.6623 -0.3483  0.8893
  416MOL0     H56096   6.049  -0.017   8.490  4.9991 -1.4201  0.8454
  416MOL0     H56097   6.026  -0.275   8.325  0.5245 -1.0014  1.1391
  416MOL0     H56098   5.962  -0.115   8.273 -2.4023 -1.3130  1.8522
  416MOL0     H56099   6.199  -0.029   8.282  0.3095  0.9523  3.2053
  416MOL0     H56100   6.244  -0.177   8.376 -1.3537 -1.8687 -0.9527
  416MOL0     H56101   6.185  -0.317   8.201  0.0457  1.1670  4.1752
  416MOL0     H56102   6.134  -0.190   8.090 -1.8641 -1.0024  1.5323
  416MOL0     H56103   6.377  -0.094   8.110 -0.5941 -0.0483 -0.4711
  416MOL0     H56104   6.410  -0.247   8.198  1.9539 -0.6429 -2.3896
  416MOL0     H56105   6.319  -0.382   8.010 -0.4592 -0.3940 -2.6960
  416MOL0     H56106   6.321  -0.230   7.916 -0.9462 -0.5342 -0.3060
  416MOL0     H56107   6.561  -0.205   7.976 -1.2256 -0.1997 -1.4900
  416MOL0     H56108   6.566  -0.369   8.045  0.8149 -0.0444 -0.9763
  416MOL0     H56109   6.510  -0.289   7.759  0.8575 -0.4935  0.3555
  416MOL0     H56110   6.476  -0.451   7.820  0.6033 -0.8279  2.5327
  416MOL0     H56111   6.822  -0.243   7.858  0.8189 -0.2973 -1.6884
  416MOL0     H56112   7.069  -0.488   7.764 -1.2227  1.4224 -1.5916
  416MOL0     H56113   7.076  -0.325   7.829  1.8686 -0.1781  0.6616
  416MOL0     H56114   7.062  -0.587   7.978  1.9729 -0.8014 -1.7068
  416MOL0     H56115   7.041  -0.433   8.062  0.0562 -2.4677  0.6795
  416MOL0     H56116   7.289  -0.385   7.968 -1.0373  2.0376  5.3872
  416MOL0     H56117   7.291  -0.543   7.917  0.0894 -0.3797 -0.8518
  416MOL0     H56118   7.383  -0.563   8.129  0.0418 -0.7111  0.7021
  416MOL0     H56119   7.210  -0.612   8.153  0.3969 -1.1808  1.0142
  416MOL0     H56120   7.207  -0.224   8.329 -2.7367  2.8057  1.3754
  416MOL0     H56121   7.110  -0.080   8.468  1.1028 -0.2277 -0.1357
  416MOL0     H56122   6.938  -0.132   8.446  1.6326  1.8952 -1.2790
  416MOL0     H56123   7.020  -0.130   8.609  2.7910 -1.5956  0.6755
  416MOL0     H56124   6.874  -0.117   8.849  0.7594 -0.2334  1.4963
  416MOL0     H56125   6.709  -0.079   9.027 -1.6965  2.7253 -2.5042
  416MOL0     H56126   6.600  -0.138   9.201 -2.1124 -3.5159  1.8155
  416MOL0     H56127   6.512  -0.004   9.111 -1.3365  1.0991  1.2519
  416MOL0     H56128   6.414  -0.006   9.322 -2.5587  2.0686 -0.4534
  416MOL0     H56129   6.303  -0.091   9.207  0.0929  0.6639 -0.0248
  416MOL0     H56130   6.498  -0.194   9.421  1.1391  0.2595  0.2367
  416MOL0     H56131   6.400  -0.307   9.318  1.7965 -0.1448  0.5855
  416MOL0     H56132   6.281  -0.119   9.532 -1.3016 -1.0754  2.3293
  416MOL0     H56133   6.199  -0.224   9.416  0.6567 -2.6231 -0.0788
  416MOL0     H56134   6.408  -0.335   9.605 -0.6611 -0.7992  1.4772
  416MOL0     H56135   6.302  -0.414   9.494  1.5996  2.4992 -3.7901
  416MOL0     H56136   6.103  -0.339   9.610  1.3083  1.6808 -1.7044
  416MOL0     H56137   6.186  -0.453   9.706 -4.6345 -0.0756  1.3843
  416MOL0     H56138   6.222  -0.154   9.752  0.7971  0.1007  0.3095
  416MOL0     H56139   6.324  -0.278   9.825  0.3009  1.1440  0.5192
  416MOL0     H56140   6.019  -0.269   9.852 -2.2885 -0.6848  4.0448
  416MOL0     H56141   6.125  -0.198   9.969 -4.1746  1.6429 -0.8390
  416MOL0     H56142   6.435  -0.349   8.842 -1.1213  0.5500  0.6345
  416MOL0     H56143   6.600  -0.395   8.670 -3.8990 -1.7960  1.6277
  416MOL0     H56144   7.048  -0.623   8.578  0.6715  1.3348  0.8473
  416MOL0     H56145   7.186  -0.644   8.372 -1.1985 -0.4776  0.5339
  416MOL0     H56146   6.226  -0.337   8.743 -1.7308  0.0269 -2.1932
  416MOL0     H56147   6.177  -0.347   8.987 -0.3618 -1.8433 -1.1927
  416MOL0     H56148   6.046   0.133   9.339 -1.6211  0.4054 -0.5635
  416MOL0     H56149   5.989   0.149   9.575  1.7779 -1.8883  2.0868
  416MOL0     H56150   5.987   0.000   9.914  2.7641  1.0426 -1.1277
  416MOL0     H56151   5.995   0.118   9.784 -2.1860 -0.4639 -1.9667
  416MOL0     H56152   5.734   0.057   9.767 -0.5613  3.0415 -0.6322
  416MOL0     H56153   5.813   0.186   9.865 -1.8443  0.0975  1.1393
  416MOL0     H56154   5.801  -0.070  10.009  0.1135  0.4257  1.5111
  416MOL0     H56155   5.643  -0.032   9.941  0.3112 -0.8025 -0.3396
  416MOL0     H56156   5.635   0.183  10.053  0.1208  0.7096 -0.0898
  416MOL0     H56157   5.795   0.167  10.123 -0.9313  0.0265  3.5611
  416MOL0     H56158   5.632  -0.107  10.390 -3.4255 -2.3638 -1.5030
  416MOL0     H56159   5.890  -0.262   9.585  2.0061  1.0760  2.4547
  416MOL0     H56160   5.918  -0.294   9.351 -0.3602  0.0971  2.4804
  417MOL0     O56161   9.934   4.666   8.165  0.2305  0.4118 -0.2911
  417MOL0     C56162   9.989   4.728   8.262  0.7532 -0.0071  0.1149
  417MOL0     O56163   9.928   4.763   8.374  0.0325 -0.3425 -0.2201
  417MOL0     C56164   9.795   4.738   8.392 -0.3116  0.1237 -0.5372
  417MOL0     C56165   9.710   4.836   8.338  0.3799  0.3073 -0.3689
  417MOL0     C56166   9.575   4.826   8.357  1.0550  0.4576  0.1760
  417MOL0     C56167   9.519   4.716   8.429 -0.6911 -0.6583  0.3177
  417MOL0     O56168   9.382   4.707   8.441  0.2512 -0.3313  0.0531
  417MOL0     C56169   9.326   4.600   8.528 -0.1396 -0.2115 -0.4536
  417MOL0     C56170   9.180   4.605   8.502  0.2606 -0.2776 -0.4121
  417MOL0     C56171   9.122   4.481   8.561 -0.2292 -0.7867 -0.2308
  417MOL0     C56172   8.965   4.483   8.575 -0.2287 -0.2155  0.0178
  417MOL0     C56173   8.891   4.362   8.630  0.7872 -0.7769  0.1527
  417MOL0     C56174   8.894   4.244   8.526  0.3244 -0.1347 -0.5773
  417MOL0     C56175   8.828   4.135   8.595 -0.1219  0.9835 -0.2497
  417MOL0     C56176   8.845   4.002   8.521 -0.3715  0.1780  0.0776
  417MOL0     N56177   8.787   3.885   8.578  0.4657  0.0831  0.0601
  417MOL0     C56178   8.670   3.880   8.655 -0.1413  0.5220  0.7960
  417MOL0     C56179   8.656   3.756   8.684 -0.4225 -0.1825 -0.6097
  417MOL0     C56180   8.544   3.711   8.771 -0.2052  0.0962  0.5544
  417MOL0     C56181   8.418   3.692   8.684  0.4871  1.1623  0.8853
  417MOL0     C56182   8.291   3.680   8.746 -0.3403  0.2942 -0.0929
  417MOL0     C56183   8.177   3.666   8.644 -0.5285  0.4516  0.6550
  417MOL0     O56184   8.070   3.738   8.706 -0.5714 -0.3611 -0.5691
  417MOL0     C56185   7.950   3.670   8.730 -0.1078  0.1879  0.0706
  417MOL0     C56186   7.868   3.723   8.837 -0.1488 -0.4109 -0.5495
  417MOL0     C56187   7.742   3.669   8.861  0.0312  0.0211 -0.1773
  417MOL0     C56188   7.666   3.726   8.976  0.6108 -0.0622  0.4885
  417MOL0     C56189   7.695   3.562   8.774  0.2027  0.4385 -0.3037
  417MOL0     C56190   7.564   3.495   8.801  0.7490 -0.7426 -0.3087
  417MOL0     O56191   7.518   3.405   8.717 -0.6029 -0.2836 -0.0683
  417MOL0     C56192   7.399   3.345   8.739 -0.7517  0.4694  0.7767
  417MOL0     C56193   7.288   3.414   8.689  0.3266 -0.5392 -0.1360
  417MOL0     C56194   7.152   3.372   8.709 -0.5279  0.5299 -0.2173
  417MOL0     C56195   7.135   3.245   8.777 -1.3566  0.0376  0.3328
  417MOL0     O56196   7.014   3.182   8.811  0.0277  0.7443 -0.1478
  417MOL0     C56197   6.917   3.172   8.699 -0.2780 -0.7564  0.2151
  417MOL0     C56198   6.793   3.097   8.748 -0.2877  0.5363 -0.2439
  417MOL0     C56199   6.692   3.086   8.631 -0.7414  0.4940 -0.2477
  417MOL0     C56200   6.550   3.060   8.691  0.2437 -0.2302 -0.3359
  417MOL0     C56201   6.452   3.018   8.585  0.3067 -0.1256 -0.1296
  417MOL0     C56202   6.468   2.875   8.556  0.0189  1.2118  0.9353
  417MOL0     C56203   6.376   2.835   8.443 -0.0255  0.4268  0.0140
  417MOL0     C56204   6.341   2.691   8.426  0.2477  0.4570 -0.1274
  417MOL0    Cl56205   6.452   2.607   8.322 -0.2301  0.1385 -0.5305
  417MOL0     C56206   7.250   3.164   8.820  0.4733 -0.9703  0.5422
  417MOL0     C56207   7.385   3.212   8.795 -0.0274 -0.6124  0.4496
  417MOL0     O56208   7.507   3.516   8.912 -1.1375 -0.2894 -0.0733
  417MOL0     C56209   7.769   3.528   8.660  0.2531  0.1579  0.5173
  417MOL0     C56210   7.898   3.577   8.642 -0.0426  1.1746  1.0646
  417MOL0     N56211   8.764   3.688   8.633 -0.6938  0.2097  0.0162
  417MOL0     N56212   8.845   3.764   8.569 -0.4174  0.4999  0.3937
  417MOL0     C56213   9.605   4.620   8.484  0.7625  1.0190  0.5878
  417MOL0     C56214   9.746   4.628   8.470 -0.3644 -0.0976 -0.2233
  417MOL0     C56215  10.128   4.788   8.243 -0.0958  0.5946  0.1486
  417MOL0     C56216  10.204   4.776   8.120 -1.2453  0.6628 -0.2169
  417MOL0     C56217  10.334   4.833   8.109  0.4429  0.9733 -0.3972
  417MOL0     C56218  10.394   4.904   8.213 -0.7099 -1.0862  0.9914
  417MOL0     O56219  10.522   4.934   8.182  0.2605  0.4268  0.0042
  417MOL0     C56220  10.594   5.026   8.263  0.5387 -0.5694 -1.1228
  417MOL0     C56221  10.745   5.018   8.234  0.0642 -0.0992  0.4984
  417MOL0     C56222  10.814   4.891   8.296  0.0139  0.0842  0.6117
  417MOL0     C56223  10.973   4.896   8.289  0.2557  0.1621  0.0934
  417MOL0     C56224  11.013   4.773   8.355  0.0791  0.1140  0.9588
  417MOL0     C56225  11.033   4.662   8.408 -0.0423 -0.1655  0.5435
  417MOL0     C56226  10.335   4.896   8.338  0.6901 -0.6339 -0.1252
  417MOL0     C56227  10.202   4.849   8.348  0.6502 -0.6492 -0.4694
  417MOL0     H56228   9.738   4.929   8.290 -1.7696  1.4061  0.3817
  417MOL0     H56229   9.511   4.907   8.321  0.9610 -0.3379 -1.5210
  417MOL0     H56230   9.352   4.500   8.491 -1.0395 -1.4245  2.0053
  417MOL0     H56231   9.355   4.612   8.633  1.0145 -0.4884 -0.7257
  417MOL0     H56232   9.128   4.692   8.545 -1.5686 -1.3506 -0.3433
  417MOL0     H56233   9.164   4.611   8.394  0.4367  0.3657 -0.4065
  417MOL0     H56234   9.156   4.405   8.489 -1.6070 -0.7280 -0.9771
  417MOL0     H56235   9.170   4.465   8.658 -0.5712 -0.9700 -0.0893
  417MOL0     H56236   8.954   4.561   8.651  1.8789 -2.2395  2.5467
  417MOL0     H56237   8.926   4.515   8.477 -0.0449 -0.2229 -0.0589
  417MOL0     H56238   8.925   4.339   8.732 -0.1233 -0.2700  0.5857
  417MOL0     H56239   8.787   4.394   8.644  0.8961  1.6681 -3.4010
  417MOL0     H56240   8.840   4.268   8.434 -2.6364 -1.6260  0.5991
  417MOL0     H56241   8.997   4.214   8.509  0.8462  1.4687 -0.3686
  417MOL0     H56242   8.865   4.130   8.698  0.0296  0.3373 -0.3324
  417MOL0     H56243   8.722   4.159   8.602 -0.7291 -1.6315  0.4768
  417MOL0     H56244   8.953   3.981   8.512 -0.5214 -0.0210 -1.7660
  417MOL0     H56245   8.813   4.018   8.418 -0.9126  5.4808  0.8049
  417MOL0     H56246   8.598   3.959   8.676  0.2201  0.7608  1.1541
  417MOL0     H56247   8.589   3.618   8.805  0.9173 -0.1225 -1.3331
  417MOL0     H56248   8.542   3.788   8.849 -0.4423  1.2003 -0.4941
  417MOL0     H56249   8.417   3.596   8.630 -1.9193  2.6716 -2.0618
  417MOL0     H56250   8.409   3.777   8.616 -2.5677  0.4625  0.2265
  417MOL0     H56251   8.274   3.766   8.812 -1.1786  0.1843 -0.1453
  417MOL0     H56252   8.296   3.596   8.816 -1.6350  0.2245 -0.0478
  417MOL0     H56253   8.148   3.561   8.634 -0.8375  0.4772  1.2369
  417MOL0     H56254   8.199   3.697   8.542 -0.4600 -0.2120  0.4609
  417MOL0     H56255   7.913   3.801   8.898  0.7465  0.4199 -2.2111
  417MOL0     H56256   7.668   3.658   9.061  2.0346  0.4120  0.8594
  417MOL0     H56257   7.710   3.825   8.992  0.3213 -0.1838  2.2158
  417MOL0     H56258   7.564   3.753   8.946  2.3043  2.1311 -4.4084
  417MOL0     H56259   7.305   3.516   8.656  1.8289 -0.7862 -0.2103
  417MOL0     H56260   7.079   3.446   8.678  1.1047  0.6094 -4.5844
  417MOL0     H56261   6.882   3.273   8.676  0.3486 -0.4980  0.3914
  417MOL0     H56262   6.961   3.124   8.611 -2.3069 -2.9578  0.2855
  417MOL0     H56263   6.811   2.995   8.783 -2.1108  0.8162  1.6793
  417MOL0     H56264   6.741   3.149   8.828 -1.5176 -1.1891  0.1359
  417MOL0     H56265   6.717   3.009   8.557  2.5334 -2.8349  3.8253
  417MOL0     H56266   6.689   3.178   8.572 -2.6777 -0.1969 -1.2994
  417MOL0     H56267   6.554   2.983   8.769  0.2719 -1.2354 -1.2934
  417MOL0     H56268   6.531   3.157   8.737  4.2895  1.7630 -2.3768
  417MOL0     H56269   6.468   3.071   8.491  1.3399 -0.4151 -0.1338
  417MOL0     H56270   6.350   3.031   8.621  0.1558 -1.2599 -0.1088
  417MOL0     H56271   6.572   2.849   8.535 -0.5531 -2.3909  1.8216
  417MOL0     H56272   6.436   2.806   8.635 -1.8376  3.1191  1.9425
  417MOL0     H56273   6.418   2.865   8.347  0.7132  0.8521  0.4585
  417MOL0     H56274   6.287   2.896   8.463  0.8616  1.5081  0.8690
  417MOL0     H56275   6.246   2.683   8.372  0.4262 -0.8524 -0.2752
  417MOL0     H56276   6.319   2.646   8.523  0.8738 -1.1510 -0.7048
  417MOL0     H56277   7.234   3.070   8.873  0.6691 -0.2695  1.8742
  417MOL0     H56278   7.465   3.151   8.835  3.4716  0.8599 -3.5981
  417MOL0     H56279   7.732   3.467   8.578  0.4265  0.4163  0.2480
  417MOL0     H56280   7.943   3.562   8.544  2.8792 -0.5739  2.5533
  417MOL0     H56281   9.567   4.542   8.549  0.5415  0.8455  0.2527
  417MOL0     H56282   9.804   4.555   8.525  2.7035  1.9042 -0.5505
  417MOL0     H56283  10.169   4.716   8.036 -2.6688 -2.0545  2.1544
  417MOL0     H56284  10.375   4.805   8.012  0.0292 -3.7514  0.5291
  417MOL0     H56285  10.555   5.127   8.244 -1.7784 -1.0755  0.5781
  417MOL0     H56286  10.583   5.003   8.369 -0.6951  2.5764 -0.4526
  417MOL0     H56287  10.792   5.115   8.255  0.1661 -0.0441  0.0310
  417MOL0     H56288  10.755   5.005   8.126 -1.9501  0.8688  0.1569
  417MOL0     H56289  10.775   4.799   8.251  1.3042  1.2320 -3.3112
  417MOL0     H56290  10.787   4.882   8.401 -1.7914 -0.2339  0.1577
  417MOL0     H56291  11.015   4.980   8.345  1.3671 -0.7133  0.6169
  417MOL0     H56292  11.010   4.899   8.187  3.4784  1.1041  1.1761
  417MOL0     H56293  11.075   4.574   8.453  0.7587  1.4651  3.2282
  417MOL0     H56294  10.391   4.941   8.419  1.0960 -2.7885  0.8381
  417MOL0     H56295  10.169   4.868   8.450 -1.2888  3.4092 -1.6455
  418MOL0     O56296   0.128   1.174   0.165  0.4507 -0.4421  0.3711
  418MOL0     C56297   0.188   1.223   0.071 -0.2204 -0.3555 -0.1698
  418MOL0     O56298   0.127   1.313  -0.016  0.6269 -0.1897  0.2341
  418MOL0     C56299  -0.001   1.369  -0.009 -0.2478 -0.0926 -0.1205
  418MOL0     C56300  -0.057   1.416  -0.126 -0.0551 -0.5931  0.4165
  418MOL0     C56301  -0.179   1.482  -0.129 -0.3911 -0.0894 -0.2862
  418MOL0     C56302  -0.252   1.503  -0.015  0.9969 -0.5978  0.7047
  418MOL0     O56303  -0.384   1.556  -0.031  0.6519  0.1999 -0.9454
  418MOL0     C56304  -0.417   1.663   0.053  0.8240 -0.2891 -0.5150
  418MOL0     C56305  -0.537   1.741   0.002  0.2386 -0.1545 -0.2413
  418MOL0     C56306  -0.523   1.814  -0.133  0.6108  0.0976  0.6521
  418MOL0     C56307  -0.609   1.930  -0.138  0.4942 -1.2301 -0.4720
  418MOL0     C56308  -0.759   1.886  -0.116 -1.4475 -0.8428  0.4530
  418MOL0     C56309  -0.855   2.007  -0.110  0.6472  0.1143  0.2426
  418MOL0     C56310  -0.996   1.974  -0.173 -0.2481 -0.4027 -0.0735
  418MOL0     C56311  -0.984   1.980  -0.326  0.6484  0.1124  0.7896
  418MOL0     N56312  -1.079   1.887  -0.390  0.6991  0.4201 -0.0622
  418MOL0     C56313  -1.213   1.892  -0.390  0.2153 -0.2439  0.4251
  418MOL0     C56314  -1.246   1.822  -0.503 -0.1632  0.0794 -0.3807
  418MOL0     C56315  -1.386   1.833  -0.563  0.2387 -0.2390 -0.4687
  418MOL0     C56316  -1.464   1.708  -0.547  0.2826  0.6219  0.4432
  418MOL0     C56317  -1.590   1.713  -0.624  0.8277  0.1024 -0.0522
  418MOL0     C56318  -1.707   1.636  -0.569  0.4164  0.0338 -0.0643
  418MOL0     O56319  -1.814   1.622  -0.661  0.1171 -0.5637 -0.2524
  418MOL0     C56320  -1.927   1.551  -0.627 -0.4549 -0.3310  0.6457
  418MOL0     C56321  -2.023   1.551  -0.733  0.1163 -1.0159  0.2863
  418MOL0     C56322  -2.144   1.492  -0.715  0.4029  0.3503 -0.4277
  418MOL0     C56323  -2.239   1.502  -0.838 -0.1863 -0.4073 -0.6385
  418MOL0     C56324  -2.173   1.427  -0.588 -0.5626 -0.5133 -0.1411
  418MOL0     C56325  -2.313   1.381  -0.553 -0.3328 -0.3613  0.0228
  418MOL0     O56326  -2.399   1.345  -0.652  0.3523  0.3915  0.0106
  418MOL0     C56327  -2.504   1.264  -0.611 -0.7486  0.2491  0.2148
  418MOL0     C56328  -2.466   1.129  -0.575  0.6932  0.1379 -0.4866
  418MOL0     C56329  -2.573   1.034  -0.539 -0.7631  0.2624 -0.0306
  418MOL0     C56330  -2.703   1.075  -0.553  0.6084 -0.8862  0.5696
  418MOL0     O56331  -2.787   0.966  -0.547 -0.5132 -0.0596 -0.8365
  418MOL0     C56332  -2.928   0.970  -0.590 -0.7380  0.8452  0.3129
  418MOL0     C56333  -3.009   0.894  -0.488  0.1879 -0.1749 -0.3802
  418MOL0     C56334  -3.149   0.852  -0.525  0.0038  0.1474  0.3880
  418MOL0     C56335  -3.162   0.753  -0.648 -0.0923 -0.2029 -0.6007
  418MOL0     C56336  -3.078   0.629  -0.623  0.3792 -0.6050 -0.0829
  418MOL0     C56337  -3.113   0.513  -0.704 -0.4909  0.6753 -1.8617
  418MOL0     C56338  -3.029   0.391  -0.646 -0.2868 -0.6437 -1.3381
  418MOL0     C56339  -3.071   0.257  -0.717  0.1108 -0.1781 -0.7221
  418MOL0    Cl56340  -2.947   0.141  -0.679 -0.1267 -0.3291  0.2916
  418MOL0     C56341  -2.738   1.206  -0.596  0.1385  0.0364 -0.9507
  418MOL0     C56342  -2.640   1.303  -0.614 -1.2884  0.0349  0.6281
  418MOL0     O56343  -2.340   1.374  -0.434  0.1628 -0.7338  0.2458
  418MOL0     C56344  -2.068   1.415  -0.490  0.2660  0.6264 -0.8789
  418MOL0     C56345  -1.950   1.484  -0.505 -0.1593 -0.9960 -0.6076
  418MOL0     N56346  -1.138   1.751  -0.551  0.0239 -0.2826  0.1654
  418MOL0     N56347  -1.030   1.795  -0.492  0.9583 -0.4513 -0.2240
  418MOL0     C56348  -0.192   1.473   0.108  0.9103  0.4410  0.4944
  418MOL0     C56349  -0.065   1.407   0.107  0.1865 -1.0165  0.3030
  418MOL0     C56350   0.334   1.198   0.056 -0.1369  0.1380 -0.4825
  418MOL0     C56351   0.411   1.098   0.132  0.2734 -0.6022  0.0311
  418MOL0     C56352   0.551   1.120   0.137  0.3868  0.6813  0.0875
  418MOL0     C56353   0.620   1.222   0.074 -0.2494  0.1274 -0.7243
  418MOL0     O56354   0.757   1.227   0.078  0.6578  0.6141  0.0550
  418MOL0     C56355   0.827   1.191   0.206 -0.9223 -0.3342 -0.4623
  418MOL0     C56356   0.948   1.282   0.211  0.1835 -0.4464  1.1134
  418MOL0     C56357   1.057   1.240   0.315  0.1314 -0.1864  0.0858
  418MOL0     C56358   1.155   1.357   0.334  0.4227  0.0949  0.0528
  418MOL0     C56359   1.266   1.312   0.417 -0.4690 -0.2177 -0.2308
  418MOL0     C56360   1.339   1.256   0.497 -0.4523 -0.8391  0.1741
  418MOL0     C56361   0.551   1.308  -0.001  0.8252  0.2151 -0.4998
  418MOL0     C56362   0.412   1.299  -0.010 -0.5490 -0.1609 -0.5745
  418MOL0     H56363  -0.006   1.409  -0.221 -0.0575  0.9818  0.2708
  418MOL0     H56364  -0.209   1.541  -0.216  3.4308 -1.0524 -2.4803
  418MOL0     H56365  -0.447   1.620   0.149 -0.7627  2.2780  0.2306
  418MOL0     H56366  -0.334   1.733   0.061  2.9748 -2.7279  0.1498
  418MOL0     H56367  -0.618   1.668  -0.006 -1.2189  1.1243  1.8127
  418MOL0     H56368  -0.560   1.816   0.078 -2.2528 -1.0729 -0.0004
  418MOL0     H56369  -0.418   1.846  -0.138  0.3546  0.7723 -0.8541
  418MOL0     H56370  -0.540   1.742  -0.213  0.7355 -1.9151  2.3601
  418MOL0     H56371  -0.576   2.000  -0.061  4.7864  1.9545 -4.5978
  418MOL0     H56372  -0.603   1.977  -0.236  0.5036 -2.0245 -0.8601
  418MOL0     H56373  -0.778   1.823  -0.203 -1.8950 -2.7284  1.8672
  418MOL0     H56374  -0.766   1.816  -0.033 -0.1033 -0.2701  1.0935
  418MOL0     H56375  -0.860   2.040  -0.006  2.5330  1.1861  0.0477
  418MOL0     H56376  -0.812   2.095  -0.160 -0.5713  1.4593  1.4831
  418MOL0     H56377  -1.030   1.875  -0.143  0.3259 -0.8681 -0.9282
  418MOL0     H56378  -1.083   2.030  -0.137 -0.0015 -1.4393  2.2958
  418MOL0     H56379  -0.886   1.943  -0.358  0.1460 -1.0835  0.5891
  418MOL0     H56380  -0.984   2.084  -0.361  1.7779  0.8152  2.7129
  418MOL0     H56381  -1.277   1.946  -0.321  1.4378  0.0054  1.4060
  418MOL0     H56382  -1.451   1.899  -0.505 -0.9988 -0.6974 -1.2961
  418MOL0     H56383  -1.378   1.872  -0.665 -0.0731  2.0757  0.3333
  418MOL0     H56384  -1.480   1.689  -0.441 -1.0673  1.1861  0.3614
  418MOL0     H56385  -1.410   1.619  -0.581 -1.5296  1.3857 -5.7784
  418MOL0     H56386  -1.571   1.675  -0.725  1.8830 -2.0951  0.9054
  418MOL0     H56387  -1.623   1.817  -0.631 -2.0011 -0.5477  1.8775
  418MOL0     H56388  -1.745   1.673  -0.473  4.7666  3.2708  0.7382
  418MOL0     H56389  -1.669   1.536  -0.546 -0.7176 -0.8124 -1.6634
  418MOL0     H56390  -1.992   1.600  -0.824  1.1243  0.1366  1.2099
  418MOL0     H56391  -2.324   1.569  -0.823  1.2502  1.6733 -1.3920
  418MOL0     H56392  -2.183   1.543  -0.922 -1.5767  2.2140 -0.3993
  418MOL0     H56393  -2.268   1.401  -0.867  0.1487 -0.3257 -1.2544
  418MOL0     H56394  -2.360   1.107  -0.564  0.1047 -2.1022  1.5604
  418MOL0     H56395  -2.558   0.935  -0.498  0.0186  0.8882  1.2493
  418MOL0     H56396  -2.962   1.066  -0.631  2.3806  1.8980 -0.0744
  418MOL0     H56397  -2.930   0.904  -0.678  0.1837 -1.2165  1.7513
  418MOL0     H56398  -2.949   0.806  -0.462 -0.6857 -1.0138 -1.1343
  418MOL0     H56399  -3.020   0.955  -0.398 -2.7406 -2.7032  1.2086
  418MOL0     H56400  -3.206   0.943  -0.547  3.4237  2.3310 -0.1597
  418MOL0     H56401  -3.201   0.802  -0.442 -0.5157  1.2191  0.7273
  418MOL0     H56402  -3.268   0.730  -0.640 -0.9170  3.1317 -0.3204
  418MOL0     H56403  -3.138   0.809  -0.739  3.0781  1.6504  1.1794
  418MOL0     H56404  -3.090   0.613  -0.515  0.6920  2.0478  0.4221
  418MOL0     H56405  -2.977   0.662  -0.650  0.5242  0.1003  1.2301
  418MOL0     H56406  -3.221   0.501  -0.687  0.0144 -0.4352  1.2210
  418MOL0     H56407  -3.093   0.530  -0.810 -2.8369 -2.6982 -3.0300
  418MOL0     H56408  -3.060   0.383  -0.542  4.6640 -2.5463  0.2655
  418MOL0     H56409  -2.923   0.415  -0.644 -0.1426 -1.2452  1.6114
  418MOL0     H56410  -3.087   0.277  -0.823 -1.8613 -0.4925 -0.5213
  418MOL0     H56411  -3.166   0.239  -0.666  0.9011  2.7399  2.1319
  418MOL0     H56412  -2.843   1.233  -0.600  0.1091  0.3474  0.9663
  418MOL0     H56413  -2.671   1.405  -0.633 -2.3243 -0.2275  0.8613
  418MOL0     H56414  -2.086   1.372  -0.392 -2.3847  0.3768 -1.4175
  418MOL0     H56415  -1.877   1.480  -0.425 -0.5912  0.4125 -0.1198
  418MOL0     H56416  -0.240   1.509   0.198 -0.7891  4.0190 -1.6243
  418MOL0     H56417  -0.016   1.394   0.203  0.4692  2.1072  0.7044
  418MOL0     H56418   0.365   1.023   0.196 -1.6692  1.3009  0.9957
  418MOL0     H56419   0.613   1.062   0.205  3.9428  1.7258 -2.0086
  418MOL0     H56420   0.760   1.220   0.288 -1.4835 -1.8078 -0.3761
  418MOL0     H56421   0.845   1.083   0.210  0.8594 -0.0492  0.6825
  418MOL0     H56422   0.909   1.380   0.241  1.1647  0.0221  0.9154
  418MOL0     H56423   1.007   1.288   0.118 -1.2101 -0.9347  0.1695
  418MOL0     H56424   1.109   1.149   0.283  2.2989  1.0356 -0.0366
  418MOL0     H56425   1.011   1.213   0.410  1.0325 -2.7407 -0.1293
  418MOL0     H56426   1.098   1.433   0.388 -1.3651 -1.7087  0.8178
  418MOL0     H56427   1.202   1.393   0.242  4.0643 -2.5325  0.6796
  418MOL0     H56428   1.418   1.211   0.554 -0.6360 -2.7106 -0.9822
  418MOL0     H56429   0.607   1.389  -0.048  1.1009 -0.5735 -1.5732
  418MOL0     H56430   0.362   1.372  -0.073 -1.1325  1.0673  1.2157
  419MOL0     O56431   9.482   6.623   5.745 -0.5640 -0.4575  0.9927
  419MOL0     C56432   9.543   6.677   5.648 -0.6912 -0.1846 -0.0276
  419MOL0     O56433   9.501   6.791   5.584  0.4089  0.0951  0.2339
  419MOL0     C56434   9.368   6.827   5.587  0.9289 -0.6526 -0.3750
  419MOL0     C56435   9.303   6.860   5.472 -0.2794  0.3393 -0.2388
  419MOL0     C56436   9.166   6.891   5.475  0.1091  0.0866  0.7159
  419MOL0     C56437   9.095   6.902   5.591 -0.3966 -0.9631  0.8986
  419MOL0     O56438   8.963   6.943   5.592 -1.1354 -0.3214  0.0757
  419MOL0     C56439   8.876   6.921   5.708  0.2128  1.0614 -1.0013
  419MOL0     C56440   8.731   6.927   5.663 -0.1862  0.5905 -0.3632
  419MOL0     C56441   8.683   7.067   5.628  0.7368 -0.3878  0.6200
  419MOL0     C56442   8.633   7.139   5.758 -0.6466 -1.0697  0.8363
  419MOL0     C56443   8.600   7.279   5.732 -0.1701 -0.4300 -0.0480
  419MOL0     C56444   8.719   7.371   5.686  0.5481  0.9564 -0.3258
  419MOL0     C56445   8.664   7.520   5.675  0.1637 -0.3114  0.2822
  419MOL0     C56446   8.586   7.544   5.540 -0.0245  0.3396  0.5731
  419MOL0     N56447   8.621   7.674   5.479  0.9872 -0.7287  0.5899
  419MOL0     C56448   8.729   7.706   5.406 -0.4930  0.2688  0.6699
  419MOL0     C56449   8.699   7.829   5.363  0.6812 -0.0802 -1.0087
  419MOL0     C56450   8.764   7.918   5.272 -0.5496  0.1798 -0.2601
  419MOL0     C56451   8.908   7.950   5.308 -0.0133  0.0981 -0.8171
  419MOL0     C56452   8.936   7.982   5.462 -0.3473  0.1191  0.0613
  419MOL0     C56453   9.069   8.057   5.480 -0.3539 -0.4970  0.1405
  419MOL0     O56454   9.174   7.959   5.474 -0.3008 -0.6029  0.0785
  419MOL0     C56455   9.306   8.004   5.465 -0.6214  0.5000 -0.7641
  419MOL0     C56456   9.339   8.143   5.467  0.5756  0.4533  0.7582
  419MOL0     C56457   9.464   8.178   5.466 -0.5205  0.0599 -0.1254
  419MOL0     C56458   9.500   8.319   5.496  0.6192 -0.8685  0.3111
  419MOL0     C56459   9.570   8.089   5.434 -0.7002  0.2987 -0.3633
  419MOL0     C56460   9.717   8.123   5.421 -0.4851  0.2132 -0.9282
  419MOL0     O56461   9.796   8.023   5.370 -0.2432 -0.1856 -0.0876
  419MOL0     C56462   9.934   8.040   5.373  0.9157  0.2691 -0.0402
  419MOL0     C56463   9.992   8.104   5.259  1.0577 -0.2564  0.2308
  419MOL0     C56464  10.131   8.126   5.256  0.6895  0.5430  0.3114
  419MOL0     C56465  10.212   8.088   5.359  0.2032 -0.3980 -0.1876
  419MOL0     O56466  10.349   8.107   5.358  0.9810  0.1489  0.9513
  419MOL0     C56467  10.428   8.058   5.465  0.4765 -1.0614  0.9314
  419MOL0     C56468  10.577   8.098   5.433  0.4557  0.7297 -0.8806
  419MOL0     C56469  10.683   8.031   5.529  0.2332 -0.9407  0.2507
  419MOL0     C56470  10.828   8.060   5.488 -0.1151 -0.2365  0.2037
  419MOL0     C56471  10.854   8.195   5.551 -0.7910 -0.4529  0.2585
  419MOL0     C56472  11.001   8.232   5.545 -0.4832 -0.4081 -0.6567
  419MOL0     C56473  11.030   8.379   5.593  0.0637 -0.1817 -0.3376
  419MOL0     C56474  10.991   8.410   5.737 -0.6830  0.3794  1.2258
  419MOL0    Cl56475  11.032   8.573   5.772  0.0504 -0.2477 -0.0276
  419MOL0     C56476  10.156   8.014   5.463 -0.0539 -0.3274 -0.2253
  419MOL0     C56477  10.023   7.990   5.470  0.3997  1.0679  0.2419
  419MOL0     O56478   9.762   8.239   5.449 -0.6016  0.0972  0.1320
  419MOL0     C56479   9.538   7.952   5.421 -0.5233  0.6612  0.2708
  419MOL0     C56480   9.406   7.912   5.434  0.1406  0.2325 -0.2510
  419MOL0     N56481   8.572   7.866   5.421 -0.6473 -0.9710  0.5748
  419MOL0     N56482   8.528   7.769   5.487  1.0712 -0.8028 -0.9894
  419MOL0     C56483   9.154   6.882   5.717  0.2925  0.7223 -0.6797
  419MOL0     C56484   9.293   6.847   5.714  0.1561  0.1091  0.3653
  419MOL0     C56485   9.677   6.634   5.618  0.2184 -0.8855  0.4322
  419MOL0     C56486   9.721   6.635   5.486  0.0979  1.0023 -0.5631
  419MOL0     C56487   9.851   6.582   5.460 -0.0694 -0.2755 -0.1098
  419MOL0     C56488   9.938   6.547   5.564 -1.0315  0.7619 -0.7015
  419MOL0     O56489  10.060   6.478   5.553 -0.2654  0.0779 -0.0946
  419MOL0     C56490  10.144   6.502   5.437 -0.5353  0.3040 -0.2031
  419MOL0     C56491  10.254   6.402   5.431  0.2266  0.1057 -1.1457
  419MOL0     C56492  10.331   6.382   5.562  0.4285 -0.6100 -0.1947
  419MOL0     C56493  10.447   6.285   5.528  0.2277 -0.8589  0.4925
  419MOL0     C56494  10.522   6.266   5.654 -0.7545  0.3437  0.4104
  419MOL0     C56495  10.592   6.259   5.757  0.7055 -0.5984 -1.5725
  419MOL0     C56496   9.889   6.556   5.694  0.1874  0.0172 -0.2713
  419MOL0     C56497   9.759   6.602   5.715  0.0135  0.2179 -0.2582
  419MOL0     H56498   9.353   6.838   5.378 -4.0798 -3.3986 -1.6919
  419MOL0     H56499   9.113   6.899   5.381 -0.2818  0.8092  0.9829
  419MOL0     H56500   8.884   6.819   5.748 -0.0240  0.2021 -3.0229
  419MOL0     H56501   8.890   6.995   5.787 -2.1263  0.6304 -0.1187
  419MOL0     H56502   8.724   6.858   5.578  0.5519 -0.3477  0.3133
  419MOL0     H56503   8.655   6.885   5.728 -0.7091 -0.3313 -1.5219
  419MOL0     H56504   8.768   7.113   5.577 -0.3747  0.9624 -0.0729
  419MOL0     H56505   8.609   7.071   5.548 -0.3692 -2.5436  1.4668
  419MOL0     H56506   8.534   7.101   5.784 -1.7805  0.9125 -0.2973
  419MOL0     H56507   8.699   7.131   5.845  1.3512 -0.4466 -0.5449
  419MOL0     H56508   8.519   7.290   5.659  0.3663 -0.5289 -0.6606
  419MOL0     H56509   8.555   7.318   5.825 -1.3996  1.1460 -1.2358
  419MOL0     H56510   8.796   7.368   5.763  1.5457  0.2112 -1.3318
  419MOL0     H56511   8.767   7.327   5.598  3.7475 -3.3009  3.1079
  419MOL0     H56512   8.604   7.549   5.762 -0.0598 -0.6022  0.2290
  419MOL0     H56513   8.750   7.586   5.677 -0.4131  0.5447 -1.4824
  419MOL0     H56514   8.477   7.539   5.551  0.1622  0.2465  2.6833
  419MOL0     H56515   8.624   7.478   5.461 -1.0951  2.2266 -1.6237
  419MOL0     H56516   8.806   7.633   5.384 -2.4677 -2.2595  1.6335
  419MOL0     H56517   8.741   7.883   5.171 -2.4805  1.4201 -0.3046
  419MOL0     H56518   8.716   8.016   5.280 -0.3161  0.2084  1.1097
  419MOL0     H56519   8.943   8.030   5.242 -0.6767 -0.3641 -1.7620
  419MOL0     H56520   8.978   7.872   5.274  1.9719  1.4019  0.0737
  419MOL0     H56521   8.952   7.886   5.512  1.5179  0.8980  1.0744
  419MOL0     H56522   8.851   8.041   5.499 -1.9873  2.5211 -6.1459
  419MOL0     H56523   9.078   8.100   5.580  1.1453 -1.4828  0.4681
  419MOL0     H56524   9.079   8.143   5.414 -0.7329 -0.6218 -0.0794
  419MOL0     H56525   9.259   8.216   5.482  1.5950  2.1707 -1.5682
  419MOL0     H56526   9.583   8.325   5.567 -0.9325 -1.6196  2.2847
  419MOL0     H56527   9.524   8.385   5.412  2.3970  1.6058  2.6091
  419MOL0     H56528   9.413   8.371   5.537  1.4410 -1.3964  2.9205
  419MOL0     H56529   9.919   8.134   5.185 -2.0393 -1.2139  2.6841
  419MOL0     H56530  10.175   8.193   5.183  1.9740  0.9162  1.3841
  419MOL0     H56531  10.384   8.103   5.554  0.3483 -0.4529  0.5735
  419MOL0     H56532  10.423   7.950   5.476 -0.6834 -0.9453  1.7448
  419MOL0     H56533  10.594   8.071   5.328  0.2002  0.6609 -0.9037
  419MOL0     H56534  10.584   8.207   5.436 -1.1637  1.0807 -4.4917
  419MOL0     H56535  10.685   7.923   5.542  1.6380 -1.5426 -3.6767
  419MOL0     H56536  10.655   8.062   5.630  1.4490  3.6296 -0.5900
  419MOL0     H56537  10.889   7.985   5.540  0.6222  1.4922  1.9660
  419MOL0     H56538  10.845   8.059   5.380 -0.5207  3.6612 -0.0268
  419MOL0     H56539  10.823   8.183   5.655 -1.8580 -1.3531 -0.1453
  419MOL0     H56540  10.800   8.276   5.501 -0.0388  0.1370  0.3820
  419MOL0     H56541  11.059   8.156   5.598 -0.6533  0.1850  0.4033
  419MOL0     H56542  11.025   8.228   5.438  1.5251  0.6403 -0.3029
  419MOL0     H56543  10.985   8.453   5.528 -1.2011 -1.4830 -0.9984
  419MOL0     H56544  11.139   8.392   5.595 -0.0873  3.4581  5.2415
  419MOL0     H56545  11.041   8.345   5.809  4.0030  3.0466  0.7420
  419MOL0     H56546  10.882   8.395   5.742 -0.9752  1.8468  0.0616
  419MOL0     H56547  10.209   7.972   5.548 -2.0655  3.1959  3.0616
  419MOL0     H56548   9.982   7.933   5.553  2.3892  0.2269  0.7133
  419MOL0     H56549   9.618   7.883   5.395  0.4937  1.0303  2.2199
  419MOL0     H56550   9.388   7.806   5.419 -2.6124  0.5306  0.4251
  419MOL0     H56551   9.109   6.889   5.816  2.4392  2.3563  0.2686
  419MOL0     H56552   9.348   6.827   5.806  2.5095  0.5385 -0.8704
  419MOL0     H56553   9.664   6.663   5.399 -1.2532  0.5211  0.1440
  419MOL0     H56554   9.882   6.569   5.356  1.8806 -0.9943  0.5258
  419MOL0     H56555  10.092   6.490   5.342 -1.1522 -1.6716  0.3387
  419MOL0     H56556  10.196   6.598   5.443 -0.9256  0.6242 -1.6887
  419MOL0     H56557  10.327   6.439   5.358  0.2805  0.1705 -1.0583
  419MOL0     H56558  10.215   6.310   5.386 -1.2569 -0.7455  1.6773
  419MOL0     H56559  10.255   6.343   5.630  1.1716  2.4914  2.6845
  419MOL0     H56560  10.358   6.479   5.605  0.8786  0.7999 -3.3835
  419MOL0     H56561  10.505   6.342   5.455 -2.4023 -1.7998 -2.5102
  419MOL0     H56562  10.415   6.194   5.478 -1.9546  0.9522 -1.6432
  419MOL0     H56563  10.655   6.284   5.840  0.4284 -1.9408 -0.9325
  419MOL0     H56564   9.941   6.507   5.776 -0.0191  0.2696  0.0105
  419MOL0     H56565   9.733   6.621   5.819  2.3563 -0.5909  0.5597
  420MOL0     O56566   4.660   9.058   2.292 -0.0292 -0.2691 -0.2244
  420MOL0     C56567   4.750   9.120   2.244  0.3422  1.4476  0.9613
  420MOL0     O56568   4.800   9.233   2.289 -0.0824 -0.2570 -0.2804
  420MOL0     C56569   4.805   9.285   2.421  0.2600 -1.4872 -0.0777
  420MOL0     C56570   4.844   9.423   2.434  0.4596 -0.0236 -0.0606
  420MOL0     C56571   4.847   9.480   2.562 -0.2974 -0.3662  0.1567
  420MOL0     C56572   4.810   9.403   2.673  0.2712 -0.4853  0.4127
  420MOL0     O56573   4.795   9.462   2.799  0.4172 -0.6583 -0.1725
  420MOL0     C56574   4.904   9.464   2.874 -1.0352 -0.8240 -0.4376
  420MOL0     C56575   4.871   9.413   3.009 -0.6144 -0.0425 -0.5257
  420MOL0     C56576   4.774   9.517   3.081  0.1479 -1.3425 -0.0789
  420MOL0     C56577   4.756   9.484   3.227  0.3812 -0.0664 -0.3503
  420MOL0     C56578   4.646   9.567   3.302  0.0480 -0.2408  0.5836
  420MOL0     C56579   4.625   9.702   3.241  0.7495 -0.0304  0.4313
  420MOL0     C56580   4.544   9.791   3.329  0.2796 -0.2956 -0.6751
  420MOL0     C56581   4.490   9.901   3.243  0.1141  0.2595  0.0685
  420MOL0     N56582   4.467  10.018   3.334 -0.1284  0.3729  1.0286
  420MOL0     C56583   4.364  10.100   3.294 -0.8757  0.1925  0.3518
  420MOL0     C56584   4.391  10.208   3.366  0.8158 -0.6904 -0.0081
  420MOL0     C56585   4.309  10.335   3.364  0.8348  0.6844 -0.8454
  420MOL0     C56586   4.155  10.319   3.349  0.0043 -0.4635 -0.1817
  420MOL0     C56587   4.079  10.456   3.365 -0.1291 -0.2601 -0.3737
  420MOL0     C56588   3.933  10.445   3.333 -0.1474 -1.0023  0.0898
  420MOL0     O56589   3.861  10.561   3.386 -0.5748  0.4677 -0.8029
  420MOL0     C56590   3.730  10.561   3.407  1.7768 -0.0747 -0.7607
  420MOL0     C56591   3.676  10.660   3.477  0.8780 -0.9462 -0.2659
  420MOL0     C56592   3.534  10.671   3.506 -0.2831 -0.1015 -0.6957
  420MOL0     C56593   3.487  10.791   3.588  0.3895  0.0146  0.1463
  420MOL0     C56594   3.445  10.576   3.444 -0.2349 -0.0762 -0.1138
  420MOL0     C56595   3.297  10.575   3.439  0.5099  0.7595 -0.6706
  420MOL0     O56596   3.234  10.496   3.348 -0.0766  0.2001  0.0309
  420MOL0     C56597   3.099  10.464   3.350  0.6098  1.1059  0.1717
  420MOL0     C56598   3.052  10.334   3.386 -0.4797  0.3846  0.4314
  420MOL0     C56599   2.922  10.291   3.370 -1.0568  1.0045  0.2230
  420MOL0     C56600   2.822  10.377   3.312 -0.9075 -0.1974 -0.0497
  420MOL0     O56601   2.697  10.335   3.291  0.7125  0.5631  0.0204
  420MOL0     C56602   2.599  10.424   3.326  0.6984  1.3467 -0.5679
  420MOL0     C56603   2.522  10.482   3.200 -0.2775  0.1899 -0.3896
  420MOL0     C56604   2.433  10.376   3.129  0.5629  0.0597 -0.0077
  420MOL0     C56605   2.281  10.389   3.167 -0.1141 -0.6826  0.3045
  420MOL0     C56606   2.180  10.329   3.056 -0.0603 -0.7099  0.0063
  420MOL0     C56607   2.215  10.201   2.987 -0.6333  0.3989  0.0188
  420MOL0     C56608   2.241  10.087   3.079  0.5845 -0.8362 -0.8357
  420MOL0     C56609   2.256   9.947   3.017 -0.2451 -0.6479  0.1545
  420MOL0    Cl56610   2.370   9.955   2.883 -0.1588 -0.0949  0.1726
  420MOL0     C56611   2.875  10.504   3.269  0.5881  0.1036  0.7126
  420MOL0     C56612   3.008  10.553   3.292 -0.3186  0.7199  0.0666
  420MOL0     O56613   3.238  10.650   3.515  0.0127  0.4584  0.6524
  420MOL0     C56614   3.503  10.468   3.372  0.0836 -0.3885 -0.0578
  420MOL0     C56615   3.643  10.463   3.352 -0.5303  0.2486  0.3447
  420MOL0     N56616   4.503  10.192   3.445 -1.0836  1.2328  0.5037
  420MOL0     N56617   4.543  10.069   3.433  0.1051 -0.9662  0.1414
  420MOL0     C56618   4.771   9.267   2.663 -1.0236  0.5426  0.1905
  420MOL0     C56619   4.771   9.206   2.536  0.3837 -1.1938 -0.6332
  420MOL0     C56620   4.781   9.076   2.099  0.1481 -0.0707 -0.4151
  420MOL0     C56621   4.732   8.965   2.038  0.3366 -0.1291  0.5403
  420MOL0     C56622   4.749   8.937   1.903 -0.5663 -0.1741  0.0652
  420MOL0     C56623   4.817   9.023   1.814 -1.5156  0.3561  0.9864
  420MOL0     O56624   4.834   9.008   1.679  0.2755 -0.1820  0.3265
  420MOL0     C56625   4.820   8.872   1.622 -0.9705 -0.0942  0.4715
  420MOL0     C56626   4.823   8.886   1.460  0.1722  0.4949 -0.2006
  420MOL0     C56627   4.958   8.932   1.416 -0.0160  0.8918 -0.0198
  420MOL0     C56628   4.971   8.932   1.259 -0.6038 -0.3414 -0.4938
  420MOL0     C56629   5.110   8.962   1.217  0.2903 -0.3162 -0.9959
  420MOL0     C56630   5.225   8.995   1.184 -0.8032  0.9291 -0.0081
  420MOL0     C56631   4.881   9.135   1.880 -0.9550  0.4889  0.8813
  420MOL0     C56632   4.859   9.160   2.015  0.2907  0.0631  1.0293
  420MOL0     H56633   4.868   9.471   2.340  0.2061 -1.5251 -0.9227
  420MOL0     H56634   4.884   9.582   2.569  1.2148 -0.8449 -0.3687
  420MOL0     H56635   4.982   9.392   2.849  0.4655  0.5342  0.1682
  420MOL0     H56636   4.954   9.561   2.877  0.1911 -1.4482  0.8182
  420MOL0     H56637   4.826   9.314   3.001  0.7119 -0.6490 -0.8060
  420MOL0     H56638   4.955   9.402   3.079 -2.2341  1.3314  1.7728
  420MOL0     H56639   4.821   9.615   3.067 -0.4210 -1.2423 -1.4410
  420MOL0     H56640   4.675   9.517   3.035  0.5040 -1.2777 -0.8629
  420MOL0     H56641   4.735   9.377   3.232  1.6100 -0.2705  1.4444
  420MOL0     H56642   4.855   9.487   3.273  0.6852 -3.0580 -0.6091
  420MOL0     H56643   4.543   9.529   3.294  0.2692 -1.1146  1.6093
  420MOL0     H56644   4.689   9.574   3.403 -1.4366  0.8659  1.1814
  420MOL0     H56645   4.723   9.741   3.212  1.4186 -2.1479 -0.3513
  420MOL0     H56646   4.576   9.688   3.144 -1.7874 -0.2142  1.6577
  420MOL0     H56647   4.457   9.735   3.364  1.3982 -1.1590  0.8551
  420MOL0     H56648   4.605   9.819   3.415 -0.9972  0.0557  0.1362
  420MOL0     H56649   4.393   9.867   3.205  0.3974  1.4226 -1.8733
  420MOL0     H56650   4.563   9.919   3.163  1.3436 -0.4649  1.0134
  420MOL0     H56651   4.291  10.077   3.217 -1.3934 -1.2401  1.2329
  420MOL0     H56652   4.330  10.392   3.455 -0.6516  4.4055 -2.6194
  420MOL0     H56653   4.330  10.401   3.279  0.5377  0.4311 -1.1193
  420MOL0     H56654   4.126  10.239   3.417  0.2526 -1.0605 -0.7674
  420MOL0     H56655   4.138  10.279   3.248  2.0253 -2.0173  0.0317
  420MOL0     H56656   4.120  10.530   3.295 -0.5323 -0.1803 -0.5280
  420MOL0     H56657   4.101  10.490   3.466  0.9098 -1.4311 -0.1731
  420MOL0     H56658   3.888  10.354   3.373 -2.1130 -0.6220 -1.1453
  420MOL0     H56659   3.922  10.439   3.224 -1.9769  0.7556  0.1295
  420MOL0     H56660   3.740  10.737   3.520 -0.7969 -0.9412  2.4792
  420MOL0     H56661   3.412  10.849   3.534 -1.9052  0.0268  3.0663
  420MOL0     H56662   3.437  10.747   3.675 -0.7594 -2.5216 -1.6565
  420MOL0     H56663   3.565  10.866   3.602 -1.6850  3.1655 -3.3329
  420MOL0     H56664   3.117  10.252   3.418 -1.0483 -0.9363 -1.6366
  420MOL0     H56665   2.889  10.190   3.390  0.9940 -0.6405 -3.6445
  420MOL0     H56666   2.524  10.371   3.386  1.0022  1.2722 -0.2513
  420MOL0     H56667   2.635  10.507   3.388  0.8883 -0.4281  1.8190
  420MOL0     H56668   2.451  10.555   3.237 -4.0751 -2.7988 -1.1235
  420MOL0     H56669   2.593  10.523   3.127 -0.4362  0.5701 -0.3290
  420MOL0     H56670   2.464  10.273   3.148 -4.4853 -2.7711 -4.2282
  420MOL0     H56671   2.451  10.402   3.024  1.9214  1.4751  0.5330
  420MOL0     H56672   2.273  10.337   3.263 -1.2098 -1.5479 -0.2245
  420MOL0     H56673   2.263  10.495   3.187 -2.2284 -1.2129  1.5559
  420MOL0     H56674   2.189  10.390   2.966  3.0031 -0.4194  0.3792
  420MOL0     H56675   2.075  10.326   3.086 -0.1551  0.7583 -0.1439
  420MOL0     H56676   2.136  10.162   2.923 -2.5094  0.8410  1.9507
  420MOL0     H56677   2.305  10.213   2.925 -0.6599 -0.3618 -0.1709
  420MOL0     H56678   2.156  10.082   3.148  1.0431 -0.3931 -0.2300
  420MOL0     H56679   2.331  10.116   3.134 -0.1147  2.0265 -1.0256
  420MOL0     H56680   2.159   9.913   2.979  0.4691  0.7678 -3.3411
  420MOL0     H56681   2.299   9.876   3.088 -2.7801 -1.1710  1.2914
  420MOL0     H56682   2.805  10.570   3.219 -3.6422 -3.5236  1.1824
  420MOL0     H56683   3.044  10.648   3.252  0.1474 -0.3762 -2.3210
  420MOL0     H56684   3.447  10.397   3.313  0.1348  2.1939 -3.4836
  420MOL0     H56685   3.682  10.382   3.291 -2.6029  0.2661 -1.0911
  420MOL0     H56686   4.753   9.198   2.745  0.4114  1.8976  1.7390
  420MOL0     H56687   4.734   9.103   2.535 -4.6559  0.3206  0.1983
  420MOL0     H56688   4.662   8.906   2.095 -1.4195 -0.2103 -1.5722
  420MOL0     H56689   4.690   8.858   1.858 -0.0636 -0.4761 -0.0758
  420MOL0     H56690   4.902   8.806   1.655 -1.3372 -0.6071  0.3764
  420MOL0     H56691   4.726   8.831   1.660 -2.4814  3.4037  0.8225
  420MOL0     H56692   4.736   8.952   1.450 -0.7034 -0.3392  1.4128
  420MOL0     H56693   4.796   8.785   1.424 -4.2453  0.3624  2.6536
  420MOL0     H56694   5.031   8.867   1.466 -0.8071  2.1110  2.9954
  420MOL0     H56695   4.985   9.027   1.463  1.4015  1.2328 -1.4657
  420MOL0     H56696   4.907   9.007   1.211  0.2782  1.4761  1.0704
  420MOL0     H56697   4.926   8.840   1.219  0.4460 -0.9490 -0.3072
  420MOL0     H56698   5.326   9.015   1.153  1.0136 -4.5136  1.2502
  420MOL0     H56699   4.938   9.199   1.814  1.4349 -1.4254  0.9459
  420MOL0     H56700   4.902   9.250   2.059  0.4785  0.3644  0.2475
  421MOL0     O56701   7.448   6.654   7.769 -0.0991 -1.3771 -0.7091
  421MOL0     C56702   7.404   6.550   7.724 -1.2459 -0.6035 -0.1273
  421MOL0     O56703   7.276   6.507   7.713  0.3821  0.2040 -0.4702
  421MOL0     C56704   7.163   6.584   7.706 -0.3323 -0.3215  0.2199
  421MOL0     C56705   7.060   6.536   7.618 -0.3834 -0.2577 -0.5324
  421MOL0     C56706   6.932   6.589   7.635  1.0069 -0.2235  0.5877
  421MOL0     C56707   6.899   6.688   7.725 -0.2043  0.0411  1.0186
  421MOL0     O56708   6.769   6.736   7.740  0.4418  0.0933  0.0097
  421MOL0     C56709   6.721   6.731   7.875  0.8424 -0.2253 -0.0753
  421MOL0     C56710   6.563   6.763   7.878  0.4317  0.3011 -0.1333
  421MOL0     C56711   6.534   6.895   7.815  0.2631  0.8731 -0.5343
  421MOL0     C56712   6.383   6.912   7.802  0.1945 -0.4901  0.1372
  421MOL0     C56713   6.348   7.043   7.738 -0.7471 -0.2944  0.2529
  421MOL0     C56714   6.197   7.062   7.701  0.4195  0.2871 -1.4945
  421MOL0     C56715   6.171   7.023   7.561  0.8294 -0.4515  0.7180
  421MOL0     C56716   6.112   6.888   7.549  0.6897 -0.2316  0.4097
  421MOL0     N56717   6.070   6.851   7.414  0.4686 -0.1661  0.0804
  421MOL0     C56718   5.942   6.833   7.362 -0.6566  1.4252  1.1392
  421MOL0     C56719   5.964   6.831   7.224 -0.6057 -0.3263  0.0825
  421MOL0     C56720   5.847   6.813   7.129 -0.9990 -0.1180  0.5631
  421MOL0     C56721   5.722   6.906   7.167  0.8696  0.7314 -0.5672
  421MOL0     C56722   5.757   7.049   7.196 -0.2598  0.3282 -0.4483
  421MOL0     C56723   5.725   7.142   7.079 -0.0115  1.0283  0.0937
  421MOL0     O56724   5.582   7.169   7.086  0.0729  0.5530 -0.2190
  421MOL0     C56725   5.535   7.259   6.993 -0.6756 -0.1854  0.0288
  421MOL0     C56726   5.603   7.324   6.897  0.0831  0.6304 -0.4077
  421MOL0     C56727   5.535   7.415   6.811 -0.3833 -0.7585 -0.5340
  421MOL0     C56728   5.630   7.468   6.699 -0.3124  1.1197  0.4226
  421MOL0     C56729   5.400   7.451   6.835 -0.0846  0.0455 -0.8983
  421MOL0     C56730   5.337   7.558   6.754 -0.3771 -0.0825 -1.4244
  421MOL0     O56731   5.419   7.635   6.676 -0.1408  0.1561 -0.3284
  421MOL0     C56732   5.368   7.716   6.580  1.1989  0.3924 -0.0273
  421MOL0     C56733   5.251   7.694   6.506 -0.0718 -0.9241 -0.2358
  421MOL0     C56734   5.222   7.787   6.410 -0.1987 -0.4448 -0.7649
  421MOL0     C56735   5.315   7.888   6.366  0.1226 -0.0195  0.6367
  421MOL0     O56736   5.290   7.962   6.252  0.7662 -0.3745  0.6636
  421MOL0     C56737   5.176   8.059   6.258  0.6359  0.0688 -0.2791
  421MOL0     C56738   5.074   8.026   6.150  0.3502 -0.2907  0.3053
  421MOL0     C56739   4.963   8.136   6.128 -0.3825 -0.6347 -0.4163
  421MOL0     C56740   4.862   8.086   6.027  0.2578 -0.5836  1.1274
  421MOL0     C56741   4.750   8.186   6.012 -0.3767  0.0015 -0.2551
  421MOL0     C56742   4.787   8.304   5.918 -0.0476 -0.2695  0.1924
  421MOL0     C56743   4.675   8.405   5.923  0.4161  1.1404  0.0904
  421MOL0     C56744   4.666   8.506   5.812 -1.2782  0.2123  0.1415
  421MOL0    Cl56745   4.508   8.584   5.815  0.3147  0.5771  0.0516
  421MOL0     C56746   5.421   7.916   6.450 -0.0425  0.2506 -0.3993
  421MOL0     C56747   5.448   7.835   6.563  0.2664  0.1671  0.0077
  421MOL0     O56748   5.213   7.581   6.771 -0.0785  0.0996  0.2672
  421MOL0     C56749   5.325   7.380   6.934 -0.3060 -0.2353  0.9516
  421MOL0     C56750   5.396   7.279   7.002 -0.2998  0.0940  0.1311
  421MOL0     N56751   6.100   6.843   7.200  0.5744 -0.2879 -0.1112
  421MOL0     N56752   6.158   6.868   7.312 -0.6564  0.3295 -0.0869
  421MOL0     C56753   7.008   6.736   7.807  0.4583  0.1507  0.6585
  421MOL0     C56754   7.138   6.683   7.791  0.0314 -0.4424  0.3835
  421MOL0     C56755   7.508   6.443   7.679 -0.0562  0.2747  0.2531
  421MOL0     C56756   7.472   6.316   7.631  0.2174 -0.1003  0.0284
  421MOL0     C56757   7.567   6.220   7.591 -0.6472  0.1135  0.8862
  421MOL0     C56758   7.695   6.245   7.603 -0.9519  0.9185  0.1196
  421MOL0     O56759   7.770   6.145   7.551 -0.8823 -0.5504  0.9355
  421MOL0     C56760   7.923   6.154   7.563 -0.0181 -0.1946 -0.2843
  421MOL0     C56761   7.961   6.083   7.688 -0.1718 -0.8376 -0.0019
  421MOL0     C56762   8.114   6.056   7.691 -0.4161  0.6119 -0.5728
  421MOL0     C56763   8.137   5.925   7.771 -0.9031 -0.1467  0.0924
  421MOL0     C56764   8.273   5.880   7.753 -0.0897  0.4698 -0.8790
  421MOL0     C56765   8.391   5.844   7.736 -0.9195  0.0634 -0.2339
  421MOL0     C56766   7.739   6.365   7.647 -0.1122 -1.2250 -0.9099
  421MOL0     C56767   7.648   6.473   7.679  0.1349  0.5602 -0.5007
  421MOL0     H56768   7.064   6.443   7.562 -1.3264  0.3357 -1.6379
  421MOL0     H56769   6.856   6.536   7.578  1.1705 -1.6331  1.6104
  421MOL0     H56770   6.741   6.638   7.928 -0.7281 -1.0335 -0.8225
  421MOL0     H56771   6.769   6.815   7.927  1.4784  2.3944 -4.3836
  421MOL0     H56772   6.520   6.681   7.820  2.9173 -0.5195 -0.9615
  421MOL0     H56773   6.533   6.748   7.982  1.1219 -5.5952 -0.4154
  421MOL0     H56774   6.561   6.966   7.894  2.7662  0.4492 -0.9199
  421MOL0     H56775   6.588   6.917   7.722 -2.0265  3.1948 -1.4445
  421MOL0     H56776   6.336   6.836   7.740 -0.8191 -0.9482  1.4199
  421MOL0     H56777   6.326   6.911   7.896 -2.7555  0.7807 -1.5250
  421MOL0     H56778   6.391   7.128   7.792 -3.3949 -0.4521  2.8572
  421MOL0     H56779   6.394   7.045   7.639 -4.2553  1.6352 -1.5696
  421MOL0     H56780   6.127   7.019   7.773  1.7780 -0.2939 -0.4867
  421MOL0     H56781   6.179   7.170   7.711  0.6070  0.3619 -1.9467
  421MOL0     H56782   6.094   7.091   7.523 -0.3396 -1.3659  1.3859
  421MOL0     H56783   6.257   7.020   7.493  0.6652 -0.3263  0.5028
  421MOL0     H56784   6.017   6.891   7.601 -2.9815 -1.0740 -5.2941
  421MOL0     H56785   6.181   6.812   7.588 -1.2999 -3.6577 -2.1594
  421MOL0     H56786   5.846   6.824   7.412  0.2191  1.4971  2.9315
  421MOL0     H56787   5.880   6.850   7.031  1.1935 -2.4548  0.3435
  421MOL0     H56788   5.815   6.712   7.101  1.2126 -0.3711 -1.3340
  421MOL0     H56789   5.685   6.858   7.258 -0.8969 -0.4251 -1.8327
  421MOL0     H56790   5.641   6.893   7.095  1.7662 -4.3155 -1.0701
  421MOL0     H56791   5.864   7.058   7.216  0.6508  4.9386 -5.2618
  421MOL0     H56792   5.702   7.088   7.282  0.1487 -1.3531  0.6468
  421MOL0     H56793   5.748   7.106   6.978  2.8971  3.1474 -0.1363
  421MOL0     H56794   5.785   7.234   7.076  1.7955 -0.0986  0.1111
  421MOL0     H56795   5.709   7.300   6.886 -0.3525 -2.5733  1.0906
  421MOL0     H56796   5.574   7.485   6.606  0.9539  3.1891 -0.0127
  421MOL0     H56797   5.683   7.558   6.730  1.2856  0.9656 -1.6448
  421MOL0     H56798   5.707   7.394   6.678 -0.8763  0.9576 -1.2452
  421MOL0     H56799   5.188   7.608   6.529  1.1109 -1.9204 -0.6642
  421MOL0     H56800   5.134   7.775   6.347 -0.8992 -0.2524  0.1570
  421MOL0     H56801   5.119   8.065   6.352  0.6530 -1.3000 -0.1489
  421MOL0     H56802   5.214   8.161   6.256  0.6160  0.5411  5.3657
  421MOL0     H56803   5.136   8.026   6.060 -0.6850 -0.6894 -0.4322
  421MOL0     H56804   5.031   7.925   6.150 -2.5592  0.8323 -0.9345
  421MOL0     H56805   4.999   8.229   6.083 -3.4163  1.4932  1.1443
  421MOL0     H56806   4.915   8.157   6.224 -2.1561 -3.0932 -0.6379
  421MOL0     H56807   4.912   8.073   5.931  1.3069  3.5895  0.8915
  421MOL0     H56808   4.819   7.993   6.065 -1.3874  0.4311  1.8683
  421MOL0     H56809   4.711   8.220   6.108 -2.2967 -2.6578  0.0392
  421MOL0     H56810   4.669   8.124   5.971  1.4112 -3.7027  1.4406
  421MOL0     H56811   4.876   8.360   5.947  1.3463 -2.6584  0.7987
  421MOL0     H56812   4.809   8.263   5.819 -2.2919  1.0144 -0.9192
  421MOL0     H56813   4.678   8.452   6.021  0.5212  1.4389 -0.0542
  421MOL0     H56814   4.582   8.348   5.925  0.9776  0.1569 -0.8584
  421MOL0     H56815   4.681   8.460   5.714  4.1669  0.7594  0.4332
  421MOL0     H56816   4.747   8.580   5.805  1.5278 -2.8313 -3.9926
  421MOL0     H56817   5.489   7.999   6.440  1.7028 -1.3033 -2.2510
  421MOL0     H56818   5.525   7.864   6.634 -0.3639  1.1587  0.3074
  421MOL0     H56819   5.224   7.400   6.968  0.2161  0.9636  1.8254
  421MOL0     H56820   5.329   7.234   7.076  0.8132 -0.4719  0.8301
  421MOL0     H56821   6.987   6.811   7.882 -1.8897  0.1375  0.0837
  421MOL0     H56822   7.210   6.721   7.862  1.3934 -0.7624 -0.7618
  421MOL0     H56823   7.365   6.300   7.622 -0.0659  2.0195 -1.2107
  421MOL0     H56824   7.538   6.125   7.548  0.4708 -0.2455  0.8994
  421MOL0     H56825   7.941   6.101   7.469 -3.2608 -0.0473 -1.1153
  421MOL0     H56826   7.955   6.258   7.561 -1.0966  0.2013  1.3823
  421MOL0     H56827   7.904   5.990   7.694  0.4962 -1.1740  1.4074
  421MOL0     H56828   7.930   6.152   7.767 -0.0982  0.5738 -1.1561
  421MOL0     H56829   8.171   6.145   7.719 -1.2069  1.4131 -1.4213
  421MOL0     H56830   8.133   6.020   7.590 -2.2912 -0.4678 -0.5869
  421MOL0     H56831   8.076   5.840   7.739 -0.1138 -0.8202  0.3536
  421MOL0     H56832   8.114   5.942   7.877 -1.5119 -0.9151  0.0926
  421MOL0     H56833   8.496   5.823   7.727 -0.7121  1.1985 -0.7168
  421MOL0     H56834   7.844   6.394   7.653 -1.0703  3.1137 -1.7353
  421MOL0     H56835   7.683   6.575   7.696  0.3873  0.6252 -1.3716
  422MOL0     O56836   4.526  10.835   9.934 -0.1541  0.4331  0.3619
  422MOL0     C56837   4.606  10.779   9.862 -0.3584  1.4432 -0.6818
  422MOL0     O56838   4.573  10.701   9.747 -0.4614  0.6902  0.0439
  422MOL0     C56839   4.442  10.682   9.709 -0.1175  0.4048 -0.9595
  422MOL0     C56840   4.377  10.567   9.748 -0.3121  0.5351 -0.4983
  422MOL0     C56841   4.243  10.545   9.731  0.0950 -0.3327  0.3509
  422MOL0     C56842   4.166  10.634   9.659  0.0254  1.0939 -0.0754
  422MOL0     O56843   4.029  10.619   9.634 -0.5028  0.0039  0.3579
  422MOL0     C56844   3.950  10.620   9.748  0.4945 -0.3157 -0.2761
  422MOL0     C56845   3.819  10.690   9.732 -0.2572 -0.1630  0.0097
  422MOL0     C56846   3.720  10.617   9.635 -0.9100  0.2212 -0.4140
  422MOL0     C56847   3.661  10.490   9.695 -0.1809  0.0618  0.1309
  422MOL0     C56848   3.555  10.430   9.603  1.4199  0.5056 -1.2011
  422MOL0     C56849   3.492  10.299   9.654 -0.2873  0.4621 -0.2078
  422MOL0     C56850   3.385  10.251   9.543 -0.1563  0.4414 -0.0228
  422MOL0     C56851   3.296  10.138   9.612  0.4473  0.8840  0.0623
  422MOL0     N56852   3.211  10.186   9.715  0.4413  0.2409 -0.1991
  422MOL0     C56853   3.156  10.308   9.734 -0.0637 -0.2285  0.3781
  422MOL0     C56854   3.054  10.273   9.818 -1.1250 -1.0833  0.5717
  422MOL0     C56855   2.967  10.355   9.890  0.7567 -0.1962 -0.2337
  422MOL0     C56856   3.044  10.434   9.988  0.0906  0.0127  0.1768
  422MOL0     C56857   2.954  10.525  10.067 -0.4975  0.0124  0.1086
  422MOL0     C56858   2.875  10.457  10.182  0.7672  0.1594  0.4628
  422MOL0     O56859   2.813  10.545  10.269  0.8807  0.3831 -0.7400
  422MOL0     C56860   2.693  10.600  10.235  0.3787 -0.4594 -0.3453
  422MOL0     C56861   2.621  10.588  10.111  0.2396 -0.2880  0.6373
  422MOL0     C56862   2.493  10.664  10.091 -0.5471 -0.1782  0.4168
  422MOL0     C56863   2.415  10.630   9.961 -0.9013 -0.7262  0.0447
  422MOL0     C56864   2.450  10.752  10.195  0.2583 -0.5155  1.0074
  422MOL0     C56865   2.324  10.826  10.189 -0.7644 -0.1696 -0.2028
  422MOL0     O56866   2.265  10.850  10.069  0.6139  0.0962  0.8762
  422MOL0     C56867   2.139  10.902  10.051  0.1549  1.1941 -0.1248
  422MOL0     C56868   2.077  11.000  10.131 -0.4468 -0.9138  0.7341
  422MOL0     C56869   1.945  11.030  10.092 -0.4738  1.1517 -0.1691
  422MOL0     C56870   1.884  10.990   9.974  0.4638  0.0936 -0.4570
  422MOL0     O56871   1.755  11.035   9.951  0.2649  0.5174 -0.7509
  422MOL0     C56872   1.688  10.980   9.839 -0.0044  0.0899  0.4734
  422MOL0     C56873   1.540  11.003   9.849 -0.3389  0.3598  0.4688
  422MOL0     C56874   1.486  10.987   9.708 -0.8735  0.7573 -0.4766
  422MOL0     C56875   1.360  10.891   9.687  0.9820 -0.5713 -0.1064
  422MOL0     C56876   1.299  10.902   9.552 -0.0762  1.1110  0.1326
  422MOL0     C56877   1.212  11.023   9.524 -0.3941  0.9423 -0.9534
  422MOL0     C56878   1.078  11.034   9.591  0.2821  0.6900 -0.7057
  422MOL0     C56879   0.973  10.939   9.521  0.0593  0.2614 -0.0009
  422MOL0    Cl56880   0.803  10.963   9.597  0.1126  0.4876  0.3157
  422MOL0     C56881   1.960  10.911   9.883  0.3176  0.3551 -0.9123
  422MOL0     C56882   2.085  10.866   9.921  0.0240 -0.0097  0.2634
  422MOL0     O56883   2.292  10.873  10.302 -0.2355 -0.3042  0.0457
  422MOL0     C56884   2.536  10.769  10.309 -0.5268  0.2394  0.8456
  422MOL0     C56885   2.648  10.684  10.340  0.9516 -0.1629  0.4180
  422MOL0     N56886   3.058  10.142   9.850  0.0713  0.6800  0.1218
  422MOL0     N56887   3.160  10.094   9.801 -0.2098 -0.0997 -0.3505
  422MOL0     C56888   4.232  10.745   9.615 -0.5526 -0.3229 -0.4244
  422MOL0     C56889   4.368  10.777   9.647  0.3417 -0.4687  0.2220
  422MOL0     C56890   4.746  10.784   9.906 -0.3102 -0.6441  0.2952
  422MOL0     C56891   4.833  10.688   9.851 -0.5214 -0.4122 -0.0528
  422MOL0     C56892   4.958  10.664   9.913 -0.2966  0.3200 -0.2273
  422MOL0     C56893   5.004  10.756  10.005 -0.0192  0.9964  0.6094
  422MOL0     O56894   5.129  10.753  10.069 -0.3053 -0.3410  0.2480
  422MOL0     C56895   5.258  10.754  10.008 -0.0316 -0.1648  0.4552
  422MOL0     C56896   5.356  10.816  10.089 -0.0968 -0.9336 -0.0946
  422MOL0     C56897   5.495  10.795  10.037 -0.6484  0.6417  0.8891
  422MOL0     C56898   5.602  10.889  10.124  1.0970  0.0089  0.6241
  422MOL0     C56899   5.610  11.012  10.044  0.5167  0.5013  0.2699
  422MOL0     C56900   5.641  11.110   9.972 -0.2743 -0.5212  0.4631
  422MOL0     C56901   4.924  10.859  10.040  0.0202  0.8273  0.2814
  422MOL0     C56902   4.790  10.865  10.013  0.3495 -0.1258  0.3400
  422MOL0     H56903   4.436  10.497   9.807 -2.2901 -0.1614  0.7723
  422MOL0     H56904   4.198  10.454   9.768  1.7983 -0.3759  2.5391
  422MOL0     H56905   3.930  10.514   9.768  1.5575 -0.5786 -0.5142
  422MOL0     H56906   4.008  10.664   9.830  3.1969  0.9450 -2.6669
  422MOL0     H56907   3.772  10.701   9.830  0.9524 -1.4413  0.7769
  422MOL0     H56908   3.830  10.789   9.687 -1.2644 -0.2486 -0.4433
  422MOL0     H56909   3.635  10.685   9.635  0.4455  2.0017  0.9617
  422MOL0     H56910   3.764  10.590   9.539 -0.1807 -0.5388  0.1129
  422MOL0     H56911   3.744  10.420   9.707 -0.8928 -0.6025  1.3106
  422MOL0     H56912   3.629  10.513   9.797 -1.6394 -0.7010 -0.1139
  422MOL0     H56913   3.485  10.504   9.564 -0.1424  0.3586  1.1311
  422MOL0     H56914   3.604  10.391   9.513  1.2819  1.0456 -1.5180
  422MOL0     H56915   3.569  10.222   9.663 -1.5990 -1.1804 -1.9725
  422MOL0     H56916   3.451  10.321   9.753  3.9401 -0.4579  1.9524
  422MOL0     H56917   3.319  10.329   9.503 -2.1487  0.1601  2.4757
  422MOL0     H56918   3.442  10.197   9.466 -1.0845  0.3518 -0.6752
  422MOL0     H56919   3.359  10.062   9.659 -0.1795  0.6100  0.4736
  422MOL0     H56920   3.227  10.109   9.532  0.7587  0.1810  0.0435
  422MOL0     H56921   3.181  10.405   9.693  0.6556 -1.7402 -3.1522
  422MOL0     H56922   2.917  10.425   9.822  1.2852 -1.9922 -2.6212
  422MOL0     H56923   2.884  10.301   9.936 -1.3575  1.2515 -2.1168
  422MOL0     H56924   3.110  10.502   9.935 -2.3742  1.9174 -0.6470
  422MOL0     H56925   3.105  10.380  10.061  1.0374  2.0478  0.9482
  422MOL0     H56926   2.882  10.587  10.013  2.2493  3.4109 -0.0098
  422MOL0     H56927   3.023  10.600  10.107  0.3475 -1.0669  0.7230
  422MOL0     H56928   2.933  10.390  10.247 -1.7797 -0.2740  2.4669
  422MOL0     H56929   2.795  10.395  10.142 -0.8765  1.5617  1.4800
  422MOL0     H56930   2.661  10.513  10.045  2.6059 -0.8830  2.6128
  422MOL0     H56931   2.312  10.599   9.978 -1.5081  1.2292  0.1452
  422MOL0     H56932   2.410  10.725   9.906  3.1003 -0.7414 -0.6979
  422MOL0     H56933   2.463  10.555   9.897  0.4487  0.4033 -0.3283
  422MOL0     H56934   2.119  11.049  10.218  0.9626 -1.1094  0.1890
  422MOL0     H56935   1.892  11.111  10.141 -1.9185 -1.7373  3.4768
  422MOL0     H56936   1.728  11.038   9.755 -1.1050  3.0650  1.8566
  422MOL0     H56937   1.694  10.871   9.851 -1.7993 -0.0190  0.5523
  422MOL0     H56938   1.508  10.941   9.933  0.8024  1.4366  1.7566
  422MOL0     H56939   1.520  11.099   9.898 -1.7451 -1.1349  3.0870
  422MOL0     H56940   1.564  10.945   9.644  2.1457  1.5529  2.3494
  422MOL0     H56941   1.468  11.086   9.667 -2.0790 -0.0052 -1.8564
  422MOL0     H56942   1.399  10.790   9.697  1.3967 -0.6116 -1.7383
  422MOL0     H56943   1.287  10.906   9.767 -1.0033 -2.2927 -1.4801
  422MOL0     H56944   1.252  10.806   9.530  1.4053 -0.7612  4.1163
  422MOL0     H56945   1.379  10.888   9.479 -3.6369  0.9987 -4.1128
  422MOL0     H56946   1.276  11.111   9.539  2.3809 -0.3241 -3.9861
  422MOL0     H56947   1.188  11.025   9.417 -2.2793  0.7936 -0.5623
  422MOL0     H56948   1.048  11.139   9.582  1.1814  0.7747 -3.6522
  422MOL0     H56949   1.074  11.012   9.698 -2.1395  0.3166 -0.8255
  422MOL0     H56950   1.015  10.838   9.517  1.9484  1.0283 -1.1082
  422MOL0     H56951   0.960  10.978   9.419 -3.5654 -1.0857 -0.1954
  422MOL0     H56952   1.920  10.880   9.787 -0.4679 -5.4839  0.9260
  422MOL0     H56953   2.149  10.797   9.867  2.4315  1.8137  0.5781
  422MOL0     H56954   2.508  10.854  10.371 -0.0064 -0.6036  2.3023
  422MOL0     H56955   2.707  10.705  10.429  1.4615 -1.0569  0.2956
  422MOL0     H56956   4.169  10.810   9.555 -1.3557  0.0893  0.8172
  422MOL0     H56957   4.404  10.878   9.632 -1.4022  0.3402  1.1058
  422MOL0     H56958   4.806  10.622   9.770  1.0278 -0.9490 -0.1725
  422MOL0     H56959   5.018  10.584   9.872  0.1780  0.7795 -0.4299
  422MOL0     H56960   5.290  10.658   9.967  1.2776  1.1250 -1.6693
  422MOL0     H56961   5.257  10.822   9.923 -1.2003 -1.1970 -0.3895
  422MOL0     H56962   5.339  10.774  10.189  1.6058 -2.5421 -0.4198
  422MOL0     H56963   5.341  10.924  10.091  2.8045 -0.4386 -0.3554
  422MOL0     H56964   5.494  10.815   9.929  2.3984 -3.1825 -0.0899
  422MOL0     H56965   5.519  10.689  10.049 -2.1340  0.1694 -0.0163
  422MOL0     H56966   5.700  10.847  10.145  1.5678  0.3890 -0.6793
  422MOL0     H56967   5.554  10.917  10.218  0.2950  2.5649 -0.4390
  422MOL0     H56968   5.672  11.196   9.915 -2.5118  2.0809  2.9058
  422MOL0     H56969   4.967  10.934  10.105  1.5115  0.3277 -0.0925
  422MOL0     H56970   4.728  10.935  10.068  2.7423  0.5055  2.4604
  423MOL0     O56971   2.814   8.890   4.356  0.1627 -0.3007 -0.3467
  423MOL0     C56972   2.895   8.964   4.403 -0.3820  0.1317  0.5232
  423MOL0     O56973   2.870   9.082   4.468 -0.1677 -0.7338  0.7542
  423MOL0     C56974   2.751   9.097   4.530 -0.3839 -1.0481 -0.0531
  423MOL0     C56975   2.676   9.205   4.490 -0.8588  0.9506 -0.1813
  423MOL0     C56976   2.563   9.248   4.560  0.1055  0.4551  0.5741
  423MOL0     C56977   2.513   9.175   4.666  0.1929  0.3140 -0.6034
  423MOL0     O56978   2.406   9.209   4.751  0.3675 -0.8119  0.3998
  423MOL0     C56979   2.393   9.352   4.773  0.1807 -0.0841 -0.0660
  423MOL0     C56980   2.376   9.385   4.919 -1.2760  1.2353 -0.0440
  423MOL0     C56981   2.292   9.508   4.945  0.3276  0.6143 -0.4352
  423MOL0     C56982   2.367   9.636   4.905 -0.3307  0.1703 -0.4060
  423MOL0     C56983   2.287   9.769   4.906  0.0315  0.1122 -0.4403
  423MOL0     C56984   2.239   9.796   5.053 -0.4811 -0.0089 -0.6607
  423MOL0     C56985   2.152   9.910   5.072 -0.8744 -0.9324 -0.9404
  423MOL0     C56986   1.999   9.885   5.043 -0.5413 -0.1808  0.8473
  423MOL0     N56987   1.942   9.793   5.140  0.1666  0.7814 -0.3531
  423MOL0     C56988   1.939   9.816   5.276  0.3989 -0.5256 -0.5269
  423MOL0     C56989   1.883   9.696   5.328 -0.0297 -0.5606  0.1253
  423MOL0     C56990   1.855   9.659   5.468 -0.1239  0.4296 -0.1609
  423MOL0     C56991   1.706   9.622   5.498  1.1919  0.0419 -0.3662
  423MOL0     C56992   1.689   9.559   5.639  0.2073 -0.7170  0.6381
  423MOL0     C56993   1.541   9.521   5.667 -0.4168 -0.3981 -0.7877
  423MOL0     O56994   1.451   9.620   5.639 -0.3931  0.0691  0.5502
  423MOL0     C56995   1.318   9.595   5.647  0.3993 -0.1423  0.6875
  423MOL0     C56996   1.264   9.479   5.701  0.2155  0.0986  0.0797
  423MOL0     C56997   1.126   9.455   5.686  0.7544 -0.3358 -0.2586
  423MOL0     C56998   1.081   9.312   5.697 -0.0996  0.1018 -0.7052
  423MOL0     C56999   1.038   9.559   5.646  0.5895  0.1144  0.6531
  423MOL0     C57000   0.892   9.548   5.651  0.3637  0.1099 -1.6484
  423MOL0     O57001   0.843   9.445   5.734 -0.0650 -0.5977  0.1193
  423MOL0     C57002   0.719   9.399   5.727  0.7740 -1.1043 -0.1951
  423MOL0     C57003   0.673   9.329   5.832  0.8853  0.4418 -0.7786
  423MOL0     C57004   0.540   9.288   5.841  0.1660 -0.9437  0.4511
  423MOL0     C57005   0.450   9.306   5.734  0.6588  0.1822  0.1480
  423MOL0     O57006   0.321   9.267   5.749  1.2423 -0.4944 -0.2902
  423MOL0     C57007   0.224   9.272   5.640 -0.8407 -0.1378 -0.0660
  423MOL0     C57008   0.084   9.266   5.704  0.4067  0.1827 -0.2991
  423MOL0     C57009  -0.009   9.185   5.608  0.6155  0.0607 -0.6621
  423MOL0     C57010  -0.122   9.129   5.702 -0.5325  0.4393 -0.6482
  423MOL0     C57011  -0.245   9.081   5.625 -0.1728  0.2839  0.4614
  423MOL0     C57012  -0.355   9.023   5.715  0.5228 -0.5929 -1.2847
  423MOL0     C57013  -0.401   9.136   5.803  1.0910 -1.1365 -0.0215
  423MOL0     C57014  -0.542   9.126   5.850  0.6293 -0.1346 -0.6898
  423MOL0    Cl57015  -0.652   9.169   5.718 -0.3205  0.1537 -0.5263
  423MOL0     C57016   0.504   9.358   5.623  0.4460 -0.5231 -0.3330
  423MOL0     C57017   0.633   9.408   5.616  0.9510  1.1674  0.5228
  423MOL0     O57018   0.824   9.633   5.592 -0.7601 -0.3714  0.4496
  423MOL0     C57019   1.095   9.685   5.612 -0.0067 -0.3876 -0.7056
  423MOL0     C57020   1.233   9.696   5.607 -0.3390 -0.3858  0.1544
  423MOL0     N57021   1.845   9.611   5.228 -0.0150 -0.2050 -0.8069
  423MOL0     N57022   1.889   9.668   5.118 -0.1763  0.8613  0.2146
  423MOL0     C57023   2.577   9.051   4.693 -0.2503  0.8055 -0.5860
  423MOL0     C57024   2.697   9.015   4.631 -0.5981 -0.6911  0.1742
  423MOL0     C57025   3.037   8.914   4.376 -0.1041  0.1353 -0.4778
  423MOL0     C57026   3.062   8.801   4.297  0.1279  0.0998  0.1731
  423MOL0     C57027   3.190   8.757   4.273 -0.0099  0.4401  0.1086
  423MOL0     C57028   3.302   8.819   4.327 -0.8093  0.4217  1.1342
  423MOL0     O57029   3.431   8.763   4.302  0.0816  0.0727  0.4453
  423MOL0     C57030   3.549   8.841   4.338 -0.2120  0.1858  0.3469
  423MOL0     C57031   3.566   8.978   4.249  0.2127 -0.3065 -0.2849
  423MOL0     C57032   3.565   8.942   4.098 -0.0671  0.8026 -0.0170
  423MOL0     C57033   3.549   9.071   4.017  0.5184  0.0773  0.5424
  423MOL0     C57034   3.421   9.058   3.950 -0.0192  0.1368  0.4144
  423MOL0     C57035   3.306   9.074   3.919  0.0788 -0.0781  0.1744
  423MOL0     C57036   3.273   8.931   4.406 -0.0272  0.8049 -0.1732
  423MOL0     C57037   3.154   8.985   4.425  0.0137 -0.1145  0.2233
  423MOL0     H57038   2.711   9.270   4.410  0.2362  1.4079  0.6559
  423MOL0     H57039   2.518   9.345   4.539  1.9055  1.2544  0.1815
  423MOL0     H57040   2.471   9.417   4.732 -0.2302  0.4373 -0.0428
  423MOL0     H57041   2.295   9.384   4.737  0.7654  3.1782  0.8643
  423MOL0     H57042   2.340   9.297   4.972  1.3909  0.5058  0.6923
  423MOL0     H57043   2.471   9.402   4.970 -2.1421  1.9598  1.4251
  423MOL0     H57044   2.196   9.504   4.894  1.2672  0.1310 -2.2434
  423MOL0     H57045   2.265   9.503   5.051 -2.8262 -1.0025 -1.1971
  423MOL0     H57046   2.443   9.654   4.981  0.6240  2.6900 -1.8392
  423MOL0     H57047   2.423   9.629   4.812 -2.0121 -3.6937 -1.3309
  423MOL0     H57048   2.339   9.857   4.868  1.2162 -0.5483 -0.4156
  423MOL0     H57049   2.197   9.749   4.848 -0.5602 -3.5282  1.3851
  423MOL0     H57050   2.192   9.707   5.095 -0.1779  0.0932 -0.1004
  423MOL0     H57051   2.330   9.822   5.107 -0.7007 -1.6031  0.5606
  423MOL0     H57052   2.170   9.948   5.173  2.9249 -1.9122 -1.1179
  423MOL0     H57053   2.185   9.988   5.003  3.7641 -2.2946 -0.5765
  423MOL0     H57054   1.990   9.842   4.943 -1.7060  0.9792  0.4189
  423MOL0     H57055   1.953   9.984   5.052  0.4397  0.2625  1.1941
  423MOL0     H57056   1.961   9.903   5.337 -2.0334 -0.5309  0.4957
  423MOL0     H57057   1.922   9.580   5.504  1.3491  1.8017  0.1994
  423MOL0     H57058   1.864   9.753   5.523 -2.1014  0.2264  0.6181
  423MOL0     H57059   1.677   9.547   5.425 -1.8554 -1.4167  2.1087
  423MOL0     H57060   1.645   9.713   5.489  3.1563  1.4890  0.1738
  423MOL0     H57061   1.726   9.623   5.720 -0.7369  0.6838  0.0077
  423MOL0     H57062   1.745   9.465   5.645 -1.0160 -1.7831 -2.5308
  423MOL0     H57063   1.533   9.476   5.767  1.5974 -1.6860 -1.1466
  423MOL0     H57064   1.523   9.434   5.603 -0.7922 -2.1060  1.5118
  423MOL0     H57065   1.328   9.399   5.736  2.0310 -0.0869 -3.3087
  423MOL0     H57066   1.168   9.247   5.702 -0.5187 -0.3467  2.0111
  423MOL0     H57067   1.022   9.297   5.788 -1.8017  1.1170 -1.5904
  423MOL0     H57068   1.016   9.293   5.611 -0.9834  2.3775 -0.6223
  423MOL0     H57069   0.740   9.320   5.917 -0.6691  1.2105  0.5967
  423MOL0     H57070   0.503   9.250   5.936 -0.5758 -0.2712  0.4482
  423MOL0     H57071   0.242   9.362   5.580 -0.9425 -1.3492 -1.9862
  423MOL0     H57072   0.237   9.183   5.579 -1.9619 -0.8979  0.7562
  423MOL0     H57073   0.101   9.225   5.803  0.6852  0.5019 -0.2130
  423MOL0     H57074   0.046   9.366   5.727  0.2453  0.4466 -1.6125
  423MOL0     H57075   0.038   9.098   5.562 -1.9314 -0.7846 -1.8606
  423MOL0     H57076  -0.049   9.251   5.530 -0.0710 -1.0384 -1.2607
  423MOL0     H57077  -0.078   9.041   5.750  0.1077  1.1104  0.0395
  423MOL0     H57078  -0.146   9.208   5.774 -1.6177  0.8578 -1.4342
  423MOL0     H57079  -0.218   9.002   5.554 -1.1571 -0.0620  0.4595
  423MOL0     H57080  -0.284   9.156   5.556  1.0640 -0.7253 -1.4099
  423MOL0     H57081  -0.436   8.975   5.659 -2.0855  0.8136  1.0437
  423MOL0     H57082  -0.308   8.950   5.781  0.0768 -2.8234 -3.2663
  423MOL0     H57083  -0.387   9.230   5.749  0.0277  1.7629  4.2224
  423MOL0     H57084  -0.338   9.148   5.892 -0.3793 -0.4733  0.9627
  423MOL0     H57085  -0.553   9.184   5.941 -1.2321  0.8520 -1.4915
  423MOL0     H57086  -0.572   9.023   5.872 -0.2965 -0.4893 -3.2348
  423MOL0     H57087   0.442   9.360   5.535  0.6636  1.3366 -0.4803
  423MOL0     H57088   0.662   9.445   5.518  4.0625 -1.3556  0.3412
  423MOL0     H57089   1.031   9.768   5.586  2.9551  1.9164 -1.1997
  423MOL0     H57090   1.273   9.789   5.566  0.0854 -0.7659 -0.3171
  423MOL0     H57091   2.524   8.996   4.769  1.2907 -1.1875 -0.8708
  423MOL0     H57092   2.740   8.920   4.661 -0.2850 -0.2817  1.0898
  423MOL0     H57093   2.982   8.733   4.269  1.0757 -1.7226  1.6368
  423MOL0     H57094   3.200   8.665   4.217  0.4549  1.3375 -1.3451
  423MOL0     H57095   3.547   8.872   4.443  2.6387  3.6539 -0.4314
  423MOL0     H57096   3.645   8.789   4.337  1.6714  3.1284  3.7609
  423MOL0     H57097   3.668   9.008   4.274  1.3055 -3.6191 -0.2750
  423MOL0     H57098   3.496   9.060   4.265  1.9054  0.7392  2.3689
  423MOL0     H57099   3.493   8.861   4.084 -0.3101  1.1844 -1.1130
  423MOL0     H57100   3.661   8.894   4.073 -0.1716  0.7044 -0.2281
  423MOL0     H57101   3.632   9.087   3.947 -1.7445  2.5412 -1.8085
  423MOL0     H57102   3.543   9.156   4.085 -3.9632  1.9274 -1.7484
  423MOL0     H57103   3.204   9.087   3.890  0.7047 -1.0757 -2.7892
  423MOL0     H57104   3.352   8.992   4.448  0.0390  0.1700  0.6519
  423MOL0     H57105   3.148   9.080   4.477  0.3024 -1.1098  2.1466
  424MOL0     O57106   6.399  10.411   3.738  0.1715 -0.6506 -0.8117
  424MOL0     C57107   6.447  10.426   3.627 -0.4005 -0.7443  0.3082
  424MOL0     O57108   6.405  10.522   3.536 -0.3710  0.4975  0.5254
  424MOL0     C57109   6.293  10.596   3.562 -0.2603 -1.0831  0.2692
  424MOL0     C57110   6.281  10.672   3.679  0.6608  0.2801 -0.4854
  424MOL0     C57111   6.169  10.744   3.706  0.9039 -0.2959 -0.0546
  424MOL0     C57112   6.064  10.748   3.608 -1.2704 -0.5711  0.5761
  424MOL0     O57113   5.946  10.819   3.650 -0.8736  0.2861 -0.0016
  424MOL0     C57114   5.922  10.934   3.578  1.4971 -0.8022  0.2595
  424MOL0     C57115   5.974  11.053   3.655  0.2458 -0.2819  0.0916
  424MOL0     C57116   5.940  11.173   3.576  0.5622 -0.1701  0.2865
  424MOL0     C57117   5.993  11.292   3.656 -0.0894 -1.1216 -0.0848
  424MOL0     C57118   5.888  11.406   3.633  0.9511  0.3844 -0.0831
  424MOL0     C57119   5.910  11.532   3.724  0.5141  0.1599 -0.3967
  424MOL0     C57120   5.913  11.515   3.879 -0.7052  0.7118  0.7664
  424MOL0     C57121   5.774  11.497   3.937 -0.7408  0.1771  0.6920
  424MOL0     N57122   5.795  11.440   4.063 -0.0212  0.7131 -0.7075
  424MOL0     C57123   5.784  11.310   4.098 -0.6367  0.8647 -1.1105
  424MOL0     C57124   5.866  11.287   4.208 -0.0540  0.0996 -0.8088
  424MOL0     C57125   5.891  11.146   4.265  0.9995 -0.6069 -0.2199
  424MOL0     C57126   6.017  11.088   4.210  0.6857 -0.2266 -0.1279
  424MOL0     C57127   6.131  11.118   4.299 -0.8285  0.3690  0.7203
  424MOL0     C57128   6.266  11.129   4.216 -0.2533 -0.0453 -0.0348
  424MOL0     O57129   6.372  11.190   4.287  0.0464  0.7270  0.2212
  424MOL0     C57130   6.356  11.323   4.334 -0.3411  0.2027 -0.1920
  424MOL0     C57131   6.310  11.427   4.251  0.6122 -0.6125 -0.0260
  424MOL0     C57132   6.300  11.558   4.311 -0.7711 -0.4732 -0.1790
  424MOL0     C57133   6.245  11.671   4.229  0.6783  0.9247  0.8366
  424MOL0     C57134   6.339  11.580   4.439 -0.9899  0.0661  0.1654
  424MOL0     C57135   6.342  11.707   4.500 -0.2517  0.4074  0.7531
  424MOL0     O57136   6.461  11.777   4.492  0.5738  0.2420  0.2746
  424MOL0     C57137   6.481  11.895   4.562  0.8753 -0.1753  0.0195
  424MOL0     C57138   6.401  11.953   4.663  0.1397  0.5913  0.4773
  424MOL0     C57139   6.433  12.083   4.706 -0.4271  0.0755  0.2839
  424MOL0     C57140   6.546  12.149   4.657 -0.7700 -0.2513 -0.1244
  424MOL0     O57141   6.598  12.271   4.691  1.0241 -0.2336 -0.1746
  424MOL0     C57142   6.563  12.321   4.826  0.1476 -0.9064 -0.0314
  424MOL0     C57143   6.602  12.473   4.830  0.2070  0.4709 -0.1230
  424MOL0     C57144   6.563  12.534   4.966 -0.8311 -0.2247  0.2417
  424MOL0     C57145   6.668  12.486   5.072  0.3682 -0.6229 -0.3483
  424MOL0     C57146   6.669  12.565   5.200 -1.0213 -0.0183 -0.2160
  424MOL0     C57147   6.727  12.502   5.322 -0.0683 -1.0405  0.3021
  424MOL0     C57148   6.876  12.516   5.329 -0.6925 -1.0242 -0.0558
  424MOL0     C57149   6.933  12.430   5.441 -0.0249 -0.1859 -0.5702
  424MOL0    Cl57150   7.097  12.383   5.435  0.4803 -0.2911 -0.1785
  424MOL0     C57151   6.620  12.089   4.556  0.7482 -0.4443  0.7268
  424MOL0     C57152   6.586  11.972   4.503 -0.2597  0.1321 -0.4418
  424MOL0     O57153   6.240  11.758   4.536  0.0650 -0.1595 -0.1026
  424MOL0     C57154   6.392  11.476   4.508 -1.0531 -0.7478 -0.3132
  424MOL0     C57155   6.407  11.346   4.456  0.4381  0.9684 -0.8591
  424MOL0     N57156   5.916  11.411   4.242 -0.6009 -0.2381 -1.0376
  424MOL0     N57157   5.886  11.496   4.157 -0.0017 -0.2677  0.3245
  424MOL0     C57158   6.085  10.684   3.481  0.2757  0.0368 -0.1436
  424MOL0     C57159   6.199  10.615   3.459  0.3905 -0.1148 -0.0099
  424MOL0     C57160   6.541  10.328   3.584 -0.5077 -0.5725  0.5948
  424MOL0     C57161   6.611  10.357   3.466 -0.5305  0.2651  0.5575
  424MOL0     C57162   6.708  10.270   3.421  0.6493  0.3196 -0.0690
  424MOL0     C57163   6.737  10.153   3.489  0.2260 -0.8465 -0.0588
  424MOL0     O57164   6.825  10.052   3.446 -0.0544 -0.0384 -0.3624
  424MOL0     C57165   6.901  10.065   3.327 -0.8270  0.1365  0.4523
  424MOL0     C57166   6.961   9.939   3.272 -0.1421 -1.5625  0.2721
  424MOL0     C57167   7.047   9.849   3.372 -0.7412  0.3834  0.2341
  424MOL0     C57168   7.199   9.887   3.372 -0.6237  0.1257 -0.6967
  424MOL0     C57169   7.292   9.789   3.439  0.0386  0.0186  0.0241
  424MOL0     C57170   7.365   9.708   3.490 -0.2899  0.1819  0.0045
  424MOL0     C57171   6.663  10.122   3.604  0.7615 -1.1247  0.2802
  424MOL0     C57172   6.565  10.206   3.654  0.0473  0.2255 -0.2962
  424MOL0     H57173   6.365  10.678   3.747  0.7990 -1.9548 -0.4035
  424MOL0     H57174   6.172  10.812   3.790 -1.4661 -0.9337  0.6262
  424MOL0     H57175   5.955  10.937   3.474 -0.2571  2.6719 -0.3355
  424MOL0     H57176   5.814  10.945   3.570  1.3793 -1.4583  0.8069
  424MOL0     H57177   5.928  11.063   3.753 -1.2817 -1.3970 -0.4685
  424MOL0     H57178   6.082  11.040   3.670  0.0213 -1.3110  0.8725
  424MOL0     H57179   6.002  11.162   3.486  2.8055  0.5078  1.6819
  424MOL0     H57180   5.835  11.181   3.547  1.1857  0.2592 -2.0903
  424MOL0     H57181   6.024  11.272   3.758 -0.2205 -0.8545  0.0098
  424MOL0     H57182   6.082  11.327   3.603 -2.9884  0.7145 -4.3719
  424MOL0     H57183   5.908  11.443   3.532  0.9994 -1.9319 -0.9680
  424MOL0     H57184   5.786  11.368   3.630  1.1774 -0.6626  2.5064
  424MOL0     H57185   6.008  11.579   3.719  0.0136  1.4541  1.0742
  424MOL0     H57186   5.834  11.605   3.692 -0.6227 -0.7269  0.2024
  424MOL0     H57187   5.984  11.438   3.909 -0.9581 -0.0896 -0.6114
  424MOL0     H57188   5.956  11.605   3.923  0.5785 -0.2146  1.4385
  424MOL0     H57189   5.727  11.431   3.864 -1.1569  1.1368  0.0643
  424MOL0     H57190   5.722  11.594   3.939  1.8736  1.6859  0.4517
  424MOL0     H57191   5.740  11.238   4.030  3.4610 -0.5770 -2.5150
  424MOL0     H57192   5.890  11.159   4.374 -2.2857 -0.5172 -0.1464
  424MOL0     H57193   5.798  11.090   4.251  0.0121  0.4385  1.7592
  424MOL0     H57194   6.037  11.116   4.106 -2.3635 -1.3007 -1.1021
  424MOL0     H57195   6.009  10.979   4.213  0.8409 -0.2569  3.1321
  424MOL0     H57196   6.135  11.034   4.369 -2.4929 -0.1380  0.2461
  424MOL0     H57197   6.116  11.214   4.348 -2.7401  1.8562 -2.4492
  424MOL0     H57198   6.252  11.184   4.122  0.0799 -0.6373 -0.4363
  424MOL0     H57199   6.292  11.031   4.175 -1.0753  0.6406 -2.3553
  424MOL0     H57200   6.293  11.404   4.147  4.2646 -2.0706 -0.4543
  424MOL0     H57201   6.246  11.643   4.123 -0.3252 -0.0732  1.0798
  424MOL0     H57202   6.141  11.690   4.256 -0.1001  2.8024 -2.7429
  424MOL0     H57203   6.300  11.766   4.226  1.2476  0.6561 -3.4480
  424MOL0     H57204   6.313  11.901   4.700  1.7601 -1.4699  1.6323
  424MOL0     H57205   6.376  12.131   4.785 -2.1061 -2.2513  0.5892
  424MOL0     H57206   6.457  12.318   4.855  0.0574 -1.0489 -0.3691
  424MOL0     H57207   6.619  12.272   4.906  4.0384  1.2304 -1.1884
  424MOL0     H57208   6.706  12.493   4.802  1.0584 -2.3039  0.7340
  424MOL0     H57209   6.542  12.524   4.754  0.6304  0.5075 -0.4332
  424MOL0     H57210   6.465  12.492   4.991 -2.2114  3.5012  1.8336
  424MOL0     H57211   6.561  12.643   4.964  0.2068 -0.1786  0.8754
  424MOL0     H57212   6.663  12.378   5.088  1.6975 -0.4507  1.4920
  424MOL0     H57213   6.768  12.493   5.028  0.9028  0.4477  0.9822
  424MOL0     H57214   6.564  12.593   5.217 -0.3592  2.9024 -0.4248
  424MOL0     H57215   6.729  12.654   5.179  1.6795 -1.8869 -0.9861
  424MOL0     H57216   6.681  12.543   5.412  2.1165 -0.1182  1.0428
  424MOL0     H57217   6.700  12.396   5.333  0.7596 -1.1567  1.3062
  424MOL0     H57218   6.902  12.616   5.365 -0.2093 -1.3338  0.4773
  424MOL0     H57219   6.917  12.486   5.232  2.0176  0.0180  0.6789
  424MOL0     H57220   6.878  12.336   5.450 -0.1413 -0.3058 -2.1322
  424MOL0     H57221   6.914  12.490   5.530 -2.5073  0.6062 -1.5555
  424MOL0     H57222   6.704  12.141   4.510 -0.0639 -1.3686 -1.9599
  424MOL0     H57223   6.641  11.929   4.420  3.9837  2.6651  0.7712
  424MOL0     H57224   6.430  11.490   4.609 -0.6514  2.7503 -0.8373
  424MOL0     H57225   6.450  11.266   4.515 -0.1509  0.6792 -0.8086
  424MOL0     H57226   5.998  10.703   3.418 -0.8440  1.0664  1.6174
  424MOL0     H57227   6.213  10.572   3.361  0.0328  2.6139 -1.3489
  424MOL0     H57228   6.590  10.441   3.399  0.5449 -1.2745 -1.8338
  424MOL0     H57229   6.764  10.278   3.328 -0.4893 -0.9136 -0.8956
  424MOL0     H57230   6.835  10.098   3.246 -0.7543 -1.6466 -0.3708
  424MOL0     H57231   6.981  10.137   3.350 -0.6575  0.0989  0.0002
  424MOL0     H57232   7.029   9.967   3.191 -2.4346  1.8692 -0.6548
  424MOL0     H57233   6.870   9.892   3.235 -0.5159  2.5796 -5.4623
  424MOL0     H57234   7.052   9.753   3.320 -0.4222  0.8766 -0.6593
  424MOL0     H57235   6.998   9.843   3.470 -2.8477  1.8560 -0.6642
  424MOL0     H57236   7.207   9.981   3.428 -0.7771 -0.3492  0.1450
  424MOL0     H57237   7.228   9.917   3.271 -2.2747  3.8709 -0.2450
  424MOL0     H57238   7.409   9.630   3.548  2.9803  1.6255 -0.3106
  424MOL0     H57239   6.679  10.022   3.643 -1.7314 -0.5000  3.2090
  424MOL0     H57240   6.501  10.191   3.740 -1.2706  1.4545 -1.0207
  425MOL0     O57241   4.766  10.693   8.768  0.1857  0.3488 -0.4784
  425MOL0     C57242   4.760  10.819   8.756  0.6916  0.5794  0.8480
  425MOL0     O57243   4.640  10.895   8.751 -1.0856 -1.0711  0.8189
  425MOL0     C57244   4.538  10.856   8.679  0.1765 -0.4682 -0.6675
  425MOL0     C57245   4.474  10.736   8.708 -0.1109 -0.6781  0.1903
  425MOL0     C57246   4.388  10.669   8.612  0.4602 -0.2271 -0.4635
  425MOL0     C57247   4.357  10.732   8.491  0.6246  0.5327 -0.0091
  425MOL0     O57248   4.261  10.670   8.415  0.3840 -0.5456  0.6654
  425MOL0     C57249   4.264  10.675   8.270 -1.0862  1.0728 -1.0030
  425MOL0     C57250   4.121  10.666   8.218 -0.3040  0.5400  0.6757
  425MOL0     C57251   4.108  10.660   8.070  0.2971 -0.8557 -0.2664
  425MOL0     C57252   3.991  10.754   8.029 -0.5384 -0.0091 -0.8299
  425MOL0     C57253   3.873  10.668   8.028 -0.1067 -0.3851 -0.5987
  425MOL0     C57254   3.731  10.728   8.048 -0.0175  0.5413  0.6310
  425MOL0     C57255   3.622  10.624   8.008 -0.4156  0.3237 -0.7427
  425MOL0     C57256   3.595  10.625   7.863  0.2446  0.7660  0.6141
  425MOL0     N57257   3.503  10.515   7.809 -0.5341  0.0561  0.3501
  425MOL0     C57258   3.548  10.419   7.724  0.3047 -1.6754 -0.0154
  425MOL0     C57259   3.441  10.341   7.708  0.0941  0.6153  0.3731
  425MOL0     C57260   3.419  10.230   7.603 -0.0226 -0.0393 -0.7571
  425MOL0     C57261   3.363  10.104   7.667  0.4950  1.2897  1.3967
  425MOL0     C57262   3.205  10.086   7.655 -0.5022  0.5845 -0.5493
  425MOL0     C57263   3.157   9.951   7.689  0.0774 -0.9420 -0.0898
  425MOL0     O57264   3.216   9.851   7.603 -0.2597  0.2031  0.5652
  425MOL0     C57265   3.190   9.717   7.623  0.5608 -0.8791  0.3777
  425MOL0     C57266   3.252   9.629   7.538 -0.8200  0.0469 -0.1689
  425MOL0     C57267   3.242   9.490   7.553  0.1050  0.1868 -0.0858
  425MOL0     C57268   3.313   9.405   7.453  1.2038  0.4172  0.3040
  425MOL0     C57269   3.151   9.435   7.649  0.8569 -0.6065  0.4761
  425MOL0     C57270   3.105   9.293   7.657  0.1690  0.0068 -0.2843
  425MOL0     O57271   2.996   9.278   7.737  0.1128  0.3475 -0.0605
  425MOL0     C57272   2.962   9.150   7.760  1.1667 -0.6585  0.1170
  425MOL0     C57273   2.998   9.086   7.881 -0.5765  0.3495 -0.1299
  425MOL0     C57274   2.968   8.956   7.916 -0.0171  0.6336  0.6715
  425MOL0     C57275   2.892   8.879   7.828 -0.8509 -0.2354 -0.8357
  425MOL0     O57276   2.872   8.749   7.855  0.5549  0.2972  0.0312
  425MOL0     C57277   2.893   8.696   7.986  0.0748 -0.1502 -0.8361
  425MOL0     C57278   2.826   8.560   8.015 -0.7238 -0.3435 -0.7420
  425MOL0     C57279   2.884   8.497   8.149 -0.0088  0.4648 -0.7026
  425MOL0     C57280   2.857   8.359   8.153  0.4782  0.8296  0.2958
  425MOL0     C57281   2.913   8.270   8.258  0.7901 -0.4898 -0.1691
  425MOL0     C57282   2.857   8.318   8.393 -0.4586  0.4260  0.4269
  425MOL0     C57283   2.937   8.252   8.507  0.2979  0.5041  0.6659
  425MOL0     C57284   2.901   8.105   8.507  0.1704  0.3754  0.3259
  425MOL0    Cl57285   2.978   8.024   8.645 -0.4404  0.1472  0.0785
  425MOL0     C57286   2.863   8.931   7.700 -0.4504  0.2632 -0.2666
  425MOL0     C57287   2.896   9.064   7.664  0.4335 -0.4276 -0.4840
  425MOL0     O57288   3.170   9.203   7.601  0.4515  0.4600  0.1193
  425MOL0     C57289   3.087   9.528   7.739  0.1635  0.6450  0.2238
  425MOL0     C57290   3.111   9.664   7.728 -0.9385  0.2787 -0.4448
  425MOL0     N57291   3.333  10.379   7.794 -0.1398 -0.4452  0.6866
  425MOL0     N57292   3.378  10.482   7.852  0.0038  0.7550  0.2980
  425MOL0     C57293   4.400  10.864   8.469  0.2648 -0.4295  0.0115
  425MOL0     C57294   4.492  10.927   8.564  0.1361  0.9644 -0.9804
  425MOL0     C57295   4.878  10.896   8.736 -1.1273  1.1774  0.5865
  425MOL0     C57296   5.003  10.842   8.711 -0.7713  0.3809 -0.1766
  425MOL0     C57297   5.116  10.916   8.687 -0.3092 -0.1309 -0.7534
  425MOL0     C57298   5.108  11.059   8.691  0.8788  0.3968  0.6913
  425MOL0     O57299   5.221  11.130   8.698  0.8027 -0.4028 -0.7369
  425MOL0     C57300   5.219  11.278   8.664 -0.4830 -0.2229  0.1884
  425MOL0     C57301   5.221  11.307   8.516  1.0419 -0.5662  0.2505
  425MOL0     C57302   5.362  11.291   8.459 -0.2506  0.2501 -0.7406
  425MOL0     C57303   5.409  11.146   8.444 -0.8422 -0.8179 -0.7524
  425MOL0     C57304   5.327  11.060   8.358  0.9989 -0.1435 -0.1392
  425MOL0     C57305   5.252  10.980   8.293  0.6432 -0.5532 -0.7328
  425MOL0     C57306   4.981  11.120   8.710 -0.2854 -0.5703  0.1217
  425MOL0     C57307   4.871  11.035   8.741 -0.1347 -0.3236  0.0553
  425MOL0     H57308   4.508  10.680   8.795 -1.3601 -2.1153 -0.2038
  425MOL0     H57309   4.370  10.564   8.635  1.4828 -0.3828 -0.3408
  425MOL0     H57310   4.315  10.764   8.235  0.8976  0.2346 -0.3813
  425MOL0     H57311   4.324  10.589   8.239  2.0851  1.9020  2.1983
  425MOL0     H57312   4.065  10.585   8.266  0.6376  0.0672  0.9992
  425MOL0     H57313   4.056  10.742   8.264 -2.7654 -0.0648 -1.5859
  425MOL0     H57314   4.212  10.683   8.044  0.5534 -0.6550  0.8464
  425MOL0     H57315   4.097  10.557   8.033  0.8198 -1.8571  2.1241
  425MOL0     H57316   3.981  10.835   8.102  1.2915  0.2230 -0.7682
  425MOL0     H57317   4.021  10.796   7.932 -1.5722  1.2358 -0.6361
  425MOL0     H57318   3.878  10.620   7.930  1.3712 -2.4136  0.4213
  425MOL0     H57319   3.887  10.595   8.107  0.9867  2.1436  1.7018
  425MOL0     H57320   3.712  10.752   8.153 -0.7629 -1.3600  0.9659
  425MOL0     H57321   3.712  10.816   7.986 -0.0070  0.8526  1.0652
  425MOL0     H57322   3.638  10.531   8.063 -1.3795  1.8760  2.4118
  425MOL0     H57323   3.523  10.651   8.046 -0.8206 -0.3014 -1.3505
  425MOL0     H57324   3.694  10.615   7.816 -0.6060 -0.0646 -1.0945
  425MOL0     H57325   3.560  10.724   7.832  0.6677  0.9476  0.6961
  425MOL0     H57326   3.637  10.407   7.663  0.5693  1.4750 -0.3686
  425MOL0     H57327   3.353  10.265   7.523 -1.2923  2.6843  1.3324
  425MOL0     H57328   3.509  10.210   7.545 -1.7473  1.0702 -4.0734
  425MOL0     H57329   3.407  10.088   7.766  1.6995  0.2850  0.7232
  425MOL0     H57330   3.409  10.026   7.607  0.1716  2.4757 -0.4789
  425MOL0     H57331   3.184  10.109   7.551  2.2465 -1.7680 -1.7767
  425MOL0     H57332   3.158  10.157   7.724  1.2562  1.3776 -0.1053
  425MOL0     H57333   3.049   9.947   7.673 -0.0579  0.9947  0.1900
  425MOL0     H57334   3.169   9.928   7.796  0.5822 -0.3114 -0.0072
  425MOL0     H57335   3.328   9.662   7.467  2.8509 -4.0054  1.4304
  425MOL0     H57336   3.242   9.365   7.380  2.8556 -0.9985 -0.5989
  425MOL0     H57337   3.381   9.454   7.383  0.9631 -1.7406 -1.5613
  425MOL0     H57338   3.370   9.318   7.486  0.4692 -1.6413 -3.3700
  425MOL0     H57339   3.067   9.132   7.950 -1.1777 -2.5447  2.5858
  425MOL0     H57340   3.010   8.915   8.007 -3.4251 -0.7608  1.7885
  425MOL0     H57341   3.000   8.680   8.001  0.4571  0.2121 -2.9444
  425MOL0     H57342   2.853   8.768   8.058  0.3610 -0.8732  0.0679
  425MOL0     H57343   2.723   8.585   8.041 -0.5326  1.3395 -1.4604
  425MOL0     H57344   2.823   8.504   7.921  2.3379 -1.6305 -0.1979
  425MOL0     H57345   2.833   8.539   8.236  0.6936  0.4855 -0.2927
  425MOL0     H57346   2.993   8.508   8.160 -0.3301  0.9040  3.6747
  425MOL0     H57347   2.748   8.350   8.167  0.5087  1.5312  1.0949
  425MOL0     H57348   2.880   8.320   8.054 -1.0651 -0.8212  0.5254
  425MOL0     H57349   3.021   8.286   8.263  0.5733  0.6248  1.6741
  425MOL0     H57350   2.884   8.170   8.226  0.4662  0.2090 -2.2552
  425MOL0     H57351   2.882   8.424   8.403  2.0256 -0.1226  0.7881
  425MOL0     H57352   2.750   8.306   8.412  0.1474 -1.1207  3.7324
  425MOL0     H57353   2.890   8.288   8.598 -1.1669  1.3023 -0.3790
  425MOL0     H57354   3.043   8.281   8.510  0.6423 -0.2845 -1.6879
  425MOL0     H57355   2.930   8.066   8.409  1.0653  0.3600  0.5794
  425MOL0     H57356   2.793   8.101   8.518 -0.0871 -1.5996 -2.0570
  425MOL0     H57357   2.807   8.865   7.635 -0.1158  1.5200 -1.9022
  425MOL0     H57358   2.867   9.102   7.567  0.8091  0.5793 -0.2132
  425MOL0     H57359   3.017   9.496   7.816 -0.2307  0.7537 -0.0838
  425MOL0     H57360   3.063   9.725   7.804 -0.0498 -0.2927  0.6079
  425MOL0     H57361   4.367  10.922   8.384  1.8423  1.6754  0.7502
  425MOL0     H57362   4.524  11.031   8.557  0.6520  1.2587  3.2312
  425MOL0     H57363   5.023  10.736   8.699  0.0385  0.3730  1.0284
  425MOL0     H57364   5.215  10.874   8.676 -0.3803 -2.2308  4.1487
  425MOL0     H57365   5.144  11.341   8.713  0.6920 -0.9993  3.1695
  425MOL0     H57366   5.309  11.320   8.709 -0.1881 -1.9029  1.2624
  425MOL0     H57367   5.199  11.412   8.494 -3.1616 -1.2220  0.3819
  425MOL0     H57368   5.155  11.244   8.455 -0.5846  2.3181 -1.1555
  425MOL0     H57369   5.435  11.352   8.513  0.9649  0.8105 -2.8930
  425MOL0     H57370   5.369  11.335   8.359  2.0711 -0.6004 -1.0150
  425MOL0     H57371   5.427  11.099   8.541  1.8016  1.7298  0.1517
  425MOL0     H57372   5.509  11.142   8.399 -0.0550 -0.2267  0.8507
  425MOL0     H57373   5.193  10.896   8.261 -1.4453  1.0771 -1.4112
  425MOL0     H57374   4.971  11.225   8.732 -4.3041 -0.8761  0.4123
  425MOL0     H57375   4.778  11.088   8.759 -0.2518 -0.5088 -0.0010
  426MOL0     O57376   8.018   1.846   8.886 -0.3966  0.2955  0.0933
  426MOL0     C57377   8.023   1.740   8.941  0.6624  0.9930 -0.7908
  426MOL0     O57378   8.134   1.664   8.979  0.8483 -0.8598 -0.3306
  426MOL0     C57379   8.257   1.727   8.958  0.1897 -0.4356  0.1281
  426MOL0     C57380   8.299   1.840   9.024  0.3746  0.2480 -0.2704
  426MOL0     C57381   8.423   1.903   8.996 -0.1671 -0.2126 -1.0842
  426MOL0     C57382   8.511   1.840   8.911  0.0257  0.5755 -0.6031
  426MOL0     O57383   8.630   1.895   8.873  0.1249 -0.0824  0.4905
  426MOL0     C57384   8.737   1.869   8.954  0.3658 -0.0330  0.1932
  426MOL0     C57385   8.871   1.947   8.930 -0.3181  0.0117 -0.7298
  426MOL0     C57386   8.849   2.104   8.947  0.5213  0.6630 -0.7584
  426MOL0     C57387   8.829   2.171   8.811 -0.1307  0.6115  0.9070
  426MOL0     C57388   8.804   2.324   8.804  0.3782 -0.0256  0.6129
  426MOL0     C57389   8.660   2.365   8.846  0.1412  0.5702 -0.2514
  426MOL0     C57390   8.619   2.340   8.990 -0.6235 -0.0178 -0.3599
  426MOL0     C57391   8.505   2.434   9.032 -0.1708 -0.4037 -0.7453
  426MOL0     N57392   8.389   2.410   8.952 -0.3317 -0.2840  0.2651
  426MOL0     C57393   8.323   2.289   8.934  0.0808  0.4566 -0.1648
  426MOL0     C57394   8.210   2.318   8.868  0.5046 -0.1010  0.8208
  426MOL0     C57395   8.118   2.208   8.826 -0.2998  0.0876  0.7253
  426MOL0     C57396   7.965   2.251   8.816  0.8260 -0.5833 -0.4848
  426MOL0     C57397   7.897   2.265   8.960 -0.6137 -0.1965  0.5036
  426MOL0     C57398   7.746   2.293   8.936  0.0819  0.3330  0.3521
  426MOL0     O57399   7.678   2.188   8.857 -0.4272  0.3084 -0.3240
  426MOL0     C57400   7.538   2.170   8.861 -0.0149  0.7711 -0.0941
  426MOL0     C57401   7.475   2.053   8.823 -0.1551  0.7623  0.6165
  426MOL0     C57402   7.343   2.027   8.844 -0.0722 -0.2558  0.3875
  426MOL0     C57403   7.284   1.890   8.824 -0.0192  0.0932 -1.0766
  426MOL0     C57404   7.266   2.136   8.889  0.0222  0.3450  1.0465
  426MOL0     C57405   7.122   2.137   8.888 -0.5762  0.6041  0.1204
  426MOL0     O57406   7.062   2.224   8.972 -0.6184  0.1584  0.5012
  426MOL0     C57407   6.932   2.200   8.986 -0.6325  0.1701 -0.4495
  426MOL0     C57408   6.836   2.239   8.891 -0.0528 -0.3775  0.9166
  426MOL0     C57409   6.697   2.240   8.921  0.1193 -0.2380 -0.6515
  426MOL0     C57410   6.663   2.209   9.054 -0.2330  0.0106  1.0688
  426MOL0     O57411   6.531   2.211   9.080 -0.5799 -0.8576 -0.1557
  426MOL0     C57412   6.488   2.306   9.180  0.0926  0.7254 -1.3990
  426MOL0     C57413   6.351   2.249   9.229  0.6628  0.1815  0.5510
  426MOL0     C57414   6.363   2.113   9.292 -0.9923  0.2553  0.1875
  426MOL0     C57415   6.251   2.078   9.387 -0.3527  0.8467 -0.8943
  426MOL0     C57416   6.119   2.083   9.303  0.1138  0.5606  0.2489
  426MOL0     C57417   5.999   2.031   9.376 -0.3648  0.4773  0.1577
  426MOL0     C57418   5.909   2.151   9.404 -0.3122 -0.2661 -0.0197
  426MOL0     C57419   5.795   2.119   9.515 -0.0515 -0.0633  0.4237
  426MOL0    Cl57420   5.706   2.268   9.554  0.1523 -0.4947  0.3128
  426MOL0     C57421   6.766   2.171   9.153  0.2868 -0.7697 -0.1700
  426MOL0     C57422   6.897   2.160   9.118 -0.4117 -0.5464  0.1853
  426MOL0     O57423   7.066   2.077   8.797  0.0285 -0.0936 -0.4202
  426MOL0     C57424   7.328   2.253   8.933  0.0381 -0.2762  0.8870
  426MOL0     C57425   7.464   2.270   8.916 -0.0051 -0.4338  0.6062
  426MOL0     N57426   8.204   2.458   8.854  0.1358  0.9326 -0.0282
  426MOL0     N57427   8.313   2.513   8.895 -0.2108 -0.7587  0.3222
  426MOL0     C57428   8.473   1.722   8.851  0.2576 -0.8383  0.7324
  426MOL0     C57429   8.346   1.664   8.872  0.5090 -0.1415 -0.3336
  426MOL0     C57430   7.891   1.677   8.963 -0.1541  0.9678  0.8014
  426MOL0     C57431   7.767   1.743   8.949 -0.8405 -0.7474  0.4198
  426MOL0     C57432   7.648   1.683   8.974  0.8273  0.6010  0.4826
  426MOL0     C57433   7.631   1.552   8.999  0.0193 -0.1690  0.2535
  426MOL0     O57434   7.501   1.517   9.011  0.2303  0.0179 -0.0280
  426MOL0     C57435   7.471   1.388   9.076  0.6988  0.8932  0.5448
  426MOL0     C57436   7.428   1.419   9.226  1.1496 -0.0065  0.1610
  426MOL0     C57437   7.347   1.303   9.282 -0.3265 -0.0837 -0.2298
  426MOL0     C57438   7.427   1.176   9.302 -0.1646  0.1802 -0.2521
  426MOL0     C57439   7.570   1.194   9.325  0.6255  0.7028 -0.1818
  426MOL0     C57440   7.692   1.195   9.342  0.0363  0.6072  0.3197
  426MOL0     C57441   7.753   1.476   9.016  0.0071  0.3909  0.0004
  426MOL0     C57442   7.878   1.544   8.998  0.6449  0.1127 -0.6457
  426MOL0     H57443   8.234   1.892   9.094  2.3805  0.4065  1.5811
  426MOL0     H57444   8.440   1.991   9.057 -1.2247 -1.1300  0.6296
  426MOL0     H57445   8.715   1.901   9.056  0.0506 -2.4382  0.9613
  426MOL0     H57446   8.755   1.761   8.959 -1.5899 -0.3317  3.3365
  426MOL0     H57447   8.941   1.926   9.011  1.5789  3.7892 -1.1300
  426MOL0     H57448   8.922   1.917   8.837  0.8923 -0.2863  0.0064
  426MOL0     H57449   8.778   2.127   9.027 -1.0526  0.2994 -1.9849
  426MOL0     H57450   8.948   2.138   8.980  0.0561 -0.6931  2.4035
  426MOL0     H57451   8.912   2.160   8.741 -1.5356 -0.0993 -0.7168
  426MOL0     H57452   8.738   2.128   8.770  0.0949  0.4856  0.5405
  426MOL0     H57453   8.873   2.380   8.868 -0.0349 -0.0700  1.1003
  426MOL0     H57454   8.814   2.361   8.701  2.4294 -1.4565  0.2069
  426MOL0     H57455   8.651   2.471   8.822 -0.2526  1.2565  2.5384
  426MOL0     H57456   8.585   2.311   8.788  1.7023 -2.2490  0.1475
  426MOL0     H57457   8.585   2.237   9.005  2.4996 -1.2429 -0.9962
  426MOL0     H57458   8.704   2.359   9.056 -0.1590 -1.0325 -0.6419
  426MOL0     H57459   8.541   2.537   9.024  2.5829 -1.3495 -1.4509
  426MOL0     H57460   8.477   2.424   9.138 -0.4096  0.4397 -0.7160
  426MOL0     H57461   8.351   2.187   8.959 -2.8182 -1.0874 -2.5337
  426MOL0     H57462   8.166   2.177   8.733  0.5242  1.8019  0.5328
  426MOL0     H57463   8.130   2.122   8.893 -1.0172 -0.3437  0.3019
  426MOL0     H57464   7.917   2.173   8.756 -2.8542  1.0064  0.0943
  426MOL0     H57465   7.957   2.339   8.751  2.0319 -0.1221 -0.0387
  426MOL0     H57466   7.940   2.348   9.018 -0.2428 -3.4855  5.5761
  426MOL0     H57467   7.910   2.176   9.022 -0.4391  0.2975  1.1859
  426MOL0     H57468   7.732   2.380   8.871 -1.6846 -0.3460 -0.2264
  426MOL0     H57469   7.698   2.304   9.034  2.9110 -0.8321  2.0105
  426MOL0     H57470   7.535   1.971   8.785 -3.1091 -0.5941 -1.5477
  426MOL0     H57471   7.212   1.887   8.907  1.3222 -0.5646  0.1206
  426MOL0     H57472   7.225   1.870   8.734 -1.5298  2.5341 -0.7095
  426MOL0     H57473   7.349   1.805   8.845 -2.2410 -1.0407  1.9893
  426MOL0     H57474   6.866   2.275   8.794 -0.0940 -1.4276  0.4977
  426MOL0     H57475   6.619   2.278   8.856 -0.6751  2.0850  1.4549
  426MOL0     H57476   6.566   2.317   9.256 -0.9801  2.7046 -0.4960
  426MOL0     H57477   6.469   2.403   9.134  0.3574  2.0983  1.1758
  426MOL0     H57478   6.293   2.317   9.292 -2.1901  1.2343 -2.9248
  426MOL0     H57479   6.293   2.228   9.139 -0.6521 -0.1453  1.4496
  426MOL0     H57480   6.452   2.106   9.356 -2.1283 -3.4109  1.6593
  426MOL0     H57481   6.374   2.041   9.210  0.4429  1.5823 -0.8468
  426MOL0     H57482   6.266   1.979   9.431 -1.9743  0.3297 -1.4319
  426MOL0     H57483   6.227   2.148   9.468 -1.8996  0.3686 -0.9068
  426MOL0     H57484   6.126   2.014   9.218 -1.9931  0.1592  0.3282
  426MOL0     H57485   6.094   2.182   9.265 -0.6814  0.9779  1.7510
  426MOL0     H57486   5.949   1.969   9.300  0.2224  2.7179 -2.2246
  426MOL0     H57487   6.026   1.983   9.470  2.3847 -0.0880 -0.8213
  426MOL0     H57488   5.865   2.184   9.310  2.3530  0.6741 -1.0242
  426MOL0     H57489   5.966   2.235   9.444  1.6702 -2.2527  1.5950
  426MOL0     H57490   5.843   2.086   9.608 -0.4389 -2.2592 -0.0972
  426MOL0     H57491   5.736   2.033   9.482  1.6431 -2.3252  2.8439
  426MOL0     H57492   6.736   2.137   9.251 -1.4959 -0.7144 -0.6615
  426MOL0     H57493   6.971   2.134   9.194  4.0777  0.7405 -3.3095
  426MOL0     H57494   7.269   2.327   8.986  3.2172  3.2907 -0.1506
  426MOL0     H57495   7.505   2.360   8.961 -1.0162  0.3395  0.0140
  426MOL0     H57496   8.547   1.674   8.788  1.2090  1.9148 -0.4034
  426MOL0     H57497   8.316   1.569   8.829 -3.3662  0.8058 -0.0580
  426MOL0     H57498   7.779   1.850   8.956 -1.7575 -0.6097 -0.0116
  426MOL0     H57499   7.562   1.749   8.969  0.3337  0.1390  2.1379
  426MOL0     H57500   7.387   1.334   9.031 -0.3123  1.7041  1.3819
  426MOL0     H57501   7.552   1.314   9.072  0.2154  0.4261 -1.4655
  426MOL0     H57502   7.362   1.506   9.227  1.1137 -0.0307  0.8637
  426MOL0     H57503   7.518   1.446   9.282  2.1373 -1.6757 -0.5395
  426MOL0     H57504   7.255   1.296   9.222 -0.6116  1.2829  0.0155
  426MOL0     H57505   7.306   1.335   9.378 -0.2905 -3.3024  1.0034
  426MOL0     H57506   7.417   1.115   9.211  0.4612 -1.5010  0.7586
  426MOL0     H57507   7.391   1.098   9.369  1.0682 -0.5999 -0.4684
  426MOL0     H57508   7.799   1.195   9.342  0.1093 -2.1261 -0.2098
  426MOL0     H57509   7.755   1.376   9.057  1.1796  0.0750 -0.7701
  426MOL0     H57510   7.953   1.467   9.006  1.9147  1.1536 -2.0251
  427MOL0     O57511   9.334   9.383   6.029 -0.0199 -0.4976 -0.2859
  427MOL0     C57512   9.209   9.406   6.025 -0.2830 -0.1467  0.3346
  427MOL0     O57513   9.124   9.398   6.131 -0.9344  0.0772 -0.4670
  427MOL0     C57514   9.172   9.327   6.241  0.2836 -0.1130  0.9341
  427MOL0     C57515   9.264   9.377   6.340 -0.2861  0.3703  0.7958
  427MOL0     C57516   9.297   9.286   6.438  0.2916 -0.1257 -0.4228
  427MOL0     C57517   9.248   9.160   6.454 -0.8249 -0.0651 -0.5642
  427MOL0     O57518   9.293   9.078   6.560 -0.8337  0.2518  0.1068
  427MOL0     C57519   9.197   9.001   6.629  0.5946  0.1470  0.0833
  427MOL0     C57520   9.225   8.992   6.775 -0.1128 -0.0616  0.0997
  427MOL0     C57521   9.237   9.125   6.858 -0.7471  1.4657  0.2864
  427MOL0     C57522   9.259   9.098   7.010 -0.9711  1.0098  0.2411
  427MOL0     C57523   9.393   9.020   7.035 -0.1078  0.0371  0.3157
  427MOL0     C57524   9.453   9.060   7.175 -0.9291  0.2699  0.1629
  427MOL0     C57525   9.526   9.191   7.160 -0.4051  0.6868  0.1450
  427MOL0     C57526   9.584   9.234   7.292 -0.0688 -0.3523  0.5829
  427MOL0     N57527   9.675   9.354   7.285  0.7119 -0.7734  0.6937
  427MOL0     C57528   9.811   9.332   7.275 -0.4236 -0.7056 -0.8531
  427MOL0     C57529   9.869   9.455   7.255  0.7020  0.4961 -0.3225
  427MOL0     C57530  10.002   9.488   7.207  0.0388  0.1026 -0.3031
  427MOL0     C57531  10.036   9.630   7.258 -0.5093 -1.4313  0.0590
  427MOL0     C57532  10.186   9.659   7.256 -0.6089  0.1041 -0.2849
  427MOL0     C57533  10.230   9.682   7.112  0.3917  0.1851 -0.1142
  427MOL0     O57534  10.250   9.556   7.040 -0.7774 -0.1351  0.0496
  427MOL0     C57535  10.363   9.549   6.956  0.2916 -0.7649 -0.5087
  427MOL0     C57536  10.419   9.667   6.896 -0.0360 -0.1534 -0.1119
  427MOL0     C57537  10.528   9.654   6.801  0.7340  0.8716 -0.3878
  427MOL0     C57538  10.601   9.780   6.758 -0.2512  0.6537 -0.0492
  427MOL0     C57539  10.566   9.523   6.762 -0.4671 -0.3281  1.0105
  427MOL0     C57540  10.673   9.498   6.656  0.1763 -1.0540  0.5690
  427MOL0     O57541  10.787   9.578   6.655 -0.0805  0.1708  1.1912
  427MOL0     C57542  10.878   9.562   6.553 -0.4778 -0.2646  0.0766
  427MOL0     C57543  10.887   9.665   6.451  0.5648  0.8935  0.0771
  427MOL0     C57544  10.988   9.648   6.353 -0.2413  0.0982 -0.8887
  427MOL0     C57545  11.083   9.548   6.362 -0.3457  1.0675  0.7693
  427MOL0     O57546  11.163   9.528   6.252  0.1085  0.5882  0.5894
  427MOL0     C57547  11.297   9.582   6.256  0.7303  0.5048  0.3925
  427MOL0     C57548  11.346   9.604   6.115 -0.1489 -0.2793  0.0637
  427MOL0     C57549  11.492   9.655   6.099  0.0840 -0.5042  0.2885
  427MOL0     C57550  11.529   9.655   5.953  0.3259 -0.6664  0.0285
  427MOL0     C57551  11.664   9.729   5.946 -0.0331  0.4010 -0.3365
  427MOL0     C57552  11.722   9.702   5.805  0.8088 -1.2899 -0.0032
  427MOL0     C57553  11.863   9.771   5.818  0.5068  1.0773 -0.1858
  427MOL0     C57554  11.921   9.765   5.685  0.7268 -1.0669 -0.1258
  427MOL0    Cl57555  11.847   9.887   5.576  0.0269 -0.0059 -0.5271
  427MOL0     C57556  11.082   9.458   6.467  0.4840 -0.1829  0.0152
  427MOL0     C57557  10.975   9.456   6.554  0.4242  0.1847 -0.9143
  427MOL0     O57558  10.654   9.400   6.586 -0.4928  0.1834 -0.1583
  427MOL0     C57559  10.505   9.408   6.819  0.8333  0.4349  0.0179
  427MOL0     C57560  10.401   9.425   6.916  1.0867  0.5211 -0.4291
  427MOL0     N57561   9.756   9.540   7.262 -0.3917  0.4605 -0.2760
  427MOL0     N57562   9.644   9.482   7.280  0.5746 -0.5051  0.9191
  427MOL0     C57563   9.158   9.112   6.357 -0.3838 -0.2074 -0.8375
  427MOL0     C57564   9.122   9.195   6.255  0.3460  0.5110 -0.6840
  427MOL0     C57565   9.159   9.421   5.885  0.5746 -0.1909 -0.4776
  427MOL0     C57566   9.245   9.454   5.775 -0.4488  0.2692 -0.3495
  427MOL0     C57567   9.187   9.470   5.650 -0.2915 -0.1784 -1.1391
  427MOL0     C57568   9.052   9.458   5.629 -0.6928  0.3205  0.8646
  427MOL0     O57569   9.001   9.474   5.500 -0.6848  0.2266  0.0236
  427MOL0     C57570   8.866   9.460   5.472  0.2293  0.3164 -0.0350
  427MOL0     C57571   8.846   9.424   5.320  0.4784 -0.1947 -0.6198
  427MOL0     C57572   8.859   9.538   5.227 -0.1124  0.5562  0.4199
  427MOL0     C57573   8.839   9.505   5.081 -0.1334 -0.0058  1.0556
  427MOL0     C57574   8.701   9.468   5.046  0.5906 -0.3208  1.0953
  427MOL0     C57575   8.592   9.421   5.028  0.6105 -0.3214  1.0553
  427MOL0     C57576   8.974   9.422   5.736 -0.2131 -0.4309  0.7082
  427MOL0     C57577   9.019   9.411   5.867  0.1566  0.9423 -0.3688
  427MOL0     H57578   9.301   9.477   6.321  3.5126 -0.4334  2.9448
  427MOL0     H57579   9.351   9.327   6.522 -0.9716  1.3891 -0.2907
  427MOL0     H57580   9.100   9.049   6.615  1.3076  2.1348  1.4952
  427MOL0     H57581   9.199   8.898   6.594 -1.2699 -0.3570  1.2931
  427MOL0     H57582   9.141   8.938   6.821 -0.0212 -1.2839 -1.1011
  427MOL0     H57583   9.317   8.933   6.780  0.9914  1.6408  0.4630
  427MOL0     H57584   9.321   9.179   6.813 -0.2084 -0.7345 -1.5101
  427MOL0     H57585   9.146   9.184   6.848 -0.6907  1.8737  1.8490
  427MOL0     H57586   9.276   9.183   7.077  0.0587 -0.1751  1.5602
  427MOL0     H57587   9.170   9.043   7.043 -2.9001  3.5397 -0.4840
  427MOL0     H57588   9.380   8.911   7.030 -1.6167  0.2145 -0.3342
  427MOL0     H57589   9.473   9.045   6.966  1.5835  0.2855  2.2639
  427MOL0     H57590   9.386   9.070   7.261  3.7014 -3.7803  4.9412
  427MOL0     H57591   9.524   8.985   7.211 -0.2308 -0.4936 -2.5595
  427MOL0     H57592   9.608   9.170   7.090  0.5103  2.9617  0.4269
  427MOL0     H57593   9.473   9.267   7.101  3.2932  2.1889 -1.6400
  427MOL0     H57594   9.634   9.149   7.340  1.6843  0.1052 -0.3591
  427MOL0     H57595   9.493   9.257   7.348 -2.4007  1.7588 -3.6424
  427MOL0     H57596   9.862   9.236   7.273  1.4101  0.1448  0.9154
  427MOL0     H57597  10.069   9.403   7.226 -2.7507 -2.9499 -2.7553
  427MOL0     H57598  10.007   9.479   7.098  0.6169 -2.4455 -0.1297
  427MOL0     H57599  10.002   9.639   7.362 -2.3499  3.6952 -0.6893
  427MOL0     H57600   9.996   9.713   7.199  1.2063 -1.0321 -0.5902
  427MOL0     H57601  10.238   9.566   7.283 -1.5618  0.6389  4.1459
  427MOL0     H57602  10.220   9.736   7.326  1.8181 -2.6851  1.8945
  427MOL0     H57603  10.329   9.727   7.123  0.0930  0.3483  2.8728
  427MOL0     H57604  10.160   9.746   7.058  1.1183 -0.7062 -2.2157
  427MOL0     H57605  10.376   9.764   6.920 -0.4469 -1.2235  4.3977
  427MOL0     H57606  10.548   9.867   6.798  1.2471  1.0751  1.1022
  427MOL0     H57607  10.700   9.777   6.805 -0.0931 -1.0387 -0.4429
  427MOL0     H57608  10.600   9.788   6.649 -0.0701  0.5218 -0.0601
  427MOL0     H57609  10.818   9.747   6.436 -1.7764 -0.9697  0.2034
  427MOL0     H57610  10.993   9.724   6.275 -0.6712 -0.7221 -1.7224
  427MOL0     H57611  11.307   9.680   6.304 -0.9142  0.5679  0.6490
  427MOL0     H57612  11.377   9.523   6.302 -0.2554 -1.0292  0.2064
  427MOL0     H57613  11.335   9.506   6.067  1.8906 -1.1489  1.2340
  427MOL0     H57614  11.283   9.679   6.067  1.7152  2.3818  1.5508
  427MOL0     H57615  11.567   9.599   6.156  2.4582 -0.9576 -2.9905
  427MOL0     H57616  11.488   9.759   6.131 -0.6590 -1.4290  3.6666
  427MOL0     H57617  11.538   9.556   5.908  0.2377  0.2377 -2.1373
  427MOL0     H57618  11.456   9.708   5.891  3.1855  1.6251 -1.6555
  427MOL0     H57619  11.736   9.686   6.016  3.0662  0.3561 -3.3034
  427MOL0     H57620  11.653   9.837   5.961 -4.0221  0.1802 -0.6717
  427MOL0     H57621  11.727   9.594   5.791 -0.3947 -1.1776 -1.5581
  427MOL0     H57622  11.662   9.751   5.728  1.4084  1.2469  1.0335
  427MOL0     H57623  11.916   9.717   5.898  1.3381  2.2114  0.0451
  427MOL0     H57624  11.843   9.872   5.855 -0.7643  0.6175  0.4416
  427MOL0     H57625  11.907   9.667   5.638  1.0354 -1.4400  0.5513
  427MOL0     H57626  12.026   9.797   5.690  0.1812  1.3298 -1.7984
  427MOL0     H57627  11.158   9.381   6.472  0.6846 -0.1408 -1.6740
  427MOL0     H57628  10.964   9.381   6.632 -2.0924  3.2915  1.9739
  427MOL0     H57629  10.526   9.305   6.792 -2.0578 -0.4512  0.8262
  427MOL0     H57630  10.344   9.343   6.957  2.7332  0.2963  1.5024
  427MOL0     H57631   9.132   9.007   6.358  0.3449 -0.4443  2.2112
  427MOL0     H57632   9.060   9.156   6.175  0.1277  0.1732 -0.3480
  427MOL0     H57633   9.352   9.459   5.792 -0.1520  0.9663 -2.1758
  427MOL0     H57634   9.242   9.478   5.556 -1.9626 -0.8090 -2.2154
  427MOL0     H57635   8.820   9.376   5.525 -0.4880  1.1950  0.7643
  427MOL0     H57636   8.821   9.557   5.496  0.8697  0.7108 -0.3769
  427MOL0     H57637   8.749   9.377   5.301  0.9982 -1.2523 -0.7294
  427MOL0     H57638   8.921   9.346   5.304  0.2457 -0.9582  1.5774
  427MOL0     H57639   8.963   9.572   5.232  0.0079  0.2524  0.0521
  427MOL0     H57640   8.790   9.617   5.258 -0.3417  0.9703 -1.0252
  427MOL0     H57641   8.905   9.422   5.055 -0.2512 -0.0748  0.9773
  427MOL0     H57642   8.861   9.586   5.011  0.8374 -1.3213 -0.2230
  427MOL0     H57643   8.490   9.400   5.005  0.1398  2.1019  0.6359
  427MOL0     H57644   8.867   9.409   5.724 -0.7586  1.7787  2.5184
  427MOL0     H57645   8.948   9.387   5.946 -0.6589  2.1260 -0.6992
  428MOL0     O57646   8.789   9.393   0.553 -0.8947 -0.1536 -0.6817
  428MOL0     C57647   8.897   9.418   0.609 -1.2813  0.3945 -0.5524
  428MOL0     O57648   8.913   9.477   0.731 -0.8297 -0.2622 -0.7478
  428MOL0     C57649   8.808   9.489   0.807  0.6899 -0.8622  0.3561
  428MOL0     C57650   8.701   9.577   0.778  0.2160 -0.4505 -0.5407
  428MOL0     C57651   8.592   9.593   0.867  0.0087  0.4555  0.8875
  428MOL0     C57652   8.577   9.501   0.969 -0.4236 -0.0574 -0.7250
  428MOL0     O57653   8.454   9.511   1.021  1.3112 -0.1489  0.3406
  428MOL0     C57654   8.413   9.396   1.094 -0.2628 -0.3703  0.2750
  428MOL0     C57655   8.279   9.432   1.155  0.1372  0.5843  0.2088
  428MOL0     C57656   8.283   9.545   1.261 -0.6176 -0.5266 -0.3548
  428MOL0     C57657   8.145   9.614   1.257 -0.1326 -0.3002 -0.5154
  428MOL0     C57658   8.157   9.745   1.341 -0.1564  0.4284 -0.7806
  428MOL0     C57659   8.013   9.802   1.358 -0.6658 -0.3568  1.2056
  428MOL0     C57660   7.994   9.910   1.466 -0.0374  0.4338  0.0578
  428MOL0     C57661   7.857   9.985   1.465 -0.2330 -0.3592  0.1898
  428MOL0     N57662   7.749   9.886   1.476  0.2773 -0.1311  0.2630
  428MOL0     C57663   7.682   9.846   1.589 -0.8986 -0.1814  0.7442
  428MOL0     C57664   7.585   9.753   1.547  0.1359 -0.7106 -0.6028
  428MOL0     C57665   7.489   9.673   1.635 -0.0151 -0.6605  0.5045
  428MOL0     C57666   7.339   9.645   1.590 -1.0255 -0.0304 -0.5146
  428MOL0     C57667   7.328   9.546   1.473  0.4058  0.1079  1.1964
  428MOL0     C57668   7.181   9.497   1.444 -0.5078  0.0988  0.2821
  428MOL0     O57669   7.137   9.403   1.544 -0.3378  0.3710  0.1535
  428MOL0     C57670   7.073   9.298   1.497 -0.7312  0.1399 -0.4204
  428MOL0     C57671   6.954   9.254   1.569 -0.3727 -0.5053 -0.2730
  428MOL0     C57672   6.866   9.157   1.525  1.2491 -0.2005 -0.1027
  428MOL0     C57673   6.743   9.146   1.622  0.1772  0.4899 -0.7602
  428MOL0     C57674   6.893   9.088   1.409 -0.0942 -0.8615  0.1604
  428MOL0     C57675   6.789   9.007   1.339 -0.6118  0.5960  0.2782
  428MOL0     O57676   6.810   8.954   1.218 -0.2864  0.4228 -0.6609
  428MOL0     C57677   6.701   8.899   1.166  0.4157 -0.5171 -0.9105
  428MOL0     C57678   6.601   8.972   1.110 -0.0337 -0.6864  0.8495
  428MOL0     C57679   6.488   8.910   1.055  0.4200 -0.0939 -0.1009
  428MOL0     C57680   6.483   8.771   1.062 -0.1524  0.0956 -0.2050
  428MOL0     O57681   6.374   8.699   1.023  0.7937  0.4447 -0.1825
  428MOL0     C57682   6.403   8.623   0.898 -0.1783 -0.7280 -0.1825
  428MOL0     C57683   6.278   8.579   0.829 -0.0689  0.3578  1.1844
  428MOL0     C57684   6.200   8.473   0.904  0.2872  0.4285  0.4328
  428MOL0     C57685   6.067   8.458   0.823 -0.2026 -0.1435  0.1030
  428MOL0     C57686   5.991   8.334   0.889  0.2027 -0.9189 -0.4771
  428MOL0     C57687   5.846   8.336   0.867  0.0924 -0.5360  0.5276
  428MOL0     C57688   5.771   8.217   0.943  0.3035  0.2963  0.6616
  428MOL0     C57689   5.627   8.217   0.899 -0.0730 -0.0566 -0.5503
  428MOL0    Cl57690   5.589   8.221   0.716  0.0583 -0.1054 -0.1329
  428MOL0     C57691   6.592   8.693   1.115 -0.8193  1.1132  0.5011
  428MOL0     C57692   6.698   8.760   1.173  1.1593 -1.0708  0.0016
  428MOL0     O57693   6.692   8.980   1.408 -0.4360  0.1570 -0.0216
  428MOL0     C57694   7.017   9.111   1.347  0.0609  0.3224  1.0713
  428MOL0     C57695   7.099   9.211   1.387 -0.4009 -0.1220  0.0144
  428MOL0     N57696   7.595   9.746   1.408 -0.8311 -0.6755 -0.0301
  428MOL0     N57697   7.694   9.816   1.365 -0.3508  0.0654  0.2164
  428MOL0     C57698   8.685   9.410   0.996  1.3585 -0.6488 -0.5462
  428MOL0     C57699   8.806   9.413   0.926  1.3620  0.7438  1.0272
  428MOL0     C57700   9.020   9.385   0.532 -0.3025  0.9497 -0.2624
  428MOL0     C57701   9.160   9.423   0.562  0.5536 -0.4532  0.5238
  428MOL0     C57702   9.261   9.386   0.479  0.1626 -1.0683 -0.8802
  428MOL0     C57703   9.232   9.294   0.382 -0.1782 -0.8088 -0.3677
  428MOL0     O57704   9.341   9.242   0.328  0.3532  0.0667  0.5075
  428MOL0     C57705   9.337   9.126   0.243  0.6198 -1.0374  0.6046
  428MOL0     C57706   9.483   9.081   0.200  0.3385  0.0285  0.7280
  428MOL0     C57707   9.545   9.022   0.323  1.4647 -0.0653 -0.8229
  428MOL0     C57708   9.680   8.973   0.292 -0.9222  0.4426 -0.8550
  428MOL0     C57709   9.749   8.943   0.426  0.3845 -0.0324  0.1740
  428MOL0     C57710   9.801   8.944   0.540 -0.2134  1.2452  0.5540
  428MOL0     C57711   9.111   9.259   0.344  0.2825  0.0719 -0.9441
  428MOL0     C57712   8.997   9.305   0.418 -0.6398  0.5485 -0.7260
  428MOL0     H57713   8.719   9.632   0.686  1.9271 -0.0331  0.0018
  428MOL0     H57714   8.509   9.657   0.838  0.1972 -0.1159 -1.0939
  428MOL0     H57715   8.406   9.317   1.018  1.2458  0.5501 -0.8854
  428MOL0     H57716   8.480   9.373   1.177  1.0862 -0.7890 -0.8929
  428MOL0     H57717   8.219   9.466   1.070  1.4363  3.3292  0.3113
  428MOL0     H57718   8.240   9.343   1.205  2.6989  0.2077  1.6872
  428MOL0     H57719   8.296   9.491   1.356  0.5962  1.0267  0.3998
  428MOL0     H57720   8.361   9.616   1.233 -0.5929  0.0419  1.0362
  428MOL0     H57721   8.124   9.650   1.156  0.5580  0.0723 -0.5343
  428MOL0     H57722   8.067   9.548   1.297  0.2158  0.0320  0.7633
  428MOL0     H57723   8.200   9.716   1.437 -1.6840 -2.1021 -0.7879
  428MOL0     H57724   8.229   9.813   1.294  1.9513  0.6872  2.4991
  428MOL0     H57725   7.982   9.842   1.261  2.9217 -0.1880 -0.0322
  428MOL0     H57726   7.953   9.719   1.397 -0.4321 -0.6238  1.0076
  428MOL0     H57727   8.005   9.864   1.564  1.7682 -1.3620 -0.9067
  428MOL0     H57728   8.067   9.992   1.459 -0.9833  1.2066 -1.1806
  428MOL0     H57729   7.844  10.027   1.365  0.1416 -4.2390 -1.6648
  428MOL0     H57730   7.847  10.072   1.531 -1.3754 -0.6698  0.4524
  428MOL0     H57731   7.694   9.883   1.690 -1.4684  0.5539  0.5543
  428MOL0     H57732   7.539   9.576   1.645  0.5402 -0.5238 -0.7463
  428MOL0     H57733   7.483   9.723   1.732  0.2334  1.3038 -0.4449
  428MOL0     H57734   7.306   9.742   1.553 -1.2710 -0.4811 -1.5268
  428MOL0     H57735   7.282   9.615   1.679 -0.7982  1.6678  0.2418
  428MOL0     H57736   7.398   9.463   1.483  3.0968  2.1031  0.0521
  428MOL0     H57737   7.363   9.587   1.378 -1.7105 -0.1587  0.2287
  428MOL0     H57738   7.178   9.451   1.345  0.1686  0.5639  0.0319
  428MOL0     H57739   7.118   9.584   1.428  0.2428  0.2676 -2.1529
  428MOL0     H57740   6.934   9.300   1.665 -0.3802 -1.3431  0.1406
  428MOL0     H57741   6.653   9.162   1.563 -0.4353  0.6050  0.1894
  428MOL0     H57742   6.735   9.051   1.676 -0.4541  1.5024  0.9897
  428MOL0     H57743   6.732   9.217   1.704 -4.4223 -0.8877  0.1121
  428MOL0     H57744   6.615   9.079   1.126  0.4811 -0.9013  1.9551
  428MOL0     H57745   6.397   8.949   1.011  1.3057  0.3585 -1.5948
  428MOL0     H57746   6.458   8.681   0.823  1.3124 -2.6335 -0.6313
  428MOL0     H57747   6.468   8.538   0.917 -1.7575 -2.3278 -1.5597
  428MOL0     H57748   6.215   8.668   0.826  0.9771  1.1170  1.0100
  428MOL0     H57749   6.309   8.551   0.727  1.7921  3.1771  0.8400
  428MOL0     H57750   6.171   8.520   0.998 -1.6383  1.9618 -0.8491
  428MOL0     H57751   6.254   8.378   0.910 -0.6433 -0.2523 -1.1552
  428MOL0     H57752   6.000   8.544   0.832 -2.1205 -1.4029 -1.3207
  428MOL0     H57753   6.081   8.435   0.717 -2.4017 -1.5209  0.0509
  428MOL0     H57754   6.011   8.318   0.996 -2.1044 -1.3708 -0.0554
  428MOL0     H57755   6.031   8.244   0.842 -2.8601 -2.4635 -0.4379
  428MOL0     H57756   5.807   8.429   0.910 -1.7134 -1.0641  0.1485
  428MOL0     H57757   5.837   8.341   0.758 -3.3014 -0.5400  0.6748
  428MOL0     H57758   5.777   8.235   1.050  3.1198  1.7395  0.3695
  428MOL0     H57759   5.817   8.124   0.908  0.1356  1.6366 -3.8729
  428MOL0     H57760   5.578   8.308   0.936  0.4640 -0.0298  0.0948
  428MOL0     H57761   5.565   8.136   0.939  2.2886 -1.1394  1.0596
  428MOL0     H57762   6.584   8.585   1.125  1.2354  0.3238 -4.0800
  428MOL0     H57763   6.775   8.707   1.229 -1.0689 -2.2963  2.1071
  428MOL0     H57764   7.052   9.047   1.267 -0.2642 -1.4808  2.3009
  428MOL0     H57765   7.192   9.226   1.334  0.0367 -1.7660  0.2473
  428MOL0     H57766   8.695   9.340   1.078  0.5159  1.5069  1.5539
  428MOL0     H57767   8.896   9.362   0.957  1.1216 -0.4468 -0.1308
  428MOL0     H57768   9.190   9.469   0.655  2.0225  0.6262 -0.4420
  428MOL0     H57769   9.363   9.417   0.500 -0.8442 -0.1499  3.4071
  428MOL0     H57770   9.283   9.039   0.280 -1.4919 -0.8340 -1.7109
  428MOL0     H57771   9.286   9.152   0.149  2.2888 -3.7033 -1.1646
  428MOL0     H57772   9.538   9.172   0.172  2.4444 -1.1300  0.8623
  428MOL0     H57773   9.470   9.001   0.127 -0.5157 -1.6785  2.6518
  428MOL0     H57774   9.479   8.947   0.366  1.1419  0.8142  0.2688
  428MOL0     H57775   9.553   9.090   0.409  0.1145 -1.0696  0.1390
  428MOL0     H57776   9.742   9.048   0.242  0.6543 -0.1418  0.1537
  428MOL0     H57777   9.660   8.880   0.239  0.4934 -1.3052  1.5000
  428MOL0     H57778   9.826   8.952   0.644 -0.9273 -2.4900  1.1581
  428MOL0     H57779   9.091   9.205   0.251 -2.2363 -1.9194  0.6255
  428MOL0     H57780   8.901   9.268   0.384 -0.1696 -0.8308 -0.6188
  429MOL0     O57781  10.798   3.097   6.409 -0.4250  0.3296  0.1638
  429MOL0     C57782  10.727   3.167   6.344 -0.0823 -0.5737 -0.1782
  429MOL0     O57783  10.758   3.230   6.230 -1.0855  0.3723  0.0532
  429MOL0     C57784  10.880   3.199   6.167  0.0010  0.1692 -0.3319
  429MOL0     C57785  10.873   3.127   6.046 -0.0997  0.1046 -0.8525
  429MOL0     C57786  10.989   3.087   5.980 -0.1930  1.1206  0.2807
  429MOL0     C57787  11.115   3.116   6.039  0.2989 -0.2252  1.5947
  429MOL0     O57788  11.230   3.069   5.977  0.2032 -0.3191 -0.0182
  429MOL0     C57789  11.358   3.132   5.993  0.2605  0.5733 -0.3629
  429MOL0     C57790  11.421   3.134   5.849  0.2082  0.3185 -0.6391
  429MOL0     C57791  11.541   3.230   5.849  0.3751 -0.0557 -0.0982
  429MOL0     C57792  11.674   3.179   5.918 -0.1331  0.8939  1.2912
  429MOL0     C57793  11.784   3.282   5.887 -0.9932  0.1515  0.6849
  429MOL0     C57794  11.914   3.259   5.972 -0.2026  0.4436  0.1272
  429MOL0     C57795  12.030   3.345   5.912 -0.5090 -0.0652 -0.3468
  429MOL0     C57796  12.152   3.336   6.005 -0.9507  0.2594 -1.1055
  429MOL0     N57797  12.254   3.431   5.958 -0.4507  0.5077 -0.3943
  429MOL0     C57798  12.329   3.419   5.843 -0.0619  0.3975 -0.1821
  429MOL0     C57799  12.374   3.545   5.823  0.1066  0.2479  1.0118
  429MOL0     C57800  12.445   3.596   5.705 -0.7453  0.2341 -0.3782
  429MOL0     C57801  12.595   3.617   5.740 -0.0170  0.1375 -0.1052
  429MOL0     C57802  12.683   3.642   5.614 -0.7569 -0.6922 -1.0305
  429MOL0     C57803  12.827   3.672   5.643  0.3087  0.1314  0.1912
  429MOL0     O57804  12.836   3.817   5.643  1.0249  0.2868  0.0327
  429MOL0     C57805  12.954   3.880   5.667 -0.6101 -0.8091  0.5153
  429MOL0     C57806  12.967   4.018   5.646 -0.0242 -0.4028  1.0282
  429MOL0     C57807  13.095   4.079   5.663 -0.0753 -1.2032  0.0124
  429MOL0     C57808  13.094   4.226   5.648 -0.1634  0.7159  0.3042
  429MOL0     C57809  13.214   4.005   5.701  1.2497 -0.5605  0.3896
  429MOL0     C57810  13.349   4.062   5.715 -0.1347 -0.0963  0.3497
  429MOL0     O57811  13.363   4.155   5.818 -0.1603 -0.3644  0.1244
  429MOL0     C57812  13.481   4.221   5.827  0.5381 -0.7627 -0.2838
  429MOL0     C57813  13.529   4.291   5.714  0.9835 -0.4105 -0.1095
  429MOL0     C57814  13.646   4.365   5.710  0.8212 -0.2477 -0.8965
  429MOL0     C57815  13.720   4.377   5.831 -0.1807 -0.3308 -0.6583
  429MOL0     O57816  13.827   4.452   5.863 -0.0078  0.5286  0.3047
  429MOL0     C57817  13.876   4.545   5.768 -0.3474  0.7539 -0.3307
  429MOL0     C57818  14.019   4.576   5.800  0.6070 -0.1581 -0.4120
  429MOL0     C57819  14.039   4.626   5.949  0.0206  0.1307 -0.0208
  429MOL0     C57820  14.183   4.676   5.982  0.4765  0.0512  1.0968
  429MOL0     C57821  14.213   4.704   6.128  0.3435 -0.4410  0.2212
  429MOL0     C57822  14.343   4.782   6.128  0.2177 -0.4380  0.6597
  429MOL0     C57823  14.391   4.800   6.271 -0.3159 -0.1806 -0.3969
  429MOL0     C57824  14.537   4.844   6.272  0.9626 -0.5485 -0.1045
  429MOL0    Cl57825  14.576   4.872   6.444 -0.0439  0.0409 -0.3605
  429MOL0     C57826  13.657   4.313   5.944 -0.7889 -0.3838  0.1908
  429MOL0     C57827  13.553   4.233   5.949  0.1737 -0.1204  0.8645
  429MOL0     O57828  13.429   4.023   5.624 -0.3755 -0.3163 -0.8347
  429MOL0     C57829  13.199   3.868   5.716 -0.7440  0.0604  0.1240
  429MOL0     C57830  13.071   3.811   5.711 -0.2719 -0.0316  0.2127
  429MOL0     N57831  12.320   3.626   5.911 -0.0198  0.1330 -0.1333
  429MOL0     N57832  12.251   3.562   5.990  0.2939 -0.1335  0.0059
  429MOL0     C57833  11.123   3.170   6.163  0.4981 -0.4361 -0.0942
  429MOL0     C57834  11.007   3.214   6.227  0.7227  0.0192  0.9624
  429MOL0     C57835  10.586   3.186   6.389 -0.1860 -0.7297 -0.0279
  429MOL0     C57836  10.549   3.147   6.514  0.2321  0.9549  0.2992
  429MOL0     C57837  10.424   3.156   6.563  0.9484 -1.0806 -0.0363
  429MOL0     C57838  10.318   3.207   6.477  0.0540  1.1586  0.3950
  429MOL0     O57839  10.187   3.219   6.497  0.3698  0.6513 -0.6358
  429MOL0     C57840  10.124   3.151   6.613  0.1075  0.3452  0.1773
  429MOL0     C57841  10.120   3.003   6.586 -0.4586 -0.2054 -0.7165
  429MOL0     C57842   9.994   2.946   6.651 -0.5142  0.3431  0.6197
  429MOL0     C57843  10.015   2.913   6.800  0.0780 -0.2644 -0.1744
  429MOL0     C57844   9.890   2.857   6.854 -0.2038  1.1929 -0.3889
  429MOL0     C57845   9.790   2.804   6.902  0.1326  0.3268 -0.1012
  429MOL0     C57846  10.361   3.254   6.353 -0.0722 -0.7225 -0.7572
  429MOL0     C57847  10.492   3.244   6.314 -0.0999  0.8530 -0.1750
  429MOL0     H57848  10.778   3.089   6.011  0.9190 -3.6253 -0.0907
  429MOL0     H57849  10.982   3.025   5.891  1.3468  0.1391  0.8139
  429MOL0     H57850  11.339   3.234   6.025  0.4623  1.0438 -1.6666
  429MOL0     H57851  11.427   3.093   6.068  1.0821  1.1159 -0.8186
  429MOL0     H57852  11.447   3.033   5.813  2.0200 -0.5851  2.7603
  429MOL0     H57853  11.349   3.169   5.775 -1.6260 -3.2258 -0.7681
  429MOL0     H57854  11.559   3.245   5.742  0.1222  1.0766  0.0094
  429MOL0     H57855  11.518   3.330   5.885  1.3612 -0.2456  1.1496
  429MOL0     H57856  11.657   3.168   6.026 -0.4223 -2.2717  1.0081
  429MOL0     H57857  11.696   3.079   5.880 -0.4717  1.3920 -0.2916
  429MOL0     H57858  11.811   3.278   5.781  2.8781  0.8493  1.5137
  429MOL0     H57859  11.758   3.388   5.893 -1.1321  0.1146  0.7310
  429MOL0     H57860  11.892   3.290   6.075  1.7479  1.1931  0.3687
  429MOL0     H57861  11.943   3.154   5.970 -0.5387  0.2715  2.2670
  429MOL0     H57862  12.050   3.297   5.816  2.2928 -2.1370  1.0950
  429MOL0     H57863  11.994   3.446   5.892 -0.9760 -0.2930 -0.6645
  429MOL0     H57864  12.190   3.234   6.003 -1.0801  0.0752  1.9514
  429MOL0     H57865  12.118   3.356   6.107 -0.8839 -2.1913 -0.5454
  429MOL0     H57866  12.331   3.345   5.764  0.4456  0.1254  0.0771
  429MOL0     H57867  12.443   3.522   5.624 -0.2835 -0.5423  0.3020
  429MOL0     H57868  12.412   3.695   5.671  1.4998  1.5321  0.9928
  429MOL0     H57869  12.625   3.533   5.804  0.9231  1.7796  1.7052
  429MOL0     H57870  12.601   3.702   5.809  1.4049  3.3691 -3.8070
  429MOL0     H57871  12.651   3.731   5.559 -0.2918  1.3428  1.7336
  429MOL0     H57872  12.684   3.552   5.552 -0.7014 -0.3662 -1.5038
  429MOL0     H57873  12.893   3.646   5.560  2.9918 -0.4421  2.3513
  429MOL0     H57874  12.871   3.616   5.726  1.4346 -0.7897 -0.9839
  429MOL0     H57875  12.886   4.082   5.613  1.0467 -0.5264 -2.1713
  429MOL0     H57876  13.175   4.243   5.575  0.3473  0.5343  0.8223
  429MOL0     H57877  13.005   4.273   5.605  0.5137  1.2066 -0.6101
  429MOL0     H57878  13.123   4.282   5.738 -2.0735 -0.6758  1.8435
  429MOL0     H57879  13.470   4.288   5.623  0.4185 -2.8241  0.2615
  429MOL0     H57880  13.679   4.415   5.620  1.3927  2.9350  0.9481
  429MOL0     H57881  13.866   4.506   5.666  0.1459  0.8185 -0.4100
  429MOL0     H57882  13.815   4.636   5.774  0.7857  1.4993  0.5624
  429MOL0     H57883  14.087   4.491   5.788 -0.7741 -1.2789 -0.6593
  429MOL0     H57884  14.042   4.662   5.737 -2.2134 -0.6479 -2.3229
  429MOL0     H57885  14.009   4.539   6.009 -1.8920 -0.5293 -1.7981
  429MOL0     H57886  13.961   4.701   5.966 -1.2369 -0.9687 -0.6815
  429MOL0     H57887  14.261   4.611   5.942  0.7883  1.4490 -0.7257
  429MOL0     H57888  14.195   4.768   5.924 -0.0138 -1.8258 -2.2013
  429MOL0     H57889  14.227   4.614   6.189 -2.3607  1.8640  4.8585
  429MOL0     H57890  14.130   4.761   6.169 -1.0380 -3.0708  1.2895
  429MOL0     H57891  14.420   4.727   6.073 -0.8345 -1.9873  0.6789
  429MOL0     H57892  14.328   4.888   6.108  0.6508 -0.2879  1.1174
  429MOL0     H57893  14.386   4.703   6.321 -1.5539 -0.8807 -1.7991
  429MOL0     H57894  14.314   4.864   6.315 -2.2975 -2.0274 -0.9600
  429MOL0     H57895  14.558   4.942   6.228 -0.4513  0.0288  0.4379
  429MOL0     H57896  14.612   4.771   6.241 -1.4614 -3.6219  0.7477
  429MOL0     H57897  13.709   4.330   6.038 -0.9473 -2.1532  0.6297
  429MOL0     H57898  13.504   4.195   6.038 -3.5805 -2.8970 -2.0527
  429MOL0     H57899  13.288   3.816   5.749 -0.1628  3.1767  4.2508
  429MOL0     H57900  13.071   3.702   5.716 -3.7469 -0.1341  0.6038
  429MOL0     H57901  11.203   3.168   6.235 -1.5994 -0.9287  2.3611
  429MOL0     H57902  11.009   3.258   6.327  0.7239  2.7107 -0.1425
  429MOL0     H57903  10.619   3.101   6.583  0.9785  2.2613  0.4350
  429MOL0     H57904  10.397   3.117   6.660  1.9169  1.9527  1.5536
  429MOL0     H57905  10.181   3.169   6.704  1.3545 -1.4011 -0.2000
  429MOL0     H57906  10.024   3.192   6.632  0.1742 -0.2989  2.1284
  429MOL0     H57907  10.213   2.953   6.614  0.1867  0.3762 -1.7530
  429MOL0     H57908  10.113   3.000   6.477  0.7220  0.4126 -0.8318
  429MOL0     H57909   9.982   2.852   6.596 -2.2935  1.0451 -0.2721
  429MOL0     H57910   9.908   3.012   6.638  0.3028  1.1555 -0.9179
  429MOL0     H57911  10.039   3.005   6.855  3.6713 -1.9236  1.4115
  429MOL0     H57912  10.093   2.838   6.821  0.5474  0.2301 -0.1291
  429MOL0     H57913   9.712   2.756   6.956  2.4971  0.8144  4.1388
  429MOL0     H57914  10.288   3.291   6.281  1.5319  0.3996 -1.8685
  429MOL0     H57915  10.511   3.284   6.215  1.6923  1.4991  0.3836
  430MOL0     O57916   8.776   2.571   2.697 -0.0414  0.4164 -0.1335
  430MOL0     C57917   8.833   2.661   2.751 -0.4088  0.1576  0.3123
  430MOL0     O57918   8.774   2.766   2.813  0.1116 -1.1817 -0.1232
  430MOL0     C57919   8.643   2.747   2.843  0.3616  0.8711 -0.7979
  430MOL0     C57920   8.547   2.814   2.765 -1.1455 -0.1973  0.5781
  430MOL0     C57921   8.414   2.815   2.801  0.6524 -0.4678 -0.8014
  430MOL0     C57922   8.366   2.740   2.909 -0.8281 -0.4749 -0.3993
  430MOL0     O57923   8.235   2.737   2.943 -0.6585  0.3331 -0.2487
  430MOL0     C57924   8.126   2.758   2.844 -0.0439 -0.1363  0.2755
  430MOL0     C57925   8.025   2.628   2.851  0.2998  0.2875  0.9528
  430MOL0     C57926   8.089   2.489   2.797 -0.3025  0.1430 -0.1423
  430MOL0     C57927   7.994   2.370   2.813  0.1627 -0.5019 -0.0265
  430MOL0     C57928   8.045   2.250   2.727 -0.4758  0.2398 -0.1257
  430MOL0     C57929   7.943   2.141   2.718  0.1311  0.7388 -0.2928
  430MOL0     C57930   7.900   2.101   2.866 -0.4163  0.0507 -0.0124
  430MOL0     C57931   7.805   1.981   2.857  0.2058 -0.1293  0.2221
  430MOL0     N57932   7.784   1.930   2.996 -0.2253  0.4591 -0.1770
  430MOL0     C57933   7.724   2.007   3.087 -0.3639 -0.8216 -0.3475
  430MOL0     C57934   7.732   1.946   3.206  0.2483 -0.9953 -0.5657
  430MOL0     C57935   7.702   2.022   3.335 -0.0021 -0.4139 -1.1778
  430MOL0     C57936   7.552   2.012   3.376 -0.8967  1.5555  0.1902
  430MOL0     C57937   7.514   1.856   3.387 -0.3568 -0.7838  0.2730
  430MOL0     C57938   7.377   1.846   3.443  0.2695 -0.5280  0.0866
  430MOL0     O57939   7.366   1.903   3.576  0.7105 -0.7349  0.0655
  430MOL0     C57940   7.241   1.921   3.628 -0.9146  0.0905 -0.9018
  430MOL0     C57941   7.226   2.032   3.702 -1.2050 -0.6500  1.5499
  430MOL0     C57942   7.104   2.057   3.773 -0.7011  0.1473  0.9015
  430MOL0     C57943   7.095   2.191   3.843  0.1408  0.1621  0.4566
  430MOL0     C57944   6.999   1.964   3.773 -0.7212 -0.8262 -0.4032
  430MOL0     C57945   6.869   1.988   3.835  0.8228 -0.0829 -0.0280
  430MOL0     O57946   6.808   1.878   3.889  0.3792 -0.3283  0.7723
  430MOL0     C57947   6.677   1.885   3.914 -0.9454  0.4288 -0.5139
  430MOL0     C57948   6.637   1.960   4.027  0.5602  0.4398  0.1288
  430MOL0     C57949   6.510   1.956   4.065  0.5978 -0.0014 -0.4000
  430MOL0     C57950   6.412   1.892   3.989  0.5107 -0.7014 -0.3660
  430MOL0     O57951   6.276   1.879   4.016 -0.3530  0.3059 -1.0967
  430MOL0     C57952   6.215   1.965   4.108 -0.7605 -0.7145  0.6638
  430MOL0     C57953   6.082   1.891   4.121  0.8232 -0.3270 -0.2687
  430MOL0     C57954   5.981   1.974   4.198  0.0005  0.1214  0.2118
  430MOL0     C57955   5.837   1.921   4.211  0.1639  0.2980  0.4886
  430MOL0     C57956   5.753   2.035   4.265  1.1819 -0.7919 -0.7820
  430MOL0     C57957   5.613   2.001   4.300  0.6630  0.0619  0.4231
  430MOL0     C57958   5.584   1.902   4.416 -0.6182  0.5098 -0.2339
  430MOL0     C57959   5.630   1.954   4.560 -0.4722  0.1246 -0.0143
  430MOL0    Cl57960   5.805   1.929   4.567  0.2899 -0.6896  0.4361
  430MOL0     C57961   6.447   1.829   3.867  0.8588 -0.8543 -0.4759
  430MOL0     C57962   6.582   1.831   3.832  0.0144 -0.1230 -0.0523
  430MOL0     O57963   6.821   2.097   3.829 -0.0770 -0.0617  0.2854
  430MOL0     C57964   7.027   1.843   3.709 -0.2500 -0.5565 -0.5169
  430MOL0     C57965   7.146   1.816   3.643  0.1940 -0.0766 -0.5369
  430MOL0     N57966   7.782   1.819   3.186 -0.0227  0.2698  0.7415
  430MOL0     N57967   7.821   1.811   3.050  0.9795  0.1519  0.5110
  430MOL0     C57968   8.461   2.684   2.992 -0.2865 -0.4848 -0.3744
  430MOL0     C57969   8.595   2.691   2.962  0.0081 -0.2909 -0.1909
  430MOL0     C57970   8.979   2.649   2.746 -0.1330 -0.3946 -1.1415
  430MOL0     C57971   9.053   2.553   2.687 -1.3417  0.0719 -0.2401
  430MOL0     C57972   9.193   2.540   2.701 -0.9031 -0.2687 -0.5019
  430MOL0     C57973   9.265   2.648   2.761 -0.4682  0.1443  0.0265
  430MOL0     O57974   9.397   2.660   2.782  0.2115 -0.3501 -0.2945
  430MOL0     C57975   9.486   2.566   2.729 -0.7883 -0.2664  0.1240
  430MOL0     C57976   9.629   2.577   2.794  0.6460 -0.0456  1.1236
  430MOL0     C57977   9.614   2.562   2.942 -1.1315 -0.3820  0.7961
  430MOL0     C57978   9.751   2.562   3.006 -0.9350 -0.3909  0.8793
  430MOL0     C57979   9.809   2.689   2.994  0.6236 -1.2222  0.9947
  430MOL0     C57980   9.856   2.808   2.992 -0.1699  0.4381  0.6309
  430MOL0     C57981   9.193   2.750   2.813 -0.0113  1.0108 -0.6917
  430MOL0     C57982   9.053   2.753   2.818 -0.0195 -0.2177  0.7084
  430MOL0     H57983   8.586   2.860   2.675  4.1056 -1.6378  1.7768
  430MOL0     H57984   8.353   2.874   2.733  2.3640 -0.5027 -2.4405
  430MOL0     H57985   8.071   2.850   2.864 -3.1430 -1.7231 -0.2755
  430MOL0     H57986   8.162   2.756   2.741 -0.0782  1.2701  0.2119
  430MOL0     H57987   8.005   2.625   2.959 -2.3566  3.0161  0.6658
  430MOL0     H57988   7.930   2.660   2.808  1.1726  1.6032 -0.0718
  430MOL0     H57989   8.101   2.494   2.688  0.7890 -3.9254 -0.3653
  430MOL0     H57990   8.182   2.478   2.853 -1.5406  0.7228  2.1178
  430MOL0     H57991   7.991   2.341   2.918 -0.1712 -0.1336  0.0643
  430MOL0     H57992   7.897   2.405   2.777  1.2643  2.6098 -0.2764
  430MOL0     H57993   8.063   2.291   2.627 -2.4975  0.6295 -0.3625
  430MOL0     H57994   8.140   2.213   2.766  0.2604  2.7845  0.6489
  430MOL0     H57995   7.842   2.155   2.677 -0.4779 -0.2396  0.8177
  430MOL0     H57996   7.981   2.052   2.666 -0.5822 -0.2389  0.8083
  430MOL0     H57997   7.993   2.066   2.912  1.1683 -2.3010 -4.3575
  430MOL0     H57998   7.849   2.182   2.919 -0.7183  1.4885 -2.3432
  430MOL0     H57999   7.836   1.894   2.798 -1.2662 -0.2731 -0.3762
  430MOL0     H58000   7.714   2.024   2.816  1.4695  2.2885 -0.2294
  430MOL0     H58001   7.696   2.109   3.066  3.3761  1.0649  2.6537
  430MOL0     H58002   7.765   1.973   3.410  1.3118 -3.2037 -3.8912
  430MOL0     H58003   7.731   2.126   3.320  1.5897 -0.0532  2.9693
  430MOL0     H58004   7.488   2.062   3.303 -0.4467  1.9414  0.0555
  430MOL0     H58005   7.538   2.060   3.473 -1.3331  1.8691 -0.0318
  430MOL0     H58006   7.586   1.806   3.452 -1.0559 -1.9423  0.1673
  430MOL0     H58007   7.522   1.810   3.288  2.0457  0.8594 -0.3880
  430MOL0     H58008   7.361   1.738   3.450 -1.9206 -0.1444  4.4073
  430MOL0     H58009   7.296   1.889   3.384 -0.0334 -1.1398  0.0511
  430MOL0     H58010   7.294   2.114   3.680 -2.4822 -0.3478 -1.8639
  430MOL0     H58011   7.066   2.187   3.948  1.2018 -0.1828  0.7412
  430MOL0     H58012   7.188   2.248   3.828 -1.3188  2.4285 -0.6807
  430MOL0     H58013   7.028   2.262   3.792 -1.9507 -1.3625  0.9453
  430MOL0     H58014   6.703   2.000   4.103  1.6539  1.3590 -1.2249
  430MOL0     H58015   6.504   2.002   4.163  1.2381 -2.2102  0.7613
  430MOL0     H58016   6.279   1.967   4.197  3.6303 -0.6317 -2.1969
  430MOL0     H58017   6.197   2.061   4.060  2.8290 -0.0890  0.3335
  430MOL0     H58018   6.030   1.870   4.027 -1.9201  0.3705  0.9996
  430MOL0     H58019   6.083   1.792   4.168  1.2928  0.8403  2.3754
  430MOL0     H58020   5.981   2.073   4.151 -1.0429 -0.7407 -1.7396
  430MOL0     H58021   6.013   1.989   4.301 -2.3883  0.8425  0.9143
  430MOL0     H58022   5.795   1.880   4.119  2.5229  1.6701 -1.2982
  430MOL0     H58023   5.845   1.845   4.289 -0.4801 -0.0667  0.2107
  430MOL0     H58024   5.751   2.119   4.195 -3.3572 -0.3028 -0.3899
  430MOL0     H58025   5.813   2.068   4.350 -0.4178 -4.7628  2.1850
  430MOL0     H58026   5.560   2.091   4.333  0.5356 -0.0983  0.6528
  430MOL0     H58027   5.573   1.970   4.203  1.3667  0.3160  0.0461
  430MOL0     H58028   5.629   1.806   4.390 -1.6095 -0.7668  2.3874
  430MOL0     H58029   5.478   1.874   4.416 -0.1617 -1.3347  0.1086
  430MOL0     H58030   5.573   1.897   4.634  0.5297 -1.3462 -0.3326
  430MOL0     H58031   5.603   2.060   4.565 -1.2240  0.1745 -2.9371
  430MOL0     H58032   6.361   1.789   3.815  0.8303 -0.9917 -0.3252
  430MOL0     H58033   6.625   1.793   3.740 -1.7218  0.4254 -1.1624
  430MOL0     H58034   6.957   1.761   3.716 -0.9759  0.1588  0.9208
  430MOL0     H58035   7.159   1.722   3.591 -1.4042 -0.8751  0.4038
  430MOL0     H58036   8.450   2.613   3.073 -0.4319  1.1294  1.0695
  430MOL0     H58037   8.652   2.646   3.043 -2.2317 -0.6633  1.2600
  430MOL0     H58038   8.999   2.474   2.636 -2.4776  0.7806 -0.1636
  430MOL0     H58039   9.231   2.445   2.666 -0.7977 -0.3660 -0.1328
  430MOL0     H58040   9.453   2.465   2.754  3.0296 -2.2531 -1.8525
  430MOL0     H58041   9.490   2.568   2.620 -3.2981 -2.8770 -0.1315
  430MOL0     H58042   9.666   2.677   2.770 -2.2186  0.5409 -1.5100
  430MOL0     H58043   9.698   2.501   2.756  0.1004 -1.1791  2.2797
  430MOL0     H58044   9.559   2.468   2.956 -1.1352 -0.5191 -0.0948
  430MOL0     H58045   9.556   2.646   2.981  0.0761  1.0594 -0.4427
  430MOL0     H58046   9.820   2.489   2.963  0.2301  0.8443  0.5920
  430MOL0     H58047   9.738   2.555   3.115  1.3470  2.8545  1.5109
  430MOL0     H58048   9.873   2.913   2.990 -0.1324  0.4309  0.5057
  430MOL0     H58049   9.249   2.828   2.863 -1.9179  1.4986  0.7672
  430MOL0     H58050   9.002   2.833   2.870  0.7548  1.3818 -0.9038
  431MOL0     O58051   0.850   9.996   1.383  0.1441 -0.0036  0.0430
  431MOL0     C58052   0.772  10.086   1.353 -0.2203 -0.0357  0.6022
  431MOL0     O58053   0.642  10.073   1.301  0.4688  0.4895 -0.7211
  431MOL0     C58054   0.575   9.956   1.292  0.0375  0.3216  0.0482
  431MOL0     C58055   0.624   9.830   1.343 -0.4619 -1.3748  0.8359
  431MOL0     C58056   0.550   9.715   1.331  1.1286  0.1371  0.6762
  431MOL0     C58057   0.422   9.709   1.271 -0.3804 -0.3439 -0.1168
  431MOL0     O58058   0.364   9.590   1.258  0.7653  0.0109 -0.4221
  431MOL0     C58059   0.292   9.573   1.139  0.7748  0.7351 -0.0551
  431MOL0     C58060   0.272   9.420   1.133 -0.2839  0.7455  0.4568
  431MOL0     C58061   0.398   9.378   1.047 -0.2478 -0.1406 -0.7152
  431MOL0     C58062   0.419   9.231   1.055  0.5620 -0.2469 -0.2355
  431MOL0     C58063   0.491   9.191   1.186  0.1088  0.0779 -0.3509
  431MOL0     C58064   0.555   9.053   1.174 -0.3847 -0.5147 -0.2650
  431MOL0     C58065   0.452   8.936   1.150  0.3901  0.4775  0.1183
  431MOL0     C58066   0.531   8.811   1.127  0.5811  0.5735  0.7558
  431MOL0     N58067   0.597   8.805   0.993 -0.0076 -0.5369  0.4370
  431MOL0     C58068   0.548   8.879   0.883 -1.3306  0.0972  0.1336
  431MOL0     C58069   0.642   8.851   0.786 -0.0947 -0.1295  0.0793
  431MOL0     C58070   0.630   8.913   0.652  0.2651  0.4764  0.1982
  431MOL0     C58071   0.757   8.981   0.620  0.8458 -0.0585  0.2179
  431MOL0     C58072   0.794   9.104   0.694  0.0396 -0.4404  0.4800
  431MOL0     C58073   0.919   9.185   0.631 -0.7344  0.3274  0.0369
  431MOL0     O58074   0.878   9.266   0.522 -0.1635 -0.3969  0.0727
  431MOL0     C58075   0.969   9.319   0.432  0.8863  1.2915  0.8114
  431MOL0     C58076   0.912   9.356   0.307 -0.2855  0.0803  0.2405
  431MOL0     C58077   0.991   9.416   0.197  0.3606  1.4556 -0.5325
  431MOL0     C58078   0.926   9.435   0.060 -0.2738 -0.0402 -1.1038
  431MOL0     C58079   1.119   9.450   0.223  0.1681  0.5282  0.4772
  431MOL0     C58080   1.208   9.517   0.127 -0.3191  0.2525 -0.3221
  431MOL0     O58081   1.339   9.479   0.135 -0.6201 -0.7896 -0.7619
  431MOL0     C58082   1.436   9.539   0.054  0.4109 -0.2450  0.3632
  431MOL0     C58083   1.530   9.459  -0.017  0.6077 -0.3329  0.0763
  431MOL0     C58084   1.636   9.509  -0.089 -0.0658  0.3803  0.6333
  431MOL0     C58085   1.643   9.647  -0.110 -0.0733  0.1887 -0.5491
  431MOL0     O58086   1.739   9.690  -0.203  0.0941 -0.0735 -0.0722
  431MOL0     C58087   1.701   9.809  -0.276  0.0007  0.7178  0.5496
  431MOL0     C58088   1.792   9.825  -0.397 -0.8181 -0.5605 -0.5784
  431MOL0     C58089   1.915   9.896  -0.356 -0.8773 -0.1160 -0.3261
  431MOL0     C58090   1.927  10.044  -0.405 -0.5546  0.0188  0.5367
  431MOL0     C58091   2.055  10.123  -0.390  0.2325 -0.3086  0.0003
  431MOL0     C58092   2.151  10.100  -0.507 -0.1658  0.5169 -0.2773
  431MOL0     C58093   2.266  10.202  -0.512  0.2172 -0.6396  0.2144
  431MOL0     C58094   2.354  10.160  -0.628  1.0437 -0.2188 -0.8154
  431MOL0    Cl58095   2.269  10.182  -0.794  0.4631  0.1489  0.1806
  431MOL0     C58096   1.561   9.733  -0.035 -1.2108  0.4289  0.1970
  431MOL0     C58097   1.457   9.679   0.041  0.2096 -0.0345  0.7465
  431MOL0     O58098   1.157   9.576   0.034 -0.1965  0.3438  0.6334
  431MOL0     C58099   1.182   9.415   0.348  0.1394 -0.2768 -0.3251
  431MOL0     C58100   1.104   9.352   0.448  0.1472  0.3399  0.3932
  431MOL0     N58101   0.746   8.779   0.838 -0.3376 -0.3854 -0.4994
  431MOL0     N58102   0.712   8.734   0.955 -0.1651 -0.3797 -0.3193
  431MOL0     C58103   0.372   9.830   1.219  0.7358  0.3918 -0.3338
  431MOL0     C58104   0.451   9.950   1.228 -0.3267 -0.4107  0.1207
  431MOL0     C58105   0.820  10.230   1.356  0.5331 -0.2667 -0.1852
  431MOL0     C58106   0.748  10.344   1.294  0.1094 -0.0208  0.3775
  431MOL0     C58107   0.793  10.470   1.284 -0.0440 -0.4545 -0.2764
  431MOL0     C58108   0.920  10.490   1.335  0.6589  0.1904  0.9507
  431MOL0     O58109   0.971  10.623   1.318  0.6193 -0.1375  0.3194
  431MOL0     C58110   1.103  10.651   1.354 -0.2854 -0.4444 -0.1085
  431MOL0     C58111   1.128  10.796   1.301 -0.1687  0.8510  0.5460
  431MOL0     C58112   1.280  10.829   1.298 -0.2928  0.0661  0.6340
  431MOL0     C58113   1.336  10.833   1.444  0.3530 -0.3153 -0.2602
  431MOL0     C58114   1.468  10.899   1.460  0.0596  0.2820 -0.1880
  431MOL0     C58115   1.586  10.955   1.454 -0.0574  0.8221 -0.1857
  431MOL0     C58116   0.993  10.384   1.398 -1.1700  0.3034 -0.2902
  431MOL0     C58117   0.948  10.251   1.405  0.1401 -0.3324  0.1895
  431MOL0     H58118   0.707   9.823   1.413  1.7457 -2.4999 -1.7171
  431MOL0     H58119   0.590   9.625   1.377  1.9250  0.6070  0.9298
  431MOL0     H58120   0.190   9.613   1.140  0.4400 -0.0801 -0.1921
  431MOL0     H58121   0.353   9.610   1.056 -1.5940  1.8771 -1.3884
  431MOL0     H58122   0.262   9.365   1.227  2.2536 -1.2230 -0.3117
  431MOL0     H58123   0.182   9.398   1.075  0.0019 -1.1341  0.6660
  431MOL0     H58124   0.384   9.413   0.945  1.0479  1.1886 -0.4704
  431MOL0     H58125   0.486   9.428   1.089  0.3225 -1.5396 -0.1819
  431MOL0     H58126   0.327   9.175   1.039  2.0152 -2.6206 -0.7497
  431MOL0     H58127   0.494   9.202   0.981  0.9538  0.8491 -0.3008
  431MOL0     H58128   0.575   9.254   1.217 -0.3890  0.3009  0.5832
  431MOL0     H58129   0.422   9.194   1.271  0.5592  1.2020 -0.0185
  431MOL0     H58130   0.627   9.060   1.093 -0.7784 -0.1623 -0.5878
  431MOL0     H58131   0.607   9.028   1.267 -3.3494 -2.6184  0.9996
  431MOL0     H58132   0.385   8.930   1.237 -3.4078  0.6832 -2.5803
  431MOL0     H58133   0.374   8.953   1.076  0.1760 -0.2572  0.1656
  431MOL0     H58134   0.467   8.724   1.142 -0.4328  1.6771  3.7282
  431MOL0     H58135   0.609   8.805   1.203  1.0344  1.5390  0.3925
  431MOL0     H58136   0.455   8.935   0.882 -2.1190 -1.1261 -1.7390
  431MOL0     H58137   0.609   8.830   0.584  2.2877 -1.5260  1.8501
  431MOL0     H58138   0.543   8.980   0.653  1.9316  2.8445  2.5716
  431MOL0     H58139   0.747   9.009   0.515  3.4292 -1.0764 -0.3694
  431MOL0     H58140   0.835   8.906   0.629  3.2962  2.1898 -1.0738
  431MOL0     H58141   0.810   9.082   0.800 -0.6412 -1.2598  0.4247
  431MOL0     H58142   0.707   9.170   0.694  0.0173 -0.4298 -1.3077
  431MOL0     H58143   0.999   9.118   0.599  0.3096  2.2583 -1.7010
  431MOL0     H58144   0.952   9.249   0.714 -3.8745 -0.3998  2.0095
  431MOL0     H58145   0.810   9.324   0.286 -0.9748  2.8307 -1.0525
  431MOL0     H58146   0.832   9.379   0.061 -0.7559  0.6992 -2.3641
  431MOL0     H58147   0.909   9.543   0.056  2.0836  0.4201 -0.5278
  431MOL0     H58148   0.981   9.406  -0.030  3.2047  3.0894 -0.2337
  431MOL0     H58149   1.522   9.351  -0.011  1.6545 -0.3819  0.9824
  431MOL0     H58150   1.705   9.446  -0.143  1.5295  0.0630  2.9196
  431MOL0     H58151   1.597   9.797  -0.309  0.2519 -1.5377  0.4260
  431MOL0     H58152   1.706   9.904  -0.222  0.1176  0.3541  1.1842
  431MOL0     H58153   1.817   9.728  -0.441  1.3488  1.0969 -3.3735
  431MOL0     H58154   1.739   9.878  -0.477  0.5630  1.8538  0.0009
  431MOL0     H58155   2.001   9.840  -0.396 -1.9329  0.6701 -4.1303
  431MOL0     H58156   1.941   9.907  -0.251 -0.6249 -1.3788 -0.2351
  431MOL0     H58157   1.899  10.046  -0.511 -1.1315  0.1056  0.6877
  431MOL0     H58158   1.843  10.106  -0.372  1.4831  1.8601  2.6236
  431MOL0     H58159   2.098  10.121  -0.290 -2.3732  2.5165  1.3360
  431MOL0     H58160   2.022  10.227  -0.402  2.3610  0.3936 -0.2909
  431MOL0     H58161   2.192   9.999  -0.496 -1.8620 -0.1171  0.4730
  431MOL0     H58162   2.099  10.100  -0.603 -0.0661 -2.8015 -0.4340
  431MOL0     H58163   2.317  10.203  -0.416 -0.0576  1.5243  0.3705
  431MOL0     H58164   2.217  10.295  -0.542 -1.7511 -2.4207 -2.6984
  431MOL0     H58165   2.382  10.055  -0.612 -1.3998 -0.9878 -1.2180
  431MOL0     H58166   2.448  10.216  -0.623 -0.3409  2.1332  0.7725
  431MOL0     H58167   1.566   9.841  -0.028 -2.6100  0.3908  3.2456
  431MOL0     H58168   1.394   9.754   0.087  0.5911  0.3669  0.6247
  431MOL0     H58169   1.282   9.452   0.366 -0.2112  0.3648  0.3441
  431MOL0     H58170   1.147   9.330   0.546 -0.4777  0.5308  0.7145
  431MOL0     H58171   0.271   9.839   1.180  0.0095  1.4213  1.6377
  431MOL0     H58172   0.407  10.042   1.190 -0.5080 -0.1401  0.9745
  431MOL0     H58173   0.651  10.317   1.252  1.2233 -0.2668 -2.2186
  431MOL0     H58174   0.740  10.550   1.234  0.0700  0.3017  0.7891
  431MOL0     H58175   1.117  10.632   1.461 -0.1361 -1.2254 -0.2604
  431MOL0     H58176   1.176  10.581   1.312 -1.3973 -3.1933  2.2015
  431MOL0     H58177   1.071  10.873   1.355 -0.9595  0.3899  0.3871
  431MOL0     H58178   1.089  10.793   1.199  2.7210 -1.4208 -0.6478
  431MOL0     H58179   1.292  10.928   1.254 -0.9239  0.0410  0.3914
  431MOL0     H58180   1.341  10.764   1.235 -1.1877  1.2436 -1.5266
  431MOL0     H58181   1.344  10.729   1.476  0.8377 -1.2938 -3.1966
  431MOL0     H58182   1.271  10.881   1.517  2.3812  1.3954  0.5392
  431MOL0     H58183   1.693  10.967   1.451  0.4257 -2.5514 -2.4651
  431MOL0     H58184   1.079  10.408   1.460  1.6374 -0.2983 -3.6738
  431MOL0     H58185   1.006  10.177   1.460  1.5275  1.2996  1.0385
  432MOL0     O58186   5.603   0.524   1.144 -0.1383  0.1679 -0.5192
  432MOL0     C58187   5.676   0.584   1.063 -0.5880 -0.8394  0.6201
  432MOL0     O58188   5.751   0.694   1.093 -0.1067  0.0826 -0.2062
  432MOL0     C58189   5.722   0.744   1.212  1.0908  0.3423  0.4779
  432MOL0     C58190   5.743   0.683   1.338 -0.2846  0.2142 -0.3373
  432MOL0     C58191   5.729   0.747   1.455 -0.0026 -0.7201 -0.2744
  432MOL0     C58192   5.688   0.884   1.456 -0.0539 -0.8110  0.4859
  432MOL0     O58193   5.666   0.967   1.563  0.0360 -0.4763 -0.6136
  432MOL0     C58194   5.639   0.899   1.687  0.0221  0.4200 -0.1877
  432MOL0     C58195   5.496   0.836   1.685 -0.1819  0.0665 -0.2105
  432MOL0     C58196   5.391   0.933   1.627 -0.2286  0.4904  0.4462
  432MOL0     C58197   5.249   0.879   1.612 -0.5395 -0.2435  0.4910
  432MOL0     C58198   5.149   0.984   1.604 -0.6706  0.1295 -0.6944
  432MOL0     C58199   5.009   0.938   1.603 -0.4058  0.9403 -0.0119
  432MOL0     C58200   4.958   0.908   1.740  0.1331  0.4262  0.1212
  432MOL0     C58201   4.805   0.893   1.735 -0.2644  0.7640  0.2295
  432MOL0     N58202   4.750   0.825   1.860  0.3254  0.0408  0.1695
  432MOL0     C58203   4.772   0.847   1.991 -0.6598  0.8742 -0.4657
  432MOL0     C58204   4.699   0.745   2.054  0.0161  0.2194 -0.1503
  432MOL0     C58205   4.675   0.729   2.200 -0.3653  0.7116  0.4613
  432MOL0     C58206   4.640   0.583   2.236 -0.0203 -0.6559 -0.0773
  432MOL0     C58207   4.614   0.565   2.388  0.2422 -0.4474 -0.1227
  432MOL0     C58208   4.590   0.426   2.447  0.0882 -0.6045 -0.3636
  432MOL0     O58209   4.489   0.371   2.383  1.0012 -0.2820 -0.7301
  432MOL0     C58210   4.434   0.242   2.411  0.4310 -0.3345 -1.1919
  432MOL0     C58211   4.477   0.164   2.518 -0.2047 -1.3833  0.1854
  432MOL0     C58212   4.415   0.045   2.561 -0.7109  0.0674 -0.3398
  432MOL0     C58213   4.467  -0.015   2.689  0.4077  0.1917  0.7170
  432MOL0     C58214   4.312  -0.007   2.487  1.0024 -0.9203  0.0629
  432MOL0     C58215   4.248  -0.140   2.501 -0.3156 -0.7699  0.6775
  432MOL0     O58216   4.121  -0.152   2.457  0.0196 -0.1041  0.7083
  432MOL0     C58217   4.042  -0.266   2.484  1.4667  0.2292  0.4276
  432MOL0     C58218   4.037  -0.333   2.603  0.0561  0.1590 -0.7090
  432MOL0     C58219   3.956  -0.451   2.620  0.3010  0.5106 -0.5718
  432MOL0     C58220   3.879  -0.507   2.513  0.4120 -0.1086  0.1191
  432MOL0     O58221   3.808  -0.620   2.518  0.5814  0.8416 -0.6784
  432MOL0     C58222   3.796  -0.700   2.638 -0.8550 -0.2423  0.2015
  432MOL0     C58223   3.709  -0.820   2.604 -0.1619 -0.5936 -1.0025
  432MOL0     C58224   3.568  -0.788   2.546 -0.0942  0.9374 -0.1866
  432MOL0     C58225   3.476  -0.904   2.598 -0.2579  0.1547  0.8575
  432MOL0     C58226   3.337  -0.888   2.537 -0.3877  0.0202 -0.0727
  432MOL0     C58227   3.232  -0.989   2.582 -0.2002 -0.9090  0.7069
  432MOL0     C58228   3.093  -0.934   2.543 -0.0326 -1.1530  0.3195
  432MOL0     C58229   2.972  -1.030   2.581 -0.3581 -0.0372  0.4692
  432MOL0    Cl58230   3.007  -1.181   2.498 -0.4406 -0.3137 -0.2366
  432MOL0     C58231   3.883  -0.441   2.392 -0.0860 -0.3448 -0.9649
  432MOL0     C58232   3.963  -0.330   2.385  0.5382  0.0815  0.9643
  432MOL0     O58233   4.314  -0.226   2.556  0.4694  0.0567 -0.4649
  432MOL0     C58234   4.266   0.068   2.378 -0.5819 -0.6257 -0.9333
  432MOL0     C58235   4.324   0.190   2.343 -1.0821  0.3485  0.5922
  432MOL0     N58236   4.635   0.670   1.951  0.1015 -0.0704  0.5006
  432MOL0     N58237   4.680   0.717   1.838 -0.0607 -0.2996  0.3240
  432MOL0     C58238   5.670   0.952   1.337  0.0977 -0.1029 -0.0798
  432MOL0     C58239   5.684   0.878   1.220  0.2473 -0.2041  0.2865
  432MOL0     C58240   5.699   0.506   0.938 -0.3401  0.3915 -0.3986
  432MOL0     C58241   5.752   0.579   0.839  0.0855 -0.4723  0.5212
  432MOL0     C58242   5.771   0.519   0.711  0.1270 -0.1951  0.2468
  432MOL0     C58243   5.730   0.388   0.677 -0.3128  0.1467  0.7901
  432MOL0     O58244   5.741   0.333   0.553 -0.4978 -0.0454 -0.1000
  432MOL0     C58245   5.642   0.234   0.515  0.2811 -0.6255  0.6059
  432MOL0     C58246   5.646   0.214   0.364  0.2036 -0.1788 -0.0527
  432MOL0     C58247   5.553   0.086   0.337  0.3852 -0.9259  0.1806
  432MOL0     C58248   5.594   0.010   0.203 -0.5283 -0.3270  0.1334
  432MOL0     C58249   5.555   0.095   0.093  0.4903 -0.1403  0.7969
  432MOL0     C58250   5.519   0.151  -0.006  0.8436 -0.2551 -0.4105
  432MOL0     C58251   5.671   0.328   0.780  0.8254  0.6130 -0.0266
  432MOL0     C58252   5.646   0.381   0.910  0.1726  0.7701 -0.0721
  432MOL0     H58253   5.773   0.578   1.338 -2.1155 -0.4135  2.5621
  432MOL0     H58254   5.736   0.695   1.550 -3.7982 -1.4758 -0.2789
  432MOL0     H58255   5.711   0.819   1.706 -2.0303 -1.5180 -0.1565
  432MOL0     H58256   5.644   0.975   1.766  0.8388 -1.1666  1.3865
  432MOL0     H58257   5.497   0.739   1.634 -1.5456  0.7258 -1.5854
  432MOL0     H58258   5.467   0.817   1.789  0.8925  0.4909  0.1729
  432MOL0     H58259   5.375   1.014   1.698 -2.1470  1.9434 -1.4887
  432MOL0     H58260   5.420   0.972   1.529 -0.7695  5.4912  1.9888
  432MOL0     H58261   5.234   0.824   1.519  0.0364 -0.2846  0.4159
  432MOL0     H58262   5.230   0.815   1.698 -2.3414  0.2717  0.4984
  432MOL0     H58263   5.161   1.057   1.685  1.7477  3.4219 -3.6765
  432MOL0     H58264   5.168   1.042   1.513  1.7082  1.3775  0.5059
  432MOL0     H58265   4.949   1.023   1.569 -0.1792  1.2615  0.3665
  432MOL0     H58266   5.000   0.848   1.542 -0.5459  1.0089 -0.0901
  432MOL0     H58267   5.012   0.821   1.780 -3.0181 -2.9396 -2.3207
  432MOL0     H58268   4.969   0.987   1.814  0.2795  0.5267 -0.0071
  432MOL0     H58269   4.781   0.829   1.650 -0.7386 -0.4640  1.2500
  432MOL0     H58270   4.764   0.993   1.719  2.3374  1.9993  0.6998
  432MOL0     H58271   4.847   0.907   2.042  0.7119 -0.9715 -0.2017
  432MOL0     H58272   4.765   0.769   2.248  0.2698  2.2766 -1.8645
  432MOL0     H58273   4.595   0.801   2.218  0.9814  2.0168  1.4337
  432MOL0     H58274   4.722   0.513   2.217  1.5368  0.1330  3.0029
  432MOL0     H58275   4.554   0.551   2.177 -0.0513  0.3034 -0.5816
  432MOL0     H58276   4.526   0.629   2.404  0.4900 -0.6399  2.4228
  432MOL0     H58277   4.704   0.609   2.431 -0.0385 -0.1542  0.1680
  432MOL0     H58278   4.569   0.439   2.554 -1.2907  0.8811 -0.7682
  432MOL0     H58279   4.681   0.366   2.436 -0.7841 -1.9557 -0.5323
  432MOL0     H58280   4.567   0.193   2.571 -0.2662 -0.9283  0.0407
  432MOL0     H58281   4.493   0.059   2.765  2.1114  0.8707 -0.4550
  432MOL0     H58282   4.394  -0.079   2.740  0.2658  0.2145  0.5411
  432MOL0     H58283   4.555  -0.077   2.669  0.4904  0.0582  1.4655
  432MOL0     H58284   4.087  -0.299   2.693 -0.7011 -1.0486  0.1996
  432MOL0     H58285   3.958  -0.508   2.713  1.8585  3.2480  1.2141
  432MOL0     H58286   3.886  -0.734   2.690 -0.9589 -0.4297  0.2551
  432MOL0     H58287   3.749  -0.638   2.715  1.7289  0.0003  1.7082
  432MOL0     H58288   3.767  -0.880   2.535  0.1378 -0.6701 -0.6866
  432MOL0     H58289   3.685  -0.885   2.689 -4.7848 -0.3087 -1.7879
  432MOL0     H58290   3.574  -0.789   2.436  5.1809 -0.6342 -0.1575
  432MOL0     H58291   3.530  -0.690   2.575 -1.9810  0.2496 -0.1786
  432MOL0     H58292   3.516  -1.002   2.573 -0.8891 -0.7261  3.0356
  432MOL0     H58293   3.469  -0.904   2.708  0.5501 -0.1567  0.9138
  432MOL0     H58294   3.341  -0.895   2.428  0.7452  2.0572 -0.2196
  432MOL0     H58295   3.309  -0.786   2.565  1.7041  0.4052  0.8251
  432MOL0     H58296   3.247  -1.083   2.527 -0.9656 -1.5019  1.4810
  432MOL0     H58297   3.233  -1.019   2.687  0.5044 -1.9020  0.4301
  432MOL0     H58298   3.094  -0.918   2.435  0.9940  1.0881  0.6016
  432MOL0     H58299   3.088  -0.834   2.587  1.4446 -0.0458 -1.8231
  432MOL0     H58300   2.884  -0.986   2.534  0.9832  1.3206 -0.8728
  432MOL0     H58301   2.958  -1.046   2.689 -1.0428  0.7459  0.5100
  432MOL0     H58302   3.830  -0.457   2.299  0.4239  1.2926 -1.5714
  432MOL0     H58303   3.968  -0.265   2.298  6.0556  0.4126  1.1742
  432MOL0     H58304   4.188   0.041   2.307 -2.2896 -2.6371  1.5233
  432MOL0     H58305   4.299   0.246   2.253 -3.8534 -3.8773 -1.6350
  432MOL0     H58306   5.636   1.054   1.350 -1.9925 -1.0101  2.6159
  432MOL0     H58307   5.658   0.938   1.133  0.1477  1.1078  1.1872
  432MOL0     H58308   5.783   0.683   0.839  0.3508 -0.5450 -0.3980
  432MOL0     H58309   5.813   0.580   0.632 -1.6100  1.3222  0.4531
  432MOL0     H58310   5.651   0.135   0.560 -0.8678 -1.7376 -1.4704
  432MOL0     H58311   5.540   0.268   0.536  0.6564 -0.0380  1.5761
  432MOL0     H58312   5.744   0.209   0.317  0.1839  2.0596 -0.4147
  432MOL0     H58313   5.597   0.296   0.311  0.7381 -0.6728 -1.3433
  432MOL0     H58314   5.449   0.120   0.336  0.4375 -0.7663  0.2456
  432MOL0     H58315   5.570   0.018   0.422  5.4774  1.6850  1.6373
  432MOL0     H58316   5.540  -0.085   0.200 -1.9813  0.4800 -2.0146
  432MOL0     H58317   5.700  -0.012   0.193 -0.4452  0.3549 -0.5806
  432MOL0     H58318   5.486   0.196  -0.098  0.9444  0.2875 -0.1820
  432MOL0     H58319   5.627   0.229   0.769 -0.8278  1.2126  0.8085
  432MOL0     H58320   5.595   0.304   0.967 -0.1311  2.6413  2.3475
  433MOL0     O58321   8.298   8.662   0.647 -0.0569  0.1601 -0.2298
  433MOL0     C58322   8.344   8.541   0.629 -0.0016 -0.7238  0.2157
  433MOL0     O58323   8.256   8.438   0.631  0.5283  0.0199 -0.2514
  433MOL0     C58324   8.134   8.470   0.693 -0.4048  0.5536 -1.0231
  433MOL0     C58325   8.022   8.509   0.620 -0.0457  0.0609 -0.8320
  433MOL0     C58326   7.911   8.559   0.695  0.1552  0.2519  0.5484
  433MOL0     C58327   7.906   8.551   0.830  0.1719 -0.2911 -0.7843
  433MOL0     O58328   7.799   8.595   0.900  0.4923 -0.0518  0.5239
  433MOL0     C58329   7.666   8.549   0.853 -1.8266 -0.2704 -0.4364
  433MOL0     C58330   7.569   8.544   0.962  0.0806  0.1467  0.2081
  433MOL0     C58331   7.619   8.454   1.081  0.4414 -1.2283 -0.1550
  433MOL0     C58332   7.673   8.539   1.197  0.4696 -0.0628  0.0174
  433MOL0     C58333   7.759   8.450   1.287  0.2637 -0.0068 -0.0035
  433MOL0     C58334   7.820   8.533   1.410  0.8856  0.5450 -0.4710
  433MOL0     C58335   7.906   8.437   1.492 -0.3375 -0.0009  0.0716
  433MOL0     C58336   7.912   8.467   1.633 -0.1808  0.1481  1.3605
  433MOL0     N58337   7.782   8.428   1.692  0.5931 -0.2402  0.9200
  433MOL0     C58338   7.739   8.298   1.714 -0.0927 -0.3930  0.3309
  433MOL0     C58339   7.607   8.311   1.762 -0.5669 -0.5674 -0.1111
  433MOL0     C58340   7.513   8.192   1.777  0.1769  0.6959  0.2203
  433MOL0     C58341   7.498   8.095   1.659  0.3721  0.2874  0.5960
  433MOL0     C58342   7.425   8.170   1.545  0.0768  0.1568  0.8208
  433MOL0     C58343   7.265   8.155   1.541 -0.5159  0.1089  0.2143
  433MOL0     O58344   7.198   8.201   1.654  0.1617  0.1130  0.0127
  433MOL0     C58345   7.074   8.150   1.668  0.6172 -0.4844 -0.0569
  433MOL0     C58346   7.063   8.013   1.700  0.6201  0.8626 -0.5580
  433MOL0     C58347   6.933   7.959   1.713  0.3903 -0.0415  0.0151
  433MOL0     C58348   6.919   7.820   1.733  0.2750  0.0519  0.0104
  433MOL0     C58349   6.819   8.039   1.702 -0.2022  0.6794 -0.6723
  433MOL0     C58350   6.679   8.002   1.737 -0.6446  0.1079  0.1454
  433MOL0     O58351   6.650   7.997   1.866 -0.3136  0.0138  0.2717
  433MOL0     C58352   6.521   7.999   1.889  0.8017  0.0639 -1.2299
  433MOL0     C58353   6.453   8.117   1.912 -0.3962  0.2445 -0.0625
  433MOL0     C58354   6.319   8.113   1.945  0.0268  0.5902 -0.1709
  433MOL0     C58355   6.247   7.989   1.972  0.6354 -0.6440 -0.4990
  433MOL0     O58356   6.116   7.989   2.007  1.0202 -0.2363 -0.1472
  433MOL0     C58357   6.021   7.913   1.932  0.8945  0.5898 -0.5798
  433MOL0     C58358   5.910   7.854   2.029 -0.7047  0.0325  0.8462
  433MOL0     C58359   5.799   7.806   1.934  0.0426 -0.0714  0.3317
  433MOL0     C58360   5.682   7.769   2.037 -0.0112  0.1466 -0.1152
  433MOL0     C58361   5.561   7.717   1.966 -0.0835  0.2669  0.0905
  433MOL0     C58362   5.455   7.642   2.052 -0.0045 -0.3815 -0.5634
  433MOL0     C58363   5.376   7.533   1.964 -1.0244  0.7186 -0.1868
  433MOL0     C58364   5.231   7.570   1.979 -0.0258 -0.2828  0.9929
  433MOL0    Cl58365   5.180   7.716   1.916 -0.0963  0.2994 -0.3441
  433MOL0     C58366   6.327   7.875   1.961 -0.4143  0.6372  0.7806
  433MOL0     C58367   6.465   7.878   1.923  0.0006  0.6358  0.3284
  433MOL0     O58368   6.605   7.972   1.644 -0.5623 -0.5581 -0.1937
  433MOL0     C58369   6.840   8.178   1.670  0.3402  0.3760  0.1712
  433MOL0     C58370   6.965   8.234   1.664 -0.0875  1.0122  0.6452
  433MOL0     N58371   7.584   8.446   1.776 -0.1390 -0.2356 -0.2317
  433MOL0     N58372   7.684   8.511   1.733  0.4833  0.7845  0.0643
  433MOL0     C58373   8.021   8.503   0.901  0.0710 -0.1395  0.1912
  433MOL0     C58374   8.138   8.479   0.840  0.7947  0.6634 -0.4891
  433MOL0     C58375   8.474   8.528   0.561  0.5661  0.4270 -1.1444
  433MOL0     C58376   8.524   8.410   0.513 -0.4868  0.5788 -0.2621
  433MOL0     C58377   8.642   8.403   0.441 -0.2760 -0.5480 -0.0540
  433MOL0     C58378   8.736   8.508   0.455 -0.0622 -0.0461  0.4825
  433MOL0     O58379   8.859   8.487   0.405  0.6838 -0.1798 -0.3561
  433MOL0     C58380   8.960   8.506   0.499  0.2587 -0.0444  0.0237
  433MOL0     C58381   9.080   8.536   0.417  0.7589 -0.1665  0.6634
  433MOL0     C58382   9.212   8.571   0.494  0.4265 -0.4795 -0.2740
  433MOL0     C58383   9.322   8.636   0.404 -0.4760 -0.5763  0.0706
  433MOL0     C58384   9.430   8.671   0.495 -0.2047 -0.1731 -0.4144
  433MOL0     C58385   9.525   8.694   0.566  0.3764  0.4035  0.2265
  433MOL0     C58386   8.702   8.629   0.512 -0.4511  0.0119 -0.9203
  433MOL0     C58387   8.567   8.638   0.563  1.1843 -0.2241 -0.2243
  433MOL0     H58388   8.031   8.518   0.512 -0.3741  2.3049 -0.7327
  433MOL0     H58389   7.831   8.609   0.641  3.5397  2.0231 -3.3466
  433MOL0     H58390   7.638   8.621   0.776 -4.9596 -1.2841 -0.3904
  433MOL0     H58391   7.664   8.444   0.821  0.0731 -0.8082  1.0236
  433MOL0     H58392   7.543   8.642   1.003 -2.2028 -0.3732  0.1169
  433MOL0     H58393   7.476   8.499   0.927  0.5421 -0.4004 -0.3413
  433MOL0     H58394   7.529   8.405   1.118 -1.0274  0.3308 -1.4845
  433MOL0     H58395   7.698   8.387   1.047  2.0445  0.9233 -0.9130
  433MOL0     H58396   7.730   8.627   1.165 -1.5133  1.5667  0.7727
  433MOL0     H58397   7.593   8.586   1.255 -0.0891 -0.2399 -0.6030
  433MOL0     H58398   7.703   8.361   1.317 -0.7869  1.0203  1.1710
  433MOL0     H58399   7.841   8.423   1.220  2.4034 -0.0959  2.4956
  433MOL0     H58400   7.858   8.633   1.387  1.3526  0.9056  1.6068
  433MOL0     H58401   7.732   8.566   1.466  0.8405 -1.4489  0.7314
  433MOL0     H58402   7.873   8.332   1.491  0.3108 -0.2088 -1.2927
  433MOL0     H58403   8.008   8.437   1.452  0.4230  3.6647  1.6928
  433MOL0     H58404   7.922   8.576   1.641 -0.9524  0.1377  2.6988
  433MOL0     H58405   7.993   8.411   1.682  1.4000  0.1407 -1.0800
  433MOL0     H58406   7.789   8.209   1.679 -0.4923  0.0065 -1.3204
  433MOL0     H58407   7.548   8.135   1.864  1.9814  0.9116 -0.3101
  433MOL0     H58408   7.420   8.242   1.803 -0.2362  0.5947 -0.9950
  433MOL0     H58409   7.455   7.996   1.677 -0.4046 -0.0680 -2.4828
  433MOL0     H58410   7.597   8.075   1.619  0.5333  1.3346  0.4412
  433MOL0     H58411   7.462   8.147   1.445 -0.0922  0.4069  0.6984
  433MOL0     H58412   7.449   8.277   1.554  0.6945  0.1980 -1.0103
  433MOL0     H58413   7.239   8.053   1.511 -0.0193  0.4104 -1.3143
  433MOL0     H58414   7.225   8.218   1.462 -4.2884 -1.7732  0.3958
  433MOL0     H58415   7.146   7.943   1.698 -0.3410 -0.2817 -1.8479
  433MOL0     H58416   6.919   7.770   1.636  1.4547 -0.7903  0.4199
  433MOL0     H58417   6.998   7.772   1.791 -2.4814 -2.0370  2.3035
  433MOL0     H58418   6.834   7.801   1.798  1.0195 -2.9403  0.2460
  433MOL0     H58419   6.516   8.204   1.893  0.3668  0.2015  1.9497
  433MOL0     H58420   6.252   8.197   1.940 -0.7362  0.0165  0.2193
  433MOL0     H58421   5.981   7.977   1.853 -1.1714 -0.9772 -0.8820
  433MOL0     H58422   6.078   7.828   1.893 -0.0651 -0.6910  0.7079
  433MOL0     H58423   5.950   7.773   2.091  2.9802  0.6040 -0.5231
  433MOL0     H58424   5.883   7.940   2.091 -0.8012 -0.3664  1.3647
  433MOL0     H58425   5.833   7.721   1.873  1.9523  0.9049 -0.0446
  433MOL0     H58426   5.760   7.879   1.863  0.6637  1.2981  1.3457
  433MOL0     H58427   5.708   7.683   2.100 -3.5243 -0.8299  0.2067
  433MOL0     H58428   5.655   7.854   2.099 -1.2079  0.8028 -1.4689
  433MOL0     H58429   5.591   7.640   1.894 -0.5096  2.6532 -2.8214
  433MOL0     H58430   5.510   7.795   1.909  1.2195 -0.1292 -1.6889
  433MOL0     H58431   5.508   7.587   2.130  3.3359  3.5042  0.3000
  433MOL0     H58432   5.402   7.719   2.108  2.4428 -0.5719  2.2407
  433MOL0     H58433   5.393   7.439   2.016  1.2816  0.1354 -1.8139
  433MOL0     H58434   5.406   7.526   1.859 -0.5633 -1.5202  0.0603
  433MOL0     H58435   5.198   7.574   2.083  0.1639  2.5895  1.0301
  433MOL0     H58436   5.171   7.493   1.930  2.7347  0.0397 -3.4666
  433MOL0     H58437   6.285   7.775   1.971  0.1610  0.2705 -0.3324
  433MOL0     H58438   6.536   7.796   1.924 -2.1748 -1.3426  0.6782
  433MOL0     H58439   6.754   8.243   1.674  0.2483  0.6620 -3.2755
  433MOL0     H58440   6.976   8.337   1.631 -1.7151  0.8854 -0.4702
  433MOL0     H58441   8.019   8.500   1.010  1.9773  1.8045  0.3543
  433MOL0     H58442   8.222   8.443   0.900 -1.0410 -0.7221  1.3809
  433MOL0     H58443   8.461   8.322   0.511  0.5362 -0.2245 -3.7963
  433MOL0     H58444   8.673   8.310   0.393 -2.2390  1.1912 -5.4314
  433MOL0     H58445   8.943   8.579   0.579 -2.1061 -2.6861  2.1301
  433MOL0     H58446   8.982   8.420   0.563  1.1954 -0.9469 -1.4338
  433MOL0     H58447   9.058   8.612   0.340  0.0271 -1.7790 -0.7813
  433MOL0     H58448   9.106   8.448   0.358  1.9444 -0.5961  1.7806
  433MOL0     H58449   9.254   8.485   0.548  1.9425  0.2766 -0.2097
  433MOL0     H58450   9.183   8.640   0.574 -0.5032 -2.6882  1.3972
  433MOL0     H58451   9.286   8.728   0.358 -0.1682 -0.0826  0.7940
  433MOL0     H58452   9.367   8.569   0.331 -0.2543 -1.4614  0.9942
  433MOL0     H58453   9.615   8.720   0.617 -0.1461  0.2832  1.2341
  433MOL0     H58454   8.773   8.708   0.534  0.2714 -1.8342  5.2773
  433MOL0     H58455   8.543   8.738   0.598 -1.2628 -0.8056 -0.0668
  434MOL0     O58456  11.383   9.447   4.530 -0.1487  0.0472  0.1036
  434MOL0     C58457  11.353   9.490   4.646 -0.2608  0.2488  1.3097
  434MOL0     O58458  11.247   9.454   4.721  0.2634  0.0756 -0.3056
  434MOL0     C58459  11.147   9.371   4.676 -0.2875  0.3530 -0.3736
  434MOL0     C58460  11.014   9.419   4.680  0.5918 -1.4814 -0.3543
  434MOL0     C58461  10.908   9.329   4.649  0.1946 -0.0036 -0.7213
  434MOL0     C58462  10.935   9.203   4.596  1.1028 -0.5482 -0.7713
  434MOL0     O58463  10.827   9.122   4.581 -0.7254 -0.7192  0.8443
  434MOL0     C58464  10.801   9.048   4.470  0.3580  0.4014 -0.7874
  434MOL0     C58465  10.680   8.953   4.488  0.0034 -0.2914 -0.1083
  434MOL0     C58466  10.643   8.886   4.354  0.8008  0.4075  0.2565
  434MOL0     C58467  10.531   8.781   4.367  0.3436  0.8151 -0.2344
  434MOL0     C58468  10.480   8.728   4.235  0.4436 -0.4853  0.3029
  434MOL0     C58469  10.383   8.608   4.247  0.2948  0.1619 -0.5318
  434MOL0     C58470  10.252   8.633   4.330  0.0649  0.5105  0.9042
  434MOL0     C58471  10.170   8.748   4.277  0.4440  0.0849 -0.1767
  434MOL0     N58472  10.093   8.718   4.159  0.0147  0.1194 -0.4277
  434MOL0     C58473   9.964   8.673   4.167 -0.4336  0.0322  0.2913
  434MOL0     C58474   9.939   8.636   4.044  0.2419  0.4510  1.0502
  434MOL0     C58475   9.811   8.606   3.982 -0.7489  0.5397  0.5341
  434MOL0     C58476   9.729   8.727   3.939  0.1839  0.2758  0.2219
  434MOL0     C58477   9.669   8.800   4.060  0.1409  0.8888 -0.2127
  434MOL0     C58478   9.604   8.925   4.020  0.1357 -0.1593 -0.1610
  434MOL0     O58479   9.545   8.979   4.141 -0.6627 -0.4045  0.1190
  434MOL0     C58480   9.408   8.982   4.141  0.8333 -0.7892 -0.0775
  434MOL0     C58481   9.342   8.959   4.265  0.7213 -0.0012  1.1136
  434MOL0     C58482   9.201   8.968   4.272 -0.0929 -0.2671 -0.2607
  434MOL0     C58483   9.145   8.925   4.408 -0.1980 -0.2847 -0.1198
  434MOL0     C58484   9.120   8.999   4.156 -0.7343 -0.0404 -0.7168
  434MOL0     C58485   8.967   9.005   4.154  0.3460 -0.1476 -0.2432
  434MOL0     O58486   8.893   8.954   4.258 -0.0776  1.0011  0.3514
  434MOL0     C58487   8.756   8.944   4.228  0.8305  0.2362 -0.7360
  434MOL0     C58488   8.657   9.013   4.291 -0.1670 -0.0752 -0.2727
  434MOL0     C58489   8.521   9.004   4.247 -0.4184 -0.1172 -0.3892
  434MOL0     C58490   8.486   8.906   4.156 -0.7029 -0.6068 -0.1884
  434MOL0     O58491   8.365   8.872   4.103  1.2809  0.2340  0.3709
  434MOL0     C58492   8.275   8.981   4.063 -0.5505 -0.2850 -0.0354
  434MOL0     C58493   8.145   8.927   4.015  0.0027 -0.2840  0.4382
  434MOL0     C58494   8.149   8.855   3.886  0.1387 -0.2135  0.1696
  434MOL0     C58495   8.007   8.798   3.845 -0.2266  0.1799  0.1368
  434MOL0     C58496   8.007   8.736   3.704  0.0982 -0.2688 -0.2959
  434MOL0     C58497   8.075   8.605   3.697  1.6514  1.0079  0.4935
  434MOL0     C58498   8.035   8.523   3.571  0.2824  0.5084 -0.2487
  434MOL0     C58499   8.076   8.591   3.439 -0.3313 -0.3861 -0.0519
  434MOL0    Cl58500   8.043   8.465   3.321  0.3326  0.3068 -0.0132
  434MOL0     C58501   8.587   8.824   4.099  0.3695  0.2032 -0.2262
  434MOL0     C58502   8.720   8.839   4.134  0.0094  0.0202  0.2338
  434MOL0     O58503   8.916   9.058   4.049 -0.4851 -0.4864  0.1500
  434MOL0     C58504   9.192   9.040   4.046 -0.0397 -0.0518 -0.3258
  434MOL0     C58505   9.333   9.031   4.036 -1.1594  1.2899 -0.0405
  434MOL0     N58506  10.058   8.635   3.971  0.2590  0.6014 -0.4994
  434MOL0     N58507  10.148   8.690   4.036 -0.4073 -0.0862  0.4211
  434MOL0     C58508  11.065   9.162   4.573 -0.1082 -0.2727  0.1355
  434MOL0     C58509  11.175   9.245   4.616  0.6941 -0.0721  0.4999
  434MOL0     C58510  11.461   9.588   4.710  0.2049 -0.3576 -0.3670
  434MOL0     C58511  11.438   9.643   4.840 -0.7151 -1.2061 -0.0043
  434MOL0     C58512  11.539   9.726   4.905 -0.5301  0.7166 -1.0894
  434MOL0     C58513  11.665   9.739   4.841 -0.3152 -0.2245 -0.9580
  434MOL0     O58514  11.755   9.809   4.908 -0.5801  0.2329 -0.9172
  434MOL0     C58515  11.865   9.867   4.828 -0.0428 -0.4131 -1.0396
  434MOL0     C58516  11.949   9.953   4.930 -0.3367  0.0799  0.8089
  434MOL0     C58517  11.878  10.084   4.977 -0.5755  0.1401  0.0456
  434MOL0     C58518  11.955  10.160   5.083 -0.5444  0.3012 -0.3441
  434MOL0     C58519  12.096  10.199   5.049 -0.7500  0.9868 -1.2847
  434MOL0     C58520  12.212  10.207   5.016  0.3197 -0.4505  0.0789
  434MOL0     C58521  11.681   9.694   4.707  0.4002  0.0839 -0.8194
  434MOL0     C58522  11.582   9.610   4.646 -0.1449 -0.3740  0.5521
  434MOL0     H58523  10.987   9.511   4.731  1.1298 -1.3632 -0.2737
  434MOL0     H58524  10.807   9.357   4.676  1.0221 -0.1555  3.1081
  434MOL0     H58525  10.786   9.121   4.390  1.1991 -0.7204 -2.0136
  434MOL0     H58526  10.880   8.981   4.434  1.9371  1.1153  1.1870
  434MOL0     H58527  10.689   8.871   4.559  0.5626 -3.5408 -3.5845
  434MOL0     H58528  10.599   9.021   4.514  0.9669  0.3828  1.2448
  434MOL0     H58529  10.610   8.953   4.274  0.5557  0.4824  0.4179
  434MOL0     H58530  10.724   8.827   4.311 -0.6106 -2.1307  0.8457
  434MOL0     H58531  10.548   8.695   4.432 -1.3361  1.8021  1.6329
  434MOL0     H58532  10.451   8.831   4.422 -0.7490  1.0378 -1.9546
  434MOL0     H58533  10.431   8.801   4.171 -0.0756 -0.7091  0.4360
  434MOL0     H58534  10.570   8.689   4.186  2.2868  0.3551  2.8056
  434MOL0     H58535  10.359   8.578   4.144 -1.8306 -0.8475  0.2112
  434MOL0     H58536  10.444   8.529   4.292 -1.3185  0.6232  2.7573
  434MOL0     H58537  10.193   8.541   4.328 -0.2373  0.7119 -0.9406
  434MOL0     H58538  10.278   8.649   4.435 -0.7836  1.1319  1.0251
  434MOL0     H58539  10.228   8.841   4.268 -0.6338  0.7456 -0.4930
  434MOL0     H58540  10.095   8.757   4.357 -2.0474 -1.1149 -2.2153
  434MOL0     H58541   9.893   8.671   4.249 -1.3021 -2.8831 -0.4082
  434MOL0     H58542   9.830   8.537   3.900  0.8001  2.9457 -1.2782
  434MOL0     H58543   9.753   8.555   4.058  2.3361  0.4693  3.0803
  434MOL0     H58544   9.648   8.690   3.875  1.0847  0.2970 -0.9786
  434MOL0     H58545   9.790   8.796   3.879  1.2670 -0.5546  0.3293
  434MOL0     H58546   9.752   8.829   4.126  2.6512 -3.0996 -1.2773
  434MOL0     H58547   9.603   8.733   4.115  0.5688 -1.2452 -2.1811
  434MOL0     H58548   9.531   8.905   3.940  3.1471  0.4904 -3.3154
  434MOL0     H58549   9.685   8.985   3.977 -0.0808 -0.5752 -1.1853
  434MOL0     H58550   9.398   8.938   4.355  1.3162  1.1504  1.0291
  434MOL0     H58551   9.222   8.921   4.486 -0.3717 -0.9863  0.0249
  434MOL0     H58552   9.075   8.999   4.448  0.9184  0.0384  1.3165
  434MOL0     H58553   9.105   8.823   4.410 -0.6248 -0.1049  1.1939
  434MOL0     H58554   8.681   9.091   4.363 -2.7015  0.6265 -0.0766
  434MOL0     H58555   8.443   9.062   4.295 -3.1107 -3.2784 -0.5955
  434MOL0     H58556   8.244   9.039   4.151 -1.7072 -1.3319  0.2755
  434MOL0     H58557   8.322   9.044   3.988 -5.0888  1.4017 -1.7908
  434MOL0     H58558   8.099   8.850   4.078 -1.9638  0.5427  0.0995
  434MOL0     H58559   8.070   9.007   4.009 -1.3276 -1.4653  0.8470
  434MOL0     H58560   8.230   8.782   3.889  2.5659  2.2383 -0.9771
  434MOL0     H58561   8.155   8.930   3.807 -4.5382 -0.4244 -0.6555
  434MOL0     H58562   7.971   8.722   3.914 -0.3407  0.4153  0.3381
  434MOL0     H58563   7.933   8.877   3.861 -1.2589 -1.1214  2.2981
  434MOL0     H58564   8.051   8.813   3.640 -2.3823  2.2428  0.7778
  434MOL0     H58565   7.902   8.715   3.682 -0.5748  0.7910  1.6242
  434MOL0     H58566   8.184   8.616   3.706  1.8103  1.1903 -1.2147
  434MOL0     H58567   8.037   8.553   3.785 -3.3582  2.1011 -0.6941
  434MOL0     H58568   7.927   8.506   3.573  0.6293 -1.9461  0.7801
  434MOL0     H58569   8.085   8.426   3.573  2.8813  1.7213  2.3121
  434MOL0     H58570   8.183   8.612   3.446 -0.2835 -0.2556 -1.0312
  434MOL0     H58571   8.023   8.683   3.414 -1.5263 -0.9152  0.4702
  434MOL0     H58572   8.557   8.755   4.021 -2.1526  1.1767 -0.2223
  434MOL0     H58573   8.792   8.775   4.084  1.5314  2.9702 -1.6366
  434MOL0     H58574   9.142   9.087   3.962  0.2435  0.1781 -0.3665
  434MOL0     H58575   9.398   9.070   3.959 -1.7086 -0.0249 -1.2037
  434MOL0     H58576  11.088   9.059   4.549  0.6168 -0.0971  0.0550
  434MOL0     H58577  11.283   9.232   4.619  0.9428  1.8552  1.4314
  434MOL0     H58578  11.340   9.639   4.888 -0.2720  0.6152  1.1869
  434MOL0     H58579  11.526   9.766   5.005  0.9575 -0.7121 -0.2886
  434MOL0     H58580  11.927   9.796   4.772  0.9739  1.6835 -2.7313
  434MOL0     H58581  11.815   9.934   4.757  0.0931  1.0702  0.2259
  434MOL0     H58582  12.050   9.975   4.895 -0.9845  0.6473 -0.8067
  434MOL0     H58583  11.954   9.882   5.012 -0.0984 -2.2003 -1.0836
  434MOL0     H58584  11.780  10.051   5.014 -2.1095 -2.2087 -5.0625
  434MOL0     H58585  11.857  10.151   4.892 -1.9009  0.0446  0.2685
  434MOL0     H58586  11.947  10.107   5.178  2.2956  1.2704  0.5550
  434MOL0     H58587  11.915  10.260   5.102 -0.3265 -0.2318  3.6987
  434MOL0     H58588  12.315  10.211   4.986  0.8754 -2.1819  1.5740
  434MOL0     H58589  11.768   9.706   4.643 -0.2862  2.1843 -1.4359
  434MOL0     H58590  11.597   9.569   4.546  0.8171  1.6939 -0.2310
  435MOL0     O58591   0.514   7.338   4.758 -0.3857 -0.0465 -0.5460
  435MOL0     C58592   0.457   7.428   4.824 -0.4427  0.7810 -0.4865
  435MOL0     O58593   0.331   7.467   4.821  0.8614 -0.1163  0.2554
  435MOL0     C58594   0.246   7.416   4.725  0.2974 -0.2847 -0.5346
  435MOL0     C58595   0.207   7.497   4.614 -0.9502  0.0491  0.8711
  435MOL0     C58596   0.109   7.447   4.519 -0.4102 -0.0260 -0.2318
  435MOL0     C58597   0.054   7.324   4.537  0.4508 -0.0561 -1.1849
  435MOL0     O58598  -0.024   7.256   4.448  0.9678 -0.0893  0.6907
  435MOL0     C58599  -0.063   7.312   4.322 -0.5350 -0.4131 -0.9312
  435MOL0     C58600  -0.170   7.233   4.247 -0.2550 -0.7259 -0.4651
  435MOL0     C58601  -0.120   7.103   4.184 -0.3231 -0.2768 -1.3687
  435MOL0     C58602  -0.030   7.116   4.062  0.1348 -0.5439 -1.0194
  435MOL0     C58603   0.015   6.982   4.014  0.0707  0.7643  0.3067
  435MOL0     C58604   0.088   6.970   3.876  0.3939  0.6692  0.0718
  435MOL0     C58605   0.160   6.837   3.871 -0.2077 -0.3408 -0.4650
  435MOL0     C58606   0.223   6.804   3.743 -0.7681  1.2342  0.3206
  435MOL0     N58607   0.337   6.888   3.727 -0.9434 -0.6160  0.2965
  435MOL0     C58608   0.456   6.885   3.796 -0.2283 -0.3006  0.4537
  435MOL0     C58609   0.527   6.987   3.731  0.8527  0.1647  1.3399
  435MOL0     C58610   0.672   7.030   3.760  0.5671  0.8190  0.1837
  435MOL0     C58611   0.696   7.168   3.812 -0.0921 -0.8085 -1.2441
  435MOL0     C58612   0.694   7.154   3.967  1.0719 -0.3195  0.2896
  435MOL0     C58613   0.727   7.285   4.034  0.1035 -0.6352  0.2456
  435MOL0     O58614   0.622   7.392   4.011  0.6247  0.5265 -0.2316
  435MOL0     C58615   0.671   7.522   4.001 -0.4617 -0.8218 -0.0365
  435MOL0     C58616   0.788   7.557   4.074 -0.5175 -0.2674 -0.3480
  435MOL0     C58617   0.835   7.686   4.081  0.6450  0.1046  0.3191
  435MOL0     C58618   0.956   7.710   4.170  0.1800  0.1603  0.7985
  435MOL0     C58619   0.763   7.791   4.019 -0.8177  0.6986  1.3223
  435MOL0     C58620   0.798   7.938   4.024 -0.4201  0.2243 -0.4901
  435MOL0     O58621   0.700   8.021   3.991 -0.1037 -0.6982 -0.1065
  435MOL0     C58622   0.728   8.152   3.962  0.3203  0.3300 -0.1852
  435MOL0     C58623   0.619   8.238   3.969  0.0067  0.3966  0.0291
  435MOL0     C58624   0.622   8.366   3.911 -0.1658  0.4750  0.1431
  435MOL0     C58625   0.740   8.408   3.842  0.2557 -0.7157 -0.0634
  435MOL0     O58626   0.731   8.535   3.791 -0.1040 -0.5150  0.6732
  435MOL0     C58627   0.832   8.575   3.692 -0.9073  0.2628  0.5179
  435MOL0     C58628   0.778   8.691   3.615 -1.1113 -0.1500 -0.2074
  435MOL0     C58629   0.770   8.821   3.700 -0.6874  0.3711 -0.1568
  435MOL0     C58630   0.722   8.939   3.620 -0.2847  0.4911  0.1259
  435MOL0     C58631   0.831   9.000   3.524 -0.3441  0.1653  0.7253
  435MOL0     C58632   0.774   9.024   3.384  0.4592  0.5035  0.0748
  435MOL0     C58633   0.761   8.899   3.294  0.0862  0.5812 -0.3567
  435MOL0     C58634   0.741   8.922   3.144  0.0204  0.1605  0.0927
  435MOL0    Cl58635   0.569   8.985   3.098  0.0732  0.6196 -0.2252
  435MOL0     C58636   0.855   8.326   3.850 -0.1082 -0.1121  0.8688
  435MOL0     C58637   0.843   8.198   3.894 -0.4528  0.2171 -0.1508
  435MOL0     O58638   0.909   7.976   4.059 -0.0291  0.1404  0.1867
  435MOL0     C58639   0.643   7.753   3.946 -0.6608  0.7206 -0.2747
  435MOL0     C58640   0.598   7.625   3.937  0.4349  0.2925 -0.0604
  435MOL0     N58641   0.457   7.037   3.619  0.3133  0.0104  0.1265
  435MOL0     N58642   0.341   6.983   3.633 -0.4811 -0.3131 -0.1801
  435MOL0     C58643   0.091   7.246   4.654 -0.8115 -1.4972  0.2325
  435MOL0     C58644   0.180   7.297   4.745 -0.7061  0.2576 -0.7580
  435MOL0     C58645   0.552   7.505   4.910  1.0805  0.2798 -0.5886
  435MOL0     C58646   0.511   7.638   4.947 -0.6874  0.3192  0.1620
  435MOL0     C58647   0.585   7.697   5.043  0.1166 -0.2064  0.3924
  435MOL0     C58648   0.707   7.653   5.093  0.1812  0.5200 -0.0404
  435MOL0     O58649   0.779   7.735   5.172 -0.5353 -0.2297  0.3524
  435MOL0     C58650   0.910   7.697   5.198  0.1158 -0.4099 -0.3037
  435MOL0     C58651   0.968   7.813   5.270  0.3309 -0.8206 -1.1261
  435MOL0     C58652   1.108   7.785   5.296  0.1006 -0.1051 -0.6204
  435MOL0     C58653   1.199   7.897   5.362  0.6386  0.2501  0.8142
  435MOL0     C58654   1.334   7.847   5.366  0.3892  1.1805  0.4518
  435MOL0     C58655   1.450   7.804   5.373 -0.5399 -0.4705  0.0603
  435MOL0     C58656   0.751   7.529   5.046 -0.1456  0.0552  0.0454
  435MOL0     C58657   0.674   7.452   4.960 -0.0570 -0.1422  0.4681
  435MOL0     H58658   0.258   7.592   4.603  0.4658 -0.8990 -1.5492
  435MOL0     H58659   0.085   7.500   4.427 -0.7001  0.6740  0.2364
  435MOL0     H58660  -0.099   7.414   4.332 -1.2415 -0.4654 -2.5753
  435MOL0     H58661   0.020   7.320   4.250  1.7850  1.8580  1.7471
  435MOL0     H58662  -0.253   7.211   4.315 -1.5961  0.7016 -1.5583
  435MOL0     H58663  -0.211   7.304   4.175 -5.7288 -2.3225  0.6118
  435MOL0     H58664  -0.066   7.057   4.268  1.0087  1.2521 -1.3362
  435MOL0     H58665  -0.208   7.042   4.163 -1.9633  1.4278  0.1569
  435MOL0     H58666  -0.084   7.158   3.976  0.5838 -3.0776 -2.6238
  435MOL0     H58667   0.061   7.166   4.096 -0.6969 -0.8262  1.9226
  435MOL0     H58668   0.088   6.950   4.089  0.6931  1.7803  0.1411
  435MOL0     H58669  -0.077   6.923   4.007 -0.5528  1.8350 -0.9172
  435MOL0     H58670   0.010   6.979   3.799  1.0477  1.9769 -0.4728
  435MOL0     H58671   0.162   7.049   3.861  0.4450  0.4691 -0.7727
  435MOL0     H58672   0.226   6.823   3.957 -1.4308 -0.0668  0.5412
  435MOL0     H58673   0.090   6.753   3.882  1.4062 -1.6016  0.6854
  435MOL0     H58674   0.154   6.807   3.658  0.4233 -5.6136 -1.5377
  435MOL0     H58675   0.269   6.706   3.762 -1.9300  1.0969  2.7660
  435MOL0     H58676   0.499   6.827   3.877  0.6841 -2.6326 -1.5577
  435MOL0     H58677   0.729   6.952   3.812  2.7914  1.4817 -1.1260
  435MOL0     H58678   0.719   7.027   3.661 -0.0856 -0.6820 -0.1089
  435MOL0     H58679   0.615   7.228   3.771 -2.0690 -3.2856 -1.1843
  435MOL0     H58680   0.790   7.210   3.774 -2.4227  5.3438 -1.3359
  435MOL0     H58681   0.769   7.081   3.999  0.8564 -0.6477  0.0469
  435MOL0     H58682   0.594   7.122   3.998  1.3093 -1.2466  0.1368
  435MOL0     H58683   0.824   7.313   3.993 -0.8695  0.4280 -1.4424
  435MOL0     H58684   0.737   7.274   4.143 -1.5770  3.1359  0.9234
  435MOL0     H58685   0.840   7.489   4.141  1.0666  1.5259  0.3209
  435MOL0     H58686   0.927   7.768   4.258 -0.3282 -0.3579  0.9786
  435MOL0     H58687   1.001   7.613   4.193 -2.7709 -1.2107  1.3423
  435MOL0     H58688   1.028   7.775   4.120  0.1309  0.2637  0.8633
  435MOL0     H58689   0.537   8.193   4.024  1.3033  0.7860  2.4212
  435MOL0     H58690   0.531   8.425   3.903  0.1013  0.7622 -1.1218
  435MOL0     H58691   0.930   8.599   3.733 -1.0472  0.1179  0.9389
  435MOL0     H58692   0.865   8.494   3.627  3.7745  1.8841  0.5107
  435MOL0     H58693   0.849   8.720   3.538  0.3004  0.4871  1.2784
  435MOL0     H58694   0.684   8.663   3.566 -1.2577  1.7337 -1.1120
  435MOL0     H58695   0.866   8.853   3.740 -0.1939 -1.0606 -0.1286
  435MOL0     H58696   0.706   8.803   3.787 -1.2151 -1.6663 -0.8978
  435MOL0     H58697   0.639   8.898   3.563 -0.6987  2.2700 -0.6220
  435MOL0     H58698   0.670   9.020   3.672  0.6171  1.0704  0.1497
  435MOL0     H58699   0.916   8.932   3.513 -1.4978 -1.2316  0.0310
  435MOL0     H58700   0.869   9.093   3.566  1.2518  1.6806 -3.5930
  435MOL0     H58701   0.683   9.086   3.387  0.7388  0.9041  0.6678
  435MOL0     H58702   0.855   9.078   3.334  0.8642  0.3477  0.5476
  435MOL0     H58703   0.677   8.841   3.332  0.6012  1.3611  2.1608
  435MOL0     H58704   0.851   8.836   3.300 -1.7922 -2.2084  0.3226
  435MOL0     H58705   0.764   8.823   3.101 -1.1792 -0.1593  0.1340
  435MOL0     H58706   0.828   8.980   3.112 -0.1034 -0.0836 -0.7287
  435MOL0     H58707   0.942   8.358   3.793 -0.7605 -1.8218 -1.2198
  435MOL0     H58708   0.932   8.137   3.884 -0.9452 -0.6497  0.6006
  435MOL0     H58709   0.593   7.832   3.891 -0.9667  0.0383 -0.9967
  435MOL0     H58710   0.506   7.604   3.883 -0.2236 -1.7654  1.6915
  435MOL0     H58711   0.047   7.149   4.673 -1.2244 -1.6147 -1.1886
  435MOL0     H58712   0.200   7.239   4.835 -3.3286  0.8048  0.2569
  435MOL0     H58713   0.410   7.675   4.930 -1.3308 -0.1295  2.6826
  435MOL0     H58714   0.542   7.791   5.076 -1.3713 -0.3434 -1.0092
  435MOL0     H58715   0.915   7.602   5.252 -1.8896  0.3455  1.4143
  435MOL0     H58716   0.976   7.696   5.111  2.9286  4.5439  1.3189
  435MOL0     H58717   0.914   7.826   5.364 -0.1927  0.9375 -1.6403
  435MOL0     H58718   0.958   7.902   5.208  2.0152  0.2358  0.0222
  435MOL0     H58719   1.161   7.754   5.205  0.0678 -0.3932 -0.5426
  435MOL0     H58720   1.114   7.706   5.372 -1.6874  2.4789  2.4506
  435MOL0     H58721   1.159   7.914   5.462  1.6060 -0.7507  1.3859
  435MOL0     H58722   1.198   7.991   5.306  2.5510  0.2812  0.7848
  435MOL0     H58723   1.546   7.755   5.379 -1.2036 -1.6785  1.6259
  435MOL0     H58724   0.846   7.481   5.070  0.0175 -0.5141 -1.6152
  435MOL0     H58725   0.711   7.357   4.923  1.4386  1.4344 -2.3724
  436MOL0     O58726   4.616   8.394   6.283 -0.1290 -0.2812  0.1738
  436MOL0     C58727   4.568   8.499   6.335  0.0556 -0.1050 -0.5989
  436MOL0     O58728   4.462   8.574   6.283  0.1288 -0.3598 -0.4856
  436MOL0     C58729   4.379   8.533   6.186 -0.4841 -1.1669 -0.1651
  436MOL0     C58730   4.303   8.639   6.142 -0.0496  0.1470 -0.5731
  436MOL0     C58731   4.214   8.624   6.034  1.0978  0.5321  0.0799
  436MOL0     C58732   4.189   8.493   5.976 -0.3808 -0.5067  1.1997
  436MOL0     O58733   4.085   8.451   5.890  0.1268 -0.4021  0.8691
  436MOL0     C58734   3.964   8.520   5.864  0.9265 -0.0831  0.5149
  436MOL0     C58735   3.838   8.423   5.872  0.3956  0.9233  0.0781
  436MOL0     C58736   3.719   8.495   5.805 -0.6847 -0.6926 -0.2620
  436MOL0     C58737   3.639   8.403   5.714 -0.5253 -0.1361 -0.4418
  436MOL0     C58738   3.524   8.487   5.644  0.4315 -0.0358 -0.4874
  436MOL0     C58739   3.477   8.409   5.528  0.3773 -0.2293  0.5605
  436MOL0     C58740   3.364   8.475   5.457  0.2013 -0.6957 -0.0214
  436MOL0     C58741   3.339   8.419   5.321  0.0421  0.5399 -0.5291
  436MOL0     N58742   3.217   8.483   5.277 -0.3424 -0.2507  0.0874
  436MOL0     C58743   3.100   8.430   5.230 -0.6964  0.7695 -0.8396
  436MOL0     C58744   3.004   8.531   5.240  0.7899  0.4322  0.3251
  436MOL0     C58745   2.858   8.507   5.210 -0.1274 -0.4667  0.4368
  436MOL0     C58746   2.754   8.565   5.322 -0.1439  0.1100  1.0369
  436MOL0     C58747   2.797   8.553   5.466  0.1810 -0.2186 -0.9047
  436MOL0     C58748   2.695   8.621   5.563 -0.1487 -0.1984  0.6775
  436MOL0     O58749   2.595   8.516   5.583  0.8323 -0.7103  0.0071
  436MOL0     C58750   2.481   8.566   5.651 -1.2211 -0.8466 -0.6300
  436MOL0     C58751   2.467   8.686   5.727  0.0885  0.4803  0.4768
  436MOL0     C58752   2.343   8.716   5.789  0.9271 -0.2837 -0.1304
  436MOL0     C58753   2.338   8.839   5.873 -0.2582  0.0382 -0.0919
  436MOL0     C58754   2.228   8.633   5.759  0.6145 -0.3513  0.2008
  436MOL0     C58755   2.095   8.654   5.818 -0.7138 -0.5165 -0.5285
  436MOL0     O58756   1.998   8.562   5.807 -0.6125  0.0840  0.1375
  436MOL0     C58757   1.881   8.596   5.745 -0.0718  0.8848 -0.6657
  436MOL0     C58758   1.760   8.521   5.768  0.3500  0.8389 -0.4505
  436MOL0     C58759   1.644   8.536   5.701 -0.6143 -0.7727 -0.6398
  436MOL0     C58760   1.629   8.649   5.622  0.4877 -0.1754 -0.5717
  436MOL0     O58761   1.515   8.682   5.550  0.1683 -0.4598 -1.0683
  436MOL0     C58762   1.417   8.582   5.554 -0.0393  0.0246  0.3642
  436MOL0     C58763   1.307   8.613   5.454 -0.0260  0.2691  0.3642
  436MOL0     C58764   1.340   8.584   5.305  0.0526  0.4196 -0.2050
  436MOL0     C58765   1.252   8.656   5.206  0.2597 -0.6017 -0.3727
  436MOL0     C58766   1.100   8.613   5.218 -0.2270 -0.5504 -0.0322
  436MOL0     C58767   1.012   8.660   5.108  0.2175  0.0474  1.1782
  436MOL0     C58768   0.860   8.629   5.155 -0.2208 -0.5405  0.1365
  436MOL0     C58769   0.770   8.637   5.038 -0.5690 -0.1549  0.4870
  436MOL0    Cl58770   0.611   8.549   5.070 -0.1537 -0.3462 -0.0263
  436MOL0     C58771   1.742   8.730   5.600  0.8234  0.0042 -0.6839
  436MOL0     C58772   1.869   8.700   5.653  0.3569  0.4831 -0.2188
  436MOL0     O58773   2.080   8.764   5.868  0.4296  0.2127 -0.5657
  436MOL0     C58774   2.246   8.520   5.677  0.7006  0.7881 -0.1148
  436MOL0     C58775   2.371   8.483   5.633  0.0561 -0.1315  0.2054
  436MOL0     N58776   3.073   8.648   5.251 -0.5632 -0.4536  0.3029
  436MOL0     N58777   3.194   8.620   5.286  0.0494 -0.1570  0.2974
  436MOL0     C58778   4.284   8.396   6.014 -0.0836  0.4128  0.6302
  436MOL0     C58779   4.375   8.412   6.118  0.8096  0.2704  0.7614
  436MOL0     C58780   4.620   8.535   6.468 -0.2127  0.2476  0.5866
  436MOL0     C58781   4.721   8.459   6.524 -0.2311  0.6343 -0.4841
  436MOL0     C58782   4.785   8.488   6.647  0.1582 -0.6096 -0.5646
  436MOL0     C58783   4.752   8.613   6.708  0.3761  0.0757 -0.2084
  436MOL0     O58784   4.809   8.658   6.822  0.4059 -0.4295  0.6844
  436MOL0     C58785   4.930   8.600   6.869  0.1001 -0.4760  0.0616
  436MOL0     C58786   4.967   8.662   7.003  0.2678 -0.7229 -0.0393
  436MOL0     C58787   4.841   8.673   7.094  0.2807  0.1745 -0.4224
  436MOL0     C58788   4.864   8.728   7.244  0.7625  0.2981  0.8109
  436MOL0     C58789   4.891   8.870   7.248 -0.8199 -0.0260 -0.3402
  436MOL0     C58790   4.931   8.986   7.260 -0.3965 -0.1568 -0.0176
  436MOL0     C58791   4.649   8.690   6.646 -0.1242 -0.0468 -0.7484
  436MOL0     C58792   4.578   8.650   6.534 -0.4086 -0.3711  0.0609
  436MOL0     H58793   4.314   8.742   6.176  0.1546  0.7485 -2.3371
  436MOL0     H58794   4.155   8.708   6.000  2.2823  1.1801 -0.4357
  436MOL0     H58795   3.938   8.591   5.943 -0.7582 -1.3327  1.1591
  436MOL0     H58796   3.981   8.575   5.771 -1.2918 -0.6502 -0.2958
  436MOL0     H58797   3.860   8.333   5.814  0.5295  0.5490  0.7092
  436MOL0     H58798   3.809   8.400   5.975  2.7567  1.3932  0.9049
  436MOL0     H58799   3.641   8.532   5.873 -2.6171 -0.9831 -2.2356
  436MOL0     H58800   3.757   8.584   5.754 -3.2353  0.3454 -0.4983
  436MOL0     H58801   3.711   8.372   5.637  0.7573 -2.5932  1.5964
  436MOL0     H58802   3.604   8.313   5.764 -2.6879  1.4237  1.0381
  436MOL0     H58803   3.444   8.504   5.716  1.5994 -0.0777  0.8480
  436MOL0     H58804   3.559   8.585   5.609 -0.3165  1.2068  2.0593
  436MOL0     H58805   3.556   8.390   5.454  0.4301  0.9356  0.3056
  436MOL0     H58806   3.442   8.314   5.571 -0.4670  0.5833  1.7015
  436MOL0     H58807   3.278   8.459   5.522  0.9880 -1.0272  0.9607
  436MOL0     H58808   3.381   8.582   5.445  1.6987 -0.7760  1.1453
  436MOL0     H58809   3.321   8.311   5.323 -1.3083  0.7612  0.6768
  436MOL0     H58810   3.423   8.441   5.255  0.6482 -0.0042  0.0446
  436MOL0     H58811   3.070   8.327   5.211 -1.5133  0.7341  0.5585
  436MOL0     H58812   2.833   8.550   5.112 -0.8596  3.2310  2.0724
  436MOL0     H58813   2.856   8.398   5.209 -1.2392 -0.4617  0.8383
  436MOL0     H58814   2.660   8.511   5.307 -1.8793  3.2949 -0.5074
  436MOL0     H58815   2.727   8.669   5.302 -0.0519  0.4408  2.5257
  436MOL0     H58816   2.890   8.609   5.481 -0.1397  0.0237  0.3671
  436MOL0     H58817   2.796   8.447   5.493  1.6696 -0.0723 -0.1885
  436MOL0     H58818   2.657   8.714   5.519  3.2846  2.3684  2.6170
  436MOL0     H58819   2.740   8.654   5.657 -0.0331  2.0482 -0.0893
  436MOL0     H58820   2.554   8.750   5.733  1.6780 -1.5787  0.7885
  436MOL0     H58821   2.436   8.887   5.873  0.0546 -0.4589 -2.5336
  436MOL0     H58822   2.269   8.914   5.833 -1.3118 -0.6174  0.4568
  436MOL0     H58823   2.299   8.820   5.973  1.0426  1.6994  0.7710
  436MOL0     H58824   1.758   8.433   5.831  1.4084  1.1566  0.0449
  436MOL0     H58825   1.565   8.463   5.717  0.0610 -1.8578 -2.0790
  436MOL0     H58826   1.464   8.484   5.548  0.0891  0.1350 -0.8265
  436MOL0     H58827   1.369   8.585   5.652  2.1267 -1.9502  1.5812
  436MOL0     H58828   1.216   8.563   5.490 -0.7046  0.6735 -0.7256
  436MOL0     H58829   1.277   8.718   5.464 -2.8756 -0.3960 -0.2757
  436MOL0     H58830   1.326   8.476   5.295 -1.0270  0.4047  1.0847
  436MOL0     H58831   1.447   8.601   5.289 -0.1672  1.8831 -0.2784
  436MOL0     H58832   1.266   8.764   5.208 -2.5460 -0.1461 -0.8136
  436MOL0     H58833   1.277   8.632   5.102  2.9452 -2.4566  0.6028
  436MOL0     H58834   1.044   8.649   5.305 -0.9243  0.8820 -1.0313
  436MOL0     H58835   1.095   8.504   5.217 -3.3520 -0.5084  0.1127
  436MOL0     H58836   1.033   8.766   5.090  1.6032  0.0991  2.8679
  436MOL0     H58837   1.032   8.603   5.017  0.0942  0.6761  0.7423
  436MOL0     H58838   0.826   8.694   5.236 -0.3172  1.2067 -1.2319
  436MOL0     H58839   0.855   8.524   5.183 -1.6362 -2.1405 -4.9397
  436MOL0     H58840   0.814   8.601   4.945 -1.0962  3.6232 -1.4613
  436MOL0     H58841   0.734   8.739   5.016  1.3028  0.2723 -0.8622
  436MOL0     H58842   1.739   8.818   5.537  1.5302  1.0637  0.7241
  436MOL0     H58843   1.950   8.769   5.633  0.3032  1.4326  2.4796
  436MOL0     H58844   2.160   8.456   5.659 -0.0288  0.7212  3.0014
  436MOL0     H58845   2.392   8.383   5.597  2.8157  1.0203 -1.7051
  436MOL0     H58846   4.286   8.310   5.948 -0.2246  2.0979 -1.7391
  436MOL0     H58847   4.439   8.327   6.140  2.4241  2.0123  3.4615
  436MOL0     H58848   4.770   8.384   6.461 -3.0048  1.1756 -3.5514
  436MOL0     H58849   4.860   8.423   6.690 -0.2362 -1.7590 -1.5517
  436MOL0     H58850   4.913   8.495   6.894  2.5174 -1.5987 -2.4895
  436MOL0     H58851   4.999   8.596   6.784 -0.6194 -0.8832 -0.5144
  436MOL0     H58852   5.010   8.762   6.990  0.4413 -0.5386  1.6326
  436MOL0     H58853   5.039   8.600   7.056  0.2838 -2.0001 -1.5057
  436MOL0     H58854   4.788   8.578   7.096 -0.8061  0.7373  2.4395
  436MOL0     H58855   4.766   8.739   7.050 -3.9563 -3.6495  0.3969
  436MOL0     H58856   4.949   8.685   7.298  1.7942  0.2046 -0.7946
  436MOL0     H58857   4.766   8.711   7.290  0.7282  2.0279  1.4537
  436MOL0     H58858   4.955   9.090   7.261 -1.6450  0.1460 -0.2784
  436MOL0     H58859   4.635   8.789   6.689  0.8572  0.2642 -1.1099
  436MOL0     H58860   4.503   8.717   6.493 -1.7060 -1.6730  0.2185
  437MOL0     O58861   6.177   4.704   7.184 -0.2117 -0.1851 -0.0015
  437MOL0     C58862   6.204   4.671   7.297 -0.4060 -0.7940 -0.0504
  437MOL0     O58863   6.160   4.556   7.354  0.7306 -0.4371 -0.0947
  437MOL0     C58864   6.082   4.474   7.272  0.5181 -0.2245 -0.1779
  437MOL0     C58865   6.122   4.354   7.213  0.1299  0.1238 -0.7622
  437MOL0     C58866   6.037   4.275   7.145  0.3265  0.2876 -0.5381
  437MOL0     C58867   5.898   4.302   7.136 -1.5137 -0.4963 -0.2862
  437MOL0     O58868   5.812   4.207   7.085  0.1088  0.2432 -0.3903
  437MOL0     C58869   5.691   4.243   7.025  0.4469 -0.9425 -0.2660
  437MOL0     C58870   5.618   4.121   6.967 -0.3056 -0.1262 -0.3925
  437MOL0     C58871   5.669   4.058   6.833  1.0205 -0.2507  0.0971
  437MOL0     C58872   5.677   4.151   6.712  0.2805 -0.5071 -0.4851
  437MOL0     C58873   5.665   4.064   6.585 -0.1620  0.3803 -0.1405
  437MOL0     C58874   5.646   4.139   6.447 -0.6935  0.4441 -0.0284
  437MOL0     C58875   5.651   4.040   6.332 -0.4381 -0.0408 -0.5414
  437MOL0     C58876   5.616   4.107   6.199 -0.5587  0.4371  0.1961
  437MOL0     N58877   5.501   4.194   6.203 -0.2594 -0.1679 -1.2550
  437MOL0     C58878   5.376   4.143   6.188  1.0121  0.2870 -0.0570
  437MOL0     C58879   5.294   4.247   6.163  0.3249  0.2850  0.8555
  437MOL0     C58880   5.145   4.238   6.132 -0.3193 -0.4323 -0.2368
  437MOL0     C58881   5.064   4.370   6.125  0.4590  0.1372  0.1594
  437MOL0     C58882   5.073   4.435   5.989  0.1528  0.9850 -0.2215
  437MOL0     C58883   5.039   4.355   5.864 -0.2123 -1.1573  0.9734
  437MOL0     O58884   4.923   4.276   5.888  0.2519  0.1511  0.0564
  437MOL0     C58885   4.871   4.188   5.788 -0.7244 -0.9504  0.8462
  437MOL0     C58886   4.936   4.168   5.668 -0.2935 -2.0589  0.2673
  437MOL0     C58887   4.900   4.083   5.565 -0.2016 -0.2037 -1.1038
  437MOL0     C58888   4.972   4.095   5.438 -0.1300 -1.3047  0.1256
  437MOL0     C58889   4.780   4.009   5.596 -0.8948 -0.3718  0.0119
  437MOL0     C58890   4.722   3.922   5.497  0.3084 -0.4997 -0.1913
  437MOL0     O58891   4.589   3.925   5.484 -0.1378 -0.0855  0.3300
  437MOL0     C58892   4.513   3.885   5.371 -0.4090 -0.4467 -0.0887
  437MOL0     C58893   4.384   3.841   5.387 -0.5222  0.1987 -0.9639
  437MOL0     C58894   4.296   3.832   5.274  0.6644 -0.0998 -0.5234
  437MOL0     C58895   4.343   3.869   5.159  0.7337 -0.0217 -0.0464
  437MOL0     O58896   4.258   3.849   5.051  0.4221  0.0934  1.1311
  437MOL0     C58897   4.243   3.948   4.948  0.0543 -0.2428 -0.6029
  437MOL0     C58898   4.114   4.000   4.993  0.5561 -0.3144 -0.3477
  437MOL0     C58899   3.990   3.906   4.962 -0.7623  0.1248  0.6229
  437MOL0     C58900   3.892   3.955   4.859  0.8909  0.1913  0.5347
  437MOL0     C58901   3.790   3.845   4.849 -0.1168  0.3729 -0.4005
  437MOL0     C58902   3.675   3.881   4.745  0.6266 -0.9844 -0.4079
  437MOL0     C58903   3.541   3.810   4.785 -0.6961  0.5027  0.4759
  437MOL0     C58904   3.447   3.808   4.669 -0.3107  0.0082  0.3930
  437MOL0    Cl58905   3.434   3.972   4.589  0.0864  0.2506  0.4128
  437MOL0     C58906   4.470   3.923   5.143 -0.0362  0.6600 -0.5584
  437MOL0     C58907   4.559   3.935   5.252  0.1259  0.5329  0.3135
  437MOL0     O58908   4.790   3.847   5.436  0.0064  0.4832  0.2885
  437MOL0     C58909   4.720   4.013   5.718 -0.9276  0.7625 -0.0315
  437MOL0     C58910   4.764   4.097   5.819  0.0201 -0.2928  0.6573
  437MOL0     N58911   5.374   4.358   6.165 -0.4182 -0.6030 -0.2689
  437MOL0     N58912   5.499   4.331   6.185  0.2912  0.4274 -0.0581
  437MOL0     C58913   5.861   4.424   7.187  0.9990 -0.0183  0.4169
  437MOL0     C58914   5.948   4.513   7.245 -0.7070 -0.1493  0.1058
  437MOL0     C58915   6.274   4.763   7.390 -0.3836  0.2056  0.3325
  437MOL0     C58916   6.266   4.898   7.373  0.1088  0.2814  0.0786
  437MOL0     C58917   6.344   4.978   7.462 -0.1814  0.2858  0.6646
  437MOL0     C58918   6.421   4.927   7.570  0.0563 -0.5863 -0.0715
  437MOL0     O58919   6.503   5.003   7.654 -0.0199 -0.4889  0.0467
  437MOL0     C58920   6.566   5.123   7.615  0.3603 -0.5912 -0.2783
  437MOL0     C58921   6.486   5.238   7.678 -0.3627 -0.1302  0.9249
  437MOL0     C58922   6.432   5.209   7.824  0.1582  0.0348 -0.5043
  437MOL0     C58923   6.412   5.338   7.898  0.2701 -1.0911  0.1209
  437MOL0     C58924   6.544   5.392   7.944  0.2656 -0.0368  0.1407
  437MOL0     C58925   6.660   5.418   7.991 -0.5966  0.8950  0.9397
  437MOL0     C58926   6.409   4.794   7.591  0.1741  0.6488  0.5843
  437MOL0     C58927   6.348   4.712   7.501  0.2021  0.1292  0.1329
  437MOL0     H58928   6.225   4.333   7.237 -0.2345 -0.1143  0.7008
  437MOL0     H58929   6.070   4.190   7.087  0.8053  0.5714 -0.6846
  437MOL0     H58930   5.631   4.297   7.099  0.5729  3.2011 -2.9040
  437MOL0     H58931   5.714   4.316   6.947  0.1534 -0.6730 -0.1016
  437MOL0     H58932   5.614   4.044   7.045 -0.8926  0.2077 -0.0891
  437MOL0     H58933   5.517   4.153   6.938 -0.9374 -1.0815  0.6866
  437MOL0     H58934   5.772   4.021   6.842  1.6408  1.4646  0.3427
  437MOL0     H58935   5.599   3.977   6.811  1.9014 -0.4251 -2.4626
  437MOL0     H58936   5.582   4.203   6.724  0.1771 -0.4430 -1.4396
  437MOL0     H58937   5.755   4.227   6.707 -2.0029  2.1361  1.3019
  437MOL0     H58938   5.756   4.002   6.593  1.5411  2.7770  0.0963
  437MOL0     H58939   5.584   3.991   6.596  0.2146  0.0192  0.3164
  437MOL0     H58940   5.556   4.202   6.449  0.2549  1.8895  2.5065
  437MOL0     H58941   5.723   4.216   6.430  0.0212  0.3173  2.1946
  437MOL0     H58942   5.749   3.997   6.307 -0.9095 -0.3422 -1.9723
  437MOL0     H58943   5.584   3.956   6.348  0.4573 -0.9973 -1.6181
  437MOL0     H58944   5.593   4.032   6.123 -0.6299  0.0356  0.6087
  437MOL0     H58945   5.703   4.166   6.169 -1.5306  1.9255  0.1915
  437MOL0     H58946   5.350   4.037   6.187 -2.5077  0.9317  2.6604
  437MOL0     H58947   5.117   4.187   6.039  1.3509  0.8460 -1.5214
  437MOL0     H58948   5.094   4.186   6.213  3.2252 -0.4540  2.1823
  437MOL0     H58949   5.106   4.438   6.200 -0.6370 -1.6356  2.5245
  437MOL0     H58950   4.961   4.342   6.149  1.1324 -3.1451 -0.3197
  437MOL0     H58951   5.171   4.481   5.980  0.8860  0.0292  2.1368
  437MOL0     H58952   5.000   4.516   5.987 -2.8000 -1.3933  1.7262
  437MOL0     H58953   5.121   4.294   5.823 -0.0668  0.9278 -2.1512
  437MOL0     H58954   5.012   4.422   5.782 -2.4083 -1.6982  1.2041
  437MOL0     H58955   5.023   4.230   5.647 -1.9794  1.5190  2.7751
  437MOL0     H58956   4.982   4.200   5.409 -0.2025 -1.2099  0.4385
  437MOL0     H58957   5.067   4.042   5.449 -0.0372 -0.7692  2.3571
  437MOL0     H58958   4.911   4.043   5.364 -2.0346 -0.7961  1.2633
  437MOL0     H58959   4.346   3.810   5.484 -1.6020  0.9869 -1.1233
  437MOL0     H58960   4.198   3.788   5.288  0.6527 -0.5536 -1.9020
  437MOL0     H58961   4.323   4.020   4.967  0.3291 -0.6207 -0.3156
  437MOL0     H58962   4.253   3.912   4.846  0.1149  0.3930 -0.8265
  437MOL0     H58963   4.120   4.031   5.097 -0.9100 -0.0813 -0.3150
  437MOL0     H58964   4.097   4.094   4.939 -1.1620  0.7370  1.8534
  437MOL0     H58965   3.933   3.886   5.053 -2.9019 -0.2417 -0.7212
  437MOL0     H58966   4.026   3.809   4.927 -0.6654 -0.2775  1.8032
  437MOL0     H58967   3.847   4.049   4.894  0.4167 -0.0200  0.4914
  437MOL0     H58968   3.931   3.974   4.759 -1.7816  2.3146 -0.2346
  437MOL0     H58969   3.747   3.845   4.949 -0.9639  2.4906 -0.7083
  437MOL0     H58970   3.829   3.746   4.824 -1.6788 -0.1747 -0.7883
  437MOL0     H58971   3.661   3.989   4.734  2.5158 -0.7912 -1.2914
  437MOL0     H58972   3.719   3.852   4.649  0.6944  0.7242 -0.9256
  437MOL0     H58973   3.500   3.867   4.869 -2.1569  0.7733 -0.3853
  437MOL0     H58974   3.572   3.711   4.821  1.6082  1.5132  1.4446
  437MOL0     H58975   3.357   3.778   4.723  1.1616 -2.2959  1.7438
  437MOL0     H58976   3.480   3.725   4.605 -3.3964 -2.0305  1.2019
  437MOL0     H58977   4.521   3.950   5.051  1.8296  2.5911  0.9359
  437MOL0     H58978   4.665   3.959   5.253  0.4583 -0.6520 -1.4228
  437MOL0     H58979   4.631   3.954   5.737 -0.1018 -0.0104  1.6540
  437MOL0     H58980   4.716   4.100   5.917 -0.4157  0.8086  0.4226
  437MOL0     H58981   5.758   4.454   7.172  0.5291 -2.0542 -0.8592
  437MOL0     H58982   5.913   4.610   7.281 -0.3119 -0.4747  1.4277
  437MOL0     H58983   6.211   4.948   7.294 -3.2730 -0.2088  1.9156
  437MOL0     H58984   6.350   5.086   7.456  1.8561  0.1933  0.4738
  437MOL0     H58985   6.672   5.120   7.644  0.0396 -1.1959  0.9007
  437MOL0     H58986   6.562   5.143   7.508 -4.3818 -0.1477 -0.2347
  437MOL0     H58987   6.406   5.248   7.604  1.9730 -0.7828 -1.9078
  437MOL0     H58988   6.542   5.332   7.677  1.2163 -0.9946 -1.1024
  437MOL0     H58989   6.489   5.136   7.883  1.6650  1.6446  0.1414
  437MOL0     H58990   6.336   5.157   7.829  0.8837 -1.3085 -0.1070
  437MOL0     H58991   6.344   5.318   7.982 -1.3722 -1.7920 -1.3227
  437MOL0     H58992   6.361   5.408   7.831  1.6888 -1.1263 -1.0543
  437MOL0     H58993   6.762   5.439   8.015  0.2458 -2.4208  0.7032
  437MOL0     H58994   6.461   4.741   7.670 -0.5692  1.9595  2.0123
  437MOL0     H58995   6.346   4.607   7.530  0.5839  0.3568  1.0148
  438MOL0     O58996   4.435   1.253   4.838  0.6334 -0.2895  0.4621
  438MOL0     C58997   4.424   1.180   4.738  0.2376  0.0770 -0.8168
  438MOL0     O58998   4.529   1.125   4.673 -0.4083 -0.5718  0.5502
  438MOL0     C58999   4.652   1.186   4.695  0.9596  0.0539 -0.3832
  438MOL0     C59000   4.746   1.130   4.781 -0.2116 -0.3222 -0.0789
  438MOL0     C59001   4.872   1.195   4.798 -0.1433 -0.2393 -1.0574
  438MOL0     C59002   4.889   1.319   4.736  0.2698 -1.0184  0.2486
  438MOL0     O59003   4.983   1.413   4.760  0.0964  0.0359 -0.3302
  438MOL0     C59004   5.088   1.386   4.851  0.1941  0.2252  0.3050
  438MOL0     C59005   5.130   1.528   4.899  0.5802 -0.6059  0.2239
  438MOL0     C59006   5.017   1.604   4.974  0.1403 -0.0492 -0.0797
  438MOL0     C59007   5.029   1.757   4.971  0.4327 -0.8151  0.3360
  438MOL0     C59008   4.991   1.815   4.839  0.0528  1.5477  0.6513
  438MOL0     C59009   4.973   1.971   4.838  0.7985  0.1009  0.0641
  438MOL0     C59010   4.969   2.027   4.691 -0.5652 -0.2884  0.5050
  438MOL0     C59011   4.994   2.179   4.707 -0.4489 -0.0371  0.5833
  438MOL0     N59012   4.883   2.254   4.771 -0.1675  0.8570 -0.3963
  438MOL0     C59013   4.753   2.258   4.727 -0.6784 -0.2062 -0.1910
  438MOL0     C59014   4.682   2.319   4.823 -0.5567 -0.5851 -0.3668
  438MOL0     C59015   4.535   2.361   4.801 -0.4406 -0.0419  0.2233
  438MOL0     C59016   4.443   2.277   4.872  0.4001  0.7617 -0.1563
  438MOL0     C59017   4.452   2.124   4.834 -0.1305  0.1101 -0.5478
  438MOL0     C59018   4.309   2.067   4.844  0.5765 -1.0157 -0.3364
  438MOL0     O59019   4.305   2.026   4.985  0.3899  0.3241 -0.2698
  438MOL0     C59020   4.222   1.928   5.030  0.4513  0.0439  1.0733
  438MOL0     C59021   4.245   1.872   5.159  0.4588 -0.3464 -0.2286
  438MOL0     C59022   4.162   1.764   5.208  0.4737  0.3060 -0.5016
  438MOL0     C59023   4.208   1.714   5.341  0.2709 -0.4311  0.6061
  438MOL0     C59024   4.041   1.727   5.143  0.6457 -0.5994 -0.1964
  438MOL0     C59025   3.946   1.630   5.192  0.3390  0.0832 -0.7721
  438MOL0     O59026   3.814   1.638   5.142  0.4394 -0.2465 -0.4957
  438MOL0     C59027   3.699   1.595   5.206  0.1397  0.6927  0.0301
  438MOL0     C59028   3.582   1.604   5.125  0.3198  0.1657 -0.3698
  438MOL0     C59029   3.456   1.569   5.175 -0.0077  0.1723  0.4501
  438MOL0     C59030   3.445   1.524   5.308 -0.1102 -0.5823 -0.1067
  438MOL0     O59031   3.337   1.471   5.376 -0.5283  0.2794  0.0877
  438MOL0     C59032   3.205   1.504   5.325 -0.5129 -0.1528 -0.4816
  438MOL0     C59033   3.101   1.494   5.432  0.1408  0.0169  0.8880
  438MOL0     C59034   3.092   1.361   5.504 -0.0170  0.4261  0.1414
  438MOL0     C59035   3.202   1.326   5.611 -0.6669  0.3220  0.1353
  438MOL0     C59036   3.150   1.202   5.679  0.0907  0.4672 -0.2119
  438MOL0     C59037   3.236   1.160   5.798  0.1544 -0.2768  0.2091
  438MOL0     C59038   3.253   1.259   5.904 -0.8014  1.0623 -0.5881
  438MOL0     C59039   3.257   1.194   6.048  0.5404  0.3788  0.1912
  438MOL0    Cl59040   3.374   1.055   6.065 -0.1877 -0.3372 -0.0948
  438MOL0     C59041   3.554   1.516   5.390  0.0382  0.7308  0.6152
  438MOL0     C59042   3.684   1.547   5.340 -0.8659 -0.1687 -0.1404
  438MOL0     O59043   3.982   1.552   5.277  0.3019 -0.2754 -0.9250
  438MOL0     C59044   4.014   1.795   5.024  0.2834 -0.0511 -0.3654
  438MOL0     C59045   4.096   1.894   4.971 -0.7671  0.7244 -0.2486
  438MOL0     N59046   4.777   2.363   4.917  0.4615  0.0482 -0.6882
  438MOL0     N59047   4.895   2.316   4.891  0.5871  0.6626 -0.3699
  438MOL0     C59048   4.794   1.363   4.637  0.9075 -0.1049 -0.2547
  438MOL0     C59049   4.672   1.296   4.615 -0.0735 -0.1222 -0.0665
  438MOL0     C59050   4.297   1.179   4.661 -0.0306  0.3008  1.0290
  438MOL0     C59051   4.286   1.124   4.535 -0.9121 -0.4095  0.5685
  438MOL0     C59052   4.162   1.119   4.479  1.1184 -0.0158 -0.4449
  438MOL0     C59053   4.048   1.168   4.546 -0.0577 -0.1204  0.1069
  438MOL0     O59054   3.923   1.169   4.490  0.2323 -0.2967  0.1201
  438MOL0     C59055   3.878   1.104   4.372 -0.0165  0.5895  0.7677
  438MOL0     C59056   3.735   1.155   4.332  0.0370 -0.3968  0.3427
  438MOL0     C59057   3.623   1.126   4.436 -0.0688 -0.2093  0.3284
  438MOL0     C59058   3.514   1.218   4.418  0.1299 -0.0791 -0.3591
  438MOL0     C59059   3.451   1.203   4.287 -0.1966  0.6631  0.0719
  438MOL0     C59060   3.399   1.185   4.182 -0.3149  1.7517  0.3532
  438MOL0     C59061   4.061   1.229   4.672 -0.3761 -0.0042 -0.0635
  438MOL0     C59062   4.181   1.219   4.728  0.7436 -0.0073 -0.1579
  438MOL0     H59063   4.734   1.042   4.844  0.0351  1.6490  2.9483
  438MOL0     H59064   4.952   1.165   4.865 -0.3401  1.1223 -0.1902
  438MOL0     H59065   5.046   1.336   4.939 -1.9452 -1.3621 -1.4927
  438MOL0     H59066   5.168   1.336   4.795  0.5666  3.3891 -2.2654
  438MOL0     H59067   5.219   1.523   4.963 -0.5020 -1.5705  1.7319
  438MOL0     H59068   5.160   1.588   4.813  1.1126  0.1248  0.9084
  438MOL0     H59069   4.915   1.570   4.952 -0.5754  2.4358 -0.9326
  438MOL0     H59070   5.027   1.576   5.079  0.8335  3.8173  1.0335
  438MOL0     H59071   4.967   1.802   5.048 -0.2181 -0.8876 -0.1293
  438MOL0     H59072   5.131   1.794   4.980  1.4139 -2.6393 -2.0163
  438MOL0     H59073   5.063   1.790   4.761 -0.0398 -1.7609  1.4815
  438MOL0     H59074   4.900   1.762   4.809  1.0023  0.5024 -0.4703
  438MOL0     H59075   4.886   2.002   4.897 -1.6209 -3.9972 -0.9554
  438MOL0     H59076   5.054   2.014   4.898 -0.2397  1.0667  0.8181
  438MOL0     H59077   5.049   1.996   4.623  1.4252  1.7483  1.7949
  438MOL0     H59078   4.876   2.000   4.641 -0.0760  0.7801 -1.0624
  438MOL0     H59079   5.003   2.219   4.606  2.3399  3.2289  1.9268
  438MOL0     H59080   5.091   2.198   4.754 -1.7758  2.3887  2.6219
  438MOL0     H59081   4.710   2.201   4.645 -0.9770 -0.4358  0.1212
  438MOL0     H59082   4.511   2.461   4.839 -1.2250 -0.7118  1.5678
  438MOL0     H59083   4.515   2.356   4.694 -1.0494  0.6897  0.2907
  438MOL0     H59084   4.345   2.318   4.847 -0.4865 -1.2810 -0.1798
  438MOL0     H59085   4.446   2.289   4.980 -2.9379 -0.9311  0.2314
  438MOL0     H59086   4.517   2.078   4.909  0.2952  2.6149  0.7368
  438MOL0     H59087   4.493   2.107   4.734 -2.5553 -0.1389 -1.5771
  438MOL0     H59088   4.295   1.985   4.772 -3.4701 -0.4475 -0.4412
  438MOL0     H59089   4.228   2.138   4.824  2.7512  1.7403  0.0395
  438MOL0     H59090   4.328   1.897   5.225  0.4219 -0.9445  0.0538
  438MOL0     H59091   4.216   1.606   5.360  1.1406 -0.3837  0.5277
  438MOL0     H59092   4.309   1.749   5.364  0.7555  0.1297 -2.0304
  438MOL0     H59093   4.127   1.744   5.407 -1.4359 -0.4293 -1.3715
  438MOL0     H59094   3.588   1.638   5.022 -0.2620  0.0959 -0.4332
  438MOL0     H59095   3.370   1.567   5.108 -1.4083  0.7821  2.1381
  438MOL0     H59096   3.198   1.608   5.291 -1.1827 -0.3444 -0.9553
  438MOL0     H59097   3.186   1.442   5.236 -1.3569 -0.3174 -0.1874
  438MOL0     H59098   3.114   1.570   5.510 -4.2925  0.3501  1.5798
  438MOL0     H59099   3.005   1.512   5.382  0.5808 -1.2682 -0.5097
  438MOL0     H59100   3.089   1.280   5.431 -2.0287  1.7731 -1.3440
  438MOL0     H59101   3.000   1.369   5.562  0.6885 -0.9309  1.5407
  438MOL0     H59102   3.297   1.306   5.560  1.0001 -2.5642  3.8789
  438MOL0     H59103   3.230   1.405   5.681  0.1823  0.7856 -0.7126
  438MOL0     H59104   3.145   1.121   5.606 -2.7165  0.8064 -0.4983
  438MOL0     H59105   3.049   1.216   5.717 -0.4893  1.3801 -1.9696
  438MOL0     H59106   3.208   1.069   5.852 -1.1763 -0.9160 -1.4655
  438MOL0     H59107   3.331   1.129   5.753  1.2617  1.4423  1.1945
  438MOL0     H59108   3.181   1.341   5.908  1.0470  2.6921  1.9511
  438MOL0     H59109   3.341   1.316   5.875 -0.1108  1.1796  1.5870
  438MOL0     H59110   3.152   1.164   6.051 -0.0687  2.3456  0.0561
  438MOL0     H59111   3.263   1.277   6.119 -3.9832 -1.1480  2.7764
  438MOL0     H59112   3.553   1.468   5.488 -0.0898 -2.8417 -1.0021
  438MOL0     H59113   3.772   1.525   5.400  0.1690 -2.2241 -2.2850
  438MOL0     H59114   3.922   1.778   4.968  0.0431  0.1274 -0.0258
  438MOL0     H59115   4.056   1.935   4.879  3.0428 -0.3200 -2.5780
  438MOL0     H59116   4.821   1.457   4.589  2.4312 -0.3991 -0.0400
  438MOL0     H59117   4.598   1.328   4.543 -1.9292 -0.8488  1.4265
  438MOL0     H59118   4.373   1.092   4.479  0.6474  1.4839  1.7882
  438MOL0     H59119   4.145   1.067   4.386 -2.8056 -1.0652  0.6755
  438MOL0     H59120   3.946   1.123   4.288  2.2131  1.6944  2.6988
  438MOL0     H59121   3.866   0.997   4.393  1.1527  0.4683  0.8855
  438MOL0     H59122   3.701   1.107   4.240  1.0002 -0.9767  0.2821
  438MOL0     H59123   3.735   1.260   4.299  0.3851 -0.5219 -0.0644
  438MOL0     H59124   3.665   1.136   4.537  0.8250  0.9376 -0.1262
  438MOL0     H59125   3.580   1.027   4.419  2.7577 -1.4600 -0.1183
  438MOL0     H59126   3.556   1.319   4.422  2.1043 -0.8803  0.2635
  438MOL0     H59127   3.441   1.214   4.499 -0.3736  0.5998 -0.7655
  438MOL0     H59128   3.355   1.151   4.090 -0.2037  2.8739 -0.1382
  438MOL0     H59129   3.978   1.280   4.719  1.9699  4.3864 -0.2326
  438MOL0     H59130   4.191   1.247   4.832  1.1538  3.0572 -0.9147
  439MOL0     O59131   7.147   6.216   3.377  1.3423  0.0555  0.4739
  439MOL0     C59132   7.125   6.123   3.305  0.7431 -0.1435  0.1254
  439MOL0     O59133   7.091   6.000   3.338 -0.6264  0.4556  0.1677
  439MOL0     C59134   7.103   5.954   3.464 -0.3540  0.0526  0.3439
  439MOL0     C59135   7.062   6.025   3.582 -0.6502 -0.0736 -0.2679
  439MOL0     C59136   7.072   5.960   3.708 -0.0222  0.2338 -0.0605
  439MOL0     C59137   7.116   5.828   3.725 -0.3519  0.2255 -0.1498
  439MOL0     O59138   7.129   5.762   3.843  0.5214  0.1153 -0.2634
  439MOL0     C59139   7.026   5.764   3.927  0.3960  0.5658 -0.7012
  439MOL0     C59140   7.035   5.652   4.028 -0.1047 -0.1669  0.0887
  439MOL0     C59141   7.064   5.508   3.961 -1.1783  0.9429  0.7257
  439MOL0     C59142   6.936   5.466   3.878  0.6236 -0.5013  0.6411
  439MOL0     C59143   6.908   5.314   3.881 -0.2315  0.9869  0.1374
  439MOL0     C59144   6.786   5.265   3.810  0.5380 -0.6979 -0.1254
  439MOL0     C59145   6.796   5.287   3.658 -0.9049 -0.4453  0.4207
  439MOL0     C59146   6.820   5.157   3.579  0.3544 -0.1392 -0.1041
  439MOL0     N59147   6.834   5.167   3.429 -0.1978 -0.3223 -0.0246
  439MOL0     C59148   6.946   5.214   3.370 -0.3025 -0.5295  0.3774
  439MOL0     C59149   6.925   5.224   3.235 -0.6795  0.7991 -0.6391
  439MOL0     C59150   7.016   5.303   3.138 -0.5837 -0.5081 -0.9419
  439MOL0     C59151   7.158   5.333   3.200  0.1186  0.4894 -0.0046
  439MOL0     C59152   7.247   5.412   3.100 -0.4551 -0.7911 -0.7087
  439MOL0     C59153   7.399   5.405   3.138 -1.1678  0.6053  0.0929
  439MOL0     O59154   7.410   5.466   3.267  0.5552 -0.1790 -0.6778
  439MOL0     C59155   7.442   5.597   3.296  0.2107  0.6443  0.2251
  439MOL0     C59156   7.411   5.706   3.203  0.0558  0.7236 -0.4138
  439MOL0     C59157   7.440   5.840   3.238 -0.2132  0.3837 -0.5064
  439MOL0     C59158   7.410   5.946   3.135  0.3660 -0.3872  0.2023
  439MOL0     C59159   7.475   5.868   3.375 -0.0584  0.6837  0.9346
  439MOL0     C59160   7.508   6.002   3.433 -0.4580 -0.2287 -0.5816
  439MOL0     O59161   7.472   6.011   3.566  0.2417  0.0196 -0.3839
  439MOL0     C59162   7.512   6.115   3.636 -0.6381  0.7739 -0.0339
  439MOL0     C59163   7.432   6.227   3.662 -0.2092 -0.1406  1.0884
  439MOL0     C59164   7.484   6.338   3.729  0.4513  0.5364  0.2867
  439MOL0     C59165   7.613   6.342   3.787  1.5855  1.3558 -0.5488
  439MOL0     O59166   7.659   6.455   3.844 -0.0048 -0.6338  0.0726
  439MOL0     C59167   7.575   6.573   3.838  0.1700  0.5202  0.1905
  439MOL0     C59168   7.636   6.681   3.928 -0.1641 -0.1216  0.6286
  439MOL0     C59169   7.760   6.762   3.880  0.1423  0.0314 -0.3985
  439MOL0     C59170   7.838   6.825   4.000  0.1982  0.4103 -0.3266
  439MOL0     C59171   7.959   6.900   3.944  0.7141  0.3756  0.2697
  439MOL0     C59172   8.023   6.976   4.065  0.2917  0.8734 -0.1934
  439MOL0     C59173   8.148   7.065   4.018 -0.0167 -0.3778  0.3474
  439MOL0     C59174   8.220   7.133   4.137 -0.3220 -0.7123  0.0309
  439MOL0    Cl59175   8.336   7.240   4.059 -0.1129 -0.7187 -0.2151
  439MOL0     C59176   7.689   6.220   3.766  0.0432  0.0007 -0.7205
  439MOL0     C59177   7.641   6.115   3.692 -0.0439 -0.0587  0.6226
  439MOL0     O59178   7.554   6.089   3.361 -0.5359 -0.2051  0.1338
  439MOL0     C59179   7.487   5.757   3.462 -1.0104  0.3827  0.2516
  439MOL0     C59180   7.475   5.622   3.421  0.5118 -0.6292  0.2210
  439MOL0     N59181   6.794   5.185   3.228 -0.1201 -0.6330 -0.2737
  439MOL0     N59182   6.743   5.132   3.338  0.2831  0.6396  0.5456
  439MOL0     C59183   7.161   5.773   3.610  0.5388 -0.6124 -0.3658
  439MOL0     C59184   7.146   5.825   3.484  0.3858  0.1330  0.5825
  439MOL0     C59185   7.122   6.146   3.168 -0.4436  0.4875  0.4538
  439MOL0     C59186   7.046   6.067   3.085  0.1871  0.3694 -0.3855
  439MOL0     C59187   7.027   6.098   2.948 -0.1544  0.1154  0.7057
  439MOL0     C59188   7.094   6.202   2.886 -0.9055 -0.0621  0.5082
  439MOL0     O59189   7.092   6.208   2.753  0.6039 -0.0851 -0.4299
  439MOL0     C59190   7.093   6.344   2.697 -0.2820  0.5321 -0.1023
  439MOL0     C59191   7.003   6.352   2.565  0.1612  0.2138 -0.0932
  439MOL0     C59192   6.853   6.325   2.598  0.4232  0.3381 -0.6075
  439MOL0     C59193   6.786   6.435   2.680  0.0361  0.2674  0.4114
  439MOL0     C59194   6.639   6.416   2.674 -0.6078  0.1450  1.1790
  439MOL0     C59195   6.526   6.411   2.666  0.2996 -0.0463  0.0547
  439MOL0     C59196   7.180   6.278   2.967  0.5926  0.0102  0.4098
  439MOL0     C59197   7.194   6.253   3.107 -1.1209  0.3633 -0.0526
  439MOL0     H59198   7.013   6.121   3.571 -0.1696  0.6486  2.9418
  439MOL0     H59199   7.023   6.015   3.787 -0.4169  4.5174 -2.9529
  439MOL0     H59200   7.018   5.853   3.990 -0.8390 -0.2694  0.4022
  439MOL0     H59201   6.934   5.753   3.869  0.6297 -0.2732 -0.9202
  439MOL0     H59202   7.119   5.684   4.090  0.0074  0.4117 -0.3499
  439MOL0     H59203   6.944   5.650   4.089 -1.6364  2.5776 -1.8731
  439MOL0     H59204   7.150   5.517   3.894  1.7772 -1.1400  3.8629
  439MOL0     H59205   7.079   5.434   4.041  0.7722 -0.5886 -0.9368
  439MOL0     H59206   6.844   5.515   3.911 -1.2251 -3.4335  0.1784
  439MOL0     H59207   6.955   5.496   3.774  0.3204  3.0635  1.4823
  439MOL0     H59208   6.999   5.254   3.872  0.2667  1.0736  3.4812
  439MOL0     H59209   6.881   5.294   3.985 -0.5100 -2.1936 -0.4426
  439MOL0     H59210   6.767   5.163   3.843 -1.5254 -0.9076 -1.7704
  439MOL0     H59211   6.703   5.325   3.847 -1.0226 -2.6664 -0.2777
  439MOL0     H59212   6.708   5.327   3.607 -0.9902  0.2366  1.0904
  439MOL0     H59213   6.869   5.362   3.626 -2.4702  0.8169 -0.3605
  439MOL0     H59214   6.732   5.095   3.596 -1.6103  2.6091  0.4390
  439MOL0     H59215   6.901   5.099   3.624 -0.3229 -0.4201  0.7887
  439MOL0     H59216   7.032   5.235   3.433  0.7497 -0.0416 -1.1640
  439MOL0     H59217   7.021   5.239   3.050 -1.9134 -0.8479 -0.7900
  439MOL0     H59218   6.958   5.392   3.112  1.3900  1.0951 -0.1398
  439MOL0     H59219   7.196   5.235   3.228  0.2384  0.9447  1.5589
  439MOL0     H59220   7.157   5.381   3.299  3.1687 -0.7818  0.7448
  439MOL0     H59221   7.213   5.515   3.089 -3.5640 -1.5426  0.7194
  439MOL0     H59222   7.236   5.357   3.006 -0.5449 -1.2454 -0.4354
  439MOL0     H59223   7.464   5.464   3.073 -0.9687  1.5622  1.1360
  439MOL0     H59224   7.433   5.301   3.143  1.1346  1.2552 -0.7896
  439MOL0     H59225   7.363   5.690   3.107  0.9753  2.3744 -1.2051
  439MOL0     H59226   7.504   5.969   3.084 -0.2361  0.1850 -0.6888
  439MOL0     H59227   7.348   5.916   3.051  3.0245  0.1733 -2.0935
  439MOL0     H59228   7.381   6.045   3.172 -0.1466 -1.4544  2.9429
  439MOL0     H59229   7.331   6.231   3.622  0.0481 -0.6312  0.3672
  439MOL0     H59230   7.421   6.426   3.726 -1.6602 -0.8774  0.8725
  439MOL0     H59231   7.557   6.607   3.736  2.7491 -0.8984 -0.8227
  439MOL0     H59232   7.480   6.546   3.885  0.4163  1.7107  1.4418
  439MOL0     H59233   7.558   6.753   3.955  2.4422  3.1392  0.0985
  439MOL0     H59234   7.672   6.647   4.026  1.9691 -0.0387 -0.0811
  439MOL0     H59235   7.721   6.847   3.823  3.6724  0.1973 -2.9249
  439MOL0     H59236   7.837   6.699   3.835  1.2638  2.5125 -2.1915
  439MOL0     H59237   7.763   6.892   4.042  0.0348  0.0715 -0.0757
  439MOL0     H59238   7.875   6.748   4.068  1.4005  0.4577 -0.8902
  439MOL0     H59239   7.929   6.976   3.871  3.5666  1.2918 -0.0772
  439MOL0     H59240   8.035   6.831   3.907  2.1024  0.9826  1.8420
  439MOL0     H59241   7.961   7.049   4.118  0.4900  2.0610 -1.5260
  439MOL0     H59242   8.063   6.902   4.135  2.3203  2.2561  0.2009
  439MOL0     H59243   8.100   7.139   3.953  0.2042 -0.5273  0.0085
  439MOL0     H59244   8.220   7.000   3.967 -0.3663 -0.3621 -0.1881
  439MOL0     H59245   8.274   7.062   4.200  0.5987  0.3656  0.5157
  439MOL0     H59246   8.146   7.184   4.200 -0.8985 -1.1556 -0.2830
  439MOL0     H59247   7.794   6.218   3.792 -0.2564  1.7968  0.8709
  439MOL0     H59248   7.703   6.033   3.658  2.1700  1.9586 -0.4889
  439MOL0     H59249   7.519   5.775   3.564 -2.6456 -2.7485  1.4681
  439MOL0     H59250   7.491   5.542   3.493 -0.7356  0.4557  1.8009
  439MOL0     H59251   7.192   5.669   3.606  1.9265 -0.2280 -0.1546
  439MOL0     H59252   7.171   5.767   3.396 -1.6772  0.3957 -0.2384
  439MOL0     H59253   6.989   5.983   3.123  1.3968  0.6866  2.4539
  439MOL0     H59254   6.966   6.044   2.877  0.7767  0.2759 -0.2407
  439MOL0     H59255   7.057   6.418   2.770 -1.0013 -0.4265  0.5362
  439MOL0     H59256   7.199   6.366   2.681 -0.8125  1.6338 -2.4258
  439MOL0     H59257   7.038   6.293   2.480  0.8467  1.0977 -0.4478
  439MOL0     H59258   7.015   6.453   2.524  1.6221  0.2164  0.2851
  439MOL0     H59259   6.848   6.234   2.657 -0.3060  0.7324 -0.0539
  439MOL0     H59260   6.800   6.310   2.503  3.7200 -2.5343 -2.2357
  439MOL0     H59261   6.813   6.529   2.633 -1.2293  0.8037  0.7139
  439MOL0     H59262   6.805   6.431   2.788 -3.4409 -3.7591  1.1714
  439MOL0     H59263   6.421   6.393   2.656  0.6179 -1.4535 -1.0975
  439MOL0     H59264   7.223   6.366   2.920 -2.4561  1.5712  0.2908
  439MOL0     H59265   7.258   6.315   3.169 -0.3474  0.1232 -0.6053
  440MOL0     O59266   5.925   8.154   2.790 -0.1687 -0.3217  0.6890
  440MOL0     C59267   6.022   8.082   2.799 -0.4687 -0.2817  0.3596
  440MOL0     O59268   6.030   7.964   2.867  0.2947 -0.4418  0.7909
  440MOL0     C59269   5.947   7.933   2.972 -0.2762 -0.2690 -1.2774
  440MOL0     C59270   5.924   8.033   3.073 -0.3679  0.3862 -0.7774
  440MOL0     C59271   5.832   8.009   3.176  0.8342  0.5862  0.3275
  440MOL0     C59272   5.750   7.891   3.168  0.1668  0.2241  0.5047
  440MOL0     O59273   5.653   7.874   3.253 -0.6012 -0.0846 -0.6773
  440MOL0     C59274   5.687   7.886   3.384 -0.1466  0.1917 -0.6380
  440MOL0     C59275   5.605   7.993   3.440 -0.3835 -0.0554  0.0099
  440MOL0     C59276   5.468   7.958   3.466 -0.1176  0.2691  0.0194
  440MOL0     C59277   5.400   8.038   3.573 -1.0008 -0.5932 -0.7411
  440MOL0     C59278   5.400   8.194   3.548  1.0419  0.5177 -0.3130
  440MOL0     C59279   5.323   8.249   3.681 -0.1406 -0.5584  0.1792
  440MOL0     C59280   5.175   8.257   3.681  0.0257  0.6524 -0.2869
  440MOL0     C59281   5.118   8.143   3.768  1.1427 -0.5969 -0.7923
  440MOL0     N59282   4.968   8.134   3.766 -0.3354  0.3166  0.4761
  440MOL0     C59283   4.884   8.126   3.656 -0.7791  0.7215  0.6275
  440MOL0     C59284   4.755   8.129   3.710 -0.6563  0.0306  0.6297
  440MOL0     C59285   4.625   8.150   3.630 -0.7852 -0.0245 -0.1745
  440MOL0     C59286   4.597   8.286   3.575 -0.8513  0.5228  0.1260
  440MOL0     C59287   4.478   8.362   3.629  0.5185 -0.4814  0.1315
  440MOL0     C59288   4.351   8.292   3.575  0.1295 -0.3552  0.2359
  440MOL0     O59289   4.238   8.362   3.624 -0.1879 -0.1445  0.4224
  440MOL0     C59290   4.186   8.473   3.558 -0.2132 -0.1497  0.6363
  440MOL0     C59291   4.210   8.514   3.426 -0.6048 -0.5776  0.6478
  440MOL0     C59292   4.148   8.639   3.372 -0.0814  0.1693  0.2316
  440MOL0     C59293   4.180   8.685   3.226  0.0761 -0.2470 -0.4162
  440MOL0     C59294   4.063   8.709   3.457 -0.0911 -0.4623 -0.2538
  440MOL0     C59295   4.011   8.840   3.416  1.2267 -0.1536  0.4132
  440MOL0     O59296   4.095   8.942   3.420 -0.1509 -0.2777 -0.0335
  440MOL0     C59297   4.035   9.066   3.407  1.3246  0.0410  0.5527
  440MOL0     C59298   3.992   9.111   3.279  0.2242  0.1414  0.4210
  440MOL0     C59299   3.924   9.234   3.271  0.0992  0.4576  0.8467
  440MOL0     C59300   3.890   9.311   3.376  0.1984 -1.4955 -0.9488
  440MOL0     O59301   3.820   9.436   3.373 -0.1855  0.8989 -0.0631
  440MOL0     C59302   3.760   9.487   3.248  0.4981 -0.6348 -0.2930
  440MOL0     C59303   3.691   9.628   3.260  0.0215 -0.0579 -0.0453
  440MOL0     C59304   3.581   9.635   3.359  0.1399 -0.0657  0.2255
  440MOL0     C59305   3.456   9.575   3.293 -0.2391 -0.1686 -0.0005
  440MOL0     C59306   3.343   9.573   3.375 -0.3646 -0.3272 -0.0737
  440MOL0     C59307   3.212   9.575   3.292  0.0793  0.0348  0.3454
  440MOL0     C59308   3.197   9.454   3.212  0.5808  1.0462  0.8701
  440MOL0     C59309   3.090   9.468   3.110 -0.5705 -0.1068  0.1829
  440MOL0    Cl59310   2.938   9.481   3.195  0.0186 -0.0512  0.1918
  440MOL0     C59311   3.937   9.269   3.508 -1.1076 -0.5963 -0.5889
  440MOL0     C59312   4.012   9.146   3.517  0.0211 -0.1441 -0.3902
  440MOL0     O59313   3.894   8.844   3.386  0.6312  0.6965 -0.2432
  440MOL0     C59314   4.042   8.668   3.593  0.1646 -0.4504  0.7061
  440MOL0     C59315   4.109   8.551   3.641  0.1673  0.7424 -0.7985
  440MOL0     N59316   4.760   8.145   3.847 -0.9314  0.1171  0.2222
  440MOL0     N59317   4.887   8.161   3.877  0.2361  0.9879  0.0939
  440MOL0     C59318   5.755   7.803   3.058  0.1907  0.0671 -0.1315
  440MOL0     C59319   5.855   7.823   2.964 -0.5316  0.2355 -0.4762
  440MOL0     C59320   6.145   8.142   2.746 -0.1610  0.7495 -0.1265
  440MOL0     C59321   6.250   8.055   2.736  0.2992 -0.2262 -0.7624
  440MOL0     C59322   6.380   8.108   2.717 -0.9142  0.7923  0.5986
  440MOL0     C59323   6.399   8.251   2.706  0.7467  1.1444  0.4227
  440MOL0     O59324   6.516   8.313   2.683 -0.3855  1.0883 -0.6899
  440MOL0     C59325   6.621   8.218   2.648  0.3371 -0.1807 -0.1235
  440MOL0     C59326   6.725   8.315   2.582  0.1941  0.2650  0.9238
  440MOL0     C59327   6.788   8.381   2.701  0.0576 -0.6160  0.6421
  440MOL0     C59328   6.912   8.459   2.652 -0.2571  0.4224 -0.6165
  440MOL0     C59329   6.981   8.488   2.772  0.4311 -0.5160  0.1937
  440MOL0     C59330   7.046   8.494   2.871 -0.5798 -0.3541  0.0126
  440MOL0     C59331   6.286   8.338   2.723  0.9758  1.3989 -0.8358
  440MOL0     C59332   6.162   8.277   2.734 -0.6576 -0.8309  0.1286
  440MOL0     H59333   5.962   8.134   3.069 -0.2640  0.3216 -1.4438
  440MOL0     H59334   5.802   8.097   3.233  1.3108  1.0148 -0.0683
  440MOL0     H59335   5.663   7.794   3.437  1.3886  0.9147  1.4406
  440MOL0     H59336   5.792   7.910   3.403 -0.0193 -1.7047  1.4459
  440MOL0     H59337   5.651   8.025   3.534 -1.0695  3.8030 -0.7945
  440MOL0     H59338   5.615   8.072   3.365 -0.8982 -1.8533 -2.0524
  440MOL0     H59339   5.413   7.956   3.372  0.7603 -1.2887 -0.5017
  440MOL0     H59340   5.468   7.854   3.501  3.6857  0.7561  1.9150
  440MOL0     H59341   5.298   7.999   3.578 -1.4198  0.6006  0.5416
  440MOL0     H59342   5.438   8.014   3.673 -0.8899  1.4279 -0.2660
  440MOL0     H59343   5.499   8.240   3.539  0.2903  3.3370  3.4061
  440MOL0     H59344   5.343   8.200   3.455  2.6264 -0.7414 -1.4214
  440MOL0     H59345   5.370   8.194   3.762  0.2262 -1.0538 -0.3615
  440MOL0     H59346   5.356   8.353   3.681  1.0958 -0.9367  1.2583
  440MOL0     H59347   5.137   8.355   3.711 -2.5943 -0.6990  1.0597
  440MOL0     H59348   5.125   8.234   3.587  0.6663  1.5019 -0.8574
  440MOL0     H59349   5.157   8.169   3.866 -1.2255  1.1353 -0.2277
  440MOL0     H59350   5.157   8.045   3.736  0.0743 -1.1066 -0.5501
  440MOL0     H59351   4.895   8.132   3.548  1.0092  0.1360  0.7411
  440MOL0     H59352   4.624   8.076   3.549  3.0969 -0.0796 -0.3425
  440MOL0     H59353   4.542   8.130   3.698 -0.9081 -2.1354 -0.8533
  440MOL0     H59354   4.601   8.274   3.466  0.1300  1.7341  0.0050
  440MOL0     H59355   4.686   8.346   3.597  1.4075 -1.9532 -1.6192
  440MOL0     H59356   4.476   8.465   3.592 -0.8350 -0.2958  0.6664
  440MOL0     H59357   4.485   8.370   3.738  2.0069  0.4315 -0.0071
  440MOL0     H59358   4.347   8.201   3.636  0.6209 -1.4530 -1.2869
  440MOL0     H59359   4.347   8.262   3.469 -2.2503  0.2367  0.0937
  440MOL0     H59360   4.279   8.454   3.368  0.5007  0.2538  1.0452
  440MOL0     H59361   4.083   8.672   3.177 -1.7293  0.4042  2.7158
  440MOL0     H59362   4.219   8.786   3.217  0.5757 -0.5436 -1.7282
  440MOL0     H59363   4.259   8.631   3.175  3.0789 -0.9006  4.3196
  440MOL0     H59364   4.025   9.079   3.181 -0.9992  4.2177 -1.5401
  440MOL0     H59365   3.900   9.264   3.170  0.1868 -0.6772  0.4664
  440MOL0     H59366   3.838   9.488   3.172  0.5933 -0.8333 -0.1999
  440MOL0     H59367   3.682   9.418   3.215 -2.9725  2.7060  0.1701
  440MOL0     H59368   3.774   9.688   3.300  2.2729 -2.1720 -1.2498
  440MOL0     H59369   3.649   9.666   3.166 -0.6096  1.3757  0.7935
  440MOL0     H59370   3.569   9.739   3.391  0.1632 -0.3225  1.1071
  440MOL0     H59371   3.614   9.575   3.445  0.1832 -2.5926 -1.4523
  440MOL0     H59372   3.438   9.619   3.195 -0.4047 -0.0962  0.0632
  440MOL0     H59373   3.468   9.469   3.270 -0.1426  0.0377 -0.9620
  440MOL0     H59374   3.341   9.659   3.442 -2.9168  0.0680 -0.5462
  440MOL0     H59375   3.344   9.486   3.440  0.6413 -1.4187 -1.4939
  440MOL0     H59376   3.130   9.569   3.364  1.8199 -0.2465  2.3844
  440MOL0     H59377   3.202   9.663   3.228  1.0650 -1.8752 -2.6759
  440MOL0     H59378   3.179   9.372   3.282 -4.7747  0.7423 -0.4282
  440MOL0     H59379   3.288   9.434   3.154  0.5850  0.8773  0.9337
  440MOL0     H59380   3.079   9.385   3.039  0.5468  2.5912 -3.4630
  440MOL0     H59381   3.113   9.555   3.048  0.6780  0.3587  1.2470
  440MOL0     H59382   3.921   9.333   3.594  1.4599 -0.1832 -0.3417
  440MOL0     H59383   4.051   9.107   3.610 -2.1275  0.3942  0.8104
  440MOL0     H59384   3.978   8.728   3.656 -3.3610 -0.6554 -2.2977
  440MOL0     H59385   4.090   8.520   3.743  1.0651 -3.7252 -1.8079
  440MOL0     H59386   5.686   7.723   3.035  1.9836 -0.6592 -3.8113
  440MOL0     H59387   5.874   7.753   2.884  0.6864 -0.3915  0.3244
  440MOL0     H59388   6.244   7.948   2.751  0.3020 -0.1089  0.1507
  440MOL0     H59389   6.464   8.041   2.702 -3.8371 -3.1536  0.4197
  440MOL0     H59390   6.660   8.163   2.734 -0.3616 -1.1878 -0.4407
  440MOL0     H59391   6.596   8.151   2.566  1.5522  0.8429 -1.3755
  440MOL0     H59392   6.679   8.388   2.515  1.3510  3.2870  3.1673
  440MOL0     H59393   6.799   8.249   2.535  0.6154 -0.5410  2.6454
  440MOL0     H59394   6.809   8.316   2.786  2.2147  0.1292  0.7619
  440MOL0     H59395   6.714   8.451   2.742  0.3866 -1.1614  2.2551
  440MOL0     H59396   6.870   8.556   2.625 -0.7353  0.8417  1.4773
  440MOL0     H59397   6.969   8.414   2.571 -0.2565 -2.1179  0.6805
  440MOL0     H59398   7.105   8.517   2.957  1.1583  0.8013 -1.4103
  440MOL0     H59399   6.274   8.446   2.722 -3.4658  1.1133  0.1560
  440MOL0     H59400   6.080   8.345   2.758 -1.4006 -0.9112 -1.9899
  441MOL0     O59401   3.052   4.039   8.235  0.0838 -0.3672  0.0422
  441MOL0     C59402   3.095   4.156   8.234 -0.2883  0.3484  0.1621
  441MOL0     O59403   3.019   4.265   8.250  0.4551 -0.0182 -0.1341
  441MOL0     C59404   2.891   4.240   8.270 -0.6318 -0.4499 -0.5258
  441MOL0     C59405   2.841   4.240   8.403 -0.7273 -0.2177 -0.1399
  441MOL0     C59406   2.706   4.220   8.417 -0.1610 -0.1576 -0.2225
  441MOL0     C59407   2.614   4.206   8.310 -0.1306  0.2088  0.5994
  441MOL0     O59408   2.483   4.168   8.338  0.1018  0.2252  0.1785
  441MOL0     C59409   2.379   4.173   8.242 -0.5746  0.0842  0.1425
  441MOL0     C59410   2.236   4.179   8.288 -0.6927 -0.0938  0.0574
  441MOL0     C59411   2.205   4.055   8.376  0.2101 -0.1942  0.2423
  441MOL0     C59412   2.056   4.050   8.399 -0.2497 -0.5363  0.4547
  441MOL0     C59413   2.020   3.922   8.472 -0.1462  0.8008  1.8461
  441MOL0     C59414   1.889   3.947   8.545 -1.0730 -0.1388 -0.4036
  441MOL0     C59415   1.846   3.831   8.633 -0.0594 -0.6793  0.3485
  441MOL0     C59416   1.716   3.882   8.705  0.3101  0.2521  0.1307
  441MOL0     N59417   1.623   3.947   8.612 -0.3005  0.5550  0.1972
  441MOL0     C59418   1.539   3.885   8.520 -0.0326  0.2452 -0.0907
  441MOL0     C59419   1.456   3.979   8.472 -0.0673 -0.3542  0.0596
  441MOL0     C59420   1.348   3.953   8.369 -0.5790 -1.2953 -0.0167
  441MOL0     C59421   1.245   4.062   8.335  0.3092  0.0473 -0.6588
  441MOL0     C59422   1.167   4.130   8.447  0.2860  0.1375  0.0268
  441MOL0     C59423   1.044   4.219   8.417 -0.3278 -0.0492 -0.2295
  441MOL0     O59424   0.931   4.134   8.395 -0.3948 -0.4757  0.7152
  441MOL0     C59425   0.813   4.179   8.342  0.4926 -0.3056  0.1716
  441MOL0     C59426   0.783   4.315   8.343  0.1300 -0.1879 -1.0376
  441MOL0     C59427   0.673   4.363   8.279  0.6572  0.0116 -0.1536
  441MOL0     C59428   0.661   4.516   8.283  0.1121  0.0126 -0.8405
  441MOL0     C59429   0.596   4.276   8.199  0.4910 -0.3654 -0.1835
  441MOL0     C59430   0.484   4.327   8.114 -0.4490 -0.0688  0.5013
  441MOL0     O59431   0.406   4.230   8.060  0.6581 -0.1962  0.6408
  441MOL0     C59432   0.287   4.266   7.986 -0.7641 -0.5111 -1.0743
  441MOL0     C59433   0.166   4.307   8.037 -0.5783  0.1140 -0.3184
  441MOL0     C59434   0.072   4.362   7.945  0.2095  0.1936  0.2353
  441MOL0     C59435   0.096   4.363   7.807  0.1363 -1.0032 -0.3013
  441MOL0     O59436   0.027   4.430   7.708 -0.2753 -0.5370  0.4808
  441MOL0     C59437  -0.103   4.490   7.756  0.1165  0.0218 -1.1623
  441MOL0     C59438  -0.154   4.597   7.669 -0.3350 -0.1072 -0.3396
  441MOL0     C59439  -0.161   4.558   7.520  0.0894 -0.2166 -0.4060
  441MOL0     C59440  -0.229   4.672   7.440 -0.1421  0.1698  0.4384
  441MOL0     C59441  -0.201   4.660   7.286  0.0235  0.2590 -0.5823
  441MOL0     C59442  -0.314   4.731   7.211  0.0720  0.4377  0.8581
  441MOL0     C59443  -0.275   4.766   7.067  0.8121 -0.5999  0.0893
  441MOL0     C59444  -0.365   4.892   7.026 -1.0021  0.2323  0.4924
  441MOL0    Cl59445  -0.520   4.911   7.085  0.3652  0.3420  0.1837
  441MOL0     C59446   0.212   4.313   7.761 -0.4217  0.4056  1.2874
  441MOL0     C59447   0.312   4.269   7.849  0.6862  0.6066  0.3800
  441MOL0     O59448   0.473   4.447   8.089  0.7497 -0.5157 -0.0084
  441MOL0     C59449   0.617   4.139   8.216  0.5945 -0.7939  0.2286
  441MOL0     C59450   0.725   4.094   8.287  0.1981  0.0221 -0.3627
  441MOL0     N59451   1.471   4.096   8.550 -0.0573  0.8108  0.8977
  441MOL0     N59452   1.565   4.071   8.629 -0.9443 -0.9122  0.6042
  441MOL0     C59453   2.659   4.217   8.180  0.0295  0.3183  0.3253
  441MOL0     C59454   2.796   4.229   8.168 -0.8802  0.3990  0.0352
  441MOL0     C59455   3.236   4.174   8.219  0.5032  0.6402 -0.1197
  441MOL0     C59456   3.320   4.060   8.194  0.8650  1.3602 -0.1341
  441MOL0     C59457   3.459   4.071   8.183  0.2012  0.3403 -0.0443
  441MOL0     C59458   3.511   4.198   8.163  0.1855 -0.2512  1.1143
  441MOL0     O59459   3.645   4.220   8.150 -0.5986  0.3641  0.4344
  441MOL0     C59460   3.737   4.108   8.182 -0.1591  0.1655  0.5304
  441MOL0     C59461   3.879   4.156   8.161  0.0569  0.3176 -0.2410
  441MOL0     C59462   3.981   4.042   8.127 -0.3222  0.9292 -0.3422
  441MOL0     C59463   3.981   3.915   8.220 -0.8351 -0.4453 -0.6022
  441MOL0     C59464   4.033   3.972   8.345  0.2532  0.1346  0.5558
  441MOL0     C59465   4.077   4.006   8.447  0.8920  1.1988 -0.0173
  441MOL0     C59466   3.425   4.308   8.187 -0.4505  0.0515  0.6032
  441MOL0     C59467   3.292   4.303   8.213  0.2721  0.1273 -0.4706
  441MOL0     H59468   2.901   4.243   8.494 -0.7808  0.9441 -0.1224
  441MOL0     H59469   2.663   4.205   8.516  2.1650  1.6512  1.1569
  441MOL0     H59470   2.392   4.269   8.193 -0.3643  0.1470  0.3207
  441MOL0     H59471   2.397   4.095   8.167 -0.5609 -0.5154  0.7513
  441MOL0     H59472   2.226   4.275   8.340  1.7635  2.9425 -4.4134
  441MOL0     H59473   2.180   4.180   8.194 -0.2421 -0.5980 -0.2210
  441MOL0     H59474   2.233   3.963   8.323 -1.7224 -0.6680 -0.0178
  441MOL0     H59475   2.262   4.079   8.466  1.6363  3.1431 -1.3663
  441MOL0     H59476   2.021   4.136   8.457  1.4226 -0.9887  2.2464
  441MOL0     H59477   1.995   4.039   8.309  1.6387 -2.5190 -0.7121
  441MOL0     H59478   2.002   3.841   8.400  2.8881  1.0046  0.7202
  441MOL0     H59479   2.091   3.888   8.547 -1.0169 -3.4715  1.0166
  441MOL0     H59480   1.932   4.019   8.616  3.0874 -0.9688 -1.7836
  441MOL0     H59481   1.810   3.994   8.486 -0.7557  1.7835  0.6087
  441MOL0     H59482   1.815   3.748   8.569 -3.5345  0.0614  0.8782
  441MOL0     H59483   1.923   3.800   8.704 -2.3862 -0.7064  3.0097
  441MOL0     H59484   1.742   3.947   8.789  1.2040 -1.6432  1.3920
  441MOL0     H59485   1.667   3.789   8.736  0.0900  0.6772  1.0873
  441MOL0     H59486   1.545   3.779   8.497  2.3293  0.5973 -1.4001
  441MOL0     H59487   1.402   3.942   8.275 -2.8562 -0.1016 -1.5322
  441MOL0     H59488   1.297   3.867   8.412 -5.1792  1.0036 -0.3287
  441MOL0     H59489   1.177   4.027   8.256 -0.7631  3.0192 -1.1679
  441MOL0     H59490   1.305   4.145   8.297 -0.0473  0.7914  0.3627
  441MOL0     H59491   1.237   4.204   8.487 -2.2649  1.4684  2.3217
  441MOL0     H59492   1.131   4.065   8.527 -0.3212  0.2880 -0.1247
  441MOL0     H59493   1.063   4.270   8.322 -3.5932 -0.4073 -1.2114
  441MOL0     H59494   1.024   4.296   8.492  1.1446  3.0688 -2.7970
  441MOL0     H59495   0.840   4.393   8.392  0.8055 -1.5599  0.4489
  441MOL0     H59496   0.682   4.559   8.185 -1.2056  0.5351 -0.9233
  441MOL0     H59497   0.561   4.547   8.316  0.3960  0.9564 -0.8511
  441MOL0     H59498   0.734   4.548   8.357  2.6756 -1.4000 -2.6171
  441MOL0     H59499   0.151   4.301   8.144 -3.4684 -2.2456 -0.7093
  441MOL0     H59500  -0.018   4.411   7.980  0.2628  1.4484 -1.2623
  441MOL0     H59501  -0.180   4.414   7.771  0.6895 -0.4011 -0.2537
  441MOL0     H59502  -0.084   4.539   7.852  0.3987 -1.3687 -0.4786
  441MOL0     H59503  -0.247   4.636   7.713  1.6129  2.7967  1.5781
  441MOL0     H59504  -0.090   4.685   7.678  2.6083 -2.1302 -0.2118
  441MOL0     H59505  -0.220   4.468   7.496  1.0374 -0.4733 -1.9258
  441MOL0     H59506  -0.059   4.545   7.484  0.7780 -1.5902  1.8829
  441MOL0     H59507  -0.336   4.667   7.464 -0.0715  0.3697  0.7990
  441MOL0     H59508  -0.196   4.771   7.472  0.5760  0.2227 -0.4456
  441MOL0     H59509  -0.200   4.551   7.274 -0.1913  0.1372  0.4397
  441MOL0     H59510  -0.099   4.691   7.261  0.8389 -1.9986 -0.2974
  441MOL0     H59511  -0.396   4.660   7.201 -1.0895  1.8650 -0.3272
  441MOL0     H59512  -0.357   4.820   7.258 -0.9728  0.5307 -0.1974
  441MOL0     H59513  -0.295   4.679   7.004  0.7753  2.4201 -4.4451
  441MOL0     H59514  -0.170   4.787   7.045  0.9657 -3.0494 -1.9160
  441MOL0     H59515  -0.361   4.886   6.917  0.0279  1.2541  0.4564
  441MOL0     H59516  -0.302   4.974   7.063  2.8180 -3.2889  2.5809
  441MOL0     H59517   0.236   4.322   7.656  2.2527  1.9133  1.9360
  441MOL0     H59518   0.404   4.232   7.804  1.0080 -0.3781  1.7790
  441MOL0     H59519   0.546   4.068   8.175 -1.8586  1.4259  0.3373
  441MOL0     H59520   0.758   3.990   8.295  0.2229 -0.1712 -2.5318
  441MOL0     H59521   2.607   4.214   8.084  1.3195 -0.6901 -0.3667
  441MOL0     H59522   2.829   4.233   8.064  0.2423  1.9890  0.4076
  441MOL0     H59523   3.288   3.959   8.170  0.3411  1.2641  0.8992
  441MOL0     H59524   3.519   3.981   8.169  0.4191  0.3204  0.9337
  441MOL0     H59525   3.728   4.069   8.284  2.8836 -0.0346  0.8147
  441MOL0     H59526   3.714   4.032   8.106  2.2886 -0.1538  0.0093
  441MOL0     H59527   3.914   4.211   8.249 -1.2027  0.2507  0.3233
  441MOL0     H59528   3.862   4.214   8.070 -2.2676 -1.1815 -0.8501
  441MOL0     H59529   4.080   4.084   8.111 -0.5022  0.6949 -2.3572
  441MOL0     H59530   3.963   4.004   8.026 -0.9565  1.3101 -0.3785
  441MOL0     H59531   4.051   3.844   8.176  0.6759  0.8302 -0.3742
  441MOL0     H59532   3.882   3.871   8.239 -0.9870  0.4902  0.9853
  441MOL0     H59533   4.114   4.042   8.540 -0.0835  0.9725  0.4699
  441MOL0     H59534   3.474   4.405   8.183  0.8621 -0.6231 -0.3927
  441MOL0     H59535   3.243   4.398   8.228  1.8478  1.2560 -2.0725
  442MOL0     O59536   0.433   9.757   7.796  0.4754 -0.4609 -0.5935
  442MOL0     C59537   0.469   9.783   7.914  0.6202  0.3100  1.2848
  442MOL0     O59538   0.554   9.710   7.997  0.3791  0.0031  0.0389
  442MOL0     C59539   0.622   9.605   7.944 -0.8855 -0.5110 -0.3891
  442MOL0     C59540   0.756   9.615   7.926  0.2155  0.1709 -0.3509
  442MOL0     C59541   0.827   9.504   7.869  0.2225 -0.1558  0.1117
  442MOL0     C59542   0.757   9.379   7.847 -0.4472  0.7651  0.0438
  442MOL0     O59543   0.818   9.263   7.795 -0.5375 -0.6442  0.0133
  442MOL0     C59544   0.933   9.272   7.708  0.7918  0.0092 -0.8125
  442MOL0     C59545   0.976   9.131   7.662 -0.3822  0.0375 -0.3586
  442MOL0     C59546   1.082   9.134   7.551  0.0712  0.2192 -0.1067
  442MOL0     C59547   1.117   9.000   7.498  0.9984  0.4371  0.4089
  442MOL0     C59548   1.263   8.976   7.452 -0.0322 -0.6808  0.3174
  442MOL0     C59549   1.349   8.939   7.574  0.8738 -0.6019 -0.7434
  442MOL0     C59550   1.496   8.954   7.514  0.3547 -0.3289 -0.6942
  442MOL0     C59551   1.608   8.920   7.611 -0.5181  0.2619 -0.5639
  442MOL0     N59552   1.646   9.025   7.702 -0.0021 -0.0711 -0.1394
  442MOL0     C59553   1.768   9.074   7.721  0.2458  0.2860 -0.0970
  442MOL0     C59554   1.763   9.176   7.797  0.0619 -0.6250  0.6717
  442MOL0     C59555   1.877   9.261   7.848  0.2153 -0.3844  0.2263
  442MOL0     C59556   1.994   9.191   7.916 -1.0620 -0.8718  0.0104
  442MOL0     C59557   1.992   9.196   8.072  0.2378  1.0096 -0.8082
  442MOL0     C59558   2.017   9.333   8.136 -0.0348  0.0620 -0.4015
  442MOL0     O59559   2.144   9.383   8.097  0.6539  0.3052  0.3673
  442MOL0     C59560   2.171   9.507   8.150 -0.6219 -0.1608  0.6550
  442MOL0     C59561   2.088   9.592   8.222  0.4212  0.7764 -0.6837
  442MOL0     C59562   2.131   9.705   8.296 -0.0197 -0.2952  0.7927
  442MOL0     C59563   2.023   9.795   8.350 -0.2456 -0.1358 -0.4451
  442MOL0     C59564   2.265   9.750   8.269  1.1767  1.0601 -1.0160
  442MOL0     C59565   2.330   9.872   8.329 -0.4704 -0.1527 -0.4864
  442MOL0     O59566   2.452   9.895   8.286  0.4433  0.8791 -0.1340
  442MOL0     C59567   2.517  10.008   8.325  0.2247 -0.6737 -0.7257
  442MOL0     C59568   2.477  10.140   8.295 -0.3257  0.0227 -0.1390
  442MOL0     C59569   2.549  10.252   8.345  0.4537  1.0027 -0.2181
  442MOL0     C59570   2.667  10.226   8.421 -0.0601 -0.6342 -0.0340
  442MOL0     O59571   2.730  10.333   8.482 -1.2479  0.1743 -0.4499
  442MOL0     C59572   2.759  10.436   8.391  0.2296 -0.4194 -0.5201
  442MOL0     C59573   2.876  10.524   8.441 -0.9868  0.5290 -0.8201
  442MOL0     C59574   2.856  10.602   8.567  0.0938  0.6688  0.2575
  442MOL0     C59575   2.751  10.713   8.543 -0.5792  0.5425  0.1884
  442MOL0     C59576   2.740  10.821   8.650  0.0501  0.0962 -0.2188
  442MOL0     C59577   2.599  10.887   8.664  0.7241  0.2299 -0.5662
  442MOL0     C59578   2.597  10.988   8.774 -0.4069  0.1817 -0.7813
  442MOL0     C59579   2.466  11.062   8.798 -0.1371  0.0046  0.5537
  442MOL0    Cl59580   2.503  11.199   8.896  0.1363  0.0537  0.2379
  442MOL0     C59581   2.713  10.098   8.446  0.3805  0.5048  0.9719
  442MOL0     C59582   2.642   9.991   8.394 -0.4936  0.2457  0.3010
  442MOL0     O59583   2.275   9.936   8.423 -0.2627  1.2522 -0.1177
  442MOL0     C59584   2.354   9.660   8.203 -0.1134  0.0374 -1.5198
  442MOL0     C59585   2.301   9.549   8.133 -0.3782  0.0510 -0.9434
  442MOL0     N59586   1.633   9.188   7.843 -0.1282  0.7061 -0.6000
  442MOL0     N59587   1.569   9.093   7.792 -0.3816 -0.4547  0.0970
  442MOL0     C59588   0.624   9.370   7.877 -0.4912  1.1502 -0.3198
  442MOL0     C59589   0.558   9.482   7.916  0.5060 -0.7658 -0.4250
  442MOL0     C59590   0.411   9.897   7.980  0.4752  0.4956 -1.2419
  442MOL0     C59591   0.485   9.951   8.079  0.4117 -0.1371  0.2639
  442MOL0     C59592   0.460  10.073   8.137  0.3415  0.2113 -0.1526
  442MOL0     C59593   0.347  10.144   8.089  0.0944  0.4169  0.1513
  442MOL0     O59594   0.313  10.272   8.123  0.2010 -0.1041 -0.5268
  442MOL0     C59595   0.389  10.365   8.040  0.3039 -0.4213 -0.0113
  442MOL0     C59596   0.297  10.419   7.933  0.6295 -0.0689 -0.5375
  442MOL0     C59597   0.165  10.458   7.999 -0.0104  0.0960  0.4635
  442MOL0     C59598   0.077  10.548   7.905 -0.6263 -0.1566 -0.1799
  442MOL0     C59599  -0.059  10.548   7.943  0.4951 -0.0311 -0.4881
  442MOL0     C59600  -0.178  10.554   7.982  0.0580  0.1180  0.3032
  442MOL0     C59601   0.270  10.084   7.989  0.7917 -0.5047 -0.1963
  442MOL0     C59602   0.293   9.956   7.938 -0.2695 -0.0310 -0.5139
  442MOL0     H59603   0.805   9.709   7.948  1.0148 -0.3977  0.3614
  442MOL0     H59604   0.932   9.526   7.857  0.3245 -0.3938  0.5337
  442MOL0     H59605   0.896   9.325   7.620  0.3226 -0.3956 -0.8624
  442MOL0     H59606   1.018   9.326   7.752  1.7433 -2.1712  0.1617
  442MOL0     H59607   1.005   9.078   7.753  1.4282  0.3761 -0.6889
  442MOL0     H59608   0.891   9.078   7.618  1.4179 -1.9789 -1.5910
  442MOL0     H59609   1.046   9.198   7.470 -2.6235  1.0794  1.6418
  442MOL0     H59610   1.166   9.186   7.599 -1.1797  2.3884 -0.1418
  442MOL0     H59611   1.107   8.919   7.571  1.4955 -0.1534 -0.1685
  442MOL0     H59612   1.053   8.972   7.414 -2.7151 -2.5802  3.8690
  442MOL0     H59613   1.269   8.895   7.380 -0.6855 -0.4953  0.0466
  442MOL0     H59614   1.303   9.062   7.398 -1.5901 -1.4158 -2.1316
  442MOL0     H59615   1.335   9.020   7.646  0.7518 -2.3277  1.2597
  442MOL0     H59616   1.329   8.847   7.630  0.4966  0.5756  1.1139
  442MOL0     H59617   1.515   8.894   7.425  1.8577  0.2681 -0.7949
  442MOL0     H59618   1.508   9.057   7.481  3.8915 -0.1650  0.6857
  442MOL0     H59619   1.690   8.894   7.543 -0.7393  0.3732 -0.8730
  442MOL0     H59620   1.580   8.827   7.661 -1.4477 -0.2572 -1.9951
  442MOL0     H59621   1.860   9.031   7.684  0.1387  0.8908 -1.1344
  442MOL0     H59622   1.912   9.317   7.761 -1.3342  1.2061  0.5581
  442MOL0     H59623   1.835   9.332   7.921  0.2529  1.5512 -1.5382
  442MOL0     H59624   2.087   9.227   7.872 -0.9445 -1.0322  0.1255
  442MOL0     H59625   1.982   9.086   7.890 -0.7137 -0.3336 -2.5374
  442MOL0     H59626   2.067   9.124   8.107 -0.3556 -0.0158 -1.5773
  442MOL0     H59627   1.894   9.156   8.096 -0.1838 -0.5635 -4.4183
  442MOL0     H59628   2.003   9.315   8.242 -3.7442 -0.7979 -0.9045
  442MOL0     H59629   1.936   9.399   8.102 -0.1061 -0.2983 -0.9455
  442MOL0     H59630   1.982   9.569   8.217  0.7814 -0.7947 -2.0629
  442MOL0     H59631   2.011   9.804   8.459 -1.0409 -1.2569 -0.4156
  442MOL0     H59632   2.047   9.893   8.309  0.1358 -0.8370 -1.9701
  442MOL0     H59633   1.927   9.780   8.298  0.6555  0.3814 -2.3206
  442MOL0     H59634   2.386  10.140   8.237 -3.1437 -2.1911  3.8664
  442MOL0     H59635   2.527  10.357   8.328  0.8563  0.7603 -2.5840
  442MOL0     H59636   2.789  10.398   8.293  0.7188 -1.2844 -0.0479
  442MOL0     H59637   2.677  10.507   8.377  2.3764  2.1426 -1.0548
  442MOL0     H59638   2.961  10.458   8.457 -0.3086  1.2122 -1.5047
  442MOL0     H59639   2.923  10.586   8.364 -2.4429 -1.4869 -3.5264
  442MOL0     H59640   2.950  10.646   8.599  0.8550  0.4140 -1.5129
  442MOL0     H59641   2.824  10.540   8.651  1.5104  0.1351  0.4243
  442MOL0     H59642   2.770  10.765   8.449  1.5548  2.3431  1.5123
  442MOL0     H59643   2.656  10.660   8.546  1.5278 -3.6454  0.7405
  442MOL0     H59644   2.805  10.905   8.622  0.2179  1.2606  3.1379
  442MOL0     H59645   2.765  10.780   8.748 -0.7949 -0.7722 -0.3622
  442MOL0     H59646   2.561  10.927   8.570 -2.4663 -1.9120 -0.3321
  442MOL0     H59647   2.529  10.809   8.695 -0.4892  2.1659  1.8344
  442MOL0     H59648   2.691  11.039   8.752  1.2438 -2.3253  0.0365
  442MOL0     H59649   2.606  10.929   8.866 -3.1989  0.9681  0.0895
  442MOL0     H59650   2.392  10.989   8.833 -0.6715 -0.1331 -0.8286
  442MOL0     H59651   2.451  11.105   8.699  1.6720 -1.3847 -0.3827
  442MOL0     H59652   2.801  10.073   8.504 -0.1807 -0.1969  1.5480
  442MOL0     H59653   2.675   9.891   8.422  0.1760  0.5646  0.6815
  442MOL0     H59654   2.462   9.671   8.202  0.1661 -1.8693  0.0696
  442MOL0     H59655   2.368   9.487   8.075  1.0573 -3.7581  4.0035
  442MOL0     H59656   0.567   9.277   7.877 -3.3392  2.7608  0.1008
  442MOL0     H59657   0.451   9.474   7.933  0.5827 -0.6189  0.1457
  442MOL0     H59658   0.584   9.910   8.095 -0.2219 -1.6151  0.5433
  442MOL0     H59659   0.517  10.116   8.219 -2.9125  4.0061  0.4400
  442MOL0     H59660   0.417  10.440   8.114 -0.3219 -1.8539  1.7521
  442MOL0     H59661   0.474  10.315   7.993 -0.1712 -1.6509  0.3817
  442MOL0     H59662   0.270  10.344   7.859  0.1755 -3.4945  2.8230
  442MOL0     H59663   0.346  10.501   7.878 -0.1718 -0.7041 -2.2660
  442MOL0     H59664   0.177  10.494   8.102 -1.8768 -0.0652  0.7602
  442MOL0     H59665   0.107  10.366   8.012 -2.4945  1.7012  1.4457
  442MOL0     H59666   0.094  10.512   7.803 -0.2521 -2.9445  0.7729
  442MOL0     H59667   0.105  10.653   7.904 -0.6392 -0.1297 -2.1913
  442MOL0     H59668  -0.268  10.553   8.040  1.1446 -0.8290  2.0557
  442MOL0     H59669   0.176  10.135   7.972 -0.3359 -1.4741  2.4396
  442MOL0     H59670   0.231   9.899   7.869  1.0271 -0.7190 -1.1587
  443MOL0     O59671   1.543   1.340   3.679 -0.8158  0.4542 -0.1801
  443MOL0     C59672   1.589   1.229   3.711 -0.3016  0.0839 -0.1062
  443MOL0     O59673   1.570   1.159   3.830  0.6217  0.1757 -0.3779
  443MOL0     C59674   1.485   1.208   3.933 -0.6225  0.6861 -0.5033
  443MOL0     C59675   1.445   1.342   3.947  0.7646 -0.0496  0.0968
  443MOL0     C59676   1.374   1.389   4.058  0.0161 -1.0229  0.2169
  443MOL0     C59677   1.331   1.298   4.154  0.0554 -0.4828  0.1319
  443MOL0     O59678   1.253   1.331   4.263  0.5087  0.6274 -0.7871
  443MOL0     C59679   1.219   1.471   4.287 -0.1020  0.6848  0.0606
  443MOL0     C59680   1.119   1.477   4.402 -0.4305  0.7452 -0.8628
  443MOL0     C59681   1.087   1.616   4.457  0.5591  0.0483 -0.3914
  443MOL0     C59682   1.216   1.677   4.529  0.0740 -0.4104 -0.0414
  443MOL0     C59683   1.193   1.807   4.603 -0.3505  0.2201 -1.0138
  443MOL0     C59684   1.169   1.924   4.512 -0.6538  0.7703  0.5511
  443MOL0     C59685   1.016   1.948   4.487 -0.0773  0.6770  0.3648
  443MOL0     C59686   1.001   2.076   4.397  0.8079  0.0231 -0.1755
  443MOL0     N59687   1.041   2.062   4.255  0.5635  0.3431  0.1784
  443MOL0     C59688   0.956   2.040   4.147  0.9076 -0.6132 -0.7847
  443MOL0     C59689   1.040   2.013   4.042  0.6583 -0.4586  0.0475
  443MOL0     C59690   0.991   1.996   3.898  0.1613  0.6953  0.0024
  443MOL0     C59691   1.080   1.909   3.815 -0.4535 -0.0740 -0.1914
  443MOL0     C59692   1.061   1.944   3.663 -0.7790 -0.0993  0.0818
  443MOL0     C59693   0.918   1.919   3.609  0.3122  0.0699  0.1745
  443MOL0     O59694   0.866   1.789   3.643 -0.1522  0.7013  0.9820
  443MOL0     C59695   0.734   1.774   3.620 -0.0415 -0.4640  0.3774
  443MOL0     C59696   0.683   1.661   3.691  0.1853 -0.2317 -0.2888
  443MOL0     C59697   0.549   1.629   3.685  0.1045  0.6554  0.5348
  443MOL0     C59698   0.499   1.513   3.766  0.0064 -0.2579  0.7637
  443MOL0     C59699   0.461   1.701   3.590 -0.6845  0.4578  1.2249
  443MOL0     C59700   0.319   1.672   3.580 -0.3021 -0.0157 -0.1595
  443MOL0     O59701   0.274   1.709   3.460 -0.3293  0.1149  0.5666
  443MOL0     C59702   0.140   1.727   3.429 -0.1670 -0.4350  0.1660
  443MOL0     C59703   0.043   1.792   3.512 -0.1004 -0.5806 -0.6017
  443MOL0     C59704  -0.099   1.789   3.492  0.7210 -0.6097 -0.2404
  443MOL0     C59705  -0.149   1.713   3.382  0.5183 -0.2770  0.7631
  443MOL0     O59706  -0.281   1.705   3.367 -0.1613  0.0484  0.2697
  443MOL0     C59707  -0.341   1.610   3.272  0.1022  0.3005 -0.2001
  443MOL0     C59708  -0.490   1.623   3.311 -0.8274  0.1205  0.9301
  443MOL0     C59709  -0.573   1.567   3.191 -0.3178  0.1589 -0.4349
  443MOL0     C59710  -0.716   1.630   3.190  0.4949  0.1809 -0.0456
  443MOL0     C59711  -0.810   1.566   3.082 -0.0144  0.3982  0.7351
  443MOL0     C59712  -0.864   1.435   3.137 -0.3945  0.2888 -0.4085
  443MOL0     C59713  -1.009   1.421   3.089  0.4906  0.7003 -0.2871
  443MOL0     C59714  -1.074   1.297   3.153  0.2135  0.2050  0.0913
  443MOL0    Cl59715  -0.981   1.144   3.113  0.0417  0.3506  0.5467
  443MOL0     C59716  -0.055   1.668   3.288  0.1106 -0.1973 -0.3968
  443MOL0     C59717   0.089   1.674   3.312  0.3834  0.5115  0.2206
  443MOL0     O59718   0.251   1.621   3.668 -0.1751 -0.6620 -0.6030
  443MOL0     C59719   0.521   1.800   3.513 -1.0881  0.0417 -0.0843
  443MOL0     C59720   0.650   1.842   3.534  0.5007  0.1768 -0.4401
  443MOL0     N59721   1.163   2.053   4.080 -0.6386  0.8504 -0.0957
  443MOL0     N59722   1.168   2.061   4.205 -0.2182 -1.1820  0.6189
  443MOL0     C59723   1.359   1.163   4.135 -0.0116 -0.7390  0.7519
  443MOL0     C59724   1.442   1.121   4.031  0.1818  0.0994 -0.7680
  443MOL0     C59725   1.695   1.181   3.616  0.6580 -0.0179  0.0015
  443MOL0     C59726   1.769   1.061   3.647  0.1942  0.2562  0.0412
  443MOL0     C59727   1.871   1.024   3.562 -0.0016  0.3833  0.9170
  443MOL0     C59728   1.898   1.081   3.437 -0.4024  0.6490 -0.8106
  443MOL0     O59729   1.990   1.023   3.354  0.2094 -0.3610 -0.4491
  443MOL0     C59730   2.126   1.043   3.392 -0.3596 -0.2116  0.1893
  443MOL0     C59731   2.207   1.043   3.263 -0.2133  0.5871 -0.5096
  443MOL0     C59732   2.144   0.961   3.147  0.1048  0.4797 -0.4439
  443MOL0     C59733   2.219   0.940   3.026 -0.4835 -0.3944  0.2735
  443MOL0     C59734   2.293   0.818   3.019 -0.0114 -1.0894  1.0513
  443MOL0     C59735   2.344   0.712   3.018  0.0833 -0.3160  0.2204
  443MOL0     C59736   1.820   1.197   3.400 -0.1463  0.1546 -0.8064
  443MOL0     C59737   1.732   1.253   3.494 -0.3507 -0.2758  0.0074
  443MOL0     H59738   1.470   1.418   3.874 -1.6591  0.5274 -0.2080
  443MOL0     H59739   1.357   1.496   4.063  1.6806 -0.7276  0.3202
  443MOL0     H59740   1.313   1.515   4.322  0.3645 -0.7666  0.7001
  443MOL0     H59741   1.179   1.520   4.198  2.7725  1.0069 -1.1889
  443MOL0     H59742   1.031   1.431   4.356 -1.1541  0.5089  0.7125
  443MOL0     H59743   1.145   1.413   4.486 -3.1098 -1.6196 -1.6778
  443MOL0     H59744   1.044   1.683   4.382 -1.2709  0.4885  0.9799
  443MOL0     H59745   1.011   1.599   4.533  1.7435  2.2943  1.4135
  443MOL0     H59746   1.247   1.611   4.611  1.3768  1.4896  1.0941
  443MOL0     H59747   1.301   1.683   4.460 -1.0191  1.0727 -1.3172
  443MOL0     H59748   1.118   1.804   4.681  1.3784 -0.3982  0.7020
  443MOL0     H59749   1.284   1.815   4.663 -2.1412 -1.7254  2.2511
  443MOL0     H59750   1.211   2.020   4.543 -2.2915  1.7962 -0.2540
  443MOL0     H59751   1.206   1.893   4.414 -0.6464 -1.2433  1.1594
  443MOL0     H59752   0.967   1.861   4.442  1.5703 -0.1461  0.0980
  443MOL0     H59753   0.961   1.955   4.581 -1.8384 -1.8559 -0.3642
  443MOL0     H59754   1.061   2.154   4.445 -1.1779  1.0252  0.7979
  443MOL0     H59755   0.896   2.108   4.391  0.2415 -1.8725 -1.1864
  443MOL0     H59756   0.851   2.012   4.157  0.5665  1.4871  3.2715
  443MOL0     H59757   0.901   1.935   3.906  2.7746 -3.6582 -0.8369
  443MOL0     H59758   0.978   2.096   3.856  0.2237 -0.4190 -2.8912
  443MOL0     H59759   1.051   1.806   3.837  1.2061 -0.0270  2.6368
  443MOL0     H59760   1.186   1.922   3.839 -0.4395  0.9049 -0.7196
  443MOL0     H59761   1.134   1.886   3.606 -0.3551  2.2377 -1.9354
  443MOL0     H59762   1.093   2.048   3.651  0.7002 -0.4674  0.5560
  443MOL0     H59763   0.924   1.932   3.501 -0.8714  1.6638  0.2685
  443MOL0     H59764   0.852   1.996   3.649  0.2469  1.2377 -2.0306
  443MOL0     H59765   0.752   1.616   3.761 -0.7915  1.4627  1.8901
  443MOL0     H59766   0.591   1.458   3.790 -0.1369 -0.1229  1.6675
  443MOL0     H59767   0.448   1.549   3.856 -0.8937 -1.6839  0.8540
  443MOL0     H59768   0.427   1.454   3.709 -0.8237 -1.0111  2.5161
  443MOL0     H59769   0.091   1.843   3.594 -0.2855 -0.8727 -0.3108
  443MOL0     H59770  -0.178   1.834   3.552 -0.8716 -1.8543 -1.3219
  443MOL0     H59771  -0.325   1.653   3.173  0.9253 -0.3869 -0.3750
  443MOL0     H59772  -0.317   1.504   3.283 -0.1852 -0.1921 -3.4596
  443MOL0     H59773  -0.506   1.550   3.391 -4.0081 -0.4929 -0.1099
  443MOL0     H59774  -0.522   1.723   3.340 -3.2562 -0.0190 -0.8871
  443MOL0     H59775  -0.578   1.459   3.201  1.1357  0.0942 -0.1340
  443MOL0     H59776  -0.529   1.605   3.097  0.5485 -1.6906 -0.8210
  443MOL0     H59777  -0.761   1.623   3.290 -1.5712  0.9817 -0.8533
  443MOL0     H59778  -0.713   1.734   3.158 -0.2302  0.8096  1.7759
  443MOL0     H59779  -0.752   1.556   2.990  0.4339  0.9549  0.9459
  443MOL0     H59780  -0.896   1.632   3.067 -1.6113 -0.8335  3.6196
  443MOL0     H59781  -0.790   1.361   3.106 -0.1629  0.1304  0.4821
  443MOL0     H59782  -0.865   1.436   3.247 -1.4515  1.5134 -0.3992
  443MOL0     H59783  -1.037   1.414   2.983 -1.6618  0.1112  0.2664
  443MOL0     H59784  -1.062   1.505   3.135 -1.7317 -0.1198 -1.2255
  443MOL0     H59785  -1.180   1.288   3.128 -0.2029 -1.6224  2.1981
  443MOL0     H59786  -1.075   1.311   3.262 -1.1808 -1.8144  0.4040
  443MOL0     H59787  -0.093   1.599   3.214  0.0043 -3.3972  2.4093
  443MOL0     H59788   0.157   1.639   3.235  2.9162  4.5957  0.3329
  443MOL0     H59789   0.454   1.847   3.441 -2.5470 -1.7171  0.0410
  443MOL0     H59790   0.685   1.926   3.474 -1.8950 -0.4429 -2.8855
  443MOL0     H59791   1.330   1.090   4.210 -0.5881  0.3245  1.5813
  443MOL0     H59792   1.472   1.016   4.034  3.3960  0.7537 -3.8305
  443MOL0     H59793   1.743   1.013   3.741  2.1932 -1.8970 -0.4088
  443MOL0     H59794   1.934   0.937   3.579 -0.2333 -0.6900 -2.9219
  443MOL0     H59795   2.151   1.136   3.445  2.5075  0.4880 -2.1375
  443MOL0     H59796   2.143   0.957   3.458  0.9470  1.0285  1.5567
  443MOL0     H59797   2.305   1.001   3.286  0.8041  0.9976 -3.6226
  443MOL0     H59798   2.217   1.150   3.244  0.0406  0.7772  0.6712
  443MOL0     H59799   2.062   1.020   3.104  2.3525  2.4254 -2.2903
  443MOL0     H59800   2.099   0.869   3.187 -0.4944  0.7487 -0.4873
  443MOL0     H59801   2.296   1.017   3.017 -1.6272  0.6520 -0.9060
  443MOL0     H59802   2.160   0.936   2.934  0.6937  2.2460 -0.6899
  443MOL0     H59803   2.387   0.615   3.005  1.1335  0.4604 -2.9714
  443MOL0     H59804   1.844   1.246   3.307 -0.5948  2.0878  0.0489
  443MOL0     H59805   1.700   1.357   3.488 -0.3495 -0.3424 -1.4362
  444MOL0     O59806   3.950   5.632   0.717  0.3489 -0.8478  0.4358
  444MOL0     C59807   4.001   5.663   0.830  0.5853 -0.1975  0.8756
  444MOL0     O59808   3.934   5.718   0.929 -0.1779 -0.3270 -0.1204
  444MOL0     C59809   3.797   5.741   0.919  0.4477 -0.1614  0.0517
  444MOL0     C59810   3.754   5.851   0.978 -0.3892 -0.1588 -0.3809
  444MOL0     C59811   3.616   5.897   0.967 -0.3403 -0.7149  0.5569
  444MOL0     C59812   3.518   5.812   0.921 -0.0377  0.1990 -1.4605
  444MOL0     O59813   3.385   5.850   0.931  0.8875 -0.6144  0.1891
  444MOL0     C59814   3.279   5.755   0.899 -0.2435  0.3756 -0.1530
  444MOL0     C59815   3.144   5.823   0.929  0.4469  0.1553  0.3647
  444MOL0     C59816   3.019   5.746   0.907  0.1960  0.3706 -0.4453
  444MOL0     C59817   2.891   5.816   0.939  0.3653 -0.0509 -0.0876
  444MOL0     C59818   2.767   5.733   0.884 -0.8267 -0.4653 -0.2258
  444MOL0     C59819   2.643   5.821   0.860  0.8257 -0.0066 -0.2703
  444MOL0     C59820   2.550   5.755   0.759 -0.2327  0.0386  0.2247
  444MOL0     C59821   2.415   5.825   0.758 -0.2524  0.2805 -0.2209
  444MOL0     N59822   2.320   5.782   0.871 -0.0394  0.1879  0.4698
  444MOL0     C59823   2.249   5.666   0.870  0.2428  0.4893  0.0612
  444MOL0     C59824   2.172   5.678   0.978 -0.0785  0.5167  0.6062
  444MOL0     C59825   2.076   5.580   1.029 -1.1087 -0.2221 -0.1016
  444MOL0     C59826   1.937   5.623   1.027  0.1139 -0.7916  0.0567
  444MOL0     C59827   1.843   5.525   1.098  0.1673 -0.2357  0.5152
  444MOL0     C59828   1.714   5.588   1.116 -0.0015  0.8392 -0.6515
  444MOL0     O59829   1.619   5.483   1.149 -0.1480  0.3862 -0.6395
  444MOL0     C59830   1.491   5.523   1.180  0.1945 -0.1465  0.1363
  444MOL0     C59831   1.391   5.429   1.191 -0.2924  0.1644 -0.3532
  444MOL0     C59832   1.256   5.457   1.205 -0.3458  0.3903  0.2052
  444MOL0     C59833   1.164   5.343   1.210 -0.4008  0.4351  0.0480
  444MOL0     C59834   1.221   5.594   1.218 -0.1781  1.5989 -0.8654
  444MOL0     C59835   1.082   5.637   1.248  0.2427 -0.8156 -0.9101
  444MOL0     O59836   1.061   5.742   1.328  0.3334  0.0892  1.0070
  444MOL0     C59837   0.932   5.763   1.359 -0.0889 -1.3396  0.2538
  444MOL0     C59838   0.855   5.862   1.296  0.3826  0.4376 -0.8185
  444MOL0     C59839   0.736   5.905   1.358  0.1671 -0.2485 -0.3728
  444MOL0     C59840   0.673   5.836   1.456 -0.3445  0.2344  0.0847
  444MOL0     O59841   0.551   5.877   1.495 -0.2889  0.1744  0.1908
  444MOL0     C59842   0.484   5.795   1.591  0.1506 -0.7727  0.6230
  444MOL0     C59843   0.448   5.662   1.543  0.2931  0.9973 -0.0284
  444MOL0     C59844   0.303   5.653   1.512  0.4939  0.0076 -0.1246
  444MOL0     C59845   0.266   5.725   1.375  0.3699 -0.9227 -0.0333
  444MOL0     C59846   0.115   5.712   1.372 -0.5084  0.6369 -0.3767
  444MOL0     C59847   0.078   5.797   1.253  0.5137 -0.3358 -0.5008
  444MOL0     C59848  -0.078   5.790   1.221 -0.4603  0.6854 -1.0634
  444MOL0     C59849  -0.120   5.915   1.141  0.0253  0.5333 -0.9350
  444MOL0    Cl59850  -0.135   6.063   1.240 -0.3600  0.0507 -0.4773
  444MOL0     C59851   0.742   5.721   1.513 -0.0099 -0.3540  0.3799
  444MOL0     C59852   0.867   5.694   1.464 -0.1821 -0.1992  0.8007
  444MOL0     O59853   0.995   5.576   1.185 -0.0104 -0.1114 -0.5370
  444MOL0     C59854   1.318   5.690   1.211 -0.2679  0.4721  0.2917
  444MOL0     C59855   1.448   5.655   1.190  0.0646 -1.1427 -0.7118
  444MOL0     N59856   2.202   5.805   1.046  0.2760  0.3351 -0.2056
  444MOL0     N59857   2.294   5.858   0.980 -0.1614  0.4327 -0.8967
  444MOL0     C59858   3.561   5.691   0.860 -0.8594  0.5273 -0.1231
  444MOL0     C59859   3.697   5.662   0.854  0.5153  1.1736  0.9048
  444MOL0     C59860   4.147   5.652   0.833 -0.9677 -0.2374 -0.1279
  444MOL0     C59861   4.226   5.608   0.726  0.3609 -0.7448 -0.0572
  444MOL0     C59862   4.365   5.623   0.738 -0.0922  1.0180  0.8579
  444MOL0     C59863   4.427   5.660   0.863 -1.2234  0.1871 -0.3899
  444MOL0     O59864   4.560   5.665   0.884  0.3473  0.1346 -0.5411
  444MOL0     C59865   4.650   5.641   0.788  0.1800  0.5365  0.2163
  444MOL0     C59866   4.783   5.644   0.860  1.0158  1.1500 -0.6050
  444MOL0     C59867   4.888   5.631   0.757  0.1200 -0.3908  0.5673
  444MOL0     C59868   5.020   5.664   0.823 -1.1683 -0.7460  0.2394
  444MOL0     C59869   5.130   5.667   0.713 -0.3841 -0.6833 -0.3177
  444MOL0     C59870   5.225   5.676   0.634 -0.2317  1.0298  0.0907
  444MOL0     C59871   4.345   5.688   0.971 -0.9974 -0.0193 -0.3841
  444MOL0     C59872   4.211   5.684   0.957  0.4827 -0.2674  1.1499
  444MOL0     H59873   3.835   5.911   1.019  0.7197 -0.2308 -2.3271
  444MOL0     H59874   3.587   5.991   1.013 -1.3929 -0.7630  0.0192
  444MOL0     H59875   3.278   5.730   0.792 -0.7681  1.1664 -0.3378
  444MOL0     H59876   3.300   5.669   0.964 -1.4627 -0.4112 -0.7604
  444MOL0     H59877   3.127   5.853   1.033 -1.0273  1.9079 -0.3438
  444MOL0     H59878   3.141   5.915   0.870  0.1826 -0.7400 -1.0790
  444MOL0     H59879   3.012   5.715   0.802  0.4176  0.0095 -0.3543
  444MOL0     H59880   3.014   5.655   0.967 -2.6617  1.0452  0.5025
  444MOL0     H59881   2.885   5.847   1.043  0.2390  3.5431 -1.0135
  444MOL0     H59882   2.885   5.906   0.876  3.1939  0.6625  0.5429
  444MOL0     H59883   2.792   5.688   0.788 -1.4997 -0.6294 -0.3299
  444MOL0     H59884   2.750   5.653   0.956  1.5021 -1.8539 -1.1177
  444MOL0     H59885   2.606   5.839   0.961  2.3704  1.8941  0.0152
  444MOL0     H59886   2.671   5.918   0.817 -0.1931 -0.3286 -1.7366
  444MOL0     H59887   2.593   5.782   0.662  2.6707 -0.6049  1.2197
  444MOL0     H59888   2.533   5.648   0.767  0.8987 -0.4590 -2.8023
  444MOL0     H59889   2.352   5.806   0.670  0.5384  0.8214 -0.9244
  444MOL0     H59890   2.439   5.931   0.767 -0.1730  0.2209  0.2969
  444MOL0     H59891   2.262   5.584   0.800  0.9038 -0.6519  1.4641
  444MOL0     H59892   2.090   5.491   0.968  1.8970 -0.0740  0.2605
  444MOL0     H59893   2.102   5.550   1.131 -1.0386 -0.7077 -0.2584
  444MOL0     H59894   1.898   5.638   0.926 -2.7308 -0.3350  1.1011
  444MOL0     H59895   1.942   5.725   1.066 -2.3897 -1.0057  1.2040
  444MOL0     H59896   1.876   5.494   1.198 -1.2739 -0.9248  0.8074
  444MOL0     H59897   1.824   5.436   1.037 -2.0956  1.4231 -1.3876
  444MOL0     H59898   1.674   5.631   1.023 -0.9463  0.2020 -0.5581
  444MOL0     H59899   1.720   5.663   1.195 -2.1376  1.6653 -1.2088
  444MOL0     H59900   1.427   5.328   1.176  0.3175  0.7651 -3.7566
  444MOL0     H59901   1.218   5.256   1.171 -2.2339 -1.6121  1.8737
  444MOL0     H59902   1.149   5.331   1.318  2.1937  2.0740  0.6886
  444MOL0     H59903   1.079   5.342   1.142 -0.2896  0.8080 -0.1016
  444MOL0     H59904   0.910   5.911   1.217  0.5772 -2.4679 -2.6149
  444MOL0     H59905   0.691   5.995   1.318  1.5400  0.2239 -0.9121
  444MOL0     H59906   0.548   5.789   1.680  1.3826  1.9609  0.0249
  444MOL0     H59907   0.398   5.857   1.617  0.0680 -0.3537 -0.5918
  444MOL0     H59908   0.495   5.629   1.450 -4.2859 -0.3317 -2.1656
  444MOL0     H59909   0.481   5.595   1.623  1.6751  1.1797 -0.4129
  444MOL0     H59910   0.234   5.670   1.596 -0.4071  3.1621 -1.3799
  444MOL0     H59911   0.285   5.547   1.491  2.5453 -0.3234 -0.4313
  444MOL0     H59912   0.309   5.825   1.389 -0.1606 -0.8803  1.4473
  444MOL0     H59913   0.311   5.677   1.287 -0.6007  0.6384 -1.4338
  444MOL0     H59914   0.064   5.739   1.465  0.5786  0.3027  0.3228
  444MOL0     H59915   0.086   5.609   1.352 -1.7239  0.5218  1.6571
  444MOL0     H59916   0.097   5.901   1.281 -0.5709  0.5121 -2.6625
  444MOL0     H59917   0.145   5.770   1.171  2.8693 -1.6936  1.7208
  444MOL0     H59918  -0.130   5.777   1.316  0.8042  2.7274 -0.0196
  444MOL0     H59919  -0.103   5.697   1.168 -1.4277 -1.1375  2.2476
  444MOL0     H59920  -0.221   5.896   1.103 -0.7922  3.4995 -0.5011
  444MOL0     H59921  -0.054   5.923   1.055  3.8546 -1.2653  1.5357
  444MOL0     H59922   0.701   5.650   1.584 -0.4741  0.3909  0.8714
  444MOL0     H59923   0.917   5.602   1.493 -0.8137 -0.5750  0.7270
  444MOL0     H59924   1.293   5.794   1.232  2.8937  0.9350  2.4830
  444MOL0     H59925   1.518   5.735   1.171 -1.4980  0.2970 -0.6674
  444MOL0     H59926   3.487   5.628   0.811  1.8746 -3.8585  0.8211
  444MOL0     H59927   3.725   5.568   0.807 -0.2645  0.1592  2.3922
  444MOL0     H59928   4.181   5.602   0.628  0.5003  0.5315 -0.2117
  444MOL0     H59929   4.427   5.589   0.656 -0.6642 -2.6014  1.7541
  444MOL0     H59930   4.628   5.549   0.733  0.9330  0.1585  0.5270
  444MOL0     H59931   4.655   5.721   0.714  1.1668 -0.5301 -0.9064
  444MOL0     H59932   4.800   5.567   0.935  0.4748 -1.0463 -2.5922
  444MOL0     H59933   4.772   5.740   0.911 -2.7013  0.2246  0.6740
  444MOL0     H59934   4.874   5.713   0.686 -0.5572 -0.8708  0.1284
  444MOL0     H59935   4.881   5.527   0.721  2.7643 -0.2840 -0.4640
  444MOL0     H59936   5.037   5.588   0.899  1.6715  0.8337  1.3131
  444MOL0     H59937   5.016   5.758   0.878 -4.4291 -1.6133  1.7314
  444MOL0     H59938   5.297   5.677   0.555  0.2177  2.0008  0.4930
  444MOL0     H59939   4.382   5.712   1.070 -0.8641 -2.4719  0.2335
  444MOL0     H59940   4.151   5.719   1.040 -0.8480  2.1832 -0.7088
  445MOL0     O59941   6.466   2.550   8.740  0.1794  0.5948  0.2748
  445MOL0     C59942   6.481   2.439   8.686 -0.6428  0.5600  0.3830
  445MOL0     O59943   6.388   2.343   8.672 -0.3674 -0.9171 -0.0023
  445MOL0     C59944   6.263   2.361   8.721  0.2387 -0.3806  0.0184
  445MOL0     C59945   6.224   2.293   8.838 -1.3368 -0.8204 -0.6146
  445MOL0     C59946   6.089   2.305   8.877 -0.9147  0.0264  0.3860
  445MOL0     C59947   6.004   2.379   8.803  0.7433 -1.4477  0.4639
  445MOL0     O59948   5.878   2.379   8.849  0.3086  0.0928  0.9656
  445MOL0     C59949   5.766   2.366   8.761 -0.5553 -0.5067 -0.0438
  445MOL0     C59950   5.664   2.289   8.850  0.3190  0.4182  0.6988
  445MOL0     C59951   5.523   2.276   8.780  0.2026  0.6631 -0.0519
  445MOL0     C59952   5.419   2.201   8.861 -0.4291  0.6045 -0.2975
  445MOL0     C59953   5.285   2.215   8.796  0.3013  0.1044 -0.0868
  445MOL0     C59954   5.178   2.179   8.901 -1.0853  0.3606 -0.2696
  445MOL0     C59955   5.035   2.209   8.844 -0.3370 -0.4594  0.2502
  445MOL0     C59956   4.913   2.187   8.939  0.6114  0.2340  0.0819
  445MOL0     N59957   4.783   2.179   8.876  0.6831  0.8473 -0.0329
  445MOL0     C59958   4.732   2.290   8.807 -0.9170  0.4583 -0.1496
  445MOL0     C59959   4.627   2.242   8.741 -0.1787  0.7642 -0.1310
  445MOL0     C59960   4.540   2.301   8.640  0.3934 -0.1713 -0.9212
  445MOL0     C59961   4.506   2.201   8.540  0.1843 -0.1849 -0.9633
  445MOL0     C59962   4.398   2.253   8.442 -0.3735 -0.2663 -0.2940
  445MOL0     C59963   4.452   2.279   8.308  0.5775  0.4449  0.2334
  445MOL0     O59964   4.553   2.372   8.330 -0.1547  0.1699 -0.1946
  445MOL0     C59965   4.568   2.460   8.225 -0.3064  0.4543 -0.5442
  445MOL0     C59966   4.696   2.483   8.177  0.8391 -0.1687  0.0754
  445MOL0     C59967   4.725   2.582   8.080  0.5504 -0.5108  0.2549
  445MOL0     C59968   4.874   2.595   8.036  1.1820 -0.3376  0.3136
  445MOL0     C59969   4.625   2.661   8.021  0.5950  0.4860  0.0731
  445MOL0     C59970   4.633   2.777   7.922  0.3769 -0.8897  0.4836
  445MOL0     O59971   4.518   2.834   7.870  0.3852  0.2078 -0.0714
  445MOL0     C59972   4.517   2.901   7.748 -0.4313 -1.2231 -0.6857
  445MOL0     C59973   4.400   2.981   7.728 -0.0535 -0.1377 -0.0290
  445MOL0     C59974   4.364   3.017   7.602 -0.6711 -0.2539  1.1469
  445MOL0     C59975   4.457   3.015   7.500  0.5557  0.0431  0.3996
  445MOL0     O59976   4.426   3.066   7.377 -0.0135 -0.0453  0.0027
  445MOL0     C59977   4.331   2.988   7.300  0.1100 -0.4295  0.1273
  445MOL0     C59978   4.275   3.073   7.195  0.5740 -0.6869  0.1959
  445MOL0     C59979   4.175   2.987   7.115  0.6560 -0.3193  0.6418
  445MOL0     C59980   4.056   3.076   7.069 -0.3101  0.5916  0.5074
  445MOL0     C59981   3.957   2.990   7.002  0.3044 -0.2593  0.4359
  445MOL0     C59982   3.837   3.076   6.947  0.3477 -0.1086 -0.9772
  445MOL0     C59983   3.738   2.999   6.859 -0.7365  0.7214 -0.0532
  445MOL0     C59984   3.650   3.092   6.782 -0.6016  0.7987 -0.3675
  445MOL0    Cl59985   3.495   3.025   6.722  0.3643 -0.5516  0.1552
  445MOL0     C59986   4.581   2.954   7.516  0.2590  0.1001  0.2791
  445MOL0     C59987   4.605   2.895   7.637  1.0151  0.5868  0.2026
  445MOL0     O59988   4.741   2.826   7.895 -0.2818  0.0173 -0.5903
  445MOL0     C59989   4.495   2.632   8.069 -0.5714  0.0715 -0.0355
  445MOL0     C59990   4.463   2.533   8.172 -0.1967 -1.4870  0.5698
  445MOL0     N59991   4.605   2.117   8.789 -0.2553 -0.1666 -0.1893
  445MOL0     N59992   4.697   2.072   8.869 -0.4807  0.3976 -0.2001
  445MOL0     C59993   6.044   2.455   8.697  0.4330  0.2450 -0.5067
  445MOL0     C59994   6.173   2.439   8.654 -0.0790  0.1054 -0.2643
  445MOL0     C59995   6.615   2.421   8.621  0.8814  0.1083 -0.6812
  445MOL0     C59996   6.654   2.290   8.564 -0.3729  0.1581 -0.4923
  445MOL0     C59997   6.768   2.290   8.481  0.0558  0.2383  1.1602
  445MOL0     C59998   6.850   2.404   8.468  0.1476  0.5299 -0.6923
  445MOL0     O59999   6.960   2.405   8.381  0.0434 -0.2755  0.1140
  445MOL0     C60000   7.029   2.274   8.362 -0.5207  0.2701 -0.1534
  445MOL0     C60001   7.181   2.304   8.358 -0.0432 -0.4837 -0.3884
  445MOL0     C60002   7.222   2.348   8.506 -0.0956  0.9960 -0.1572
  445MOL0     C60003   7.369   2.395   8.502  0.3260  0.3349  0.0345
  445MOL0     C60004   7.476   2.294   8.500 -0.8181 -0.1148  0.2584
  445MOL0     C60005   7.568   2.217   8.491  0.0132  0.3881  0.5006
  445MOL0     C60006   6.817   2.521   8.547 -0.1419  0.4210  0.5694
  445MOL0     C60007   6.703   2.523   8.621 -0.5101 -0.0117 -0.4498
  445MOL0     H60008   6.300   2.236   8.890 -1.8056 -0.1275  0.8858
  445MOL0     H60009   6.051   2.254   8.965 -0.4040  1.2245  1.3304
  445MOL0     H60010   5.727   2.465   8.736 -1.3200 -1.0556 -1.1100
  445MOL0     H60011   5.795   2.311   8.671 -1.9411 -1.1363 -0.1295
  445MOL0     H60012   5.701   2.193   8.886  1.9158 -0.5079 -2.9244
  445MOL0     H60013   5.652   2.350   8.940 -1.9318  0.9970  0.0834
  445MOL0     H60014   5.490   2.376   8.750  0.7251  0.5824 -0.9540
  445MOL0     H60015   5.540   2.222   8.686 -0.1259 -1.6769  1.1630
  445MOL0     H60016   5.446   2.098   8.885 -1.3539  0.4427  0.0877
  445MOL0     H60017   5.418   2.253   8.957  2.2637 -0.7219  0.5389
  445MOL0     H60018   5.273   2.319   8.763  1.3777  0.3721  0.3153
  445MOL0     H60019   5.274   2.151   8.708 -1.2120  0.6487 -0.3270
  445MOL0     H60020   5.177   2.072   8.921 -1.5157  0.1832 -1.1731
  445MOL0     H60021   5.186   2.229   8.998  1.2878 -2.2208  0.9976
  445MOL0     H60022   5.037   2.312   8.807  0.2754 -0.7417 -0.5479
  445MOL0     H60023   5.018   2.149   8.755  1.4365 -0.4990 -0.1094
  445MOL0     H60024   4.904   2.272   9.007 -1.0842 -0.4141  0.7289
  445MOL0     H60025   4.924   2.098   9.002 -1.4073  0.5992  1.0148
  445MOL0     H60026   4.767   2.392   8.804 -1.6750  0.7502  0.5558
  445MOL0     H60027   4.446   2.312   8.694 -1.3867 -0.7533 -3.6893
  445MOL0     H60028   4.580   2.397   8.605  1.3971  2.1641  5.3964
  445MOL0     H60029   4.470   2.105   8.580  1.3556  0.5214  1.9765
  445MOL0     H60030   4.600   2.171   8.493  0.5263 -0.1211 -0.3326
  445MOL0     H60031   4.356   2.348   8.476  0.1688  0.2703 -1.0737
  445MOL0     H60032   4.320   2.177   8.432 -1.9242  1.4311 -1.7769
  445MOL0     H60033   4.375   2.303   8.234 -1.4185 -0.3698  1.9414
  445MOL0     H60034   4.498   2.183   8.282 -2.8779 -1.1744 -0.5236
  445MOL0     H60035   4.781   2.424   8.210  4.1261  3.2545 -1.6037
  445MOL0     H60036   4.926   2.661   8.105  0.9874  2.2761 -1.8654
  445MOL0     H60037   4.915   2.494   8.028  1.2323 -0.2253 -1.3779
  445MOL0     H60038   4.873   2.637   7.935 -2.1741  0.1340  0.4101
  445MOL0     H60039   4.331   2.998   7.811  0.5394 -1.0151  0.6681
  445MOL0     H60040   4.268   3.069   7.605  0.2393  1.5547  0.7489
  445MOL0     H60041   4.394   2.917   7.244 -1.3456 -0.7217 -1.1928
  445MOL0     H60042   4.254   2.932   7.354 -1.9998  0.3524 -1.9141
  445MOL0     H60043   4.231   3.162   7.240  0.0884 -0.4085 -0.7963
  445MOL0     H60044   4.356   3.101   7.126 -1.9826 -0.1081 -2.8008
  445MOL0     H60045   4.137   2.902   7.172 -1.9677 -0.4853 -1.2179
  445MOL0     H60046   4.232   2.951   7.029  1.0945  0.8930  0.4062
  445MOL0     H60047   4.000   3.124   7.149  0.4042  0.2846  1.1994
  445MOL0     H60048   4.092   3.155   7.001 -1.2431  0.3799 -0.2586
  445MOL0     H60049   3.913   2.912   7.065  0.2779 -0.1658  0.5325
  445MOL0     H60050   4.012   2.957   6.913  2.0628  1.6822  0.7366
  445MOL0     H60051   3.788   3.117   7.036  1.9012  0.3661 -0.3085
  445MOL0     H60052   3.881   3.158   6.889  1.7808 -0.3308 -0.2587
  445MOL0     H60053   3.683   2.927   6.921 -0.3038  0.2465 -0.2110
  445MOL0     H60054   3.800   2.949   6.784 -2.4942  0.7333 -1.5823
  445MOL0     H60055   3.694   3.145   6.697 -1.7165 -0.4564 -1.7744
  445MOL0     H60056   3.630   3.172   6.854 -2.3731 -0.1867  0.3093
  445MOL0     H60057   4.656   2.954   7.438 -0.3155  0.0456 -0.2826
  445MOL0     H60058   4.700   2.844   7.651  0.3460 -0.8085 -0.2025
  445MOL0     H60059   4.422   2.707   8.042 -1.6023 -0.6396  0.6911
  445MOL0     H60060   4.366   2.530   8.220 -0.6744  0.9903 -0.1139
  445MOL0     H60061   5.986   2.518   8.630 -2.7662 -2.4455 -0.4921
  445MOL0     H60062   6.206   2.504   8.573 -0.9121 -1.0676 -1.5751
  445MOL0     H60063   6.592   2.202   8.572  1.7502 -1.3420  0.4036
  445MOL0     H60064   6.787   2.203   8.420 -0.1640  2.1013 -1.7722
  445MOL0     H60065   7.015   2.217   8.454  0.3393  3.2607  1.9729
  445MOL0     H60066   6.997   2.220   8.272  1.9226 -2.3977  0.4276
  445MOL0     H60067   7.194   2.384   8.285 -2.8958  0.5221  0.0675
  445MOL0     H60068   7.236   2.216   8.323 -0.3183 -0.2096 -1.5340
  445MOL0     H60069   7.215   2.261   8.573 -0.3117  1.5071  0.4967
  445MOL0     H60070   7.157   2.428   8.541  0.5885  1.4905 -0.0093
  445MOL0     H60071   7.397   2.459   8.586 -0.6159 -2.6487  2.8327
  445MOL0     H60072   7.378   2.458   8.413 -0.6773 -0.5041 -0.6952
  445MOL0     H60073   7.652   2.153   8.507 -1.4372 -1.7755 -0.2129
  445MOL0     H60074   6.866   2.617   8.541 -4.2614  3.0548  3.4305
  445MOL0     H60075   6.670   2.616   8.666 -1.1895 -1.1412  1.5050
  446MOL0     O60076   8.022   1.190   4.605 -0.4424 -0.4459  0.7891
  446MOL0     C60077   8.066   1.262   4.695 -0.2289  0.4962 -0.1016
  446MOL0     O60078   8.196   1.299   4.706 -0.2429 -0.0215 -0.3943
  446MOL0     C60079   8.288   1.298   4.596 -0.1436 -1.1413 -0.0537
  446MOL0     C60080   8.342   1.422   4.568 -1.1825 -0.2925 -0.2192
  446MOL0     C60081   8.438   1.447   4.468 -0.0105  0.6960 -0.2321
  446MOL0     C60082   8.471   1.333   4.380 -0.7333 -0.5922  0.1490
  446MOL0     O60083   8.554   1.331   4.268 -0.7725 -0.9178  0.0702
  446MOL0     C60084   8.530   1.432   4.174  0.7244 -0.5888  0.3746
  446MOL0     C60085   8.415   1.395   4.081  0.0935  0.3522 -0.4225
  446MOL0     C60086   8.356   1.510   3.999 -1.1605  0.7674 -0.1843
  446MOL0     C60087   8.205   1.477   3.979 -0.4630 -0.2458  1.1487
  446MOL0     C60088   8.105   1.478   4.095 -0.3425 -0.1919  0.1496
  446MOL0     C60089   8.138   1.582   4.204 -0.0301 -0.2480 -0.9944
  446MOL0     C60090   8.018   1.605   4.300 -0.0736  0.5650 -0.0860
  446MOL0     C60091   7.994   1.510   4.422 -0.2877  1.0921  0.1275
  446MOL0     N60092   7.883   1.559   4.498  0.3959  0.5441 -0.6732
  446MOL0     C60093   7.892   1.630   4.616 -0.0890 -0.2507 -0.3391
  446MOL0     C60094   7.764   1.656   4.650 -0.2195  0.1671 -0.0442
  446MOL0     C60095   7.724   1.744   4.762 -0.1605 -0.6743 -0.1791
  446MOL0     C60096   7.796   1.881   4.744  0.2459  0.1520  0.2656
  446MOL0     C60097   7.758   1.952   4.616 -0.4586  0.8452  0.8997
  446MOL0     C60098   7.607   1.958   4.586  0.2836  0.0888 -0.0743
  446MOL0     O60099   7.600   2.029   4.457 -0.6735  0.8338 -0.0918
  446MOL0     C60100   7.625   1.974   4.332  0.3901  0.4105  0.6502
  446MOL0     C60101   7.650   2.058   4.218 -0.1476 -0.6828  0.6598
  446MOL0     C60102   7.687   2.001   4.092 -0.8976 -0.4457  0.4593
  446MOL0     C60103   7.702   2.088   3.972 -0.4654 -0.2262 -0.0238
  446MOL0     C60104   7.693   1.858   4.087 -0.7651 -1.2447  1.0099
  446MOL0     C60105   7.743   1.787   3.964 -0.0136 -0.7206 -0.0151
  446MOL0     O60106   7.848   1.840   3.897 -0.1432 -0.9362 -0.0492
  446MOL0     C60107   7.900   1.801   3.777  0.1301  0.2997  0.0321
  446MOL0     C60108   7.829   1.749   3.664 -0.1838  0.5861 -0.5199
  446MOL0     C60109   7.906   1.719   3.549 -0.2481 -0.1542 -0.3461
  446MOL0     C60110   8.047   1.743   3.536  0.2741 -1.1983  0.5473
  446MOL0     O60111   8.128   1.710   3.428  0.0437 -0.4120 -0.2385
  446MOL0     C60112   8.072   1.741   3.296  0.3820  0.9632  0.2992
  446MOL0     C60113   8.176   1.753   3.186  0.3351  0.1041 -0.6831
  446MOL0     C60114   8.264   1.887   3.204 -0.6034 -1.1475  0.7673
  446MOL0     C60115   8.200   2.020   3.186  0.0805  0.5692 -0.0938
  446MOL0     C60116   8.301   2.130   3.169 -0.5239 -0.0738 -0.0598
  446MOL0     C60117   8.368   2.137   3.038  0.2526 -0.7128  0.7337
  446MOL0     C60118   8.474   2.259   3.033 -0.2679  0.0564 -0.4626
  446MOL0     C60119   8.501   2.298   2.900 -0.1313 -0.1461  0.2099
  446MOL0    Cl60120   8.574   2.169   2.811 -0.0113 -0.5968 -0.2824
  446MOL0     C60121   8.111   1.794   3.650  0.3093  0.7184 -0.5998
  446MOL0     C60122   8.039   1.813   3.768  0.1795 -0.3348 -1.0623
  446MOL0     O60123   7.697   1.679   3.937 -0.1569  0.0261 -0.0237
  446MOL0     C60124   7.666   1.779   4.198 -0.3486  0.1785 -0.1735
  446MOL0     C60125   7.623   1.841   4.311 -0.1517  1.3027  1.3620
  446MOL0     N60126   7.673   1.599   4.559  0.0735  0.1402  0.8801
  446MOL0     N60127   7.749   1.543   4.478  0.8950  0.0281  0.6859
  446MOL0     C60128   8.413   1.205   4.414  0.4401 -0.0306  0.4876
  446MOL0     C60129   8.316   1.191   4.513 -0.0025  0.6461  0.4027
  446MOL0     C60130   7.966   1.315   4.785  0.5525  0.1355 -1.1929
  446MOL0     C60131   7.824   1.312   4.761 -0.3044 -0.4740 -0.4564
  446MOL0     C60132   7.735   1.355   4.862  0.3674 -0.3890 -0.5337
  446MOL0     C60133   7.779   1.381   4.993  0.4288 -0.4308 -0.1378
  446MOL0     O60134   7.682   1.411   5.080  0.7265 -0.5044  0.1615
  446MOL0     C60135   7.730   1.461   5.212  0.0958 -0.3177 -0.5682
  446MOL0     C60136   7.715   1.336   5.300  0.6645 -0.2747  0.2501
  446MOL0     C60137   7.583   1.321   5.373  0.0014  0.3628 -0.7104
  446MOL0     C60138   7.449   1.328   5.285 -0.8465 -0.0676  0.0233
  446MOL0     C60139   7.345   1.276   5.375  1.1670 -0.7813  0.3395
  446MOL0     C60140   7.258   1.223   5.442 -0.1620 -1.0293 -0.1858
  446MOL0     C60141   7.923   1.378   5.017  0.5612 -0.0676 -0.2283
  446MOL0     C60142   8.010   1.343   4.918  0.7513  0.0735 -0.4538
  446MOL0     H60143   8.302   1.505   4.625 -0.2603 -0.2065  0.3120
  446MOL0     H60144   8.470   1.550   4.454 -1.7208  1.2559 -0.2293
  446MOL0     H60145   8.511   1.529   4.221 -0.7240 -1.7212  2.2612
  446MOL0     H60146   8.625   1.436   4.120  0.7039  1.4277  0.4148
  446MOL0     H60147   8.435   1.314   4.010 -1.6905 -1.0211  0.5451
  446MOL0     H60148   8.341   1.348   4.146  1.1621  0.2581  0.7546
  446MOL0     H60149   8.361   1.603   4.057  1.1383  0.2450  0.5706
  446MOL0     H60150   8.405   1.529   3.903 -2.6500  1.9109 -0.7571
  446MOL0     H60151   8.178   1.561   3.915 -0.0957  1.3425  2.9908
  446MOL0     H60152   8.186   1.388   3.918  0.7282  1.5974 -2.1552
  446MOL0     H60153   8.007   1.497   4.052 -0.3200 -3.2441 -1.5321
  446MOL0     H60154   8.103   1.381   4.146  2.2922 -0.5149 -0.1966
  446MOL0     H60155   8.233   1.560   4.253  2.0057  2.1645 -3.4969
  446MOL0     H60156   8.172   1.676   4.159  2.6044 -0.9250 -0.5955
  446MOL0     H60157   8.042   1.702   4.345  1.3389 -0.6821  2.0196
  446MOL0     H60158   7.930   1.611   4.236 -0.4688  1.8167  0.5367
  446MOL0     H60159   8.079   1.492   4.488 -0.3639 -2.3513 -0.5149
  446MOL0     H60160   7.973   1.411   4.380  3.0716  1.1129 -1.9082
  446MOL0     H60161   7.985   1.649   4.667  0.7611 -1.4453 -1.3969
  446MOL0     H60162   7.615   1.754   4.768 -0.0103  1.9538 -0.5475
  446MOL0     H60163   7.748   1.696   4.858  2.7335 -3.1689 -1.9591
  446MOL0     H60164   7.905   1.880   4.736  0.3088 -2.2287  0.7373
  446MOL0     H60165   7.766   1.949   4.825  0.9690  1.0342 -0.1841
  446MOL0     H60166   7.819   1.903   4.539  1.6772  1.9571  1.7965
  446MOL0     H60167   7.803   2.049   4.637 -1.8972  1.3855  1.6164
  446MOL0     H60168   7.557   2.019   4.660  2.2244  2.0144 -0.2579
  446MOL0     H60169   7.567   1.856   4.585  3.1206 -1.1726  2.0202
  446MOL0     H60170   7.652   2.164   4.240 -2.3540 -0.5581  0.4980
  446MOL0     H60171   7.805   2.099   3.937 -0.7852  0.9880 -0.6326
  446MOL0     H60172   7.645   2.046   3.889  0.2708 -0.0995 -0.6049
  446MOL0     H60173   7.667   2.189   3.997  2.0108  0.6200  0.2503
  446MOL0     H60174   7.721   1.743   3.672 -0.0377 -0.4976  1.0734
  446MOL0     H60175   7.857   1.698   3.454  2.1119  2.2434 -2.2452
  446MOL0     H60176   8.008   1.654   3.278 -0.6958  0.3273  5.5321
  446MOL0     H60177   8.013   1.834   3.301 -3.2001 -1.1583  0.8176
  446MOL0     H60178   8.250   1.673   3.193  1.2697  1.0588  1.1560
  446MOL0     H60179   8.120   1.754   3.092 -2.0837  4.5536  0.4955
  446MOL0     H60180   8.342   1.855   3.134 -2.8879 -0.6856 -2.2215
  446MOL0     H60181   8.302   1.886   3.306 -1.8245  1.9954  1.3372
  446MOL0     H60182   8.125   2.004   3.108  0.1614 -0.7165  0.0625
  446MOL0     H60183   8.150   2.053   3.277 -0.1463  2.9446 -1.0249
  446MOL0     H60184   8.370   2.125   3.254  0.7487  1.8713 -0.9056
  446MOL0     H60185   8.254   2.228   3.181  3.2283  1.8110  1.0535
  446MOL0     H60186   8.423   2.043   3.038  0.5607 -0.5450 -0.1711
  446MOL0     H60187   8.300   2.130   2.953  0.2869 -0.4514  0.6851
  446MOL0     H60188   8.571   2.224   3.070  0.2580 -0.3713 -2.1915
  446MOL0     H60189   8.431   2.344   3.087 -4.7609 -1.9017 -0.5402
  446MOL0     H60190   8.575   2.378   2.909 -0.9827  0.7481 -0.4989
  446MOL0     H60191   8.408   2.328   2.852 -1.3116  0.3594  2.6663
  446MOL0     H60192   8.218   1.814   3.649  0.2936  0.9115  0.4297
  446MOL0     H60193   8.083   1.839   3.864  2.3364  2.0114 -2.5712
  446MOL0     H60194   7.661   1.671   4.188 -0.0579  0.2749 -1.5861
  446MOL0     H60195   7.585   1.765   4.379  1.2977  0.1370  0.9188
  446MOL0     H60196   8.420   1.117   4.351  4.9006  1.1351 -0.9577
  446MOL0     H60197   8.268   1.094   4.524  0.4616 -0.3429 -4.3096
  446MOL0     H60198   7.786   1.294   4.661 -2.2400 -1.6763  0.4392
  446MOL0     H60199   7.628   1.358   4.843  0.7834 -0.1328 -3.3388
  446MOL0     H60200   7.823   1.518   5.208 -0.3911  0.4536 -1.0715
  446MOL0     H60201   7.666   1.540   5.250  0.9508  0.3236 -0.4209
  446MOL0     H60202   7.787   1.351   5.381  0.9139  1.2815 -0.2116
  446MOL0     H60203   7.738   1.242   5.249 -0.2902 -0.2023 -0.3415
  446MOL0     H60204   7.562   1.393   5.453  0.4704 -0.7548  0.4419
  446MOL0     H60205   7.589   1.228   5.430 -0.7225  1.7413  1.8178
  446MOL0     H60206   7.461   1.276   5.189 -0.9226 -1.5144  0.7833
  446MOL0     H60207   7.435   1.434   5.261  2.4335  0.2269 -1.1059
  446MOL0     H60208   7.185   1.172   5.501 -2.0245  1.3562 -0.2257
  446MOL0     H60209   7.957   1.408   5.115  0.3812  1.1049 -0.5102
  446MOL0     H60210   8.118   1.355   4.928  0.7771 -0.8730  0.4861
  447MOL0     O60211  10.845   7.264   9.347 -0.5102  0.0757 -0.3528
  447MOL0     C60212  10.889   7.234   9.457 -0.2119  0.6763 -0.0544
  447MOL0     O60213  10.825   7.241   9.578  0.0686  0.3555  0.0593
  447MOL0     C60214  10.692   7.283   9.589  0.5444  0.0315 -0.7046
  447MOL0     C60215  10.635   7.268   9.719 -0.1245 -0.2909  0.0012
  447MOL0     C60216  10.508   7.302   9.744  0.1034  0.6606 -0.0089
  447MOL0     C60217  10.436   7.374   9.653 -0.5843  0.3827  0.1984
  447MOL0     O60218  10.312   7.419   9.686  0.1488  0.4753  0.8484
  447MOL0     C60219  10.294   7.562   9.686  0.2696 -0.3791  0.1588
  447MOL0     C60220  10.232   7.604   9.547 -0.3235 -0.1582  0.0074
  447MOL0     C60221  10.158   7.734   9.580  0.3602  0.3354 -0.1239
  447MOL0     C60222  10.113   7.824   9.459  0.5513 -0.5617  0.3038
  447MOL0     C60223  10.007   7.933   9.502 -0.0258  0.1294 -0.7289
  447MOL0     C60224   9.975   8.032   9.393  0.0284 -0.3681  0.7617
  447MOL0     C60225   9.885   8.144   9.446 -0.0032  0.2377 -0.1912
  447MOL0     C60226   9.744   8.110   9.425 -1.0164 -0.0938 -0.5166
  447MOL0     N60227   9.657   8.208   9.483  0.4380  0.1715 -0.8324
  447MOL0     C60228   9.672   8.280   9.597 -0.0009  0.1776  0.0088
  447MOL0     C60229   9.557   8.358   9.601 -0.5624  0.5702 -1.0360
  447MOL0     C60230   9.545   8.465   9.705  0.2235  0.3382  0.2042
  447MOL0     C60231   9.399   8.504   9.718 -1.1888  0.8910 -0.0769
  447MOL0     C60232   9.297   8.392   9.739 -0.2236 -0.1252 -1.3350
  447MOL0     C60233   9.157   8.445   9.718  0.1119  0.3137 -0.0772
  447MOL0     O60234   9.060   8.365   9.789  0.6846  0.2719 -0.5534
  447MOL0     C60235   8.924   8.408   9.780 -0.3036 -1.1801 -0.3187
  447MOL0     C60236   8.846   8.410   9.895 -0.0393  0.6988  1.0685
  447MOL0     C60237   8.709   8.457   9.890 -0.0354  0.5452 -0.0260
  447MOL0     C60238   8.639   8.453  10.025 -1.2160 -0.0417 -0.0191
  447MOL0     C60239   8.651   8.489   9.769 -0.0136 -0.1701 -0.2838
  447MOL0     C60240   8.504   8.523   9.752 -0.7754 -0.1052  0.4053
  447MOL0     O60241   8.439   8.546   9.869 -0.1778  0.0343  0.0098
  447MOL0     C60242   8.301   8.540   9.867  0.5190  0.2791  0.2817
  447MOL0     C60243   8.231   8.648   9.826  0.1809  0.1775 -0.2240
  447MOL0     C60244   8.092   8.639   9.820 -0.7429  0.6242 -0.0634
  447MOL0     C60245   8.024   8.519   9.851 -0.7179 -0.4244  0.6037
  447MOL0     O60246   7.889   8.499   9.848  0.8056  0.0993  0.3786
  447MOL0     C60247   7.811   8.624   9.849  0.1664  0.5063 -0.1546
  447MOL0     C60248   7.676   8.597   9.916 -0.7556 -0.0771  0.4584
  447MOL0     C60249   7.685   8.580  10.069 -0.1944 -0.0789 -0.1692
  447MOL0     C60250   7.548   8.531  10.128  0.3310 -0.0960 -0.6265
  447MOL0     C60251   7.541   8.576  10.278  0.2105  0.7130 -0.3664
  447MOL0     C60252   7.436   8.499  10.355 -0.3459  0.2223  0.4744
  447MOL0     C60253   7.425   8.540  10.502 -0.0150 -0.1070  0.0768
  447MOL0     C60254   7.339   8.443  10.577  1.0910 -1.1386  1.0348
  447MOL0    Cl60255   7.333   8.480  10.751  0.1714 -0.3101 -0.4176
  447MOL0     C60256   8.106   8.405   9.878  0.4650 -0.0794  0.8728
  447MOL0     C60257   8.246   8.416   9.885 -0.4044 -0.1710 -0.3444
  447MOL0     O60258   8.458   8.514   9.635  0.3345 -0.0791 -0.3228
  447MOL0     C60259   8.731   8.481   9.654  0.1959 -0.4465 -0.6161
  447MOL0     C60260   8.868   8.461   9.667 -0.9945 -0.0420 -0.0392
  447MOL0     N60261   9.483   8.331   9.486 -0.6503  0.8410  0.0403
  447MOL0     N60262   9.539   8.228   9.423  0.0129  0.2166 -0.1221
  447MOL0     C60263  10.484   7.384   9.520  0.3917  0.5350 -0.6934
  447MOL0     C60264  10.613   7.344   9.489 -0.0133 -0.5106  0.0229
  447MOL0     C60265  11.028   7.200   9.471  0.2095 -1.6894  1.2124
  447MOL0     C60266  11.114   7.211   9.360 -0.1042 -0.3424 -0.0544
  447MOL0     C60267  11.254   7.206   9.379  0.3513  0.4070 -0.5921
  447MOL0     C60268  11.311   7.177   9.510  0.3126  0.4387 -0.1063
  447MOL0     O60269  11.443   7.174   9.504 -0.5459 -0.7105 -0.2342
  447MOL0     C60270  11.517   7.104   9.605  0.6185 -0.8408  0.0079
  447MOL0     C60271  11.563   7.205   9.718 -0.2125  0.6318  0.1854
  447MOL0     C60272  11.656   7.136   9.820 -0.6477  0.4794 -0.0303
  447MOL0     C60273  11.769   7.228   9.879  0.6290  0.7264  0.4064
  447MOL0     C60274  11.823   7.169  10.000 -0.1002 -0.4290  0.4567
  447MOL0     C60275  11.865   7.124  10.107 -0.6200 -0.3767 -0.0647
  447MOL0     C60276  11.220   7.153   9.616  0.0131 -0.2135  0.5308
  447MOL0     C60277  11.083   7.177   9.600  0.9284  1.2485  0.2110
  447MOL0     H60278  10.701   7.222   9.792  1.1596 -0.2680 -1.1128
  447MOL0     H60279  10.471   7.287   9.845  1.6075 -0.7733  0.3709
  447MOL0     H60280  10.207   7.571   9.753 -1.9728  1.8336 -2.7554
  447MOL0     H60281  10.383   7.617   9.717  0.0033  1.2088 -1.7343
  447MOL0     H60282  10.311   7.623   9.473 -1.4177  3.3911 -0.4195
  447MOL0     H60283  10.177   7.517   9.510 -0.2585  0.1024 -0.7188
  447MOL0     H60284  10.062   7.702   9.620  2.0016 -3.4567  1.1861
  447MOL0     H60285  10.208   7.788   9.661  2.2423 -0.9091 -0.4028
  447MOL0     H60286  10.214   7.860   9.437  1.5299 -3.7843 -1.0789
  447MOL0     H60287  10.070   7.777   9.370  1.6487 -1.2371  0.1145
  447MOL0     H60288   9.915   7.893   9.543  0.3281  2.3696  2.6202
  447MOL0     H60289  10.054   7.996   9.578  0.7866  0.5753 -1.5771
  447MOL0     H60290  10.067   8.087   9.370  0.5711 -1.2175  0.8576
  447MOL0     H60291   9.933   7.995   9.300 -1.0588  2.5215  0.0168
  447MOL0     H60292   9.909   8.174   9.548 -0.4508 -2.1387  0.6595
  447MOL0     H60293   9.905   8.238   9.392 -1.5685  1.7942  1.7652
  447MOL0     H60294   9.713   8.013   9.466 -2.9261  0.1013 -1.4036
  447MOL0     H60295   9.727   8.095   9.318 -0.7790 -0.6139 -0.4863
  447MOL0     H60296   9.760   8.286   9.660  1.3458 -5.8661 -0.6708
  447MOL0     H60297   9.579   8.433   9.804  0.3152  1.3858  0.5302
  447MOL0     H60298   9.605   8.548   9.667 -1.1136  0.2287 -2.3650
  447MOL0     H60299   9.374   8.554   9.624 -0.8434  3.0181  0.9204
  447MOL0     H60300   9.389   8.571   9.804 -0.8535  0.6296  0.1700
  447MOL0     H60301   9.313   8.347   9.837 -1.7260 -1.8043 -1.7938
  447MOL0     H60302   9.294   8.315   9.661 -0.6799 -1.5072 -0.0134
  447MOL0     H60303   9.148   8.449   9.609 -1.1564 -1.1511 -0.0603
  447MOL0     H60304   9.147   8.547   9.755  2.5948 -0.1618  2.2571
  447MOL0     H60305   8.891   8.385   9.990 -2.7298 -2.4816  1.7119
  447MOL0     H60306   8.701   8.411  10.104 -0.5008  2.1561  0.6735
  447MOL0     H60307   8.596   8.550  10.052  0.9699  1.4377 -1.4116
  447MOL0     H60308   8.564   8.374  10.022  2.3759 -3.7709 -2.1449
  447MOL0     H60309   8.283   8.738   9.798  1.5803 -1.4886 -3.4587
  447MOL0     H60310   8.051   8.736   9.794 -0.0748  1.2545  1.1281
  447MOL0     H60311   7.877   8.704   9.885  0.3461  0.4815 -0.4167
  447MOL0     H60312   7.775   8.644   9.748  2.6906 -1.3331 -1.5414
  447MOL0     H60313   7.617   8.684   9.885  0.7441  1.3864  1.5388
  447MOL0     H60314   7.636   8.503   9.876  0.1390 -0.2995  0.0541
  447MOL0     H60315   7.713   8.676  10.113  0.5601 -0.1082 -0.5654
  447MOL0     H60316   7.765   8.509  10.095 -2.2693 -1.9222  1.5902
  447MOL0     H60317   7.462   8.581  10.083 -0.5734 -0.0006  1.1438
  447MOL0     H60318   7.547   8.422  10.115  1.1196 -0.7127  3.1544
  447MOL0     H60319   7.526   8.684  10.288  3.0810  1.2260 -0.6810
  447MOL0     H60320   7.640   8.556  10.320  0.4096  3.0184  0.4509
  447MOL0     H60321   7.346   8.519  10.297  0.0785  2.2022  0.4444
  447MOL0     H60322   7.460   8.392  10.353 -2.3168 -0.2945 -2.8861
  447MOL0     H60323   7.384   8.641  10.502  3.1804  1.3112 -1.3593
  447MOL0     H60324   7.521   8.550  10.554 -1.4957 -1.9133  3.4752
  447MOL0     H60325   7.375   8.341  10.563  0.3567 -1.4427  1.3353
  447MOL0     H60326   7.238   8.445  10.535  1.7692 -4.0429 -0.9729
  447MOL0     H60327   8.069   8.304   9.891  1.6345 -0.5897  0.3832
  447MOL0     H60328   8.315   8.335   9.906 -2.2759 -1.7466  0.0344
  447MOL0     H60329   8.682   8.514   9.563 -4.1155  0.7340  1.8505
  447MOL0     H60330   8.924   8.472   9.574 -0.5828 -2.3173 -0.1277
  447MOL0     H60331  10.424   7.429   9.441 -2.9747 -1.1975  0.7040
  447MOL0     H60332  10.635   7.362   9.385 -1.2681 -0.2446 -0.2115
  447MOL0     H60333  11.080   7.226   9.258  3.7888  1.4044 -1.3039
  447MOL0     H60334  11.321   7.219   9.295  1.3635  0.8837  0.2617
  447MOL0     H60335  11.455   7.033   9.660  1.2541 -0.8633  0.7193
  447MOL0     H60336  11.607   7.062   9.558  2.3633  1.9436  0.6399
  447MOL0     H60337  11.475   7.239   9.773 -2.3429  0.4782 -2.8875
  447MOL0     H60338  11.611   7.292   9.672 -1.3190  0.1348 -2.0314
  447MOL0     H60339  11.705   7.046   9.782 -1.6967 -1.1245  2.2204
  447MOL0     H60340  11.595   7.103   9.904  0.1996 -1.9479 -0.2958
  447MOL0     H60341  11.714   7.321   9.896 -3.3307 -0.7721 -2.5146
  447MOL0     H60342  11.847   7.242   9.804 -1.8842  2.6427 -2.0855
  447MOL0     H60343  11.903   7.094  10.203 -3.0547  3.7179  2.4445
  447MOL0     H60344  11.257   7.118   9.712 -0.0977  0.8344  0.9740
  447MOL0     H60345  11.031   7.162   9.694  1.4587  1.5014  0.5458
  448MOL0     O60346  11.161   5.698   3.359 -0.2545  0.1256  0.6660
  448MOL0     C60347  11.072   5.713   3.273 -0.3781  0.5037 -0.3389
  448MOL0     O60348  10.972   5.622   3.240 -0.9568  0.0440  0.0995
  448MOL0     C60349  10.946   5.497   3.296 -0.0358 -0.1222 -0.0548
  448MOL0     C60350  10.990   5.461   3.419  0.9081 -0.1392  0.3396
  448MOL0     C60351  10.969   5.341   3.468  0.7894  0.2325 -0.0412
  448MOL0     C60352  10.908   5.239   3.394 -0.1476  0.6809  0.6513
  448MOL0     O60353  10.905   5.118   3.455  0.2715 -0.1786 -0.0064
  448MOL0     C60354  10.831   5.017   3.385 -0.1386 -0.2651 -0.7302
  448MOL0     C60355  10.849   4.887   3.462  0.3614 -0.4694 -0.1413
  448MOL0     C60356  10.749   4.783   3.411  0.8608  0.1131  0.4414
  448MOL0     C60357  10.597   4.817   3.425  0.5401  0.6342  0.1386
  448MOL0     C60358  10.500   4.703   3.389  0.2725 -0.2560  0.4845
  448MOL0     C60359  10.489   4.698   3.240 -0.5728 -0.3303 -0.0451
  448MOL0     C60360  10.376   4.602   3.199 -0.0886  0.3730 -0.1464
  448MOL0     C60361  10.427   4.456   3.175 -0.8999 -0.0933 -0.3810
  448MOL0     N60362  10.478   4.428   3.042 -0.4431 -0.4273 -0.3522
  448MOL0     C60363  10.419   4.462   2.926  0.1327  0.4596 -0.1213
  448MOL0     C60364  10.501   4.419   2.833 -1.2551  0.9727 -0.2463
  448MOL0     C60365  10.502   4.438   2.689 -0.4060  0.1662  0.5309
  448MOL0     C60366  10.631   4.493   2.635 -0.1347 -0.7723 -0.7947
  448MOL0     C60367  10.674   4.628   2.699  0.6501 -0.2842 -0.1470
  448MOL0     C60368  10.808   4.685   2.650  0.4101 -0.3883 -0.3577
  448MOL0     O60369  10.786   4.716   2.512  0.1436 -0.4814  0.5364
  448MOL0     C60370  10.895   4.719   2.431 -0.9099  0.0603 -0.8289
  448MOL0     C60371  10.913   4.626   2.326  0.5997  1.0430 -0.6681
  448MOL0     C60372  11.024   4.628   2.236 -0.0925 -0.0747 -0.1252
  448MOL0     C60373  11.036   4.516   2.137  0.1688 -0.4011 -0.1561
  448MOL0     C60374  11.126   4.723   2.266 -0.1227 -0.1689 -0.6334
  448MOL0     C60375  11.254   4.737   2.199  0.4423  0.7182 -0.4387
  448MOL0     O60376  11.344   4.824   2.260  0.7701 -0.1458  0.2558
  448MOL0     C60377  11.476   4.823   2.225 -0.3386  0.5682  0.6651
  448MOL0     C60378  11.566   4.727   2.269  0.1825 -1.2417 -0.3106
  448MOL0     C60379  11.691   4.720   2.211  0.1807  0.4133  0.4903
  448MOL0     C60380  11.729   4.803   2.106 -0.2824 -0.5970 -0.0661
  448MOL0     O60381  11.861   4.800   2.070  0.5437 -0.7487  0.1300
  448MOL0     C60382  11.907   4.893   1.969  0.2831  0.3661  0.7837
  448MOL0     C60383  12.057   4.902   1.969  0.3943  0.0539 -0.0458
  448MOL0     C60384  12.104   5.040   1.961  0.1058 -0.1062  0.3993
  448MOL0     C60385  12.254   5.057   1.986  0.3307 -0.2532  0.8840
  448MOL0     C60386  12.345   4.935   1.956  0.6621  1.6291  0.0988
  448MOL0     C60387  12.493   4.958   1.970 -0.2816  0.6188 -0.1060
  448MOL0     C60388  12.571   4.826   1.990  0.3772 -0.6250 -0.4064
  448MOL0     C60389  12.704   4.862   2.049 -0.9134  0.1774  0.4190
  448MOL0    Cl60390  12.792   4.962   1.932 -0.1283 -0.2264  0.0705
  448MOL0     C60391  11.637   4.898   2.057 -0.4748  0.2375 -0.3194
  448MOL0     C60392  11.511   4.904   2.114  0.0044  0.1058  0.7720
  448MOL0     O60393  11.262   4.691   2.086 -0.1650 -0.2461 -0.0638
  448MOL0     C60394  11.100   4.820   2.368 -0.1381 -0.3032  0.0555
  448MOL0     C60395  10.997   4.816   2.454 -1.4466  0.2368  0.1924
  448MOL0     N60396  10.607   4.359   2.895 -0.3337 -0.5967 -0.2664
  448MOL0     N60397  10.601   4.372   3.020  0.3652  0.6061  0.8828
  448MOL0     C60398  10.856   5.274   3.266 -0.6152 -0.1725 -0.1852
  448MOL0     C60399  10.877   5.404   3.220 -0.2927  0.4798  0.2061
  448MOL0     C60400  11.073   5.849   3.209 -0.1279  0.8873 -0.8429
  448MOL0     C60401  10.999   5.877   3.099  0.1587  0.5142  0.4840
  448MOL0     C60402  11.002   6.000   3.033  0.7377 -0.5507 -0.5499
  448MOL0     C60403  11.094   6.094   3.075  0.2737 -0.5911  0.4355
  448MOL0     O60404  11.117   6.208   3.005 -0.2363 -0.2987 -0.3179
  448MOL0     C60405  11.051   6.235   2.880  0.2903  0.4814 -0.1418
  448MOL0     C60406  11.157   6.323   2.815  0.3741  0.0215  0.4411
  448MOL0     C60407  11.134   6.349   2.661 -0.2278  0.7676 -0.1405
  448MOL0     C60408  11.249   6.411   2.592 -0.3018 -0.5466 -0.1638
  448MOL0     C60409  11.329   6.311   2.525 -0.8560  0.8362  0.0791
  448MOL0     C60410  11.413   6.229   2.472  0.9459  0.2334  0.8035
  448MOL0     C60411  11.158   6.078   3.192  0.1274  0.3260 -0.0032
  448MOL0     C60412  11.151   5.957   3.258 -0.3512  0.6183  0.2321
  448MOL0     H60413  11.061   5.529   3.465  1.5957 -1.5641  1.4785
  448MOL0     H60414  11.011   5.320   3.566 -1.1265 -0.7885  0.6226
  448MOL0     H60415  10.722   5.028   3.388 -0.2313 -1.2075 -0.1168
  448MOL0     H60416  10.852   5.001   3.278 -1.8459  2.4795 -1.5744
  448MOL0     H60417  10.952   4.857   3.438  0.3980  1.7016 -3.2102
  448MOL0     H60418  10.843   4.914   3.568 -0.3873 -0.4544 -0.1841
  448MOL0     H60419  10.770   4.782   3.304 -4.1792  1.0811 -0.8561
  448MOL0     H60420  10.756   4.687   3.463 -3.0260 -1.0485 -0.8514
  448MOL0     H60421  10.578   4.847   3.528  0.1761  2.1211 -0.3482
  448MOL0     H60422  10.562   4.905   3.371 -2.0103  1.0524  2.2617
  448MOL0     H60423  10.546   4.612   3.427 -0.7284 -1.4734 -1.0923
  448MOL0     H60424  10.407   4.722   3.443  0.7082 -3.6538  2.7684
  448MOL0     H60425  10.483   4.799   3.197  2.0161  0.2934  0.9057
  448MOL0     H60426  10.579   4.656   3.195 -0.2432 -1.0402  1.2413
  448MOL0     H60427  10.299   4.606   3.276  0.7284 -0.1464  0.7142
  448MOL0     H60428  10.327   4.644   3.111  0.2612  2.8954  0.8021
  448MOL0     H60429  10.343   4.386   3.183 -0.5192 -1.0771 -3.5307
  448MOL0     H60430  10.491   4.434   3.261 -2.5215  2.2072  1.5450
  448MOL0     H60431  10.332   4.526   2.916  1.1810  2.1282  0.7992
  448MOL0     H60432  10.497   4.347   2.630  2.4735 -0.2386  0.7663
  448MOL0     H60433  10.421   4.509   2.669  0.7743  1.9218  1.5863
  448MOL0     H60434  10.613   4.511   2.528  1.5948  0.2181 -0.9606
  448MOL0     H60435  10.719   4.429   2.642  1.1369  0.8624 -1.2405
  448MOL0     H60436  10.682   4.633   2.808  1.0197 -2.8741  0.0118
  448MOL0     H60437  10.600   4.705   2.677  1.2062 -0.3930 -2.6504
  448MOL0     H60438  10.883   4.610   2.677 -0.6893 -0.9346  1.2593
  448MOL0     H60439  10.836   4.775   2.707 -0.3161 -0.2141 -0.2688
  448MOL0     H60440  10.837   4.551   2.307  1.1496  0.3690 -0.2594
  448MOL0     H60441  11.032   4.562   2.038 -0.4077 -1.2811 -0.5571
  448MOL0     H60442  11.123   4.452   2.151 -0.3819 -0.6130  2.8880
  448MOL0     H60443  10.955   4.444   2.152  2.0170 -2.6372 -0.2775
  448MOL0     H60444  11.542   4.651   2.342 -4.0174 -2.3447 -2.5369
  448MOL0     H60445  11.761   4.640   2.234 -0.0197 -0.0796 -0.5196
  448MOL0     H60446  11.880   4.863   1.867  4.8006 -1.7779 -0.0533
  448MOL0     H60447  11.874   4.996   1.988  2.8515  1.6881 -1.2411
  448MOL0     H60448  12.086   4.873   2.071  0.8150 -0.8694 -0.4204
  448MOL0     H60449  12.100   4.837   1.893  0.5616  2.2157 -1.9187
  448MOL0     H60450  12.055   5.103   2.036  0.9620  2.4892 -1.1109
  448MOL0     H60451  12.079   5.081   1.863 -2.9212 -3.4297 -0.4236
  448MOL0     H60452  12.297   5.151   1.949  0.3769 -0.8410 -0.6419
  448MOL0     H60453  12.250   5.062   2.095 -3.6772 -0.2787  0.8708
  448MOL0     H60454  12.329   4.895   1.855  0.7270  3.2446 -0.5681
  448MOL0     H60455  12.329   4.861   2.035  1.2787  0.5315 -0.7691
  448MOL0     H60456  12.525   4.998   1.873 -3.1044 -0.7070 -1.7170
  448MOL0     H60457  12.518   5.019   2.057 -0.6082  0.2493  0.2506
  448MOL0     H60458  12.580   4.779   1.891  1.1527 -0.3778 -0.4581
  448MOL0     H60459  12.513   4.753   2.047 -1.6055  0.7167 -0.6195
  448MOL0     H60460  12.760   4.769   2.068  1.9080  1.5099 -0.8485
  448MOL0     H60461  12.692   4.904   2.149  0.9828 -1.8734  1.5844
  448MOL0     H60462  11.678   4.968   1.985  0.6128  2.6661  2.4533
  448MOL0     H60463  11.441   4.979   2.077 -2.1808  1.7876  7.0350
  448MOL0     H60464  11.168   4.902   2.389  0.9114 -1.0099 -0.4924
  448MOL0     H60465  11.005   4.890   2.533 -0.2468  1.4283 -0.9996
  448MOL0     H60466  10.806   5.198   3.207 -0.0533 -2.6798  2.3832
  448MOL0     H60467  10.827   5.446   3.133 -0.5684  0.0449  0.1499
  448MOL0     H60468  10.935   5.802   3.053 -1.2876  1.2175  1.2557
  448MOL0     H60469  10.935   6.018   2.950  0.8173  0.0468 -0.4877
  448MOL0     H60470  11.018   6.152   2.817 -0.2871 -0.0668  0.8523
  448MOL0     H60471  10.967   6.293   2.919 -0.5636 -0.3475 -0.7185
  448MOL0     H60472  11.250   6.273   2.840  0.0090 -0.1856  1.4458
  448MOL0     H60473  11.165   6.421   2.864  1.3745  1.1498 -1.8382
  448MOL0     H60474  11.052   6.422   2.658 -0.1092  0.9155  0.1789
  448MOL0     H60475  11.106   6.254   2.614  1.8132 -0.8669  1.7088
  448MOL0     H60476  11.305   6.464   2.670 -2.0314  1.9856 -0.5165
  448MOL0     H60477  11.234   6.486   2.513  3.1484 -0.3059 -0.7688
  448MOL0     H60478  11.489   6.160   2.439 -2.2169 -4.2852  2.0495
  448MOL0     H60479  11.224   6.157   3.225 -0.6343  1.0443 -0.1780
  448MOL0     H60480  11.201   5.947   3.354  0.7410  0.4464 -0.3486
  449MOL0     O60481  11.353   0.346   3.176 -0.2424 -0.2970 -0.0075
  449MOL0     C60482  11.257   0.403   3.124  0.0101  0.2395  0.1472
  449MOL0     O60483  11.275   0.490   3.025  0.4286 -0.3045  0.4139
  449MOL0     C60484  11.388   0.553   2.974  0.4520 -0.7464  0.6161
  449MOL0     C60485  11.515   0.569   3.033 -0.4719  1.0551  0.4958
  449MOL0     C60486  11.621   0.651   2.976 -0.0323  0.0900  1.2328
  449MOL0     C60487  11.601   0.712   2.847 -0.3827 -0.7163  0.6529
  449MOL0     O60488  11.694   0.783   2.776  0.1751 -0.0460 -0.1256
  449MOL0     C60489  11.811   0.819   2.850 -0.1505 -0.3313 -0.3450
  449MOL0     C60490  11.904   0.910   2.764 -0.3636  0.2158  0.0692
  449MOL0     C60491  11.953   0.823   2.644 -0.2908 -0.0498 -0.8567
  449MOL0     C60492  12.029   0.922   2.555 -0.5749  1.2301 -0.8340
  449MOL0     C60493  12.076   0.848   2.436  0.4866  0.4727 -0.1141
  449MOL0     C60494  12.198   0.762   2.471  0.0305  0.0290 -0.9103
  449MOL0     C60495  12.264   0.699   2.343  0.1384 -0.3272  0.1105
  449MOL0     C60496  12.417   0.705   2.354  0.0715  0.0377  0.1524
  449MOL0     N60497  12.467   0.652   2.483 -0.4849 -0.1029 -0.1101
  449MOL0     C60498  12.432   0.530   2.527  0.3535  0.3453 -0.3078
  449MOL0     C60499  12.496   0.524   2.645 -0.3718  0.6580  0.8934
  449MOL0     C60500  12.487   0.426   2.758 -0.7120 -0.5036 -0.0013
  449MOL0     C60501  12.542   0.280   2.723  0.2664  0.2978  0.8004
  449MOL0     C60502  12.512   0.201   2.851 -0.6751  0.8032  0.0534
  449MOL0     C60503  12.603   0.065   2.856  1.2870  0.2148  0.1953
  449MOL0     O60504  12.624   0.024   2.994  0.8805  1.2815  0.5860
  449MOL0     C60505  12.674  -0.102   2.996 -0.2329  0.9508 -0.8703
  449MOL0     C60506  12.661  -0.211   2.907  0.7085  0.3014  0.0367
  449MOL0     C60507  12.723  -0.336   2.932  0.2943 -0.6763  0.2687
  449MOL0     C60508  12.681  -0.441   2.838 -0.4186 -0.3496 -0.3040
  449MOL0     C60509  12.792  -0.367   3.052  0.2014 -1.5399 -0.3759
  449MOL0     C60510  12.855  -0.494   3.089  0.3793  0.1795 -0.4660
  449MOL0     O60511  12.960  -0.495   3.174  0.7855  0.3457 -0.2633
  449MOL0     C60512  13.006  -0.615   3.232 -0.6639 -0.3543  0.6599
  449MOL0     C60513  13.138  -0.648   3.210 -0.1785  0.6583 -0.2038
  449MOL0     C60514  13.193  -0.757   3.274 -0.4441 -0.0429  0.0715
  449MOL0     C60515  13.111  -0.844   3.356 -0.2117 -0.2115  0.9786
  449MOL0     O60516  13.149  -0.965   3.406  0.4895  0.0791 -0.6224
  449MOL0     C60517  13.284  -1.000   3.420 -0.1050 -0.1061 -0.4684
  449MOL0     C60518  13.318  -1.101   3.310 -0.2605  0.4424 -0.2948
  449MOL0     C60519  13.242  -1.232   3.344  0.4327 -0.3003  0.5962
  449MOL0     C60520  13.296  -1.335   3.243 -0.8571 -0.9477 -0.0322
  449MOL0     C60521  13.288  -1.475   3.304  0.0795 -0.6041 -0.3722
  449MOL0     C60522  13.301  -1.571   3.181  0.1617 -0.1330 -0.6523
  449MOL0     C60523  13.366  -1.701   3.219 -0.5267  0.1840  0.9260
  449MOL0     C60524  13.299  -1.781   3.332  0.3186 -0.4557 -0.6837
  449MOL0    Cl60525  13.117  -1.792   3.314 -0.0796 -0.1295  0.5988
  449MOL0     C60526  12.976  -0.808   3.377 -0.9969 -0.4927  0.2062
  449MOL0     C60527  12.924  -0.691   3.314  0.2426  0.3101  0.1248
  449MOL0     O60528  12.805  -0.594   3.039  0.1814  0.0093 -0.4837
  449MOL0     C60529  12.811  -0.258   3.143  0.1356  0.4725 -0.7116
  449MOL0     C60530  12.752  -0.133   3.109  0.5340 -0.6057 -0.2065
  449MOL0     N60531  12.582   0.631   2.650  0.9032 -0.5090  1.1080
  449MOL0     N60532  12.571   0.709   2.544 -0.6469 -0.2884 -0.2394
  449MOL0     C60533  11.470   0.712   2.799  0.6641 -0.3487 -0.2440
  449MOL0     C60534  11.369   0.633   2.863 -0.0777  0.0060  0.7246
  449MOL0     C60535  11.119   0.352   3.154 -0.5323 -0.7406  0.6475
  449MOL0     C60536  11.102   0.228   3.215  0.7899 -0.3721  0.0828
  449MOL0     C60537  10.981   0.160   3.216 -0.0252 -0.5928  0.4139
  449MOL0     C60538  10.872   0.226   3.160 -0.1015  0.2288 -0.2090
  449MOL0     O60539  10.743   0.183   3.156 -0.3939 -0.0261  0.5120
  449MOL0     C60540  10.700   0.067   3.233  0.5272  0.0108  0.5186
  449MOL0     C60541  10.556   0.067   3.257  1.2480  0.6932  0.2640
  449MOL0     C60542  10.516  -0.067   3.328  1.0467  0.6391 -0.8433
  449MOL0     C60543  10.364  -0.086   3.349  0.8483 -0.2117 -0.4665
  449MOL0     C60544  10.283  -0.140   3.237 -0.1583 -0.3235  0.8150
  449MOL0     C60545  10.191  -0.179   3.172 -0.5578 -0.1479  0.2057
  449MOL0     C60546  10.886   0.353   3.101 -0.0882  0.3512  0.7106
  449MOL0     C60547  11.013   0.408   3.090  0.5436 -0.6235  1.0481
  449MOL0     H60548  11.533   0.509   3.121  0.7236 -0.0087 -0.4271
  449MOL0     H60549  11.723   0.642   3.013 -0.1513 -0.4646  1.4365
  449MOL0     H60550  11.776   0.882   2.933  0.1785  0.7132 -0.9838
  449MOL0     H60551  11.867   0.730   2.880 -0.6728 -0.3828  0.5264
  449MOL0     H60552  11.849   0.996   2.725  0.7060  2.1335  2.5027
  449MOL0     H60553  11.991   0.943   2.822  0.6387 -1.8350 -0.1716
  449MOL0     H60554  12.014   0.742   2.685 -0.0538  1.1957  1.4582
  449MOL0     H60555  11.873   0.769   2.592 -0.7589 -1.5347  1.2427
  449MOL0     H60556  11.960   1.003   2.530  0.5400  1.9538 -1.6644
  449MOL0     H60557  12.118   0.959   2.608  0.7646 -0.5639 -1.7489
  449MOL0     H60558  11.996   0.788   2.392 -2.7902  0.9819  4.4538
  449MOL0     H60559  12.099   0.930   2.368  1.0732  1.1857  0.9272
  449MOL0     H60560  12.276   0.831   2.505 -0.3907  0.4595 -0.8036
  449MOL0     H60561  12.180   0.677   2.538  1.6356 -0.4071 -0.9974
  449MOL0     H60562  12.248   0.592   2.327  1.4045 -0.5878  0.4744
  449MOL0     H60563  12.231   0.764   2.261  0.1821  2.8823  2.4719
  449MOL0     H60564  12.436   0.810   2.332  4.1498 -1.0671 -2.6833
  449MOL0     H60565  12.454   0.642   2.272  1.1341 -4.4845  3.6728
  449MOL0     H60566  12.351   0.468   2.491  0.5561  0.6659 -1.3433
  449MOL0     H60567  12.546   0.458   2.844 -2.0666 -0.6435  1.0019
  449MOL0     H60568  12.382   0.423   2.788 -0.6348  1.5230  0.6281
  449MOL0     H60569  12.648   0.291   2.698 -0.1520  1.6347 -0.5364
  449MOL0     H60570  12.493   0.243   2.632  1.1525  0.0664  0.4029
  449MOL0     H60571  12.407   0.173   2.855 -0.5783  0.6148  2.3657
  449MOL0     H60572  12.538   0.266   2.935  0.6945 -1.6180  1.6141
  449MOL0     H60573  12.701   0.090   2.816 -0.2885  4.1581 -1.8101
  449MOL0     H60574  12.559  -0.006   2.786  1.5685  0.7650 -0.5574
  449MOL0     H60575  12.602  -0.220   2.816 -0.5713 -3.8269  1.0551
  449MOL0     H60576  12.765  -0.488   2.785 -2.9284 -5.2207 -0.5247
  449MOL0     H60577  12.617  -0.512   2.892 -0.0833  0.4493  1.1857
  449MOL0     H60578  12.619  -0.402   2.757  0.5060 -0.6125 -1.1694
  449MOL0     H60579  13.191  -0.580   3.144 -0.3097  0.1409 -0.8565
  449MOL0     H60580  13.299  -0.772   3.257  0.2778  3.2015  1.0354
  449MOL0     H60581  13.351  -0.914   3.412  0.2179 -0.4585 -1.7147
  449MOL0     H60582  13.304  -1.044   3.518 -0.4739  1.9381  0.5885
  449MOL0     H60583  13.299  -1.069   3.207  2.1668  0.2670 -0.8616
  449MOL0     H60584  13.425  -1.124   3.311  0.4637  3.2889  1.6636
  449MOL0     H60585  13.137  -1.217   3.318  0.3143  0.4253  1.4512
  449MOL0     H60586  13.262  -1.260   3.448  3.3142  1.0183  0.4860
  449MOL0     H60587  13.235  -1.324   3.153 -0.7038  1.7669  0.0941
  449MOL0     H60588  13.397  -1.313   3.207 -1.4307 -0.6164 -1.5205
  449MOL0     H60589  13.199  -1.498   3.363  0.8547 -1.8361  0.3532
  449MOL0     H60590  13.374  -1.480   3.371  1.1861 -0.4552 -1.7357
  449MOL0     H60591  13.205  -1.589   3.131  1.6110 -2.8980 -2.7520
  449MOL0     H60592  13.363  -1.526   3.103  0.5020 -0.3791 -0.5236
  449MOL0     H60593  13.472  -1.682   3.240 -0.1042 -1.9919  1.0007
  449MOL0     H60594  13.374  -1.763   3.130 -3.8537  1.8780 -0.7214
  449MOL0     H60595  13.316  -1.741   3.432 -1.4332 -3.2778  0.8970
  449MOL0     H60596  13.332  -1.886   3.333 -3.0359 -1.6332 -1.1212
  449MOL0     H60597  12.922  -0.874   3.443  1.7012 -3.8351 -0.6461
  449MOL0     H60598  12.821  -0.659   3.326 -0.7643 -3.2751  2.7599
  449MOL0     H60599  12.858  -0.256   3.241 -1.2284  2.4441 -0.0225
  449MOL0     H60600  12.762  -0.057   3.186 -1.7962 -0.4832  0.0347
  449MOL0     H60601  11.428   0.760   2.711  0.7869  0.5793  0.1937
  449MOL0     H60602  11.269   0.640   2.821  0.2717  0.3139 -0.0760
  449MOL0     H60603  11.193   0.174   3.239  2.4237  1.6270 -1.3740
  449MOL0     H60604  10.968   0.070   3.275  1.5127 -0.6330  0.7322
  449MOL0     H60605  10.730  -0.027   3.185 -1.3269 -0.9920  1.2029
  449MOL0     H60606  10.758   0.064   3.326  3.0996  2.6088 -0.8339
  449MOL0     H60607  10.517   0.068   3.155  1.6675 -0.4030  0.0795
  449MOL0     H60608  10.531   0.155   3.318 -1.1132 -1.2378  2.3276
  449MOL0     H60609  10.554  -0.066   3.430 -2.4408  2.3434  0.5826
  449MOL0     H60610  10.563  -0.156   3.285  2.3587  0.2935  1.2032
  449MOL0     H60611  10.311   0.003   3.385 -0.0466 -0.2767 -1.5882
  449MOL0     H60612  10.359  -0.149   3.439  0.5530  0.9032  0.3277
  449MOL0     H60613  10.112  -0.223   3.114 -1.3506  0.2920  0.9506
  449MOL0     H60614  10.797   0.396   3.057  1.0428  2.2713  0.2031
  449MOL0     H60615  11.030   0.495   3.027  2.0153 -1.1213  0.7284
  450MOL0     O60616   6.240   5.346   3.784 -0.4386 -0.6721 -0.0744
  450MOL0     C60617   6.181   5.398   3.690 -0.0802 -0.5370 -0.0318
  450MOL0     O60618   6.050   5.448   3.691 -0.1884 -0.2203  0.0445
  450MOL0     C60619   5.953   5.390   3.770 -0.6203  1.1500 -1.4188
  450MOL0     C60620   5.873   5.465   3.859  0.3099  0.1583  0.0745
  450MOL0     C60621   5.790   5.395   3.952  0.5084  0.0799 -0.5205
  450MOL0     C60622   5.800   5.252   3.963  0.0916 -0.0900  0.4224
  450MOL0     O60623   5.733   5.201   4.069  0.1486 -0.3809  0.2109
  450MOL0     C60624   5.779   5.074   4.112  0.2400 -0.0347  0.3850
  450MOL0     C60625   5.747   5.037   4.257  0.1668  0.0304  0.2697
  450MOL0     C60626   5.831   5.125   4.340  0.2753  0.2793 -0.2700
  450MOL0     C60627   5.797   5.097   4.487  0.2798  0.7204 -0.3267
  450MOL0     C60628   5.903   5.154   4.577 -0.3761 -0.1284 -0.3898
  450MOL0     C60629   5.852   5.164   4.720 -0.3936  1.1977  0.5576
  450MOL0     C60630   5.953   5.245   4.804 -0.1264  0.2097  1.6520
  450MOL0     C60631   5.912   5.273   4.946  0.2385  0.2798 -1.0186
  450MOL0     N60632   5.886   5.140   5.004 -0.0430 -0.7529 -0.5077
  450MOL0     C60633   5.976   5.040   5.015 -0.2638 -0.4912 -0.2775
  450MOL0     C60634   5.902   4.940   5.067  0.2123  0.4331  0.5575
  450MOL0     C60635   5.967   4.797   5.059 -0.3926 -0.3114  0.3911
  450MOL0     C60636   6.028   4.760   4.918  0.6369  0.1682 -0.4257
  450MOL0     C60637   6.147   4.651   4.928  0.2997 -0.2967 -0.5193
  450MOL0     C60638   6.282   4.730   4.922 -0.5119 -0.5930 -0.2199
  450MOL0     O60639   6.407   4.660   4.956  0.1269  0.2634  0.0905
  450MOL0     C60640   6.455   4.557   4.878  0.2190 -0.2521  0.0305
  450MOL0     C60641   6.392   4.516   4.757 -0.3218 -0.1145 -0.5226
  450MOL0     C60642   6.466   4.421   4.680  0.4131 -0.8752 -0.5096
  450MOL0     C60643   6.396   4.363   4.568 -0.6831 -0.1336 -0.7654
  450MOL0     C60644   6.589   4.377   4.713  0.3758 -0.5889  0.5539
  450MOL0     C60645   6.674   4.279   4.623  1.4757 -0.0109  0.4749
  450MOL0     O60646   6.741   4.181   4.690  0.5005 -0.1226  0.4270
  450MOL0     C60647   6.859   4.129   4.643  0.7765  0.1277 -0.6493
  450MOL0     C60648   6.973   4.165   4.705 -0.0813  0.3253  0.5009
  450MOL0     C60649   7.098   4.108   4.658 -1.1426  0.6796 -1.0920
  450MOL0     C60650   7.094   4.034   4.542 -1.0295  0.5294  0.7173
  450MOL0     O60651   7.219   3.992   4.494  0.7033 -0.6681 -0.8748
  450MOL0     C60652   7.297   4.100   4.445 -0.5402 -0.7656  0.0229
  450MOL0     C60653   7.396   4.042   4.345  0.6709  0.7096  1.2056
  450MOL0     C60654   7.337   3.973   4.225  0.7052 -0.5424 -0.8176
  450MOL0     C60655   7.359   3.829   4.238 -0.5675  0.2551 -0.0253
  450MOL0     C60656   7.281   3.750   4.131 -0.2296 -0.1937  0.5245
  450MOL0     C60657   7.293   3.601   4.146 -0.1545  0.0450  0.1333
  450MOL0     C60658   7.183   3.526   4.071 -0.6564 -0.4675 -0.6081
  450MOL0     C60659   7.048   3.553   4.147 -0.0527 -0.3951 -0.3775
  450MOL0    Cl60660   6.942   3.617   4.029  0.2116 -0.0478  0.2734
  450MOL0     C60661   6.978   4.002   4.482  0.4724 -0.1827 -0.2927
  450MOL0     C60662   6.856   4.046   4.540  0.3892 -0.9124  0.6131
  450MOL0     O60663   6.685   4.317   4.509  0.0543 -0.0257 -0.3191
  450MOL0     C60664   6.652   4.427   4.819 -0.6884  0.1929 -0.2380
  450MOL0     C60665   6.583   4.516   4.904 -0.9201  0.9398 -0.4258
  450MOL0     N60666   5.767   4.975   5.071  0.5013  0.0594 -0.0235
  450MOL0     N60667   5.763   5.099   5.035  0.3135 -0.6481 -0.2741
  450MOL0     C60668   5.874   5.181   3.860  0.4923 -0.2030  0.2910
  450MOL0     C60669   5.950   5.250   3.774 -0.1283 -0.8433  0.5102
  450MOL0     C60670   6.242   5.399   3.559  0.7410  1.0589 -1.5114
  450MOL0     C60671   6.170   5.415   3.444  0.2180  0.3178  0.9048
  450MOL0     C60672   6.226   5.414   3.322  0.5084  0.0079  0.3180
  450MOL0     C60673   6.364   5.406   3.298 -0.5240 -0.5459  0.4550
  450MOL0     O60674   6.401   5.444   3.171  0.4302 -0.0954  0.8807
  450MOL0     C60675   6.540   5.450   3.139 -0.0444 -0.7137 -0.7056
  450MOL0     C60676   6.561   5.546   3.022 -0.0789 -0.3910  0.7778
  450MOL0     C60677   6.709   5.579   2.986  0.2309  0.4198  0.3578
  450MOL0     C60678   6.784   5.678   3.081  1.1538  0.8114 -0.6037
  450MOL0     C60679   6.817   5.606   3.202  0.7470 -0.2808  0.5491
  450MOL0     C60680   6.824   5.547   3.308  0.4694 -0.5463  0.3515
  450MOL0     C60681   6.440   5.391   3.412 -0.0448  0.1420 -0.1385
  450MOL0     C60682   6.383   5.384   3.540  0.5733 -0.2181 -0.4756
  450MOL0     H60683   5.864   5.573   3.847  2.8276  0.1230 -4.6436
  450MOL0     H60684   5.727   5.452   4.020  2.6014  1.3426  0.4471
  450MOL0     H60685   5.726   5.002   4.048  1.6230 -0.6957 -0.0487
  450MOL0     H60686   5.882   5.052   4.084  0.1499 -0.1896  0.1662
  450MOL0     H60687   5.643   5.061   4.280 -0.8813 -0.8096 -3.0163
  450MOL0     H60688   5.773   4.932   4.268  2.6457  0.6276  0.6555
  450MOL0     H60689   5.935   5.095   4.323  0.4673  0.9215 -0.2570
  450MOL0     H60690   5.820   5.232   4.325 -0.0007  0.4904  1.3072
  450MOL0     H60691   5.701   5.144   4.510  0.1979  0.1152  0.6116
  450MOL0     H60692   5.780   4.990   4.498 -0.8803  0.9886  0.6773
  450MOL0     H60693   5.987   5.083   4.581 -1.5315 -1.4839  2.2273
  450MOL0     H60694   5.942   5.246   4.534  0.1778  1.2737  2.8162
  450MOL0     H60695   5.749   5.198   4.723 -0.6645  0.3470  1.6337
  450MOL0     H60696   5.843   5.062   4.757 -2.6535  0.3439 -2.0276
  450MOL0     H60697   6.044   5.184   4.803 -0.6735 -0.6847  3.3022
  450MOL0     H60698   5.977   5.336   4.748  1.9997 -2.0128 -1.3697
  450MOL0     H60699   5.820   5.332   4.938  0.2064  0.0339 -2.9633
  450MOL0     H60700   5.982   5.332   5.005 -0.1806 -0.8002  0.6008
  450MOL0     H60701   6.080   5.034   4.985  0.1457 -2.0335  1.3122
  450MOL0     H60702   6.035   4.782   5.143 -0.8988 -3.3596  0.3777
  450MOL0     H60703   5.880   4.733   5.078  0.5581 -1.3536  1.3761
  450MOL0     H60704   6.056   4.852   4.866 -1.0689  0.4853 -0.8570
  450MOL0     H60705   5.946   4.713   4.862  0.5502  0.6186 -0.6802
  450MOL0     H60706   6.123   4.589   4.841  0.0951  1.3873 -1.7326
  450MOL0     H60707   6.137   4.593   5.020  0.5607 -0.5625 -0.6556
  450MOL0     H60708   6.267   4.813   4.991 -1.6913 -1.4386  0.5668
  450MOL0     H60709   6.287   4.784   4.827 -1.2232 -2.0812 -1.1264
  450MOL0     H60710   6.296   4.559   4.729 -2.7317 -3.4563  1.7412
  450MOL0     H60711   6.402   4.254   4.578  1.5684 -0.8314 -6.1100
  450MOL0     H60712   6.291   4.392   4.559 -1.4831  0.3186  5.5676
  450MOL0     H60713   6.450   4.390   4.476  0.6613 -2.7455 -0.8444
  450MOL0     H60714   6.973   4.226   4.795 -1.3154 -0.1704  0.8712
  450MOL0     H60715   7.191   4.135   4.708 -3.2340  0.9175  3.1105
  450MOL0     H60716   7.243   4.181   4.396 -0.2349 -0.2244  0.5701
  450MOL0     H60717   7.363   4.142   4.521 -1.2558  1.0856 -0.3295
  450MOL0     H60718   7.453   4.124   4.300  3.5285 -1.5236  0.4275
  450MOL0     H60719   7.471   3.979   4.393 -0.4669 -0.5529  1.3876
  450MOL0     H60720   7.386   4.016   4.137 -2.5419 -2.5795 -3.9078
  450MOL0     H60721   7.232   4.003   4.210  0.5783 -1.7129 -2.5280
  450MOL0     H60722   7.463   3.800   4.222 -0.5608  0.3546 -0.1627
  450MOL0     H60723   7.325   3.785   4.333  1.7784 -3.3755 -0.6507
  450MOL0     H60724   7.320   3.782   4.033 -2.5270 -0.4171 -0.5329
  450MOL0     H60725   7.178   3.786   4.133 -0.3263 -0.4530  2.9668
  450MOL0     H60726   7.390   3.569   4.106  0.0193 -0.3831  0.8702
  450MOL0     H60727   7.295   3.559   4.247  1.2372 -1.6693 -0.5509
  450MOL0     H60728   7.214   3.422   4.066 -0.6640 -0.4029 -2.9229
  450MOL0     H60729   7.188   3.556   3.966 -1.4829  2.5131  0.1112
  450MOL0     H60730   7.069   3.619   4.231  1.4402 -1.5418  0.1945
  450MOL0     H60731   7.009   3.466   4.199 -0.0943  1.6462  3.3299
  450MOL0     H60732   6.992   3.948   4.389  2.1197  1.3571 -1.0002
  450MOL0     H60733   6.758   4.012   4.508 -1.5291  1.5391  3.3730
  450MOL0     H60734   6.754   4.411   4.854 -0.5890  0.8139 -0.2270
  450MOL0     H60735   6.634   4.564   4.987  0.1108 -3.7185  1.9393
  450MOL0     H60736   5.876   5.073   3.846  2.9622 -0.1710 -0.0988
  450MOL0     H60737   6.017   5.201   3.704 -1.0439 -0.0687 -0.9705
  450MOL0     H60738   6.067   5.447   3.445  0.0513 -0.2212  1.5379
  450MOL0     H60739   6.169   5.438   3.233  0.2357 -0.8778  0.2391
  450MOL0     H60740   6.592   5.494   3.225  0.4173 -0.9309 -0.8699
  450MOL0     H60741   6.584   5.352   3.118  0.5450  0.0289 -3.3224
  450MOL0     H60742   6.502   5.634   3.050 -4.6632 -2.8597 -0.1680
  450MOL0     H60743   6.523   5.508   2.927  2.5406 -1.4533  0.0932
  450MOL0     H60744   6.708   5.631   2.890  3.3824  0.2140  0.1153
  450MOL0     H60745   6.754   5.481   2.972  0.2553  0.6472 -1.4190
  450MOL0     H60746   6.730   5.773   3.088 -0.2022  0.0606 -0.5736
  450MOL0     H60747   6.878   5.712   3.037  0.0250  2.0643 -2.1933
  450MOL0     H60748   6.848   5.501   3.402  2.8398  3.6131  2.0562
  450MOL0     H60749   6.545   5.365   3.404 -0.8140 -2.8792 -2.1794
  450MOL0     H60750   6.453   5.379   3.623  2.4172  2.2252 -1.7427
  451MOL0     O60751   9.284  10.140   5.455  0.1621  0.6383 -0.3530
  451MOL0     C60752   9.387  10.076   5.461 -0.4779 -0.0422 -0.6494
  451MOL0     O60753   9.470  10.070   5.568 -0.2511  0.3169 -0.4763
  451MOL0     C60754   9.425  10.113   5.695  0.2229 -0.2960 -0.0223
  451MOL0     C60755   9.288  10.095   5.744 -0.1788 -0.2234 -0.2983
  451MOL0     C60756   9.251  10.159   5.868  0.3357  0.3020 -0.2168
  451MOL0     C60757   9.337  10.219   5.949 -0.5206  0.1146  0.3789
  451MOL0     O60758   9.307  10.271   6.075 -0.4026 -0.0284  0.7472
  451MOL0     C60759   9.180  10.284   6.132 -0.1983  0.1883  0.1521
  451MOL0     C60760   9.122  10.143   6.178  0.2279 -0.2063 -0.2490
  451MOL0     C60761   9.007  10.173   6.270  0.5382 -0.1378  0.6405
  451MOL0     C60762   8.876  10.191   6.193  0.5770 -0.0865 -0.0498
  451MOL0     C60763   8.760  10.235   6.285 -0.0593  0.1238 -0.2914
  451MOL0     C60764   8.746  10.145   6.413 -0.5404 -0.7287 -0.3605
  451MOL0     C60765   8.620  10.181   6.501  0.2171  1.0279  0.3003
  451MOL0     C60766   8.634  10.323   6.554  1.0247 -0.4519 -0.2089
  451MOL0     N60767   8.762  10.362   6.609 -0.5120  0.6383  0.4845
  451MOL0     C60768   8.830  10.299   6.714  0.3971 -0.3263  0.2031
  451MOL0     C60769   8.942  10.370   6.710 -0.4221  0.7545 -0.7329
  451MOL0     C60770   9.059  10.366   6.808  0.5157  1.0137  0.4141
  451MOL0     C60771   9.186  10.314   6.752  0.0865  0.5810  0.0181
  451MOL0     C60772   9.212  10.347   6.616 -0.0380 -0.5196  0.6097
  451MOL0     C60773   9.348  10.294   6.571 -0.6026  0.5088  0.3871
  451MOL0     O60774   9.388  10.384   6.469 -0.0134 -0.5195 -0.0335
  451MOL0     C60775   9.491  10.349   6.387  0.3565  0.4475 -0.6195
  451MOL0     C60776   9.572  10.233   6.392  0.0571 -0.3673  0.2839
  451MOL0     C60777   9.689  10.209   6.326 -1.0691 -0.1244 -0.1235
  451MOL0     C60778   9.757  10.077   6.334 -0.5290 -0.3288 -0.4069
  451MOL0     C60779   9.728  10.311   6.230  0.4784 -0.2496 -0.5740
  451MOL0     C60780   9.840  10.289   6.145  0.2648 -0.8748 -0.5717
  451MOL0     O60781   9.817  10.315   6.011 -0.1884  0.5382 -0.7946
  451MOL0     C60782   9.926  10.290   5.928  0.3244 -0.3173 -0.0048
  451MOL0     C60783  10.019  10.384   5.891 -0.3078 -0.8686 -0.0206
  451MOL0     C60784  10.121  10.355   5.805  0.2935  0.2728 -0.9101
  451MOL0     C60785  10.126  10.229   5.751 -0.0049  0.6305  0.7369
  451MOL0     O60786  10.224  10.178   5.669 -0.1451 -0.4335 -0.1929
  451MOL0     C60787  10.340  10.262   5.637 -0.3505  0.4707 -0.5700
  451MOL0     C60788  10.461  10.187   5.596 -0.5817  0.4908 -0.3521
  451MOL0     C60789  10.455  10.101   5.476  1.4492 -1.1478  0.2759
  451MOL0     C60790  10.586  10.075   5.403 -0.3731 -0.4468  0.5133
  451MOL0     C60791  10.627  10.200   5.310  0.2740 -0.2287 -0.3115
  451MOL0     C60792  10.767  10.173   5.262 -0.9965  0.4019  0.2893
  451MOL0     C60793  10.801  10.248   5.123 -0.0928 -0.1730 -1.0311
  451MOL0     C60794  10.878  10.376   5.145 -0.2453 -0.0863 -0.1757
  451MOL0    Cl60795  10.808  10.486   5.264  0.0637  0.3529  0.4490
  451MOL0     C60796  10.032  10.139   5.781  0.0833 -0.2088 -0.3913
  451MOL0     C60797   9.927  10.169   5.866  0.1724 -0.7360 -0.6633
  451MOL0     O60798   9.941  10.234   6.188  0.0299 -0.4327 -0.5396
  451MOL0     C60799   9.649  10.426   6.213 -0.4895  0.7340  0.2209
  451MOL0     C60800   9.533  10.442   6.291  0.1329 -0.2730 -0.3252
  451MOL0     N60801   8.928  10.482   6.622 -0.3633  0.3822 -0.4896
  451MOL0     N60802   8.821  10.472   6.561  0.5506 -0.3748 -0.3416
  451MOL0     C60803   9.472  10.225   5.906  0.0933  0.2710  0.3838
  451MOL0     C60804   9.518  10.166   5.788 -1.1593  0.7098  0.8439
  451MOL0     C60805   9.444  10.022   5.337 -0.4533 -0.8536 -0.0366
  451MOL0     C60806   9.386  10.045   5.215  0.4512  0.4165  1.3135
  451MOL0     C60807   9.456  10.003   5.102 -0.3077  0.2945  0.4281
  451MOL0     C60808   9.574   9.922   5.105 -0.3547 -0.3626  0.0299
  451MOL0     O60809   9.646   9.864   4.998 -0.2280  0.0564 -0.6136
  451MOL0     C60810   9.572   9.870   4.878 -0.1682  0.4378 -0.1319
  451MOL0     C60811   9.649   9.789   4.770  0.9505 -0.5034  0.0402
  451MOL0     C60812   9.592   9.823   4.630  0.5346  0.7106 -0.0051
  451MOL0     C60813   9.641   9.959   4.570  0.2143 -0.0164  0.3899
  451MOL0     C60814   9.788   9.967   4.563 -0.5052  0.2108 -0.9537
  451MOL0     C60815   9.907   9.987   4.537  0.7698  0.4528  0.8858
  451MOL0     C60816   9.623   9.891   5.229 -0.1905 -0.4737  0.4166
  451MOL0     C60817   9.563   9.945   5.344  0.5142  0.1166  0.4185
  451MOL0     H60818   9.223  10.038   5.679  2.7428 -1.1342 -2.6227
  451MOL0     H60819   9.151  10.150   5.910  1.6483  2.7546  4.0872
  451MOL0     H60820   9.184  10.349   6.220 -0.0217  2.3358 -1.3669
  451MOL0     H60821   9.107  10.327   6.063 -1.8378 -0.0428  1.6482
  451MOL0     H60822   9.090  10.083   6.092  2.3870 -1.5559 -0.1921
  451MOL0     H60823   9.199  10.081   6.225 -0.1306  0.8506  1.8393
  451MOL0     H60824   8.988  10.083   6.329 -0.9063  0.3443  0.9559
  451MOL0     H60825   9.038  10.258   6.332  2.9845  0.4437 -1.2271
  451MOL0     H60826   8.881  10.274   6.121  0.0789  0.3161  0.3767
  451MOL0     H60827   8.844  10.099   6.144  1.8347  0.4661 -2.0480
  451MOL0     H60828   8.786  10.333   6.324 -0.2098 -0.0086  0.1419
  451MOL0     H60829   8.662  10.235   6.236 -0.0954  1.8480 -0.2827
  451MOL0     H60830   8.747  10.037   6.393  1.9577 -0.9461  0.5274
  451MOL0     H60831   8.832  10.171   6.476 -1.7237  2.1303  0.2198
  451MOL0     H60832   8.529  10.174   6.441  1.1220 -1.4451 -0.8889
  451MOL0     H60833   8.608  10.124   6.594 -2.0473 -0.2629 -0.7054
  451MOL0     H60834   8.572  10.336   6.643  0.4878 -1.1746 -0.4707
  451MOL0     H60835   8.598  10.396   6.480 -3.8785 -1.5527  0.7598
  451MOL0     H60836   8.797  10.212   6.770 -1.0864 -0.7063 -1.1846
  451MOL0     H60837   9.079  10.471   6.836 -2.1842  1.7237 -0.1160
  451MOL0     H60838   9.044  10.294   6.889 -3.7837  0.2155 -0.8692
  451MOL0     H60839   9.177  10.205   6.759 -0.2880  0.3266 -3.1696
  451MOL0     H60840   9.271  10.343   6.815  2.1508  3.4175 -3.7254
  451MOL0     H60841   9.212  10.456   6.603  0.1537 -0.6723 -0.9447
  451MOL0     H60842   9.141  10.299   6.548 -0.0747  0.5323 -0.1131
  451MOL0     H60843   9.335  10.191   6.535  0.9858  1.0475 -1.8591
  451MOL0     H60844   9.427  10.299   6.647 -0.0399  2.7912 -0.2857
  451MOL0     H60845   9.537  10.154   6.457  1.5286 -0.8244  0.5569
  451MOL0     H60846   9.858  10.055   6.370  0.6081 -1.4013 -3.8112
  451MOL0     H60847   9.695  10.008   6.392 -0.9439 -1.6229 -2.2675
  451MOL0     H60848   9.766  10.026   6.237 -2.9197 -1.6816  0.0178
  451MOL0     H60849  10.001  10.487   5.920  0.0833 -0.5412 -0.9346
  451MOL0     H60850  10.182  10.435   5.766 -1.8573  3.5330  1.8366
  451MOL0     H60851  10.322  10.332   5.555 -3.8992 -1.2015 -1.3992
  451MOL0     H60852  10.374  10.311   5.728  1.7543 -2.4123  0.3508
  451MOL0     H60853  10.542  10.259   5.584 -0.8625  1.1145  1.1462
  451MOL0     H60854  10.488  10.128   5.685 -1.6166 -1.1466 -1.0759
  451MOL0     H60855  10.382  10.144   5.406  3.1655  2.1041  0.2797
  451MOL0     H60856  10.416  10.010   5.522  1.3518 -0.1644  2.2447
  451MOL0     H60857  10.664  10.060   5.478 -1.1732  2.3513  2.0142
  451MOL0     H60858  10.573   9.990   5.335 -3.7417  1.8276 -2.0518
  451MOL0     H60859  10.629  10.294   5.367  0.1663 -1.7036  2.2881
  451MOL0     H60860  10.554  10.225   5.232  1.2118  2.3921 -0.4494
  451MOL0     H60861  10.836  10.205   5.340  0.8619 -0.2418 -1.0072
  451MOL0     H60862  10.781  10.065   5.250  0.7076  0.7294 -1.1718
  451MOL0     H60863  10.705  10.271   5.076  0.2753 -2.1905 -2.9609
  451MOL0     H60864  10.862  10.191   5.052  1.4253  1.3441 -1.0134
  451MOL0     H60865  10.899  10.414   5.045  1.2289  0.1241  0.1975
  451MOL0     H60866  10.981  10.353   5.174  0.0102  1.4966  0.2640
  451MOL0     H60867  10.038  10.040   5.737 -0.1900 -0.3223 -0.1790
  451MOL0     H60868   9.857  10.087   5.879 -1.0700  0.2564 -0.8970
  451MOL0     H60869   9.680  10.494   6.134  0.7881  1.4549  1.3156
  451MOL0     H60870   9.459  10.519   6.270 -3.0501 -2.7008  1.1397
  451MOL0     H60871   9.551  10.258   5.973 -0.3161  0.2601  0.8769
  451MOL0     H60872   9.620  10.166   5.751 -1.5137 -1.0382 -0.2503
  451MOL0     H60873   9.294  10.102   5.217  0.2827  0.1735  4.0840
  451MOL0     H60874   9.413  10.026   5.005 -1.6295  3.6819  1.6757
  451MOL0     H60875   9.470   9.831   4.888 -0.1921 -0.5159 -2.9905
  451MOL0     H60876   9.572   9.976   4.851  2.2548  0.8753  1.3485
  451MOL0     H60877   9.635   9.685   4.801  0.3985 -0.3457  0.3199
  451MOL0     H60878   9.757   9.808   4.768  0.5376  2.4424  0.8377
  451MOL0     H60879   9.483   9.821   4.630  0.5153 -0.9056 -1.8028
  451MOL0     H60880   9.611   9.746   4.554 -0.4197  2.0068 -1.6248
  451MOL0     H60881   9.597  10.041   4.627 -2.7442 -1.3033  0.1296
  451MOL0     H60882   9.602   9.961   4.468  1.8195 -4.2313 -0.4817
  451MOL0     H60883  10.013   9.992   4.520  0.7170  2.2707  0.9652
  451MOL0     H60884   9.716   9.837   5.246  1.8936  2.4767 -0.7673
  451MOL0     H60885   9.614   9.928   5.438 -1.7534 -0.9726  1.5105
  452MOL0     O60886   7.542   6.629   4.470  0.6130  0.8473 -0.1147
  452MOL0     C60887   7.514   6.514   4.512 -0.8389  0.2309 -0.2595
  452MOL0     O60888   7.400   6.455   4.508  0.3956  0.2190 -0.2205
  452MOL0     C60889   7.293   6.505   4.437  0.3890  0.2382 -0.2349
  452MOL0     C60890   7.246   6.426   4.335 -0.0356 -0.5233  0.2138
  452MOL0     C60891   7.122   6.465   4.271 -0.5765 -0.2983  0.6076
  452MOL0     C60892   7.065   6.591   4.305 -0.6776 -0.2751  0.0029
  452MOL0     O60893   6.949   6.628   4.244  0.6521  0.3954  0.5078
  452MOL0     C60894   6.839   6.594   4.326  0.7378  0.5672  0.3037
  452MOL0     C60895   6.724   6.552   4.228  0.4406 -0.4972 -0.2187
  452MOL0     C60896   6.768   6.429   4.149  0.7963  0.2830  0.3036
  452MOL0     C60897   6.762   6.297   4.233  0.2929 -0.3426  0.8059
  452MOL0     C60898   6.615   6.256   4.270  0.1312 -0.9502  0.9399
  452MOL0     C60899   6.607   6.128   4.355  0.9461 -0.8149 -0.5661
  452MOL0     C60900   6.466   6.048   4.350 -0.3767 -0.2057 -0.3933
  452MOL0     C60901   6.431   5.999   4.210  0.1329  0.3326  1.3046
  452MOL0     N60902   6.291   5.951   4.203  0.1090 -0.2677  0.8299
  452MOL0     C60903   6.245   5.845   4.122 -0.4714 -0.1709  0.0875
  452MOL0     C60904   6.120   5.869   4.087  1.6969  0.0736 -0.3221
  452MOL0     C60905   6.044   5.762   4.012  0.3621 -0.3266 -0.4245
  452MOL0     C60906   6.105   5.755   3.870  1.1611 -0.0992  0.0268
  452MOL0     C60907   6.027   5.840   3.765  0.0429 -0.3915  0.6643
  452MOL0     C60908   6.109   5.846   3.642 -0.8645 -0.2479 -0.0162
  452MOL0     O60909   6.035   5.933   3.552  0.0976 -1.1196 -1.1224
  452MOL0     C60910   6.091   5.981   3.442  0.8814 -0.0325  1.3709
  452MOL0     C60911   6.184   5.898   3.375 -0.5019  0.4965  1.1432
  452MOL0     C60912   6.235   5.923   3.238  0.7774 -1.1001  0.2282
  452MOL0     C60913   6.325   5.824   3.172 -1.1031 -0.4402  0.4801
  452MOL0     C60914   6.176   6.034   3.169 -0.3292  0.2275  0.4993
  452MOL0     C60915   6.205   6.073   3.030  0.5064  0.1155 -0.6245
  452MOL0     O60916   6.119   6.153   2.958 -0.1900  0.7778 -0.5733
  452MOL0     C60917   6.140   6.171   2.825  0.1716 -0.2151  0.2183
  452MOL0     C60918   6.142   6.064   2.735  0.4750 -1.1988  0.7032
  452MOL0     C60919   6.146   6.093   2.597 -0.3835 -0.4135 -0.0918
  452MOL0     C60920   6.155   6.226   2.543 -0.4881 -0.7295 -0.1332
  452MOL0     O60921   6.144   6.248   2.405  0.4055 -0.1460  0.2866
  452MOL0     C60922   6.024   6.331   2.371  0.0002 -0.4591 -0.9780
  452MOL0     C60923   5.960   6.278   2.245  0.0590  0.6144 -0.0016
  452MOL0     C60924   5.888   6.141   2.265  0.2248 -0.5515 -0.3000
  452MOL0     C60925   5.796   6.111   2.156  0.9442 -0.4254  0.1525
  452MOL0     C60926   5.736   5.973   2.169  0.0454 -0.1102 -0.1739
  452MOL0     C60927   5.619   5.970   2.277 -0.1933  0.5238 -0.4776
  452MOL0     C60928   5.482   5.955   2.213  0.4921  0.0129  0.1504
  452MOL0     C60929   5.362   5.915   2.305  0.2115  0.0803 -0.6693
  452MOL0    Cl60930   5.383   5.749   2.367  0.0824  0.0284 -0.2669
  452MOL0     C60931   6.147   6.332   2.638 -0.3870  0.0909  0.5486
  452MOL0     C60932   6.150   6.304   2.772 -0.8317 -0.0179  0.7196
  452MOL0     O60933   6.314   6.038   2.993  0.4369 -0.1251  0.3168
  452MOL0     C60934   6.078   6.115   3.236  0.2488  0.0837 -0.1868
  452MOL0     C60935   6.038   6.081   3.363 -0.2858  0.1338 -0.0426
  452MOL0     N60936   6.082   5.991   4.145  0.8646  0.0716  0.1005
  452MOL0     N60937   6.188   6.036   4.211 -0.5931  0.7256 -0.5796
  452MOL0     C60938   7.125   6.673   4.399  0.3089 -0.0632 -0.3129
  452MOL0     C60939   7.233   6.628   4.471 -0.7786 -0.9368 -0.2326
  452MOL0     C60940   7.624   6.440   4.580  0.0160 -0.2989 -0.2621
  452MOL0     C60941   7.619   6.309   4.632  0.2833 -0.3609 -0.0230
  452MOL0     C60942   7.729   6.256   4.698 -0.3029  0.6826 -0.2856
  452MOL0     C60943   7.843   6.334   4.732 -0.5708  1.3834  0.5804
  452MOL0     O60944   7.942   6.283   4.822  0.1988  0.1696  0.3761
  452MOL0     C60945   8.069   6.231   4.769  0.3152 -0.2010  0.1392
  452MOL0     C60946   8.191   6.321   4.793  0.1870 -0.1993  0.3023
  452MOL0     C60947   8.322   6.266   4.736 -0.4600  1.4528  0.9236
  452MOL0     C60948   8.317   6.258   4.576  0.3176  0.1289 -0.4321
  452MOL0     C60949   8.357   6.130   4.525  0.4204 -0.5037  0.6887
  452MOL0     C60950   8.399   6.021   4.497  0.2623 -0.9508 -1.0533
  452MOL0     C60951   7.856   6.456   4.675 -0.1583  0.3471  0.0568
  452MOL0     C60952   7.748   6.508   4.608  0.2366 -0.8788 -0.1706
  452MOL0     H60953   7.293   6.331   4.311  0.8891  0.4218 -1.9941
  452MOL0     H60954   7.076   6.402   4.196  0.7755  1.1063 -1.5023
  452MOL0     H60955   6.857   6.524   4.407 -2.0955  2.0566  2.3928
  452MOL0     H60956   6.797   6.678   4.382  2.2123  0.1468  2.1215
  452MOL0     H60957   6.640   6.520   4.290  0.5354  1.1535  0.8152
  452MOL0     H60958   6.690   6.637   4.168  0.7700  0.1676  0.5185
  452MOL0     H60959   6.694   6.418   4.068 -0.4324  3.4838  0.8587
  452MOL0     H60960   6.864   6.449   4.099  0.8753  1.6789  0.9897
  452MOL0     H60961   6.805   6.223   4.164  0.5410  0.5164  0.0205
  452MOL0     H60962   6.819   6.299   4.326 -2.6025  2.1154  2.7002
  452MOL0     H60963   6.578   6.341   4.328  2.6590  2.3004 -1.7821
  452MOL0     H60964   6.570   6.243   4.172 -0.3644 -2.2057  1.3115
  452MOL0     H60965   6.677   6.058   4.310  0.4380 -1.4861 -0.3168
  452MOL0     H60966   6.637   6.129   4.461  1.0790 -0.1298 -0.6005
  452MOL0     H60967   6.470   5.963   4.419 -3.2768  0.6125  0.9193
  452MOL0     H60968   6.387   6.110   4.392 -1.0251 -1.1417 -0.1912
  452MOL0     H60969   6.502   5.921   4.179  1.3278  1.3513  1.3878
  452MOL0     H60970   6.444   6.070   4.129  2.1447 -1.5540 -0.1600
  452MOL0     H60971   6.293   5.750   4.099  0.0157 -0.3277  1.6560
  452MOL0     H60972   6.039   5.668   4.068  1.7727  0.0078  0.3356
  452MOL0     H60973   5.940   5.789   3.994  0.7408 -1.0663 -4.5510
  452MOL0     H60974   6.093   5.650   3.840  1.3136  0.2763 -1.4363
  452MOL0     H60975   6.213   5.775   3.871  1.3222 -0.9269  0.7822
  452MOL0     H60976   6.021   5.945   3.796  2.5491  0.3422 -0.9964
  452MOL0     H60977   5.929   5.803   3.733  0.2049  0.4166 -0.8668
  452MOL0     H60978   6.121   5.748   3.594 -2.2240 -0.1565 -0.5969
  452MOL0     H60979   6.207   5.888   3.666  0.6242 -2.8748 -1.0483
  452MOL0     H60980   6.221   5.807   3.422  2.1852  0.6085 -0.5448
  452MOL0     H60981   6.330   5.731   3.229 -2.2825  0.8495  2.7998
  452MOL0     H60982   6.292   5.794   3.072 -1.9846  0.2994  0.5367
  452MOL0     H60983   6.425   5.869   3.169 -1.6663  0.8988  1.1757
  452MOL0     H60984   6.139   5.962   2.772 -0.2142 -1.3013  0.3795
  452MOL0     H60985   6.148   6.012   2.525  1.1686 -0.1209 -0.4083
  452MOL0     H60986   5.955   6.326   2.456  0.3822 -0.2559 -0.6498
  452MOL0     H60987   6.054   6.433   2.345  1.3977 -0.6696 -0.3179
  452MOL0     H60988   5.880   6.346   2.216  0.6298  1.3776  0.1798
  452MOL0     H60989   6.036   6.260   2.168 -0.7660 -1.2487 -0.4261
  452MOL0     H60990   5.836   6.151   2.360  0.1458 -1.4452 -0.2345
  452MOL0     H60991   5.967   6.067   2.281  2.1803  1.1344 -1.6225
  452MOL0     H60992   5.713   6.183   2.153  0.0370 -1.3855  1.3032
  452MOL0     H60993   5.851   6.118   2.062  0.6405  0.3372  0.0238
  452MOL0     H60994   5.815   5.910   2.212  0.9514 -0.3865 -2.1438
  452MOL0     H60995   5.713   5.946   2.066  3.2100  1.2772 -1.3885
  452MOL0     H60996   5.642   5.894   2.352  0.4132  1.0801 -0.0912
  452MOL0     H60997   5.631   6.059   2.339  2.7925 -0.2320  0.2028
  452MOL0     H60998   5.492   5.881   2.132  1.7157 -0.7824  1.0022
  452MOL0     H60999   5.445   6.045   2.162  0.5745 -1.5710 -2.9991
  452MOL0     H61000   5.270   5.937   2.250  0.1049  1.2293 -0.0552
  452MOL0     H61001   5.362   5.980   2.393  0.1907 -1.2365  0.3269
  452MOL0     H61002   6.150   6.436   2.605 -0.8315  0.4373  1.5716
  452MOL0     H61003   6.151   6.386   2.843  1.8836  1.5223 -0.9272
  452MOL0     H61004   6.028   6.201   3.193 -1.6190  2.4841  5.7086
  452MOL0     H61005   5.959   6.139   3.409  1.5789  0.7726  2.5654
  452MOL0     H61006   7.081   6.771   4.419 -0.0535 -0.2874 -0.0091
  452MOL0     H61007   7.281   6.687   4.548  2.0870 -2.3462 -0.8259
  452MOL0     H61008   7.530   6.252   4.610 -1.6294  1.7786  1.5663
  452MOL0     H61009   7.716   6.154   4.733 -0.1327  0.3522 -1.1724
  452MOL0     H61010   8.098   6.150   4.837  0.3895  0.4182  0.8576
  452MOL0     H61011   8.063   6.188   4.669  0.3665 -0.1439  0.1116
  452MOL0     H61012   8.194   6.331   4.902 -2.1501 -0.3680  0.4499
  452MOL0     H61013   8.174   6.420   4.750  1.2794 -1.5006 -3.5723
  452MOL0     H61014   8.341   6.169   4.782  4.5076  1.8317  0.2164
  452MOL0     H61015   8.410   6.327   4.757  2.0043 -0.7143 -2.2985
  452MOL0     H61016   8.372   6.341   4.531  0.9176  1.5473  2.6122
  452MOL0     H61017   8.216   6.287   4.545  0.8323  0.2353 -2.0519
  452MOL0     H61018   8.447   5.931   4.463 -0.6304 -1.1784 -1.7456
  452MOL0     H61019   7.937   6.528   4.685 -0.0438  0.1749  0.3782
  452MOL0     H61020   7.773   6.609   4.576 -2.2492  0.3150  1.3402
  453MOL0     O61021  10.102   2.010   2.783  0.2197 -0.0720 -0.7867
  453MOL0     C61022  10.042   2.114   2.827  0.2445 -0.2214  0.0407
  453MOL0     O61023   9.941   2.171   2.773 -0.4159  0.0183 -0.2970
  453MOL0     C61024   9.890   2.107   2.664  0.5088 -0.0575  0.4265
  453MOL0     C61025   9.924   2.150   2.537 -0.6454  0.6840 -1.0672
  453MOL0     C61026   9.879   2.080   2.425  0.9068 -0.3963 -0.0127
  453MOL0     C61027   9.789   1.979   2.440 -0.4534 -0.3229 -0.5951
  453MOL0     O61028   9.746   1.919   2.322  0.3903 -0.5885  0.0440
  453MOL0     C61029   9.717   1.779   2.322 -0.2542 -0.2312 -0.7140
  453MOL0     C61030   9.654   1.733   2.188  0.4445 -0.1937  0.0812
  453MOL0     C61031   9.628   1.580   2.172 -0.2218 -0.1538  0.4981
  453MOL0     C61032   9.618   1.544   2.024  0.3296  0.0308 -0.4396
  453MOL0     C61033   9.615   1.399   1.982 -0.3535  0.3121 -0.3426
  453MOL0     C61034   9.509   1.310   2.045  0.0545 -0.5992 -0.1244
  453MOL0     C61035   9.359   1.359   2.049 -0.2682 -0.8646 -0.3359
  453MOL0     C61036   9.292   1.337   1.913 -0.7075 -0.5421 -0.1030
  453MOL0     N61037   9.305   1.449   1.813  0.9259  0.5517 -0.1449
  453MOL0     C61038   9.231   1.563   1.809 -1.0728 -0.5410 -0.3016
  453MOL0     C61039   9.299   1.650   1.723  0.1832  0.7120 -0.5375
  453MOL0     C61040   9.266   1.795   1.729 -0.4468  0.6796 -0.7536
  453MOL0     C61041   9.164   1.817   1.618 -1.0102 -0.2772 -0.3421
  453MOL0     C61042   9.089   1.951   1.649  0.0968  0.0717 -0.8764
  453MOL0     C61043   8.979   1.985   1.543 -0.2105 -0.3077  0.3266
  453MOL0     O61044   9.053   2.006   1.417  0.3130  0.2090 -0.4239
  453MOL0     C61045   8.985   2.054   1.307  0.7019 -0.2700 -0.1631
  453MOL0     C61046   9.051   2.078   1.192  0.1354  1.2648  0.0586
  453MOL0     C61047   8.993   2.127   1.072  0.0496  0.4349  1.4516
  453MOL0     C61048   9.079   2.123   0.952 -0.4593  1.1389  0.7164
  453MOL0     C61049   8.856   2.167   1.078  0.0838 -0.0369 -0.4746
  453MOL0     C61050   8.794   2.242   0.961 -0.0080 -0.3545  0.0905
  453MOL0     O61051   8.870   2.309   0.874  0.0837  0.2025  0.0731
  453MOL0     C61052   8.824   2.387   0.775  0.0894 -0.6106  1.5468
  453MOL0     C61053   8.801   2.328   0.650  1.0251 -0.0033 -0.0206
  453MOL0     C61054   8.759   2.411   0.549  0.2700 -0.3656  0.9032
  453MOL0     C61055   8.731   2.549   0.568 -0.6199  0.8302 -0.2562
  453MOL0     O61056   8.688   2.644   0.475 -0.1216 -0.4269 -0.5840
  453MOL0     C61057   8.702   2.616   0.338 -0.3003  0.3386  1.0845
  453MOL0     C61058   8.563   2.578   0.281  0.0092  0.4674  0.7987
  453MOL0     C61059   8.510   2.438   0.310 -0.7733  0.0131  0.2282
  453MOL0     C61060   8.372   2.422   0.249  0.2581 -0.0379  0.2510
  453MOL0     C61061   8.301   2.294   0.286  0.0074  0.7111  0.1774
  453MOL0     C61062   8.225   2.233   0.168 -0.0631 -0.0157 -0.1065
  453MOL0     C61063   8.319   2.152   0.067 -0.5676 -0.5903  0.0781
  453MOL0     C61064   8.415   2.049   0.121 -0.2565 -0.4363  0.4900
  453MOL0    Cl61065   8.513   1.981  -0.022  0.5583  0.1203 -0.4881
  453MOL0     C61066   8.767   2.612   0.691  0.7949 -0.1186  0.1826
  453MOL0     C61067   8.807   2.527   0.798  0.0008 -0.1992  0.2067
  453MOL0     O61068   8.672   2.237   0.966  0.3837  0.1593  0.4873
  453MOL0     C61069   8.787   2.134   1.190  0.1784 -0.6126 -0.1771
  453MOL0     C61070   8.845   2.085   1.307 -0.2501  0.5744  0.5135
  453MOL0     N61071   9.404   1.583   1.671  0.1262  0.3867  0.3706
  453MOL0     N61072   9.398   1.458   1.723 -0.1563 -0.6077  0.1123
  453MOL0     C61073   9.737   1.948   2.569 -0.9371 -0.6703 -0.1351
  453MOL0     C61074   9.787   2.010   2.680 -0.8617  0.7584 -0.3953
  453MOL0     C61075  10.084   2.178   2.956  0.3775  0.2174  0.0513
  453MOL0     C61076  10.043   2.306   2.990  0.6852 -0.2215 -0.2240
  453MOL0     C61077  10.073   2.349   3.122 -0.0688  0.3650 -0.3201
  453MOL0     C61078  10.134   2.272   3.216  0.8734  0.4679  0.9031
  453MOL0     O61079  10.154   2.328   3.338  0.0718 -0.0631  0.1641
  453MOL0     C61080  10.210   2.258   3.450 -0.4140  0.5140  0.1740
  453MOL0     C61081  10.358   2.273   3.456  0.0773 -0.7170  1.0854
  453MOL0     C61082  10.433   2.243   3.593  0.1896  0.5850 -0.9066
  453MOL0     C61083  10.432   2.095   3.634 -0.3633 -0.3215 -0.6865
  453MOL0     C61084  10.519   2.023   3.540 -0.3338 -0.4704  0.4755
  453MOL0     C61085  10.590   1.965   3.470 -0.2715  0.6012 -0.3237
  453MOL0     C61086  10.177   2.145   3.185 -0.8582 -0.2686 -0.0089
  453MOL0     C61087  10.152   2.099   3.054 -0.2805 -0.0580  0.2547
  453MOL0     H61088   9.989   2.236   2.529 -1.0857  1.1495  0.1203
  453MOL0     H61089   9.891   2.108   2.320 -2.7800  0.3171 -0.3895
  453MOL0     H61090   9.809   1.725   2.342 -0.5777 -0.2993  0.6712
  453MOL0     H61091   9.654   1.744   2.404  0.9653 -0.5107  0.1160
  453MOL0     H61092   9.556   1.772   2.160  1.0627 -0.5507 -2.8819
  453MOL0     H61093   9.715   1.786   2.115 -2.2378  2.0893 -0.6721
  453MOL0     H61094   9.717   1.529   2.210  0.6772  0.2487 -0.9681
  453MOL0     H61095   9.533   1.544   2.211 -1.3056 -0.6526 -2.3705
  453MOL0     H61096   9.519   1.579   1.996  0.5340 -0.1614 -1.4251
  453MOL0     H61097   9.710   1.583   1.978  1.6585 -0.0703  1.9400
  453MOL0     H61098   9.603   1.390   1.874 -2.1878  1.5895 -0.2942
  453MOL0     H61099   9.708   1.350   2.013 -0.2612  0.7469  0.0941
  453MOL0     H61100   9.516   1.212   1.996 -1.8816 -1.9401  2.0547
  453MOL0     H61101   9.540   1.304   2.149  0.2866  1.1435 -0.0651
  453MOL0     H61102   9.306   1.287   2.112 -1.4978 -4.4774 -4.9207
  453MOL0     H61103   9.345   1.454   2.101  1.2639 -2.0515  2.4779
  453MOL0     H61104   9.183   1.331   1.919 -0.8053  0.3604 -0.6631
  453MOL0     H61105   9.321   1.239   1.873 -1.2665 -1.0878  0.8004
  453MOL0     H61106   9.149   1.586   1.878 -0.6776 -2.2378  0.7880
  453MOL0     H61107   9.221   1.822   1.825 -0.1815 -2.1437  0.2391
  453MOL0     H61108   9.356   1.855   1.738 -0.1976  0.5382 -2.0623
  453MOL0     H61109   9.097   1.731   1.609 -1.5353  0.2476 -1.8503
  453MOL0     H61110   9.211   1.838   1.522 -3.1727  3.7343 -0.7470
  453MOL0     H61111   9.156   2.036   1.666 -1.0072  0.7445  0.3191
  453MOL0     H61112   9.041   1.939   1.746  0.3791  0.6014 -0.6638
  453MOL0     H61113   8.918   2.073   1.570 -2.7192 -1.3206 -1.6476
  453MOL0     H61114   8.912   1.899   1.534  0.2410 -0.8129  1.5291
  453MOL0     H61115   9.157   2.060   1.180 -0.1662 -1.6710  0.9765
  453MOL0     H61116   9.062   2.030   0.897  4.1195  0.8548 -0.6292
  453MOL0     H61117   9.084   2.203   0.877 -1.1735 -1.6749 -2.6176
  453MOL0     H61118   9.183   2.105   0.983  0.0355 -0.5491 -1.5699
  453MOL0     H61119   8.813   2.221   0.634  0.2427 -0.2657  1.0221
  453MOL0     H61120   8.726   2.359   0.460 -0.8024  1.6688  0.0254
  453MOL0     H61121   8.748   2.698   0.282  2.7163 -2.8392 -1.5722
  453MOL0     H61122   8.766   2.529   0.320 -1.3607 -0.1910 -0.3344
  453MOL0     H61123   8.482   2.644   0.313  0.7201  0.9260  1.7077
  453MOL0     H61124   8.567   2.582   0.172 -2.1273 -0.5855  0.6361
  453MOL0     H61125   8.512   2.422   0.418 -0.4265 -0.1869  0.1933
  453MOL0     H61126   8.578   2.368   0.262  1.8290  1.1658  1.9897
  453MOL0     H61127   8.307   2.501   0.287  0.4523  0.5183 -0.5414
  453MOL0     H61128   8.366   2.432   0.140 -3.3943 -2.5022  0.0612
  453MOL0     H61129   8.218   2.319   0.353 -1.4227  0.4369 -1.4146
  453MOL0     H61130   8.364   2.224   0.340  1.6267  1.0727 -1.1622
  453MOL0     H61131   8.148   2.163   0.203  1.6315 -1.3908  1.0792
  453MOL0     H61132   8.179   2.312   0.109  2.0719  1.1952 -0.2419
  453MOL0     H61133   8.375   2.235   0.022 -0.7551  0.4566  1.6603
  453MOL0     H61134   8.267   2.089  -0.005  2.4390 -3.3829  0.0999
  453MOL0     H61135   8.355   1.974   0.173  1.0046 -1.2940  0.7579
  453MOL0     H61136   8.485   2.084   0.199 -1.4933  0.7421  1.1188
  453MOL0     H61137   8.765   2.720   0.707  0.5414 -0.2124  0.8035
  453MOL0     H61138   8.840   2.567   0.893 -1.7551  0.1744  0.7044
  453MOL0     H61139   8.687   2.176   1.179 -0.0983 -0.3729  2.5867
  453MOL0     H61140   8.790   2.063   1.398  2.5184  0.3686  2.2512
  453MOL0     H61141   9.658   1.875   2.588 -2.4607  0.7871 -0.6383
  453MOL0     H61142   9.745   1.984   2.777  1.4216  0.0262  0.4463
  453MOL0     H61143   9.999   2.372   2.915  1.6452 -0.9701 -1.4789
  453MOL0     H61144  10.044   2.451   3.144 -2.1939  0.1940 -1.9892
  453MOL0     H61145  10.168   2.303   3.541 -1.3069  0.5579 -0.2491
  453MOL0     H61146  10.186   2.151   3.449  2.8157 -0.3504  1.6094
  453MOL0     H61147  10.377   2.379   3.438 -2.4654 -0.5459 -1.4516
  453MOL0     H61148  10.395   2.203   3.381 -2.4538 -2.4101  1.2834
  453MOL0     H61149  10.394   2.311   3.670 -2.5855  0.4490 -2.0594
  453MOL0     H61150  10.535   2.278   3.578  0.9838 -1.4127 -0.3802
  453MOL0     H61151  10.331   2.052   3.633  0.7652 -3.2271  0.4904
  453MOL0     H61152  10.470   2.090   3.736  2.8683  3.5440 -1.4506
  453MOL0     H61153  10.666   1.909   3.418  3.7406  3.8061  1.4811
  453MOL0     H61154  10.230   2.081   3.255 -0.3836  1.3081  1.1028
  453MOL0     H61155  10.204   2.007   3.029  3.3897  1.7478  0.5585
  454MOL0     O61156   0.641   8.010   3.614 -0.5835  0.1208  0.3897
  454MOL0     C61157   0.703   8.011   3.505  0.9877  0.8446 -0.8617
  454MOL0     O61158   0.648   8.033   3.384  0.1963 -0.3712  0.3998
  454MOL0     C61159   0.509   8.055   3.364 -0.2961 -0.5714 -0.7694
  454MOL0     C61160   0.475   8.168   3.268 -0.1688  0.4966 -0.2880
  454MOL0     C61161   0.349   8.222   3.266 -0.0108  0.0678  0.2996
  454MOL0     C61162   0.240   8.162   3.343  0.6145 -1.1815 -0.0022
  454MOL0     O61163   0.120   8.227   3.337  0.0882 -0.0053 -0.2323
  454MOL0     C61164   0.009   8.141   3.305 -0.9273 -0.2639 -0.1258
  454MOL0     C61165  -0.042   8.160   3.167  0.4868  0.3714 -0.6223
  454MOL0     C61166  -0.096   8.297   3.136 -0.0751 -0.5208 -0.5787
  454MOL0     C61167  -0.139   8.301   2.988 -0.4428  0.8859 -0.0710
  454MOL0     C61168  -0.182   8.441   2.941  0.9674 -0.6124  0.0979
  454MOL0     C61169  -0.299   8.509   3.011 -1.3944 -0.5108 -0.2086
  454MOL0     C61170  -0.427   8.420   3.021 -0.7585 -0.2969 -0.2318
  454MOL0     C61171  -0.556   8.497   3.073  0.3780 -0.4625  0.0874
  454MOL0     N61172  -0.685   8.423   3.093  0.3332  0.1375  0.6880
  454MOL0     C61173  -0.698   8.291   3.103 -0.4260  0.3738 -0.0381
  454MOL0     C61174  -0.829   8.260   3.094 -0.1770 -0.8062 -0.2039
  454MOL0     C61175  -0.893   8.123   3.095 -0.1935 -0.0645 -0.2590
  454MOL0     C61176  -1.013   8.114   3.006 -0.2359 -1.2255 -0.2002
  454MOL0     C61177  -1.104   7.991   3.011  0.2284 -0.0895  0.1426
  454MOL0     C61178  -1.025   7.867   2.993 -0.1424  0.0498 -0.4064
  454MOL0     O61179  -0.949   7.857   2.869  0.5432  0.6177 -0.2832
  454MOL0     C61180  -0.924   7.728   2.827 -1.0263 -0.3264 -0.0351
  454MOL0     C61181  -0.908   7.621   2.917  0.7012 -0.2244 -0.1670
  454MOL0     C61182  -0.897   7.494   2.862  0.6795  0.0152 -0.7504
  454MOL0     C61183  -0.875   7.381   2.951  0.1931  0.2274  0.7402
  454MOL0     C61184  -0.894   7.478   2.719 -0.0010  0.1725  1.2974
  454MOL0     C61185  -0.904   7.339   2.652 -0.4140  0.0666 -0.5575
  454MOL0     O61186  -1.016   7.273   2.701 -0.2460 -0.0521 -0.4250
  454MOL0     C61187  -1.076   7.176   2.625  0.3140 -1.2150 -0.6679
  454MOL0     C61188  -1.167   7.105   2.702 -1.0759 -0.0202 -0.0091
  454MOL0     C61189  -1.261   7.027   2.633 -0.4039 -0.1463  0.5628
  454MOL0     C61190  -1.273   7.020   2.495 -0.2754 -0.4323  0.3566
  454MOL0     O61191  -1.372   6.944   2.447  0.6731 -0.6320  0.2322
  454MOL0     C61192  -1.359   6.895   2.306  0.5318  0.0471 -0.8033
  454MOL0     C61193  -1.450   6.985   2.228 -0.2513  0.1694  0.1635
  454MOL0     C61194  -1.514   6.900   2.110 -0.1671 -0.2817  0.0362
  454MOL0     C61195  -1.584   6.986   2.015 -0.8781 -0.8658  0.1526
  454MOL0     C61196  -1.649   6.906   1.908  0.2505  0.1848 -0.1144
  454MOL0     C61197  -1.709   6.993   1.797  0.3201  0.0451 -0.8136
  454MOL0     C61198  -1.852   7.035   1.841 -1.1150  0.7416  0.4449
  454MOL0     C61199  -1.890   7.154   1.744  0.5180 -0.5436 -0.7377
  454MOL0    Cl61200  -2.066   7.179   1.752 -0.2351  0.1747 -0.5161
  454MOL0     C61201  -1.185   7.101   2.424  0.2883  0.3760 -0.1632
  454MOL0     C61202  -1.084   7.178   2.490 -0.9602 -0.0900  0.1222
  454MOL0     O61203  -0.827   7.309   2.561  0.7081 -0.2852  0.5301
  454MOL0     C61204  -0.900   7.584   2.639 -0.6994 -0.8496  0.8171
  454MOL0     C61205  -0.919   7.713   2.691  0.5779 -0.0463  0.0617
  454MOL0     N61206  -0.897   8.373   3.074 -0.1097  0.1914  0.1789
  454MOL0     N61207  -0.812   8.474   3.075  0.1658  0.0134 -0.5672
  454MOL0     C61208   0.268   8.045   3.420 -0.0314  0.4079  0.3137
  454MOL0     C61209   0.401   7.992   3.433  0.3418 -0.4781 -0.1483
  454MOL0     C61210   0.854   8.021   3.515  0.6940 -0.0077 -0.4480
  454MOL0     C61211   0.909   7.982   3.641  0.5010 -0.0971 -0.1160
  454MOL0     C61212   1.047   7.972   3.639  0.1622  0.2437  0.3496
  454MOL0     C61213   1.126   8.001   3.528 -0.6372  0.4732 -0.2941
  454MOL0     O61214   1.263   7.977   3.549 -0.1159  0.5341 -0.1879
  454MOL0     C61215   1.356   8.024   3.444 -1.3248  0.7510 -0.7109
  454MOL0     C61216   1.498   8.043   3.505  0.4369 -0.1262  0.7856
  454MOL0     C61217   1.496   8.116   3.644  0.6671 -0.3470  0.0779
  454MOL0     C61218   1.618   8.075   3.724 -0.3813 -0.8817  0.5735
  454MOL0     C61219   1.740   8.128   3.656  0.2184 -0.8335 -0.7718
  454MOL0     C61220   1.836   8.184   3.597  0.3034  0.1621 -0.5249
  454MOL0     C61221   1.073   8.062   3.417 -0.7767 -0.7964  0.7325
  454MOL0     C61222   0.937   8.062   3.413  0.1125  1.2952  0.6588
  454MOL0     H61223   0.555   8.211   3.209 -0.7587  0.0023 -1.4835
  454MOL0     H61224   0.324   8.288   3.184 -1.7053 -0.7442  0.1232
  454MOL0     H61225   0.038   8.035   3.309  1.7299  0.4056  0.3342
  454MOL0     H61226  -0.072   8.157   3.377 -0.3475  2.8195 -0.0484
  454MOL0     H61227   0.033   8.121   3.098  1.7648  2.9774 -0.8144
  454MOL0     H61228  -0.124   8.088   3.171  2.3571 -1.7899  1.1273
  454MOL0     H61229  -0.186   8.307   3.197  0.1605  1.5313 -0.5278
  454MOL0     H61230  -0.013   8.366   3.154 -0.2083 -0.2822 -0.8776
  454MOL0     H61231  -0.056   8.261   2.930 -1.4404 -2.8351  0.7879
  454MOL0     H61232  -0.230   8.242   2.973  0.5889 -0.7672  0.0378
  454MOL0     H61233  -0.087   8.494   2.954  0.9446 -0.7963  1.1280
  454MOL0     H61234  -0.223   8.437   2.840 -0.2305  0.6801  0.4977
  454MOL0     H61235  -0.273   8.539   3.113 -4.0958  2.0448 -0.1334
  454MOL0     H61236  -0.326   8.605   2.967  2.3814  1.3214  1.0282
  454MOL0     H61237  -0.461   8.373   2.928 -1.4291 -2.4827  1.0404
  454MOL0     H61238  -0.399   8.344   3.094  1.6923 -2.5140 -3.2293
  454MOL0     H61239  -0.580   8.568   2.993 -1.5380  0.3128  1.2742
  454MOL0     H61240  -0.541   8.557   3.163  1.9703  0.2371 -0.6115
  454MOL0     H61241  -0.608   8.232   3.120 -0.5995  0.9650  3.8485
  454MOL0     H61242  -0.815   8.050   3.072  0.4866  0.0917  1.4062
  454MOL0     H61243  -0.926   8.103   3.197 -0.8525 -0.6264 -0.5717
  454MOL0     H61244  -0.981   8.144   2.905  1.6329 -2.4786 -0.0277
  454MOL0     H61245  -1.080   8.195   3.037  0.3229 -0.0600 -1.8920
  454MOL0     H61246  -1.181   8.000   2.935  0.5106 -0.6661 -0.2185
  454MOL0     H61247  -1.151   7.992   3.110  0.7811 -2.6279  0.4997
  454MOL0     H61248  -1.097   7.786   3.009 -0.3714  0.3604  0.1725
  454MOL0     H61249  -0.963   7.853   3.082  0.0009 -1.9369 -0.7664
  454MOL0     H61250  -0.915   7.635   3.024 -1.9019 -3.1424  0.1735
  454MOL0     H61251  -0.767   7.365   2.950  0.2429  0.5204 -0.9487
  454MOL0     H61252  -0.913   7.402   3.051  0.8989 -2.7479  1.7327
  454MOL0     H61253  -0.927   7.293   2.913 -0.1699  1.4346 -1.7686
  454MOL0     H61254  -1.166   7.120   2.810 -2.0844 -0.4872  0.0796
  454MOL0     H61255  -1.312   6.961   2.702  1.5519 -3.4573 -0.9174
  454MOL0     H61256  -1.253   6.893   2.279  1.4672  2.2898  2.1284
  454MOL0     H61257  -1.394   6.792   2.310 -0.3822  0.3549  3.1943
  454MOL0     H61258  -1.525   7.025   2.297  0.6434  1.5844  0.3541
  454MOL0     H61259  -1.402   7.075   2.187  1.4225 -0.9639 -0.4812
  454MOL0     H61260  -1.585   6.823   2.142 -1.4157  0.7658 -0.1004
  454MOL0     H61261  -1.433   6.851   2.056 -0.1467 -0.6011  0.3520
  454MOL0     H61262  -1.659   7.037   2.076 -0.3787 -2.4617  2.2148
  454MOL0     H61263  -1.516   7.061   1.973 -1.4155 -0.0415  0.7124
  454MOL0     H61264  -1.732   6.843   1.943 -0.0047 -2.4759 -4.7236
  454MOL0     H61265  -1.579   6.840   1.857 -0.2002 -0.2934 -0.1241
  454MOL0     H61266  -1.642   7.079   1.789  0.0226  0.5245  1.2603
  454MOL0     H61267  -1.709   6.937   1.703  1.7788 -2.6636  0.6875
  454MOL0     H61268  -1.860   7.069   1.945  0.6058  1.9931  0.2062
  454MOL0     H61269  -1.906   6.943   1.817  4.3490 -2.4416 -1.3578
  454MOL0     H61270  -1.867   7.140   1.638 -2.2122 -0.0804 -1.4561
  454MOL0     H61271  -1.840   7.244   1.781 -0.8623  0.0906 -0.3765
  454MOL0     H61272  -1.187   7.112   2.316 -0.0101 -1.8050 -0.4131
  454MOL0     H61273  -1.023   7.243   2.428 -0.3269  0.8839  1.7170
  454MOL0     H61274  -0.889   7.573   2.531 -2.6277  0.0743  0.4917
  454MOL0     H61275  -0.931   7.798   2.624  3.4776  0.4884  0.1156
  454MOL0     H61276   0.182   8.014   3.478  1.3746 -0.9800  1.7234
  454MOL0     H61277   0.408   7.910   3.504 -0.6953  0.0982  0.6526
  454MOL0     H61278   0.856   7.930   3.721  0.1489 -1.0383 -0.9380
  454MOL0     H61279   1.094   7.932   3.728 -0.3676  1.6461  1.2975
  454MOL0     H61280   1.359   7.962   3.354  0.0948  1.5851 -1.2732
  454MOL0     H61281   1.325   8.125   3.415 -1.3069  0.9801  0.0237
  454MOL0     H61282   1.566   8.107   3.449  1.2466  0.2798  2.1651
  454MOL0     H61283   1.549   7.948   3.518  1.2487  0.1314 -0.3993
  454MOL0     H61284   1.408   8.083   3.699  0.7013 -2.2962 -0.9592
  454MOL0     H61285   1.488   8.225   3.635 -0.1035 -0.4400 -0.5140
  454MOL0     H61286   1.623   7.966   3.728 -2.3371 -1.0993 -1.2945
  454MOL0     H61287   1.624   8.122   3.823 -2.3029  1.7810 -0.4715
  454MOL0     H61288   1.916   8.229   3.541  3.4903 -2.6217  1.4082
  454MOL0     H61289   1.127   8.086   3.326 -0.9613 -3.6585 -0.2482
  454MOL0     H61290   0.884   8.087   3.321  0.6271  3.0384  0.8012
  455MOL0     O61291   3.217   3.277   2.059  0.6626 -0.4392  0.1323
  455MOL0     C61292   3.336   3.301   2.066  0.6393  0.2293  0.3839
  455MOL0     O61293   3.428   3.202   2.098 -0.9353 -0.4407 -0.1631
  455MOL0     C61294   3.398   3.074   2.132  0.3150  0.9559 -0.5398
  455MOL0     C61295   3.276   2.996   2.107 -0.5867 -0.2562  0.6265
  455MOL0     C61296   3.260   2.858   2.138  0.8738  0.3813 -0.3447
  455MOL0     C61297   3.363   2.784   2.211  0.0038  0.5445  0.5316
  455MOL0     O61298   3.362   2.651   2.243 -0.2886 -0.7156  0.2108
  455MOL0     C61299   3.262   2.569   2.183  0.1238 -0.5442  0.4671
  455MOL0     C61300   3.295   2.427   2.195  0.0707  0.0451 -0.2224
  455MOL0     C61301   3.375   2.379   2.066  0.5066  0.0857  0.6223
  455MOL0     C61302   3.416   2.231   2.090  0.1626 -0.3069  0.1745
  455MOL0     C61303   3.337   2.128   2.011  0.2400  0.1751  0.0980
  455MOL0     C61304   3.411   1.997   1.991  0.3092  0.0772  0.1236
  455MOL0     C61305   3.325   1.880   1.922 -0.3312 -0.6496  0.7640
  455MOL0     C61306   3.272   1.905   1.784  0.0709 -0.7748  0.6069
  455MOL0     N61307   3.383   1.933   1.684  0.3950  0.7039 -0.8657
  455MOL0     C61308   3.425   2.048   1.629 -0.2434 -0.5223  0.8146
  455MOL0     C61309   3.541   2.021   1.567  0.5071  0.1833  0.0313
  455MOL0     C61310   3.644   2.124   1.525  0.1462  0.3754  0.1870
  455MOL0     C61311   3.661   2.122   1.378 -0.3850  0.0331  0.0283
  455MOL0     C61312   3.527   2.164   1.311 -0.0336 -0.1229  0.5583
  455MOL0     C61313   3.470   2.316   1.314  0.6192  0.1969 -0.0298
  455MOL0     O61314   3.439   2.347   1.454 -0.1099 -0.1251  0.2483
  455MOL0     C61315   3.411   2.481   1.482 -0.7304 -0.6596 -0.4181
  455MOL0     C61316   3.403   2.519   1.615  0.1912 -0.3324 -0.3978
  455MOL0     C61317   3.371   2.658   1.654  0.4186  0.1456  0.4176
  455MOL0     C61318   3.358   2.689   1.809  0.1336  0.0397 -0.1030
  455MOL0     C61319   3.358   2.765   1.556  0.0339 -0.1872  0.6130
  455MOL0     C61320   3.323   2.907   1.584 -0.0561 -0.3311  0.2994
  455MOL0     O61321   3.358   2.998   1.474 -0.4871 -0.4111  0.2382
  455MOL0     C61322   3.347   3.126   1.509 -0.2154 -0.3722  0.1917
  455MOL0     C61323   3.278   3.218   1.431 -0.3709  0.9978 -0.4951
  455MOL0     C61324   3.279   3.351   1.471 -0.9398 -0.7847  0.1138
  455MOL0     C61325   3.350   3.394   1.591 -0.7799 -0.4220 -0.0048
  455MOL0     O61326   3.366   3.518   1.630 -0.9613  0.4058 -0.0626
  455MOL0     C61327   3.319   3.626   1.546 -0.6133  0.4844 -0.1189
  455MOL0     C61328   3.169   3.625   1.587 -0.1822  0.0022 -0.1148
  455MOL0     C61329   3.094   3.748   1.539  0.5548 -0.1643  0.3475
  455MOL0     C61330   3.049   3.731   1.393  0.1666 -0.2836 -0.6258
  455MOL0     C61331   2.943   3.835   1.357 -0.2186  0.4946  0.2525
  455MOL0     C61332   2.811   3.797   1.426 -0.3826  0.1853 -0.1501
  455MOL0     C61333   2.745   3.670   1.373  0.8741 -1.1722  0.1897
  455MOL0     C61334   2.627   3.631   1.456  0.2737  0.7787  0.4618
  455MOL0    Cl61335   2.530   3.771   1.516  0.0194 -0.2828 -0.1697
  455MOL0     C61336   3.400   3.292   1.677 -0.3555 -0.3314  0.8332
  455MOL0     C61337   3.419   3.162   1.627  0.4602 -0.3159  0.3583
  455MOL0     O61338   3.261   2.941   1.690 -1.1750  0.0453  0.1927
  455MOL0     C61339   3.369   2.719   1.427 -0.8449 -0.1464  0.4527
  455MOL0     C61340   3.404   2.585   1.387  0.3028  0.2980  0.5465
  455MOL0     N61341   3.557   1.882   1.559 -0.1247 -0.4484  0.3241
  455MOL0     N61342   3.462   1.834   1.641 -0.3281  0.9127  0.9049
  455MOL0     C61343   3.477   2.864   2.245  0.8116 -0.0874 -0.3953
  455MOL0     C61344   3.500   2.997   2.191  0.0637 -0.0635 -0.6879
  455MOL0     C61345   3.389   3.434   2.038 -0.4021  0.3882  0.1761
  455MOL0     C61346   3.314   3.518   1.948  0.1964  0.2668 -0.4985
  455MOL0     C61347   3.355   3.650   1.916 -0.5058 -0.3587 -0.2259
  455MOL0     C61348   3.467   3.705   1.988 -0.2149 -0.0927 -0.7451
  455MOL0     O61349   3.503   3.833   2.010 -0.1481  0.3600  0.1080
  455MOL0     C61350   3.415   3.935   1.959  0.6881 -0.0467  0.0723
  455MOL0     C61351   3.473   4.074   1.986 -0.1432 -0.5888 -0.9926
  455MOL0     C61352   3.471   4.098   2.139 -0.2817  0.1730 -0.1573
  455MOL0     C61353   3.519   4.232   2.204  0.0584  0.4807  0.4052
  455MOL0     C61354   3.660   4.277   2.194 -0.0637 -0.0892  0.6303
  455MOL0     C61355   3.775   4.323   2.192  0.0972  0.1735  0.3656
  455MOL0     C61356   3.542   3.616   2.066  0.5209 -0.2504 -0.0801
  455MOL0     C61357   3.506   3.478   2.088  0.2617 -1.5376 -0.7223
  455MOL0     H61358   3.201   3.056   2.055  0.7391  3.1081  2.2743
  455MOL0     H61359   3.165   2.810   2.112  1.8328 -0.0054 -3.6491
  455MOL0     H61360   3.165   2.577   2.233  1.1701 -4.0240  3.4613
  455MOL0     H61361   3.257   2.589   2.075  2.3847 -1.6279  0.1225
  455MOL0     H61362   3.365   2.416   2.278  1.2607 -1.6934 -1.3821
  455MOL0     H61363   3.206   2.363   2.195 -2.0595  2.7452 -2.3932
  455MOL0     H61364   3.313   2.384   1.975  1.0484 -0.9771  0.1840
  455MOL0     H61365   3.461   2.444   2.047 -0.3221  1.0179 -0.0255
  455MOL0     H61366   3.523   2.226   2.069  0.8826  1.1959  2.9303
  455MOL0     H61367   3.422   2.205   2.196  0.8066 -0.7696  0.0292
  455MOL0     H61368   3.241   2.107   2.060 -0.9338  1.3559 -1.5532
  455MOL0     H61369   3.318   2.164   1.909 -2.6556  1.0789  0.8622
  455MOL0     H61370   3.500   2.023   1.932  1.5159 -1.3019  1.2596
  455MOL0     H61371   3.439   1.952   2.086 -3.3034  0.6938  1.6588
  455MOL0     H61372   3.388   1.795   1.893  0.8432  0.7229 -0.9747
  455MOL0     H61373   3.243   1.867   1.992 -1.0361 -1.3927 -0.1851
  455MOL0     H61374   3.197   1.984   1.787  0.0937 -0.5772 -1.7967
  455MOL0     H61375   3.213   1.816   1.761 -0.5349 -0.0938 -0.5230
  455MOL0     H61376   3.386   2.145   1.658 -2.3218 -0.9515 -0.2851
  455MOL0     H61377   3.623   2.224   1.563 -2.2125  0.5487 -1.3793
  455MOL0     H61378   3.739   2.091   1.569  0.2090  2.3464  1.6420
  455MOL0     H61379   3.693   2.023   1.347 -1.5884  0.3018 -2.3385
  455MOL0     H61380   3.740   2.189   1.342  0.0930  0.4148  1.7164
  455MOL0     H61381   3.445   2.096   1.338 -0.0919 -1.2756 -2.1810
  455MOL0     H61382   3.550   2.142   1.206 -0.9648  0.0046  0.3161
  455MOL0     H61383   3.382   2.327   1.250  1.6296  2.9371 -1.1147
  455MOL0     H61384   3.539   2.386   1.265 -0.2169 -0.7677 -2.7918
  455MOL0     H61385   3.406   2.446   1.695 -1.7243  1.3357  1.3265
  455MOL0     H61386   3.437   2.755   1.846 -0.4898 -0.5523  2.4797
  455MOL0     H61387   3.266   2.746   1.820  1.4112  2.6041 -1.7226
  455MOL0     H61388   3.363   2.602   1.875 -1.0728  1.7497  2.4011
  455MOL0     H61389   3.239   3.179   1.338 -1.0179  1.3349 -0.3712
  455MOL0     H61390   3.232   3.419   1.402 -1.4159  0.2985  1.4646
  455MOL0     H61391   3.350   3.727   1.577 -1.2821  0.1936  1.6255
  455MOL0     H61392   3.328   3.609   1.439  1.6445  1.1784 -0.0978
  455MOL0     H61393   3.117   3.531   1.567 -2.9067  1.1725  0.9831
  455MOL0     H61394   3.160   3.633   1.696  0.9879 -2.6179  0.2375
  455MOL0     H61395   3.164   3.832   1.530 -1.0646  1.4628  1.9667
  455MOL0     H61396   3.021   3.783   1.613  1.3603 -0.2118  1.1767
  455MOL0     H61397   3.137   3.741   1.328 -1.4495 -4.6267 -4.0168
  455MOL0     H61398   3.020   3.626   1.383 -1.9015  0.3618 -2.4428
  455MOL0     H61399   2.926   3.835   1.249 -1.4226  2.6598  0.3963
  455MOL0     H61400   2.971   3.937   1.385  0.6106  0.6983 -1.1906
  455MOL0     H61401   2.818   3.783   1.534  0.6493 -0.9223 -0.3437
  455MOL0     H61402   2.745   3.881   1.400 -1.5546 -1.4247 -2.9398
  455MOL0     H61403   2.808   3.584   1.348  1.6233  0.2002 -3.2573
  455MOL0     H61404   2.712   3.702   1.273  0.1793 -1.3350  0.3595
  455MOL0     H61405   2.654   3.572   1.544 -1.7257 -0.8194  0.0760
  455MOL0     H61406   2.555   3.573   1.396  0.1464  1.6096 -0.2054
  455MOL0     H61407   3.453   3.341   1.758  1.7467  0.0475 -0.6764
  455MOL0     H61408   3.488   3.095   1.677  2.0410  1.3454  0.4856
  455MOL0     H61409   3.364   2.794   1.349 -2.3991  0.9625  1.5652
  455MOL0     H61410   3.422   2.568   1.281  0.1384 -0.5909  0.6589
  455MOL0     H61411   3.553   2.817   2.307  2.2701 -0.2761 -2.2051
  455MOL0     H61412   3.590   3.051   2.219  0.0135  0.0506 -0.7461
  455MOL0     H61413   3.224   3.469   1.911 -1.2283  0.6333  2.1710
  455MOL0     H61414   3.288   3.718   1.864  0.2642 -0.7983 -1.8754
  455MOL0     H61415   3.401   3.913   1.853  1.1407 -0.5097  0.1035
  455MOL0     H61416   3.317   3.934   2.009  1.1989 -0.3184  1.1090
  455MOL0     H61417   3.410   4.146   1.934 -1.0669 -0.7642 -0.1509
  455MOL0     H61418   3.572   4.061   1.941  0.3994 -3.4986  0.7949
  455MOL0     H61419   3.529   4.023   2.193  2.0316  1.3538 -0.8645
  455MOL0     H61420   3.365   4.100   2.163 -0.0870  1.0340  0.7041
  455MOL0     H61421   3.502   4.214   2.310  0.9171 -2.4443  0.1562
  455MOL0     H61422   3.474   4.321   2.159  1.5129  0.6994 -0.6904
  455MOL0     H61423   3.864   4.381   2.185  1.6964 -2.1610 -0.0091
  455MOL0     H61424   3.632   3.656   2.111 -0.6484  1.4631  0.8267
  455MOL0     H61425   3.576   3.425   2.153  2.7714  2.4991  0.2053
  456MOL0     O61426   8.509   4.582   5.319  0.4712  0.8712  0.1881
  456MOL0     C61427   8.431   4.603   5.417 -0.1041  0.1473  0.7310
  456MOL0     O61428   8.462   4.601   5.554 -0.6982 -0.1013 -0.4067
  456MOL0     C61429   8.592   4.564   5.586  0.4727  0.6499  0.9934
  456MOL0     C61430   8.637   4.436   5.568  0.8836 -0.0748 -0.0597
  456MOL0     C61431   8.761   4.402   5.607  0.6233  0.1742  0.2065
  456MOL0     C61432   8.839   4.499   5.673 -0.6598 -0.0227  0.8830
  456MOL0     O61433   8.961   4.477   5.722 -0.1926  0.2586 -0.5333
  456MOL0     C61434   9.044   4.390   5.642 -0.3345  0.4118  0.0397
  456MOL0     C61435   9.170   4.377   5.727 -0.5087 -0.3754 -0.4081
  456MOL0     C61436   9.283   4.327   5.638 -0.6585  0.3697  0.7077
  456MOL0     C61437   9.412   4.340   5.704  0.8901  0.7589  0.2447
  456MOL0     C61438   9.521   4.252   5.641  0.4833 -1.0990 -0.0073
  456MOL0     C61439   9.653   4.316   5.704  0.4451  0.0698 -0.3780
  456MOL0     C61440   9.775   4.242   5.657  0.0499 -0.1233 -0.4813
  456MOL0     C61441   9.897   4.290   5.748 -0.3018 -0.2527 -0.6477
  456MOL0     N61442  10.013   4.203   5.727 -0.2012  0.6925 -0.3424
  456MOL0     C61443  10.099   4.209   5.619  0.4644  0.6668  0.8964
  456MOL0     C61444  10.205   4.120   5.645  0.3621 -2.3495  0.4994
  456MOL0     C61445  10.330   4.080   5.565  0.5896  0.7057  0.8843
  456MOL0     C61446  10.325   4.130   5.425 -0.2616 -0.3716  0.3234
  456MOL0     C61447  10.432   4.067   5.337 -0.2522 -0.4712  0.2225
  456MOL0     C61448  10.384   3.925   5.291  0.2280  0.7250 -0.3036
  456MOL0     O61449  10.501   3.876   5.229  0.4712  0.0350  0.0608
  456MOL0     C61450  10.584   3.795   5.305 -1.0009 -0.2764  0.6600
  456MOL0     C61451  10.556   3.693   5.395  0.1254 -0.1838 -0.2043
  456MOL0     C61452  10.657   3.615   5.455 -0.2492  0.0569  0.0590
  456MOL0     C61453  10.613   3.502   5.541 -0.4178  0.0662  0.0178
  456MOL0     C61454  10.794   3.629   5.420  0.6594 -0.2114 -0.0725
  456MOL0     C61455  10.903   3.531   5.458 -0.1132  0.1138  0.5154
  456MOL0     O61456  11.024   3.550   5.397  0.4061  0.1994 -0.2807
  456MOL0     C61457  11.137   3.473   5.413  0.9863  0.7952 -0.5954
  456MOL0     C61458  11.211   3.420   5.301  0.0368  0.0444 -0.0351
  456MOL0     C61459  11.325   3.346   5.314 -0.4479 -1.0824  0.2417
  456MOL0     C61460  11.378   3.322   5.443 -0.5216  0.0887  0.6667
  456MOL0     O61461  11.480   3.244   5.480  0.6696 -0.2094 -0.4461
  456MOL0     C61462  11.549   3.169   5.380  0.0724 -0.1463  0.2646
  456MOL0     C61463  11.667   3.085   5.423  0.8516 -1.2017 -0.9210
  456MOL0     C61464  11.641   2.978   5.523  1.4462  1.3020  0.3546
  456MOL0     C61465  11.754   2.932   5.604 -0.8041 -0.5164 -0.5389
  456MOL0     C61466  11.861   2.844   5.532 -0.6516  0.4416  0.1339
  456MOL0     C61467  11.966   2.794   5.625 -0.5075 -0.9793 -0.1791
  456MOL0     C61468  12.047   2.689   5.552 -0.4942 -0.5125  0.2687
  456MOL0     C61469  12.164   2.639   5.641  0.1202 -0.0493  0.5529
  456MOL0    Cl61470  12.247   2.528   5.539  0.4740  0.4183 -0.0080
  456MOL0     C61471  11.307   3.378   5.554  0.8968  0.9261  0.9205
  456MOL0     C61472  11.189   3.450   5.533 -0.0551  0.8439 -0.1866
  456MOL0     O61473  10.884   3.447   5.540 -0.5714  0.6817 -0.1129
  456MOL0     C61474  10.824   3.730   5.322 -0.7141 -0.0214 -0.8002
  456MOL0     C61475  10.720   3.797   5.261  0.0420 -0.6011 -0.4563
  456MOL0     N61476  10.178   4.061   5.763 -0.4474  0.0460  0.3422
  456MOL0     N61477  10.075   4.112   5.811  0.4551  0.0127  0.4657
  456MOL0     C61478   8.797   4.630   5.684 -0.4423  0.3838  1.1084
  456MOL0     C61479   8.674   4.658   5.638 -0.3265 -0.7731 -0.8718
  456MOL0     C61480   8.299   4.637   5.377  0.7353 -0.7211 -1.3350
  456MOL0     C61481   8.190   4.643   5.465 -0.8861 -0.7309  0.3719
  456MOL0     C61482   8.078   4.711   5.425 -0.2766  0.8482  0.7367
  456MOL0     C61483   8.054   4.749   5.291 -0.1063 -0.1746  0.3066
  456MOL0     O61484   7.944   4.811   5.245  0.3565  0.1123  0.5477
  456MOL0     C61485   7.939   4.948   5.276  0.1813  0.7054 -0.7133
  456MOL0     C61486   7.818   5.018   5.207  0.5061  0.5355 -0.2021
  456MOL0     C61487   7.853   5.034   5.063 -0.5174 -0.5690  0.3606
  456MOL0     C61488   7.739   5.061   4.969  0.2425 -1.3275 -0.2164
  456MOL0     C61489   7.641   5.162   5.011 -0.3830  0.0332  0.6400
  456MOL0     C61490   7.566   5.255   5.033 -0.2252  0.9574 -0.7791
  456MOL0     C61491   8.152   4.713   5.191  0.1387 -0.1110  0.6299
  456MOL0     C61492   8.276   4.668   5.238  0.1329  0.2775  0.9890
  456MOL0     H61493   8.565   4.365   5.529 -0.0339  1.4307 -1.1749
  456MOL0     H61494   8.787   4.297   5.597 -1.9164 -0.5036 -0.0362
  456MOL0     H61495   9.002   4.290   5.632 -0.1748  0.2987  0.4932
  456MOL0     H61496   9.071   4.435   5.545 -2.1912 -0.8111 -1.1066
  456MOL0     H61497   9.194   4.470   5.778 -0.9777 -1.3458  1.6792
  456MOL0     H61498   9.145   4.304   5.804 -0.2128  0.7524  0.7862
  456MOL0     H61499   9.265   4.221   5.620  2.7482 -0.6323  2.3314
  456MOL0     H61500   9.289   4.382   5.544  1.3219 -1.2651 -0.2054
  456MOL0     H61501   9.442   4.445   5.702  0.9843  0.7765 -3.0076
  456MOL0     H61502   9.391   4.305   5.806 -1.6563 -1.7995 -1.0338
  456MOL0     H61503   9.511   4.148   5.673 -0.6642 -1.3714 -1.1790
  456MOL0     H61504   9.509   4.268   5.534  0.4102  2.6316  0.4073
  456MOL0     H61505   9.661   4.422   5.678 -0.8919 -0.1222 -1.7075
  456MOL0     H61506   9.637   4.303   5.811 -3.2535  0.6336 -0.7199
  456MOL0     H61507   9.773   4.133   5.668  0.1049  0.0133  1.1457
  456MOL0     H61508   9.797   4.278   5.556 -3.3681  2.3237 -0.5211
  456MOL0     H61509   9.869   4.283   5.854 -0.4888 -1.2223 -0.7449
  456MOL0     H61510   9.909   4.397   5.730 -0.3065  0.0634  1.0356
  456MOL0     H61511  10.093   4.278   5.535  0.0679 -1.7479 -1.1508
  456MOL0     H61512  10.427   4.114   5.602  1.6279  1.8041 -2.4726
  456MOL0     H61513  10.327   3.971   5.560 -3.5578  0.7009 -0.2086
  456MOL0     H61514  10.352   4.234   5.446 -0.0904 -0.3587  0.0435
  456MOL0     H61515  10.225   4.123   5.382 -0.0417 -1.1162 -0.0817
  456MOL0     H61516  10.533   4.066   5.379  1.3689  0.0824 -3.3043
  456MOL0     H61517  10.442   4.132   5.249 -0.8148 -2.0530 -1.0633
  456MOL0     H61518  10.289   3.936   5.239 -0.7455  1.4229  1.5020
  456MOL0     H61519  10.374   3.867   5.383 -0.7835  0.2756 -0.6865
  456MOL0     H61520  10.456   3.665   5.424  0.6686 -0.4709  1.4820
  456MOL0     H61521  10.630   3.406   5.491  3.6124 -1.4521  3.6356
  456MOL0     H61522  10.679   3.509   5.628  2.4368  0.6332 -2.0367
  456MOL0     H61523  10.506   3.515   5.561 -0.3395  1.7152 -0.4884
  456MOL0     H61524  11.167   3.435   5.203  1.0488  1.2412 -0.3247
  456MOL0     H61525  11.368   3.304   5.224  3.2977 -0.4547  1.5700
  456MOL0     H61526  11.476   3.105   5.330 -0.1588 -0.5988  1.1605
  456MOL0     H61527  11.581   3.253   5.317 -1.4430  1.3227  1.3423
  456MOL0     H61528  11.717   3.051   5.332 -0.4468 -1.4382 -1.5766
  456MOL0     H61529  11.729   3.160   5.473 -0.6567  0.6346 -1.6944
  456MOL0     H61530  11.587   2.892   5.483  2.3997 -0.9987  3.6026
  456MOL0     H61531  11.560   3.021   5.582 -0.5169  6.5018 -5.0581
  456MOL0     H61532  11.805   3.025   5.630 -2.7479  0.3997  0.1583
  456MOL0     H61533  11.716   2.888   5.697 -0.6688 -2.0438 -1.1728
  456MOL0     H61534  11.919   2.907   5.463  0.2433  0.6858  1.0865
  456MOL0     H61535  11.814   2.760   5.481 -0.3138  0.5537 -0.3674
  456MOL0     H61536  12.035   2.877   5.644 -0.8735 -0.1088 -2.3473
  456MOL0     H61537  11.915   2.764   5.717 -0.8898 -1.4221 -0.5284
  456MOL0     H61538  12.101   2.728   5.466 -1.1775 -2.7416 -1.2408
  456MOL0     H61539  11.984   2.607   5.515 -0.6788  0.1992 -1.0421
  456MOL0     H61540  12.128   2.587   5.730 -2.2531 -1.4192 -1.0809
  456MOL0     H61541  12.229   2.721   5.673  0.3304  0.7253 -1.6715
  456MOL0     H61542  11.344   3.352   5.653  2.1260  1.0635  0.5247
  456MOL0     H61543  11.131   3.477   5.621 -0.0960 -1.9298  0.7352
  456MOL0     H61544  10.928   3.738   5.293 -0.3416 -2.6435 -0.5016
  456MOL0     H61545  10.757   3.844   5.170 -0.8247 -1.3066 -1.1952
  456MOL0     H61546   8.859   4.708   5.729 -0.1252  0.3261  0.7733
  456MOL0     H61547   8.653   4.765   5.640 -0.9256 -0.8074 -2.7124
  456MOL0     H61548   8.203   4.624   5.571  0.8774 -2.6414 -0.1193
  456MOL0     H61549   7.996   4.738   5.491 -2.8926  0.2608 -2.0737
  456MOL0     H61550   7.929   4.969   5.383 -2.5457  0.9647 -0.9380
  456MOL0     H61551   8.026   5.000   5.236  0.5917 -1.1007 -2.3432
  456MOL0     H61552   7.794   5.114   5.254 -0.0597  1.6682 -2.6285
  456MOL0     H61553   7.730   4.957   5.229 -0.6564  2.5318  0.9816
  456MOL0     H61554   7.913   4.948   5.031 -0.7197 -0.8507  0.7246
  456MOL0     H61555   7.920   5.120   5.051  0.2162 -1.2780 -0.8122
  456MOL0     H61556   7.675   4.975   4.948 -2.1595  0.0541  1.0556
  456MOL0     H61557   7.772   5.094   4.870 -2.0479 -1.9175 -1.2465
  456MOL0     H61558   7.493   5.330   5.055  0.4819  1.2793  0.5772
  456MOL0     H61559   8.136   4.745   5.088  0.1612 -1.7743  0.0838
  456MOL0     H61560   8.362   4.659   5.172 -0.9639 -3.0913 -0.1635
  457MOL0     O61561   7.442   3.367   1.034 -0.2883 -0.0622 -0.9533
  457MOL0     C61562   7.447   3.438   0.934 -0.5269 -0.7723 -0.5387
  457MOL0     O61563   7.511   3.404   0.813  0.4206  0.4068  0.2947
  457MOL0     C61564   7.567   3.286   0.790  0.0574  0.1842  0.2384
  457MOL0     C61565   7.485   3.178   0.758 -0.0034 -0.4024  0.0128
  457MOL0     C61566   7.542   3.048   0.741 -0.2081 -0.3756 -1.3897
  457MOL0     C61567   7.678   3.028   0.757 -1.0457 -0.0057  0.0354
  457MOL0     O61568   7.716   2.896   0.735  0.4349  0.0821 -0.1631
  457MOL0     C61569   7.843   2.850   0.790 -0.0892  0.4199 -0.7390
  457MOL0     C61570   7.861   2.699   0.755 -0.3626  0.5348  0.0688
  457MOL0     C61571   7.861   2.679   0.602 -0.7834  0.0074 -0.1030
  457MOL0     C61572   7.915   2.540   0.562  0.1508  0.0371  0.3224
  457MOL0     C61573   7.945   2.524   0.419 -0.1844  0.3608  1.0112
  457MOL0     C61574   7.827   2.580   0.332  1.5491 -0.2718 -0.3932
  457MOL0     C61575   7.805   2.514   0.191 -0.9845 -0.7602 -1.1319
  457MOL0     C61576   7.666   2.538   0.133  0.4339  0.8120  0.3716
  457MOL0     N61577   7.632   2.449   0.024  0.0970  0.1130 -0.0349
  457MOL0     C61578   7.510   2.429  -0.012 -0.0722  0.1135  0.5540
  457MOL0     C61579   7.517   2.350  -0.125 -1.0673 -0.2111 -0.3893
  457MOL0     C61580   7.392   2.284  -0.193 -0.6393 -0.7361  0.2523
  457MOL0     C61581   7.276   2.263  -0.096  0.0902  0.0327  0.1614
  457MOL0     C61582   7.289   2.126  -0.026 -0.1909 -0.3665 -0.5257
  457MOL0     C61583   7.174   2.073   0.055  0.2575  0.0993 -0.8204
  457MOL0     O61584   7.053   2.075  -0.010  1.2541  0.1415  0.7450
  457MOL0     C61585   6.939   2.073   0.067 -0.0850 -0.2427  0.7356
  457MOL0     C61586   6.823   2.135   0.030 -0.3799 -0.6483  1.1871
  457MOL0     C61587   6.708   2.125   0.098  0.0266  1.3474  1.1979
  457MOL0     C61588   6.579   2.204   0.037  0.1025  0.0852 -0.1920
  457MOL0     C61589   6.702   2.035   0.211  0.5155 -0.6816  0.7931
  457MOL0     C61590   6.577   2.024   0.302 -0.1014 -1.0667  0.9191
  457MOL0     O61591   6.580   1.919   0.378 -0.0724  0.1185  0.4205
  457MOL0     C61592   6.481   1.891   0.469 -0.6038  0.3164  0.6990
  457MOL0     C61593   6.342   1.911   0.455  0.5116  0.4980  0.5307
  457MOL0     C61594   6.251   1.881   0.552 -0.0397  0.7005 -0.6971
  457MOL0     C61595   6.289   1.811   0.666  0.2420 -0.2970  0.2824
  457MOL0     O61596   6.198   1.783   0.769  0.2077 -0.2142  0.3431
  457MOL0     C61597   6.155   1.644   0.764  0.5244  0.5517 -0.5192
  457MOL0     C61598   6.106   1.608   0.903  0.4816 -0.1569  0.4810
  457MOL0     C61599   5.991   1.703   0.955  0.1993 -0.8969 -0.4176
  457MOL0     C61600   5.915   1.642   1.077 -0.3036  1.0287  0.3727
  457MOL0     C61601   5.777   1.706   1.096 -0.5506 -0.3377 -0.3302
  457MOL0     C61602   5.787   1.863   1.107  0.0425  0.6270  0.4697
  457MOL0     C61603   5.846   1.893   1.245  0.5697 -1.4831  0.0135
  457MOL0     C61604   5.872   2.040   1.253 -0.1609 -0.6721 -0.1782
  457MOL0    Cl61605   5.727   2.136   1.268 -0.0877  0.0879  0.3563
  457MOL0     C61606   6.429   1.784   0.679  0.6017  0.3256  0.8523
  457MOL0     C61607   6.526   1.823   0.583  0.9605  0.5782  0.4099
  457MOL0     O61608   6.491   2.110   0.315 -0.1091 -0.7392  0.9411
  457MOL0     C61609   6.823   1.989   0.256  0.4740  0.4599 -0.6646
  457MOL0     C61610   6.939   2.009   0.194 -1.9446  0.1243 -0.5843
  457MOL0     N61611   7.651   2.365  -0.170 -0.3813  0.7750 -0.3341
  457MOL0     N61612   7.720   2.415  -0.073 -0.2533 -0.2106 -0.1304
  457MOL0     C61613   7.760   3.138   0.786  0.6836 -0.8215 -0.5709
  457MOL0     C61614   7.708   3.262   0.807  0.3651 -1.3135 -0.6130
  457MOL0     C61615   7.380   3.573   0.943 -0.6887  1.6838  0.9131
  457MOL0     C61616   7.379   3.650   0.829 -0.2256 -1.2895 -0.4550
  457MOL0     C61617   7.332   3.780   0.848 -1.3380 -0.3491  0.5034
  457MOL0     C61618   7.272   3.825   0.962 -0.2965  0.3928 -0.3920
  457MOL0     O61619   7.207   3.942   0.979  0.2428  0.3228 -0.0121
  457MOL0     C61620   7.254   4.052   0.906 -1.0444  0.4113  0.5472
  457MOL0     C61621   7.266   4.165   1.007  0.3136 -0.5690  0.4475
  457MOL0     C61622   7.139   4.250   1.027 -0.6003 -0.7151 -0.2345
  457MOL0     C61623   7.096   4.271   1.174  0.4147  0.0130 -0.6890
  457MOL0     C61624   7.196   4.347   1.249  0.2993  0.5795  0.1889
  457MOL0     C61625   7.286   4.385   1.326 -0.4933  0.1826 -0.3807
  457MOL0     C61626   7.258   3.741   1.072  0.1364 -0.1091 -0.4819
  457MOL0     C61627   7.314   3.619   1.058 -0.1218 -0.1968  0.0768
  457MOL0     H61628   7.378   3.194   0.742 -0.2104 -0.4550  1.2543
  457MOL0     H61629   7.475   2.965   0.723 -0.0484 -1.1355  1.1641
  457MOL0     H61630   7.930   2.903   0.751  0.7832  1.8928  2.8117
  457MOL0     H61631   7.848   2.887   0.893  1.3830 -0.7556 -0.3524
  457MOL0     H61632   7.951   2.656   0.799  0.4707 -0.9765 -2.8356
  457MOL0     H61633   7.780   2.638   0.796  0.3238  0.7116  1.7383
  457MOL0     H61634   7.757   2.697   0.573 -0.5874  0.3925 -0.5862
  457MOL0     H61635   7.926   2.748   0.547  1.2769 -1.3269  0.5440
  457MOL0     H61636   8.010   2.527   0.616  0.9154 -1.2449 -1.2460
  457MOL0     H61637   7.846   2.468   0.608 -1.4299  0.9559 -0.5542
  457MOL0     H61638   8.030   2.587   0.391  0.7942 -0.9202  1.0114
  457MOL0     H61639   7.962   2.417   0.402 -2.8681 -0.1237  0.8905
  457MOL0     H61640   7.729   2.571   0.380  1.1371  0.5517 -1.0493
  457MOL0     H61641   7.849   2.687   0.318  3.7067 -0.8436 -1.9070
  457MOL0     H61642   7.879   2.550   0.118  0.3720 -0.4751  0.3239
  457MOL0     H61643   7.837   2.410   0.202  0.3153 -0.2133  0.8349
  457MOL0     H61644   7.674   2.639   0.092 -0.0953  1.3251  1.4791
  457MOL0     H61645   7.587   2.532   0.208  0.4986 -0.2495  0.3689
  457MOL0     H61646   7.421   2.454   0.045 -1.1698 -2.8947  0.3806
  457MOL0     H61647   7.361   2.327  -0.289  0.7529  1.5699  0.7729
  457MOL0     H61648   7.427   2.182  -0.214 -2.4208 -1.1883 -0.6772
  457MOL0     H61649   7.183   2.272  -0.152  0.4265 -1.4185 -0.6802
  457MOL0     H61650   7.273   2.335  -0.014  0.9893 -0.5500  0.7228
  457MOL0     H61651   7.376   2.130   0.040  1.0722 -2.6639 -1.9242
  457MOL0     H61652   7.316   2.046  -0.095 -1.7285 -0.9259 -0.5220
  457MOL0     H61653   7.170   2.133   0.146  3.7275  2.3235 -1.9282
  457MOL0     H61654   7.204   1.969   0.073 -1.3535 -0.0388  1.4315
  457MOL0     H61655   6.837   2.184  -0.066 -3.3817 -0.0439  0.9606
  457MOL0     H61656   6.608   2.236  -0.063 -0.1389 -2.2597 -1.0631
  457MOL0     H61657   6.496   2.134   0.025  0.7619 -1.3857  2.8011
  457MOL0     H61658   6.540   2.279   0.107 -0.4723  0.2481 -0.6794
  457MOL0     H61659   6.304   1.948   0.360  1.8386  0.4379 -0.0482
  457MOL0     H61660   6.151   1.924   0.552  0.3711  1.7990  1.3050
  457MOL0     H61661   6.073   1.625   0.693 -0.7872  0.8359  0.8654
  457MOL0     H61662   6.237   1.578   0.734  0.7516  0.8396 -0.5284
  457MOL0     H61663   6.078   1.504   0.922 -0.7493  0.3837  1.7460
  457MOL0     H61664   6.189   1.621   0.972 -0.0497  0.0773  1.0830
  457MOL0     H61665   5.913   1.738   0.887 -0.2041  1.9004  1.3372
  457MOL0     H61666   6.040   1.797   0.984  0.1046 -0.4715 -1.5713
  457MOL0     H61667   5.911   1.533   1.070  0.7398  1.0160 -0.3320
  457MOL0     H61668   5.985   1.665   1.158  4.1591 -0.4508 -2.6680
  457MOL0     H61669   5.720   1.666   1.180 -0.6094  1.1693  0.3918
  457MOL0     H61670   5.720   1.685   1.005  0.1043  1.9959 -1.3662
  457MOL0     H61671   5.839   1.900   1.019 -0.7613 -4.2769 -2.4927
  457MOL0     H61672   5.685   1.902   1.112  0.6326  2.0826  1.6190
  457MOL0     H61673   5.949   1.856   1.250  1.9687  2.0896  0.3703
  457MOL0     H61674   5.782   1.854   1.325  2.0480 -0.8089  1.5849
  457MOL0     H61675   5.909   2.079   1.158 -0.6675  1.3149  0.4013
  457MOL0     H61676   5.931   2.070   1.339  2.6404 -2.7571 -1.2442
  457MOL0     H61677   6.468   1.739   0.769 -2.1469  0.6212  2.2980
  457MOL0     H61678   6.632   1.803   0.594  1.4196  2.3839 -0.4575
  457MOL0     H61679   6.839   1.945   0.354 -0.3997  2.6060  0.4883
  457MOL0     H61680   7.025   1.957   0.235 -2.3005  0.1982  0.2932
  457MOL0     H61681   7.866   3.118   0.800  0.5956 -0.8725  0.0415
  457MOL0     H61682   7.769   3.352   0.816 -2.6745  0.8679 -0.1874
  457MOL0     H61683   7.417   3.614   0.734 -0.3700  0.1579 -1.0895
  457MOL0     H61684   7.340   3.842   0.759 -1.7184 -1.4035 -0.2846
  457MOL0     H61685   7.355   4.027   0.873 -1.3566  0.0527 -0.1485
  457MOL0     H61686   7.187   4.077   0.823  0.4144 -0.1651 -0.8450
  457MOL0     H61687   7.348   4.229   0.974  2.7528 -4.0803 -0.9479
  457MOL0     H61688   7.311   4.130   1.100  1.2690  1.1506  0.6688
  457MOL0     H61689   7.056   4.204   0.971 -1.4144 -0.5681  0.8254
  457MOL0     H61690   7.159   4.348   0.982  1.1662  0.0025  1.9411
  457MOL0     H61691   7.079   4.174   1.222  2.2668  0.9682  2.1430
  457MOL0     H61692   7.002   4.328   1.178  0.2877 -0.2344  1.9214
  457MOL0     H61693   7.356   4.413   1.402 -1.4795  0.7616  0.3430
  457MOL0     H61694   7.192   3.768   1.154 -0.6981 -0.0375 -1.1580
  457MOL0     H61695   7.315   3.554   1.145  3.8519 -0.5067 -0.0389
  458MOL0     O61696   5.578   3.722   9.451 -0.0682 -0.5102  0.0369
  458MOL0     C61697   5.661   3.810   9.439 -0.1449  1.2323  0.0003
  458MOL0     O61698   5.788   3.789   9.383 -0.0608 -0.0359  0.3937
  458MOL0     C61699   5.849   3.670   9.336  0.3594  0.0414  0.2725
  458MOL0     C61700   5.811   3.540   9.362 -0.1085  0.9322 -0.2198
  458MOL0     C61701   5.897   3.432   9.337  0.1864 -0.0912 -0.6518
  458MOL0     C61702   6.020   3.455   9.268 -0.3912  0.5377 -0.2292
  458MOL0     O61703   6.104   3.348   9.258  0.4541 -0.4551 -0.8687
  458MOL0     C61704   6.184   3.337   9.377 -0.1640 -0.1976  0.5310
  458MOL0     C61705   6.333   3.356   9.341  0.8973 -0.5942 -0.3344
  458MOL0     C61706   6.397   3.251   9.243 -0.5863  0.0485 -0.5516
  458MOL0     C61707   6.437   3.117   9.317  0.1295 -0.1114  1.0549
  458MOL0     C61708   6.470   2.991   9.232  0.5450 -0.5773  0.9605
  458MOL0     C61709   6.355   2.927   9.154  0.3821 -0.2307  0.1502
  458MOL0     C61710   6.393   2.825   9.048  0.5591  0.2825 -0.2257
  458MOL0     C61711   6.427   2.686   9.103 -0.4055  0.1008 -0.6794
  458MOL0     N61712   6.322   2.619   9.178 -0.2392  0.1153  0.7892
  458MOL0     C61713   6.208   2.567   9.127  0.5801 -0.2884  0.1585
  458MOL0     C61714   6.129   2.531   9.226  0.5875 -0.2216 -0.1973
  458MOL0     C61715   5.992   2.475   9.197 -0.1066 -0.4718 -0.1376
  458MOL0     C61716   5.893   2.553   9.295  0.1198 -0.4950 -0.3791
  458MOL0     C61717   5.747   2.535   9.263  0.2268  0.7309  0.3014
  458MOL0     C61718   5.650   2.629   9.345  0.0657 -0.0891  0.3299
  458MOL0     O61719   5.665   2.766   9.301 -0.5821 -0.4477 -0.3025
  458MOL0     C61720   5.568   2.857   9.334 -0.9731  1.0058  0.0223
  458MOL0     C61721   5.588   2.990   9.291 -0.0321  0.0989 -0.6425
  458MOL0     C61722   5.494   3.092   9.321  0.0434  0.1767 -0.2182
  458MOL0     C61723   5.528   3.234   9.270  0.5019 -0.2638 -0.9085
  458MOL0     C61724   5.376   3.060   9.395 -0.3162  0.2735  0.2003
  458MOL0     C61725   5.287   3.170   9.438 -0.2281 -0.0060 -0.2885
  458MOL0     O61726   5.269   3.181   9.576 -0.7102 -0.4799 -0.0975
  458MOL0     C61727   5.186   3.280   9.615  0.4652 -0.4720  1.0034
  458MOL0     C61728   5.044   3.263   9.621 -0.6245 -0.5502 -0.5394
  458MOL0     C61729   4.970   3.380   9.665  0.0647 -0.4076 -0.0864
  458MOL0     C61730   5.025   3.512   9.684  0.1513  0.8676  0.1605
  458MOL0     O61731   4.936   3.609   9.704  0.7167 -0.4494  0.0031
  458MOL0     C61732   4.999   3.723   9.771 -0.5747  0.4934  0.3670
  458MOL0     C61733   4.883   3.830   9.784 -0.1421  0.4538 -0.2001
  458MOL0     C61734   4.938   3.972   9.792 -0.4189  0.5971  0.1972
  458MOL0     C61735   4.836   4.082   9.820 -0.3522  0.4168  0.2863
  458MOL0     C61736   4.751   4.061   9.955 -0.4894 -0.6264 -0.7367
  458MOL0     C61737   4.828   4.014  10.076 -0.0407 -0.3498  0.2718
  458MOL0     C61738   4.761   4.067  10.198  0.4801 -0.9566  0.1475
  458MOL0     C61739   4.805   3.967  10.306  0.0147 -0.0461 -0.0801
  458MOL0    Cl61740   4.743   4.055  10.451 -0.3927 -0.1622 -0.3699
  458MOL0     C61741   5.168   3.519   9.671  0.8240 -0.1207 -0.0077
  458MOL0     C61742   5.248   3.403   9.638 -1.2436 -0.1045 -0.9112
  458MOL0     O61743   5.228   3.229   9.351 -0.1579 -0.0714  1.1088
  458MOL0     C61744   5.358   2.928   9.441  0.7924 -0.0183  0.3332
  458MOL0     C61745   5.443   2.826   9.411  0.7013  0.0413  0.2568
  458MOL0     N61746   6.193   2.561   9.345 -0.0710  0.7107  0.1074
  458MOL0     N61747   6.303   2.616   9.317 -0.2869 -0.5562  0.1612
  458MOL0     C61748   6.050   3.587   9.226 -0.0005  0.1952 -0.1384
  458MOL0     C61749   5.965   3.687   9.265 -0.0608 -0.7493 -0.2156
  458MOL0     C61750   5.628   3.934   9.516 -0.3447  0.4320 -0.0884
  458MOL0     C61751   5.515   3.938   9.593  0.2902 -0.4755  1.2915
  458MOL0     C61752   5.478   4.055   9.652  0.2810  0.3559  0.6537
  458MOL0     C61753   5.539   4.178   9.624  0.4025  0.3019 -0.3703
  458MOL0     O61754   5.497   4.294   9.684 -0.4666  0.3746  0.1388
  458MOL0     C61755   5.387   4.298   9.776  0.1919 -0.9624 -0.6531
  458MOL0     C61756   5.392   4.424   9.857  0.0415 -0.0352  0.6283
  458MOL0     C61757   5.304   4.426   9.979 -0.4622  0.4191  0.0851
  458MOL0     C61758   5.161   4.417   9.958 -0.0619 -0.3555  0.6340
  458MOL0     C61759   5.104   4.500   9.847  0.2513  0.7241 -0.0402
  458MOL0     C61760   5.067   4.585   9.765 -0.7730  0.2696  0.7004
  458MOL0     C61761   5.650   4.174   9.538 -0.6806 -0.0718  0.0990
  458MOL0     C61762   5.699   4.055   9.483  0.2517 -0.4556  0.9044
  458MOL0     H61763   5.715   3.522   9.410 -0.3905 -4.2396 -2.0315
  458MOL0     H61764   5.872   3.332   9.372  0.6036 -1.9087 -4.9049
  458MOL0     H61765   6.151   3.409   9.453 -0.9065 -0.2295  0.2395
  458MOL0     H61766   6.177   3.234   9.414  3.8374 -0.9512 -0.2942
  458MOL0     H61767   6.357   3.454   9.299  3.6393 -0.6952  0.7639
  458MOL0     H61768   6.377   3.359   9.441  0.2594  1.3907 -0.0739
  458MOL0     H61769   6.335   3.232   9.155 -1.4726  1.0833 -0.1822
  458MOL0     H61770   6.488   3.287   9.195  0.0079  1.6713  1.6186
  458MOL0     H61771   6.525   3.140   9.378  0.0253 -1.3529  1.6939
  458MOL0     H61772   6.365   3.077   9.389  0.5710  0.5031  1.8540
  458MOL0     H61773   6.551   3.024   9.167  1.8543 -0.9952  2.3283
  458MOL0     H61774   6.507   2.918   9.305  0.5187 -2.1212 -0.5255
  458MOL0     H61775   6.285   2.877   9.222 -0.1991 -3.0237 -2.3157
  458MOL0     H61776   6.301   3.007   9.104 -0.6348  0.3073  2.0089
  458MOL0     H61777   6.312   2.823   8.975  0.2422 -0.2563  0.1286
  458MOL0     H61778   6.480   2.852   8.989  0.4406 -1.7163 -1.3933
  458MOL0     H61779   6.514   2.693   9.168  0.8039 -0.7236 -2.1469
  458MOL0     H61780   6.457   2.627   9.016 -2.2136 -2.5158  0.3300
  458MOL0     H61781   6.183   2.565   9.022  5.3715  4.7378 -1.5772
  458MOL0     H61782   5.969   2.500   9.093  0.2689  0.6271  0.0271
  458MOL0     H61783   5.988   2.368   9.219  0.8981 -0.9915 -2.2909
  458MOL0     H61784   5.924   2.657   9.277  0.8521 -0.2344  2.0609
  458MOL0     H61785   5.918   2.534   9.400 -4.8336  0.8622  1.3140
  458MOL0     H61786   5.708   2.433   9.276  1.2881  0.4033  1.0479
  458MOL0     H61787   5.726   2.552   9.157  2.0283 -0.3290 -0.2604
  458MOL0     H61788   5.681   2.621   9.450 -0.6597  0.4237  0.5943
  458MOL0     H61789   5.546   2.598   9.331  0.3135 -0.0877 -1.8772
  458MOL0     H61790   5.672   3.011   9.226 -0.2455  1.2693 -0.5581
  458MOL0     H61791   5.449   3.308   9.287  0.1510 -0.2129 -2.5679
  458MOL0     H61792   5.621   3.288   9.292 -0.7649  2.4956 -1.7640
  458MOL0     H61793   5.533   3.225   9.161  3.9144 -1.6640 -0.7826
  458MOL0     H61794   5.007   3.166   9.591 -2.3134  0.5658 -2.2753
  458MOL0     H61795   4.862   3.381   9.681  0.4076 -3.0369  3.7110
  458MOL0     H61796   5.032   3.707   9.874 -0.5212  0.3146  0.3225
  458MOL0     H61797   5.088   3.755   9.715  1.6144 -3.5935  1.0809
  458MOL0     H61798   4.821   3.827   9.694 -1.1949  2.3488  0.4039
  458MOL0     H61799   4.824   3.795   9.870 -0.3879 -1.3930 -1.0754
  458MOL0     H61800   4.989   3.993   9.697  1.7175  1.8422  1.5238
  458MOL0     H61801   5.021   3.970   9.863  1.5100 -0.4772 -1.9680
  458MOL0     H61802   4.887   4.178   9.825 -4.1154  2.5406  1.1410
  458MOL0     H61803   4.765   4.084   9.736  1.1662 -1.7884 -1.1727
  458MOL0     H61804   4.669   3.989   9.943  0.5531 -1.8611 -0.6187
  458MOL0     H61805   4.704   4.159   9.967  2.1887  0.5287  1.1954
  458MOL0     H61806   4.822   3.905  10.082  1.6594 -0.4606  0.2348
  458MOL0     H61807   4.933   4.043  10.077 -0.1244  0.0597 -0.6713
  458MOL0     H61808   4.653   4.072  10.185  0.8039  2.2559 -2.6924
  458MOL0     H61809   4.809   4.163  10.223  1.2354 -1.1515 -0.5290
  458MOL0     H61810   4.914   3.954  10.313 -0.2770 -2.1342  1.7625
  458MOL0     H61811   4.758   3.874  10.274  1.2684 -0.0263 -2.1658
  458MOL0     H61812   5.232   3.605   9.684  0.5951 -0.1591  1.5604
  458MOL0     H61813   5.356   3.409   9.627 -1.3253  0.1963 -1.6078
  458MOL0     H61814   5.262   2.905   9.487  0.5164  0.7449  0.1646
  458MOL0     H61815   5.430   2.726   9.450 -1.0456  0.5561  1.1110
  458MOL0     H61816   6.139   3.620   9.173 -0.9577  2.1484 -0.6378
  458MOL0     H61817   5.988   3.790   9.238 -1.4785 -0.5846 -0.8690
  458MOL0     H61818   5.472   3.841   9.617 -0.1672 -0.5994  0.0472
  458MOL0     H61819   5.389   4.062   9.715  1.4666  0.6114  2.3588
  458MOL0     H61820   5.294   4.285   9.720  0.4871 -0.7332 -1.2138
  458MOL0     H61821   5.391   4.211   9.841  3.2693  0.8272  1.8425
  458MOL0     H61822   5.384   4.509   9.789 -0.8617 -1.5440 -1.2464
  458MOL0     H61823   5.494   4.431   9.895 -0.4993  0.6770  1.9957
  458MOL0     H61824   5.330   4.519  10.029 -1.7894  0.4515  0.7686
  458MOL0     H61825   5.331   4.343  10.045  3.2903 -0.4459 -2.1996
  458MOL0     H61826   5.115   4.434  10.056  0.2151 -2.6545  1.2277
  458MOL0     H61827   5.120   4.319   9.931  0.0956  0.6504 -4.2518
  458MOL0     H61828   5.033   4.659   9.695 -3.1351  0.2235  1.7113
  458MOL0     H61829   5.703   4.249   9.482  0.1085 -1.3425 -0.9164
  458MOL0     H61830   5.784   4.039   9.417 -1.8434 -0.4487 -1.9780
  459MOL0     O61831   0.326   5.567   1.895 -0.0061 -0.4780  0.4104
  459MOL0     C61832   0.434   5.508   1.902  0.6982 -0.6676  0.2048
  459MOL0     O61833   0.439   5.370   1.881 -0.7198  0.7354  0.2018
  459MOL0     C61834   0.325   5.294   1.862  0.0803  0.9517 -0.3138
  459MOL0     C61835   0.333   5.197   1.766  0.7487  0.2632  0.3347
  459MOL0     C61836   0.222   5.123   1.725  0.5254  1.0006  0.3198
  459MOL0     C61837   0.100   5.138   1.797  0.3398  0.0120  0.7089
  459MOL0     O61838  -0.022   5.078   1.760  0.4270 -0.0190 -0.6289
  459MOL0     C61839  -0.015   4.949   1.701 -0.1660  0.5531 -0.1447
  459MOL0     C61840  -0.161   4.892   1.688  0.0481  0.7687  0.2993
  459MOL0     C61841  -0.265   4.992   1.626 -0.3296 -0.7825  0.0636
  459MOL0     C61842  -0.234   5.014   1.479 -0.1103 -0.4787  0.0340
  459MOL0     C61843  -0.354   5.078   1.399  0.7694  0.2020 -0.4366
  459MOL0     C61844  -0.426   5.195   1.476 -0.0470  0.0270 -0.0754
  459MOL0     C61845  -0.524   5.244   1.375 -0.4458 -0.7001 -0.4829
  459MOL0     C61846  -0.619   5.353   1.427  1.1417  0.1026  0.0204
  459MOL0     N61847  -0.667   5.448   1.322 -0.2732  0.5557  0.7815
  459MOL0     C61848  -0.750   5.421   1.218 -1.0319 -0.1741  0.7882
  459MOL0     C61849  -0.775   5.533   1.144  0.3248  0.0059  0.9807
  459MOL0     C61850  -0.847   5.528   1.012  0.4396 -0.0248  0.3628
  459MOL0     C61851  -0.911   5.664   0.985  1.4603 -0.1490  0.0666
  459MOL0     C61852  -1.043   5.684   1.063  0.4834  0.4349  0.2837
  459MOL0     C61853  -1.152   5.755   0.985  0.1007  0.4252 -0.3340
  459MOL0     O61854  -1.270   5.719   1.052 -0.1194 -0.0026 -0.2647
  459MOL0     C61855  -1.392   5.707   0.981  0.1958  0.2687 -0.7941
  459MOL0     C61856  -1.422   5.747   0.848  0.1797  0.2048  0.3825
  459MOL0     C61857  -1.550   5.737   0.785 -0.2964 -1.0238 -0.4868
  459MOL0     C61858  -1.548   5.775   0.642  1.3362 -0.0931  0.2233
  459MOL0     C61859  -1.656   5.693   0.867 -0.6749  0.3925  0.2717
  459MOL0     C61860  -1.794   5.669   0.821  0.1883  0.4078  0.9443
  459MOL0     O61861  -1.890   5.678   0.919  0.3118  0.0869  0.4763
  459MOL0     C61862  -2.026   5.652   0.894 -1.0015  0.1393 -0.9744
  459MOL0     C61863  -2.088   5.674   0.781  0.1214 -0.2492  0.7810
  459MOL0     C61864  -2.221   5.632   0.774  0.2714 -0.5840  0.1255
  459MOL0     C61865  -2.296   5.584   0.875 -0.3929  0.0907 -0.3658
  459MOL0     O61866  -2.425   5.534   0.852  0.6809 -0.4617  0.9760
  459MOL0     C61867  -2.480   5.436   0.940 -0.3164 -0.1698 -0.8959
  459MOL0     C61868  -2.609   5.385   0.891  0.2829  0.5924 -0.6369
  459MOL0     C61869  -2.686   5.295   0.995 -0.3803  0.3528  0.4805
  459MOL0     C61870  -2.810   5.252   0.911  0.8879 -0.0981  0.5703
  459MOL0     C61871  -2.909   5.158   0.995 -0.2305  0.5229 -0.0595
  459MOL0     C61872  -3.003   5.085   0.900 -0.0145 -0.4126 -0.0321
  459MOL0     C61873  -3.096   4.989   0.978  0.3363  0.1830 -1.2173
  459MOL0     C61874  -3.164   4.889   0.886 -0.1262 -0.6431  0.9024
  459MOL0    Cl61875  -3.229   4.740   0.986 -0.8243 -0.1425  0.0105
  459MOL0     C61876  -2.225   5.573   0.996  1.2394 -0.2668  0.5981
  459MOL0     C61877  -2.092   5.617   1.008  0.0521 -0.3517 -0.1995
  459MOL0     O61878  -1.819   5.651   0.700 -0.7268  0.9216  0.0287
  459MOL0     C61879  -1.628   5.662   1.000  0.4459  0.3028  0.9566
  459MOL0     C61880  -1.501   5.668   1.060  0.3946 -0.0278  0.1832
  459MOL0     N61881  -0.703   5.632   1.208 -0.1141  0.6072 -0.7215
  459MOL0     N61882  -0.638   5.580   1.311 -0.1907 -1.2189 -0.0022
  459MOL0     C61883   0.087   5.237   1.890 -0.3199  0.6071  0.2182
  459MOL0     C61884   0.203   5.308   1.922 -0.0577 -0.0666  0.4235
  459MOL0     C61885   0.567   5.582   1.911  0.2131  0.5625  1.1461
  459MOL0     C61886   0.578   5.709   1.977 -0.2371  0.4439 -0.2355
  459MOL0     C61887   0.709   5.763   1.999 -0.1769 -0.4652 -0.4723
  459MOL0     C61888   0.823   5.699   1.951  0.3734 -0.6461  0.1300
  459MOL0     O61889   0.940   5.772   1.950 -0.0649 -0.3066  0.0801
  459MOL0     C61890   1.070   5.717   1.912 -0.1781 -0.8028 -0.0797
  459MOL0     C61891   1.091   5.732   1.758  0.2520 -0.0165  0.1939
  459MOL0     C61892   1.223   5.660   1.707  0.8475  0.3272  0.1213
  459MOL0     C61893   1.288   5.762   1.615 -1.2807 -0.0375  0.4067
  459MOL0     C61894   1.420   5.723   1.569  1.3400  0.5389  0.4933
  459MOL0     C61895   1.528   5.705   1.510  0.2502 -0.3479 -0.1176
  459MOL0     C61896   0.804   5.581   1.876 -0.9863  0.2603  0.2551
  459MOL0     C61897   0.679   5.518   1.859  0.6382 -0.2747 -0.4867
  459MOL0     H61898   0.427   5.183   1.714  1.1185  1.9632  0.4825
  459MOL0     H61899   0.231   5.047   1.647  2.4665  1.4670  0.0495
  459MOL0     H61900   0.030   4.956   1.602  0.0180  1.0784 -0.0252
  459MOL0     H61901   0.035   4.873   1.761  1.3135  0.6501 -1.1990
  459MOL0     H61902  -0.151   4.798   1.633  0.7326  1.0169 -0.0083
  459MOL0     H61903  -0.200   4.870   1.788 -0.9058 -1.4480 -0.4969
  459MOL0     H61904  -0.367   4.952   1.635 -1.5874  2.3649  1.1717
  459MOL0     H61905  -0.255   5.091   1.672  0.4572 -0.9381  0.2475
  459MOL0     H61906  -0.153   5.084   1.457 -3.1069  2.3302 -3.2829
  459MOL0     H61907  -0.204   4.918   1.438  0.9861 -0.3715  0.5547
  459MOL0     H61908  -0.308   5.113   1.306 -0.1970 -1.4396 -1.5713
  459MOL0     H61909  -0.431   5.006   1.372 -0.0860  1.4032 -1.2518
  459MOL0     H61910  -0.465   5.150   1.568 -0.6548  0.3396 -0.1811
  459MOL0     H61911  -0.350   5.272   1.494 -1.0124  1.3273 -1.3708
  459MOL0     H61912  -0.472   5.287   1.289 -0.2387  2.6632  1.1229
  459MOL0     H61913  -0.585   5.164   1.333 -2.3968  1.6051 -2.4129
  459MOL0     H61914  -0.568   5.429   1.486 -1.5963  3.7736 -1.9249
  459MOL0     H61915  -0.707   5.321   1.484 -0.9828  1.0618 -2.5176
  459MOL0     H61916  -0.790   5.324   1.188  0.6883 -0.3376 -1.2016
  459MOL0     H61917  -0.772   5.521   0.932  0.1317 -1.9626  0.2048
  459MOL0     H61918  -0.924   5.453   0.994  0.3950  0.4406 -1.5805
  459MOL0     H61919  -0.924   5.676   0.877  2.4494  0.6374  0.0259
  459MOL0     H61920  -0.841   5.745   1.004  0.7239  0.4843  0.1283
  459MOL0     H61921  -1.030   5.733   1.160 -0.5991  1.6642 -0.1617
  459MOL0     H61922  -1.084   5.585   1.085 -1.6965  1.3053  0.3968
  459MOL0     H61923  -1.151   5.729   0.878 -1.2981 -2.5801  0.2910
  459MOL0     H61924  -1.145   5.864   0.995 -2.1481  0.4421  2.2326
  459MOL0     H61925  -1.336   5.781   0.792 -1.0266  1.3083 -0.8911
  459MOL0     H61926  -1.448   5.769   0.597  0.0659  3.1786 -3.6747
  459MOL0     H61927  -1.608   5.711   0.577  0.6328  2.5047 -1.8570
  459MOL0     H61928  -1.565   5.879   0.612 -0.6085 -0.1886  0.8565
  459MOL0     H61929  -2.046   5.708   0.687  0.9316 -0.3140  1.1117
  459MOL0     H61930  -2.273   5.646   0.680 -0.7066 -2.1198  0.3941
  459MOL0     H61931  -2.407   5.356   0.950 -1.7549 -1.2640  2.1878
  459MOL0     H61932  -2.503   5.477   1.039 -2.3872  0.0901 -1.4318
  459MOL0     H61933  -2.670   5.475   0.874 -1.5892 -0.5269 -0.1776
  459MOL0     H61934  -2.597   5.343   0.791  2.5430 -2.2691  0.7049
  459MOL0     H61935  -2.720   5.353   1.080  0.9545  3.9273 -1.2109
  459MOL0     H61936  -2.623   5.213   1.032  1.4469  0.4758 -2.0582
  459MOL0     H61937  -2.871   5.338   0.880  2.2099  1.6191  2.5199
  459MOL0     H61938  -2.781   5.203   0.818 -3.8862 -1.5991 -0.3877
  459MOL0     H61939  -2.969   5.222   1.060  0.3306  0.0369  0.9625
  459MOL0     H61940  -2.859   5.086   1.060  0.5970  0.5648 -0.6356
  459MOL0     H61941  -3.066   5.161   0.854 -3.2394 -0.5518  3.6562
  459MOL0     H61942  -2.946   5.023   0.830  3.3521  0.5115  1.6623
  459MOL0     H61943  -3.162   5.062   1.027  0.9463  0.2639 -0.4967
  459MOL0     H61944  -3.045   4.924   1.049 -2.5940 -1.2975 -0.3200
  459MOL0     H61945  -3.087   4.851   0.819  0.0814 -2.4927  2.1057
  459MOL0     H61946  -3.242   4.942   0.830  1.1586  2.0790  1.5044
  459MOL0     H61947  -2.285   5.539   1.080  0.6107 -2.9313 -0.8088
  459MOL0     H61948  -2.027   5.614   1.095 -0.6991 -1.6341  0.3561
  459MOL0     H61949  -1.699   5.627   1.075  1.0818 -1.4941  0.7817
  459MOL0     H61950  -1.473   5.652   1.164  0.0683 -0.0575  0.2677
  459MOL0     H61951  -0.006   5.256   1.941 -0.3484  1.6843 -0.2194
  459MOL0     H61952   0.185   5.380   2.001 -0.0948  0.5454 -0.1352
  459MOL0     H61953   0.488   5.757   2.014  0.0917 -0.5680  2.0707
  459MOL0     H61954   0.724   5.860   2.046 -0.1485 -0.2152 -0.9884
  459MOL0     H61955   1.150   5.770   1.963 -0.1444 -1.3298  0.4228
  459MOL0     H61956   1.085   5.614   1.946 -1.7734 -0.3179  2.2997
  459MOL0     H61957   1.099   5.837   1.728  2.2656 -0.7945 -2.3241
  459MOL0     H61958   1.004   5.677   1.720 -0.5616  0.1434  1.7563
  459MOL0     H61959   1.195   5.565   1.661  0.3184  0.6396 -0.2174
  459MOL0     H61960   1.284   5.632   1.793  2.2086  1.3846 -0.4758
  459MOL0     H61961   1.302   5.857   1.668  1.0804  0.1269 -0.4114
  459MOL0     H61962   1.221   5.789   1.532 -1.3996 -1.8451 -0.1159
  459MOL0     H61963   1.616   5.677   1.457  1.2265  0.1064  1.1895
  459MOL0     H61964   0.886   5.520   1.840 -1.7380 -1.1277  0.7888
  459MOL0     H61965   0.677   5.418   1.816  0.7745 -0.6191  0.2903
  460MOL0     O61966   8.163   8.383   9.073 -0.7639 -0.0274 -0.6794
  460MOL0     C61967   8.242   8.417   9.159  0.2303 -0.7359  0.2684
  460MOL0     O61968   8.199   8.457   9.289 -0.1296 -0.1855 -0.0215
  460MOL0     C61969   8.066   8.485   9.322 -0.7576  0.1801  0.4541
  460MOL0     C61970   8.024   8.456   9.449  0.2925 -0.0555 -0.1159
  460MOL0     C61971   7.899   8.484   9.487 -0.2192 -0.2716 -0.8631
  460MOL0     C61972   7.807   8.528   9.394 -0.3396  1.1270 -0.3266
  460MOL0     O61973   7.686   8.541   9.443  0.4390  0.1674 -0.8762
  460MOL0     C61974   7.586   8.579   9.349  0.5279 -0.3518  1.0612
  460MOL0     C61975   7.463   8.630   9.425  0.1282  0.5171  0.3971
  460MOL0     C61976   7.406   8.531   9.512 -0.3192  0.6993 -1.2796
  460MOL0     C61977   7.277   8.588   9.575  0.4613 -0.1844 -0.5865
  460MOL0     C61978   7.234   8.546   9.711  0.0550  0.5278  0.5079
  460MOL0     C61979   7.210   8.387   9.700 -0.1841 -0.6561  0.3210
  460MOL0     C61980   7.174   8.313   9.835  0.2828  0.1554  1.0675
  460MOL0     C61981   7.261   8.377   9.944  0.5906  0.0222 -0.1922
  460MOL0     N61982   7.231   8.307  10.067 -0.1534 -0.9005  0.5747
  460MOL0     C61983   7.280   8.180  10.111 -0.2668  0.4223  0.0999
  460MOL0     C61984   7.219   8.152  10.225 -0.4073  0.0870  0.5575
  460MOL0     C61985   7.244   8.032  10.315  0.0280  0.0991 -0.0239
  460MOL0     C61986   7.152   7.914  10.277 -0.2645  0.6831 -0.4917
  460MOL0     C61987   7.034   7.917  10.379  0.0074  0.2833  0.8831
  460MOL0     C61988   6.903   7.839  10.347 -0.4819 -0.1393  0.3280
  460MOL0     O61989   6.853   7.828  10.212 -1.3912  0.0454 -0.8147
  460MOL0     C61990   6.767   7.928  10.178 -0.1153 -0.1579 -0.4714
  460MOL0     C61991   6.822   8.056  10.151  0.5689 -0.3304 -0.5373
  460MOL0     C61992   6.752   8.160  10.101  1.5688 -0.2879  0.1342
  460MOL0     C61993   6.825   8.281  10.064  0.3045 -0.2827 -0.5071
  460MOL0     C61994   6.606   8.140  10.087 -0.6449 -0.2878 -0.1414
  460MOL0     C61995   6.498   8.245  10.053 -0.3678  0.4752  0.7960
  460MOL0     O61996   6.546   8.381  10.052  0.6529  0.2471 -0.8926
  460MOL0     C61997   6.493   8.465   9.959  0.2160  0.1567 -0.5636
  460MOL0     C61998   6.429   8.434   9.840  0.4444  0.1078  0.2993
  460MOL0     C61999   6.388   8.535   9.753 -0.5786 -0.3744 -0.4511
  460MOL0     C62000   6.426   8.672   9.775 -0.3465  0.2701  0.6318
  460MOL0     O62001   6.387   8.776   9.687  0.5991 -1.0170  0.5484
  460MOL0     C62002   6.292   8.758   9.580 -0.1684 -0.1873 -0.8909
  460MOL0     C62003   6.251   8.893   9.509  0.1129  1.1193  0.1372
  460MOL0     C62004   6.380   8.955   9.456 -0.1870 -0.0234  0.3384
  460MOL0     C62005   6.431   8.880   9.332  0.1773 -0.0204 -0.7347
  460MOL0     C62006   6.574   8.900   9.320 -0.3675  0.3512  1.5286
  460MOL0     C62007   6.623   8.874   9.172 -0.1179 -1.0307  0.1909
  460MOL0     C62008   6.776   8.892   9.142 -0.1590 -0.9549  0.5249
  460MOL0     C62009   6.814   8.857   9.006  0.3498 -0.8009 -0.0929
  460MOL0    Cl62010   6.827   8.681   9.008  0.0664 -0.0700  0.2634
  460MOL0     C62011   6.486   8.702   9.895  0.3067  0.4897 -0.2571
  460MOL0     C62012   6.519   8.604   9.986 -0.1834  0.3291  0.1257
  460MOL0     O62013   6.389   8.213  10.000 -0.2597  0.0433  0.3439
  460MOL0     C62014   6.548   8.009  10.112 -0.1245 -0.0103 -0.7432
  460MOL0     C62015   6.635   7.906  10.149  1.1266 -0.9062 -0.1774
  460MOL0     N62016   7.138   8.262  10.255  0.0453  0.2763  0.4379
  460MOL0     N62017   7.146   8.354  10.167  0.5485  0.7144  0.5427
  460MOL0     C62018   7.848   8.553   9.264  1.6941 -0.7051 -0.1957
  460MOL0     C62019   7.977   8.526   9.233  0.2124  0.3783  0.8816
  460MOL0     C62020   8.378   8.409   9.121 -0.9456 -0.5225  0.2046
  460MOL0     C62021   8.418   8.362   8.998  0.1835 -0.1276  0.4452
  460MOL0     C62022   8.552   8.336   8.960 -0.1268  1.1884  0.3321
  460MOL0     C62023   8.656   8.365   9.050 -0.3722  0.9437  0.5027
  460MOL0     O62024   8.790   8.337   9.016 -0.2086  0.3697 -0.3464
  460MOL0     C62025   8.833   8.449   8.941  0.7375 -0.0316  0.2361
  460MOL0     C62026   8.941   8.394   8.847 -0.3899  0.5139 -0.1499
  460MOL0     C62027   8.893   8.280   8.764 -0.6418  0.8316  0.6429
  460MOL0     C62028   8.952   8.236   8.620 -0.3331 -0.0153 -0.8682
  460MOL0     C62029   9.075   8.308   8.599 -0.4348  0.6088  1.6354
  460MOL0     C62030   9.173   8.371   8.567 -0.0725 -0.4542  1.5621
  460MOL0     C62031   8.627   8.419   9.173  0.6604 -0.2398 -0.1304
  460MOL0     C62032   8.488   8.439   9.207 -0.2953 -0.0376 -0.4393
  460MOL0     H62033   8.101   8.414   9.514  1.5251 -1.2750 -2.2393
  460MOL0     H62034   7.873   8.466   9.591 -0.4511  1.0723 -0.6619
  460MOL0     H62035   7.623   8.654   9.278  1.6386 -1.1971  0.7078
  460MOL0     H62036   7.552   8.491   9.294 -1.5381  1.8113 -1.4072
  460MOL0     H62037   7.482   8.724   9.478  1.2002  0.1751  0.6347
  460MOL0     H62038   7.380   8.641   9.354 -0.0930 -1.2444  0.3364
  460MOL0     H62039   7.372   8.438   9.464 -1.2709  0.1040  0.4571
  460MOL0     H62040   7.487   8.516   9.584 -1.5042  0.8650  0.1383
  460MOL0     H62041   7.278   8.697   9.587 -0.9244 -0.2151  0.0167
  460MOL0     H62042   7.200   8.566   9.501 -3.8055 -0.7147  3.5744
  460MOL0     H62043   7.310   8.575   9.784 -1.4247  0.8322  2.0085
  460MOL0     H62044   7.136   8.584   9.741 -2.0475 -2.0815 -2.4837
  460MOL0     H62045   7.143   8.366   9.616 -0.6042  2.1251 -0.1408
  460MOL0     H62046   7.309   8.347   9.677  1.4685  1.9450  2.4167
  460MOL0     H62047   7.068   8.328   9.857 -0.1394 -0.2122 -0.5560
  460MOL0     H62048   7.200   8.208   9.822  0.0294  0.1214  0.8070
  460MOL0     H62049   7.235   8.483   9.953  1.8002  0.4170 -1.0211
  460MOL0     H62050   7.366   8.376   9.913  0.3142  2.3153 -1.3848
  460MOL0     H62051   7.364   8.121  10.076  0.1905 -0.8003  2.9530
  460MOL0     H62052   7.351   8.008  10.322  0.3266  1.5963  1.2224
  460MOL0     H62053   7.218   8.072  10.413 -2.0102  0.4164 -0.6498
  460MOL0     H62054   7.192   7.815  10.300 -2.5009 -0.1012  0.3267
  460MOL0     H62055   7.115   7.916  10.175  0.3081  2.0826 -0.6934
  460MOL0     H62056   7.006   8.023  10.387 -2.2182 -0.1779 -0.1380
  460MOL0     H62057   7.067   7.895  10.481 -0.8075  0.1555  1.1311
  460MOL0     H62058   6.838   7.883  10.423  0.5502  1.1166  0.5123
  460MOL0     H62059   6.913   7.733  10.372  2.9679  0.7306  3.5190
  460MOL0     H62060   6.929   8.061  10.162  0.5239  1.4428 -0.6368
  460MOL0     H62061   6.833   8.346  10.153  3.1123  1.8820 -2.1514
  460MOL0     H62062   6.926   8.264  10.028  0.6074  2.3581 -1.1562
  460MOL0     H62063   6.771   8.337   9.987 -2.9932  2.2471  3.1698
  460MOL0     H62064   6.433   8.333   9.801  0.2694  0.6235 -1.1132
  460MOL0     H62065   6.331   8.498   9.669 -2.3363 -1.6646  1.2231
  460MOL0     H62066   6.325   8.690   9.501 -1.3399 -0.6451 -1.0034
  460MOL0     H62067   6.207   8.714   9.633  2.9616 -2.6185  2.6931
  460MOL0     H62068   6.186   8.870   9.425  2.2468 -2.1038 -0.7851
  460MOL0     H62069   6.205   8.962   9.581 -1.6103 -0.2549  0.4023
  460MOL0     H62070   6.461   8.960   9.529 -2.3001  3.1290  2.6854
  460MOL0     H62071   6.368   9.059   9.425 -4.7328 -0.6968 -0.8547
  460MOL0     H62072   6.416   8.772   9.323  0.8293 -0.2154  0.4195
  460MOL0     H62073   6.378   8.912   9.241  0.8888 -0.6170 -1.3687
  460MOL0     H62074   6.630   8.841   9.393 -0.0858 -1.0669  0.2196
  460MOL0     H62075   6.605   9.004   9.337  4.0272 -0.5074  0.1229
  460MOL0     H62076   6.593   8.774   9.139  0.1377 -0.8689 -0.5450
  460MOL0     H62077   6.573   8.943   9.103 -0.8449 -1.1550  0.5761
  460MOL0     H62078   6.847   8.855   9.218  0.6094  1.9910  1.3768
  460MOL0     H62079   6.797   8.999   9.146  1.0826 -1.0808 -1.3539
  460MOL0     H62080   6.914   8.900   8.991 -0.6880  1.4413 -1.1326
  460MOL0     H62081   6.745   8.883   8.925 -1.0808 -4.6514 -0.3175
  460MOL0     H62082   6.494   8.807   9.920 -1.9593  0.9196 -1.0871
  460MOL0     H62083   6.556   8.633  10.083  2.4591  1.2245 -1.0618
  460MOL0     H62084   6.443   7.991  10.093 -0.5500  0.2926  1.1807
  460MOL0     H62085   6.601   7.805  10.169  3.5947 -1.7785  0.0505
  460MOL0     H62086   7.781   8.580   9.183  1.2056  0.0332  0.4374
  460MOL0     H62087   8.004   8.536   9.129  0.2296 -3.1120  0.4111
  460MOL0     H62088   8.348   8.311   8.933  0.9925 -0.5257 -0.1429
  460MOL0     H62089   8.579   8.273   8.876 -0.6020  1.3580  0.0435
  460MOL0     H62090   8.758   8.500   8.879  1.4083 -0.9557 -1.4085
  460MOL0     H62091   8.875   8.526   9.006  3.4334 -1.6364  0.5349
  460MOL0     H62092   9.024   8.358   8.910 -1.6357 -0.7294  0.8363
  460MOL0     H62093   8.977   8.479   8.788 -0.3001 -0.0950 -0.9874
  460MOL0     H62094   8.786   8.293   8.745 -1.6971  1.5601  5.7465
  460MOL0     H62095   8.913   8.185   8.813 -3.2277 -1.8918 -2.9873
  460MOL0     H62096   8.884   8.247   8.535 -0.8252 -0.1476 -0.4959
  460MOL0     H62097   8.985   8.132   8.623 -1.0430 -0.3861  4.5349
  460MOL0     H62098   9.251   8.438   8.539 -2.0992  1.9871  1.4096
  460MOL0     H62099   8.704   8.432   9.248  0.9194 -3.4815  0.3100
  460MOL0     H62100   8.472   8.478   9.307 -0.5164  2.0752 -1.2445
  461MOL0     O62101   6.047  10.977   3.173  0.3597 -0.2399 -0.3625
  461MOL0     C62102   6.155  10.942   3.130 -0.1868  0.4065 -0.6702
  461MOL0     O62103   6.182  10.863   3.018  0.2783 -0.2985  0.1699
  461MOL0     C62104   6.073  10.821   2.942  0.7359  0.2710  0.4318
  461MOL0     C62105   5.963  10.748   2.996  0.3155  0.7371  0.2516
  461MOL0     C62106   5.851  10.708   2.916  1.1171  0.7511  0.6847
  461MOL0     C62107   5.850  10.731   2.780 -0.0087  0.4557  0.3749
  461MOL0     O62108   5.744  10.690   2.711 -0.0176  0.2608 -0.1368
  461MOL0     C62109   5.678  10.787   2.630  0.5954 -0.2363 -0.4654
  461MOL0     C62110   5.530  10.745   2.617  0.6488  0.1066  0.3126
  461MOL0     C62111   5.510  10.611   2.531 -0.6427 -0.1668 -0.5073
  461MOL0     C62112   5.545  10.622   2.383  0.1417 -0.3193  0.0230
  461MOL0     C62113   5.434  10.683   2.305  0.1999 -1.3461  0.2269
  461MOL0     C62114   5.475  10.716   2.158 -0.3374  0.7840  0.2225
  461MOL0     C62115   5.358  10.800   2.092 -0.4109  0.1160  1.0680
  461MOL0     C62116   5.389  10.852   1.957  0.9162 -0.1062  0.4949
  461MOL0     N62117   5.512  10.939   1.958 -0.4761  0.7895 -0.3411
  461MOL0     C62118   5.608  10.958   1.860 -0.9886  1.1229 -0.1467
  461MOL0     C62119   5.681  11.062   1.891 -0.1689 -0.8251 -0.0483
  461MOL0     C62120   5.785  11.128   1.800 -0.4028 -0.5341  0.4599
  461MOL0     C62121   5.923  11.078   1.847 -0.0412 -0.5259  0.0853
  461MOL0     C62122   6.058  11.131   1.775  0.6226 -0.1212 -0.5564
  461MOL0     C62123   6.060  11.095   1.623  0.1838 -0.0964 -0.0434
  461MOL0     O62124   6.179  11.154   1.571  0.9016 -0.5651 -0.9395
  461MOL0     C62125   6.208  11.120   1.443 -0.2059  0.6193  0.4041
  461MOL0     C62126   6.125  11.049   1.354  0.9198  1.6858  0.1205
  461MOL0     C62127   6.164  11.035   1.214 -0.6738  0.4183  0.2185
  461MOL0     C62128   6.085  10.956   1.115  0.8020 -0.6508 -0.0394
  461MOL0     C62129   6.288  11.092   1.154 -0.4704  0.9841 -0.2666
  461MOL0     C62130   6.336  11.073   1.009 -0.3272  0.0625  0.0394
  461MOL0     O62131   6.464  11.120   0.987  0.0616 -0.1290  0.1972
  461MOL0     C62132   6.545  11.097   0.872  0.5298  0.0540 -0.0296
  461MOL0     C62133   6.683  11.102   0.887 -0.8938 -0.3404  0.0427
  461MOL0     C62134   6.764  11.064   0.788 -0.5013  0.4612  1.0387
  461MOL0     C62135   6.715  11.022   0.664 -0.3665 -0.2484 -0.8042
  461MOL0     O62136   6.779  10.948   0.573 -0.7322  0.6110  0.3079
  461MOL0     C62137   6.917  10.916   0.601  0.2771 -0.2189  0.6704
  461MOL0     C62138   6.987  10.839   0.497  1.1461 -0.3292 -0.1905
  461MOL0     C62139   7.067  10.724   0.540  0.8578  0.1647 -0.5824
  461MOL0     C62140   7.110  10.649   0.423 -0.4523 -0.2544  0.4246
  461MOL0     C62141   7.173  10.524   0.465  0.7273 -0.1654  0.9519
  461MOL0     C62142   7.189  10.416   0.352  0.4345  0.0564  0.6468
  461MOL0     C62143   7.287  10.460   0.240 -0.1102  0.1525 -0.2855
  461MOL0     C62144   7.339  10.329   0.162  0.6407  0.5983  0.4092
  461MOL0    Cl62145   7.485  10.248   0.233 -0.2048  0.5656 -0.0329
  461MOL0     C62146   6.580  11.026   0.645 -0.0108  0.5743 -0.5017
  461MOL0     C62147   6.498  11.066   0.748  0.5482 -0.0975  0.3849
  461MOL0     O62148   6.271  11.010   0.928  0.0450  0.3783  0.4516
  461MOL0     C62149   6.361  11.156   1.252 -0.5675  0.0016 -0.1839
  461MOL0     C62150   6.317  11.176   1.385 -0.6913  0.6956 -0.3493
  461MOL0     N62151   5.610  11.131   1.989  0.2511  1.0322  0.1791
  461MOL0     N62152   5.521  11.044   2.038 -1.0078  0.3939  0.5860
  461MOL0     C62153   5.970  10.793   2.728  0.2321  0.9174 -0.1785
  461MOL0     C62154   6.076  10.838   2.804  0.8675 -0.7582  0.4876
  461MOL0     C62155   6.273  10.994   3.200  0.3872 -0.2326  0.7010
  461MOL0     C62156   6.399  11.005   3.142 -0.3457 -0.6556 -0.0119
  461MOL0     C62157   6.512  11.027   3.218 -0.1532  0.9646  0.4170
  461MOL0     C62158   6.497  11.049   3.354 -0.7823  0.7926  0.3129
  461MOL0     O62159   6.617  11.057   3.421  0.6865  0.0922 -0.6855
  461MOL0     C62160   6.620  11.044   3.563 -0.7853 -0.2491  0.2454
  461MOL0     C62161   6.599  10.904   3.619  0.0404 -0.1241  0.0697
  461MOL0     C62162   6.724  10.799   3.621 -0.1895 -0.9395 -0.1549
  461MOL0     C62163   6.764  10.765   3.482  0.1236  0.2348  0.1316
  461MOL0     C62164   6.846  10.648   3.469 -0.0253  0.7620  0.7753
  461MOL0     C62165   6.930  10.563   3.451  0.5806 -0.2705  0.1473
  461MOL0     C62166   6.373  11.062   3.410  0.0950 -0.1952  0.3851
  461MOL0     C62167   6.258  11.026   3.338  0.9980 -0.8461  0.1276
  461MOL0     H62168   5.953  10.726   3.102  0.7365 -2.6183 -0.2952
  461MOL0     H62169   5.758  10.676   2.962  1.6309 -1.3461  0.3699
  461MOL0     H62170   5.680  10.880   2.687  2.6483  1.1079 -2.5597
  461MOL0     H62171   5.728  10.792   2.533 -0.9094  1.2281 -1.2202
  461MOL0     H62172   5.494  10.719   2.717  1.8565 -0.6770  0.5653
  461MOL0     H62173   5.463  10.824   2.580  1.1685  0.3455 -0.1336
  461MOL0     H62174   5.554  10.522   2.576 -2.7535 -1.9862 -1.8372
  461MOL0     H62175   5.402  10.597   2.544 -0.4520 -0.8507  0.4179
  461MOL0     H62176   5.639  10.676   2.365  0.5125 -1.2780 -1.0432
  461MOL0     H62177   5.559  10.527   2.330 -1.8320 -0.2934 -0.6212
  461MOL0     H62178   5.344  10.620   2.308  0.3717 -1.5529  1.7591
  461MOL0     H62179   5.407  10.778   2.352  0.6777 -1.3946  0.6043
  461MOL0     H62180   5.566  10.776   2.153  2.2091 -2.6137  1.6260
  461MOL0     H62181   5.494  10.622   2.104  0.0007  1.3139 -0.5963
  461MOL0     H62182   5.272  10.736   2.068  0.4976 -1.3084  1.4473
  461MOL0     H62183   5.333  10.887   2.152 -0.8382  0.1426  0.8622
  461MOL0     H62184   5.306  10.920   1.935 -0.7102 -2.0183  0.4183
  461MOL0     H62185   5.387  10.784   1.871  0.9231  1.5039 -0.8323
  461MOL0     H62186   5.616  10.906   1.765  2.9116  3.3578 -1.2474
  461MOL0     H62187   5.750  11.102   1.700 -1.0377 -0.4970  0.6638
  461MOL0     H62188   5.774  11.236   1.811 -0.3822 -0.0837 -3.0580
  461MOL0     H62189   5.929  10.969   1.840 -1.1443 -0.5720 -0.3755
  461MOL0     H62190   5.923  11.108   1.953 -2.6259  0.4605 -0.1249
  461MOL0     H62191   6.152  11.104   1.825 -0.5063 -1.5701  0.9381
  461MOL0     H62192   6.061  11.240   1.779  2.0465 -0.1616  1.7236
  461MOL0     H62193   5.982  11.149   1.570  0.8285  2.3274  1.3075
  461MOL0     H62194   6.053  10.987   1.607  1.5836 -0.1849 -0.1840
  461MOL0     H62195   6.036  10.999   1.391  1.7588 -0.7097 -0.9325
  461MOL0     H62196   6.145  10.871   1.081 -0.1199 -1.5631  0.5798
  461MOL0     H62197   5.988  10.918   1.147  0.2073 -1.5816 -2.7137
  461MOL0     H62198   6.065  11.018   1.027 -0.2306  0.8270  1.1618
  461MOL0     H62199   6.713  11.119   0.990  0.4794 -1.9745 -0.0407
  461MOL0     H62200   6.871  11.063   0.806 -0.0131 -0.3265 -1.5006
  461MOL0     H62201   6.980  11.004   0.620  2.4960 -1.9280  1.6777
  461MOL0     H62202   6.913  10.855   0.691  1.4819  1.1957  1.7369
  461MOL0     H62203   6.918  10.808   0.418  0.3918 -2.6750  1.3030
  461MOL0     H62204   7.060  10.908   0.452  0.2209  1.0412  0.3219
  461MOL0     H62205   6.995  10.668   0.599  0.4845  0.3029 -0.9049
  461MOL0     H62206   7.158  10.751   0.595  0.1492  0.4140  0.4774
  461MOL0     H62207   7.040  10.629   0.341 -0.1920 -0.1261  0.1660
  461MOL0     H62208   7.185  10.707   0.369 -2.4101  0.8327 -1.2916
  461MOL0     H62209   7.110  10.477   0.541  0.0689  0.9478  1.1156
  461MOL0     H62210   7.269  10.549   0.511  0.4681  1.4269  0.6725
  461MOL0     H62211   7.232  10.324   0.394  1.3040  1.0567  2.0378
  461MOL0     H62212   7.092  10.404   0.305  0.2243  2.3192  0.3933
  461MOL0     H62213   7.373  10.520   0.269 -0.1529  0.3306 -0.5250
  461MOL0     H62214   7.222  10.515   0.171  0.2292  0.1541 -0.6055
  461MOL0     H62215   7.379  10.352   0.063 -0.3182 -2.7102 -0.8739
  461MOL0     H62216   7.260  10.255   0.149  1.0118  0.2828 -0.0657
  461MOL0     H62217   6.544  10.978   0.555 -3.0586 -1.2671  1.4694
  461MOL0     H62218   6.391  11.059   0.729  0.4914 -3.4501  1.3232
  461MOL0     H62219   6.458  11.199   1.227  0.7322 -2.5269  0.2333
  461MOL0     H62220   6.388  11.226   1.450  1.3775  1.7453 -3.2244
  461MOL0     H62221   5.975  10.810   2.621 -0.9624 -1.3259 -0.6392
  461MOL0     H62222   6.162  10.875   2.748  0.0537 -3.7399 -3.1494
  461MOL0     H62223   6.417  10.990   3.037 -1.3495 -1.8216 -0.0439
  461MOL0     H62224   6.616  11.029   3.186 -0.6764  0.5959 -1.4638
  461MOL0     H62225   6.724  11.072   3.584 -1.0224  1.8066 -0.9875
  461MOL0     H62226   6.554  11.116   3.611  0.2722  1.0693 -0.2060
  461MOL0     H62227   6.516  10.859   3.563  0.5660  1.3882 -2.0740
  461MOL0     H62228   6.569  10.921   3.722  0.0870 -2.2228  0.4692
  461MOL0     H62229   6.679  10.713   3.671  0.1703 -1.3043 -0.4624
  461MOL0     H62230   6.810  10.843   3.673  0.6315  1.6362 -3.3584
  461MOL0     H62231   6.827  10.846   3.443  3.1397 -2.9211 -2.2665
  461MOL0     H62232   6.679  10.744   3.417  0.1195 -1.8644  0.7628
  461MOL0     H62233   7.003  10.487   3.433  0.4849  0.1169 -2.0966
  461MOL0     H62234   6.366  11.099   3.512  0.8060  0.3131  0.2591
  461MOL0     H62235   6.164  11.018   3.392  0.7571 -2.3556 -0.4746
  462MOL0     O62236   1.244   1.483   8.858 -0.4219  0.7561 -0.0953
  462MOL0     C62237   1.292   1.374   8.824 -0.1913 -0.4772 -0.1698
  462MOL0     O62238   1.240   1.249   8.828 -0.1624  0.3258  0.2719
  462MOL0     C62239   1.115   1.236   8.865  0.3930  0.8351 -0.5877
  462MOL0     C62240   1.009   1.312   8.814  0.4384  0.2921  0.4052
  462MOL0     C62241   0.873   1.277   8.835  0.7316  0.8352  0.2867
  462MOL0     C62242   0.838   1.170   8.919 -0.0537  0.6066 -1.2266
  462MOL0     O62243   0.709   1.136   8.958 -0.8465 -0.0206 -0.8748
  462MOL0     C62244   0.615   1.214   8.900 -0.2123 -0.2896  0.9889
  462MOL0     C62245   0.487   1.199   8.984 -0.3126 -0.0847 -0.3541
  462MOL0     C62246   0.411   1.071   8.960  1.0710  0.0591  1.1651
  462MOL0     C62247   0.281   1.047   9.041  0.0074  0.0026 -0.2606
  462MOL0     C62248   0.292   0.984   9.176 -0.1555 -0.7080  0.6723
  462MOL0     C62249   0.169   1.018   9.254  0.6366 -0.0360  0.7320
  462MOL0     C62250   0.149   0.958   9.388 -0.1719  0.2627 -0.1237
  462MOL0     C62251   0.002   0.952   9.424 -0.0747  0.4548  0.0578
  462MOL0     N62252  -0.012   0.903   9.567  0.1393 -0.7439  0.3497
  462MOL0     C62253   0.051   0.793   9.617  0.7709  0.4403 -0.9892
  462MOL0     C62254   0.065   0.819   9.746  0.0186  0.2626 -1.2421
  462MOL0     C62255   0.114   0.716   9.841 -0.0768 -0.2305 -0.2375
  462MOL0     C62256   0.003   0.611   9.856 -0.1791 -0.8040  0.4806
  462MOL0     C62257   0.050   0.492   9.941  0.5147 -0.7320  0.3311
  462MOL0     C62258  -0.042   0.377   9.949  0.8654 -0.6505 -0.5002
  462MOL0     O62259  -0.140   0.407  10.050  0.3403  0.0137  0.7345
  462MOL0     C62260  -0.189   0.302  10.122  0.3969 -0.4000 -0.3823
  462MOL0     C62261  -0.273   0.200  10.061 -0.2546 -0.3481  0.0548
  462MOL0     C62262  -0.332   0.096  10.135  0.8865  0.4147 -0.2790
  462MOL0     C62263  -0.426   0.003  10.055 -0.9883  0.3495  0.3335
  462MOL0     C62264  -0.294   0.083  10.270  0.5406  0.8083 -0.1738
  462MOL0     C62265  -0.336  -0.033  10.353 -0.6663 -0.1281 -0.8298
  462MOL0     O62266  -0.279  -0.031  10.478 -0.7978  0.0741  0.1931
  462MOL0     C62267  -0.307  -0.131  10.564 -0.9379 -0.1661 -0.9635
  462MOL0     C62268  -0.438  -0.174  10.598  0.5069 -0.0139 -0.0759
  462MOL0     C62269  -0.455  -0.275  10.691  0.0811 -0.1291 -0.3298
  462MOL0     C62270  -0.353  -0.341  10.754 -0.8007 -0.6089  0.7572
  462MOL0     O62271  -0.402  -0.434  10.838 -0.6926  0.3552  0.0536
  462MOL0     C62272  -0.303  -0.530  10.887  0.1555 -0.0826 -0.4382
  462MOL0     C62273  -0.365  -0.634  10.981 -0.6251  0.3247 -1.0387
  462MOL0     C62274  -0.481  -0.584  11.067  0.3069 -0.4361 -0.5159
  462MOL0     C62275  -0.476  -0.629  11.208 -0.4918 -0.2794 -0.8354
  462MOL0     C62276  -0.498  -0.781  11.227 -1.0808  0.7384  0.0786
  462MOL0     C62277  -0.643  -0.810  11.267  0.0490 -0.3526 -0.5525
  462MOL0     C62278  -0.658  -0.965  11.239 -0.5936 -0.9104 -1.1727
  462MOL0     C62279  -0.748  -1.027  11.343  0.4136  0.0066 -0.6169
  462MOL0    Cl62280  -0.909  -0.945  11.337 -0.0452 -0.0430  0.0593
  462MOL0     C62281  -0.224  -0.293  10.735 -0.6078  0.3911  0.9142
  462MOL0     C62282  -0.204  -0.193  10.635  0.4945  0.2632 -1.0374
  462MOL0     O62283  -0.422  -0.107  10.311  0.0188  0.9548 -0.8179
  462MOL0     C62284  -0.198   0.177  10.324 -0.2165  0.8802  0.2441
  462MOL0     C62285  -0.156   0.289  10.259 -0.0626 -0.7561  0.1148
  462MOL0     N62286   0.025   0.947   9.772  0.9745 -0.7829 -0.4165
  462MOL0     N62287  -0.032   0.995   9.665 -0.1560  0.3060  0.2868
  462MOL0     C62288   0.946   1.098   8.970 -0.5402  0.5804  0.0347
  462MOL0     C62289   1.081   1.126   8.947 -0.4702 -0.1454 -0.5493
  462MOL0     C62290   1.436   1.378   8.782 -0.2869  0.4006  0.7433
  462MOL0     C62291   1.494   1.287   8.688  0.2145 -0.3679 -0.1186
  462MOL0     C62292   1.634   1.290   8.657 -0.1254 -0.1161  0.4033
  462MOL0     C62293   1.717   1.398   8.696  0.1403 -0.8011 -0.3783
  462MOL0     O62294   1.850   1.415   8.648  0.0659 -0.0140  0.3351
  462MOL0     C62295   1.947   1.511   8.703  0.1601 -0.3233 -0.0199
  462MOL0     C62296   2.084   1.500   8.648 -0.5063 -0.4644 -0.0113
  462MOL0     C62297   2.092   1.495   8.497 -0.5241  0.2145 -1.2867
  462MOL0     C62298   2.236   1.493   8.445  0.3373  0.0128 -0.2119
  462MOL0     C62299   2.233   1.512   8.296 -0.6193  0.3340 -0.2547
  462MOL0     C62300   2.246   1.540   8.180  0.1070 -0.2580  0.4874
  462MOL0     C62301   1.656   1.491   8.772 -0.0676 -0.3524  0.9362
  462MOL0     C62302   1.521   1.488   8.819 -0.5081 -0.1422 -0.0782
  462MOL0     H62303   1.035   1.387   8.740  0.9040 -1.6081 -1.4766
  462MOL0     H62304   0.806   1.334   8.771 -0.3090  1.0362  1.5170
  462MOL0     H62305   0.648   1.317   8.887  5.8078 -2.0464 -1.3173
  462MOL0     H62306   0.613   1.174   8.798  4.8409 -2.1851  1.3314
  462MOL0     H62307   0.512   1.205   9.090  2.0137 -2.0637 -0.6860
  462MOL0     H62308   0.417   1.278   8.953  4.8685  3.5503 -4.6399
  462MOL0     H62309   0.394   1.061   8.852 -1.3449 -0.2156  1.5212
  462MOL0     H62310   0.467   0.979   8.978 -2.3520 -2.0652  1.9441
  462MOL0     H62311   0.235   1.144   9.062  2.4313  0.7785  2.1019
  462MOL0     H62312   0.214   0.981   8.985  0.2243  1.6189 -2.5463
  462MOL0     H62313   0.292   0.875   9.168 -1.3531 -0.6200 -0.9364
  462MOL0     H62314   0.381   1.028   9.221 -0.6961  0.0562  1.0141
  462MOL0     H62315   0.146   1.122   9.279 -0.4730 -0.4795  1.6644
  462MOL0     H62316   0.077   0.988   9.203  0.5617  2.3362 -0.6884
  462MOL0     H62317   0.193   0.860   9.409  3.1529  2.0339  2.0940
  462MOL0     H62318   0.187   1.029   9.462 -1.0975 -1.2615  1.9159
  462MOL0     H62319  -0.042   0.881   9.353  0.0728  1.3457 -0.9657
  462MOL0     H62320  -0.058   1.044   9.415 -2.5272 -1.1832 -1.5613
  462MOL0     H62321   0.055   0.699   9.563  0.7668 -1.2233  1.6762
  462MOL0     H62322   0.211   0.678   9.809  0.1794  0.6219 -0.4940
  462MOL0     H62323   0.114   0.759   9.941 -2.9164  1.2945 -0.7837
  462MOL0     H62324  -0.019   0.579   9.754  0.1027  2.7852 -0.8725
  462MOL0     H62325  -0.090   0.645   9.904 -0.5832 -3.8878  2.1008
  462MOL0     H62326   0.070   0.529  10.042  0.5379  1.5297 -0.4373
  462MOL0     H62327   0.146   0.460   9.901  1.0272  1.5750 -0.4275
  462MOL0     H62328   0.017   0.286   9.967  1.8436  0.1046  0.2373
  462MOL0     H62329  -0.091   0.369   9.852 -0.4321  3.9535 -0.4384
  462MOL0     H62330  -0.283   0.195   9.953  1.6663 -1.6783 -0.1133
  462MOL0     H62331  -0.527   0.012  10.095 -1.1206 -0.1218  0.1094
  462MOL0     H62332  -0.416   0.015   9.947  2.9471 -5.9126 -0.5377
  462MOL0     H62333  -0.395  -0.102  10.064 -0.5062  0.6074  2.0412
  462MOL0     H62334  -0.514  -0.139  10.529  1.6322  1.9312 -0.4160
  462MOL0     H62335  -0.552  -0.323  10.699  0.0449  0.1919  1.6454
  462MOL0     H62336  -0.265  -0.598  10.811  0.6239  0.1987 -0.4625
  462MOL0     H62337  -0.219  -0.481  10.938  1.9440 -3.6878  0.3891
  462MOL0     H62338  -0.399  -0.714  10.914 -1.4546  0.6469 -1.0047
  462MOL0     H62339  -0.295  -0.688  11.046 -0.1798  2.2779  0.1787
  462MOL0     H62340  -0.574  -0.630  11.033 -1.5251  0.7294  2.5023
  462MOL0     H62341  -0.488  -0.475  11.057 -0.1762  0.0065  3.2328
  462MOL0     H62342  -0.374  -0.596  11.232 -0.8011  0.0275  0.1077
  462MOL0     H62343  -0.544  -0.590  11.284  1.6697 -2.6231  2.5358
  462MOL0     H62344  -0.436  -0.814  11.311  2.8329  1.9031 -2.0979
  462MOL0     H62345  -0.475  -0.839  11.137 -0.0659 -0.4540  1.0674
  462MOL0     H62346  -0.641  -0.779  11.372  0.3183 -0.8515 -0.4069
  462MOL0     H62347  -0.713  -0.752  11.207  0.2157  1.2506  0.7180
  462MOL0     H62348  -0.562  -1.017  11.234 -0.7068 -1.3315  0.4855
  462MOL0     H62349  -0.698  -0.979  11.139 -2.4586  0.1659 -0.6290
  462MOL0     H62350  -0.695  -1.037  11.438 -1.0663 -2.1230  0.0750
  462MOL0     H62351  -0.763  -1.131  11.313  2.6743 -1.1366  1.7783
  462MOL0     H62352  -0.143  -0.347  10.782 -1.0303  0.8341  2.1814
  462MOL0     H62353  -0.103  -0.153  10.629  0.5722 -0.0093 -1.6049
  462MOL0     H62354  -0.144   0.152  10.415  0.9733 -0.2182 -0.7141
  462MOL0     H62355  -0.107   0.372  10.309 -0.3248  2.4607 -4.3465
  462MOL0     H62356   0.923   1.010   9.030 -1.6704  2.0730  1.9287
  462MOL0     H62357   1.148   1.052   8.991  0.4468 -0.5046 -2.4420
  462MOL0     H62358   1.431   1.213   8.639  0.0321 -0.2607 -0.0494
  462MOL0     H62359   1.686   1.215   8.598 -3.1903 -3.1776  1.3228
  462MOL0     H62360   1.904   1.611   8.702 -3.3497 -1.7019  0.5216
  462MOL0     H62361   1.963   1.501   8.811 -1.2284 -0.3442  0.1995
  462MOL0     H62362   2.121   1.403   8.683 -0.7025 -0.2684  0.7609
  462MOL0     H62363   2.154   1.573   8.690  1.0772 -2.0884  0.3042
  462MOL0     H62364   2.041   1.581   8.452  0.6908  3.0896  2.2989
  462MOL0     H62365   2.047   1.401   8.463 -2.3211  0.2748  0.6956
  462MOL0     H62366   2.284   1.399   8.474  0.0885  0.6691  2.5551
  462MOL0     H62367   2.298   1.573   8.485  0.4134 -0.4132  0.5571
  462MOL0     H62368   2.279   1.566   8.081  2.1290  0.7086  1.3523
  462MOL0     H62369   1.717   1.576   8.796  1.7143 -1.5142  0.6817
  462MOL0     H62370   1.483   1.557   8.894 -1.6076 -0.8126  0.0085
  463MOL0     O62371  11.068   4.498   8.752  0.6078 -0.2164  0.2758
  463MOL0     C62372  11.078   4.378   8.728  0.5566 -0.4785  0.2331
  463MOL0     O62373  10.983   4.289   8.731 -0.0107 -0.4442 -0.3680
  463MOL0     C62374  10.854   4.322   8.773 -0.2754 -1.0715  0.8214
  463MOL0     C62375  10.790   4.453   8.748 -0.4045  0.2836  0.0446
  463MOL0     C62376  10.658   4.473   8.798  0.0382  0.1395  0.6756
  463MOL0     C62377  10.587   4.371   8.869  0.4784 -0.9054 -0.1117
  463MOL0     O62378  10.452   4.404   8.897  0.2285 -0.5837 -0.1033
  463MOL0     C62379  10.401   4.376   9.024  0.0988 -0.0261 -0.3901
  463MOL0     C62380  10.317   4.502   9.049 -0.7421  0.7926  0.1627
  463MOL0     C62381  10.243   4.478   9.185  0.0466  0.9053  0.5288
  463MOL0     C62382  10.109   4.563   9.182  0.3196 -0.1862  0.5182
  463MOL0     C62383  10.035   4.542   9.311 -0.4315 -0.7920  0.8459
  463MOL0     C62384   9.989   4.400   9.365  0.1243  0.0226  0.2991
  463MOL0     C62385   9.854   4.422   9.439 -1.1444 -0.2176 -0.3062
  463MOL0     C62386   9.800   4.279   9.476 -0.0535  0.8224  0.7193
  463MOL0     N62387   9.731   4.293   9.601  0.2194 -0.0124 -0.7061
  463MOL0     C62388   9.794   4.283   9.722  0.8400  0.1551  0.1008
  463MOL0     C62389   9.695   4.289   9.809  0.4835  0.4282  0.6128
  463MOL0     C62390   9.703   4.279   9.960 -0.3171 -0.3022 -1.4378
  463MOL0     C62391   9.779   4.402  10.009 -0.3190 -0.7316 -0.4164
  463MOL0     C62392   9.753   4.422  10.158 -1.1147  0.1218 -0.7710
  463MOL0     C62393   9.822   4.554  10.198 -0.0529 -0.6987  0.4585
  463MOL0     O62394   9.826   4.585  10.341 -0.2390  0.0528 -0.7736
  463MOL0     C62395   9.718   4.649  10.396  0.2312 -0.1053 -0.0361
  463MOL0     C62396   9.743   4.684  10.530  0.1881  0.4931  0.3422
  463MOL0     C62397   9.646   4.758  10.601  0.4473  0.3616 -0.7619
  463MOL0     C62398   9.681   4.787  10.743  0.5750  0.0356 -0.7263
  463MOL0     C62399   9.531   4.813  10.539  0.1437  0.3680  0.6927
  463MOL0     C62400   9.423   4.886  10.617 -0.0213 -0.3922  1.0181
  463MOL0     O62401   9.331   4.942  10.536 -0.5456 -0.1770 -0.8628
  463MOL0     C62402   9.205   4.983  10.583 -0.7999 -1.1079  0.4887
  463MOL0     C62403   9.090   4.922  10.534  0.1559  0.1299  0.2612
  463MOL0     C62404   8.963   4.949  10.582 -0.0856 -1.1887  0.3845
  463MOL0     C62405   8.951   5.063  10.672 -0.2917  0.1176  0.5404
  463MOL0     O62406   8.832   5.109  10.727 -0.0580 -0.4929 -0.5041
  463MOL0     C62407   8.708   5.058  10.666  0.2980  0.6285 -1.2706
  463MOL0     C62408   8.593   5.149  10.714 -0.4386  0.7175  0.7073
  463MOL0     C62409   8.453   5.124  10.660 -0.3066 -0.2394 -1.8392
  463MOL0     C62410   8.353   5.240  10.699  0.5207  0.1811 -1.2469
  463MOL0     C62411   8.208   5.223  10.647 -0.8892 -0.6888 -0.0194
  463MOL0     C62412   8.098   5.312  10.719  0.2444 -0.1122 -0.2321
  463MOL0     C62413   7.961   5.271  10.677  0.4736  0.2746 -0.9922
  463MOL0     C62414   7.853   5.374  10.721  0.1420  0.9275 -1.1091
  463MOL0    Cl62415   7.847   5.531  10.625  0.5043  0.7991 -0.0024
  463MOL0     C62416   9.067   5.132  10.714  0.8733  0.6539 -0.1864
  463MOL0     C62417   9.193   5.095  10.667  1.1264 -0.6083 -0.6394
  463MOL0     O62418   9.419   4.876  10.739  0.4037 -0.1379  0.1176
  463MOL0     C62419   9.510   4.787  10.408 -0.1828 -0.6638  0.0872
  463MOL0     C62420   9.597   4.705  10.337 -0.2357  0.2078  0.1991
  463MOL0     N62421   9.576   4.294   9.738  0.0166  0.0777  0.6155
  463MOL0     N62422   9.600   4.300   9.612  0.1664 -0.2246 -0.4860
  463MOL0     C62423  10.649   4.256   8.891  0.6498  0.8913 -0.1335
  463MOL0     C62424  10.780   4.230   8.848  0.1876  0.0711 -0.8477
  463MOL0     C62425  11.212   4.326   8.701 -0.0664 -0.5467  0.5460
  463MOL0     C62426  11.324   4.370   8.759 -0.0415 -0.2073 -0.7146
  463MOL0     C62427  11.454   4.322   8.731  0.5882 -0.0912  0.5333
  463MOL0     C62428  11.464   4.211   8.638 -0.1469 -0.2207  0.0692
  463MOL0     O62429  11.587   4.164   8.627  0.6069  0.0416 -0.2834
  463MOL0     C62430  11.640   4.188   8.495  0.5115 -0.0652 -0.3088
  463MOL0     C62431  11.780   4.123   8.497 -0.0725  0.2000  0.2143
  463MOL0     C62432  11.879   4.198   8.585  0.6137  0.4318  0.0059
  463MOL0     C62433  12.002   4.124   8.629 -0.5140  0.5655 -0.1647
  463MOL0     C62434  12.122   4.208   8.653 -0.2959 -0.3970 -0.8637
  463MOL0     C62435  12.226   4.278   8.671 -0.1801  1.1790  0.5113
  463MOL0     C62436  11.355   4.155   8.585  0.7261  0.3166  0.3860
  463MOL0     C62437  11.231   4.226   8.597  0.2078 -0.3627 -0.0995
  463MOL0     H62438  10.854   4.527   8.702  3.0311 -2.9133 -0.8388
  463MOL0     H62439  10.607   4.567   8.778 -0.1946 -0.1963 -0.3425
  463MOL0     H62440  10.337   4.287   9.020 -0.6060  0.5247 -2.8679
  463MOL0     H62441  10.478   4.365   9.100  1.2654 -0.5554 -1.6166
  463MOL0     H62442  10.380   4.592   9.058 -1.0786  0.9675  0.8527
  463MOL0     H62443  10.247   4.511   8.966  0.2032  1.3029 -0.6093
  463MOL0     H62444  10.205   4.376   9.201  0.6920  0.4620 -0.6249
  463MOL0     H62445  10.306   4.513   9.267 -0.4046  0.7391  0.9515
  463MOL0     H62446  10.134   4.668   9.168  1.2842 -0.7457 -3.0561
  463MOL0     H62447  10.043   4.547   9.096  0.1282  3.0078 -0.0466
  463MOL0     H62448  10.092   4.581   9.396 -1.2713  0.7493  0.7351
  463MOL0     H62449   9.945   4.604   9.303 -1.3111 -2.1190  0.0998
  463MOL0     H62450   9.965   4.339   9.278  3.1156  0.0651 -0.6995
  463MOL0     H62451  10.068   4.358   9.428  0.1983  2.0722  1.6797
  463MOL0     H62452   9.853   4.488   9.525 -2.0521 -0.5214 -0.0679
  463MOL0     H62453   9.785   4.464   9.364  0.0467 -0.5788 -1.6520
  463MOL0     H62454   9.874   4.201   9.499 -1.6027 -1.2546 -0.8775
  463MOL0     H62455   9.732   4.239   9.400  1.4368 -3.6091  1.3761
  463MOL0     H62456   9.896   4.269   9.756  0.9546  3.4654  1.4428
  463MOL0     H62457   9.608   4.272  10.013  0.8036 -1.6358  0.5678
  463MOL0     H62458   9.763   4.194   9.996 -1.6951 -0.5472  0.4377
  463MOL0     H62459   9.745   4.488   9.951  1.1712  0.9983  1.1614
  463MOL0     H62460   9.886   4.384   9.996 -0.5256 -1.8121 -0.7426
  463MOL0     H62461   9.801   4.338  10.208  0.5539  1.4246 -0.0983
  463MOL0     H62462   9.646   4.431  10.181 -1.8939 -5.8405 -0.5025
  463MOL0     H62463   9.789   4.645  10.147 -0.8651  0.1960  2.4987
  463MOL0     H62464   9.926   4.548  10.166 -0.6295 -0.7816 -1.5296
  463MOL0     H62465   9.842   4.671  10.573 -0.0880 -1.1603  0.5639
  463MOL0     H62466   9.618   4.727  10.810 -0.5873  1.1205 -0.8203
  463MOL0     H62467   9.784   4.766  10.772 -0.1322  0.6266  2.5627
  463MOL0     H62468   9.664   4.892  10.766 -0.7750 -0.6342  1.6780
  463MOL0     H62469   9.110   4.843  10.462  2.4210 -0.8671  1.8787
  463MOL0     H62470   8.875   4.897  10.548  1.6680 -1.3076 -4.8444
  463MOL0     H62471   8.716   5.061  10.557  1.6073  1.8711 -1.1685
  463MOL0     H62472   8.702   4.955  10.702  0.5898  0.4422 -1.7388
  463MOL0     H62473   8.592   5.148  10.823  1.9742  1.1008  0.8086
  463MOL0     H62474   8.624   5.249  10.683 -1.3946  0.7034 -0.3474
  463MOL0     H62475   8.419   5.022  10.682 -1.1962  0.6090  1.2935
  463MOL0     H62476   8.454   5.138  10.552  0.2880  1.6712 -1.6343
  463MOL0     H62477   8.347   5.234  10.808  2.1586 -0.2023 -1.1451
  463MOL0     H62478   8.386   5.338  10.665  1.7810 -0.8743 -3.2706
  463MOL0     H62479   8.173   5.120  10.658  0.3707 -1.5841 -3.2818
  463MOL0     H62480   8.206   5.235  10.539  0.2488 -3.2508 -0.4087
  463MOL0     H62481   8.111   5.292  10.826 -1.5394  2.2650  0.5252
  463MOL0     H62482   8.114   5.420  10.713 -2.7052  0.4110 -0.1123
  463MOL0     H62483   7.931   5.169  10.703  1.3664  0.1486 -0.3840
  463MOL0     H62484   7.961   5.277  10.567 -0.1187  0.7968 -0.9625
  463MOL0     H62485   7.847   5.383  10.830 -0.5886 -2.0288 -0.7973
  463MOL0     H62486   7.768   5.313  10.688  0.4338  0.1367 -0.4514
  463MOL0     H62487   9.052   5.212  10.786  1.0182  1.2300 -0.7853
  463MOL0     H62488   9.277   5.155  10.699  1.3085 -0.9191 -0.5331
  463MOL0     H62489   9.422   4.815  10.351  0.7536 -1.2092 -1.7147
  463MOL0     H62490   9.575   4.692  10.231 -3.0809 -2.2713  0.9433
  463MOL0     H62491  10.589   4.179   8.938  0.4006  1.0274 -0.2263
  463MOL0     H62492  10.827   4.133   8.862 -0.4999 -0.6749 -3.2913
  463MOL0     H62493  11.297   4.444   8.834 -2.7406 -1.3415 -0.4663
  463MOL0     H62494  11.551   4.355   8.768 -0.0319  1.0740  1.1764
  463MOL0     H62495  11.589   4.124   8.422 -0.2679  0.3283 -0.1128
  463MOL0     H62496  11.645   4.294   8.466  1.6581  1.2250  3.8609
  463MOL0     H62497  11.817   4.103   8.396  1.0023  0.2111  0.5983
  463MOL0     H62498  11.768   4.018   8.527  0.9587 -0.3781 -1.3006
  463MOL0     H62499  11.833   4.250   8.670 -1.6515 -0.3930 -0.6271
  463MOL0     H62500  11.914   4.275   8.516  1.8675 -0.7849 -0.7648
  463MOL0     H62501  12.029   4.046   8.556  0.1507  1.6533 -1.1092
  463MOL0     H62502  11.964   4.080   8.721  0.7916  1.6246  0.9123
  463MOL0     H62503  12.306   4.349   8.676  1.3917 -0.4023 -0.9259
  463MOL0     H62504  11.363   4.068   8.520 -1.7200  0.1997  0.1274
  463MOL0     H62505  11.146   4.206   8.533 -1.7062 -0.7576  2.4226
  464MOL0     O62506  10.819   2.315   1.778  0.8095  0.6721 -0.7283
  464MOL0     C62507  10.836   2.246   1.675  0.8174  0.3227 -0.6713
  464MOL0     O62508  10.956   2.209   1.618  0.2980 -0.2746  0.0718
  464MOL0     C62509  11.068   2.223   1.698 -0.5657  0.7036  0.0509
  464MOL0     C62510  11.083   2.205   1.839  0.1509  0.0916 -0.5189
  464MOL0     C62511  11.207   2.212   1.905  0.0611  0.8592 -0.5752
  464MOL0     C62512  11.326   2.222   1.836  0.4089  0.1603 -0.3444
  464MOL0     O62513  11.443   2.238   1.906 -0.7426 -0.7887  0.2191
  464MOL0     C62514  11.550   2.289   1.829 -0.5326  0.0273  1.0574
  464MOL0     C62515  11.662   2.335   1.924 -0.1372 -0.1861 -0.2698
  464MOL0     C62516  11.766   2.224   1.975 -0.5363  0.0396  0.0963
  464MOL0     C62517  11.704   2.096   2.012  0.0347  0.5361  0.2598
  464MOL0     C62518  11.802   2.008   2.084  0.5508 -0.8702  0.6175
  464MOL0     C62519  11.924   1.957   1.989  0.9103 -0.9173 -0.7536
  464MOL0     C62520  11.987   1.845   2.062 -0.1097  0.0274  1.6438
  464MOL0     C62521  12.120   1.815   1.988  0.8526 -0.5302 -0.1600
  464MOL0     N62522  12.178   1.691   2.050 -0.7221 -0.6547  0.6862
  464MOL0     C62523  12.153   1.559   2.017  0.3102 -0.1432  0.1630
  464MOL0     C62524  12.211   1.480   2.108 -0.5519  0.3719  0.0451
  464MOL0     C62525  12.215   1.326   2.109 -0.0112  0.3313 -0.1252
  464MOL0     C62526  12.164   1.251   2.230 -0.6548  0.7756 -0.1821
  464MOL0     C62527  12.286   1.202   2.319 -0.7317 -0.2608 -0.2560
  464MOL0     C62528  12.374   1.096   2.260  0.1586  0.6909 -0.5102
  464MOL0     O62529  12.473   1.062   2.364  0.3048  0.9409 -0.8201
  464MOL0     C62530  12.584   1.134   2.379 -0.4946 -0.4016  0.3270
  464MOL0     C62531  12.608   1.258   2.324  0.3484 -0.0321  0.2523
  464MOL0     C62532  12.728   1.326   2.355  0.3011  0.3043 -0.6738
  464MOL0     C62533  12.738   1.472   2.298  0.7238  0.5171  0.1469
  464MOL0     C62534  12.833   1.264   2.429 -0.2535  0.0227  0.0642
  464MOL0     C62535  12.970   1.326   2.454  0.9283  0.0360  0.0233
  464MOL0     O62536  13.059   1.270   2.544  0.3421  0.4839  0.2347
  464MOL0     C62537  13.174   1.327   2.572  0.4910 -0.0460 -0.5046
  464MOL0     C62538  13.172   1.452   2.642 -0.9195 -0.2565  0.7793
  464MOL0     C62539  13.297   1.509   2.675  0.6430  0.1028 -0.9622
  464MOL0     C62540  13.419   1.447   2.650 -0.3627 -0.7821  0.6398
  464MOL0     O62541  13.545   1.480   2.698 -0.1966 -0.9679  0.4345
  464MOL0     C62542  13.558   1.601   2.778 -0.2151  0.0373 -0.0346
  464MOL0     C62543  13.711   1.600   2.810 -0.6428  0.9104  0.0644
  464MOL0     C62544  13.809   1.625   2.698  0.2847 -0.7975 -0.9338
  464MOL0     C62545  13.773   1.744   2.605 -0.0524  0.0968 -0.6034
  464MOL0     C62546  13.895   1.774   2.521 -0.2391 -0.5877 -0.9384
  464MOL0     C62547  13.873   1.871   2.407  0.3818 -0.6463 -0.1866
  464MOL0     C62548  13.783   1.834   2.286  0.3865 -0.2811  0.9612
  464MOL0     C62549  13.748   1.956   2.198 -0.4094 -0.1268 -0.0976
  464MOL0    Cl62550  13.651   1.894   2.061 -0.2996  0.2977 -0.5261
  464MOL0     C62551  13.420   1.328   2.579  0.7653  0.7954  1.1594
  464MOL0     C62552  13.299   1.265   2.540  0.0426 -1.0186 -0.2527
  464MOL0     O62553  13.005   1.414   2.372 -0.1829 -0.3232 -0.5594
  464MOL0     C62554  12.803   1.135   2.483 -0.1547  0.2140 -0.4006
  464MOL0     C62555  12.685   1.069   2.454  0.1578  0.5316 -0.4131
  464MOL0     N62556  12.303   1.556   2.176 -0.8144  0.0453 -0.1641
  464MOL0     N62557  12.284   1.681   2.140  0.0205 -0.2362 -0.7971
  464MOL0     C62558  11.311   2.229   1.693 -1.4268  0.1083 -1.1312
  464MOL0     C62559  11.192   2.232   1.626 -0.1123 -0.1331  0.4210
  464MOL0     C62560  10.716   2.211   1.607 -0.1930 -0.0970  0.9234
  464MOL0     C62561  10.587   2.216   1.668 -0.2523 -0.4495  0.3035
  464MOL0     C62562  10.475   2.175   1.597  0.2272 -0.0652 -0.0562
  464MOL0     C62563  10.485   2.123   1.465  1.1959 -0.2738 -0.7546
  464MOL0     O62564  10.380   2.071   1.398 -0.8156  0.1556 -0.4686
  464MOL0     C62565  10.253   2.110   1.442 -0.3710 -0.6405  0.1119
  464MOL0     C62566  10.132   2.072   1.350 -0.0219  0.0562  0.0143
  464MOL0     C62567  10.169   2.123   1.214 -0.8372 -0.1209 -0.5085
  464MOL0     C62568  10.046   2.092   1.113 -0.3554 -0.0633  0.2839
  464MOL0     C62569   9.914   2.152   1.144  0.2831 -0.9138 -0.1796
  464MOL0     C62570   9.820   2.220   1.145 -0.0621 -1.3065  0.1904
  464MOL0     C62571  10.608   2.114   1.406 -0.2224  0.4331  0.5318
  464MOL0     C62572  10.720   2.155   1.477  0.1593  0.3287  0.9901
  464MOL0     H62573  10.994   2.179   1.895 -0.0503  0.9820 -0.4139
  464MOL0     H62574  11.221   2.211   2.013  1.8285  0.9982 -0.7719
  464MOL0     H62575  11.593   2.212   1.765  4.8083 -0.6323  4.7842
  464MOL0     H62576  11.527   2.367   1.756  1.8851 -1.2565 -1.2581
  464MOL0     H62577  11.722   2.407   1.869 -1.8925  1.7634  0.2435
  464MOL0     H62578  11.621   2.390   2.010 -2.1818  4.3461 -3.7255
  464MOL0     H62579  11.832   2.212   1.889 -0.5770  0.5633 -0.0158
  464MOL0     H62580  11.812   2.268   2.064 -0.6321 -0.2472  0.2885
  464MOL0     H62581  11.623   2.099   2.085 -0.9446 -1.7384 -0.6101
  464MOL0     H62582  11.659   2.045   1.926 -0.6980  1.8941 -0.1951
  464MOL0     H62583  11.834   2.056   2.177 -2.1423  0.1865  1.0861
  464MOL0     H62584  11.737   1.928   2.121 -0.2583 -0.1242  0.8500
  464MOL0     H62585  11.891   1.927   1.889  1.9539  2.9409 -2.4444
  464MOL0     H62586  11.990   2.043   1.973  0.6572 -0.4274  0.7084
  464MOL0     H62587  12.017   1.874   2.163  0.8294  1.2652  1.0482
  464MOL0     H62588  11.918   1.761   2.071  1.9415 -1.7784  1.4262
  464MOL0     H62589  12.170   1.906   2.021 -2.9456  1.5106  0.5263
  464MOL0     H62590  12.107   1.806   1.879  2.1139 -2.1231 -0.2154
  464MOL0     H62591  12.098   1.516   1.933 -0.9571 -1.2353  1.4947
  464MOL0     H62592  12.142   1.302   2.031 -2.1324 -1.6260  2.2631
  464MOL0     H62593  12.317   1.296   2.085  0.2131  1.8031 -1.1390
  464MOL0     H62594  12.099   1.168   2.204 -0.5056  1.1235 -1.7239
  464MOL0     H62595  12.118   1.312   2.309 -1.9437 -0.9686  0.4695
  464MOL0     H62596  12.233   1.162   2.406 -1.0829 -0.5672 -0.6067
  464MOL0     H62597  12.346   1.286   2.356 -0.6500 -0.9397  1.2155
  464MOL0     H62598  12.431   1.119   2.169  1.0790 -2.1894 -0.7446
  464MOL0     H62599  12.305   1.015   2.235  1.2951 -1.2102  2.0396
  464MOL0     H62600  12.539   1.312   2.260 -0.4006 -0.8113  0.3746
  464MOL0     H62601  12.796   1.468   2.206  1.2163  0.2140  0.4656
  464MOL0     H62602  12.647   1.530   2.281  0.6622  1.0916  2.1403
  464MOL0     H62603  12.794   1.538   2.366  0.4695  0.6757  0.2030
  464MOL0     H62604  13.081   1.504   2.669 -2.1304 -0.0072 -3.0844
  464MOL0     H62605  13.283   1.592   2.743 -0.6550 -0.7558 -0.1368
  464MOL0     H62606  13.527   1.695   2.732  0.0325  0.3856  0.5138
  464MOL0     H62607  13.514   1.590   2.877 -0.0294 -2.8083 -0.1859
  464MOL0     H62608  13.714   1.672   2.893 -1.1768 -1.2941  2.1323
  464MOL0     H62609  13.736   1.508   2.864 -1.3913  0.7854  0.2017
  464MOL0     H62610  13.827   1.529   2.649 -1.7682 -2.1201  0.7539
  464MOL0     H62611  13.906   1.645   2.745 -1.5536 -0.9700  3.3064
  464MOL0     H62612  13.695   1.709   2.538 -0.5472 -0.0721  0.0530
  464MOL0     H62613  13.757   1.836   2.662  6.1186  0.0814  2.0504
  464MOL0     H62614  13.930   1.684   2.471  1.3200 -0.7643  0.4006
  464MOL0     H62615  13.964   1.818   2.593 -2.8851  2.1937  0.1474
  464MOL0     H62616  13.833   1.963   2.451 -0.3479 -1.3573  0.6722
  464MOL0     H62617  13.971   1.887   2.361 -0.4999  0.7943 -1.6858
  464MOL0     H62618  13.685   1.801   2.322  0.2510 -0.2491  0.6294
  464MOL0     H62619  13.845   1.768   2.225 -1.4667  0.8229 -2.3685
  464MOL0     H62620  13.838   2.001   2.155 -0.4639 -0.2901 -0.3777
  464MOL0     H62621  13.699   2.032   2.260  2.1600  0.8629  0.8557
  464MOL0     H62622  13.515   1.275   2.579  0.1827 -0.3168  2.6728
  464MOL0     H62623  13.283   1.167   2.498  1.5956 -1.1151 -0.6850
  464MOL0     H62624  12.881   1.086   2.540 -0.0902 -2.3707 -2.5217
  464MOL0     H62625  12.653   0.975   2.498 -1.6500  0.3154 -2.0353
  464MOL0     H62626  11.405   2.243   1.642  0.3396 -1.9761  1.3010
  464MOL0     H62627  11.195   2.225   1.518  1.6798  0.0798  0.4324
  464MOL0     H62628  10.583   2.259   1.768  1.8828 -4.2974  2.3005
  464MOL0     H62629  10.388   2.199   1.657  1.2345  3.4092  0.2399
  464MOL0     H62630  10.227   2.070   1.541 -1.8933  0.7548  0.3067
  464MOL0     H62631  10.252   2.218   1.453  3.4539 -0.6083  2.0458
  464MOL0     H62632  10.047   2.128   1.389  0.7192  1.4864 -0.3751
  464MOL0     H62633  10.104   1.966   1.345 -0.0492  0.0042  1.1158
  464MOL0     H62634  10.256   2.072   1.171 -0.6531  1.3579 -2.0097
  464MOL0     H62635  10.200   2.228   1.205 -1.6504  0.0122 -1.9910
  464MOL0     H62636  10.046   1.983   1.114 -4.0277 -0.1687 -0.0464
  464MOL0     H62637  10.076   2.124   1.013  2.8507  0.0283  1.1525
  464MOL0     H62638   9.724   2.267   1.139 -0.7726 -2.8514 -1.7161
  464MOL0     H62639  10.617   2.054   1.316  1.1710  0.5840  0.5536
  464MOL0     H62640  10.816   2.145   1.429  0.6339  2.1523  1.4700
  465MOL0     O62641  10.555   0.059  10.849  0.1369 -0.5279  0.7875
  465MOL0     C62642  10.577   0.173  10.897  0.4854  0.1856  0.4890
  465MOL0     O62643  10.503   0.225  11.001 -1.0025  0.1037  0.1989
  465MOL0     C62644  10.412   0.150  11.076 -0.2696  0.0998  0.1293
  465MOL0     C62645  10.308   0.228  11.139 -0.4416  0.3410  0.1735
  465MOL0     C62646  10.213   0.161  11.221 -0.0563  0.1751 -0.4364
  465MOL0     C62647  10.220   0.025  11.235 -0.4845 -0.2602  0.7359
  465MOL0     O62648  10.117  -0.041  11.303 -0.2670  0.5384  0.4629
  465MOL0     C62649  10.145  -0.057  11.441  0.2754  0.8422  0.2394
  465MOL0     C62650  10.019  -0.127  11.501 -0.5173 -0.4838  0.1940
  465MOL0     C62651  10.017  -0.283  11.472  0.2174 -0.1664 -0.6835
  465MOL0     C62652   9.891  -0.345  11.534 -0.7300 -0.1572  0.1528
  465MOL0     C62653   9.886  -0.507  11.514 -0.2728  0.1398  0.2082
  465MOL0     C62654   9.793  -0.568  11.620  0.0378 -0.3339  0.2107
  465MOL0     C62655   9.765  -0.712  11.592 -0.1354 -0.4548 -0.6604
  465MOL0     C62656   9.665  -0.770  11.689 -0.1799  0.0073 -0.1929
  465MOL0     N62657   9.653  -0.914  11.657  0.0005  0.2190  0.7162
  465MOL0     C62658   9.585  -0.958  11.545  0.1306 -0.4430  0.3736
  465MOL0     C62659   9.569  -1.093  11.555 -0.5250 -0.3987 -0.1645
  465MOL0     C62660   9.486  -1.179  11.461 -0.0964  0.1194 -0.3382
  465MOL0     C62661   9.378  -1.104  11.386  0.1827 -0.2071  1.0646
  465MOL0     C62662   9.285  -1.189  11.297 -0.6824  0.1737 -0.2512
  465MOL0     C62663   9.214  -1.117  11.189 -1.2256  0.3492 -0.5355
  465MOL0     O62664   9.145  -1.005  11.245 -0.4017  0.3214 -0.3087
  465MOL0     C62665   9.057  -0.934  11.165 -0.0915 -0.1786 -0.3685
  465MOL0     C62666   9.038  -0.803  11.197 -0.3721 -0.3519  0.5413
  465MOL0     C62667   8.951  -0.718  11.124 -0.0910 -0.0973  0.4562
  465MOL0     C62668   8.938  -0.571  11.170  0.1723  0.0225 -0.3903
  465MOL0     C62669   8.889  -0.761  11.005 -0.0678 -0.4965 -0.5164
  465MOL0     C62670   8.802  -0.685  10.910  0.0426  0.2681 -0.6223
  465MOL0     O62671   8.745  -0.749  10.796 -0.1109  0.4647  0.2159
  465MOL0     C62672   8.698  -0.669  10.693  0.2038  0.5230 -0.4747
  465MOL0     C62673   8.584  -0.593  10.705  0.3504 -0.3844 -1.1282
  465MOL0     C62674   8.544  -0.515  10.600  0.3391 -0.0400  0.7329
  465MOL0     C62675   8.617  -0.503  10.478 -0.3989  0.4410 -1.0661
  465MOL0     O62676   8.580  -0.413  10.384  0.2805 -0.2026 -0.0845
  465MOL0     C62677   8.447  -0.363  10.374 -0.1061 -0.6488 -0.1524
  465MOL0     C62678   8.434  -0.293  10.232 -0.0506  0.2734  0.0253
  465MOL0     C62679   8.289  -0.255  10.189 -0.0724  0.6817  0.7785
  465MOL0     C62680   8.206  -0.389  10.169 -0.4306 -0.0900 -0.6466
  465MOL0     C62681   8.078  -0.369  10.102 -0.1379  0.4568  0.3615
  465MOL0     C62682   7.990  -0.492  10.092  1.0808 -0.6888  0.3287
  465MOL0     C62683   7.842  -0.455  10.042 -1.3665  0.0240 -1.0172
  465MOL0     C62684   7.744  -0.571  10.036 -0.2187  0.1223 -0.1199
  465MOL0    Cl62685   7.801  -0.699   9.936 -0.3415 -0.4023 -0.3049
  465MOL0     C62686   8.741  -0.564  10.470  0.5149 -0.1869  0.8011
  465MOL0     C62687   8.775  -0.648  10.577  1.2959  0.4270  0.3331
  465MOL0     O62688   8.775  -0.565  10.940 -0.0243 -0.4913  0.5603
  465MOL0     C62689   8.910  -0.898  10.969  0.4118  0.0856  0.8660
  465MOL0     C62690   8.992  -0.981  11.054 -0.8190 -0.2986 -0.3330
  465MOL0     N62691   9.638  -1.132  11.669  0.1472  0.8234 -0.0231
  465MOL0     N62692   9.679  -1.026  11.734  0.2412 -0.0985 -0.4997
  465MOL0     C62693  10.325  -0.049  11.182  0.2250  0.2984  0.0832
  465MOL0     C62694  10.416   0.008  11.095  0.0155 -0.5330 -1.0202
  465MOL0     C62695  10.658   0.263  10.818  0.7128  0.3462 -0.2534
  465MOL0     C62696  10.714   0.214  10.700  0.1982  0.4381  0.8420
  465MOL0     C62697  10.811   0.282  10.626 -0.1335 -0.6060  0.5886
  465MOL0     C62698  10.859   0.406  10.675  0.1028 -0.1162  0.5753
  465MOL0     O62699  10.956   0.491  10.626  0.2983 -0.1522  0.4876
  465MOL0     C62700  10.974   0.469  10.482  0.3114  0.5386 -0.1448
  465MOL0     C62701  11.089   0.549  10.415  0.2745  0.7960  0.3340
  465MOL0     C62702  11.066   0.569  10.265  0.1716  0.1298  0.0320
  465MOL0     C62703  11.130   0.700  10.197  0.2448  0.1695  0.4066
  465MOL0     C62704  11.277   0.707  10.209  0.8214 -0.1373  0.0840
  465MOL0     C62705  11.400   0.708  10.226  0.0068 -0.0206 -0.4536
  465MOL0     C62706  10.806   0.451  10.800 -0.8077 -0.7716  0.5381
  465MOL0     C62707  10.708   0.379  10.871  0.3069 -0.3057  0.5416
  465MOL0     H62708  10.299   0.335  11.125  1.1145  0.6035  0.9437
  465MOL0     H62709  10.124   0.211  11.259 -0.7653 -1.8952  0.7618
  465MOL0     H62710  10.230  -0.126  11.451 -2.2071 -3.0951 -2.5892
  465MOL0     H62711  10.178   0.038  11.483 -0.2629  0.4629  1.5818
  465MOL0     H62712  10.031  -0.124  11.610  1.3749 -3.9640  0.2090
  465MOL0     H62713   9.927  -0.073  11.477 -1.5202 -0.7344  3.0868
  465MOL0     H62714  10.021  -0.308  11.365  1.1674 -1.3074 -0.4028
  465MOL0     H62715  10.112  -0.324  11.507  2.4030  1.8088 -3.7469
  465MOL0     H62716   9.892  -0.321  11.641  1.1652 -2.0533  0.6262
  465MOL0     H62717   9.804  -0.303  11.482  0.0229  1.6452  0.2769
  465MOL0     H62718   9.870  -0.540  11.411 -0.8120 -0.4995  0.4955
  465MOL0     H62719   9.987  -0.542  11.537  0.4147  1.0863 -1.1941
  465MOL0     H62720   9.848  -0.563  11.714  1.3193  0.2521 -0.5514
  465MOL0     H62721   9.703  -0.508  11.637 -0.0904 -0.8815  1.5611
  465MOL0     H62722   9.716  -0.706  11.495  1.4367  1.3902 -1.4047
  465MOL0     H62723   9.857  -0.771  11.583 -0.4842 -1.0206 -0.5345
  465MOL0     H62724   9.571  -0.716  11.689  0.3997  1.1946  2.7850
  465MOL0     H62725   9.705  -0.759  11.790 -2.6294  1.5494  0.6890
  465MOL0     H62726   9.549  -0.906  11.457  1.4909 -0.0079  0.0456
  465MOL0     H62727   9.558  -1.215  11.387  1.2599  0.3992  0.7877
  465MOL0     H62728   9.446  -1.267  11.512 -0.7529  1.7606  2.1873
  465MOL0     H62729   9.423  -1.023  11.328  0.7085 -0.5812  0.9427
  465MOL0     H62730   9.310  -1.070  11.464  0.0790 -2.1100  1.8655
  465MOL0     H62731   9.218  -1.243  11.363 -1.2723  0.7191 -0.4012
  465MOL0     H62732   9.356  -1.257  11.247 -1.4324 -0.0246 -1.0841
  465MOL0     H62733   9.146  -1.190  11.143  1.2916 -0.9409 -2.4482
  465MOL0     H62734   9.292  -1.093  11.116  2.1383 -0.9159  2.3347
  465MOL0     H62735   9.094  -0.770  11.284  2.4145  0.1247 -1.2877
  465MOL0     H62736   8.834  -0.538  11.170  0.8097  2.2384  1.0987
  465MOL0     H62737   8.989  -0.565  11.267 -0.4241 -1.6171  0.0645
  465MOL0     H62738   8.996  -0.514  11.097  0.0244 -0.4434 -0.8782
  465MOL0     H62739   8.531  -0.590  10.800 -0.0079 -1.0053 -1.3084
  465MOL0     H62740   8.454  -0.454  10.599  0.4965  1.1047 -6.8276
  465MOL0     H62741   8.377  -0.447  10.371 -0.7526 -0.1144 -0.1730
  465MOL0     H62742   8.430  -0.287  10.451  0.7174 -1.1460  0.5470
  465MOL0     H62743   8.502  -0.210  10.255  1.1182 -0.8074  0.5739
  465MOL0     H62744   8.486  -0.353  10.158  0.9693 -0.1333  1.0390
  465MOL0     H62745   8.301  -0.200  10.095 -4.1300 -2.4890 -1.9423
  465MOL0     H62746   8.236  -0.182  10.251  1.8793  1.5496  1.4833
  465MOL0     H62747   8.264  -0.466  10.118 -0.7194 -2.3735  2.1805
  465MOL0     H62748   8.181  -0.426  10.269 -0.2535  0.1975 -0.4956
  465MOL0     H62749   8.085  -0.326  10.002  0.1720  1.9544  0.9989
  465MOL0     H62750   8.019  -0.312  10.174  0.3504 -3.5162  4.4043
  465MOL0     H62751   8.027  -0.556  10.010  0.2950 -0.2584 -0.3751
  465MOL0     H62752   7.981  -0.546  10.187 -0.9650 -2.1269 -0.6133
  465MOL0     H62753   7.857  -0.395   9.952  1.9596  4.4542  2.0266
  465MOL0     H62754   7.794  -0.380  10.104 -0.0924  2.8904 -3.2559
  465MOL0     H62755   7.650  -0.527  10.000 -0.1994  2.1144  2.0277
  465MOL0     H62756   7.714  -0.613  10.132 -0.0719 -0.9738 -0.5341
  465MOL0     H62757   8.800  -0.562  10.379 -0.6286 -3.7026 -0.1497
  465MOL0     H62758   8.865  -0.706  10.563 -0.0003 -1.3661 -1.0553
  465MOL0     H62759   8.856  -0.939  10.884 -0.3751  2.4817  0.1480
  465MOL0     H62760   8.985  -1.086  11.027 -0.9784 -1.0049  2.1529
  465MOL0     H62761  10.351  -0.153  11.201  2.2231  0.8484  0.5688
  465MOL0     H62762  10.498  -0.053  11.062  1.5458  1.2910 -0.7667
  465MOL0     H62763  10.681   0.116  10.668 -0.0346  0.9330 -0.5169
  465MOL0     H62764  10.835   0.240  10.529 -2.8009 -0.6294 -0.1373
  465MOL0     H62765  10.983   0.362  10.458  2.1667  0.3743  1.0411
  465MOL0     H62766  10.882   0.499  10.430 -0.7374 -0.0672  1.2910
  465MOL0     H62767  11.190   0.514  10.437  0.4707  0.7104 -0.6354
  465MOL0     H62768  11.089   0.648  10.461  2.9639  0.9747  0.1034
  465MOL0     H62769  10.960   0.565  10.238  0.4710 -0.4726 -1.1384
  465MOL0     H62770  11.097   0.483  10.204  1.0258 -1.4414  2.5474
  465MOL0     H62771  11.072   0.787  10.232 -0.7983 -0.3503  0.0023
  465MOL0     H62772  11.115   0.694  10.089 -0.1187  0.9152  0.4093
  465MOL0     H62773  11.505   0.696  10.241 -0.0299 -0.8247 -0.8025
  465MOL0     H62774  10.837   0.548  10.838 -2.4622  0.8013 -1.7919
  465MOL0     H62775  10.666   0.436  10.953  0.5755  2.1482 -0.9368
  466MOL0     O62776   5.198   1.403   7.584  0.1422 -0.4767  0.3407
  466MOL0     C62777   5.099   1.452   7.642  0.4184  0.4913 -0.0520
  466MOL0     O62778   4.997   1.382   7.685 -0.0468 -0.3760 -0.0825
  466MOL0     C62779   4.963   1.264   7.625 -1.2055 -0.2090 -0.2404
  466MOL0     C62780   4.828   1.254   7.591  0.7424  1.1231  0.3082
  466MOL0     C62781   4.769   1.132   7.544  0.7136 -0.0969 -0.5532
  466MOL0     C62782   4.847   1.018   7.538 -0.4600 -0.2405  0.4879
  466MOL0     O62783   4.777   0.907   7.503  0.6748 -0.4923 -0.2939
  466MOL0     C62784   4.837   0.788   7.442  0.0756  0.6205 -0.6784
  466MOL0     C62785   4.897   0.812   7.309  0.1945  0.8186  0.5553
  466MOL0     C62786   4.910   0.688   7.218  0.8960 -0.6484 -1.1342
  466MOL0     C62787   5.016   0.588   7.277  0.8326  0.3927 -0.1399
  466MOL0     C62788   5.055   0.477   7.187 -0.4454 -0.3511 -1.1413
  466MOL0     C62789   4.957   0.368   7.198 -0.1336  0.6071  0.5346
  466MOL0     C62790   4.998   0.253   7.104  0.4071 -0.3871 -0.0822
  466MOL0     C62791   4.906   0.126   7.109 -0.3657 -0.0870 -0.3938
  466MOL0     N62792   4.816   0.126   7.225 -0.8981 -0.3100 -0.9254
  466MOL0     C62793   4.689   0.164   7.237  0.6433 -0.0657 -0.1254
  466MOL0     C62794   4.627   0.098   7.332  0.2204 -0.3132  0.0401
  466MOL0     C62795   4.491   0.113   7.384  0.4288  0.6534 -0.8811
  466MOL0     C62796   4.436  -0.018   7.448 -0.6448  1.0648  0.0563
  466MOL0     C62797   4.319   0.029   7.536 -0.0184 -0.1556 -1.0803
  466MOL0     C62798   4.211  -0.075   7.545  0.1551  0.0961 -0.7608
  466MOL0     O62799   4.081  -0.016   7.573  0.2868  0.4616 -0.0295
  466MOL0     C62800   3.971  -0.094   7.620 -0.0258  0.7994  0.3906
  466MOL0     C62801   3.837  -0.077   7.569 -0.1917  0.0765 -0.5979
  466MOL0     C62802   3.730  -0.150   7.623 -0.9222  0.0616 -0.2594
  466MOL0     C62803   3.596  -0.103   7.579 -0.1347  0.7013 -0.1204
  466MOL0     C62804   3.751  -0.247   7.722  0.2073  0.6164 -1.0814
  466MOL0     C62805   3.643  -0.331   7.786 -1.0379  0.6683 -0.0995
  466MOL0     O62806   3.517  -0.288   7.790 -0.7202 -0.1974 -0.1939
  466MOL0     C62807   3.433  -0.365   7.861  0.2962 -0.4966 -0.0135
  466MOL0     C62808   3.331  -0.424   7.787 -0.8848 -0.1021 -0.0248
  466MOL0     C62809   3.231  -0.499   7.844 -0.0737 -0.0943 -0.8695
  466MOL0     C62810   3.219  -0.501   7.983  0.3715 -0.2346 -0.0253
  466MOL0     O62811   3.120  -0.566   8.051 -0.0791 -0.5748  0.2483
  466MOL0     C62812   2.990  -0.531   8.002 -0.0527 -0.6247  0.2411
  466MOL0     C62813   2.891  -0.607   8.096 -0.6456  0.6629 -0.2779
  466MOL0     C62814   2.763  -0.646   8.019  0.1460 -0.5099  0.7536
  466MOL0     C62815   2.675  -0.743   8.107 -0.2686  1.4804  0.1049
  466MOL0     C62816   2.568  -0.662   8.175 -0.2718  0.5624 -0.7216
  466MOL0     C62817   2.475  -0.754   8.258  0.6020 -0.2036  0.2133
  466MOL0     C62818   2.364  -0.674   8.331  0.4134  0.7032  0.8491
  466MOL0     C62819   2.331  -0.740   8.457 -0.0884  0.3947  0.3294
  466MOL0    Cl62820   2.234  -0.873   8.403  0.4500 -0.3005 -0.1538
  466MOL0     C62821   3.321  -0.446   8.063 -0.7144  1.0261  0.6399
  466MOL0     C62822   3.433  -0.373   8.000  0.5884  0.6995  0.8212
  466MOL0     O62823   3.678  -0.449   7.809  0.3635  0.2316  0.2615
  466MOL0     C62824   3.881  -0.272   7.763 -0.1761  0.4628 -0.4654
  466MOL0     C62825   3.995  -0.200   7.709  0.2683 -0.1430  0.0593
  466MOL0     N62826   4.725   0.032   7.393 -0.3141 -0.1772 -0.6745
  466MOL0     N62827   4.838   0.038   7.331  1.0719  0.2588  0.7532
  466MOL0     C62828   4.984   1.029   7.579 -0.2946  0.2367 -0.2941
  466MOL0     C62829   5.040   1.152   7.619 -0.4315  0.2430 -0.0139
  466MOL0     C62830   5.096   1.602   7.667 -0.0480 -0.1584 -0.7070
  466MOL0     C62831   4.981   1.676   7.702  0.5194 -0.1958 -0.2674
  466MOL0     C62832   4.994   1.817   7.724 -0.2524 -0.9957  0.3721
  466MOL0     C62833   5.117   1.877   7.714  0.0246 -0.3328  1.0934
  466MOL0     O62834   5.139   2.014   7.706  0.4830 -0.0430 -0.5637
  466MOL0     C62835   5.043   2.103   7.770  0.1011 -0.3189 -0.1563
  466MOL0     C62836   5.036   2.076   7.920 -0.2119  0.7367  0.3336
  466MOL0     C62837   4.988   2.210   7.982 -0.3396  0.3323  0.1472
  466MOL0     C62838   4.941   2.185   8.128 -0.6118  1.1170  0.2090
  466MOL0     C62839   4.819   2.107   8.150 -1.0078 -0.3799  0.3590
  466MOL0     C62840   4.711   2.041   8.152 -0.2911  0.0377 -0.1834
  466MOL0     C62841   5.233   1.804   7.689  0.2853  0.3443 -0.4102
  466MOL0     C62842   5.224   1.667   7.663  0.7902  0.4414 -0.4288
  466MOL0     H62843   4.753   1.333   7.594 -0.0251  0.6035 -2.4229
  466MOL0     H62844   4.664   1.135   7.517  1.0739  0.6824 -1.9878
  466MOL0     H62845   4.905   0.757   7.522 -0.4340  0.0537 -0.4601
  466MOL0     H62846   4.766   0.706   7.428  0.6591 -0.8700  3.6166
  466MOL0     H62847   4.829   0.881   7.258  1.8546  1.9188 -0.2703
  466MOL0     H62848   4.995   0.860   7.313  2.2970 -3.0768  0.3349
  466MOL0     H62849   4.809   0.647   7.212 -0.6918  1.9027  2.9890
  466MOL0     H62850   4.942   0.721   7.119  0.8074  0.9964 -0.6438
  466MOL0     H62851   5.096   0.662   7.292  0.6407  0.8915 -1.4394
  466MOL0     H62852   4.987   0.541   7.371 -0.4700  1.8939  0.2685
  466MOL0     H62853   5.069   0.511   7.084  2.5100 -3.0438 -1.7904
  466MOL0     H62854   5.151   0.432   7.217 -0.5131 -0.1522 -0.6250
  466MOL0     H62855   4.958   0.339   7.303  4.4789 -2.2307  0.0009
  466MOL0     H62856   4.855   0.396   7.169 -0.9157 -1.7256  0.8593
  466MOL0     H62857   5.010   0.296   7.004  2.6084  1.2038  0.7674
  466MOL0     H62858   5.098   0.219   7.133 -0.3778 -1.3969  1.5572
  466MOL0     H62859   4.964   0.034   7.095  0.9283  0.8884 -1.7595
  466MOL0     H62860   4.833   0.127   7.028 -0.8735 -0.0792  0.0647
  466MOL0     H62861   4.630   0.218   7.164 -0.1807 -0.7789  0.0013
  466MOL0     H62862   4.484   0.199   7.452  0.3077 -1.2840  1.7100
  466MOL0     H62863   4.415   0.131   7.307 -2.0651  0.1806  1.3059
  466MOL0     H62864   4.513  -0.073   7.502  1.0873  2.3707 -0.9680
  466MOL0     H62865   4.389  -0.074   7.367 -0.9994  2.1135 -0.4922
  466MOL0     H62866   4.279   0.124   7.498  2.1252  1.6202  0.8036
  466MOL0     H62867   4.357   0.055   7.635  3.2626 -0.6784 -2.0909
  466MOL0     H62868   4.241  -0.140   7.627  1.8601  2.0623  0.2772
  466MOL0     H62869   4.194  -0.135   7.455  0.1719  0.9846 -1.3718
  466MOL0     H62870   3.826   0.004   7.498  0.1157  0.5414 -0.1210
  466MOL0     H62871   3.543  -0.190   7.538 -0.4832 -0.1356  1.9994
  466MOL0     H62872   3.539  -0.064   7.663 -2.5307  0.6332 -1.6204
  466MOL0     H62873   3.610  -0.027   7.501 -1.0859  1.7084  0.6807
  466MOL0     H62874   3.319  -0.414   7.679  4.2109  0.1049 -0.7859
  466MOL0     H62875   3.147  -0.530   7.783 -1.4462  2.2331 -0.2795
  466MOL0     H62876   2.978  -0.423   8.016 -0.5363 -0.7932  1.2718
  466MOL0     H62877   2.985  -0.553   7.895  2.2838 -1.7452  0.3005
  466MOL0     H62878   2.946  -0.693   8.133 -1.2963  1.3868  2.6154
  466MOL0     H62879   2.873  -0.549   8.186  1.0264  1.9756 -0.7331
  466MOL0     H62880   2.801  -0.673   7.920  0.5557  1.4048  0.3468
  466MOL0     H62881   2.705  -0.554   8.010  1.1640  0.0273 -0.8114
  466MOL0     H62882   2.625  -0.824   8.054  0.9424 -1.6018  3.2932
  466MOL0     H62883   2.740  -0.786   8.184  1.2581  1.8815 -0.9139
  466MOL0     H62884   2.514  -0.617   8.092  1.4885  0.0639 -2.2173
  466MOL0     H62885   2.616  -0.588   8.241 -1.2400  1.9825 -1.5596
  466MOL0     H62886   2.427  -0.822   8.187  0.9223 -0.6256  0.3990
  466MOL0     H62887   2.528  -0.805   8.339  2.9331  0.3743 -0.8696
  466MOL0     H62888   2.278  -0.652   8.268 -0.5844  1.1010  2.2868
  466MOL0     H62889   2.397  -0.574   8.364 -2.7859  2.2655 -0.3085
  466MOL0     H62890   2.268  -0.675   8.518  0.5041  1.4452 -0.1569
  466MOL0     H62891   2.421  -0.768   8.512 -0.2965  1.3970  1.2083
  466MOL0     H62892   3.320  -0.459   8.171  2.2015 -0.6754  0.5444
  466MOL0     H62893   3.526  -0.345   8.049  1.1287 -0.5412  0.5475
  466MOL0     H62894   3.886  -0.348   7.840 -1.9671  1.4451  0.7259
  466MOL0     H62895   4.097  -0.221   7.737  1.7812  2.3732 -2.8782
  466MOL0     H62896   5.048   0.942   7.589 -1.7763 -0.9609 -0.7951
  466MOL0     H62897   5.142   1.151   7.658 -1.2979 -1.5196  2.4832
  466MOL0     H62898   4.885   1.628   7.715 -0.4679  1.9226  0.5929
  466MOL0     H62899   4.896   1.861   7.745 -1.3087 -3.3185  0.6643
  466MOL0     H62900   5.073   2.207   7.753 -0.9096  0.1841  0.8918
  466MOL0     H62901   4.949   2.077   7.720  0.8773 -2.9761 -0.3564
  466MOL0     H62902   5.138   2.055   7.953  0.4089  0.8019 -1.4282
  466MOL0     H62903   4.970   1.994   7.949  1.9417 -0.4422  2.2982
  466MOL0     H62904   4.900   2.249   7.932  0.4248  1.9514  0.0007
  466MOL0     H62905   5.072   2.280   7.984 -0.8539  0.9555  0.2833
  466MOL0     H62906   4.924   2.283   8.175 -0.4605 -0.9531  5.1959
  466MOL0     H62907   5.026   2.139   8.179 -0.6061  0.5835 -0.2722
  466MOL0     H62908   4.615   1.992   8.150 -2.6707  4.1717  1.1106
  466MOL0     H62909   5.330   1.852   7.698  0.4528 -0.1590  0.6673
  466MOL0     H62910   5.314   1.610   7.644  1.4322  0.7772  1.4601
  467MOL0     O62911   2.078   6.774   5.086 -0.4267 -0.1169 -0.0168
  467MOL0     C62912   2.017   6.856   5.019 -0.5027 -0.8093  1.1696
  467MOL0     O62913   1.894   6.914   5.050 -0.8897 -0.2351  0.2306
  467MOL0     C62914   1.824   6.869   5.164 -0.4012 -0.2519 -0.7984
  467MOL0     C62915   1.762   6.970   5.245 -0.1498  0.2835 -0.8721
  467MOL0     C62916   1.686   6.943   5.353  0.4293 -0.0467 -0.5403
  467MOL0     C62917   1.666   6.814   5.395 -0.5088  0.2831  0.4132
  467MOL0     O62918   1.584   6.773   5.495  0.5741  0.2820 -0.7364
  467MOL0     C62919   1.588   6.852   5.616  0.2499  0.1192  0.6448
  467MOL0     C62920   1.494   6.772   5.702 -1.1070  0.1659 -0.9003
  467MOL0     C62921   1.500   6.808   5.861  0.6827 -0.0738 -0.1297
  467MOL0     C62922   1.350   6.828   5.903  0.8380 -0.2991  0.4337
  467MOL0     C62923   1.335   6.855   6.056 -0.0059 -0.9901 -0.7261
  467MOL0     C62924   1.378   6.999   6.090  0.4769  0.5586 -0.1877
  467MOL0     C62925   1.364   7.039   6.234 -0.4668 -0.2663 -0.8108
  467MOL0     C62926   1.252   7.136   6.280 -0.1194 -0.3649  0.8306
  467MOL0     N62927   1.119   7.071   6.269 -0.3059 -0.1610  0.2475
  467MOL0     C62928   1.090   6.971   6.364 -0.0739  0.5435 -0.3338
  467MOL0     C62929   0.958   6.948   6.353  0.2286 -0.4674 -0.4910
  467MOL0     C62930   0.866   6.856   6.425 -0.2530  0.3063 -0.2816
  467MOL0     C62931   0.744   6.930   6.483 -0.3097 -0.9312 -0.6679
  467MOL0     C62932   0.645   6.830   6.548 -0.7221  0.0031 -0.4040
  467MOL0     C62933   0.542   6.906   6.631 -0.3076 -0.0186 -0.2287
  467MOL0     O62934   0.434   6.826   6.662  0.0001 -0.3295  0.8009
  467MOL0     C62935   0.331   6.830   6.581 -0.3594 -0.8321 -0.4975
  467MOL0     C62936   0.219   6.793   6.652  0.0191 -0.9915 -0.1874
  467MOL0     C62937   0.093   6.812   6.605 -0.5587 -0.3422  0.6764
  467MOL0     C62938  -0.021   6.772   6.690  0.1789  0.7041 -0.8422
  467MOL0     C62939   0.080   6.864   6.466 -0.8092  0.3562 -0.1880
  467MOL0     C62940  -0.049   6.855   6.391 -0.4146 -0.6659 -0.1871
  467MOL0     O62941  -0.076   6.979   6.335  0.6343  0.3281 -0.3798
  467MOL0     C62942  -0.157   6.964   6.231  1.1290  0.2595 -0.4927
  467MOL0     C62943  -0.297   6.952   6.268 -1.0633 -0.6686 -0.2456
  467MOL0     C62944  -0.392   6.934   6.166  0.9445 -1.0474 -0.7144
  467MOL0     C62945  -0.355   6.937   6.026  0.7965 -0.1220 -0.6167
  467MOL0     O62946  -0.445   6.942   5.918  0.0639 -0.4138 -0.1604
  467MOL0     C62947  -0.584   6.897   5.943 -0.3308 -0.9584  1.6064
  467MOL0     C62948  -0.644   6.885   5.808 -1.5480  0.1895 -0.0149
  467MOL0     C62949  -0.769   6.802   5.804 -0.1362 -0.1927  0.3134
  467MOL0     C62950  -0.816   6.759   5.662  0.6675  1.0782 -0.2605
  467MOL0     C62951  -0.710   6.656   5.608  0.2038 -0.0056  0.8099
  467MOL0     C62952  -0.732   6.622   5.463 -0.7252  0.8811 -0.3607
  467MOL0     C62953  -0.634   6.519   5.404 -0.8905 -0.4150  0.6007
  467MOL0     C62954  -0.632   6.390   5.487  0.4362 -1.1380  0.4612
  467MOL0    Cl62955  -0.609   6.256   5.370  0.3323 -0.6085 -0.0524
  467MOL0     C62956  -0.221   6.964   5.997  0.3820 -0.2700 -1.2587
  467MOL0     C62957  -0.129   6.986   6.098  0.0905 -1.0194 -0.6278
  467MOL0     O62958  -0.120   6.758   6.399 -0.8143 -0.5055  0.7691
  467MOL0     C62959   0.191   6.904   6.388 -0.8906 -1.0481 -0.1814
  467MOL0     C62960   0.325   6.892   6.449  0.3907  0.3751 -0.9220
  467MOL0     N62961   0.910   7.038   6.262 -0.1338  0.8102 -0.1674
  467MOL0     N62962   1.004   7.108   6.208 -0.3931  0.7145 -0.4469
  467MOL0     C62963   1.732   6.709   5.320 -0.2181  1.0432  0.4594
  467MOL0     C62964   1.813   6.742   5.204 -0.1392  0.6295 -0.4880
  467MOL0     C62965   2.088   6.914   4.904  0.2377 -0.1748  0.0055
  467MOL0     C62966   2.022   6.971   4.797  0.3344 -0.9678 -0.1262
  467MOL0     C62967   2.088   7.044   4.700  0.3844  0.6150  1.0543
  467MOL0     C62968   2.220   7.031   4.692 -0.0372  0.2777  0.0172
  467MOL0     O62969   2.280   7.084   4.577 -0.2741  0.0668 -0.1877
  467MOL0     C62970   2.284   6.995   4.469 -0.0261  0.2976 -0.4126
  467MOL0     C62971   2.308   7.076   4.343  0.1759 -0.4729  0.5497
  467MOL0     C62972   2.195   7.174   4.300 -0.8996  1.0943 -0.9276
  467MOL0     C62973   2.252   7.252   4.172  0.5555 -0.6525  0.4050
  467MOL0     C62974   2.251   7.167   4.058  0.4743 -0.2150  0.1764
  467MOL0     C62975   2.244   7.090   3.965 -0.1289 -0.2861  0.2053
  467MOL0     C62976   2.296   6.970   4.785  0.2335  0.1002  0.6019
  467MOL0     C62977   2.235   6.910   4.897  0.5986 -0.0805 -0.7239
  467MOL0     H62978   1.771   7.073   5.212 -1.8892  0.9505  0.5588
  467MOL0     H62979   1.636   7.021   5.410  0.7678 -0.3278  0.1536
  467MOL0     H62980   1.694   6.856   5.642  1.3641 -2.7916 -2.6174
  467MOL0     H62981   1.551   6.955   5.607  3.8538  1.5018  0.1466
  467MOL0     H62982   1.396   6.790   5.657 -1.0716  2.4118 -0.2452
  467MOL0     H62983   1.532   6.670   5.710  0.3360  0.7207  5.8390
  467MOL0     H62984   1.530   6.715   5.909 -0.3743 -0.8925 -1.0153
  467MOL0     H62985   1.557   6.900   5.879 -1.6570  1.0614  2.2161
  467MOL0     H62986   1.308   6.919   5.859 -0.3577  0.4457  2.9375
  467MOL0     H62987   1.299   6.733   5.883  1.7040 -1.2458  2.5238
  467MOL0     H62988   1.230   6.844   6.087 -0.0012  2.1622  0.7793
  467MOL0     H62989   1.395   6.788   6.119 -1.8478 -2.0261  0.0091
  467MOL0     H62990   1.484   7.010   6.065  0.1514 -2.4837 -3.6941
  467MOL0     H62991   1.334   7.075   6.024  2.6197  0.9329 -1.2658
  467MOL0     H62992   1.370   6.961   6.311  2.3565 -0.2579 -0.9045
  467MOL0     H62993   1.452   7.101   6.255 -0.6727 -0.4116  0.5335
  467MOL0     H62994   1.244   7.222   6.213 -3.8376 -1.0668  0.1622
  467MOL0     H62995   1.272   7.163   6.384  0.0610 -1.9544  1.2352
  467MOL0     H62996   1.145   6.919   6.442 -0.7330  3.6926  2.4164
  467MOL0     H62997   0.852   6.772   6.356  1.6738 -2.0475  2.0115
  467MOL0     H62998   0.924   6.814   6.507 -0.6911  0.1555 -0.0478
  467MOL0     H62999   0.712   6.990   6.398 -2.7362 -0.8291  0.2478
  467MOL0     H63000   0.778   6.999   6.561  0.3926 -0.5737 -1.2761
  467MOL0     H63001   0.701   6.757   6.607  2.4266  0.9813 -1.9449
  467MOL0     H63002   0.592   6.773   6.471 -0.7664 -0.0505 -0.3332
  467MOL0     H63003   0.511   7.000   6.586 -2.4289 -0.0396  1.0751
  467MOL0     H63004   0.593   6.912   6.728  2.2617  0.7527 -1.5332
  467MOL0     H63005   0.227   6.744   6.748  2.4201  0.6792  0.5742
  467MOL0     H63006  -0.002   6.749   6.795 -0.2648  1.8115 -0.5052
  467MOL0     H63007  -0.099   6.848   6.683  0.1380  1.0212  1.9160
  467MOL0     H63008  -0.064   6.680   6.651  0.9455 -0.1166  0.2057
  467MOL0     H63009  -0.323   6.935   6.373 -0.0783 -2.8678 -0.2973
  467MOL0     H63010  -0.497   6.936   6.197  1.5503  4.1672  2.2152
  467MOL0     H63011  -0.596   6.804   5.999 -1.0846 -0.4857  2.2422
  467MOL0     H63012  -0.636   6.972   6.002 -0.8444 -0.3221  0.3729
  467MOL0     H63013  -0.669   6.988   5.779 -0.5118  0.3376 -0.4135
  467MOL0     H63014  -0.567   6.842   5.743  0.1281  2.1063  0.6060
  467MOL0     H63015  -0.841   6.869   5.850  1.3143  1.7620 -0.1167
  467MOL0     H63016  -0.764   6.709   5.861  1.5884 -0.4190 -0.1437
  467MOL0     H63017  -0.909   6.703   5.669  0.4804  1.3377 -0.7083
  467MOL0     H63018  -0.836   6.843   5.596 -1.7268 -1.5091 -3.1440
  467MOL0     H63019  -0.718   6.571   5.675  0.9949  0.0158  0.9391
  467MOL0     H63020  -0.611   6.704   5.609  0.7934 -0.9484 -2.0588
  467MOL0     H63021  -0.833   6.583   5.452 -0.4258  0.0332 -0.1200
  467MOL0     H63022  -0.730   6.713   5.401  0.0038  1.5024  0.5432
  467MOL0     H63023  -0.538   6.568   5.384 -0.7455 -0.1259  1.9317
  467MOL0     H63024  -0.673   6.494   5.305  0.3675 -2.8397  0.6212
  467MOL0     H63025  -0.722   6.384   5.549  0.3582  0.9969  0.6090
  467MOL0     H63026  -0.546   6.408   5.551  1.2049  1.2047 -1.0973
  467MOL0     H63027  -0.182   6.981   5.897  4.3771 -0.0656  0.1300
  467MOL0     H63028  -0.028   7.015   6.073  0.7742  0.0590  2.8184
  467MOL0     H63029   0.200   6.925   6.282  1.7973 -4.0255 -0.7018
  467MOL0     H63030   0.407   6.928   6.389  0.3500 -0.5759 -1.5549
  467MOL0     H63031   1.719   6.606   5.352 -0.4635  1.2112  0.8945
  467MOL0     H63032   1.863   6.661   5.151  3.2177  1.6825  0.8368
  467MOL0     H63033   1.915   6.959   4.809  0.2019  1.6747  2.5174
  467MOL0     H63034   2.034   7.102   4.625 -2.5613  0.1223  2.6150
  467MOL0     H63035   2.358   6.915   4.465 -1.1406 -0.7066 -1.5509
  467MOL0     H63036   2.190   6.943   4.449  0.8631 -1.2505 -0.6639
  467MOL0     H63037   2.313   6.999   4.266 -3.6055  0.3951 -0.7371
  467MOL0     H63038   2.410   7.116   4.335  0.2102 -0.9127 -2.2967
  467MOL0     H63039   2.185   7.237   4.389  2.6586  1.3794 -0.6017
  467MOL0     H63040   2.106   7.113   4.283 -0.3336  0.3472 -1.2453
  467MOL0     H63041   2.357   7.277   4.194  0.2388 -1.2723  2.9546
  467MOL0     H63042   2.197   7.346   4.167 -1.6222 -1.6032  3.4871
  467MOL0     H63043   2.232   7.024   3.882 -1.7778 -0.6837  0.7290
  467MOL0     H63044   2.404   6.965   4.780  0.1360 -3.2797 -1.5219
  467MOL0     H63045   2.300   6.872   4.976 -1.7598 -1.2809  0.7517
  468MOL0     O63046   6.686   4.974  10.447 -0.4392 -0.1523  0.4832
  468MOL0     C63047   6.580   4.944  10.394  0.6412 -0.4791  0.1750
  468MOL0     O63048   6.552   4.850  10.293  0.6957 -0.1942  0.5277
  468MOL0     C63049   6.652   4.794  10.220  0.0915  0.0283 -0.0635
  468MOL0     C63050   6.733   4.882  10.145 -0.1399  0.3660 -0.2205
  468MOL0     C63051   6.853   4.826  10.087 -0.0557  0.5517 -0.8151
  468MOL0     C63052   6.867   4.678  10.092 -0.3608 -0.4826 -0.2870
  468MOL0     O63053   6.969   4.611  10.025 -0.5186  0.0671 -0.4018
  468MOL0     C63054   7.055   4.689   9.939  0.7211 -0.3753  0.1744
  468MOL0     C63055   7.175   4.617   9.878  0.0546 -0.5008 -0.2437
  468MOL0     C63056   7.302   4.621   9.957 -0.3275  0.6850  0.0837
  468MOL0     C63057   7.356   4.759   9.983  0.0332  0.4076 -0.9938
  468MOL0     C63058   7.498   4.763  10.022 -1.0423  0.4272 -0.6912
  468MOL0     C63059   7.514   4.759  10.175 -0.8357  0.7579  0.0693
  468MOL0     C63060   7.662   4.761  10.215  0.1082 -0.8703 -0.1902
  468MOL0     C63061   7.729   4.901  10.213  0.1088  0.0738 -0.0609
  468MOL0     N63062   7.854   4.891  10.277 -0.1846  1.1208  0.5046
  468MOL0     C63063   7.974   4.854  10.231  0.5777  0.2860 -0.4006
  468MOL0     C63064   8.060   4.848  10.338 -0.0042 -1.3850  0.6095
  468MOL0     C63065   8.207   4.804  10.332  0.5160 -0.2990  0.3677
  468MOL0     C63066   8.258   4.706  10.438 -1.1032 -0.4162  0.5061
  468MOL0     C63067   8.412   4.709  10.419 -0.4974  0.7864 -0.3717
  468MOL0     C63068   8.500   4.822  10.480 -0.9094 -1.3821 -0.0462
  468MOL0     O63069   8.640   4.806  10.448  0.4099 -0.6919  0.1979
  468MOL0     C63070   8.674   4.835  10.320 -0.1468 -0.8392 -0.6306
  468MOL0     C63071   8.807   4.800  10.289  0.5928  0.4627  0.2425
  468MOL0     C63072   8.851   4.812  10.165 -0.0855  0.3150  0.1698
  468MOL0     C63073   8.998   4.778  10.145 -0.8063  0.5525 -0.4709
  468MOL0     C63074   8.775   4.858  10.054  0.2099 -0.7308 -0.4962
  468MOL0     C63075   8.804   4.853   9.917 -0.7507  0.4556  0.5601
  468MOL0     O63076   8.727   4.940   9.831 -0.2053 -0.3967  0.2530
  468MOL0     C63077   8.759   4.959   9.699 -0.3417 -0.5804 -0.0897
  468MOL0     C63078   8.884   4.998   9.656  0.5475  0.6844 -0.4495
  468MOL0     C63079   8.905   5.016   9.518 -0.5793  0.5521 -0.1282
  468MOL0     C63080   8.804   5.000   9.425  0.4711  0.3929 -1.1552
  468MOL0     O63081   8.834   4.999   9.295  0.9958  0.4558 -0.4350
  468MOL0     C63082   8.730   5.034   9.204 -0.2518 -1.4146  0.5511
  468MOL0     C63083   8.786   5.064   9.061 -0.2750 -0.0639  0.9486
  468MOL0     C63084   8.871   5.188   9.033 -0.1989 -0.3708  0.5942
  468MOL0     C63085   8.906   5.202   8.886  0.0894 -0.9315  1.6862
  468MOL0     C63086   9.019   5.110   8.838 -0.5020 -0.1217 -0.5133
  468MOL0     C63087   9.046   5.127   8.686 -0.1655 -0.0230 -1.6018
  468MOL0     C63088   9.156   5.020   8.646  0.4054 -0.2415  0.3907
  468MOL0     C63089   9.156   4.992   8.503 -0.4860 -1.1251 -0.0170
  468MOL0    Cl63090   8.991   4.931   8.462 -0.2529  0.3761 -0.1900
  468MOL0     C63091   8.680   4.974   9.474  0.0325  0.3190 -0.1198
  468MOL0     C63092   8.659   4.951   9.612 -1.0259 -1.0452  0.6198
  468MOL0     O63093   8.883   4.763   9.876  0.0206 -0.1964 -0.3971
  468MOL0     C63094   8.648   4.904  10.082  0.0142  0.7966 -0.2286
  468MOL0     C63095   8.598   4.900  10.220  0.9603  0.2704  0.6569
  468MOL0     N63096   7.989   4.901  10.448 -0.5940 -0.2010  0.4189
  468MOL0     N63097   7.867   4.925  10.406  0.5021 -0.1871 -0.2041
  468MOL0     C63098   6.769   4.599  10.150 -0.9238  0.2171 -0.7461
  468MOL0     C63099   6.664   4.654  10.216 -1.0495 -0.3449 -0.4064
  468MOL0     C63100   6.463   4.985  10.463 -0.6558  0.1379  0.5073
  468MOL0     C63101   6.341   4.915  10.438  0.2201 -0.4345  0.3097
  468MOL0     C63102   6.222   4.963  10.510 -0.7060  0.3998  0.2250
  468MOL0     C63103   6.230   5.068  10.600  1.3340 -0.4642 -0.2131
  468MOL0     O63104   6.104   5.104  10.648  0.0084 -0.2091  0.6764
  468MOL0     C63105   6.077   5.228  10.707  1.0451 -0.3410 -0.6318
  468MOL0     C63106   6.032   5.340  10.607 -0.3644 -0.9713 -0.2492
  468MOL0     C63107   6.144   5.387  10.513 -0.3029 -0.6347  0.3980
  468MOL0     C63108   6.093   5.525  10.448 -0.6678  1.3981  0.8214
  468MOL0     C63109   6.203   5.598  10.380 -1.0067 -0.6062 -0.9987
  468MOL0     C63110   6.278   5.661  10.310 -0.7778 -0.3166 -0.6026
  468MOL0     C63111   6.348   5.130  10.624  0.4194 -0.2256 -0.7015
  468MOL0     C63112   6.464   5.096  10.552  0.1344  0.3633  0.0897
  468MOL0     H63113   6.715   4.989  10.153 -1.0882  0.1261  1.3387
  468MOL0     H63114   6.928   4.892  10.044  1.1665 -1.1456 -1.3704
  468MOL0     H63115   6.996   4.726   9.855  0.3735 -0.9274  0.1773
  468MOL0     H63116   7.094   4.773   9.997  0.5084 -1.1364  1.4472
  468MOL0     H63117   7.153   4.510   9.864  3.7745 -1.6145  1.0442
  468MOL0     H63118   7.206   4.654   9.780  1.7108 -2.0548 -0.3659
  468MOL0     H63119   7.291   4.562  10.049 -2.2099 -0.2412 -0.6851
  468MOL0     H63120   7.378   4.572   9.894 -1.3002 -1.2857  0.3534
  468MOL0     H63121   7.339   4.818   9.893 -2.1513  0.0675 -0.8637
  468MOL0     H63122   7.306   4.805  10.069 -1.0201 -2.9397  0.3756
  468MOL0     H63123   7.555   4.676   9.987 -1.1947  0.7262 -1.7281
  468MOL0     H63124   7.549   4.854   9.991  0.0908  0.5282  1.3350
  468MOL0     H63125   7.465   4.847  10.219 -0.7941  0.3295  1.0169
  468MOL0     H63126   7.465   4.667  10.209 -0.0607 -1.5685 -4.4504
  468MOL0     H63127   7.665   4.717  10.316 -0.7295 -2.5325 -0.8510
  468MOL0     H63128   7.719   4.693  10.151  0.1790  0.1041 -1.1881
  468MOL0     H63129   7.656   4.969  10.258 -2.3299 -1.2909 -1.7058
  468MOL0     H63130   7.745   4.934  10.110 -4.2971  1.7306 -0.4306
  468MOL0     H63131   7.995   4.824  10.129 -3.0729  0.7242 -1.4275
  468MOL0     H63132   8.207   4.743  10.241 -0.8172  1.3407 -0.8138
  468MOL0     H63133   8.268   4.895  10.326 -1.4532  1.0384 -0.6078
  468MOL0     H63134   8.241   4.600  10.416  1.7298 -0.3027 -3.3995
  468MOL0     H63135   8.236   4.731  10.542  0.4893  0.0967  0.7566
  468MOL0     H63136   8.442   4.683  10.317  0.9966 -2.1600  0.7111
  468MOL0     H63137   8.441   4.621  10.477  0.5439 -0.0096 -2.0107
  468MOL0     H63138   8.497   4.831  10.589 -1.5959 -1.3416 -0.0606
  468MOL0     H63139   8.458   4.912  10.433  1.1899  0.2083  0.9562
  468MOL0     H63140   8.861   4.737  10.358 -1.3156 -0.5618  0.8850
  468MOL0     H63141   9.034   4.815  10.049  0.9341 -0.0035 -0.0591
  468MOL0     H63142   9.064   4.834  10.211  0.2686  1.1549 -1.9985
  468MOL0     H63143   9.010   4.671  10.165 -1.5630  0.3353 -1.1292
  468MOL0     H63144   8.962   5.019   9.729 -1.3115 -0.3843  1.9967
  468MOL0     H63145   9.007   5.046   9.500  0.3454 -1.8650  0.6463
  468MOL0     H63146   8.653   4.957   9.205 -0.4079 -1.5366 -3.7099
  468MOL0     H63147   8.686   5.126   9.243  1.6910 -1.5955  3.5557
  468MOL0     H63148   8.843   4.974   9.037  0.6933  1.4465 -3.2875
  468MOL0     H63149   8.698   5.060   8.996  0.1199 -3.9437  0.4113
  468MOL0     H63150   8.961   5.187   9.095  1.8551 -1.7627 -2.2109
  468MOL0     H63151   8.806   5.275   9.046  0.8463  0.5494 -0.1778
  468MOL0     H63152   8.825   5.177   8.817  3.2605  1.4584 -3.4817
  468MOL0     H63153   8.915   5.305   8.849 -1.9825 -2.0220 -2.4607
  468MOL0     H63154   8.985   5.008   8.855 -1.3171  0.0683 -0.9665
  468MOL0     H63155   9.110   5.128   8.896 -0.0982 -0.3683 -1.0605
  468MOL0     H63156   8.947   5.112   8.642 -1.3284  1.5837  0.2712
  468MOL0     H63157   9.080   5.228   8.662  1.6632 -0.1147  0.3004
  468MOL0     H63158   9.147   4.927   8.702  2.0353  0.0309  1.1762
  468MOL0     H63159   9.256   5.059   8.668 -0.2646  2.6391 -1.1662
  468MOL0     H63160   9.235   4.919   8.485  0.1436 -0.0483 -1.9048
  468MOL0     H63161   9.174   5.085   8.449  2.2178 -1.3566  0.3716
  468MOL0     H63162   8.592   4.954   9.414  0.7490  1.4854 -1.6197
  468MOL0     H63163   8.556   4.931   9.640 -1.2424 -0.4621  0.2468
  468MOL0     H63164   8.582   4.939  10.004  0.5281  3.4957  0.4422
  468MOL0     H63165   8.498   4.941  10.229 -0.1800 -1.7332 -1.4729
  468MOL0     H63166   6.767   4.491  10.140 -0.1689  0.3208 -2.2820
  468MOL0     H63167   6.587   4.594  10.263 -0.8057 -1.3320 -1.2559
  468MOL0     H63168   6.337   4.818  10.390 -0.6033 -0.7021  0.8894
  468MOL0     H63169   6.130   4.910  10.487  0.5265 -0.4422 -3.3363
  468MOL0     H63170   5.993   5.200  10.772  1.6618  2.8412  1.7468
  468MOL0     H63171   6.156   5.278  10.764  0.1194  1.3638 -0.7847
  468MOL0     H63172   5.985   5.423  10.661  0.0898 -1.5152  1.0433
  468MOL0     H63173   5.944   5.313  10.548 -1.0660  0.2850  0.1938
  468MOL0     H63174   6.171   5.313  10.437  1.9535  0.2766  0.2219
  468MOL0     H63175   6.232   5.409  10.575 -1.1993  2.1418  0.8415
  468MOL0     H63176   6.048   5.590  10.524 -2.8238  2.3817 -1.1374
  468MOL0     H63177   6.016   5.504  10.373 -0.9767  1.4897  1.1117
  468MOL0     H63178   6.358   5.707  10.255  0.6994 -2.1367 -0.1061
  468MOL0     H63179   6.360   5.207  10.699  0.7626 -1.3540  0.4414
  468MOL0     H63180   6.554   5.138  10.596  1.6424 -0.2028 -2.3021
  469MOL0     O63181   4.053   0.913   7.117 -0.1519 -0.2160 -0.3125
  469MOL0     C63182   3.980   0.874   7.018 -0.4001 -0.4715 -1.5447
  469MOL0     O63183   3.996   0.915   6.890  0.1913 -0.9921  0.4874
  469MOL0     C63184   4.117   0.966   6.845 -0.2784  0.0507  0.1312
  469MOL0     C63185   4.238   0.911   6.874 -0.8322 -0.5232 -0.2932
  469MOL0     C63186   4.356   0.967   6.809  0.6161  0.3677 -0.2338
  469MOL0     C63187   4.343   1.062   6.706 -0.1512  0.9016  0.3044
  469MOL0     O63188   4.455   1.088   6.629  0.0819  0.2221  0.0040
  469MOL0     C63189   4.540   1.188   6.689  0.6208  0.0706 -0.7263
  469MOL0     C63190   4.485   1.338   6.687 -0.0330  0.2405 -0.2632
  469MOL0     C63191   4.602   1.428   6.704 -0.2959 -0.7060 -0.3159
  469MOL0     C63192   4.674   1.437   6.838  0.0099  0.3717 -1.1106
  469MOL0     C63193   4.633   1.558   6.947 -0.2095  1.4484  0.3132
  469MOL0     C63194   4.673   1.523   7.094  0.3626  0.5760  0.6335
  469MOL0     C63195   4.817   1.558   7.133 -0.6086  0.2000  0.4309
  469MOL0     C63196   4.848   1.540   7.279  0.1592 -0.6375  0.0912
  469MOL0     N63197   4.793   1.652   7.367  0.3184  0.3081  1.1649
  469MOL0     C63198   4.837   1.781   7.361  0.5915 -0.6146  0.4537
  469MOL0     C63199   4.769   1.848   7.466  0.8186 -0.7426  0.5030
  469MOL0     C63200   4.780   1.996   7.489 -0.3849  0.4183  0.3757
  469MOL0     C63201   4.679   2.071   7.400  0.0400 -0.0158  0.5490
  469MOL0     C63202   4.534   2.036   7.427  0.4409 -0.1609 -0.3615
  469MOL0     C63203   4.426   2.137   7.390 -0.2040 -0.1726  1.0542
  469MOL0     O63204   4.429   2.174   7.245  0.2092 -0.3016 -0.8717
  469MOL0     C63205   4.404   2.074   7.154  0.0491 -0.0300 -0.4855
  469MOL0     C63206   4.436   2.101   7.022 -0.1091  0.0570  0.7839
  469MOL0     C63207   4.417   2.014   6.915 -0.1563  0.3775 -0.1322
  469MOL0     C63208   4.466   2.043   6.780  0.1411 -0.6266 -0.1373
  469MOL0     C63209   4.349   1.894   6.945  0.0626 -0.0145 -0.6442
  469MOL0     C63210   4.304   1.794   6.841 -0.6397 -0.5757 -0.0867
  469MOL0     O63211   4.174   1.789   6.822 -0.4665  0.5110 -0.2134
  469MOL0     C63212   4.132   1.727   6.710 -0.0791 -0.1687  0.3549
  469MOL0     C63213   4.069   1.799   6.609 -0.3615 -0.0883 -0.1948
  469MOL0     C63214   4.018   1.738   6.496 -0.1030 -0.8285  0.4401
  469MOL0     C63215   4.028   1.598   6.479  0.0739  0.4612 -0.1740
  469MOL0     O63216   3.974   1.544   6.364  0.3883 -0.6285  0.1077
  469MOL0     C63217   4.008   1.411   6.308 -0.3712 -0.2375 -0.5814
  469MOL0     C63218   3.877   1.321   6.300 -1.0333 -0.5300  0.0846
  469MOL0     C63219   3.765   1.376   6.210 -1.3816  0.8076 -0.2175
  469MOL0     C63220   3.786   1.338   6.057  1.0038 -0.0426 -0.1993
  469MOL0     C63221   3.646   1.380   5.988 -0.4899  0.7208 -0.4644
  469MOL0     C63222   3.630   1.368   5.835 -0.0264 -0.0042  0.7708
  469MOL0     C63223   3.648   1.222   5.786 -0.0588 -0.3287 -0.1928
  469MOL0     C63224   3.801   1.204   5.745 -0.2656 -0.1391  0.3311
  469MOL0    Cl63225   3.807   1.258   5.568 -0.0123  0.5205 -0.2660
  469MOL0     C63226   4.107   1.529   6.570  0.2197  0.7979  0.0102
  469MOL0     C63227   4.151   1.588   6.690  0.1055  0.0037 -0.7342
  469MOL0     O63228   4.388   1.727   6.781  0.3481 -0.0774 -0.0778
  469MOL0     C63229   4.306   1.866   7.078 -0.4269 -0.3122  0.0362
  469MOL0     C63230   4.335   1.955   7.180 -1.2965  0.8827  0.4692
  469MOL0     N63231   4.683   1.751   7.525 -0.0895 -0.1627  0.2711
  469MOL0     N63232   4.703   1.633   7.464 -0.3374  0.5360 -0.0651
  469MOL0     C63233   4.223   1.120   6.686  0.7319 -0.4219 -0.2614
  469MOL0     C63234   4.111   1.064   6.745 -1.1562 -1.1059  0.5011
  469MOL0     C63235   3.861   0.808   7.063 -0.4056  0.0347 -1.1300
  469MOL0     C63236   3.756   0.785   6.971 -1.0195 -0.2984 -0.1871
  469MOL0     C63237   3.640   0.719   7.013  0.3605 -0.0356 -0.1224
  469MOL0     C63238   3.613   0.698   7.142 -0.2667  0.1523  0.1373
  469MOL0     O63239   3.498   0.635   7.163  0.2567  0.0551 -0.2200
  469MOL0     C63240   3.473   0.555   7.281  0.4446 -0.2347 -0.0334
  469MOL0     C63241   3.388   0.432   7.251  0.3800 -0.1512  0.1026
  469MOL0     C63242   3.244   0.483   7.227 -0.8465  0.1974 -0.4155
  469MOL0     C63243   3.159   0.352   7.217  0.1556 -0.4054  0.2962
  469MOL0     C63244   3.049   0.369   7.113  0.5042 -0.5647 -0.7453
  469MOL0     C63245   2.970   0.374   7.021 -0.5486 -0.0370  0.0708
  469MOL0     C63246   3.714   0.719   7.237  0.1467 -0.8091  0.1304
  469MOL0     C63247   3.832   0.775   7.198  0.0109  0.0284  0.7843
  469MOL0     H63248   4.245   0.821   6.935 -0.6035 -0.2243  0.1271
  469MOL0     H63249   4.458   0.935   6.826  1.2965  0.4052 -3.6562
  469MOL0     H63250   4.574   1.167   6.791  0.9096 -0.7797 -0.9851
  469MOL0     H63251   4.634   1.191   6.634  1.8242 -3.2602  0.8319
  469MOL0     H63252   4.429   1.361   6.596  0.3129  0.7263 -0.3538
  469MOL0     H63253   4.420   1.354   6.774 -1.7353 -0.9329 -1.2428
  469MOL0     H63254   4.676   1.411   6.625 -1.1744  0.1422 -1.3516
  469MOL0     H63255   4.565   1.529   6.681  0.0811 -0.9325 -2.0579
  469MOL0     H63256   4.663   1.341   6.889  1.8335  1.2296  1.0476
  469MOL0     H63257   4.783   1.440   6.829  0.3475 -0.0830  1.7612
  469MOL0     H63258   4.680   1.654   6.925 -0.1486  1.2482 -0.4954
  469MOL0     H63259   4.525   1.563   6.930 -0.1942 -1.5105 -1.5046
  469MOL0     H63260   4.606   1.580   7.159 -1.1313 -0.9662  0.5321
  469MOL0     H63261   4.652   1.419   7.120 -1.7628  0.3140 -1.7460
  469MOL0     H63262   4.888   1.491   7.082  0.3867  1.7358 -0.2976
  469MOL0     H63263   4.845   1.659   7.102 -1.6519  0.4864  0.4006
  469MOL0     H63264   4.953   1.557   7.305  0.0510  2.1264 -0.8949
  469MOL0     H63265   4.816   1.444   7.321  0.2323  0.3164  2.5101
  469MOL0     H63266   4.910   1.819   7.290 -0.2968 -0.1419 -0.2317
  469MOL0     H63267   4.758   2.007   7.595  1.0770  2.7123  0.5189
  469MOL0     H63268   4.883   2.030   7.470 -0.8782  2.7492  1.5510
  469MOL0     H63269   4.674   2.059   7.292 -3.3302 -0.3173  0.6272
  469MOL0     H63270   4.685   2.180   7.414 -4.4421  0.6003 -0.6868
  469MOL0     H63271   4.532   2.012   7.534 -0.6405 -0.8547 -0.5120
  469MOL0     H63272   4.511   1.942   7.374 -1.0373  1.2525 -2.3967
  469MOL0     H63273   4.440   2.223   7.457  0.0291  1.8961 -1.4749
  469MOL0     H63274   4.333   2.087   7.419  1.7609 -2.9530  3.1288
  469MOL0     H63275   4.484   2.198   7.016  1.3516 -0.5030  2.5148
  469MOL0     H63276   4.399   2.117   6.735 -1.5650 -0.6402  2.1920
  469MOL0     H63277   4.567   2.081   6.798  0.6493 -1.6967 -0.6789
  469MOL0     H63278   4.472   1.953   6.718 -1.4771 -1.2150  0.5041
  469MOL0     H63279   4.057   1.907   6.615  3.8457  0.9357 -4.3785
  469MOL0     H63280   3.960   1.804   6.433 -0.9039  1.2249  3.1505
  469MOL0     H63281   4.056   1.426   6.211  0.4581  2.8147  0.1716
  469MOL0     H63282   4.082   1.355   6.366 -1.6950 -3.6348 -1.9170
  469MOL0     H63283   3.904   1.221   6.265  1.6631  0.4687 -0.9508
  469MOL0     H63284   3.845   1.313   6.404 -2.5453  2.6400 -0.0140
  469MOL0     H63285   3.752   1.485   6.212 -0.0719  0.9899 -0.8082
  469MOL0     H63286   3.671   1.332   6.244 -2.4559  1.0827 -2.6094
  469MOL0     H63287   3.877   1.390   6.028 -0.4997  4.6613  2.4773
  469MOL0     H63288   3.800   1.230   6.046 -0.2441 -0.2280 -0.2080
  469MOL0     H63289   3.644   1.488   6.003  0.4257  0.6425  0.3158
  469MOL0     H63290   3.556   1.340   6.037 -1.5116  0.3400 -2.5466
  469MOL0     H63291   3.533   1.409   5.806  2.5227  4.8253 -2.3295
  469MOL0     H63292   3.700   1.433   5.781 -1.2158 -1.4599 -2.8127
  469MOL0     H63293   3.586   1.194   5.700  0.3303 -0.3174 -0.4794
  469MOL0     H63294   3.640   1.156   5.873  0.4449  0.7913  0.7360
  469MOL0     H63295   3.839   1.103   5.763 -0.1650 -0.2011 -0.2277
  469MOL0     H63296   3.864   1.262   5.813 -1.9057 -1.1158  2.8572
  469MOL0     H63297   4.126   1.423   6.553 -0.7414  1.0754 -3.4791
  469MOL0     H63298   4.211   1.527   6.757 -0.4963  1.4060  1.1906
  469MOL0     H63299   4.245   1.779   7.100 -1.1082  0.4024  1.0717
  469MOL0     H63300   4.306   1.921   7.279 -2.6515 -1.6140 -0.6925
  469MOL0     H63301   4.215   1.200   6.613 -0.8004 -0.4412 -0.1595
  469MOL0     H63302   4.019   1.116   6.721 -0.5450 -1.0101 -1.8675
  469MOL0     H63303   3.777   0.801   6.866  1.1315 -0.5062  0.1639
  469MOL0     H63304   3.557   0.703   6.945  0.4774  0.3277 -0.3557
  469MOL0     H63305   3.571   0.512   7.305  1.6857  0.3957 -3.4063
  469MOL0     H63306   3.445   0.627   7.358 -0.7473 -1.6101  0.8576
  469MOL0     H63307   3.393   0.362   7.335  4.5115 -2.0393 -1.4531
  469MOL0     H63308   3.425   0.382   7.161 -0.8980 -1.4299  0.2397
  469MOL0     H63309   3.245   0.536   7.132  0.5856 -0.5178 -0.8288
  469MOL0     H63310   3.203   0.544   7.308 -2.4619  2.7905 -3.0306
  469MOL0     H63311   3.109   0.325   7.311 -0.4774  1.2204  0.4571
  469MOL0     H63312   3.216   0.263   7.187 -0.1100 -0.3969 -0.2399
  469MOL0     H63313   2.907   0.358   6.936  1.7484 -0.2115 -1.6983
  469MOL0     H63314   3.715   0.702   7.344  0.2079 -1.5151  0.0226
  469MOL0     H63315   3.905   0.789   7.277  0.1834 -2.1392  1.0589
  470MOL0     O63316   6.730   2.173   4.303  0.1083 -0.1594 -0.3588
  470MOL0     C63317   6.842   2.235   4.325 -0.2677 -0.3963 -0.9846
  470MOL0     O63318   6.924   2.220   4.436  0.1751 -0.2795 -0.3271
  470MOL0     C63319   6.925   2.094   4.491  0.3447  0.0530  0.1600
  470MOL0     C63320   6.992   1.987   4.436  0.4676 -0.0798 -0.9876
  470MOL0     C63321   7.019   1.867   4.505  0.0721 -0.8595  0.3550
  470MOL0     C63322   6.983   1.853   4.644  0.2108 -0.1105  0.1734
  470MOL0     O63323   7.008   1.732   4.713  0.1076  0.1230  0.5413
  470MOL0     C63324   7.061   1.610   4.665 -0.0182  0.0149 -0.1503
  470MOL0     C63325   7.207   1.573   4.706  0.2543  0.0905 -0.4999
  470MOL0     C63326   7.257   1.439   4.653 -0.4873  0.5830 -0.9753
  470MOL0     C63327   7.395   1.411   4.693  0.1481  0.0649 -0.9797
  470MOL0     C63328   7.463   1.308   4.597 -0.6004 -0.0157  0.1966
  470MOL0     C63329   7.436   1.171   4.635  0.1431  0.3539 -0.4099
  470MOL0     C63330   7.514   1.067   4.545 -0.5070  0.6022 -0.8382
  470MOL0     C63331   7.665   1.071   4.541 -0.7558 -0.0120  0.2152
  470MOL0     N63332   7.731   0.992   4.429  0.3705  0.7020  0.4871
  470MOL0     C63333   7.786   1.047   4.314  0.0546 -0.3361  1.0022
  470MOL0     C63334   7.834   0.940   4.242  1.5737 -0.2273 -0.8796
  470MOL0     C63335   7.897   0.950   4.107  0.2328 -0.3879  0.0771
  470MOL0     C63336   8.011   1.054   4.111 -0.3039  0.7322  0.5322
  470MOL0     C63337   8.087   1.044   3.979  0.5465  0.5043  0.4917
  470MOL0     C63338   8.235   1.064   3.988 -0.5334 -0.2209 -0.6685
  470MOL0     O63339   8.299   1.017   3.869  0.0205 -0.7975 -0.9922
  470MOL0     C63340   8.436   1.013   3.859 -0.1998  0.6849 -0.9856
  470MOL0     C63341   8.526   1.069   3.949  0.1339  0.3303  0.5121
  470MOL0     C63342   8.665   1.079   3.920  1.5713  0.3655  0.3925
  470MOL0     C63343   8.761   1.130   4.021 -0.4355 -0.1189 -0.6653
  470MOL0     C63344   8.717   1.021   3.798  0.0768  0.0687  0.1764
  470MOL0     C63345   8.856   1.011   3.752  0.5062 -0.3034  0.1959
  470MOL0     O63346   8.879   0.922   3.640 -0.2528 -0.5281 -0.6446
  470MOL0     C63347   9.002   0.866   3.627 -0.5260 -0.4866  0.9669
  470MOL0     C63348   9.022   0.732   3.663  0.5079 -0.2886 -0.6856
  470MOL0     C63349   9.149   0.690   3.653 -0.4507 -0.0706  0.2557
  470MOL0     C63350   9.259   0.762   3.595 -0.0573  0.4928  0.3356
  470MOL0     O63351   9.377   0.701   3.592  0.1625 -0.0532  1.5928
  470MOL0     C63352   9.496   0.766   3.637 -1.1257  0.2520  0.7566
  470MOL0     C63353   9.540   0.705   3.767  0.2242 -0.9416 -0.2254
  470MOL0     C63354   9.649   0.801   3.827 -0.3130 -0.0333  0.2467
  470MOL0     C63355   9.778   0.725   3.871  0.8046  0.9703  0.1348
  470MOL0     C63356   9.899   0.744   3.780 -0.6163  0.6824 -0.5381
  470MOL0     C63357  10.024   0.650   3.823 -0.2533 -0.6648 -0.6740
  470MOL0     C63358  10.157   0.706   3.751 -0.2076  0.4400  0.4230
  470MOL0     C63359  10.277   0.621   3.790  0.1634 -0.0369  0.1642
  470MOL0    Cl63360  10.306   0.479   3.663 -0.4758  0.2713 -0.1578
  470MOL0     C63361   9.238   0.898   3.550  0.4951 -0.0646  0.1315
  470MOL0     C63362   9.109   0.947   3.567 -0.5060  0.3877 -0.5684
  470MOL0     O63363   8.951   1.075   3.805  0.1563  0.3574 -0.2678
  470MOL0     C63364   8.623   0.986   3.704 -0.1210  0.2237  0.4740
  470MOL0     C63365   8.489   0.980   3.736  0.4442  0.5730  1.1656
  470MOL0     N63366   7.814   0.820   4.314  0.4667  0.2917 -1.0481
  470MOL0     N63367   7.753   0.857   4.420  0.8519  0.6211 -0.6129
  470MOL0     C63368   6.927   1.968   4.711  0.1679 -0.9138 -0.4145
  470MOL0     C63369   6.909   2.083   4.630  0.4038 -0.5577  0.0137
  470MOL0     C63370   6.877   2.341   4.232  0.8501  0.1154  0.6154
  470MOL0     C63371   6.830   2.335   4.093  0.5095  0.1263  0.1698
  470MOL0     C63372   6.884   2.415   3.990  0.8038 -0.1541  0.3973
  470MOL0     C63373   6.977   2.520   4.032  0.2444 -0.3158  0.5448
  470MOL0     O63374   7.016   2.605   3.933  0.5859 -0.3952  0.4394
  470MOL0     C63375   7.073   2.725   3.978 -0.4660 -0.7164  0.6008
  470MOL0     C63376   7.038   2.835   3.866  0.0921  0.8051  0.6812
  470MOL0     C63377   7.118   2.962   3.884 -0.4623 -0.3510 -0.3551
  470MOL0     C63378   7.099   3.055   3.769 -0.6463 -0.2609  0.6018
  470MOL0     C63379   7.072   3.193   3.817 -0.3447 -0.1297 -0.3080
  470MOL0     C63380   7.057   3.300   3.864 -0.4169  0.5775  0.4249
  470MOL0     C63381   7.022   2.521   4.167  0.0436 -0.1462 -0.0145
  470MOL0     C63382   6.967   2.439   4.272  0.3155  0.4127  0.7881
  470MOL0     H63383   7.028   2.004   4.335 -0.3392  0.0239 -1.2629
  470MOL0     H63384   7.071   1.786   4.454 -1.3237 -3.5009  2.8776
  470MOL0     H63385   7.014   1.522   4.710  2.3505 -0.4310  1.6681
  470MOL0     H63386   7.039   1.596   4.559 -5.4735 -0.0082  0.7131
  470MOL0     H63387   7.261   1.658   4.664 -3.3791  2.5496 -0.6243
  470MOL0     H63388   7.219   1.570   4.815 -1.5808  0.1516 -0.2528
  470MOL0     H63389   7.198   1.352   4.685  1.0619 -0.6450 -1.3662
  470MOL0     H63390   7.246   1.457   4.546 -0.6045 -0.8383 -1.2201
  470MOL0     H63391   7.455   1.502   4.705  1.8305 -1.0116 -0.8068
  470MOL0     H63392   7.379   1.370   4.793 -0.0043  1.5014 -0.3808
  470MOL0     H63393   7.438   1.313   4.491 -0.8730 -0.8933  0.2167
  470MOL0     H63394   7.572   1.315   4.610 -0.6455  1.1568  0.0531
  470MOL0     H63395   7.464   1.158   4.740 -0.7683  1.4077 -0.0065
  470MOL0     H63396   7.329   1.148   4.624 -0.1683 -0.0631  2.4597
  470MOL0     H63397   7.482   0.967   4.575 -0.0319  0.8255  0.4882
  470MOL0     H63398   7.478   1.064   4.442  0.2017  1.0333 -1.1088
  470MOL0     H63399   7.714   1.059   4.638  2.8289  2.0195 -1.1599
  470MOL0     H63400   7.693   1.175   4.518  0.3169  0.0284  1.5744
  470MOL0     H63401   7.796   1.147   4.273  0.7909 -0.8692 -0.1816
  470MOL0     H63402   7.936   0.851   4.082  1.7364 -0.1501  1.3304
  470MOL0     H63403   7.823   0.969   4.029  1.4771 -1.1097 -1.3094
  470MOL0     H63404   8.078   1.027   4.193 -4.0380 -1.9965  3.0027
  470MOL0     H63405   7.966   1.152   4.130 -2.1606  0.1134 -0.4201
  470MOL0     H63406   8.045   1.112   3.905  1.1750 -0.9335 -1.2604
  470MOL0     H63407   8.073   0.943   3.938  0.3776  1.0044 -0.7227
  470MOL0     H63408   8.271   1.007   4.074  0.4541  3.0501  1.2417
  470MOL0     H63409   8.251   1.168   4.017 -0.8342 -0.3180 -0.1388
  470MOL0     H63410   8.485   1.101   4.044  0.9304  0.1025  0.9512
  470MOL0     H63411   8.816   1.216   3.981 -1.8423  1.2901  0.3103
  470MOL0     H63412   8.711   1.162   4.113  1.3692 -0.2238  0.4073
  470MOL0     H63413   8.840   1.058   4.045  2.0387  2.0858 -1.7664
  470MOL0     H63414   8.947   0.666   3.705  1.2580  0.1656  1.4794
  470MOL0     H63415   9.180   0.593   3.691  0.9695 -0.2327 -1.1969
  470MOL0     H63416   9.567   0.748   3.556 -1.2208 -0.6810  0.8744
  470MOL0     H63417   9.492   0.875   3.651  0.2821  0.7339 -1.9696
  470MOL0     H63418   9.449   0.699   3.828  0.9574  1.0245  1.1771
  470MOL0     H63419   9.569   0.600   3.759 -0.1060 -1.1266  0.8292
  470MOL0     H63420   9.620   0.864   3.911  1.4358 -0.8328  1.4932
  470MOL0     H63421   9.683   0.869   3.748  1.7910  1.5787  2.4061
  470MOL0     H63422   9.782   0.735   3.980  1.1480  1.4421  0.0817
  470MOL0     H63423   9.774   0.617   3.857  1.1261  0.8310  1.0502
  470MOL0     H63424   9.909   0.852   3.796 -2.0760  0.3754  3.9869
  470MOL0     H63425   9.872   0.732   3.675 -0.8168  2.2757 -0.6957
  470MOL0     H63426  10.036   0.654   3.932 -1.4071  2.1632 -0.5541
  470MOL0     H63427  10.006   0.548   3.790 -1.5650 -0.0838 -1.8402
  470MOL0     H63428  10.166   0.810   3.783  1.2127  1.1309 -1.9306
  470MOL0     H63429  10.142   0.698   3.643  1.1436 -1.6108  0.3421
  470MOL0     H63430  10.263   0.569   3.886 -0.6707 -2.2860 -1.1052
  470MOL0     H63431  10.365   0.686   3.797  0.0178  0.1061  0.7087
  470MOL0     H63432   9.318   0.954   3.502  2.0030 -0.7817  1.7030
  470MOL0     H63433   9.093   1.052   3.546  1.7418  1.6567  3.0814
  470MOL0     H63434   8.644   0.953   3.603 -0.1962  0.8375  0.2520
  470MOL0     H63435   8.426   0.944   3.655  1.3800  0.7199  0.3534
  470MOL0     H63436   6.910   1.976   4.818  1.5247 -1.7845 -0.1107
  470MOL0     H63437   6.884   2.175   4.682 -0.7471 -0.7483 -0.1792
  470MOL0     H63438   6.751   2.267   4.063 -0.5809  2.2949 -2.3243
  470MOL0     H63439   6.843   2.399   3.891 -3.1558 -2.5642  2.2008
  470MOL0     H63440   7.024   2.750   4.072  0.6469 -0.3761  1.1127
  470MOL0     H63441   7.181   2.727   3.998 -0.5544  2.2096  1.2237
  470MOL0     H63442   6.931   2.855   3.868  0.0081  0.3303  0.9561
  470MOL0     H63443   7.066   2.795   3.768  2.1195 -0.6947  1.7849
  470MOL0     H63444   7.221   2.926   3.898 -0.4929  0.3001  1.9601
  470MOL0     H63445   7.092   3.011   3.978 -1.6071  0.2476 -0.9616
  470MOL0     H63446   7.027   3.014   3.698  3.3003 -2.0062 -2.7941
  470MOL0     H63447   7.188   3.061   3.705 -0.9144  2.0272  0.3727
  470MOL0     H63448   7.055   3.403   3.893 -2.4869  1.0958 -1.2967
  470MOL0     H63449   7.089   2.595   4.211 -0.7745  1.5548 -1.5097
  470MOL0     H63450   7.004   2.451   4.373  0.6387  0.3585  0.6790
  471MOL0     O63451   3.118   6.946   5.524  0.0635 -0.3033 -0.3382
  471MOL0     C63452   3.080   6.928   5.409 -0.0266 -0.1455  0.4743
  471MOL0     O63453   2.991   6.830   5.366 -0.5930  0.5955 -0.6872
  471MOL0     C63454   2.921   6.749   5.448 -0.5755  1.1670  0.0384
  471MOL0     C63455   2.787   6.723   5.403  0.1881  0.8808  0.0184
  471MOL0     C63456   2.705   6.645   5.480  0.9965 -0.5846  0.0580
  471MOL0     C63457   2.740   6.595   5.609  0.0285 -0.5563 -0.3590
  471MOL0     O63458   2.651   6.517   5.671  0.2259  0.4383 -0.5403
  471MOL0     C63459   2.524   6.577   5.707  0.1480 -0.2647 -0.5005
  471MOL0     C63460   2.436   6.466   5.783 -0.3829  0.1497 -0.0252
  471MOL0     C63461   2.506   6.423   5.909 -0.5357  0.6101 -0.1966
  471MOL0     C63462   2.468   6.500   6.036  0.5095 -0.2561  0.1738
  471MOL0     C63463   2.567   6.610   6.069  0.5089  0.5095  0.3801
  471MOL0     C63464   2.524   6.670   6.207  0.0298 -0.0361 -0.6685
  471MOL0     C63465   2.622   6.777   6.259 -0.0369 -0.6482  0.8295
  471MOL0     C63466   2.633   6.901   6.175 -0.8065 -0.6485 -0.5711
  471MOL0     N63467   2.661   7.019   6.252 -0.2838 -0.3907 -0.7551
  471MOL0     C63468   2.788   7.053   6.290 -0.2890 -0.2631 -0.0297
  471MOL0     C63469   2.763   7.169   6.358  0.3090 -0.4690 -1.1623
  471MOL0     C63470   2.876   7.246   6.425 -0.0606  0.4597 -0.5099
  471MOL0     C63471   2.942   7.356   6.344  0.5605  0.5271  0.4162
  471MOL0     C63472   2.859   7.410   6.231  0.0552 -0.5795  0.1211
  471MOL0     C63473   2.730   7.491   6.273 -0.6576  0.0549 -0.4230
  471MOL0     O63474   2.688   7.583   6.172  0.7088  0.4173  0.8417
  471MOL0     C63475   2.578   7.653   6.199  0.0231  0.0003 -0.4242
  471MOL0     C63476   2.522   7.731   6.093  0.2642  0.5713 -0.0466
  471MOL0     C63477   2.410   7.811   6.115 -0.5475 -0.3924 -0.1949
  471MOL0     C63478   2.352   7.882   5.991  0.0547  0.2822 -0.1066
  471MOL0     C63479   2.359   7.829   6.248  0.1951 -0.4756 -0.1468
  471MOL0     C63480   2.239   7.914   6.287  0.1812  0.1806  0.5742
  471MOL0     O63481   2.180   7.882   6.399 -0.2242 -0.5001 -1.0833
  471MOL0     C63482   2.087   7.962   6.450  0.2733  0.0103  0.9784
  471MOL0     C63483   1.960   7.906   6.473 -1.0931 -1.0809  0.3854
  471MOL0     C63484   1.849   7.980   6.517  0.3441  0.1681  0.2960
  471MOL0     C63485   1.855   8.121   6.522 -0.0323  0.9098 -0.7422
  471MOL0     O63486   1.736   8.198   6.547 -0.4199 -0.2101 -0.0691
  471MOL0     C63487   1.728   8.334   6.559 -0.0540 -0.2541 -0.3738
  471MOL0     C63488   1.598   8.367   6.627 -0.2397 -1.0993 -1.0218
  471MOL0     C63489   1.588   8.523   6.649  0.0688  0.1461 -0.2054
  471MOL0     C63490   1.574   8.609   6.521  0.2036  0.9802  0.7385
  471MOL0     C63491   1.470   8.566   6.421  1.1184  0.2667 -0.9356
  471MOL0     C63492   1.324   8.588   6.474 -0.7247  0.3373 -0.0630
  471MOL0     C63493   1.211   8.538   6.380  0.4470 -1.0131  0.5223
  471MOL0     C63494   1.080   8.559   6.453 -0.3174 -0.8782  0.5875
  471MOL0    Cl63495   1.028   8.724   6.479 -0.2465 -0.4404 -0.2977
  471MOL0     C63496   1.977   8.175   6.489 -1.2689  0.5834 -0.6203
  471MOL0     C63497   2.094   8.097   6.474  1.5380 -0.4908  1.8112
  471MOL0     O63498   2.196   7.991   6.203 -0.4279 -0.1347 -0.6191
  471MOL0     C63499   2.419   7.755   6.351 -0.5114  0.9223 -0.3520
  471MOL0     C63500   2.525   7.664   6.323 -0.1692  0.1422 -0.2507
  471MOL0     N63501   2.625   7.192   6.367  0.3625 -1.2626 -0.0043
  471MOL0     N63502   2.565   7.111   6.292  0.1140 -1.2664  0.2006
  471MOL0     C63503   2.868   6.623   5.653 -0.0717  0.0356  0.4224
  471MOL0     C63504   2.960   6.699   5.579  0.4893  0.4359 -0.7775
  471MOL0     C63505   3.158   6.988   5.298  0.1998 -0.8682 -0.2160
  471MOL0     C63506   3.237   7.097   5.329 -0.0857  0.2138 -0.1091
  471MOL0     C63507   3.321   7.149   5.231  0.6949  0.1264 -0.6196
  471MOL0     C63508   3.344   7.089   5.110 -0.0436  0.3445  0.7259
  471MOL0     O63509   3.448   7.133   5.028  0.2948  0.2471  0.3182
  471MOL0     C63510   3.463   7.074   4.900 -0.8114  0.7117  0.0667
  471MOL0     C63511   3.588   6.983   4.908 -0.0097  0.2665 -0.1709
  471MOL0     C63512   3.717   7.073   4.907 -0.4049 -0.5354 -0.3670
  471MOL0     C63513   3.829   6.997   4.975  0.3473  0.3185  0.0409
  471MOL0     C63514   3.951   7.064   4.978 -0.2329  0.6352 -0.2765
  471MOL0     C63515   4.059   7.130   4.985 -0.1659  0.1081 -0.7358
  471MOL0     C63516   3.277   6.973   5.086  0.2567  0.2745  0.1253
  471MOL0     C63517   3.181   6.923   5.176 -0.1167  0.7678  0.1258
  471MOL0     H63518   2.753   6.754   5.305  1.4187 -0.8949 -1.0234
  471MOL0     H63519   2.615   6.606   5.432  1.8856 -1.1386 -1.2349
  471MOL0     H63520   2.553   6.659   5.773  0.4006 -1.7907  1.3391
  471MOL0     H63521   2.478   6.623   5.618  0.3687 -1.8307 -1.4529
  471MOL0     H63522   2.342   6.516   5.807  0.6574  2.0574  0.2961
  471MOL0     H63523   2.422   6.374   5.726  0.5478 -1.1229  1.7184
  471MOL0     H63524   2.494   6.315   5.919 -0.9612  0.6628 -0.1141
  471MOL0     H63525   2.612   6.437   5.888 -0.3430  0.3646  0.5984
  471MOL0     H63526   2.365   6.537   6.026  1.1433  1.4164 -0.4089
  471MOL0     H63527   2.474   6.435   6.124  1.7875  2.5999  2.3472
  471MOL0     H63528   2.667   6.566   6.067  1.0608  1.7370 -0.6902
  471MOL0     H63529   2.565   6.695   5.999  0.6982  0.0104 -0.2434
  471MOL0     H63530   2.421   6.705   6.217  0.2514  0.2878  0.6238
  471MOL0     H63531   2.531   6.586   6.277  0.3696  0.2660 -0.3284
  471MOL0     H63532   2.595   6.822   6.356  0.1502  0.4310  0.3963
  471MOL0     H63533   2.720   6.730   6.277  1.2321  2.4104  2.6741
  471MOL0     H63534   2.539   6.929   6.126 -2.3447 -0.4376  2.2696
  471MOL0     H63535   2.718   6.884   6.108  0.8816 -1.6004  1.6954
  471MOL0     H63536   2.881   7.005   6.263 -0.8802  0.4530 -3.9950
  471MOL0     H63537   2.834   7.287   6.517  2.0646 -0.5523  0.9873
  471MOL0     H63538   2.941   7.165   6.460  1.5422  0.8359 -2.4317
  471MOL0     H63539   3.032   7.315   6.298 -0.8742 -0.8717 -1.2897
  471MOL0     H63540   2.977   7.437   6.409  2.3611  1.2925 -1.3797
  471MOL0     H63541   2.840   7.334   6.155  1.0197  0.2228 -0.9441
  471MOL0     H63542   2.928   7.480   6.183  1.6963 -0.2853  2.7140
  471MOL0     H63543   2.762   7.565   6.348  0.2650 -0.4385 -0.3099
  471MOL0     H63544   2.650   7.426   6.309  0.2143  0.1709  1.9238
  471MOL0     H63545   2.564   7.731   5.994 -2.7396 -0.7417 -1.4603
  471MOL0     H63546   2.401   7.979   5.978 -1.3381  1.2822  1.6887
  471MOL0     H63547   2.388   7.829   5.903  0.8625 -0.3424  0.5733
  471MOL0     H63548   2.243   7.878   5.991  0.0688 -0.6289  0.9804
  471MOL0     H63549   1.966   7.798   6.469 -1.0218 -1.0489 -2.5874
  471MOL0     H63550   1.756   7.925   6.525  0.2961  0.1657 -0.2243
  471MOL0     H63551   1.817   8.367   6.612 -0.6478 -0.2338  0.6184
  471MOL0     H63552   1.714   8.383   6.462 -1.2762 -0.7826 -0.4943
  471MOL0     H63553   1.513   8.322   6.575 -1.0704 -0.8985  0.1105
  471MOL0     H63554   1.597   8.325   6.728 -0.7199 -2.3396 -1.5151
  471MOL0     H63555   1.680   8.556   6.698  0.6255 -0.3994 -0.8724
  471MOL0     H63556   1.497   8.542   6.706  0.8599 -1.5369  1.7431
  471MOL0     H63557   1.545   8.703   6.570  0.0954 -1.5273  6.2869
  471MOL0     H63558   1.667   8.628   6.466  1.9461 -2.5763  2.1220
  471MOL0     H63559   1.482   8.460   6.396  4.2222 -0.2067  1.7980
  471MOL0     H63560   1.475   8.627   6.330 -0.9182 -1.0141 -1.9866
  471MOL0     H63561   1.329   8.522   6.561  2.3256 -1.1194 -1.1872
  471MOL0     H63562   1.318   8.692   6.504 -0.4188  0.2338  0.3627
  471MOL0     H63563   1.228   8.439   6.339 -0.1375 -1.1029  0.4841
  471MOL0     H63564   1.209   8.597   6.288 -1.4421  0.1585  1.2410
  471MOL0     H63565   1.089   8.508   6.550 -2.4681 -3.0495 -0.2491
  471MOL0     H63566   1.010   8.503   6.391  0.0729 -1.2231  0.4501
  471MOL0     H63567   1.992   8.283   6.489  1.3935  0.3098  1.1928
  471MOL0     H63568   2.183   8.158   6.468  0.4524  1.0173  0.1781
  471MOL0     H63569   2.381   7.754   6.453  0.7224 -2.8967  0.2394
  471MOL0     H63570   2.568   7.604   6.403  1.3497  0.4499 -0.7898
  471MOL0     H63571   2.903   6.589   5.750 -1.8532 -1.9951  0.4129
  471MOL0     H63572   3.063   6.713   5.609  0.0675 -0.8633  1.4425
  471MOL0     H63573   3.233   7.132   5.432  0.5698 -2.3700  0.8805
  471MOL0     H63574   3.393   7.230   5.240 -0.0904  0.7649  0.0057
  471MOL0     H63575   3.381   7.018   4.855  2.7092 -3.5305 -1.8901
  471MOL0     H63576   3.483   7.141   4.816 -4.1624  1.4790 -0.2423
  471MOL0     H63577   3.597   6.909   4.827  0.2359  3.3928 -3.2530
  471MOL0     H63578   3.581   6.923   4.999  2.2628  0.2223  0.0272
  471MOL0     H63579   3.691   7.170   4.951  0.4201 -1.2935  1.9283
  471MOL0     H63580   3.748   7.083   4.802 -2.3280  1.8705 -0.7903
  471MOL0     H63581   3.842   6.899   4.927  1.0028 -0.4798  1.7847
  471MOL0     H63582   3.810   6.974   5.080  2.9970 -4.6172 -0.2674
  471MOL0     H63583   4.159   7.168   4.977  0.3245 -0.7469  0.8637
  471MOL0     H63584   3.297   6.903   5.006  1.5573 -0.0772  0.7220
  471MOL0     H63585   3.136   6.824   5.171 -2.7185  1.8892  0.0565
  472MOL0     O63586   9.283  11.284   4.626 -0.9184  0.0382 -0.2229
  472MOL0     C63587   9.390  11.293   4.566  0.2001  1.0835 -0.0396
  472MOL0     O63588   9.411  11.219   4.448 -0.1478 -0.1548 -0.3961
  472MOL0     C63589   9.462  11.270   4.329 -0.2831 -0.0273  0.4073
  472MOL0     C63590   9.438  11.400   4.291  0.1796 -0.5885 -0.0039
  472MOL0     C63591   9.479  11.438   4.164 -0.6779  0.3217  1.5487
  472MOL0     C63592   9.556  11.349   4.078  1.0150  0.3306  1.0492
  472MOL0     O63593   9.582  11.400   3.957  0.8821  0.5640 -0.6790
  472MOL0     C63594   9.673  11.340   3.874  0.1754  0.8222  0.8097
  472MOL0     C63595   9.804  11.336   3.941  0.2896  0.2555  1.6210
  472MOL0     C63596   9.859  11.461   4.016 -0.2250  0.7577 -0.3439
  472MOL0     C63597  10.010  11.443   4.038  0.7100 -0.3783  0.0153
  472MOL0     C63598  10.072  11.532   4.153 -0.0511 -0.4393  1.1347
  472MOL0     C63599  10.227  11.544   4.156 -0.7016  0.5473  0.2124
  472MOL0     C63600  10.280  11.594   4.021 -1.1624 -0.5714  0.3895
  472MOL0     C63601  10.239  11.741   3.992  0.6337 -0.2472  0.1865
  472MOL0     N63602  10.297  11.824   4.092  0.0331  0.0113 -0.1717
  472MOL0     C63603  10.429  11.831   4.125 -0.1038  0.5089  0.5441
  472MOL0     C63604  10.440  11.927   4.218 -1.1029 -0.0099 -0.2879
  472MOL0     C63605  10.567  11.984   4.275  0.5844 -0.4452  0.0366
  472MOL0     C63606  10.583  12.118   4.202 -0.0128  0.3579 -0.0854
  472MOL0     C63607  10.634  12.116   4.051 -0.3239 -0.1732  0.0335
  472MOL0     C63608  10.783  12.068   4.045  0.3164 -0.4890  0.3080
  472MOL0     O63609  10.802  11.933   4.041 -0.4083 -0.3480  0.3150
  472MOL0     C63610  10.927  11.877   4.056  0.2855  0.1343  0.9018
  472MOL0     C63611  11.046  11.945   4.096  0.3255 -0.5220  0.0093
  472MOL0     C63612  11.170  11.888   4.107  0.4265  0.5723  0.2408
  472MOL0     C63613  11.295  11.985   4.121  0.3168  0.2367 -0.1066
  472MOL0     C63614  11.181  11.745   4.078 -0.3508 -0.9725 -0.6020
  472MOL0     C63615  11.312  11.678   4.065  0.3622  0.5911 -0.4394
  472MOL0     O63616  11.313  11.552   4.087  0.5770 -0.8244  0.5938
  472MOL0     C63617  11.399  11.468   4.013  0.8467  0.0788  0.7585
  472MOL0     C63618  11.431  11.333   4.054 -0.0568 -0.5848 -0.2510
  472MOL0     C63619  11.526  11.253   3.986  0.1132  0.3538 -0.3826
  472MOL0     C63620  11.578  11.292   3.869 -0.3206 -0.7129  0.6488
  472MOL0     O63621  11.643  11.204   3.789 -1.0726 -0.4704 -0.5559
  472MOL0     C63622  11.761  11.241   3.728  0.1534  0.1306 -0.3984
  472MOL0     C63623  11.841  11.115   3.683 -0.9160  0.8140  0.0207
  472MOL0     C63624  11.890  11.030   3.802 -0.2610  0.6012 -0.2733
  472MOL0     C63625  11.904  10.888   3.767  0.4227 -0.6732  0.1194
  472MOL0     C63626  12.031  10.861   3.689  0.0780 -0.4283 -0.1209
  472MOL0     C63627  12.073  10.710   3.689  0.1945 -0.4550  0.1320
  472MOL0     C63628  12.216  10.685   3.630  0.3066 -0.0547 -0.5039
  472MOL0     C63629  12.256  10.538   3.643 -0.1217  0.0587 -0.5091
  472MOL0    Cl63630  12.153  10.446   3.532  0.2523  0.0550  0.1247
  472MOL0     C63631  11.546  11.422   3.819 -0.2427  0.1244 -0.7388
  472MOL0     C63632  11.460  11.500   3.896 -0.7749 -0.5732  0.3317
  472MOL0     O63633  11.409  11.745   4.049 -0.0125  0.8318 -0.9414
  472MOL0     C63634  11.067  11.673   4.055  1.2276  0.6537 -1.0552
  472MOL0     C63635  10.942  11.741   4.042  1.4937 -0.0648 -0.6694
  472MOL0     N63636  10.318  11.985   4.228  0.6219 -0.4538  0.4814
  472MOL0     N63637  10.229  11.918   4.157 -0.1561 -0.6643  0.1198
  472MOL0     C63638   9.572  11.216   4.118  0.5444 -0.3780 -0.6434
  472MOL0     C63639   9.528  11.181   4.253 -0.5772  0.5518  0.7693
  472MOL0     C63640   9.493  11.369   4.627 -0.0387 -0.1614  0.5090
  472MOL0     C63641   9.631  11.351   4.595 -0.8954  0.6147  0.0554
  472MOL0     C63642   9.733  11.427   4.660 -0.2349 -0.2126 -0.6036
  472MOL0     C63643   9.697  11.524   4.758 -0.4778  0.2699 -0.2453
  472MOL0     O63644   9.783  11.602   4.828  0.5020  0.4440  0.7452
  472MOL0     C63645   9.927  11.606   4.807 -0.7630 -0.4345  0.0372
  472MOL0     C63646   9.967  11.752   4.843 -0.3944  0.6568  1.5261
  472MOL0     C63647   9.928  11.783   4.987  0.2891  0.2746 -0.0669
  472MOL0     C63648   9.970  11.924   5.029 -0.7268 -0.1652  0.5325
  472MOL0     C63649   9.874  11.987   5.119 -0.2100  0.6696  0.5534
  472MOL0     C63650   9.778  12.035   5.178 -0.7146  0.3088  0.3062
  472MOL0     C63651   9.567  11.538   4.791 -0.6821  0.1219  0.4756
  472MOL0     C63652   9.459  11.476   4.719 -0.3624  0.3652 -0.4256
  472MOL0     H63653   9.377  11.461   4.357 -1.5356 -0.7174 -1.4084
  472MOL0     H63654   9.453  11.538   4.130  3.7131  1.6484  1.5267
  472MOL0     H63655   9.645  11.238   3.845 -0.0935  1.2314 -0.4207
  472MOL0     H63656   9.673  11.392   3.778  1.8131 -1.7143 -0.6735
  472MOL0     H63657   9.800  11.251   4.010 -0.3261  0.4171  1.7885
  472MOL0     H63658   9.876  11.300   3.867  0.9778  1.7575  1.5163
  472MOL0     H63659   9.839  11.557   3.967 -0.3234  0.8210 -0.1796
  472MOL0     H63660   9.815  11.477   4.115  1.2687 -0.7888  0.6295
  472MOL0     H63661  10.045  11.341   4.053  2.1697 -0.0026 -0.6856
  472MOL0     H63662  10.059  11.470   3.944  0.2891  2.3112  0.4754
  472MOL0     H63663  10.041  11.636   4.143  0.3066 -0.2044  2.3430
  472MOL0     H63664  10.046  11.491   4.251  2.3632  1.0280  2.4691
  472MOL0     H63665  10.260  11.609   4.237 -1.4125 -0.9812  1.7898
  472MOL0     H63666  10.277  11.450   4.183  0.2571  0.7977 -0.5947
  472MOL0     H63667  10.390  11.598   4.018 -1.1040  1.9059  2.2868
  472MOL0     H63668  10.248  11.533   3.937 -2.6749 -0.1889  0.6703
  472MOL0     H63669  10.130  11.746   3.986  0.5493 -2.0584 -0.4227
  472MOL0     H63670  10.283  11.775   3.898  1.3819 -1.6827 -0.0177
  472MOL0     H63671  10.513  11.768   4.095  0.8056  1.9423 -0.0299
  472MOL0     H63672  10.551  12.011   4.380 -1.4700  2.5027 -0.9271
  472MOL0     H63673  10.654  11.920   4.257  0.7881  0.1353 -1.1324
  472MOL0     H63674  10.663  12.165   4.261  2.4846  0.3254 -3.1837
  472MOL0     H63675  10.493  12.177   4.222 -0.7188 -0.9055  0.5569
  472MOL0     H63676  10.632  12.218   4.010  1.6303  0.7680  2.0178
  472MOL0     H63677  10.578  12.049   3.986  0.8040 -1.3183  0.2210
  472MOL0     H63678  10.831  12.099   4.138  3.9314 -0.6819 -1.3285
  472MOL0     H63679  10.840  12.111   3.962  2.3778 -0.0552  1.8620
  472MOL0     H63680  11.048  12.054   4.102  2.3523 -0.6007  2.6017
  472MOL0     H63681  11.342  12.005   4.024 -1.0157 -0.0639 -0.8463
  472MOL0     H63682  11.277  12.078   4.175 -1.3747 -0.8558  1.3035
  472MOL0     H63683  11.370  11.936   4.184  0.5517  2.6558  1.5933
  472MOL0     H63684  11.386  11.293   4.145 -0.0725 -1.7757 -0.7551
  472MOL0     H63685  11.565  11.156   4.016  0.4491  0.2622 -1.0923
  472MOL0     H63686  11.730  11.295   3.638  0.8563 -2.2546 -2.1812
  472MOL0     H63687  11.830  11.304   3.785 -1.1942 -0.9274  2.6088
  472MOL0     H63688  11.769  11.056   3.626 -0.4450  0.5331 -0.2913
  472MOL0     H63689  11.923  11.132   3.612 -3.9099  2.9246 -3.3012
  472MOL0     H63690  11.814  11.043   3.880  0.7555  2.0377  0.5364
  472MOL0     H63691  11.982  11.068   3.848  0.8394 -0.0506 -1.8509
  472MOL0     H63692  11.894  10.830   3.859 -1.4507 -1.0083 -0.2486
  472MOL0     H63693  11.814  10.864   3.711 -1.0702  1.1046  1.5971
  472MOL0     H63694  12.121  10.910   3.726  2.6152 -0.2342 -5.5453
  472MOL0     H63695  12.027  10.898   3.586  1.6398  0.7279  0.2111
  472MOL0     H63696  12.076  10.669   3.790  0.9563 -0.9309 -0.0739
  472MOL0     H63697  11.994  10.649   3.644 -2.0491  2.1003  0.3413
  472MOL0     H63698  12.292  10.753   3.669  1.3386  0.0883 -2.6015
  472MOL0     H63699  12.200  10.699   3.523  2.5561  3.0589 -0.5450
  472MOL0     H63700  12.231  10.505   3.745 -1.0208  4.2345  0.8199
  472MOL0     H63701  12.359  10.524   3.609 -0.4732  0.6224 -1.8586
  472MOL0     H63702  11.595  11.463   3.731 -1.6046 -0.9651 -2.0428
  472MOL0     H63703  11.455  11.600   3.855  0.1341 -0.7699 -0.2803
  472MOL0     H63704  11.077  11.567   4.036  1.9713  0.1885  1.5569
  472MOL0     H63705  10.852  11.681   4.029  2.4766 -1.7273 -0.0008
  472MOL0     H63706   9.591  11.137   4.046 -2.0340 -2.9204  1.1880
  472MOL0     H63707   9.533  11.075   4.278  2.4625 -0.2683 -2.3890
  472MOL0     H63708   9.671  11.294   4.512  1.6383  1.6147  0.5015
  472MOL0     H63709   9.835  11.402   4.634 -1.1230 -3.6453 -1.3219
  472MOL0     H63710   9.981  11.532   4.866  0.0700 -1.3340 -1.7865
  472MOL0     H63711   9.955  11.579   4.705 -0.2781 -1.7559  0.5011
  472MOL0     H63712   9.913  11.818   4.775 -0.1785 -1.0976 -0.4598
  472MOL0     H63713  10.074  11.761   4.824 -0.4805 -3.1112 -2.3621
  472MOL0     H63714   9.969  11.716   5.064 -1.8472  0.4518  1.2983
  472MOL0     H63715   9.819  11.778   4.985  0.2600 -0.1893 -3.3334
  472MOL0     H63716   9.992  11.986   4.941  1.2941 -0.4499  0.7761
  472MOL0     H63717  10.057  11.926   5.096 -2.2561 -0.5052  2.5951
  472MOL0     H63718   9.701  12.067   5.245 -1.3662 -0.6649  0.0453
  472MOL0     H63719   9.551  11.621   4.859 -0.3571 -0.6080  1.4706
  472MOL0     H63720   9.353  11.484   4.741  0.0322  0.0279  1.8460
  473MOL0     O63721   5.135   7.266   7.229 -0.0744 -0.4196  0.2954
  473MOL0     C63722   5.060   7.225   7.323  0.2958 -0.2036  0.0412
  473MOL0     O63723   5.055   7.100   7.374  0.6428  0.6729 -0.3305
  473MOL0     C63724   5.143   7.009   7.323 -1.1132 -0.1357 -0.3708
  473MOL0     C63725   5.286   7.018   7.315  0.1852  0.0012 -0.4597
  473MOL0     C63726   5.373   6.924   7.262  0.7045 -0.8640 -0.4577
  473MOL0     C63727   5.321   6.808   7.214 -0.2522 -0.7836 -0.9385
  473MOL0     O63728   5.416   6.710   7.199 -1.0752  0.0748 -0.2527
  473MOL0     C63729   5.366   6.573   7.189 -0.2898  0.3688  0.7667
  473MOL0     C63730   5.471   6.476   7.161  0.1074  0.8280  0.3573
  473MOL0     C63731   5.587   6.482   7.261 -0.1697 -0.0870 -0.8522
  473MOL0     C63732   5.690   6.367   7.248 -1.1326 -0.4261  0.6304
  473MOL0     C63733   5.820   6.386   7.332  0.0156  0.1564  0.7700
  473MOL0     C63734   5.932   6.460   7.246 -0.5773 -0.3861  0.0440
  473MOL0     C63735   6.060   6.463   7.329  0.4580  0.6889  0.5087
  473MOL0     C63736   6.175   6.497   7.240 -0.9006  0.1164 -0.3613
  473MOL0     N63737   6.302   6.529   7.317  0.4552 -0.1839 -0.8151
  473MOL0     C63738   6.403   6.616   7.276 -0.0922  0.7529 -0.4148
  473MOL0     C63739   6.480   6.623   7.383  0.0788 -1.3848  0.4473
  473MOL0     C63740   6.617   6.683   7.386 -0.3058  0.4386 -1.3081
  473MOL0     C63741   6.629   6.821   7.324 -0.1458  0.1173 -0.0868
  473MOL0     C63742   6.513   6.919   7.372 -1.3466 -0.1047  0.3721
  473MOL0     C63743   6.534   7.065   7.331 -0.6964  0.2069  0.7176
  473MOL0     O63744   6.418   7.137   7.305  0.2328  0.0459 -0.7374
  473MOL0     C63745   6.352   7.121   7.187  0.3766 -0.1317 -0.1335
  473MOL0     C63746   6.386   7.045   7.082 -0.1968 -0.2104 -0.3861
  473MOL0     C63747   6.309   7.022   6.966  0.1679  0.7303 -0.0623
  473MOL0     C63748   6.380   6.971   6.847  0.1415  0.7589 -0.5895
  473MOL0     C63749   6.179   7.068   6.962 -0.1406 -0.6213 -0.0376
  473MOL0     C63750   6.085   7.016   6.863  0.7344  0.3799  0.7946
  473MOL0     O63751   6.011   7.103   6.803  0.0363 -0.7369  0.5301
  473MOL0     C63752   5.948   7.082   6.681 -0.6264 -1.1318 -0.4319
  473MOL0     C63753   5.814   7.102   6.676  0.6815  0.5802 -0.7722
  473MOL0     C63754   5.746   7.097   6.552  0.8587 -0.2054  0.1949
  473MOL0     C63755   5.805   7.078   6.434  0.5297  0.0066 -0.0617
  473MOL0     O63756   5.724   7.068   6.324  0.1013 -0.9607 -0.0279
  473MOL0     C63757   5.787   7.035   6.197 -0.0304  1.2053  1.0786
  473MOL0     C63758   5.691   7.028   6.080  0.1033 -0.6618 -0.0540
  473MOL0     C63759   5.756   6.957   5.960  0.1201 -0.0555 -0.0156
  473MOL0     C63760   5.643   6.963   5.854  0.7354 -0.3139 -0.0487
  473MOL0     C63761   5.686   6.911   5.708 -0.3867 -0.1102 -0.4542
  473MOL0     C63762   5.572   6.939   5.611 -0.9754 -0.1534 -0.6055
  473MOL0     C63763   5.632   6.940   5.462 -0.3584 -0.1937  1.0699
  473MOL0     C63764   5.636   6.807   5.396 -0.1677 -0.2563  0.0154
  473MOL0    Cl63765   5.683   6.827   5.233 -0.4349  0.0873  0.3533
  473MOL0     C63766   5.945   7.046   6.441  0.0753  0.5732  0.2556
  473MOL0     C63767   6.014   7.052   6.562  0.5563 -1.3740 -0.2491
  473MOL0     O63768   6.085   6.892   6.838  0.7494 -0.3592 -0.1857
  473MOL0     C63769   6.139   7.145   7.073  0.6404  1.3078 -0.4332
  473MOL0     C63770   6.223   7.174   7.184  0.6996 -0.0767 -0.0408
  473MOL0     N63771   6.427   6.551   7.487  0.3835 -0.9796 -0.6101
  473MOL0     N63772   6.321   6.493   7.451  0.3830  0.1744 -0.1266
  473MOL0     C63773   5.184   6.799   7.202 -0.0789  0.2458  0.6865
  473MOL0     C63774   5.096   6.895   7.261  0.0641 -0.0012  1.0131
  473MOL0     C63775   4.946   7.318   7.366  0.2521  0.5469 -0.3147
  473MOL0     C63776   4.939   7.450   7.328 -0.2835 -0.1286 -0.2438
  473MOL0     C63777   4.825   7.534   7.365 -1.3235 -0.0585  0.2202
  473MOL0     C63778   4.727   7.487   7.448 -0.4722  0.1712 -0.2301
  473MOL0     O63779   4.619   7.560   7.484  0.5905 -0.0129 -0.0215
  473MOL0     C63780   4.602   7.698   7.440 -0.3055 -0.0222  0.5446
  473MOL0     C63781   4.536   7.697   7.292  0.3822  1.1400 -0.3952
  473MOL0     C63782   4.382   7.657   7.303  0.7356  0.4925  0.1458
  473MOL0     C63783   4.307   7.669   7.166 -0.7004 -0.3933  0.7728
  473MOL0     C63784   4.308   7.801   7.107  0.0349 -0.6257  0.0955
  473MOL0     C63785   4.297   7.913   7.052 -1.2677  0.4459  0.7319
  473MOL0     C63786   4.744   7.359   7.497 -0.1076 -0.2170 -0.5152
  473MOL0     C63787   4.852   7.277   7.459  0.7622 -0.5895 -0.2080
  473MOL0     H63788   5.333   7.104   7.362  0.2940 -0.8315  1.0345
  473MOL0     H63789   5.479   6.943   7.264  0.9054 -1.8264  2.2420
  473MOL0     H63790   5.316   6.550   7.283  2.5813  1.0029  2.5848
  473MOL0     H63791   5.297   6.565   7.104  0.5333  2.1983 -0.1279
  473MOL0     H63792   5.418   6.380   7.162 -0.5259  1.0043 -3.2988
  473MOL0     H63793   5.510   6.492   7.060 -2.0870 -2.1327 -1.0962
  473MOL0     H63794   5.644   6.572   7.237 -0.5126  1.2313  2.6948
  473MOL0     H63795   5.552   6.495   7.363 -0.6662 -0.0065 -1.0314
  473MOL0     H63796   5.637   6.280   7.288  0.3053 -1.3933  0.5312
  473MOL0     H63797   5.720   6.349   7.144  0.9983 -0.0680  1.1257
  473MOL0     H63798   5.815   6.444   7.425  2.0234  1.8045 -0.0585
  473MOL0     H63799   5.855   6.285   7.354  2.3058  0.2805 -1.8333
  473MOL0     H63800   5.947   6.405   7.153  1.1357  3.2519 -2.0698
  473MOL0     H63801   5.889   6.560   7.230  0.8629  0.3519  0.6592
  473MOL0     H63802   6.055   6.544   7.402  1.0233  0.5739  0.6785
  473MOL0     H63803   6.089   6.368   7.375  0.9052  1.4108  1.7594
  473MOL0     H63804   6.157   6.576   7.167 -2.1013  0.0457 -0.1641
  473MOL0     H63805   6.200   6.403   7.190  2.5604  1.2956 -1.1290
  473MOL0     H63806   6.419   6.669   7.182  0.7451  0.2036 -0.5905
  473MOL0     H63807   6.644   6.698   7.491 -2.6983  3.0524 -0.9666
  473MOL0     H63808   6.686   6.609   7.344  0.7019 -0.2017  1.2399
  473MOL0     H63809   6.638   6.822   7.215  0.3519  3.5400 -0.1140
  473MOL0     H63810   6.721   6.866   7.361  2.8865 -3.3231 -2.6480
  473MOL0     H63811   6.499   6.906   7.480  0.8640 -3.9772  0.3406
  473MOL0     H63812   6.419   6.890   7.323 -0.6861  0.5255 -1.3345
  473MOL0     H63813   6.597   7.068   7.241 -0.0744  0.0435  1.1395
  473MOL0     H63814   6.584   7.115   7.415  1.0930  0.2000 -0.2774
  473MOL0     H63815   6.485   7.000   7.076  1.8876  4.0530 -1.2135
  473MOL0     H63816   6.366   6.863   6.836  4.0234  0.3869 -4.7376
  473MOL0     H63817   6.339   7.020   6.758 -2.2602 -0.3238 -0.1542
  473MOL0     H63818   6.487   6.985   6.865 -0.0784  1.1007  0.5268
  473MOL0     H63819   5.760   7.111   6.770  0.9470  2.2198 -0.7508
  473MOL0     H63820   5.639   7.111   6.543  0.6264 -1.6764  0.3483
  473MOL0     H63821   5.865   7.112   6.188 -0.7701  2.1065  2.0896
  473MOL0     H63822   5.824   6.933   6.211 -0.3118  0.8263 -0.7571
  473MOL0     H63823   5.599   6.975   6.109 -1.4622 -0.6474 -4.3006
  473MOL0     H63824   5.669   7.130   6.048  1.0980 -0.6602 -0.7507
  473MOL0     H63825   5.777   6.852   5.983  1.3822  0.2678  0.3893
  473MOL0     H63826   5.834   7.016   5.912 -0.0039  0.3394  0.2633
  473MOL0     H63827   5.547   6.926   5.890  0.4044 -0.3088 -0.9139
  473MOL0     H63828   5.620   7.070   5.845 -1.2165 -0.4080  2.5947
  473MOL0     H63829   5.707   6.805   5.719 -1.1804 -0.2218  0.0640
  473MOL0     H63830   5.773   6.969   5.676 -0.6667  0.3174 -0.4654
  473MOL0     H63831   5.491   6.868   5.630 -0.2746 -0.8131 -0.0380
  473MOL0     H63832   5.528   7.039   5.620 -3.0983 -1.1989  1.9968
  473MOL0     H63833   5.726   6.996   5.457 -1.1984  1.1612 -1.0521
  473MOL0     H63834   5.565   7.002   5.401 -1.5925 -1.5170  1.0166
  473MOL0     H63835   5.539   6.757   5.383 -1.4509  2.4846 -2.2275
  473MOL0     H63836   5.709   6.743   5.445 -0.0608  1.6691  2.5317
  473MOL0     H63837   5.993   7.007   6.352  2.5382 -0.8129  2.0342
  473MOL0     H63838   6.123   7.046   6.563  0.5759 -1.0044 -0.1526
  473MOL0     H63839   6.038   7.184   7.087  0.4462  0.2213  1.4814
  473MOL0     H63840   6.189   7.231   7.270 -2.6682  0.3905 -1.5300
  473MOL0     H63841   5.141   6.714   7.150 -1.8364 -0.1464  2.6031
  473MOL0     H63842   4.989   6.900   7.245 -0.0433 -0.4848  1.5465
  473MOL0     H63843   5.020   7.477   7.261  1.3094 -3.3017  0.1943
  473MOL0     H63844   4.823   7.635   7.327 -3.5128 -0.5247 -1.0328
  473MOL0     H63845   4.543   7.752   7.515  0.6916 -2.4692  3.2654
  473MOL0     H63846   4.696   7.754   7.440 -1.4962  2.0664  0.8678
  473MOL0     H63847   4.598   7.628   7.236 -1.5786  0.3481 -1.7120
  473MOL0     H63848   4.541   7.799   7.254 -0.7644  1.5792  0.5744
  473MOL0     H63849   4.333   7.707   7.386  0.0850 -0.6157  0.4443
  473MOL0     H63850   4.379   7.551   7.331  0.7042  0.1883 -0.9274
  473MOL0     H63851   4.207   7.629   7.186 -1.0012  0.5682  1.2765
  473MOL0     H63852   4.356   7.602   7.095 -1.6706 -0.6876  0.3635
  473MOL0     H63853   4.270   8.011   7.017  0.8086 -0.2482 -3.4536
  473MOL0     H63854   4.672   7.319   7.566 -3.5903 -0.1806 -3.7785
  473MOL0     H63855   4.875   7.183   7.508  1.9280 -0.3189 -0.1933
  474MOL0     O63856   5.520  10.122   0.420  0.4309 -0.0356  0.3241
  474MOL0     C63857   5.491  10.240   0.411  1.0104 -0.1695  0.4875
  474MOL0     O63858   5.366  10.295   0.428 -0.0240 -0.6498 -0.7552
  474MOL0     C63859   5.260  10.220   0.449  0.6148 -0.2064 -0.9386
  474MOL0     C63860   5.172  10.268   0.539 -0.2302 -0.7701 -0.0975
  474MOL0     C63861   5.044  10.209   0.556 -1.1081  0.0178 -0.4545
  474MOL0     C63862   5.006  10.123   0.452  0.3200  0.9482 -0.0699
  474MOL0     O63863   4.870  10.099   0.447 -0.1528  0.7733 -1.0552
  474MOL0     C63864   4.841   9.974   0.383  0.0249 -0.3333  0.5362
  474MOL0     C63865   4.690   9.945   0.400  0.4428 -0.4936  0.7138
  474MOL0     C63866   4.644   9.819   0.336  0.3523 -0.4802  0.6398
  474MOL0     C63867   4.640   9.830   0.187  0.3808  0.3393  0.6621
  474MOL0     C63868   4.554   9.708   0.131  0.6595  0.4075 -0.2136
  474MOL0     C63869   4.400   9.739   0.140  0.5904 -0.4841 -0.5211
  474MOL0     C63870   4.317   9.614   0.107 -0.3704  0.5692  0.0317
  474MOL0     C63871   4.344   9.491   0.192  0.0181  0.3918 -0.6101
  474MOL0     N63872   4.237   9.391   0.173 -0.1417 -0.2535 -0.0858
  474MOL0     C63873   4.210   9.336   0.050 -0.6925 -0.3369  0.6900
  474MOL0     C63874   4.109   9.249   0.059  0.0140 -0.1193  0.2830
  474MOL0     C63875   4.026   9.175  -0.049 -0.3412 -0.4664 -0.6106
  474MOL0     C63876   3.983   9.034  -0.011 -1.3310 -0.5304  0.2087
  474MOL0     C63877   4.015   8.946  -0.136 -0.1852  0.9185 -0.8424
  474MOL0     C63878   3.919   8.816  -0.135 -1.2496  0.1094 -0.4101
  474MOL0     O63879   3.780   8.840  -0.148  0.3506  0.0677  0.1161
  474MOL0     C63880   3.688   8.737  -0.136  0.1858 -0.9288 -0.0669
  474MOL0     C63881   3.555   8.758  -0.159  1.0523 -0.3987  1.4164
  474MOL0     C63882   3.459   8.655  -0.179 -0.3548 -0.3076 -0.0032
  474MOL0     C63883   3.321   8.681  -0.234 -0.4783  0.5083  0.2805
  474MOL0     C63884   3.499   8.522  -0.148 -0.1607 -0.1370  0.7408
  474MOL0     C63885   3.409   8.396  -0.155 -1.0947 -1.2997 -0.2576
  474MOL0     O63886   3.276   8.408  -0.196  0.1435  0.4716  0.2991
  474MOL0     C63887   3.187   8.305  -0.182 -0.3979 -0.3081  0.0735
  474MOL0     C63888   3.113   8.254  -0.295  0.5004  0.0992  0.9475
  474MOL0     C63889   3.031   8.144  -0.283 -0.1329  0.5386 -1.0290
  474MOL0     C63890   3.015   8.073  -0.162 -0.0112 -0.1235  0.1642
  474MOL0     O63891   2.928   7.963  -0.165 -0.2109 -0.3833 -0.0942
  474MOL0     C63892   2.911   7.896  -0.039 -0.0081 -0.5863  1.5049
  474MOL0     C63893   2.779   7.815  -0.057  0.5604 -0.0292 -1.1763
  474MOL0     C63894   2.745   7.759   0.084 -0.9957 -0.5977 -0.8509
  474MOL0     C63895   2.603   7.710   0.079  0.4480  0.0577  0.1515
  474MOL0     C63896   2.486   7.819   0.076  0.8295 -0.5142 -0.7974
  474MOL0     C63897   2.470   7.880   0.209 -0.2821 -1.0611 -1.3182
  474MOL0     C63898   2.359   7.989   0.201  0.9306 -0.9952 -0.7340
  474MOL0     C63899   2.413   8.127   0.265  0.3278  0.1553  0.1975
  474MOL0    Cl63900   2.274   8.206   0.365  0.2244  0.0616 -0.3631
  474MOL0     C63901   3.089   8.123  -0.058  0.3088  0.3895 -0.5877
  474MOL0     C63902   3.170   8.236  -0.060 -0.1931  0.9536 -0.3776
  474MOL0     O63903   3.462   8.290  -0.113  0.2693  0.1858  0.9320
  474MOL0     C63904   3.637   8.503  -0.115  0.6293  0.4233 -0.9296
  474MOL0     C63905   3.726   8.602  -0.113 -0.1886 -0.2958  0.1131
  474MOL0     N63906   4.070   9.257   0.193  0.7620  0.4935  0.6959
  474MOL0     N63907   4.145   9.341   0.256  0.4031  0.1980 -0.3747
  474MOL0     C63908   5.102  10.076   0.351  0.2339 -1.0398 -0.6101
  474MOL0     C63909   5.226  10.125   0.363  0.3677 -0.1526  0.0509
  474MOL0     C63910   5.599  10.338   0.385 -0.2525 -0.5992  0.9709
  474MOL0     C63911   5.580  10.471   0.425  0.6631  0.3618  1.0518
  474MOL0     C63912   5.687  10.564   0.414  0.1633 -0.0199 -0.2275
  474MOL0     C63913   5.813  10.527   0.375 -0.0200  0.2224 -0.4860
  474MOL0     O63914   5.922  10.611   0.393  0.3067 -0.0535  0.2428
  474MOL0     C63915   5.971  10.642   0.265  0.1079 -0.3772 -0.8730
  474MOL0     C63916   6.056  10.771   0.264  0.6862 -0.3742  0.2649
  474MOL0     C63917   6.208  10.757   0.287  0.5567 -0.5183 -0.2615
  474MOL0     C63918   6.282  10.886   0.255 -0.0712 -0.1524  0.8025
  474MOL0     C63919   6.233  11.007   0.316  0.0556  0.2276  0.3490
  474MOL0     C63920   6.186  11.097   0.384  0.1472  0.3621  0.6247
  474MOL0     C63921   5.830  10.401   0.328 -0.2832 -0.5023  0.2172
  474MOL0     C63922   5.724  10.309   0.326 -0.0326 -0.7412 -1.2562
  474MOL0     H63923   5.201  10.346   0.609 -1.8208 -0.2080 -0.0110
  474MOL0     H63924   4.967  10.237   0.627 -0.8455 -0.4678  0.0359
  474MOL0     H63925   4.874   9.987   0.279  3.4487  0.0984  1.5545
  474MOL0     H63926   4.894   9.891   0.430  0.1747 -0.9870 -0.7529
  474MOL0     H63927   4.691   9.928   0.508  1.4030 -1.2179  0.6001
  474MOL0     H63928   4.625  10.030   0.374 -0.9059 -2.0018 -1.1528
  474MOL0     H63929   4.717   9.739   0.347  1.1604  0.2612  0.7348
  474MOL0     H63930   4.548   9.777   0.367  1.7169 -5.2552 -0.7638
  474MOL0     H63931   4.582   9.911   0.141 -0.5489 -0.7645 -0.1703
  474MOL0     H63932   4.744   9.822   0.154 -0.2309 -1.3536 -1.1218
  474MOL0     H63933   4.580   9.685   0.027  0.1554  0.9874 -0.4731
  474MOL0     H63934   4.577   9.621   0.193 -1.6400  0.3518  0.6455
  474MOL0     H63935   4.379   9.769   0.243  1.6654  1.1932 -0.7510
  474MOL0     H63936   4.387   9.821   0.068  1.4418  2.0676  2.0633
  474MOL0     H63937   4.211   9.637   0.113 -0.1913  1.1262  1.6787
  474MOL0     H63938   4.336   9.587   0.003 -1.4623 -1.8840  0.4158
  474MOL0     H63939   4.351   9.524   0.296  0.2992  0.6722 -0.7166
  474MOL0     H63940   4.442   9.449   0.170  0.7064  1.7766 -0.2671
  474MOL0     H63941   4.270   9.357  -0.037  0.1786 -0.9897  1.1194
  474MOL0     H63942   3.944   9.235  -0.089  1.2314  1.6198 -0.9134
  474MOL0     H63943   4.096   9.168  -0.133  0.4775  0.6967 -0.0524
  474MOL0     H63944   3.876   9.034   0.015 -1.9990 -0.8172 -2.2807
  474MOL0     H63945   4.059   8.992   0.055  0.6303 -0.7165 -2.0569
  474MOL0     H63946   4.121   8.929  -0.155 -0.4529  0.9932 -2.4956
  474MOL0     H63947   3.981   8.994  -0.228 -0.0761 -0.2871 -1.5296
  474MOL0     H63948   3.948   8.749  -0.054 -1.6764 -0.4244 -0.6930
  474MOL0     H63949   3.949   8.760  -0.224  0.8133 -0.7128  0.7677
  474MOL0     H63950   3.504   8.852  -0.179  2.0939 -0.5647 -3.1515
  474MOL0     H63951   3.306   8.770  -0.295 -0.7922  2.3746  2.9564
  474MOL0     H63952   3.308   8.602  -0.309  1.4974 -0.9242  1.3537
  474MOL0     H63953   3.243   8.673  -0.158  1.7476 -2.1105  2.4913
  474MOL0     H63954   3.119   8.302  -0.392 -0.3920 -0.0306  0.8175
  474MOL0     H63955   2.980   8.108  -0.372 -3.8290  1.3272  0.5688
  474MOL0     H63956   2.996   7.830  -0.024 -0.0185 -0.6338  1.3572
  474MOL0     H63957   2.907   7.968   0.043  1.2228  1.4481 -0.1003
  474MOL0     H63958   2.689   7.854  -0.105 -1.4690 -2.0296  0.7750
  474MOL0     H63959   2.806   7.734  -0.125  0.6446  0.5240 -1.8201
  474MOL0     H63960   2.764   7.831   0.164 -2.0462  1.6892 -2.5402
  474MOL0     H63961   2.806   7.672   0.113  2.3018  1.5497 -0.8334
  474MOL0     H63962   2.597   7.657  -0.017 -2.0552 -1.2186  0.9265
  474MOL0     H63963   2.594   7.635   0.158 -0.2010  0.8834  0.8817
  474MOL0     H63964   2.387   7.778   0.051  0.9165 -2.4194  1.5562
  474MOL0     H63965   2.501   7.903   0.009  0.7038  1.6744  1.7703
  474MOL0     H63966   2.438   7.802   0.279 -0.6654  0.7092  0.6039
  474MOL0     H63967   2.567   7.921   0.241 -0.9739  0.3249 -0.9183
  474MOL0     H63968   2.285   7.950   0.271  3.1661  3.1139  4.6040
  474MOL0     H63969   2.313   8.007   0.104 -1.5346  0.0430  0.5582
  474MOL0     H63970   2.453   8.200   0.194  3.7115 -0.3278  1.4471
  474MOL0     H63971   2.494   8.107   0.334  0.3237  1.8027  0.7243
  474MOL0     H63972   3.081   8.075   0.039 -0.5880 -2.5875 -2.0357
  474MOL0     H63973   3.232   8.273   0.021  1.9165 -0.6106 -1.1941
  474MOL0     H63974   3.676   8.403  -0.098 -2.0653 -0.7460 -1.1291
  474MOL0     H63975   3.827   8.583  -0.078  0.1055  0.2304 -0.4191
  474MOL0     H63976   5.069  10.003   0.277 -0.0388 -1.1999 -0.3306
  474MOL0     H63977   5.291  10.105   0.278  1.9880  4.5413 -0.1051
  474MOL0     H63978   5.481  10.504   0.455 -1.2396 -2.6230 -1.3210
  474MOL0     H63979   5.667  10.666   0.446 -0.3418  0.0422 -0.7325
  474MOL0     H63980   6.017  10.549   0.232 -2.8869 -2.1422 -0.4392
  474MOL0     H63981   5.898  10.667   0.188 -1.0616  3.2912  1.1998
  474MOL0     H63982   6.015  10.845   0.333  2.3125  0.7089  0.1322
  474MOL0     H63983   6.044  10.812   0.163  2.4892 -1.8131 -0.5830
  474MOL0     H63984   6.239  10.679   0.216 -0.1292 -0.3288 -0.7734
  474MOL0     H63985   6.216  10.734   0.394 -4.8076 -0.8376  0.3478
  474MOL0     H63986   6.276  10.902   0.146  0.6477 -3.3370  0.2002
  474MOL0     H63987   6.387  10.889   0.283 -0.2601  3.0243  1.5647
  474MOL0     H63988   6.125  11.164   0.441 -2.8071 -1.7794  0.2417
  474MOL0     H63989   5.918  10.359   0.281  0.0273 -1.1636  1.3494
  474MOL0     H63990   5.744  10.210   0.288  0.3849 -0.7596 -1.0034
  475MOL0     O63991   2.203   3.470   0.441 -0.5616  0.3938 -0.2945
  475MOL0     C63992   2.143   3.383   0.380  0.4354 -0.3584 -0.2428
  475MOL0     O63993   2.027   3.328   0.421 -0.4665 -0.1142  0.4615
  475MOL0     C63994   1.975   3.357   0.537 -0.3421 -0.0936  0.0461
  475MOL0     C63995   1.835   3.349   0.530 -0.6772 -0.6082 -0.3291
  475MOL0     C63996   1.746   3.352   0.644  0.2833  0.0863 -0.1166
  475MOL0     C63997   1.812   3.368   0.769 -0.6941 -0.4539  0.2245
  475MOL0     O63998   1.752   3.388   0.893 -0.0514 -0.7746  0.2421
  475MOL0     C63999   1.610   3.406   0.879 -0.6007 -0.3502 -0.8938
  475MOL0     C64000   1.546   3.447   1.014  0.1625 -0.3419  0.4274
  475MOL0     C64001   1.611   3.581   1.069  1.1695 -0.0682  0.7076
  475MOL0     C64002   1.527   3.709   1.038 -0.0074 -0.2446  0.2175
  475MOL0     C64003   1.602   3.835   1.066  0.4498 -1.6549  0.4469
  475MOL0     C64004   1.505   3.957   1.062 -0.4422  0.5121  0.3897
  475MOL0     C64005   1.446   3.977   0.919  0.9060 -0.4045 -0.6102
  475MOL0     C64006   1.357   4.092   0.914 -0.3039 -0.0283 -0.2214
  475MOL0     N64007   1.224   4.087   0.980 -0.2412  0.3768  0.1195
  475MOL0     C64008   1.203   4.093   1.109 -1.8246  0.3344  0.4146
  475MOL0     C64009   1.072   4.103   1.137 -0.7229  0.4941  0.3446
  475MOL0     C64010   0.991   4.128   1.264 -0.8325 -0.8604 -0.5984
  475MOL0     C64011   0.878   4.040   1.302  0.3332 -1.3667 -0.3308
  475MOL0     C64012   0.770   4.048   1.190  0.0409  0.0083  0.2570
  475MOL0     C64013   0.641   3.981   1.233  0.5029 -0.3187  0.6959
  475MOL0     O64014   0.538   4.027   1.147  0.8023  0.2038  0.0183
  475MOL0     C64015   0.408   4.044   1.196 -0.6359 -0.5883  0.5496
  475MOL0     C64016   0.305   4.023   1.111  0.4824  0.6084 -0.3479
  475MOL0     C64017   0.169   4.035   1.156 -1.0751  0.0481  0.2592
  475MOL0     C64018   0.069   3.983   1.065  0.3644  0.4292 -0.7137
  475MOL0     C64019   0.145   4.094   1.282  0.4590  0.3168 -0.6544
  475MOL0     C64020   0.009   4.119   1.319 -0.3931  0.1868  0.2115
  475MOL0     O64021  -0.049   4.215   1.248  0.2250  0.1716 -0.3164
  475MOL0     C64022  -0.186   4.226   1.261  0.3749 -0.8459 -0.0722
  475MOL0     C64023  -0.256   4.244   1.384 -0.4866  0.2042  0.5116
  475MOL0     C64024  -0.399   4.255   1.384 -0.6266 -0.4920  0.3601
  475MOL0     C64025  -0.474   4.244   1.270  0.4924 -0.1938  0.2825
  475MOL0     O64026  -0.611   4.257   1.276  0.1174 -0.6599  0.5160
  475MOL0     C64027  -0.684   4.144   1.230  0.2780 -0.6065  0.2344
  475MOL0     C64028  -0.801   4.114   1.318 -0.4048 -0.4027 -1.3031
  475MOL0     C64029  -0.891   3.993   1.292  0.2750 -0.1776 -1.0999
  475MOL0     C64030  -0.967   3.953   1.420 -0.3871 -0.1552 -0.8138
  475MOL0     C64031  -1.068   3.838   1.405 -1.0894 -1.0723  0.2830
  475MOL0     C64032  -1.169   3.849   1.288  0.0085  0.2001  0.2970
  475MOL0     C64033  -1.275   3.969   1.305  0.6722 -0.2050 -0.0046
  475MOL0     C64034  -1.343   3.993   1.443 -1.0765  0.4888 -0.0937
  475MOL0    Cl64035  -1.471   3.858   1.466  0.1569 -0.1401 -0.0370
  475MOL0     C64036  -0.405   4.211   1.152 -0.1799  0.5088  0.0449
  475MOL0     C64037  -0.265   4.209   1.150  0.2098  0.5494 -0.4968
  475MOL0     O64038  -0.038   4.054   1.412  0.1436 -0.0959 -0.1262
  475MOL0     C64039   0.254   4.129   1.362 -0.2795  0.2485  0.9456
  475MOL0     C64040   0.380   4.106   1.317  0.1230  0.3192  0.1320
  475MOL0     N64041   1.022   4.112   1.007  0.9579  0.1613  0.5819
  475MOL0     N64042   1.109   4.105   0.916 -0.1058  0.1005 -0.1932
  475MOL0     C64043   1.951   3.375   0.775  1.0331  0.5163 -0.6391
  475MOL0     C64044   2.034   3.360   0.664 -0.8140 -0.4971 -0.7459
  475MOL0     C64045   2.194   3.338   0.251 -0.0097  0.1678 -0.1480
  475MOL0     C64046   2.113   3.258   0.165 -0.3803 -0.5092 -0.8206
  475MOL0     C64047   2.171   3.203   0.057  0.0184  0.3600  1.0381
  475MOL0     C64048   2.301   3.240   0.009  0.3724  0.1971 -1.5355
  475MOL0     O64049   2.345   3.177  -0.103  0.9456  0.2298  0.1613
  475MOL0     C64050   2.475   3.117  -0.090 -0.5401 -0.5090 -0.2486
  475MOL0     C64051   2.527   3.135  -0.230  0.0472 -0.0058  0.6709
  475MOL0     C64052   2.660   3.057  -0.238 -0.8247  0.2650 -0.7722
  475MOL0     C64053   2.705   3.055  -0.380  0.0001  0.8758 -0.7540
  475MOL0     C64054   2.754   3.178  -0.435  0.4472  0.9020 -1.0524
  475MOL0     C64055   2.796   3.267  -0.499 -0.2196  0.2638  0.4135
  475MOL0     C64056   2.375   3.321   0.096 -0.0223 -0.6176 -0.6237
  475MOL0     C64057   2.321   3.381   0.206 -0.7041 -1.1135  1.1064
  475MOL0     H64058   1.785   3.331   0.436  0.5342  1.2640 -1.3918
  475MOL0     H64059   1.638   3.349   0.642  0.1879 -0.7299  2.6856
  475MOL0     H64060   1.602   3.495   0.815 -2.1375  0.0126 -0.2328
  475MOL0     H64061   1.564   3.313   0.847 -2.7291  0.1105  0.6121
  475MOL0     H64062   1.438   3.453   1.000  0.4291  1.8822 -1.2844
  475MOL0     H64063   1.580   3.375   1.089  1.6479 -1.2039 -1.0046
  475MOL0     H64064   1.613   3.578   1.179 -0.3893 -0.0859  0.7561
  475MOL0     H64065   1.702   3.601   1.013  0.9861 -2.2044 -0.4426
  475MOL0     H64066   1.511   3.715   0.930  4.0681  2.2308 -0.4571
  475MOL0     H64067   1.431   3.714   1.091  1.1239 -0.4256  2.3894
  475MOL0     H64068   1.639   3.841   1.168  3.0840  0.1919 -0.4779
  475MOL0     H64069   1.677   3.862   0.991 -2.1396  1.0010 -1.4418
  475MOL0     H64070   1.430   3.945   1.141  3.4273 -0.0352  4.3655
  475MOL0     H64071   1.571   4.040   1.089  2.0690 -0.9137 -0.9339
  475MOL0     H64072   1.526   3.983   0.845 -0.2198 -1.9657 -2.0227
  475MOL0     H64073   1.388   3.887   0.899 -1.2462  0.8795 -0.3798
  475MOL0     H64074   1.351   4.125   0.809  1.8689  0.7855 -0.1318
  475MOL0     H64075   1.409   4.176   0.960  1.8302 -1.4753  0.1097
  475MOL0     H64076   1.285   4.093   1.181 -0.1282 -2.7315 -1.2881
  475MOL0     H64077   1.063   4.132   1.346 -2.1870  0.0390  0.5967
  475MOL0     H64078   0.956   4.232   1.258  1.6155 -0.0166 -1.6026
  475MOL0     H64079   0.835   4.066   1.399 -2.1522  0.2151 -1.7549
  475MOL0     H64080   0.925   3.941   1.310 -2.3214 -2.6725  0.3846
  475MOL0     H64081   0.801   4.015   1.091  0.6025 -2.6172  1.2137
  475MOL0     H64082   0.747   4.154   1.176 -0.3319 -0.1590 -0.4440
  475MOL0     H64083   0.616   4.003   1.337  1.5959 -0.5895  1.0324
  475MOL0     H64084   0.634   3.872   1.225 -0.1546 -0.2151 -0.3933
  475MOL0     H64085   0.326   3.978   1.014  1.1669 -1.2447  0.6235
  475MOL0     H64086   0.031   3.892   1.112  2.0860 -1.1561 -2.2045
  475MOL0     H64087  -0.009   4.056   1.046  1.0520  1.2475 -0.4429
  475MOL0     H64088   0.115   3.942   0.974  1.2265 -2.1763  0.7791
  475MOL0     H64089  -0.199   4.258   1.475  1.2028 -1.6423 -0.1969
  475MOL0     H64090  -0.454   4.272   1.476 -0.5938 -0.8783  0.4516
  475MOL0     H64091  -0.729   4.166   1.133 -0.1532  0.3944  0.6454
  475MOL0     H64092  -0.619   4.057   1.226  1.0390 -0.0359 -0.1429
  475MOL0     H64093  -0.750   4.096   1.413 -0.1014  1.4309 -1.0735
  475MOL0     H64094  -0.861   4.206   1.315  1.1052  0.6139 -2.9506
  475MOL0     H64095  -0.822   3.913   1.266 -0.5051 -2.2915  2.5560
  475MOL0     H64096  -0.960   4.014   1.210 -1.0623  3.8041  0.7956
  475MOL0     H64097  -0.896   3.930   1.499  0.9736 -1.1012 -2.2510
  475MOL0     H64098  -1.021   4.043   1.453  2.3202  1.3940 -0.2929
  475MOL0     H64099  -1.117   3.828   1.502  1.2852 -0.5316  1.6053
  475MOL0     H64100  -1.012   3.746   1.389 -0.0283 -0.3230 -0.4916
  475MOL0     H64101  -1.113   3.842   1.194  2.3123 -0.8504  1.6595
  475MOL0     H64102  -1.224   3.755   1.293  1.8373 -0.8467  2.9799
  475MOL0     H64103  -1.363   3.948   1.243 -1.3128  1.9455  1.9009
  475MOL0     H64104  -1.231   4.062   1.268 -0.2521 -1.3199 -4.5865
  475MOL0     H64105  -1.395   4.089   1.449 -1.5431  0.1638  1.6740
  475MOL0     H64106  -1.263   3.993   1.518 -2.0505  2.2677  1.0152
  475MOL0     H64107  -0.453   4.201   1.056 -0.2847  2.9047 -0.1891
  475MOL0     H64108  -0.214   4.180   1.059 -0.5510  1.4178 -1.2295
  475MOL0     H64109   0.235   4.181   1.455  1.3281  1.9053  0.3889
  475MOL0     H64110   0.462   4.154   1.370 -0.2137  1.4551 -0.3461
  475MOL0     H64111   1.998   3.385   0.872  1.1247  2.1102 -0.8222
  475MOL0     H64112   2.142   3.357   0.673 -0.9307 -1.8830  0.8399
  475MOL0     H64113   2.018   3.218   0.198  1.5636 -2.4143  3.0547
  475MOL0     H64114   2.121   3.128  -0.003  1.2174 -0.3856  0.9390
  475MOL0     H64115   2.549   3.161  -0.023  0.3069 -1.2511 -0.6857
  475MOL0     H64116   2.460   3.011  -0.066 -0.5241 -1.1630 -2.8145
  475MOL0     H64117   2.540   3.239  -0.262  1.3939 -0.9533 -2.1931
  475MOL0     H64118   2.454   3.100  -0.304 -3.1133  6.4681  0.0084
  475MOL0     H64119   2.649   2.955  -0.200 -2.6292  0.4273 -0.7753
  475MOL0     H64120   2.734   3.107  -0.175 -3.5812  2.2983  1.0540
  475MOL0     H64121   2.625   3.011  -0.440 -1.2555  4.4637 -2.0195
  475MOL0     H64122   2.789   2.985  -0.379 -0.4986  0.2435  1.8787
  475MOL0     H64123   2.839   3.344  -0.560 -0.4910 -1.3717 -1.9968
  475MOL0     H64124   2.479   3.335   0.068  0.1077 -2.7192 -1.4104
  475MOL0     H64125   2.385   3.442   0.270  0.7724 -1.6276  0.1846
  476MOL0     O64126   3.231   4.208   6.434  0.4222  0.2563 -0.2362
  476MOL0     C64127   3.134   4.265   6.493  0.7928 -0.6240 -0.0516
  476MOL0     O64128   3.139   4.394   6.536  0.9203  0.2336  0.7321
  476MOL0     C64129   3.259   4.461   6.553 -0.8579 -0.8700 -0.2946
  476MOL0     C64130   3.386   4.406   6.582  0.7593  0.4144  0.6937
  476MOL0     C64131   3.489   4.490   6.624  0.7168  0.1797 -0.0795
  476MOL0     C64132   3.472   4.631   6.624  0.3240  0.1030 -0.0380
  476MOL0     O64133   3.574   4.700   6.687  0.0687 -0.3146 -0.0108
  476MOL0     C64134   3.703   4.690   6.626  0.2079  0.3924 -0.2294
  476MOL0     C64135   3.739   4.816   6.560 -0.3369 -0.3240 -0.0164
  476MOL0     C64136   3.628   4.884   6.471  0.3774  0.5435  0.0528
  476MOL0     C64137   3.677   5.013   6.416 -0.3977  0.1150  0.0872
  476MOL0     C64138   3.579   5.068   6.315 -0.1529 -0.1055  0.2026
  476MOL0     C64139   3.601   5.217   6.268  1.0103  0.1812  0.5677
  476MOL0     C64140   3.569   5.247   6.123  0.1386 -0.3716 -0.3944
  476MOL0     C64141   3.666   5.177   6.030 -0.0674 -0.2510  0.5151
  476MOL0     N64142   3.657   5.201   5.879 -0.3124  0.5531  0.3020
  476MOL0     C64143   3.753   5.278   5.816 -0.1621 -0.4172 -0.3102
  476MOL0     C64144   3.712   5.269   5.684 -0.7435  0.4678  0.2888
  476MOL0     C64145   3.789   5.325   5.561  0.7782 -0.5484  0.2240
  476MOL0     C64146   3.910   5.242   5.522  0.3908  0.0296 -0.0033
  476MOL0     C64147   4.033   5.332   5.480 -0.1946  0.6324 -0.1310
  476MOL0     C64148   4.013   5.416   5.356  0.1334 -0.3880 -0.0521
  476MOL0     O64149   4.006   5.321   5.247  0.7949  0.4207 -0.2385
  476MOL0     C64150   4.011   5.363   5.116  1.3413  0.3271  0.1298
  476MOL0     C64151   4.028   5.272   5.013  0.4290 -0.5547  0.2111
  476MOL0     C64152   4.014   5.310   4.878  1.2217  0.4016  0.2236
  476MOL0     C64153   4.044   5.192   4.779  0.5715 -1.4101 -0.1468
  476MOL0     C64154   4.003   5.447   4.836  0.1025 -0.0167 -0.6434
  476MOL0     C64155   4.017   5.507   4.699  0.0189 -0.4353  0.1603
  476MOL0     O64156   3.999   5.426   4.594 -0.5705 -0.3021 -0.0591
  476MOL0     C64157   4.014   5.462   4.457  0.3784  0.0960 -0.2198
  476MOL0     C64158   3.918   5.446   4.355 -0.8957  0.3129 -0.5507
  476MOL0     C64159   3.941   5.485   4.224 -0.5995 -1.3772 -0.7542
  476MOL0     C64160   4.060   5.549   4.186  0.2372  0.4859  0.5056
  476MOL0     O64161   4.078   5.583   4.052  0.0804  0.8369  0.3667
  476MOL0     C64162   4.181   5.519   3.979 -0.1027  0.1769 -0.6420
  476MOL0     C64163   4.312   5.593   3.968  0.0481  0.1062  0.2105
  476MOL0     C64164   4.287   5.730   3.913  0.4215  0.3917 -0.0799
  476MOL0     C64165   4.404   5.810   3.867  0.4112 -0.1241 -0.5386
  476MOL0     C64166   4.366   5.902   3.756  0.3590 -0.3412 -0.4997
  476MOL0     C64167   4.293   6.032   3.800 -0.0560  0.8936 -0.0001
  476MOL0     C64168   4.254   6.120   3.682  1.3085 -0.7185  0.3215
  476MOL0     C64169   4.152   6.240   3.722 -0.2596  0.0592  0.1603
  476MOL0    Cl64170   4.000   6.188   3.806  0.1727  0.2959 -0.2449
  476MOL0     C64171   4.159   5.561   4.283  0.4584 -0.1568 -0.6221
  476MOL0     C64172   4.132   5.523   4.417  0.0417 -1.3235  0.5309
  476MOL0     O64173   4.027   5.624   4.687 -0.3291 -1.0096  0.3820
  476MOL0     C64174   3.987   5.534   4.948  0.4893 -1.0426  0.1586
  476MOL0     C64175   3.989   5.493   5.082  0.4300  0.3003  0.9166
  476MOL0     N64176   3.592   5.203   5.676  0.5584  0.1547 -1.1143
  476MOL0     N64177   3.559   5.159   5.793 -0.1664  1.4040  0.3818
  476MOL0     C64178   3.348   4.682   6.597  0.0994 -0.4897  0.0530
  476MOL0     C64179   3.244   4.594   6.565 -0.1013 -0.7039  0.2881
  476MOL0     C64180   3.008   4.186   6.500  0.6448 -0.2178 -0.1378
  476MOL0     C64181   3.007   4.046   6.476  0.5527  0.1691  0.7971
  476MOL0     C64182   2.893   3.967   6.515  0.3348 -0.5994 -0.4631
  476MOL0     C64183   2.783   4.028   6.575 -1.2467  0.1141  0.9783
  476MOL0     O64184   2.659   3.982   6.600  0.4543  0.1854 -0.4503
  476MOL0     C64185   2.652   3.843   6.637 -0.2082 -0.0709 -0.4292
  476MOL0     C64186   2.541   3.821   6.746 -1.1474  0.3124  1.0282
  476MOL0     C64187   2.548   3.682   6.798 -0.6363 -0.4436  0.3031
  476MOL0     C64188   2.427   3.648   6.887 -0.7295  1.0789  0.9187
  476MOL0     C64189   2.431   3.512   6.941  0.9933 -0.2081  0.6853
  476MOL0     C64190   2.430   3.405   6.984 -0.3747 -0.8221 -0.1394
  476MOL0     C64191   2.784   4.172   6.586 -0.1255  0.2806  1.2278
  476MOL0     C64192   2.900   4.249   6.560  0.4721 -0.1552 -0.2052
  476MOL0     H64193   3.397   4.298   6.585 -1.7253  0.0907  0.6690
  476MOL0     H64194   3.565   4.421   6.660 -2.6603 -3.4580  0.6533
  476MOL0     H64195   3.782   4.667   6.699 -1.7073 -0.3840  1.7376
  476MOL0     H64196   3.705   4.605   6.557 -0.9563 -0.2416  0.4787
  476MOL0     H64197   3.767   4.887   6.639  1.2599 -3.3233  2.2935
  476MOL0     H64198   3.825   4.797   6.495 -0.6226  0.6261 -0.7053
  476MOL0     H64199   3.601   4.824   6.383  2.1725  1.0312 -0.8757
  476MOL0     H64200   3.537   4.908   6.528 -1.1038  0.1081 -2.0127
  476MOL0     H64201   3.682   5.087   6.497  1.0684 -0.7074  0.7938
  476MOL0     H64202   3.775   4.993   6.373 -0.2427  0.2202  0.3864
  476MOL0     H64203   3.573   5.006   6.225 -0.3786 -3.6639  2.4612
  476MOL0     H64204   3.475   5.063   6.348 -0.7950 -0.7605 -1.8022
  476MOL0     H64205   3.523   5.269   6.324 -0.9279 -2.4309  0.4858
  476MOL0     H64206   3.699   5.255   6.298  1.8858  0.5080 -2.3774
  476MOL0     H64207   3.466   5.213   6.112 -0.2869  0.9439 -0.5872
  476MOL0     H64208   3.590   5.354   6.114  0.5148 -0.0740  2.7165
  476MOL0     H64209   3.643   5.071   6.041  1.6199 -0.5413  1.4952
  476MOL0     H64210   3.769   5.193   6.062  0.1474  0.9791 -0.6958
  476MOL0     H64211   3.828   5.337   5.867 -0.8083  1.5122 -1.4780
  476MOL0     H64212   3.729   5.328   5.470  2.2640 -1.6023 -0.8402
  476MOL0     H64213   3.799   5.431   5.584 -0.2909 -0.7749  1.9222
  476MOL0     H64214   3.894   5.171   5.441  2.9521 -0.7406  0.0727
  476MOL0     H64215   3.933   5.187   5.614 -1.3342 -0.4852  0.1517
  476MOL0     H64216   4.110   5.259   5.453 -0.7765 -0.2115  0.4441
  476MOL0     H64217   4.058   5.399   5.562  0.3733  1.6434 -1.1032
  476MOL0     H64218   4.100   5.481   5.339 -0.6795  1.2756  1.7275
  476MOL0     H64219   3.923   5.477   5.362 -1.3565 -2.3148 -1.5878
  476MOL0     H64220   4.047   5.169   5.041  0.6176 -0.1236  1.7111
  476MOL0     H64221   3.966   5.183   4.704 -0.0499  0.9496  0.1265
  476MOL0     H64222   4.133   5.204   4.717  0.6287  1.1301  0.3177
  476MOL0     H64223   4.058   5.103   4.841 -0.6579  0.0216  2.3786
  476MOL0     H64224   3.819   5.409   4.383  0.4936 -0.5319  4.2189
  476MOL0     H64225   3.875   5.451   4.144  0.3812 -2.6624 -1.0506
  476MOL0     H64226   4.194   5.425   4.032  0.3283  1.7545  2.2455
  476MOL0     H64227   4.157   5.494   3.875 -0.7902 -1.1625 -0.1817
  476MOL0     H64228   4.360   5.597   4.066  2.3558 -0.7490 -0.7978
  476MOL0     H64229   4.374   5.533   3.901 -1.9041 -0.2761 -1.3543
  476MOL0     H64230   4.242   5.795   3.989  1.3291  2.1188 -0.9612
  476MOL0     H64231   4.214   5.719   3.833  1.0558  2.1893 -0.9541
  476MOL0     H64232   4.430   5.860   3.960 -0.0706  2.9142 -1.9097
  476MOL0     H64233   4.490   5.751   3.834  0.7725  0.6295 -0.9800
  476MOL0     H64234   4.311   5.847   3.679 -0.7322  1.0139 -0.7182
  476MOL0     H64235   4.466   5.931   3.724  1.7755 -1.0937  2.8587
  476MOL0     H64236   4.197   6.002   3.845 -1.0856  2.5516 -0.9974
  476MOL0     H64237   4.357   6.092   3.865  0.4857 -0.3051  0.6075
  476MOL0     H64238   4.212   6.066   3.597  0.4933  1.2814 -0.6066
  476MOL0     H64239   4.341   6.169   3.638 -1.6029  0.5278 -4.7920
  476MOL0     H64240   4.124   6.301   3.635 -0.8001  2.0297  1.6333
  476MOL0     H64241   4.205   6.314   3.783  0.2918  1.4553 -1.9080
  476MOL0     H64242   4.258   5.601   4.265  0.9113  0.5258  2.7423
  476MOL0     H64243   4.208   5.534   4.494  0.2288 -0.6993  0.2638
  476MOL0     H64244   3.970   5.641   4.936 -0.2860 -1.1886 -0.0670
  476MOL0     H64245   3.961   5.562   5.161 -2.5971 -2.0713  2.0770
  476MOL0     H64246   3.318   4.785   6.616 -0.4054 -1.1033  3.0872
  476MOL0     H64247   3.145   4.629   6.540 -0.1847 -0.8556  0.4107
  476MOL0     H64248   3.084   3.983   6.432 -1.3254 -1.2915 -0.5443
  476MOL0     H64249   2.883   3.863   6.487  1.1000 -0.0046 -3.2033
  476MOL0     H64250   2.632   3.784   6.547 -0.2023  1.0304 -1.1602
  476MOL0     H64251   2.749   3.808   6.673 -0.7190  0.9438  2.1255
  476MOL0     H64252   2.444   3.844   6.700 -0.9898  0.2138  0.6365
  476MOL0     H64253   2.559   3.882   6.835 -0.0919  1.6465 -0.0541
  476MOL0     H64254   2.636   3.671   6.863 -0.8476 -1.8687  0.3642
  476MOL0     H64255   2.544   3.613   6.714  0.1818 -0.1003 -0.0318
  476MOL0     H64256   2.332   3.671   6.836 -1.0277  0.4428  1.1868
  476MOL0     H64257   2.412   3.715   6.972 -2.7199  0.7978  0.8490
  476MOL0     H64258   2.404   3.316   7.036 -2.8299  0.2852  0.6591
  476MOL0     H64259   2.693   4.217   6.623  0.2108  0.6209  1.6519
  476MOL0     H64260   2.903   4.357   6.565  1.6097 -0.1156 -1.2978
  477MOL0     O64261   5.634   8.526   7.639  0.5351  0.2757  0.4766
  477MOL0     C64262   5.566   8.539   7.540  1.1030 -0.2888 -0.1825
  477MOL0     O64263   5.584   8.474   7.422 -0.5787  0.4522  0.0677
  477MOL0     C64264   5.700   8.410   7.376 -0.1218  0.2900 -0.4585
  477MOL0     C64265   5.708   8.348   7.250 -0.5730  0.3614  0.6223
  477MOL0     C64266   5.840   8.310   7.193 -0.7069 -0.1482 -0.7642
  477MOL0     C64267   5.956   8.321   7.266  1.0425 -0.0105  0.1124
  477MOL0     O64268   6.062   8.268   7.207 -0.4081 -0.0813  0.1921
  477MOL0     C64269   6.182   8.252   7.293  0.5149 -0.3776 -0.1276
  477MOL0     C64270   6.302   8.180   7.231  0.9043  0.1761 -0.1236
  477MOL0     C64271   6.354   8.252   7.110 -0.7467  1.3252  0.2348
  477MOL0     C64272   6.504   8.285   7.115 -0.4405 -0.1492 -0.1576
  477MOL0     C64273   6.589   8.161   7.105  0.2604  0.5945  0.2154
  477MOL0     C64274   6.587   8.114   6.961 -0.3641 -0.5028 -0.3872
  477MOL0     C64275   6.693   7.995   6.930  0.2048  0.5791 -0.0773
  477MOL0     C64276   6.680   7.948   6.782  0.2349 -0.4444  0.5493
  477MOL0     N64277   6.749   7.824   6.770  0.4630  0.0213 -0.0875
  477MOL0     C64278   6.886   7.809   6.802  0.1605 -0.2440  0.4216
  477MOL0     C64279   6.911   7.675   6.789 -0.5474 -0.6293  0.1416
  477MOL0     C64280   7.037   7.614   6.844  0.6334  0.4348 -0.6237
  477MOL0     C64281   7.096   7.523   6.729  0.1696 -0.8667 -0.3283
  477MOL0     C64282   7.046   7.376   6.746 -0.1827 -0.0064 -0.2645
  477MOL0     C64283   7.091   7.298   6.624  0.0964 -0.0182 -0.1202
  477MOL0     O64284   7.102   7.162   6.664 -0.8748 -0.1844 -0.7643
  477MOL0     C64285   7.212   7.110   6.718 -0.3585  0.6658 -1.6252
  477MOL0     C64286   7.222   6.970   6.733  0.1451 -0.7021 -0.3633
  477MOL0     C64287   7.327   6.901   6.803  0.4083  0.2559  0.3174
  477MOL0     C64288   7.323   6.746   6.810  1.7151  0.9721  0.3401
  477MOL0     C64289   7.435   6.976   6.849  0.2779 -0.0804 -0.1371
  477MOL0     C64290   7.549   6.926   6.934  1.2973  0.6269 -0.2304
  477MOL0     O64291   7.637   7.005   6.984  0.2319 -0.2043 -0.1869
  477MOL0     C64292   7.755   6.962   7.045  0.5674 -0.1706 -0.4359
  477MOL0     C64293   7.834   6.845   7.013  0.6265  0.1398  0.5851
  477MOL0     C64294   7.956   6.825   7.069 -0.4902  0.3420 -0.5518
  477MOL0     C64295   7.993   6.908   7.177 -1.4944  0.4688 -0.4067
  477MOL0     O64296   8.108   6.894   7.258  0.6446 -0.2433  0.2640
  477MOL0     C64297   8.199   6.802   7.215 -0.0588  0.4588  0.4206
  477MOL0     C64298   8.333   6.827   7.280  0.6674  0.3577 -0.7242
  477MOL0     C64299   8.403   6.964   7.235  0.8626 -0.6054  0.0686
  477MOL0     C64300   8.541   6.978   7.296 -0.5484  0.7560  0.8696
  477MOL0     C64301   8.619   7.093   7.219  0.0867  0.3043  0.9307
  477MOL0     C64302   8.568   7.226   7.262 -0.2319  0.0604  0.1105
  477MOL0     C64303   8.674   7.340   7.226 -0.2456  0.7392  0.0705
  477MOL0     C64304   8.643   7.478   7.286 -0.1893  1.0377  0.2957
  477MOL0    Cl64305   8.475   7.503   7.331 -0.2772 -0.0238 -0.4219
  477MOL0     C64306   7.926   7.018   7.211  0.0015 -1.4757  0.6794
  477MOL0     C64307   7.809   7.055   7.143  0.0298 -0.5617  1.0397
  477MOL0     O64308   7.556   6.804   6.962  0.7829 -0.1652  0.3313
  477MOL0     C64309   7.429   7.115   6.839 -0.4007  0.2353  0.8198
  477MOL0     C64310   7.311   7.184   6.785 -0.1582 -0.6113  0.2718
  477MOL0     N64311   6.790   7.608   6.769  0.0693  0.0935 -0.6537
  477MOL0     N64312   6.701   7.698   6.752 -0.1859  0.1166 -0.3942
  477MOL0     C64313   5.949   8.379   7.392 -0.9763  0.4964 -0.4973
  477MOL0     C64314   5.825   8.424   7.441  0.0616  0.1339 -0.3973
  477MOL0     C64315   5.433   8.610   7.560 -0.5419 -0.4105 -0.1619
  477MOL0     C64316   5.353   8.633   7.450 -0.4600  0.3285  0.2242
  477MOL0     C64317   5.231   8.708   7.483 -0.6712  0.5459 -0.0252
  477MOL0     C64318   5.179   8.729   7.609  0.2630 -0.3750 -0.7832
  477MOL0     O64319   5.057   8.786   7.635  0.1987  0.6981 -0.3755
  477MOL0     C64320   4.984   8.743   7.753 -0.4761 -0.1525 -1.1403
  477MOL0     C64321   4.837   8.783   7.735  0.4291  0.4779  0.0997
  477MOL0     C64322   4.767   8.726   7.609  0.1171 -0.3747 -0.4238
  477MOL0     C64323   4.750   8.579   7.622 -0.3332  0.4313 -0.3897
  477MOL0     C64324   4.667   8.536   7.513 -0.5013  1.2964 -0.8763
  477MOL0     C64325   4.608   8.500   7.409 -0.7267 -0.7878 -0.8663
  477MOL0     C64326   5.267   8.690   7.715  0.4947 -0.5256 -0.6130
  477MOL0     C64327   5.385   8.636   7.690 -0.4732  0.0528 -0.1378
  477MOL0     H64328   5.612   8.333   7.201  1.2184 -0.7572 -2.8995
  477MOL0     H64329   5.837   8.254   7.100 -0.1440  0.1795 -0.9868
  477MOL0     H64330   6.223   8.349   7.323 -1.8021 -0.4011  3.7484
  477MOL0     H64331   6.159   8.188   7.379 -2.0770  1.5500  0.7259
  477MOL0     H64332   6.383   8.178   7.305  0.6182  0.5241  0.2062
  477MOL0     H64333   6.270   8.078   7.210 -0.2165  0.0574  1.8481
  477MOL0     H64334   6.331   8.192   7.022  3.4445 -0.6472  0.2699
  477MOL0     H64335   6.317   8.353   7.090  1.4249  2.0371 -0.4347
  477MOL0     H64336   6.534   8.352   7.034  1.5243 -2.3502 -1.3793
  477MOL0     H64337   6.537   8.331   7.209 -1.6049 -3.3097  1.9608
  477MOL0     H64338   6.693   8.189   7.124 -0.4381  1.5395  3.1043
  477MOL0     H64339   6.551   8.086   7.174  0.4523 -1.1465 -1.4930
  477MOL0     H64340   6.490   8.077   6.927 -0.7071 -1.1883  1.2523
  477MOL0     H64341   6.611   8.199   6.896  2.0830 -0.9939 -0.2310
  477MOL0     H64342   6.793   8.032   6.953 -0.7024  2.8072  0.5787
  477MOL0     H64343   6.678   7.909   6.996 -1.7865  0.1948 -0.9472
  477MOL0     H64344   6.718   8.021   6.710  1.2733  0.0320  1.5536
  477MOL0     H64345   6.571   7.939   6.769  0.3184  1.6918 -2.8829
  477MOL0     H64346   6.955   7.892   6.819  1.0016  0.4160 -4.6472
  477MOL0     H64347   7.098   7.699   6.874  1.7080 -0.5032 -0.0771
  477MOL0     H64348   7.017   7.545   6.927 -0.6138  1.1476 -0.3021
  477MOL0     H64349   7.204   7.511   6.721  0.1812 -3.2695  2.0070
  477MOL0     H64350   7.068   7.573   6.636  2.2510 -0.4906 -0.7831
  477MOL0     H64351   6.937   7.365   6.749 -0.1536 -0.0921  1.4941
  477MOL0     H64352   7.088   7.348   6.843 -1.2788 -1.0712 -0.0734
  477MOL0     H64353   7.171   7.341   6.564  1.0405 -0.4304  0.8151
  477MOL0     H64354   7.002   7.304   6.560  0.2967 -0.1553 -0.4164
  477MOL0     H64355   7.154   6.907   6.678 -1.3966  0.5071  0.0748
  477MOL0     H64356   7.331   6.724   6.916 -1.4213 -0.6254  0.3617
  477MOL0     H64357   7.225   6.707   6.780  0.8117  2.6143  1.0349
  477MOL0     H64358   7.399   6.692   6.754 -0.6581 -3.6770  1.1367
  477MOL0     H64359   7.787   6.780   6.940  0.5917  1.8129 -0.9861
  477MOL0     H64360   8.006   6.739   7.026 -1.3450  1.2041 -3.5335
  477MOL0     H64361   8.169   6.698   7.230  1.8027 -0.0394  0.9305
  477MOL0     H64362   8.217   6.807   7.107  0.0898  0.6849  0.4535
  477MOL0     H64363   8.310   6.835   7.387 -2.7408  1.6090 -1.4079
  477MOL0     H64364   8.387   6.736   7.254 -1.3245 -0.6011 -1.7116
  477MOL0     H64365   8.347   7.055   7.258  4.1134  0.9360  2.8311
  477MOL0     H64366   8.415   6.956   7.126  2.9238 -1.3393  0.3099
  477MOL0     H64367   8.530   7.006   7.401 -0.2867 -0.7970  1.3267
  477MOL0     H64368   8.598   6.886   7.284  1.2390  1.6214  2.1244
  477MOL0     H64369   8.622   7.094   7.110  0.3704  2.6991  0.9110
  477MOL0     H64370   8.721   7.075   7.254  1.0579  1.0428 -1.3521
  477MOL0     H64371   8.474   7.253   7.213 -0.4112 -1.5711 -0.4993
  477MOL0     H64372   8.553   7.233   7.370 -1.2308  0.0698 -0.0217
  477MOL0     H64373   8.686   7.337   7.118  0.0917  2.2084  0.0516
  477MOL0     H64374   8.772   7.303   7.260 -0.6422  0.0886  0.5320
  477MOL0     H64375   8.677   7.555   7.216  0.7989 -0.3903 -0.8516
  477MOL0     H64376   8.707   7.487   7.375  2.7711 -2.0643 -1.3056
  477MOL0     H64377   7.966   7.077   7.293  0.1813  0.2011 -0.5513
  477MOL0     H64378   7.762   7.146   7.177  0.9415  0.8794 -1.3497
  477MOL0     H64379   7.525   7.162   6.861  0.2354 -0.4380 -0.3967
  477MOL0     H64380   7.329   7.290   6.775  0.8642 -0.9215 -2.0095
  477MOL0     H64381   6.036   8.392   7.456 -1.2873 -1.1908  0.3312
  477MOL0     H64382   5.844   8.454   7.544 -0.3157  1.6662 -0.7560
  477MOL0     H64383   5.392   8.611   7.351 -0.0103 -1.6999  0.8135
  477MOL0     H64384   5.178   8.738   7.394  1.2778  1.3177 -0.9716
  477MOL0     H64385   4.984   8.636   7.778 -3.8032  0.3565  1.7633
  477MOL0     H64386   5.020   8.792   7.844  0.2842  1.9170 -2.4830
  477MOL0     H64387   4.828   8.890   7.718 -2.5158 -0.0235 -2.4769
  477MOL0     H64388   4.786   8.761   7.829  2.9642  0.9633  1.6648
  477MOL0     H64389   4.810   8.773   7.520  1.7321  1.3504  1.1840
  477MOL0     H64390   4.663   8.760   7.618  0.4115  0.8655 -1.3040
  477MOL0     H64391   4.698   8.560   7.717 -1.7978 -1.8362 -1.5613
  477MOL0     H64392   4.851   8.538   7.615  0.3235  1.9910 -0.6728
  477MOL0     H64393   4.550   8.475   7.323 -0.4824  0.4569 -1.4208
  477MOL0     H64394   5.238   8.712   7.818  1.0085 -0.5869 -0.4534
  477MOL0     H64395   5.446   8.613   7.777 -0.7521  0.6242  0.2131
  478MOL0     O64396   4.777   9.548   8.912  0.8507  0.0947 -0.7603
  478MOL0     C64397   4.674   9.483   8.891 -0.0091  0.9370  0.0797
  478MOL0     O64398   4.556   9.477   8.973 -0.2479  0.2484 -0.2343
  478MOL0     C64399   4.516   9.558   9.072  0.8221 -0.5295 -0.4268
  478MOL0     C64400   4.384   9.534   9.135  0.4478  0.4569 -0.5360
  478MOL0     C64401   4.344   9.610   9.248  0.0570  0.4209  0.2427
  478MOL0     C64402   4.416   9.725   9.280  0.0510 -0.1136 -0.2775
  478MOL0     O64403   4.370   9.801   9.380  0.0440 -0.0213  0.3545
  478MOL0     C64404   4.440   9.796   9.497 -0.1663 -0.8920 -0.4012
  478MOL0     C64405   4.431   9.669   9.576  0.2029  0.9836 -0.4233
  478MOL0     C64406   4.293   9.635   9.623  0.4918 -1.1821 -0.0472
  478MOL0     C64407   4.293   9.501   9.693 -0.5984 -0.5327 -0.6800
  478MOL0     C64408   4.154   9.478   9.772 -0.3248  0.1233  0.6125
  478MOL0     C64409   4.024   9.474   9.684 -0.9387  0.5118  0.3706
  478MOL0     C64410   3.900   9.411   9.744  0.0174  0.2611 -0.3122
  478MOL0     C64411   3.814   9.349   9.635 -0.1913 -1.2296 -0.1018
  478MOL0     N64412   3.867   9.263   9.537  0.1808  0.2493 -0.1322
  478MOL0     C64413   3.921   9.306   9.411 -1.3779  0.1399  0.8955
  478MOL0     C64414   3.980   9.193   9.365  0.5664  0.2507 -0.1656
  478MOL0     C64415   4.045   9.176   9.232  0.3919 -0.4121 -0.2283
  478MOL0     C64416   4.196   9.157   9.227 -0.3269 -0.7960  1.3707
  478MOL0     C64417   4.269   9.244   9.322  0.4486  0.5280 -0.0501
  478MOL0     C64418   4.422   9.245   9.305 -0.1923 -0.5053  0.1084
  478MOL0     O64419   4.493   9.322   9.402 -0.0578  0.0565 -0.2358
  478MOL0     C64420   4.630   9.352   9.369 -0.1736 -0.2764 -0.8751
  478MOL0     C64421   4.706   9.436   9.456 -0.5675 -0.8856 -0.0088
  478MOL0     C64422   4.842   9.479   9.417 -0.3486  0.1430 -0.4027
  478MOL0     C64423   4.909   9.586   9.506 -0.3471 -0.2631 -0.3889
  478MOL0     C64424   4.907   9.413   9.312  0.1428 -0.2990  0.9891
  478MOL0     C64425   5.050   9.436   9.279 -0.3094  0.2025  1.1025
  478MOL0     O64426   5.111   9.330   9.214 -0.5444 -0.5431 -0.4796
  478MOL0     C64427   5.218   9.345   9.123  0.3572 -1.0567  0.0707
  478MOL0     C64428   5.297   9.237   9.087 -0.6468  1.1655  0.5094
  478MOL0     C64429   5.422   9.254   9.016  0.7078  0.4836  0.2251
  478MOL0     C64430   5.459   9.377   8.967  0.4944 -0.0825  0.9617
  478MOL0     O64431   5.574   9.381   8.891  0.0019  1.3520 -0.2632
  478MOL0     C64432   5.604   9.506   8.823 -0.1948 -0.3879 -0.7631
  478MOL0     C64433   5.735   9.478   8.745  0.4963 -0.3446 -0.6001
  478MOL0     C64434   5.802   9.619   8.731  0.7045  0.6176  0.3301
  478MOL0     C64435   5.897   9.637   8.845  0.3719 -0.5434 -0.4110
  478MOL0     C64436   6.027   9.708   8.810  1.1815  0.3204  0.0761
  478MOL0     C64437   6.137   9.610   8.766  0.0092  0.2518  0.0210
  478MOL0     C64438   6.266   9.675   8.732  0.2477 -0.7707  0.1997
  478MOL0     C64439   6.387   9.579   8.721  0.6871  0.4715 -0.7112
  478MOL0    Cl64440   6.527   9.660   8.664 -0.0796  0.1166  0.0450
  478MOL0     C64441   5.373   9.485   9.002 -0.1695 -0.0050  0.1032
  478MOL0     C64442   5.250   9.470   9.069 -0.9622  0.2499  0.7157
  478MOL0     O64443   5.111   9.538   9.311 -0.5304  0.5285 -0.0678
  478MOL0     C64444   4.828   9.328   9.233 -0.9644 -0.5765 -0.1165
  478MOL0     C64445   4.692   9.303   9.257 -0.6993  0.5338  0.4465
  478MOL0     N64446   3.966   9.088   9.460  0.2205 -0.3854 -0.4270
  478MOL0     N64447   3.892   9.134   9.553 -0.2719 -0.1323 -0.4792
  478MOL0     C64448   4.540   9.745   9.216 -0.2313 -0.4167  0.2878
  478MOL0     C64449   4.584   9.666   9.116 -0.1048 -0.3032  0.3041
  478MOL0     C64450   4.684   9.383   8.782  0.7648 -0.5811 -0.0404
  478MOL0     C64451   4.559   9.326   8.747  0.4820  0.4423  1.3306
  478MOL0     C64452   4.557   9.241   8.637 -0.5618  0.9208 -0.4079
  478MOL0     C64453   4.668   9.213   8.558 -0.4296 -0.7628  0.2009
  478MOL0     O64454   4.643   9.145   8.439  0.0985  0.1274 -0.4776
  478MOL0     C64455   4.734   9.152   8.324  0.6885 -0.1162 -0.8870
  478MOL0     C64456   4.653   9.091   8.207  0.3671 -0.5332  0.0858
  478MOL0     C64457   4.734   9.119   8.080 -0.5050 -0.2516  0.0761
  478MOL0     C64458   4.650   9.095   7.959 -0.5629 -0.8060 -0.9174
  478MOL0     C64459   4.692   9.155   7.834  0.2273  0.6828  0.5193
  478MOL0     C64460   4.735   9.199   7.732  0.9307  0.2201  0.7458
  478MOL0     C64461   4.789   9.267   8.601 -0.2630 -0.0984  1.5040
  478MOL0     C64462   4.797   9.343   8.721 -0.2284 -0.1139  0.4369
  478MOL0     H64463   4.323   9.457   9.089 -1.8863  2.0702 -0.3329
  478MOL0     H64464   4.255   9.592   9.307  1.0967 -2.5041  1.1115
  478MOL0     H64465   4.546   9.818   9.485 -0.3435  0.0665 -0.2833
  478MOL0     H64466   4.405   9.876   9.563 -1.7713 -0.8219 -1.2914
  478MOL0     H64467   4.471   9.590   9.512 -0.0140 -0.7619  1.4867
  478MOL0     H64468   4.508   9.687   9.652 -0.5531  0.4529  0.4837
  478MOL0     H64469   4.256   9.712   9.692 -0.8452 -1.9554  0.1327
  478MOL0     H64470   4.226   9.619   9.537  1.9783  2.2222 -2.0322
  478MOL0     H64471   4.322   9.430   9.615  2.1463 -2.3174  1.7322
  478MOL0     H64472   4.377   9.495   9.764  2.0610  2.8347 -3.1767
  478MOL0     H64473   4.180   9.389   9.829 -1.6061 -0.3552  0.4717
  478MOL0     H64474   4.141   9.559   9.844 -0.3114  1.7579 -1.1234
  478MOL0     H64475   4.002   9.574   9.644 -1.6668  0.1192 -0.2401
  478MOL0     H64476   4.057   9.417   9.596 -0.1225  1.2198  0.2018
  478MOL0     H64477   3.939   9.324   9.798 -1.1622  0.9738  1.8299
  478MOL0     H64478   3.844   9.474   9.814 -0.0365  0.1565 -0.2605
  478MOL0     H64479   3.760   9.436   9.598 -1.4373 -1.9040  0.0569
  478MOL0     H64480   3.726   9.298   9.677 -1.9960 -0.5772 -2.8766
  478MOL0     H64481   3.932   9.408   9.376 -2.2276 -0.5061 -1.4806
  478MOL0     H64482   3.998   9.087   9.190  2.5618 -0.8660 -1.8284
  478MOL0     H64483   4.015   9.256   9.163  0.8210 -0.5314 -0.5559
  478MOL0     H64484   4.237   9.185   9.130  1.9507  3.5872  3.3029
  478MOL0     H64485   4.220   9.052   9.247  4.4211 -0.4959 -1.3511
  478MOL0     H64486   4.236   9.203   9.418 -1.9917 -0.4184 -1.2074
  478MOL0     H64487   4.228   9.345   9.310  2.8498  1.2108 -4.5250
  478MOL0     H64488   4.434   9.289   9.205 -3.3337  0.6008  0.1301
  478MOL0     H64489   4.467   9.145   9.304 -1.1508 -0.9580  0.6775
  478MOL0     H64490   4.664   9.472   9.549 -2.2290  0.8374 -1.3507
  478MOL0     H64491   5.005   9.548   9.544 -0.2380  0.9465  0.6003
  478MOL0     H64492   4.927   9.674   9.444 -1.5451  0.4582  0.2486
  478MOL0     H64493   4.837   9.607   9.586 -0.2964  0.4590 -0.5267
  478MOL0     H64494   5.267   9.138   9.118 -1.0207  1.4334  1.0029
  478MOL0     H64495   5.484   9.166   8.999  2.4534  1.7585 -0.3265
  478MOL0     H64496   5.524   9.539   8.756 -0.8500 -1.5154 -0.5692
  478MOL0     H64497   5.626   9.585   8.895 -1.7054 -0.7832  0.1767
  478MOL0     H64498   5.799   9.405   8.794 -0.9743 -1.2523  0.0414
  478MOL0     H64499   5.716   9.442   8.644  0.2740 -3.0961  0.3452
  478MOL0     H64500   5.727   9.697   8.750 -3.2263 -2.4854 -1.0445
  478MOL0     H64501   5.838   9.616   8.628  1.7157 -0.1535  0.6921
  478MOL0     H64502   5.841   9.699   8.916  1.0630  1.9716 -1.9412
  478MOL0     H64503   5.917   9.546   8.902 -0.9441  0.4301  1.7291
  478MOL0     H64504   6.064   9.767   8.894  0.8935 -0.8761  1.0609
  478MOL0     H64505   5.998   9.774   8.727  2.0810  2.1158  1.1240
  478MOL0     H64506   6.160   9.543   8.850 -2.4156 -1.9265 -0.9296
  478MOL0     H64507   6.105   9.553   8.678  2.9530 -2.2845  0.4130
  478MOL0     H64508   6.298   9.750   8.805 -0.9473  1.3656 -1.3625
  478MOL0     H64509   6.252   9.718   8.632  2.8994 -1.1230 -0.4008
  478MOL0     H64510   6.356   9.508   8.644 -2.2119 -0.6314  1.2825
  478MOL0     H64511   6.405   9.516   8.809 -1.5914 -0.9203 -1.1497
  478MOL0     H64512   5.393   9.584   8.962  1.0366 -0.7406 -1.2280
  478MOL0     H64513   5.182   9.554   9.080 -1.9095 -0.3858 -0.1536
  478MOL0     H64514   4.875   9.269   9.155 -3.0399  0.7243 -2.5120
  478MOL0     H64515   4.644   9.238   9.184 -2.0895  2.0862 -0.0882
  478MOL0     H64516   4.595   9.837   9.236 -1.6046  0.5310 -0.1264
  478MOL0     H64517   4.665   9.696   9.050  1.4659 -2.8996  0.9166
  478MOL0     H64518   4.459   9.335   8.789  0.4375  2.1803  0.9010
  478MOL0     H64519   4.465   9.195   8.603 -1.2225  2.0172 -0.1449
  478MOL0     H64520   4.750   9.259   8.308 -1.5186  0.1643 -1.5353
  478MOL0     H64521   4.832   9.107   8.341  0.6571  0.0791 -0.1500
  478MOL0     H64522   4.553   9.136   8.213 -0.9471 -3.3663  1.6164
  478MOL0     H64523   4.637   8.984   8.224  0.8300 -0.5973  0.1122
  478MOL0     H64524   4.824   9.059   8.068 -0.6213  0.0825 -4.0015
  478MOL0     H64525   4.779   9.218   8.087  1.7133 -1.1360 -0.8340
  478MOL0     H64526   4.550   9.137   7.972  0.5624  2.4571 -1.7251
  478MOL0     H64527   4.638   8.988   7.942 -0.1381 -0.6775 -2.1910
  478MOL0     H64528   4.777   9.219   7.635  1.3431 -0.4521  0.7807
  478MOL0     H64529   4.882   9.239   8.551 -2.2186 -1.3018 -1.7446
  478MOL0     H64530   4.896   9.373   8.752  0.4162  1.5252 -2.8553
  479MOL0     O64531   1.344   3.592   3.442 -0.0147 -0.3751  1.3739
  479MOL0     C64532   1.430   3.673   3.415 -0.2180  0.0278 -0.0014
  479MOL0     O64533   1.407   3.802   3.409  0.0255  0.3909  0.2037
  479MOL0     C64534   1.277   3.845   3.364  0.3962 -0.4672  0.0740
  479MOL0     C64535   1.228   3.786   3.247  0.0253 -0.1342 -0.4798
  479MOL0     C64536   1.100   3.829   3.205 -0.3461  0.3473 -0.1054
  479MOL0     C64537   1.031   3.928   3.264  0.2701 -0.1535 -0.6702
  479MOL0     O64538   0.912   3.961   3.211  0.2466 -0.0380 -0.1541
  479MOL0     C64539   0.799   3.965   3.292  0.0083  0.2702 -0.3889
  479MOL0     C64540   0.742   4.110   3.308 -0.3144 -0.1297 -0.4458
  479MOL0     C64541   0.611   4.106   3.378  0.4168 -0.5190 -0.1233
  479MOL0     C64542   0.499   4.085   3.282  0.3646  0.2899  0.3427
  479MOL0     C64543   0.366   4.102   3.362 -0.0565  0.0098 -0.2858
  479MOL0     C64544   0.239   4.100   3.280  0.5227  0.1882  0.1472
  479MOL0     C64545   0.113   4.121   3.369  0.2431 -0.1865 -0.5322
  479MOL0     C64546  -0.005   4.112   3.275  0.1093 -0.7792 -0.9761
  479MOL0     N64547  -0.132   4.136   3.348 -0.2603 -0.8643  0.8034
  479MOL0     C64548  -0.225   4.040   3.345 -0.6669 -0.0470 -0.0354
  479MOL0     C64549  -0.303   4.066   3.449 -0.0759  1.0241 -0.1034
  479MOL0     C64550  -0.439   3.987   3.474 -0.3474 -0.2075  0.1253
  479MOL0     C64551  -0.415   3.869   3.569 -0.1024  0.3065 -0.1861
  479MOL0     C64552  -0.426   3.900   3.715 -0.5650 -0.2200 -0.2347
  479MOL0     C64553  -0.566   3.959   3.754  1.2047  0.5479  1.4304
  479MOL0     O64554  -0.568   3.990   3.891 -0.2350  0.7506  0.1740
  479MOL0     C64555  -0.686   4.018   3.948  0.3724  0.5482  0.5844
  479MOL0     C64556  -0.805   4.028   3.882  0.2114 -0.0278  0.8623
  479MOL0     C64557  -0.920   4.069   3.940 -1.0167 -0.2779 -0.5358
  479MOL0     C64558  -1.045   4.077   3.866 -0.1142 -0.0004 -0.0913
  479MOL0     C64559  -0.914   4.112   4.081 -0.4100  0.2986 -0.3748
  479MOL0     C64560  -1.025   4.184   4.157  0.5007 -0.1914  0.0481
  479MOL0     O64561  -0.989   4.248   4.278 -0.3382 -1.1149  0.1791
  479MOL0     C64562  -1.077   4.269   4.376  1.2579 -0.3370 -0.1169
  479MOL0     C64563  -1.180   4.178   4.395  0.1563 -0.6557 -0.0706
  479MOL0     C64564  -1.278   4.219   4.493 -0.6424 -0.0541  0.7021
  479MOL0     C64565  -1.272   4.337   4.562  0.8924  0.4856 -0.9789
  479MOL0     O64566  -1.366   4.376   4.659 -0.5463 -0.1107 -0.7024
  479MOL0     C64567  -1.482   4.299   4.686  0.3480 -0.3584  0.1260
  479MOL0     C64568  -1.564   4.372   4.798  0.0732  0.0874 -0.9402
  479MOL0     C64569  -1.639   4.488   4.750 -1.5896 -0.3087  0.4177
  479MOL0     C64570  -1.686   4.583   4.862 -0.5298  1.2342  0.2336
  479MOL0     C64571  -1.800   4.666   4.791 -0.7731 -0.4628  0.4004
  479MOL0     C64572  -1.879   4.753   4.885  0.4409  0.6059  0.0284
  479MOL0     C64573  -1.796   4.847   4.985  0.2301 -0.8418 -0.0681
  479MOL0     C64574  -1.899   4.942   5.056 -1.1007  0.1168 -0.3548
  479MOL0    Cl64575  -1.994   4.850   5.184 -0.4207 -0.1899 -0.3406
  479MOL0     C64576  -1.162   4.421   4.537  0.0190 -0.7347 -0.7236
  479MOL0     C64577  -1.074   4.395   4.435  0.1945 -0.3036  0.6546
  479MOL0     O64578  -1.142   4.182   4.114  0.0054 -0.1490  0.5427
  479MOL0     C64579  -0.793   4.091   4.147  0.5434  0.3810  0.3086
  479MOL0     C64580  -0.676   4.050   4.082 -0.4351  0.3444 -0.2472
  479MOL0     N64581  -0.259   4.185   3.505 -0.7141 -0.2487  0.2608
  479MOL0     N64582  -0.154   4.225   3.445 -1.0819 -1.0349  0.1632
  479MOL0     C64583   1.078   3.993   3.380 -0.0646  0.7996  0.1446
  479MOL0     C64584   1.206   3.950   3.422  1.1001  0.7700 -0.3350
  479MOL0     C64585   1.576   3.641   3.441  0.4624  0.1600 -0.0228
  479MOL0     C64586   1.616   3.511   3.453  0.0512  0.4361  0.4984
  479MOL0     C64587   1.749   3.484   3.457 -0.9187 -0.1302  0.1881
  479MOL0     C64588   1.845   3.588   3.448 -0.7074 -0.6618  0.4711
  479MOL0     O64589   1.978   3.583   3.451  0.2991  0.1869  0.5975
  479MOL0     C64590   2.038   3.467   3.405  0.3659  0.6280  0.3328
  479MOL0     C64591   2.135   3.520   3.295 -0.3371 -0.5595  1.3541
  479MOL0     C64592   2.205   3.654   3.329 -0.0492 -0.5021 -0.2864
  479MOL0     C64593   2.306   3.644   3.442  0.0740 -0.3673 -0.0855
  479MOL0     C64594   2.358   3.775   3.484  0.3311 -0.1323  0.2333
  479MOL0     C64595   2.394   3.890   3.506 -0.0840  0.3324  0.7561
  479MOL0     C64596   1.799   3.721   3.451 -0.5141 -0.2707 -0.7920
  479MOL0     C64597   1.664   3.750   3.447 -0.3376 -0.2832  0.0856
  479MOL0     H64598   1.285   3.704   3.204  3.6301  1.2062  1.3246
  479MOL0     H64599   1.041   3.782   3.127 -0.8683 -1.9367  1.5313
  479MOL0     H64600   0.716   3.922   3.235  0.6294 -1.1152 -0.2898
  479MOL0     H64601   0.803   3.904   3.383  0.7146 -1.6149 -1.6181
  479MOL0     H64602   0.809   4.172   3.368  1.5013 -0.1375 -2.3488
  479MOL0     H64603   0.727   4.163   3.214 -0.7390  0.7157  0.0830
  479MOL0     H64604   0.611   4.026   3.452 -2.1530  0.6891  1.3143
  479MOL0     H64605   0.600   4.201   3.432  1.6965 -0.7550  0.5797
  479MOL0     H64606   0.495   4.150   3.194 -0.6024 -0.8996 -0.5330
  479MOL0     H64607   0.500   3.987   3.232 -5.4467  1.1662 -2.3142
  479MOL0     H64608   0.364   4.021   3.435 -3.1293  1.2454  1.2182
  479MOL0     H64609   0.365   4.203   3.404  2.5360 -0.6356  1.5876
  479MOL0     H64610   0.237   4.178   3.203  1.9918 -1.7542 -2.0214
  479MOL0     H64611   0.235   4.003   3.228  0.1000 -0.7753  1.8962
  479MOL0     H64612   0.095   4.041   3.441  0.9698  1.0546  1.0887
  479MOL0     H64613   0.101   4.217   3.420 -0.6480  0.1688 -1.3775
  479MOL0     H64614  -0.013   4.018   3.220 -2.8425  0.7759 -3.4962
  479MOL0     H64615   0.006   4.187   3.196  4.6643  0.6292  0.6730
  479MOL0     H64616  -0.240   3.968   3.265 -3.8026  0.3615  0.0676
  479MOL0     H64617  -0.506   4.062   3.516 -0.7629  0.6797 -2.0126
  479MOL0     H64618  -0.471   3.968   3.372  0.0706  2.9401 -0.6866
  479MOL0     H64619  -0.322   3.815   3.549 -0.4516  0.0560 -1.1890
  479MOL0     H64620  -0.496   3.799   3.546 -0.0311  0.0171  0.4474
  479MOL0     H64621  -0.346   3.962   3.758 -1.0165  0.2396 -0.0441
  479MOL0     H64622  -0.415   3.806   3.769 -1.6371  0.2789  0.9064
  479MOL0     H64623  -0.637   3.884   3.719  1.6988  1.4267 -1.7517
  479MOL0     H64624  -0.577   4.058   3.710 -0.5332  1.7124  4.2382
  479MOL0     H64625  -0.812   4.011   3.775  0.8752 -1.1511  0.9795
  479MOL0     H64626  -1.030   4.029   3.769  0.8390  0.7643 -0.3374
  479MOL0     H64627  -1.123   4.019   3.916  2.2692 -3.1999  0.1356
  479MOL0     H64628  -1.066   4.180   3.834  0.2282 -1.3120 -5.3650
  479MOL0     H64629  -1.187   4.089   4.334  1.8602 -1.3579  0.7135
  479MOL0     H64630  -1.370   4.162   4.483 -0.4551 -0.1009 -1.1919
  479MOL0     H64631  -1.533   4.290   4.589  3.8305 -1.5082 -1.7950
  479MOL0     H64632  -1.454   4.195   4.707  1.2894 -0.6941 -2.3994
  479MOL0     H64633  -1.635   4.302   4.844  0.6604 -0.4554 -0.8338
  479MOL0     H64634  -1.502   4.395   4.886  1.5472 -3.8480 -0.7231
  479MOL0     H64635  -1.720   4.451   4.686 -1.1423  1.2962 -1.1678
  479MOL0     H64636  -1.572   4.545   4.685  0.8127 -1.8221  1.4309
  479MOL0     H64637  -1.737   4.524   4.939  0.5406  0.1424  0.1405
  479MOL0     H64638  -1.610   4.639   4.917 -1.0178  2.9170 -0.7589
  479MOL0     H64639  -1.864   4.617   4.717 -1.8610  1.9211 -0.3504
  479MOL0     H64640  -1.740   4.737   4.733 -2.9916  2.1395  1.0734
  479MOL0     H64641  -1.948   4.815   4.825 -1.8085 -1.2073  0.6076
  479MOL0     H64642  -1.943   4.690   4.947  3.8271 -0.9081  2.2654
  479MOL0     H64643  -1.735   4.911   4.920  1.6143 -0.7959  1.2152
  479MOL0     H64644  -1.732   4.796   5.058 -1.3923 -0.0825  1.9716
  479MOL0     H64645  -1.964   4.988   4.982  1.8579  1.5512 -2.2584
  479MOL0     H64646  -1.845   5.025   5.104 -1.1212  1.1250 -2.0231
  479MOL0     H64647  -1.153   4.513   4.594  0.8832 -1.3677  0.1884
  479MOL0     H64648  -0.994   4.461   4.405 -2.1050  1.4911 -2.0677
  479MOL0     H64649  -0.787   4.123   4.250  0.5809  4.3055 -0.7527
  479MOL0     H64650  -0.582   4.043   4.136 -0.2204 -1.5010 -0.7817
  479MOL0     H64651   1.028   4.075   3.431  1.4394  0.6699  1.9525
  479MOL0     H64652   1.258   3.981   3.512 -0.4749  0.1887  0.8126
  479MOL0     H64653   1.544   3.431   3.469 -2.3341  2.5301  1.0331
  479MOL0     H64654   1.791   3.386   3.475 -0.9502 -0.1406  0.2063
  479MOL0     H64655   2.091   3.422   3.489  1.6486  2.2626  0.4324
  479MOL0     H64656   1.972   3.387   3.368  0.6263 -0.7426  2.6044
  479MOL0     H64657   2.087   3.532   3.198  0.2399 -0.5396  1.0651
  479MOL0     H64658   2.208   3.440   3.277  0.2128  0.6359 -2.4327
  479MOL0     H64659   2.132   3.733   3.348  0.4160  1.0563 -4.0582
  479MOL0     H64660   2.262   3.679   3.239 -0.9931 -1.5688 -1.2158
  479MOL0     H64661   2.385   3.575   3.412  0.3471  0.4234 -1.2705
  479MOL0     H64662   2.256   3.602   3.530 -0.4475  0.7687  0.1879
  479MOL0     H64663   2.424   3.991   3.524  0.9964 -0.1563  1.8152
  479MOL0     H64664   1.872   3.801   3.445 -1.0473  0.2125 -0.8786
  479MOL0     H64665   1.634   3.854   3.461  1.1023 -0.0742  1.8871
  480MOL0     O64666   3.826   3.461   9.087  0.5483 -0.2361 -0.2966
  480MOL0     C64667   3.942   3.484   9.112 -0.3367  0.7447 -1.6448
  480MOL0     O64668   4.011   3.604   9.082  0.0619  0.0685  0.2971
  480MOL0     C64669   3.964   3.708   9.005  0.2446 -0.6551  0.1200
  480MOL0     C64670   3.822   3.726   8.956  0.3324 -0.3045  0.1470
  480MOL0     C64671   3.786   3.839   8.887  0.0651  0.6761  0.7169
  480MOL0     C64672   3.889   3.920   8.844  0.4991  0.1879 -0.0568
  480MOL0     O64673   3.858   4.041   8.792 -0.3389 -0.0738  0.0951
  480MOL0     C64674   3.801   4.136   8.880  0.2361  0.5870 -0.2865
  480MOL0     C64675   3.822   4.282   8.832 -0.2684 -0.9987  1.3002
  480MOL0     C64676   3.685   4.358   8.819 -0.0763  0.2412  0.6731
  480MOL0     C64677   3.708   4.493   8.778 -0.5067 -0.2974 -0.2370
  480MOL0     C64678   3.587   4.584   8.757  0.5019  0.2186 -0.0058
  480MOL0     C64679   3.631   4.732   8.740  0.6888 -0.7723 -0.3346
  480MOL0     C64680   3.519   4.836   8.747  0.2033 -0.0200 -0.0590
  480MOL0     C64681   3.568   4.979   8.727 -0.0665  0.2337  0.2319
  480MOL0     N64682   3.634   5.041   8.841  0.6788  0.2626  0.8472
  480MOL0     C64683   3.669   4.981   8.957 -0.3188  1.1722  0.3526
  480MOL0     C64684   3.771   5.059   9.002  0.6439  0.5783  1.1623
  480MOL0     C64685   3.852   5.044   9.124 -0.2212 -0.1316 -1.5339
  480MOL0     C64686   3.871   4.893   9.158 -0.5914  1.5541  0.7671
  480MOL0     C64687   4.010   4.848   9.199 -0.7289 -0.0732 -0.8299
  480MOL0     C64688   4.073   4.939   9.314 -0.3867 -0.5934 -0.6270
  480MOL0     O64689   4.011   4.939   9.437  0.3422 -0.1640 -0.3799
  480MOL0     C64690   4.059   4.837   9.513 -0.4741 -0.5956  0.4288
  480MOL0     C64691   4.170   4.851   9.591 -0.6559  0.3118  0.7746
  480MOL0     C64692   4.217   4.736   9.657 -0.0989 -0.0498  0.4455
  480MOL0     C64693   4.350   4.759   9.724  0.6094  0.4195  0.5939
  480MOL0     C64694   4.154   4.610   9.654 -0.3029 -0.4667  0.7705
  480MOL0     C64695   4.190   4.496   9.741  1.0535  0.1538  0.0630
  480MOL0     O64696   4.150   4.370   9.693 -0.7759 -0.0881 -0.1107
  480MOL0     C64697   4.210   4.258   9.756 -0.0135  0.0463  0.6345
  480MOL0     C64698   4.126   4.159   9.802 -0.4841 -0.1512  0.2573
  480MOL0     C64699   4.168   4.034   9.850  0.3952  0.8717 -0.1247
  480MOL0     C64700   4.309   4.012   9.869  0.3541 -0.4540  0.4958
  480MOL0     O64701   4.346   3.891   9.910  0.4638 -0.0595 -0.4098
  480MOL0     C64702   4.410   3.798   9.821  0.5765 -0.3564  1.2136
  480MOL0     C64703   4.450   3.675   9.903  0.2746 -0.9740  0.5131
  480MOL0     C64704   4.536   3.579   9.830  0.3524 -0.7553 -0.4374
  480MOL0     C64705   4.575   3.464   9.915  0.3920 -0.2405 -1.1359
  480MOL0     C64706   4.689   3.491  10.012  0.5692  0.6496  0.1864
  480MOL0     C64707   4.737   3.355  10.077 -0.8903 -1.2729 -0.5637
  480MOL0     C64708   4.876   3.359  10.148 -0.0671 -0.5773  0.2408
  480MOL0     C64709   4.913   3.220  10.196 -0.4842 -0.4201  0.7936
  480MOL0    Cl64710   4.818   3.148  10.320 -0.1986 -0.5056  0.2741
  480MOL0     C64711   4.397   4.115   9.834  0.2615 -0.2085  0.7239
  480MOL0     C64712   4.345   4.234   9.778  0.3522 -0.1674  0.6954
  480MOL0     O64713   4.236   4.512   9.852 -0.2428 -0.0665  0.9709
  480MOL0     C64714   4.041   4.605   9.566 -0.8493  0.0659 -0.7115
  480MOL0     C64715   3.995   4.709   9.494 -0.5783 -0.4224  0.1078
  480MOL0     N64716   3.765   5.174   8.925  0.4900 -0.0322 -0.2954
  480MOL0     N64717   3.691   5.167   8.825 -0.1647  0.1986  0.3461
  480MOL0     C64718   4.020   3.899   8.869 -0.8625 -1.4331  1.0506
  480MOL0     C64719   4.055   3.799   8.955 -0.5153 -0.2180  0.0332
  480MOL0     C64720   4.023   3.365   9.151 -0.1532  0.8830  0.1933
  480MOL0     C64721   3.963   3.248   9.209 -0.1792 -0.1472  0.2710
  480MOL0     C64722   4.038   3.132   9.229 -0.3099  0.3002  0.0730
  480MOL0     C64723   4.177   3.132   9.195 -0.2452  1.1901  0.3001
  480MOL0     O64724   4.242   3.023   9.229 -0.1122  0.1813 -0.5296
  480MOL0     C64725   4.384   3.007   9.214  0.9089  0.1195 -0.6282
  480MOL0     C64726   4.466   3.105   9.306  0.2557 -0.5140 -0.4970
  480MOL0     C64727   4.613   3.059   9.329 -0.2834  0.8289  0.2261
  480MOL0     C64728   4.693   3.163   9.403 -0.0130  1.1668  0.1782
  480MOL0     C64729   4.648   3.168   9.540  0.6813 -0.0738 -0.2692
  480MOL0     C64730   4.629   3.181   9.661  0.6240  0.5833  0.0384
  480MOL0     C64731   4.233   3.235   9.123 -0.5856  0.3278  0.1493
  480MOL0     C64732   4.154   3.353   9.107 -0.2453 -0.1820  0.5601
  480MOL0     H64733   3.736   3.667   8.988 -1.0783  0.3275 -2.2009
  480MOL0     H64734   3.685   3.864   8.858 -0.0456  1.2186  1.5340
  480MOL0     H64735   3.695   4.114   8.895  0.3107  1.1951  1.3492
  480MOL0     H64736   3.850   4.116   8.976 -2.5909  0.6156  1.2593
  480MOL0     H64737   3.888   4.338   8.899  0.9332  2.8980 -2.6529
  480MOL0     H64738   3.874   4.271   8.736  0.8581 -4.0149  2.1489
  480MOL0     H64739   3.616   4.327   8.740 -0.9877  1.0577  1.1226
  480MOL0     H64740   3.638   4.339   8.916  2.9748 -0.9307  2.0555
  480MOL0     H64741   3.769   4.550   8.850  1.1990 -0.7827 -1.2405
  480MOL0     H64742   3.760   4.498   8.682 -2.3452  2.0753 -1.2303
  480MOL0     H64743   3.536   4.542   8.670  0.6916  1.5303 -0.7856
  480MOL0     H64744   3.520   4.573   8.842 -0.4077 -0.3498 -0.7817
  480MOL0     H64745   3.701   4.764   8.818 -0.3990  0.9279  0.0023
  480MOL0     H64746   3.692   4.748   8.650 -1.9704  0.0454 -2.1261
  480MOL0     H64747   3.428   4.816   8.690 -0.4590  1.3814  0.4619
  480MOL0     H64748   3.476   4.829   8.848  3.0406  0.6735  1.3089
  480MOL0     H64749   3.488   5.050   8.706  0.6858  1.0519  0.0622
  480MOL0     H64750   3.636   4.998   8.644 -0.2003  2.3897  0.5614
  480MOL0     H64751   3.635   4.890   9.005  0.6595  1.4562  1.6122
  480MOL0     H64752   3.949   5.092   9.105  0.1331 -1.0202 -2.0144
  480MOL0     H64753   3.807   5.085   9.215  2.0619 -2.4225  0.7931
  480MOL0     H64754   3.847   4.828   9.074 -0.2258  1.6593  0.5753
  480MOL0     H64755   3.798   4.865   9.234 -0.8250 -1.2131 -0.3722
  480MOL0     H64756   4.077   4.859   9.112  0.6326 -1.0950  0.0396
  480MOL0     H64757   4.010   4.741   9.223 -1.6175 -0.7451 -3.4152
  480MOL0     H64758   4.088   5.042   9.281  2.3515 -0.6334  0.2209
  480MOL0     H64759   4.177   4.905   9.322 -1.3116 -3.4770  0.2720
  480MOL0     H64760   4.225   4.944   9.595  0.0043 -0.0832  1.2464
  480MOL0     H64761   4.408   4.667   9.713 -0.9317 -0.5543  0.2746
  480MOL0     H64762   4.404   4.851   9.702 -1.8319  1.8609  0.2454
  480MOL0     H64763   4.305   4.766   9.824  0.1547 -1.6258  0.5721
  480MOL0     H64764   4.019   4.176   9.799 -0.4579  0.6159  2.0852
  480MOL0     H64765   4.102   3.956   9.887  1.4835  0.1620  0.3692
  480MOL0     H64766   4.356   3.771   9.730  0.9431  1.7245  0.3273
  480MOL0     H64767   4.498   3.848   9.778  0.1241 -0.3377  0.2931
  480MOL0     H64768   4.495   3.704   9.998 -3.1385  0.8876  1.7434
  480MOL0     H64769   4.363   3.619   9.939 -0.8401  0.4515  0.1077
  480MOL0     H64770   4.627   3.628   9.797  2.2183 -1.2860  3.3633
  480MOL0     H64771   4.474   3.542   9.748 -0.8915 -0.2002  0.2078
  480MOL0     H64772   4.491   3.428   9.974  0.2282  1.5976 -0.1739
  480MOL0     H64773   4.614   3.393   9.841  0.8756  0.3413 -1.4445
  480MOL0     H64774   4.670   3.562  10.093  1.8969 -1.0918  2.1645
  480MOL0     H64775   4.769   3.533   9.950 -0.7513  1.0341 -1.3222
  480MOL0     H64776   4.651   3.335  10.142 -1.3547 -0.1083 -0.7838
  480MOL0     H64777   4.740   3.287   9.992  0.2602 -2.3926  0.3351
  480MOL0     H64778   4.879   3.429  10.231 -1.0337 -0.1482 -0.0799
  480MOL0     H64779   4.962   3.390  10.088 -0.1411 -1.7098 -0.4742
  480MOL0     H64780   5.015   3.220  10.236 -0.5389 -0.0447  0.9414
  480MOL0     H64781   4.892   3.156  10.110 -0.0687  0.9908 -0.3840
  480MOL0     H64782   4.505   4.109   9.844  0.7323  0.6698 -2.6569
  480MOL0     H64783   4.415   4.309   9.743 -1.3769  0.2194 -2.2349
  480MOL0     H64784   3.987   4.511   9.574 -2.2488  0.8593 -0.5244
  480MOL0     H64785   3.909   4.696   9.428 -1.1351 -0.5503  0.8483
  480MOL0     H64786   4.089   3.973   8.831 -2.2352 -0.2814  0.7142
  480MOL0     H64787   4.156   3.775   8.985  0.4278  0.8885 -2.0394
  480MOL0     H64788   3.859   3.260   9.235 -0.4429  2.9767 -1.6898
  480MOL0     H64789   3.995   3.044   9.275  1.0785 -1.8984 -2.5454
  480MOL0     H64790   4.407   2.905   9.245 -0.0015  0.1054  0.0268
  480MOL0     H64791   4.428   3.021   9.114 -0.4441  1.2917 -1.0991
  480MOL0     H64792   4.414   3.117   9.402 -0.0454 -0.3477 -0.6798
  480MOL0     H64793   4.465   3.201   9.253 -2.5920 -0.0926  0.1547
  480MOL0     H64794   4.651   3.042   9.228 -1.2677  2.4808 -0.4590
  480MOL0     H64795   4.621   2.964   9.383 -1.5720  0.2862 -0.4937
  480MOL0     H64796   4.689   3.260   9.353  0.1032  1.3533  0.5265
  480MOL0     H64797   4.797   3.131   9.407 -0.0705  1.0799  2.4655
  480MOL0     H64798   4.603   3.181   9.765  0.2538  0.5273 -0.0513
  480MOL0     H64799   4.338   3.234   9.098 -0.4615 -2.9474  0.3920
  480MOL0     H64800   4.213   3.442   9.087  0.2246 -0.9046 -1.4807
  481MOL0     O64801   4.644   8.368   2.074  0.0362  0.7168  0.0833
  481MOL0     C64802   4.664   8.361   1.952 -0.3091  0.2223 -0.5832
  481MOL0     O64803   4.583   8.304   1.857 -0.0299  0.5428 -0.6946
  481MOL0     C64804   4.453   8.304   1.895  0.3980  0.3013  0.8445
  481MOL0     C64805   4.384   8.181   1.877  0.1990 -0.2275 -1.0144
  481MOL0     C64806   4.255   8.160   1.927 -0.1103  0.9430  0.4493
  481MOL0     C64807   4.183   8.264   1.986 -0.9415 -0.0995  0.8315
  481MOL0     O64808   4.051   8.270   2.008 -0.2410  0.3069  0.1781
  481MOL0     C64809   3.983   8.144   2.066  0.6891 -0.2121  0.9366
  481MOL0     C64810   3.825   8.157   2.087  0.2078 -0.1358  0.4482
  481MOL0     C64811   3.759   8.028   2.146  0.2155 -0.4646 -0.8823
  481MOL0     C64812   3.747   7.918   2.047 -0.3010  0.6641  0.3548
  481MOL0     C64813   3.631   7.816   2.063  0.4710  0.4223 -0.2814
  481MOL0     C64814   3.634   7.735   2.196  0.0145 -0.5611 -0.5003
  481MOL0     C64815   3.518   7.628   2.198 -0.4049 -0.8887  0.5017
  481MOL0     C64816   3.377   7.699   2.215 -0.2418  0.2032 -0.0005
  481MOL0     N64817   3.257   7.615   2.258 -0.7285  0.3565  0.5589
  481MOL0     C64818   3.240   7.556   2.380 -0.8584  0.2462  0.0224
  481MOL0     C64819   3.113   7.504   2.384 -0.4101 -1.0080 -0.6182
  481MOL0     C64820   3.053   7.433   2.505  0.1762 -0.2014  0.4897
  481MOL0     C64821   2.987   7.294   2.479  0.2081  0.1206  1.0648
  481MOL0     C64822   2.838   7.322   2.431  0.4329  0.1058 -0.1834
  481MOL0     C64823   2.800   7.251   2.300 -0.7984 -0.3170 -0.4242
  481MOL0     O64824   2.809   7.117   2.300  0.1920  0.0659 -0.3085
  481MOL0     C64825   2.715   7.044   2.371  0.0926 -0.3235  0.9404
  481MOL0     C64826   2.734   6.911   2.355  1.0305  0.1316  0.9791
  481MOL0     C64827   2.649   6.816   2.417  0.7791  0.6023  0.2857
  481MOL0     C64828   2.705   6.671   2.401 -0.0162 -0.0190  0.1347
  481MOL0     C64829   2.531   6.861   2.484 -0.3964 -0.0046  0.3680
  481MOL0     C64830   2.438   6.773   2.554 -0.1286 -0.0158 -0.0978
  481MOL0     O64831   2.317   6.829   2.594 -0.5498 -0.3187  0.5049
  481MOL0     C64832   2.217   6.750   2.647 -0.6766 -0.5957  0.1199
  481MOL0     C64833   2.099   6.739   2.574  0.4791  0.2634 -0.0171
  481MOL0     C64834   1.997   6.654   2.618  0.2533  1.0907  0.3229
  481MOL0     C64835   2.000   6.590   2.740 -0.3576 -0.2725 -0.2661
  481MOL0     O64836   1.883   6.525   2.784  0.9998  0.3541 -0.1938
  481MOL0     C64837   1.870   6.495   2.922  0.4973 -0.2448 -0.2246
  481MOL0     C64838   1.728   6.445   2.955 -0.0191  0.5339 -0.1494
  481MOL0     C64839   1.690   6.329   2.869 -0.5275 -0.0204  0.3985
  481MOL0     C64840   1.550   6.294   2.900  0.3091  1.2403  0.0990
  481MOL0     C64841   1.515   6.145   2.871 -0.7009 -0.3801 -0.0710
  481MOL0     C64842   1.390   6.091   2.952  0.0720  0.2154  0.5769
  481MOL0     C64843   1.255   6.158   2.901  0.2706 -0.6533  0.3966
  481MOL0     C64844   1.142   6.155   3.007 -0.1679  0.9563  0.0574
  481MOL0    Cl64845   1.169   6.023   3.130 -0.5722 -0.5304 -0.0081
  481MOL0     C64846   2.121   6.599   2.809 -0.2866  0.2712  0.1282
  481MOL0     C64847   2.231   6.681   2.770 -0.8491 -0.6638  0.2928
  481MOL0     O64848   2.465   6.662   2.588  0.0414  0.4167 -0.4172
  481MOL0     C64849   2.515   6.997   2.501 -0.1130 -1.0383  0.9573
  481MOL0     C64850   2.614   7.091   2.451 -0.0890  0.0765  0.3494
  481MOL0     N64851   3.051   7.538   2.263  0.4311  0.6733  0.7285
  481MOL0     N64852   3.137   7.596   2.190  0.1777 -0.3823 -0.8556
  481MOL0     C64853   4.263   8.386   2.007  0.2600  0.6323  0.4752
  481MOL0     C64854   4.393   8.403   1.973 -0.2323 -0.2633 -0.1055
  481MOL0     C64855   4.792   8.425   1.915  0.4021  0.1972  0.0060
  481MOL0     C64856   4.803   8.452   1.780  0.2574  0.1265 -1.0166
  481MOL0     C64857   4.914   8.529   1.734 -1.0240  0.2659 -0.8948
  481MOL0     C64858   5.009   8.579   1.819  0.5782  0.0647 -0.3020
  481MOL0     O64859   5.099   8.667   1.766  0.3393 -0.3359 -0.6106
  481MOL0     C64860   5.240   8.649   1.802 -0.0205  0.4469 -0.0135
  481MOL0     C64861   5.348   8.689   1.700  0.1376 -0.5865  0.1905
  481MOL0     C64862   5.316   8.602   1.570  0.7801  0.4320  0.7996
  481MOL0     C64863   5.426   8.498   1.564  0.0448 -0.2494 -0.1235
  481MOL0     C64864   5.446   8.415   1.681  0.0126 -0.5198 -0.0838
  481MOL0     C64865   5.465   8.343   1.771  0.2490  0.1568 -0.4452
  481MOL0     C64866   5.002   8.539   1.954  0.2266  0.5332  0.3551
  481MOL0     C64867   4.891   8.468   2.004  0.9988  0.9312 -0.3127
  481MOL0     H64868   4.432   8.092   1.838 -1.6236 -1.3381 -0.8512
  481MOL0     H64869   4.212   8.061   1.914 -1.1027  0.8933  3.3780
  481MOL0     H64870   3.999   8.054   2.006 -1.9201  0.4162 -0.8928
  481MOL0     H64871   4.033   8.142   2.163  1.5858 -1.7631  0.4793
  481MOL0     H64872   3.816   8.230   2.168  0.1552 -0.8932  1.1379
  481MOL0     H64873   3.773   8.206   2.003 -1.0755  1.2893  1.9968
  481MOL0     H64874   3.811   7.987   2.233 -0.2476 -0.0478 -0.4053
  481MOL0     H64875   3.661   8.066   2.176  0.3642  1.1814 -2.3190
  481MOL0     H64876   3.721   7.973   1.956 -0.4241  2.1613  1.2513
  481MOL0     H64877   3.835   7.856   2.028 -0.3033  1.3875 -2.5208
  481MOL0     H64878   3.541   7.876   2.053 -0.8231 -0.8801  2.3983
  481MOL0     H64879   3.635   7.751   1.976 -2.2002 -2.8839  1.8114
  481MOL0     H64880   3.729   7.686   2.218 -0.9174 -0.7391  4.1930
  481MOL0     H64881   3.621   7.796   2.286 -1.0013 -1.2358 -0.1668
  481MOL0     H64882   3.528   7.564   2.110  0.7112  0.2074 -0.2043
  481MOL0     H64883   3.534   7.572   2.290  1.1655 -1.3024  0.0100
  481MOL0     H64884   3.348   7.735   2.116  0.4900  0.8273  0.0014
  481MOL0     H64885   3.379   7.776   2.293 -0.5982 -0.8210  1.0587
  481MOL0     H64886   3.299   7.571   2.469 -0.6083 -1.5808  0.1978
  481MOL0     H64887   3.147   7.422   2.560  1.8947  0.7500 -2.0473
  481MOL0     H64888   2.977   7.492   2.557 -0.9545  0.4587 -1.7814
  481MOL0     H64889   2.997   7.238   2.572 -0.1881  0.4428  1.3051
  481MOL0     H64890   3.030   7.234   2.399 -3.1387  0.7110 -1.3764
  481MOL0     H64891   2.821   7.427   2.404  0.2034  0.2019  0.3181
  481MOL0     H64892   2.779   7.291   2.518  1.8296 -0.7285  0.4819
  481MOL0     H64893   2.879   7.296   2.240  0.5963 -0.6469  1.0932
  481MOL0     H64894   2.701   7.272   2.257 -1.8141 -1.9531  0.9595
  481MOL0     H64895   2.824   6.885   2.300  0.6627 -1.2770  1.0165
  481MOL0     H64896   2.644   6.622   2.325  3.4289  0.5740 -3.3219
  481MOL0     H64897   2.808   6.661   2.364 -0.5315  0.2997 -1.4729
  481MOL0     H64898   2.700   6.615   2.494  2.3595  0.2229  0.4871
  481MOL0     H64899   2.098   6.795   2.481 -1.1601 -3.0076 -2.1856
  481MOL0     H64900   1.912   6.640   2.552  2.3872 -0.7654 -2.2224
  481MOL0     H64901   1.949   6.433   2.965  3.8093  3.3365 -0.5507
  481MOL0     H64902   1.879   6.591   2.975 -0.2554  0.6450 -1.6545
  481MOL0     H64903   1.746   6.407   3.056  4.9522 -4.0493 -2.2702
  481MOL0     H64904   1.657   6.527   2.946  0.3431  0.9686  0.7851
  481MOL0     H64905   1.744   6.237   2.892 -2.6481 -1.0258  1.7013
  481MOL0     H64906   1.690   6.349   2.762 -2.3029  0.3507  0.4284
  481MOL0     H64907   1.523   6.312   3.005 -4.8717 -1.0735 -0.5687
  481MOL0     H64908   1.483   6.360   2.844  0.8634 -0.0150 -2.1673
  481MOL0     H64909   1.590   6.085   2.923 -0.4100  0.6658  0.7543
  481MOL0     H64910   1.510   6.132   2.762 -1.0927  1.3647 -0.3008
  481MOL0     H64911   1.381   5.982   2.955  1.1284  0.1167  0.4954
  481MOL0     H64912   1.404   6.129   3.053 -0.9953  1.0494  0.4319
  481MOL0     H64913   1.214   6.100   2.817 -1.0372 -0.3746  0.8104
  481MOL0     H64914   1.271   6.262   2.872 -2.8146 -0.6379 -1.7259
  481MOL0     H64915   1.052   6.139   2.947 -1.6714 -2.5486  2.8799
  481MOL0     H64916   1.141   6.257   3.045 -2.2924  0.7901  0.5674
  481MOL0     H64917   2.114   6.567   2.912  0.1504 -0.7617 -0.1433
  481MOL0     H64918   2.319   6.692   2.832  1.6053  2.8323 -3.3518
  481MOL0     H64919   2.424   7.038   2.544  0.1507  2.2493 -1.2436
  481MOL0     H64920   2.602   7.199   2.459  2.1928  0.7455 -2.9973
  481MOL0     H64921   4.212   8.475   2.043  0.3786  1.2134 -0.7384
  481MOL0     H64922   4.441   8.498   1.992  1.1717 -1.2662  1.7001
  481MOL0     H64923   4.726   8.420   1.711 -1.3777  0.5867  0.5223
  481MOL0     H64924   4.928   8.544   1.628  0.3686  1.0548 -0.6219
  481MOL0     H64925   5.259   8.708   1.893 -1.2402  1.0652 -0.1317
  481MOL0     H64926   5.244   8.544   1.832 -4.5565 -0.1395 -0.6996
  481MOL0     H64927   5.448   8.693   1.744  0.2578  0.9912 -0.1729
  481MOL0     H64928   5.319   8.793   1.681  0.8807 -0.4893 -0.4862
  481MOL0     H64929   5.317   8.667   1.482 -0.5087  1.0961  1.2377
  481MOL0     H64930   5.213   8.566   1.577  0.2144  1.9954  1.1163
  481MOL0     H64931   5.522   8.548   1.550 -0.2005  0.1980 -0.1978
  481MOL0     H64932   5.403   8.429   1.482 -1.8211 -0.0596  0.1904
  481MOL0     H64933   5.496   8.270   1.843  3.1067  1.1923 -0.5044
  481MOL0     H64934   5.068   8.576   2.032  1.3690 -0.4174 -0.1250
  481MOL0     H64935   4.870   8.456   2.110  0.0171  1.1271 -0.4678
  482MOL0     O64936   5.990   2.802   6.236  0.4630  0.4184  1.2865
  482MOL0     C64937   5.968   2.701   6.169 -0.0175 -0.0560  0.6983
  482MOL0     O64938   5.891   2.594   6.208 -0.1259  0.1215  0.2656
  482MOL0     C64939   5.847   2.571   6.337 -0.7170 -0.0083  0.0560
  482MOL0     C64940   5.826   2.440   6.379  0.8941  0.5106 -0.2922
  482MOL0     C64941   5.786   2.417   6.513  0.0000 -0.2251 -0.3447
  482MOL0     C64942   5.767   2.522   6.606 -0.3404  0.4544 -0.8047
  482MOL0     O64943   5.730   2.490   6.737  0.1510 -0.5532 -0.4452
  482MOL0     C64944   5.616   2.558   6.796  1.0706  0.3085  0.4371
  482MOL0     C64945   5.576   2.485   6.920 -0.4103 -0.6922 -0.9781
  482MOL0     C64946   5.464   2.391   6.915 -0.2821  0.2515 -0.0608
  482MOL0     C64947   5.466   2.285   7.020 -0.2735  0.1849  0.0624
  482MOL0     C64948   5.400   2.162   6.975  0.0689 -0.6932  0.8181
  482MOL0     C64949   5.392   2.053   7.088  0.2376 -0.3005  0.9503
  482MOL0     C64950   5.293   2.088   7.210 -0.5818 -0.9594 -0.4645
  482MOL0     C64951   5.354   2.060   7.353  0.8715  0.2571  0.2326
  482MOL0     N64952   5.438   2.169   7.393 -0.6281 -0.6639 -0.6657
  482MOL0     C64953   5.399   2.298   7.410  0.3297 -1.2322  0.1304
  482MOL0     C64954   5.512   2.366   7.424 -0.2602 -0.6662 -0.8209
  482MOL0     C64955   5.533   2.511   7.446  1.3116  0.1820 -0.4985
  482MOL0     C64956   5.447   2.588   7.342  0.1711 -0.6666  0.2220
  482MOL0     C64957   5.474   2.740   7.356  0.1642 -0.2518  0.3658
  482MOL0     C64958   5.391   2.825   7.255  0.4714  1.1002  1.1296
  482MOL0     O64959   5.363   2.768   7.129  0.4722  0.4538 -0.6007
  482MOL0     C64960   5.269   2.825   7.040 -0.7465 -0.0871  0.4199
  482MOL0     C64961   5.204   2.941   7.076 -0.0658 -0.0718 -0.2419
  482MOL0     C64962   5.128   3.006   6.980  0.3996 -1.2194 -0.5036
  482MOL0     C64963   5.101   3.150   7.020 -0.1581 -1.0227  0.1840
  482MOL0     C64964   5.102   2.957   6.852  0.2935  0.6101 -0.0812
  482MOL0     C64965   5.033   3.034   6.748  0.0995  0.3266 -0.0889
  482MOL0     O64966   4.908   3.000   6.717  0.1328  0.6423  0.4079
  482MOL0     C64967   4.835   2.918   6.800 -0.6211 -0.2354  0.3109
  482MOL0     C64968   4.780   2.967   6.919 -0.4145 -0.5053  0.9454
  482MOL0     C64969   4.707   2.897   7.013 -0.5310  0.0987  1.0618
  482MOL0     C64970   4.692   2.756   6.986  0.0213  0.0314  0.8254
  482MOL0     O64971   4.622   2.667   7.069  0.0407 -0.0606  0.4471
  482MOL0     C64972   4.631   2.684   7.206  0.3704 -0.0572  0.9031
  482MOL0     C64973   4.617   2.533   7.269  0.2315  0.6833 -0.2716
  482MOL0     C64974   4.563   2.532   7.412 -0.4724 -0.4383  1.9714
  482MOL0     C64975   4.669   2.546   7.519 -0.3299 -0.1164 -0.4130
  482MOL0     C64976   4.627   2.529   7.661  0.0822  0.6443  0.2864
  482MOL0     C64977   4.575   2.385   7.681 -0.5223 -0.2725 -0.0985
  482MOL0     C64978   4.575   2.368   7.827 -0.1946  0.0604 -0.9428
  482MOL0     C64979   4.501   2.245   7.872  0.7303  0.2458  0.1541
  482MOL0    Cl64980   4.600   2.108   7.821 -0.2497 -0.5697 -0.2101
  482MOL0     C64981   4.749   2.698   6.864  0.1513  0.1713 -0.7108
  482MOL0     C64982   4.828   2.782   6.778  0.0949 -0.1025  1.3627
  482MOL0     O64983   5.098   3.117   6.686 -0.0961 -0.5128  0.2526
  482MOL0     C64984   5.163   2.837   6.819  1.1085 -0.4574  0.3972
  482MOL0     C64985   5.238   2.767   6.915 -0.3662 -0.3225 -0.0889
  482MOL0     N64986   5.624   2.276   7.425  0.2309  0.6856 -0.6840
  482MOL0     N64987   5.573   2.157   7.413  1.3187 -1.0355 -1.0084
  482MOL0     C64988   5.778   2.650   6.567  0.9505  0.6713 -0.0674
  482MOL0     C64989   5.821   2.672   6.434 -0.4275  0.4717 -0.4377
  482MOL0     C64990   6.051   2.674   6.043  0.0881  0.4605 -0.4157
  482MOL0     C64991   6.116   2.777   5.977  1.2497 -0.0833  0.0731
  482MOL0     C64992   6.212   2.750   5.879  0.5827 -0.5403  0.0108
  482MOL0     C64993   6.241   2.620   5.833  0.3613 -0.3142  0.1734
  482MOL0     O64994   6.326   2.605   5.723  0.2525 -0.0025  0.4357
  482MOL0     C64995   6.391   2.475   5.700 -0.2658  0.3115 -0.7059
  482MOL0     C64996   6.492   2.481   5.585  0.1229 -0.2334 -0.2184
  482MOL0     C64997   6.622   2.555   5.621 -0.0272 -0.5829  0.1427
  482MOL0     C64998   6.714   2.597   5.498  0.5463 -0.0972  0.2005
  482MOL0     C64999   6.757   2.482   5.420  0.4990  0.7122  0.6136
  482MOL0     C65000   6.788   2.382   5.358 -0.1539  0.8778 -0.2863
  482MOL0     C65001   6.168   2.512   5.891 -1.0465  0.5598  1.2293
  482MOL0     C65002   6.076   2.548   5.992 -0.6437  0.7821  0.2956
  482MOL0     H65003   5.856   2.376   6.297  2.0480  1.3277 -0.5292
  482MOL0     H65004   5.778   2.320   6.560 -1.1075  0.4174  0.8542
  482MOL0     H65005   5.647   2.662   6.811  1.1409  1.1253 -4.0342
  482MOL0     H65006   5.547   2.557   6.712  1.2173  1.3441  0.2836
  482MOL0     H65007   5.666   2.449   6.970 -1.1546 -0.4951  0.5565
  482MOL0     H65008   5.543   2.568   6.982  0.7558  0.1014 -1.3752
  482MOL0     H65009   5.364   2.433   6.899 -1.2704 -2.3424 -1.2797
  482MOL0     H65010   5.481   2.348   6.816  2.8162  0.6241  0.2064
  482MOL0     H65011   5.564   2.241   7.041  0.2816  1.6017  0.5718
  482MOL0     H65012   5.425   2.324   7.113 -1.7575 -0.0681 -0.4617
  482MOL0     H65013   5.304   2.190   6.932 -0.1814 -0.3993  1.5509
  482MOL0     H65014   5.460   2.126   6.891 -1.4089  0.3916 -0.7688
  482MOL0     H65015   5.344   1.965   7.045  1.3347 -0.0997 -0.7811
  482MOL0     H65016   5.494   2.033   7.122  0.6696 -0.3510 -0.3338
  482MOL0     H65017   5.248   2.188   7.209  0.9047 -0.2444  0.6088
  482MOL0     H65018   5.212   2.014   7.203  0.0072 -2.4444  4.4435
  482MOL0     H65019   5.405   1.964   7.339 -3.0022 -1.6196 -2.9667
  482MOL0     H65020   5.271   2.046   7.422 -0.9693  3.9368 -0.9710
  482MOL0     H65021   5.296   2.334   7.411  1.0962  1.1469 -0.2465
  482MOL0     H65022   5.500   2.540   7.546 -1.6581  1.6093 -1.7468
  482MOL0     H65023   5.637   2.542   7.439  0.7934  2.4025  0.7289
  482MOL0     H65024   5.342   2.558   7.353  0.5957 -2.9272 -1.2243
  482MOL0     H65025   5.482   2.556   7.243  0.2733 -0.6222  0.2441
  482MOL0     H65026   5.582   2.753   7.341  0.0096 -0.2449 -0.8463
  482MOL0     H65027   5.447   2.772   7.457 -0.1574  1.5066 -0.2355
  482MOL0     H65028   5.438   2.921   7.233 -4.0680  3.1600 -0.7873
  482MOL0     H65029   5.301   2.833   7.316 -1.6190  0.2503 -1.6705
  482MOL0     H65030   5.212   2.989   7.173 -0.7172 -2.6320  1.1742
  482MOL0     H65031   5.140   3.182   7.117 -1.2313  3.1987 -0.5670
  482MOL0     H65032   5.151   3.198   6.936  3.9089 -3.6468  0.8290
  482MOL0     H65033   4.995   3.177   7.019 -0.2507 -1.3719 -0.8363
  482MOL0     H65034   4.806   3.073   6.923 -1.9028 -0.0967  0.3826
  482MOL0     H65035   4.679   2.956   7.099  1.4888  2.6263  0.1318
  482MOL0     H65036   4.726   2.731   7.232  1.2224 -1.0579 -0.3013
  482MOL0     H65037   4.544   2.746   7.232  1.3296  0.2990  3.5853
  482MOL0     H65038   4.534   2.482   7.219 -1.1562  2.5811 -0.0073
  482MOL0     H65039   4.704   2.469   7.257 -2.1627 -4.1769  4.4149
  482MOL0     H65040   4.517   2.434   7.426 -0.2478 -0.7549  0.6832
  482MOL0     H65041   4.490   2.613   7.423  0.4999  0.5564  1.2690
  482MOL0     H65042   4.759   2.485   7.506 -1.1251 -1.1039 -1.4978
  482MOL0     H65043   4.699   2.651   7.519 -0.5206 -0.0579 -0.0263
  482MOL0     H65044   4.552   2.605   7.684 -1.1596 -0.1220 -1.1127
  482MOL0     H65045   4.715   2.547   7.724 -0.6883  0.6138  1.3959
  482MOL0     H65046   4.478   2.374   7.632 -0.2041 -1.1566 -0.5675
  482MOL0     H65047   4.649   2.318   7.635 -0.4348  1.1769 -2.2398
  482MOL0     H65048   4.539   2.455   7.882 -0.0302 -0.1839 -0.4400
  482MOL0     H65049   4.677   2.351   7.863 -0.7593  0.5742  0.9906
  482MOL0     H65050   4.400   2.231   7.833 -0.3268 -1.4008  3.1270
  482MOL0     H65051   4.493   2.249   7.981  3.2688  3.9883  0.4134
  482MOL0     H65052   4.735   2.590   6.854  0.0854  0.0268  0.7343
  482MOL0     H65053   4.865   2.731   6.690 -3.2554 -1.3376  0.5353
  482MOL0     H65054   5.143   2.797   6.720 -0.6144  0.2996  0.3990
  482MOL0     H65055   5.272   2.669   6.884 -1.2324 -1.6779  2.8981
  482MOL0     H65056   5.755   2.734   6.632  3.7181  1.9104 -0.5472
  482MOL0     H65057   5.827   2.769   6.386  2.2370  0.8184  0.4338
  482MOL0     H65058   6.107   2.882   6.005  2.7240  0.0702  0.0690
  482MOL0     H65059   6.267   2.833   5.837 -0.3529 -0.0035 -0.1818
  482MOL0     H65060   6.460   2.455   5.783  0.6735 -0.6808 -1.6765
  482MOL0     H65061   6.313   2.400   5.685 -0.4681 -0.1063  1.9007
  482MOL0     H65062   6.450   2.545   5.507  1.4445  0.0274 -0.7380
  482MOL0     H65063   6.506   2.379   5.547  0.3328  0.5433 -2.3376
  482MOL0     H65064   6.681   2.509   5.700 -3.1733 -1.3939  2.1890
  482MOL0     H65065   6.591   2.647   5.671  0.4240 -0.3721  0.0454
  482MOL0     H65066   6.793   2.667   5.528 -0.0127  0.6338 -0.0047
  482MOL0     H65067   6.652   2.655   5.429  0.3484  2.5998  2.5024
  482MOL0     H65068   6.809   2.292   5.304  0.2255  0.9489 -0.2623
  482MOL0     H65069   6.179   2.413   5.848  1.7951  0.7485  1.3362
  482MOL0     H65070   6.022   2.462   6.029 -1.4368  1.0122 -0.3142
  483MOL0     O65071   3.434   4.177   0.513  0.6577  0.9682  0.2375
  483MOL0     C65072   3.394   4.288   0.533  0.7876 -0.4717  0.2785
  483MOL0     O65073   3.473   4.405   0.527  0.7782  0.2450  0.2408
  483MOL0     C65074   3.590   4.392   0.459  0.0149  0.2940 -0.5278
  483MOL0     C65075   3.592   4.358   0.326 -0.3285 -0.4816 -0.6966
  483MOL0     C65076   3.698   4.356   0.246 -0.9843 -0.3242 -0.4189
  483MOL0     C65077   3.832   4.384   0.300  0.2516 -0.1119  0.4277
  483MOL0     O65078   3.948   4.364   0.237 -1.4659  0.7624  0.7016
  483MOL0     C65079   3.945   4.275   0.120 -0.3693  0.5309  0.5011
  483MOL0     C65080   4.077   4.250   0.049 -0.5584  0.4786 -0.2661
  483MOL0     C65081   4.138   4.388  -0.007  0.6052 -0.5529 -0.1991
  483MOL0     C65082   4.291   4.396   0.004 -0.0114  0.1941 -0.2246
  483MOL0     C65083   4.356   4.529  -0.028 -0.4372  1.2613 -0.3187
  483MOL0     C65084   4.320   4.639   0.071 -0.1967  0.9597  0.0091
  483MOL0     C65085   4.354   4.598   0.216  0.2108 -0.1117  0.0703
  483MOL0     C65086   4.231   4.597   0.316  0.0160  0.0954  0.6188
  483MOL0     N65087   4.277   4.572   0.453  0.1144 -0.3937  0.0743
  483MOL0     C65088   4.291   4.443   0.508 -0.3659 -0.3015 -0.9910
  483MOL0     C65089   4.325   4.466   0.635 -0.3658 -0.8772  0.1440
  483MOL0     C65090   4.346   4.382   0.755  0.1664  0.2041 -0.3419
  483MOL0     C65091   4.490   4.397   0.813  0.0490 -0.4611 -0.6170
  483MOL0     C65092   4.496   4.323   0.950 -0.5182  0.1265  0.2425
  483MOL0     C65093   4.487   4.168   0.928  0.5924 -0.0716 -0.1746
  483MOL0     O65094   4.349   4.137   0.911 -0.1188 -0.1762 -0.0801
  483MOL0     C65095   4.305   4.010   0.904  0.4927  0.5379  0.8276
  483MOL0     C65096   4.391   3.901   0.873  0.8825  0.3926  0.0108
  483MOL0     C65097   4.337   3.778   0.851  0.5754 -0.3652 -0.9783
  483MOL0     C65098   4.433   3.685   0.789  0.2557  0.2148 -1.2491
  483MOL0     C65099   4.196   3.751   0.854  0.6244 -0.7645 -0.2467
  483MOL0     C65100   4.132   3.623   0.826  0.3427 -0.6554 -0.2501
  483MOL0     O65101   3.992   3.628   0.798 -0.3360  0.3107  0.3938
  483MOL0     C65102   3.931   3.514   0.758  0.5795  0.7618  0.3842
  483MOL0     C65103   3.959   3.371   0.796  1.0120 -0.3428 -0.7197
  483MOL0     C65104   3.893   3.257   0.733 -0.5074 -0.6181 -0.6316
  483MOL0     C65105   3.794   3.286   0.641 -0.1791  1.1575 -0.1212
  483MOL0     O65106   3.739   3.185   0.568 -0.3326  0.4410  0.0377
  483MOL0     C65107   3.814   3.108   0.480 -0.7311 -0.0934 -0.5140
  483MOL0     C65108   3.727   3.009   0.388 -0.3253 -0.1130 -1.7002
  483MOL0     C65109   3.636   2.910   0.469  1.2828  0.4080  0.1374
  483MOL0     C65110   3.493   2.964   0.458  0.1287 -0.4805 -0.4444
  483MOL0     C65111   3.400   2.878   0.548 -0.8284  0.1686 -0.2067
  483MOL0     C65112   3.250   2.907   0.534 -0.9319  0.6151 -0.1475
  483MOL0     C65113   3.201   2.922   0.390 -0.0754  0.5133  0.4499
  483MOL0     C65114   3.044   2.930   0.384  0.2105  0.1864  0.2676
  483MOL0    Cl65115   2.989   2.944   0.214 -0.4445  0.1631 -0.8195
  483MOL0     C65116   3.766   3.423   0.612 -0.2820  0.7270  0.3793
  483MOL0     C65117   3.828   3.535   0.670 -0.7276 -0.8380  0.0014
  483MOL0     O65118   4.205   3.524   0.829  1.1085 -0.1800 -0.4069
  483MOL0     C65119   4.117   3.859   0.890  0.1630 -0.0820  0.4534
  483MOL0     C65120   4.174   3.986   0.904  0.6476 -0.2979 -0.4308
  483MOL0     N65121   4.327   4.603   0.656  0.1705  0.3241  0.6297
  483MOL0     N65122   4.292   4.662   0.553  0.3407 -0.0138  0.5381
  483MOL0     C65123   3.826   4.426   0.437 -0.6668 -0.6538 -0.2983
  483MOL0     C65124   3.711   4.434   0.516 -0.1608 -1.0760 -0.0119
  483MOL0     C65125   3.254   4.302   0.569  0.0075 -0.2856  0.1419
  483MOL0     C65126   3.164   4.194   0.561  0.9959  0.1964  0.0200
  483MOL0     C65127   3.025   4.199   0.597  0.0593  0.6003  0.2147
  483MOL0     C65128   2.984   4.323   0.648  0.2972 -0.3511 -0.4473
  483MOL0     O65129   2.859   4.356   0.681  0.4497 -1.2204 -0.6069
  483MOL0     C65130   2.758   4.245   0.694  0.2416 -0.4517  0.6624
  483MOL0     C65131   2.643   4.295   0.775  1.6995  0.7251  0.4159
  483MOL0     C65132   2.583   4.419   0.705 -0.3380  0.0790 -0.6828
  483MOL0     C65133   2.457   4.457   0.813 -0.4362 -0.2329  0.2412
  483MOL0     C65134   2.334   4.418   0.750 -0.4815  0.7973 -0.3019
  483MOL0     C65135   2.216   4.410   0.717 -0.7939  0.0197 -0.0223
  483MOL0     C65136   3.066   4.436   0.644 -0.8157  0.4311  0.2747
  483MOL0     C65137   3.198   4.422   0.601  0.1399 -0.8032 -1.1352
  483MOL0     H65138   3.497   4.347   0.274 -2.6364 -1.0164  3.2898
  483MOL0     H65139   3.689   4.313   0.146  1.9402 -3.6011  0.5246
  483MOL0     H65140   3.905   4.178   0.151  0.5748 -0.8352 -2.1796
  483MOL0     H65141   3.878   4.313   0.042 -0.2808 -2.4478 -1.1607
  483MOL0     H65142   4.138   4.213   0.132 -2.9017 -0.3470  1.1869
  483MOL0     H65143   4.074   4.181  -0.036  0.8534  3.3538 -2.8665
  483MOL0     H65144   4.106   4.400  -0.111  0.2670 -1.8980 -0.2745
  483MOL0     H65145   4.098   4.465   0.059 -0.9924 -1.5461  0.0578
  483MOL0     H65146   4.326   4.361   0.101 -1.9622 -2.2069 -0.2767
  483MOL0     H65147   4.303   4.312  -0.065 -3.3821  0.9718 -2.0033
  483MOL0     H65148   4.464   4.513  -0.034 -0.5745  0.5255 -0.9409
  483MOL0     H65149   4.316   4.548  -0.128 -2.9418  0.2791  0.4265
  483MOL0     H65150   4.354   4.737   0.035 -3.3177  1.7085 -1.3219
  483MOL0     H65151   4.211   4.651   0.066 -0.3212  1.2012  2.3420
  483MOL0     H65152   4.414   4.505   0.218  0.8229  0.2826  0.5552
  483MOL0     H65153   4.423   4.676   0.248  0.0203 -0.3312  1.0356
  483MOL0     H65154   4.150   4.533   0.282 -0.5278 -0.9614  3.6124
  483MOL0     H65155   4.179   4.694   0.314  2.6603  1.6197  0.4864
  483MOL0     H65156   4.264   4.347   0.465  4.2332 -1.8488 -1.0122
  483MOL0     H65157   4.266   4.391   0.829 -0.2656  4.8170 -1.0547
  483MOL0     H65158   4.328   4.283   0.712 -0.0068  0.1787 -0.2110
  483MOL0     H65159   4.508   4.504   0.830 -1.3339 -0.3331  0.1100
  483MOL0     H65160   4.557   4.357   0.736  1.4467  0.0302  0.2938
  483MOL0     H65161   4.415   4.347   1.020  0.3132 -0.4128  1.4225
  483MOL0     H65162   4.585   4.356   1.004 -0.7111  0.2643  0.4749
  483MOL0     H65163   4.531   4.115   1.013  1.8331  0.7801 -0.2683
  483MOL0     H65164   4.548   4.152   0.838  2.3135  0.9058  0.7651
  483MOL0     H65165   4.499   3.908   0.863  0.9053  1.0749  0.6235
  483MOL0     H65166   4.538   3.716   0.781  0.5599 -0.0130  0.9966
  483MOL0     H65167   4.443   3.599   0.856  1.5828  1.3535  0.0985
  483MOL0     H65168   4.406   3.659   0.687  2.3639  1.1112 -2.0918
  483MOL0     H65169   4.041   3.341   0.860  0.9988  2.3514  0.7183
  483MOL0     H65170   3.925   3.158   0.765  4.3418  1.2000  0.9817
  483MOL0     H65171   3.874   3.174   0.416  1.4567 -1.3297  0.1279
  483MOL0     H65172   3.887   3.049   0.537 -0.6597  1.3033  0.8964
  483MOL0     H65173   3.680   3.069   0.309  0.8306  3.8251  0.3487
  483MOL0     H65174   3.799   2.947   0.335 -0.8173 -0.7348 -1.6630
  483MOL0     H65175   3.665   2.908   0.574  3.2462 -2.1591 -0.3660
  483MOL0     H65176   3.639   2.811   0.423 -0.4989  0.7588 -0.8629
  483MOL0     H65177   3.493   3.069   0.488  4.1558 -0.6554  0.7440
  483MOL0     H65178   3.456   2.955   0.355 -3.9422  0.8235  0.7058
  483MOL0     H65179   3.425   2.872   0.654 -1.6932  1.2709  0.0799
  483MOL0     H65180   3.426   2.778   0.511 -1.4549  0.2292 -0.8462
  483MOL0     H65181   3.188   2.840   0.595 -2.3113  0.2968 -1.8075
  483MOL0     H65182   3.237   3.007   0.577 -1.3069  1.2780 -1.7536
  483MOL0     H65183   3.239   2.832   0.340 -1.1735  0.5651 -0.5261
  483MOL0     H65184   3.230   3.011   0.334  0.2271  0.0546 -0.1385
  483MOL0     H65185   3.003   2.999   0.457 -0.6115 -3.2124  3.2942
  483MOL0     H65186   3.008   2.831   0.415 -2.4921  1.2818  0.8512
  483MOL0     H65187   3.690   3.437   0.536 -0.5600  0.7542  0.6626
  483MOL0     H65188   3.811   3.637   0.635 -1.5870  0.0424  2.7395
  483MOL0     H65189   4.009   3.847   0.885  0.4007 -3.3568  1.3141
  483MOL0     H65190   4.108   4.072   0.917 -1.1462 -1.6568 -0.1629
  483MOL0     H65191   3.920   4.450   0.486 -1.2130 -0.6695  0.7979
  483MOL0     H65192   3.714   4.460   0.621  1.7960 -2.2200  0.2628
  483MOL0     H65193   3.201   4.095   0.538  2.7722  1.3763 -2.8435
  483MOL0     H65194   2.966   4.110   0.584  0.7059 -0.2628  2.6641
  483MOL0     H65195   2.716   4.218   0.596 -1.0085  2.2582  0.3246
  483MOL0     H65196   2.797   4.148   0.724 -2.4071 -2.0250 -0.6401
  483MOL0     H65197   2.689   4.314   0.873  5.5216 -1.4394 -0.7366
  483MOL0     H65198   2.563   4.221   0.787  0.6576  2.0417  2.3255
  483MOL0     H65199   2.550   4.396   0.603 -1.0335 -1.1057 -0.2156
  483MOL0     H65200   2.653   4.500   0.686 -0.1656 -0.3989 -2.2538
  483MOL0     H65201   2.472   4.564   0.830  2.1929 -0.9877  3.9396
  483MOL0     H65202   2.473   4.408   0.909  0.9483 -1.8857 -0.7748
  483MOL0     H65203   2.113   4.409   0.688 -1.5009  3.6378  1.7445
  483MOL0     H65204   3.039   4.530   0.692  1.6880  0.3833  1.9958
  483MOL0     H65205   3.260   4.507   0.628  0.1708 -1.6351  1.7241
  484MOL0     O65206   8.891   2.213   1.794 -0.9314 -0.1998 -0.6807
  484MOL0     C65207   8.925   2.330   1.780  0.2166  0.9500 -0.4244
  484MOL0     O65208   8.887   2.411   1.680  0.4634 -0.8779 -0.6780
  484MOL0     C65209   8.774   2.378   1.603 -0.7542  0.2278 -0.0213
  484MOL0     C65210   8.765   2.445   1.482 -0.2610 -0.1881 -0.3042
  484MOL0     C65211   8.646   2.438   1.403 -0.8904  0.1390  0.3584
  484MOL0     C65212   8.532   2.355   1.441 -0.3232 -0.1072  0.2585
  484MOL0     O65213   8.421   2.335   1.372 -0.0394 -0.4057  0.6977
  484MOL0     C65214   8.432   2.283   1.244  0.4978  1.3063 -0.6190
  484MOL0     C65215   8.297   2.235   1.197 -0.6694  0.0368 -0.0034
  484MOL0     C65216   8.207   2.348   1.136 -1.0353  0.4754 -0.3946
  484MOL0     C65217   8.088   2.288   1.064 -0.2212 -0.1538 -0.2178
  484MOL0     C65218   7.982   2.264   1.165 -0.0233  0.4509  0.0605
  484MOL0     C65219   7.909   2.376   1.234 -0.7992 -0.3524 -1.1075
  484MOL0     C65220   7.848   2.345   1.372 -0.2484 -0.1187 -0.9404
  484MOL0     C65221   7.953   2.377   1.480 -0.2206  0.4673 -0.8251
  484MOL0     N65222   7.894   2.377   1.620 -0.2443 -0.9602  0.7638
  484MOL0     C65223   7.849   2.268   1.692  0.3398  0.7522 -0.9090
  484MOL0     C65224   7.823   2.320   1.816 -0.3202  1.0316  0.3293
  484MOL0     C65225   7.777   2.228   1.921  1.0666  0.2017  0.1071
  484MOL0     C65226   7.629   2.195   1.899  0.7829  0.3479  0.2504
  484MOL0     C65227   7.545   2.317   1.920 -0.6547 -0.2572  0.3560
  484MOL0     C65228   7.393   2.269   1.929 -1.6907 -0.0581  0.3222
  484MOL0     O65229   7.379   2.190   2.045  0.7499 -0.3152  0.0873
  484MOL0     C65230   7.259   2.122   2.058 -0.0782 -0.0683  0.2506
  484MOL0     C65231   7.254   2.024   2.152 -0.5871  0.6579  0.1727
  484MOL0     C65232   7.141   1.945   2.162 -1.0919 -0.4550 -0.0021
  484MOL0     C65233   7.158   1.842   2.272  0.0793  0.6234 -0.5320
  484MOL0     C65234   7.032   1.963   2.082 -0.6640 -0.0863 -0.5473
  484MOL0     C65235   6.899   1.902   2.095  0.5699 -0.0792 -1.1818
  484MOL0     O65236   6.827   1.928   2.210 -0.0592 -0.4382  0.1433
  484MOL0     C65237   6.700   1.878   2.223  0.7646  0.3132 -0.6101
  484MOL0     C65238   6.610   1.962   2.266  0.3134 -0.5473  0.0518
  484MOL0     C65239   6.484   1.928   2.299 -0.6979  0.6872 -0.1129
  484MOL0     C65240   6.443   1.794   2.289  0.2902 -0.3366  0.2782
  484MOL0     O65241   6.314   1.762   2.299 -1.0781 -0.2298 -0.3232
  484MOL0     C65242   6.292   1.647   2.380  0.5181  0.4058 -0.7403
  484MOL0     C65243   6.236   1.539   2.291 -0.0580 -0.5366  0.3818
  484MOL0     C65244   6.106   1.585   2.215 -0.6565 -0.0599  0.2854
  484MOL0     C65245   5.982   1.551   2.293  0.5551 -0.0007  0.1970
  484MOL0     C65246   5.877   1.618   2.211 -0.1837 -0.2071 -0.0496
  484MOL0     C65247   5.734   1.573   2.246  0.0816  0.1984  0.5526
  484MOL0     C65248   5.626   1.601   2.139 -1.4767 -0.7658  0.8231
  484MOL0     C65249   5.494   1.537   2.158 -0.2591  0.6130 -0.7184
  484MOL0    Cl65250   5.495   1.364   2.210 -0.2350  0.4753  0.3466
  484MOL0     C65251   6.538   1.700   2.239 -0.9919  0.2110 -0.9027
  484MOL0     C65252   6.666   1.741   2.211  0.3392 -0.0100  0.0695
  484MOL0     O65253   6.843   1.870   1.992 -0.1923 -0.0982 -0.2862
  484MOL0     C65254   7.033   2.074   1.990  0.5638  0.6609 -0.1115
  484MOL0     C65255   7.149   2.150   1.977  0.2851 -0.0062  0.7293
  484MOL0     N65256   7.855   2.456   1.821 -0.1334 -1.3899  0.0525
  484MOL0     N65257   7.896   2.486   1.700 -0.0125 -0.2936  0.8522
  484MOL0     C65258   8.540   2.293   1.571  0.0406 -0.1219  0.1363
  484MOL0     C65259   8.661   2.293   1.646  0.2625  0.9851  0.0590
  484MOL0     C65260   9.017   2.389   1.879 -0.8744 -0.5357  0.3755
  484MOL0     C65261   9.041   2.331   2.001 -1.2645  0.4071  0.1932
  484MOL0     C65262   9.132   2.383   2.099  0.8767 -0.6487 -0.0890
  484MOL0     C65263   9.176   2.515   2.068 -0.4681 -0.3374  0.2735
  484MOL0     O65264   9.252   2.599   2.153  0.1063  0.0792 -0.5358
  484MOL0     C65265   9.262   2.566   2.297 -0.0299 -1.0864  0.4947
  484MOL0     C65266   9.362   2.460   2.324  0.0913  0.9803  0.4855
  484MOL0     C65267   9.502   2.509   2.297 -0.0954 -0.3991 -0.7152
  484MOL0     C65268   9.610   2.399   2.343  1.1135  0.0569 -0.2710
  484MOL0     C65269   9.645   2.305   2.238 -0.0532 -0.3062 -0.3716
  484MOL0     C65270   9.688   2.222   2.161  0.5995  0.7526 -0.2296
  484MOL0     C65271   9.148   2.570   1.943  0.0897  0.1294 -0.8854
  484MOL0     C65272   9.073   2.511   1.844  0.5287  0.2490  0.0707
  484MOL0     H65273   8.848   2.511   1.457  0.0682 -0.8705 -1.0643
  484MOL0     H65274   8.626   2.506   1.320  3.4928  0.1338 -0.9392
  484MOL0     H65275   8.481   2.355   1.178 -2.5152  3.0266 -1.1550
  484MOL0     H65276   8.497   2.195   1.246  0.9605  1.6471  0.5816
  484MOL0     H65277   8.312   2.157   1.123 -0.0381 -1.2773  1.4476
  484MOL0     H65278   8.246   2.185   1.281  1.7778  2.1211  2.9668
  484MOL0     H65279   8.173   2.425   1.205 -1.6049  1.1667 -1.4226
  484MOL0     H65280   8.274   2.393   1.062  1.2391 -0.4979  0.9428
  484MOL0     H65281   8.051   2.360   0.990 -0.4448  2.4585  2.2792
  484MOL0     H65282   8.125   2.200   1.011  1.6949  1.6474 -2.0935
  484MOL0     H65283   7.896   2.214   1.120 -1.5918  2.0737  1.1420
  484MOL0     H65284   8.022   2.188   1.233  0.7660 -1.9414 -2.8582
  484MOL0     H65285   7.987   2.452   1.243  0.3267 -1.6052  0.3307
  484MOL0     H65286   7.830   2.410   1.166  0.7148  0.6736 -2.4357
  484MOL0     H65287   7.759   2.406   1.387 -0.2474 -0.2813 -0.2548
  484MOL0     H65288   7.821   2.241   1.386 -0.0152 -0.0382  0.2041
  484MOL0     H65289   7.993   2.478   1.463 -0.1737  0.9326  1.7206
  484MOL0     H65290   8.038   2.309   1.486 -0.3971  0.3603  3.5418
  484MOL0     H65291   7.841   2.166   1.656  2.5331  0.8106 -1.7110
  484MOL0     H65292   7.838   2.139   1.904  0.1265 -0.1207 -1.9744
  484MOL0     H65293   7.799   2.261   2.023 -0.1657 -2.1773  1.2444
  484MOL0     H65294   7.590   2.134   1.981 -1.2259  0.8166 -0.2979
  484MOL0     H65295   7.610   2.146   1.803  0.4278  0.4216  0.2815
  484MOL0     H65296   7.565   2.387   1.839  0.4578  0.9085  1.5749
  484MOL0     H65297   7.561   2.374   2.012 -1.3968 -1.7527  1.4722
  484MOL0     H65298   7.361   2.228   1.832  2.3415  3.1228 -2.7064
  484MOL0     H65299   7.335   2.357   1.956 -2.4150 -0.4925  0.1922
  484MOL0     H65300   7.335   2.006   2.222  1.8541  1.0941 -2.3691
  484MOL0     H65301   7.117   1.744   2.247  0.0098  0.6185 -0.4030
  484MOL0     H65302   7.255   1.824   2.320 -1.2041 -0.0835  1.9420
  484MOL0     H65303   7.101   1.877   2.359 -1.1617  1.0592 -1.4988
  484MOL0     H65304   6.634   2.066   2.287 -2.5856 -0.2032  2.3763
  484MOL0     H65305   6.411   2.002   2.331 -2.7706 -1.2926  0.0287
  484MOL0     H65306   6.384   1.613   2.429  0.9939  3.4226  0.6480
  484MOL0     H65307   6.219   1.677   2.455 -1.2282  2.2542 -3.0473
  484MOL0     H65308   6.312   1.511   2.217  1.5729  4.4193 -0.2286
  484MOL0     H65309   6.217   1.445   2.343  0.0127 -1.2130 -0.7944
  484MOL0     H65310   6.101   1.533   2.119 -0.7762 -4.2633  2.3371
  484MOL0     H65311   6.124   1.690   2.190  2.1253 -1.0388 -2.5692
  484MOL0     H65312   5.963   1.444   2.285 -1.0422  0.1917  1.0723
  484MOL0     H65313   5.970   1.597   2.392  0.8711  2.6142 -0.9074
  484MOL0     H65314   5.897   1.601   2.105  0.2448  1.7812 -0.3201
  484MOL0     H65315   5.881   1.727   2.218 -2.6227 -0.1824  2.9963
  484MOL0     H65316   5.737   1.466   2.265  0.0675  0.3590  1.5378
  484MOL0     H65317   5.708   1.623   2.340  6.2878  2.4324  1.5201
  484MOL0     H65318   5.668   1.569   2.044  2.9816  2.3877  1.4180
  484MOL0     H65319   5.607   1.708   2.130 -2.4306 -1.0753 -1.5062
  484MOL0     H65320   5.439   1.545   2.064 -1.9268 -1.4809 -0.0109
  484MOL0     H65321   5.444   1.585   2.243  2.4267  0.7472  0.8800
  484MOL0     H65322   6.524   1.592   2.235  0.1763  0.0097 -0.1304
  484MOL0     H65323   6.748   1.670   2.200  3.9072  3.6046  0.9828
  484MOL0     H65324   6.950   2.083   1.921  0.0668 -1.7558  0.0874
  484MOL0     H65325   7.145   2.223   1.896  0.9745  0.6938  1.3121
  484MOL0     H65326   8.454   2.240   1.610  0.7012 -1.0538  0.3700
  484MOL0     H65327   8.665   2.241   1.741  1.1246  0.7962 -0.0761
  484MOL0     H65328   8.990   2.241   2.034  2.2750 -0.6438  3.6367
  484MOL0     H65329   9.138   2.340   2.198 -1.8014  0.7588  0.7927
  484MOL0     H65330   9.281   2.656   2.357 -2.8438  1.3495 -1.9454
  484MOL0     H65331   9.164   2.527   2.328  0.4036 -2.6441  0.0006
  484MOL0     H65332   9.353   2.370   2.263 -0.9993  0.1347  1.8284
  484MOL0     H65333   9.357   2.432   2.430  1.7046  1.1696  0.6396
  484MOL0     H65334   9.507   2.603   2.353  0.4859 -0.7047 -0.2356
  484MOL0     H65335   9.511   2.525   2.189  1.3342  0.1398 -0.5347
  484MOL0     H65336   9.576   2.345   2.432 -0.1497 -0.0664 -0.8184
  484MOL0     H65337   9.705   2.449   2.366  1.7457 -1.2475  0.1025
  484MOL0     H65338   9.729   2.145   2.099  2.0368 -1.6602  3.4155
  484MOL0     H65339   9.201   2.663   1.923 -1.3936  1.8208  2.3148
  484MOL0     H65340   9.049   2.562   1.752  1.4443  2.4955  0.9891
  485MOL0     O65341   2.083   7.510  11.093 -0.1283 -0.5263  0.7192
  485MOL0     C65342   1.975   7.565  11.057 -0.3033 -0.0493 -0.0604
  485MOL0     O65343   1.934   7.693  11.076 -0.4042 -0.3468 -1.1272
  485MOL0     C65344   2.004   7.791  11.142 -0.7727 -0.5950 -0.3645
  485MOL0     C65345   1.946   7.918  11.146 -0.5893 -0.0643 -0.1362
  485MOL0     C65346   2.013   8.033  11.182  0.2703 -0.0629 -0.1775
  485MOL0     C65347   2.145   8.020  11.234 -0.3132 -0.9141  0.1331
  485MOL0     O65348   2.210   8.122  11.295  0.6057  0.1759  0.1393
  485MOL0     C65349   2.148   8.249  11.308 -0.8145 -0.3296  0.0739
  485MOL0     C65350   2.244   8.337  11.387  0.5934 -0.2556  0.0644
  485MOL0     C65351   2.380   8.340  11.323  0.0088  0.2160 -0.5645
  485MOL0     C65352   2.470   8.433  11.402 -0.2812  0.0146 -0.7464
  485MOL0     C65353   2.612   8.444  11.346  0.5454  0.4539 -0.3297
  485MOL0     C65354   2.715   8.516  11.428 -0.0866 -0.1620 -0.2767
  485MOL0     C65355   2.846   8.518  11.357  0.4822 -0.3927  0.0588
  485MOL0     C65356   2.939   8.608  11.433  0.5531 -0.7638 -0.0958
  485MOL0     N65357   3.023   8.559  11.546 -0.0316  0.3389  0.5685
  485MOL0     C65358   3.159   8.557  11.557  0.0165 -0.1401  0.1741
  485MOL0     C65359   3.184   8.471  11.663  0.1582 -0.3854 -0.0615
  485MOL0     C65360   3.323   8.442  11.716  0.6251  0.7487 -0.1960
  485MOL0     C65361   3.357   8.549  11.812 -0.4430 -0.0752  0.6601
  485MOL0     C65362   3.502   8.515  11.866  0.4387 -0.4446  0.2979
  485MOL0     C65363   3.562   8.632  11.942 -0.5169  0.1484  0.3842
  485MOL0     O65364   3.505   8.636  12.069  0.2759 -0.5244  0.6468
  485MOL0     C65365   3.433   8.738  12.122 -0.2134  0.7728 -0.6068
  485MOL0     C65366   3.434   8.870  12.083 -0.2770 -0.9020  0.4106
  485MOL0     C65367   3.346   8.956  12.154  0.1554  0.1497 -0.4068
  485MOL0     C65368   3.351   9.095  12.097 -0.0401 -0.1437 -0.6239
  485MOL0     C65369   3.264   8.905  12.258  1.2038  0.1834 -0.5810
  485MOL0     C65370   3.166   8.995  12.334 -0.3146  0.4879  0.6736
  485MOL0     O65371   3.074   8.921  12.408  0.0807  0.5970 -0.0601
  485MOL0     C65372   3.008   8.987  12.508  0.1578 -0.1863 -0.0291
  485MOL0     C65373   2.955   9.111  12.502  0.0231  0.2706  0.2124
  485MOL0     C65374   2.880   9.162  12.602  0.7289 -0.1962  0.5587
  485MOL0     C65375   2.836   9.081  12.710  0.8821  0.4397  0.4276
  485MOL0     O65376   2.746   9.124  12.805 -0.7609 -1.0200 -0.9970
  485MOL0     C65377   2.714   9.267  12.814 -0.1527  0.3688  0.3822
  485MOL0     C65378   2.661   9.319  12.941 -0.6715 -0.7887  0.1734
  485MOL0     C65379   2.513   9.288  12.969 -0.2439  0.5472 -0.5598
  485MOL0     C65380   2.440   9.358  13.080 -0.3726 -0.0086 -0.9675
  485MOL0     C65381   2.335   9.263  13.146 -0.6020  0.1353  1.0920
  485MOL0     C65382   2.203   9.257  13.070 -0.2134  0.4221  0.4449
  485MOL0     C65383   2.100   9.170  13.144 -0.1828  0.4092  0.1369
  485MOL0     C65384   1.955   9.225  13.131  0.1838  0.2657 -0.5814
  485MOL0    Cl65385   1.831   9.103  13.164  0.1627 -0.1314  0.1443
  485MOL0     C65386   2.894   8.949  12.717  0.7647  0.1564 -0.8317
  485MOL0     C65387   2.984   8.909  12.617 -0.1840  0.4653 -0.1385
  485MOL0     O65388   3.177   9.121  12.326 -0.1624 -0.5037  0.1784
  485MOL0     C65389   3.274   8.774  12.298 -0.8597 -0.4209  0.3702
  485MOL0     C65390   3.353   8.690  12.230 -0.0002  0.2098 -0.6001
  485MOL0     N65391   3.062   8.417  11.707 -0.3867 -0.7131  0.0289
  485MOL0     N65392   2.971   8.472  11.639 -0.0568  0.2570  0.1217
  485MOL0     C65393   2.208   7.899  11.241  0.3597  0.3812  0.2260
  485MOL0     C65394   2.132   7.784  11.206 -0.6193 -0.0642  0.7818
  485MOL0     C65395   1.883   7.478  10.975 -0.5929  0.6987 -0.3482
  485MOL0     C65396   1.918   7.343  10.944  0.5629  0.1252 -0.6652
  485MOL0     C65397   1.832   7.259  10.869 -0.7904  0.5597 -0.1335
  485MOL0     C65398   1.719   7.306  10.816  0.8638  0.0514 -1.2380
  485MOL0     O65399   1.644   7.238  10.727  0.7894  0.4445  0.5162
  485MOL0     C65400   1.520   7.168  10.772 -0.6773 -0.0773 -1.0249
  485MOL0     C65401   1.503   7.030  10.720 -0.8651  0.3734 -0.4668
  485MOL0     C65402   1.640   6.959  10.716  0.1784 -1.2891  0.8204
  485MOL0     C65403   1.619   6.815  10.670  0.4676 -0.3356  0.9527
  485MOL0     C65404   1.750   6.751  10.681  0.3788  0.1253 -0.2785
  485MOL0     C65405   1.861   6.707  10.696  0.1631  1.6111 -0.4455
  485MOL0     C65406   1.678   7.437  10.844 -0.4883  0.0449  0.5297
  485MOL0     C65407   1.756   7.521  10.932  0.6951 -0.7767  0.2423
  485MOL0     H65408   1.846   7.923  11.105 -0.8099 -0.8870  0.2917
  485MOL0     H65409   1.965   8.130  11.179  1.8542  0.7423 -0.7813
  485MOL0     H65410   2.132   8.301  11.213 -0.3337  0.6752  0.5295
  485MOL0     H65411   2.057   8.232  11.367  0.2645 -2.6245  1.1858
  485MOL0     H65412   2.198   8.436  11.395  0.9841  0.0532 -1.3240
  485MOL0     H65413   2.259   8.305  11.491 -1.7226 -0.0346  0.5216
  485MOL0     H65414   2.417   8.239  11.342 -1.6526 -0.0657  1.6072
  485MOL0     H65415   2.370   8.384  11.224  0.7844  1.4806 -0.1080
  485MOL0     H65416   2.413   8.526  11.415 -0.3941 -0.3565  2.0144
  485MOL0     H65417   2.493   8.396  11.502 -2.0697 -0.0763 -0.3386
  485MOL0     H65418   2.643   8.339  11.345  1.0896  0.5189  2.0527
  485MOL0     H65419   2.615   8.490  11.247 -0.8216 -0.2136 -0.7004
  485MOL0     H65420   2.671   8.616  11.431  2.5898  1.2707 -3.0739
  485MOL0     H65421   2.734   8.478  11.528  0.7929 -1.8893 -1.0494
  485MOL0     H65422   2.878   8.414  11.342  0.8173 -0.0762 -1.6413
  485MOL0     H65423   2.831   8.562  11.258  0.0393 -2.1029 -0.6728
  485MOL0     H65424   2.888   8.699  11.466  2.9974  1.6795 -2.5707
  485MOL0     H65425   3.003   8.660  11.361  0.4921  0.4226  0.6686
  485MOL0     H65426   3.227   8.608  11.491 -2.6712  0.8167 -2.0568
  485MOL0     H65427   3.317   8.344  11.764 -0.1172  1.7347  1.8046
  485MOL0     H65428   3.401   8.432  11.640  1.0143 -2.1538  0.4889
  485MOL0     H65429   3.277   8.553  11.886  0.5258 -0.1857  1.7512
  485MOL0     H65430   3.364   8.644  11.758 -0.9063 -0.8125 -0.7447
  485MOL0     H65431   3.570   8.486  11.786  1.4651 -2.4598  1.7943
  485MOL0     H65432   3.501   8.426  11.930 -1.4800  1.0100  2.4956
  485MOL0     H65433   3.552   8.722  11.881  4.5834 -0.2547 -1.5655
  485MOL0     H65434   3.671   8.621  11.947 -0.1401  1.6435 -2.4604
  485MOL0     H65435   3.506   8.895  12.006  1.2713  0.4307  2.1959
  485MOL0     H65436   3.450   9.113  12.054  0.1486 -1.6362 -0.8661
  485MOL0     H65437   3.278   9.122  12.021  0.3389 -2.2813 -1.8267
  485MOL0     H65438   3.341   9.168  12.178 -0.6251 -1.0115  0.1077
  485MOL0     H65439   2.992   9.183  12.429  2.4712 -1.2293 -0.1273
  485MOL0     H65440   2.846   9.264  12.589  1.2731 -0.0743  0.0775
  485MOL0     H65441   2.808   9.322  12.806  1.2293 -1.5450  2.2052
  485MOL0     H65442   2.646   9.298  12.734  0.0636 -2.8781 -1.2634
  485MOL0     H65443   2.728   9.271  13.012  1.4627  2.0405  0.2533
  485MOL0     H65444   2.693   9.424  12.941  2.1039 -1.4878 -1.9810
  485MOL0     H65445   2.508   9.179  12.978  0.3384  0.6161  1.0140
  485MOL0     H65446   2.461   9.317  12.878  2.1058 -1.9893 -2.9162
  485MOL0     H65447   2.513   9.369  13.161 -1.6263 -3.0993  0.7678
  485MOL0     H65448   2.397   9.453  13.045  0.1683  0.3015 -0.8070
  485MOL0     H65449   2.313   9.300  13.247  2.2227 -0.1067  1.8616
  485MOL0     H65450   2.378   9.163  13.155  5.3704  2.4163  2.7123
  485MOL0     H65451   2.161   9.356  13.052  0.3914  0.0185 -4.9829
  485MOL0     H65452   2.233   9.219  12.971  1.3194  0.9603  0.6785
  485MOL0     H65453   2.132   9.169  13.249  0.8532  2.8633 -0.0724
  485MOL0     H65454   2.097   9.067  13.107 -0.2135  0.6001 -0.4028
  485MOL0     H65455   1.942   9.259  13.028  3.8079  0.7793 -1.0062
  485MOL0     H65456   1.937   9.325  13.174 -2.0205  0.9312 -2.8365
  485MOL0     H65457   2.862   8.883  12.797 -2.1137 -0.8731 -2.6578
  485MOL0     H65458   3.019   8.811  12.647 -2.2300  0.3449  2.1741
  485MOL0     H65459   3.215   8.742  12.383 -2.6832  2.4305  0.3172
  485MOL0     H65460   3.359   8.582  12.245 -0.1081  0.2046 -0.5940
  485MOL0     H65461   2.300   7.897  11.299 -0.1941  2.4554  1.2874
  485MOL0     H65462   2.176   7.685  11.211  1.3127  0.6753 -0.4704
  485MOL0     H65463   2.001   7.290  10.990 -0.0035  1.2824  1.8957
  485MOL0     H65464   1.855   7.154  10.853  0.1710  0.7099  0.1737
  485MOL0     H65465   1.523   7.165  10.881 -1.1235  2.4068 -0.8715
  485MOL0     H65466   1.433   7.224  10.734 -0.4754  0.8302 -0.1864
  485MOL0     H65467   1.455   7.050  10.624  1.2233  2.6922 -1.1285
  485MOL0     H65468   1.436   6.969  10.781  0.9365  0.9270  2.2472
  485MOL0     H65469   1.677   6.960  10.819  0.4036  2.7593  0.8842
  485MOL0     H65470   1.703   7.016  10.646  0.7493 -3.4739 -0.5228
  485MOL0     H65471   1.594   6.810  10.563 -1.5111 -3.3557  1.4248
  485MOL0     H65472   1.534   6.769  10.720  1.1287 -2.7370  0.0268
  485MOL0     H65473   1.960   6.669  10.712 -1.2604 -1.1307  3.5924
  485MOL0     H65474   1.591   7.472  10.788 -1.3007 -1.9390  0.4846
  485MOL0     H65475   1.731   7.627  10.933 -2.3631 -1.4102  0.6807
  486MOL0     O65476  10.726  11.043   4.813  0.1263  0.4507  0.4771
  486MOL0     C65477  10.674  11.087   4.918  0.5983 -0.2507  0.1144
  486MOL0     O65478  10.735  11.152   5.019 -0.5211 -0.4525 -0.3646
  486MOL0     C65479  10.869  11.176   5.022 -0.5240 -0.6647 -0.0217
  486MOL0     C65480  10.937  11.152   5.144 -0.3633 -0.1794  0.1503
  486MOL0     C65481  11.077  11.170   5.145 -0.0522  0.3959  0.2414
  486MOL0     C65482  11.153  11.231   5.042  0.5185  0.2843 -0.2142
  486MOL0     O65483  11.287  11.257   5.068  0.2312 -0.1459 -0.1522
  486MOL0     C65484  11.366  11.342   4.984  0.2700 -0.2735 -0.4656
  486MOL0     C65485  11.512  11.349   5.050  0.0522 -1.0039 -0.7943
  486MOL0     C65486  11.551  11.496   5.069  0.2259  0.5870  0.5218
  486MOL0     C65487  11.503  11.575   5.187  1.0798  1.0184 -0.3111
  486MOL0     C65488  11.544  11.728   5.183  0.4480  0.1436  0.5283
  486MOL0     C65489  11.486  11.809   5.298 -1.1520  0.3961  0.7337
  486MOL0     C65490  11.492  11.960   5.264  0.2744 -0.3262  0.0414
  486MOL0     C65491  11.635  12.024   5.278  0.4411  0.2015  0.4769
  486MOL0     N65492  11.694  11.997   5.407 -0.2207  0.2950 -0.5800
  486MOL0     C65493  11.826  11.975   5.423 -0.0094  0.8332  0.4096
  486MOL0     C65494  11.839  11.948   5.559 -0.2595 -0.3319  0.3992
  486MOL0     C65495  11.945  11.911   5.650 -0.1854  0.0410 -0.1218
  486MOL0     C65496  12.063  12.003   5.665 -0.6837  0.2671 -0.0786
  486MOL0     C65497  12.030  12.149   5.710  0.3427  0.1526 -0.4946
  486MOL0     C65498  12.019  12.235   5.587  0.1465 -0.3605 -0.0061
  486MOL0     O65499  11.968  12.361   5.606 -0.0571 -0.0709  0.0010
  486MOL0     C65500  11.934  12.411   5.484 -0.5098 -0.2245  0.1506
  486MOL0     C65501  11.811  12.388   5.419  0.2843  0.1054  0.1935
  486MOL0     C65502  11.779  12.459   5.304  0.2754 -0.4810 -0.2100
  486MOL0     C65503  11.636  12.450   5.258 -0.1576  0.0873 -0.0671
  486MOL0     C65504  11.876  12.546   5.244 -0.4080  0.2417  0.5208
  486MOL0     C65505  11.866  12.609   5.109  0.3024 -0.2997  0.0751
  486MOL0     O65506  11.762  12.580   5.037 -0.1127  0.4552  0.8601
  486MOL0     C65507  11.736  12.645   4.914  0.4415  0.4598 -0.7106
  486MOL0     C65508  11.828  12.641   4.806  0.5722 -0.9417 -0.2751
  486MOL0     C65509  11.794  12.704   4.683 -0.7494  0.2889  0.0456
  486MOL0     C65510  11.670  12.755   4.654 -0.7656  0.4730 -0.3475
  486MOL0     O65511  11.634  12.803   4.538  0.9966 -0.6397  0.5053
  486MOL0     C65512  11.726  12.886   4.467 -0.5293 -0.2541 -0.1119
  486MOL0     C65513  11.670  12.918   4.325 -0.5642 -0.2897  0.7420
  486MOL0     C65514  11.766  12.994   4.228  0.1143 -0.8304 -0.3354
  486MOL0     C65515  11.740  13.141   4.245  0.4001 -0.1805  0.3703
  486MOL0     C65516  11.834  13.248   4.167  0.4178  0.0255  0.1795
  486MOL0     C65517  11.779  13.275   4.024  0.5390  0.3433  0.6448
  486MOL0     C65518  11.883  13.358   3.938  0.8070 -0.0287 -0.3858
  486MOL0     C65519  11.817  13.407   3.813 -0.6242 -0.5251 -0.4165
  486MOL0    Cl65520  11.689  13.527   3.839 -0.0438  0.0375  0.0606
  486MOL0     C65521  11.575  12.752   4.754  0.7976  0.0338 -0.5549
  486MOL0     C65522  11.607  12.704   4.885 -0.5034  0.3242 -0.2672
  486MOL0     O65523  11.949  12.694   5.077 -0.7104  0.5504  0.0927
  486MOL0     C65524  12.002  12.550   5.301  0.1205 -0.0739  0.7495
  486MOL0     C65525  12.026  12.471   5.415 -1.0902  0.7976 -0.2738
  486MOL0     N65526  11.718  11.978   5.614 -0.4777  0.6139  0.0263
  486MOL0     N65527  11.625  12.003   5.528 -0.0898 -0.2887  0.2871
  486MOL0     C65528  11.083  11.270   4.927 -0.2636  0.2874  0.1683
  486MOL0     C65529  10.941  11.243   4.916 -0.1203  0.0048  0.3132
  486MOL0     C65530  10.520  11.057   4.922 -1.0757 -0.1736  0.3491
  486MOL0     C65531  10.470  10.947   4.858 -0.1628  0.2502 -0.4039
  486MOL0     C65532  10.335  10.910   4.878 -1.2627 -0.6285 -0.1352
  486MOL0     C65533  10.259  10.977   4.964 -0.0094 -0.3413 -0.6304
  486MOL0     O65534  10.133  10.924   4.976 -0.0367 -0.0501  0.5423
  486MOL0     C65535  10.051  10.972   5.083 -0.5975  0.9126 -0.8945
  486MOL0     C65536   9.910  10.917   5.076 -0.2294 -0.0399 -0.3861
  486MOL0     C65537   9.827  10.998   4.979 -0.5607 -0.0262 -0.1240
  486MOL0     C65538   9.698  10.915   4.952 -0.1451 -0.3192  0.3724
  486MOL0     C65539   9.616  10.997   4.862 -0.6609 -0.4546  1.0594
  486MOL0     C65540   9.544  11.073   4.797  0.3752 -0.2021 -0.6016
  486MOL0     C65541  10.305  11.094   5.028  1.0976 -0.1249  0.1862
  486MOL0     C65542  10.440  11.136   5.009  0.2909  0.9564  0.2910
  486MOL0     H65543  10.875  11.102   5.217  0.3405 -2.9132 -1.0110
  486MOL0     H65544  11.133  11.147   5.236 -1.6879  1.5466  1.5964
  486MOL0     H65545  11.373  11.301   4.882  1.9036  2.4762 -1.5754
  486MOL0     H65546  11.313  11.438   4.980  0.3051 -0.1067  1.9450
  486MOL0     H65547  11.492  11.305   5.148 -1.5350  0.1293 -0.5690
  486MOL0     H65548  11.586  11.299   4.987  2.0790  0.6674  0.1279
  486MOL0     H65549  11.660  11.507   5.078  0.1685  2.1673 -0.3692
  486MOL0     H65550  11.522  11.558   4.984 -2.9815 -1.1692  0.1700
  486MOL0     H65551  11.397  11.559   5.167  1.8780 -0.0312 -4.8000
  486MOL0     H65552  11.525  11.520   5.279 -2.5285  0.5928  0.4461
  486MOL0     H65553  11.652  11.742   5.179  0.3430  1.5163  1.7239
  486MOL0     H65554  11.508  11.767   5.088 -1.2186 -2.1211  0.1279
  486MOL0     H65555  11.392  11.759   5.324 -0.4665 -1.1157  0.3734
  486MOL0     H65556  11.547  11.798   5.388 -1.1393 -0.2624  0.6467
  486MOL0     H65557  11.447  11.967   5.165 -0.4936 -2.1906  0.2040
  486MOL0     H65558  11.421  12.024   5.318 -0.0198 -0.1765 -0.5159
  486MOL0     H65559  11.625  12.132   5.269 -1.1595  0.0019 -0.6016
  486MOL0     H65560  11.700  11.998   5.194  0.8116  0.6511  0.6240
  486MOL0     H65561  11.906  11.959   5.352  0.1037  2.9175 -0.0048
  486MOL0     H65562  11.896  11.910   5.747  0.6078  1.8240  0.3500
  486MOL0     H65563  11.968  11.812   5.610 -4.5482 -0.6967 -1.3847
  486MOL0     H65564  12.123  12.008   5.574  1.1493 -4.3650  0.6162
  486MOL0     H65565  12.132  11.951   5.733  1.1290 -0.4969 -2.3799
  486MOL0     H65566  12.105  12.194   5.775  0.7256  0.5991 -1.2338
  486MOL0     H65567  11.934  12.154   5.762  0.7199  1.4012  0.1218
  486MOL0     H65568  11.945  12.175   5.533  0.2703  0.3442 -0.9786
  486MOL0     H65569  12.110  12.244   5.527 -1.3258  1.4251 -2.1340
  486MOL0     H65570  11.740  12.340   5.486 -1.3629 -0.1225 -1.6166
  486MOL0     H65571  11.644  12.399   5.162  1.4091 -4.6958  2.2500
  486MOL0     H65572  11.572  12.386   5.320 -0.8657  0.8782  0.0242
  486MOL0     H65573  11.588  12.547   5.246  0.9837  0.4880 -1.6665
  486MOL0     H65574  11.927  12.597   4.807  1.8885  1.7771  0.6570
  486MOL0     H65575  11.869  12.701   4.604 -2.6227 -1.2349 -1.8138
  486MOL0     H65576  11.750  12.973   4.529  1.1432  0.4100 -1.6109
  486MOL0     H65577  11.822  12.837   4.448  0.7689  1.9637  0.3732
  486MOL0     H65578  11.639  12.821   4.284  1.5190 -1.1814  1.1140
  486MOL0     H65579  11.586  12.986   4.340  0.7735  1.0197  2.7273
  486MOL0     H65580  11.734  12.964   4.128 -0.0746  0.1402 -0.5805
  486MOL0     H65581  11.871  12.969   4.247  0.3351 -2.1371 -2.7836
  486MOL0     H65582  11.637  13.162   4.215  0.8369  0.1755 -0.9395
  486MOL0     H65583  11.751  13.163   4.352 -2.8862  0.2738  0.7077
  486MOL0     H65584  11.931  13.199   4.163  0.8132  0.6230  1.6208
  486MOL0     H65585  11.853  13.345   4.215 -0.6253 -0.3390  1.3535
  486MOL0     H65586  11.786  13.177   3.975 -1.0325  2.0475 -3.4919
  486MOL0     H65587  11.684  13.328   4.026 -0.4121 -1.1556 -1.1587
  486MOL0     H65588  11.966  13.289   3.920 -0.0938 -1.2725 -0.0006
  486MOL0     H65589  11.917  13.442   3.998 -3.6165  0.6251  1.6631
  486MOL0     H65590  11.785  13.318   3.759  0.8661 -0.1664 -1.9835
  486MOL0     H65591  11.895  13.455   3.754 -2.3718  1.8924 -0.9141
  486MOL0     H65592  11.477  12.792   4.731  0.1489 -1.6181 -0.8063
  486MOL0     H65593  11.539  12.700   4.969  2.6257 -1.2871  2.4572
  486MOL0     H65594  12.072  12.617   5.252 -2.3329  0.3828 -2.4303
  486MOL0     H65595  12.128  12.476   5.454 -0.0598 -2.9438 -2.0567
  486MOL0     H65596  11.134  11.331   4.853 -2.0691  0.8961 -0.6418
  486MOL0     H65597  10.890  11.271   4.825  2.2088 -0.2760 -1.1575
  486MOL0     H65598  10.531  10.887   4.791  0.3154  0.6708 -0.3528
  486MOL0     H65599  10.303  10.817   4.833  1.4922 -0.4376 -2.8135
  486MOL0     H65600  10.090  10.945   5.182 -1.9918  1.9905 -0.0195
  486MOL0     H65601  10.043  11.080   5.070  1.4084  1.3244  0.6636
  486MOL0     H65602   9.860  10.922   5.173  0.6416 -0.6054  0.1064
  486MOL0     H65603   9.917  10.810   5.054 -0.5000 -0.6992  2.3703
  486MOL0     H65604   9.888  11.020   4.891  0.1543 -0.5104  0.2411
  486MOL0     H65605   9.806  11.089   5.035 -1.3168  0.6852 -1.5183
  486MOL0     H65606   9.640  10.918   5.045 -0.0247  2.9925  0.4615
  486MOL0     H65607   9.717  10.811   4.924  0.9265  0.4805 -2.1548
  486MOL0     H65608   9.474  11.129   4.738  0.1219  0.0050 -0.1114
  486MOL0     H65609  10.242  11.152   5.095 -1.0314 -3.5476  1.4335
  486MOL0     H65610  10.481  11.224   5.057  3.1248  0.3767 -0.8473
  487MOL0     O65611   8.410  11.066   1.547  1.0791 -0.2698  0.4723
  487MOL0     C65612   8.402  11.103   1.665  0.3018 -0.1438  0.0169
  487MOL0     O65613   8.280  11.101   1.736  0.2136 -0.2618 -0.2534
  487MOL0     C65614   8.177  11.037   1.676 -1.0797  0.3149 -0.0980
  487MOL0     C65615   8.163  10.895   1.683  0.4122  0.5174 -0.5314
  487MOL0     C65616   8.047  10.833   1.629 -0.1297 -0.5837  1.2535
  487MOL0     C65617   7.955  10.915   1.559 -0.3062  0.7199  0.0371
  487MOL0     O65618   7.840  10.863   1.503  0.2650 -0.0180  0.1977
  487MOL0     C65619   7.817  10.720   1.513 -0.8791 -1.4887 -1.0184
  487MOL0     C65620   7.711  10.676   1.408 -0.2012 -0.5349  0.6664
  487MOL0     C65621   7.589  10.762   1.420  0.5222 -0.2511 -0.4334
  487MOL0     C65622   7.493  10.729   1.304 -0.5290  0.4296 -0.0568
  487MOL0     C65623   7.351  10.768   1.347  0.0326 -1.2481  0.0530
  487MOL0     C65624   7.318  10.916   1.358  0.3515  0.1936  0.4142
  487MOL0     C65625   7.205  10.954   1.456  0.4629  0.2274 -0.2760
  487MOL0     C65626   7.186  11.101   1.478  0.2507  0.0935 -0.3981
  487MOL0     N65627   7.062  11.146   1.546  0.0908 -0.0786  0.0745
  487MOL0     C65628   6.985  11.240   1.502  1.2838 -0.2193  0.3857
  487MOL0     C65629   6.910  11.285   1.609  0.4148 -0.3866 -0.4333
  487MOL0     C65630   6.813  11.394   1.620  0.7708  0.1983 -0.2981
  487MOL0     C65631   6.668  11.335   1.630 -0.3944  0.1212 -0.4173
  487MOL0     C65632   6.576  11.434   1.704  0.1683 -0.2957  0.1469
  487MOL0     C65633   6.435  11.369   1.720 -0.4727  0.2009 -0.3732
  487MOL0     O65634   6.341  11.475   1.758  0.0146 -0.0477  0.1437
  487MOL0     C65635   6.269  11.451   1.873  0.7674  0.8744  0.1059
  487MOL0     C65636   6.333  11.406   1.991 -0.3609 -0.0349  0.5178
  487MOL0     C65637   6.248  11.399   2.107 -0.0360  0.0043 -0.7122
  487MOL0     C65638   6.318  11.382   2.245 -0.1448 -0.9805 -0.7272
  487MOL0     C65639   6.107  11.426   2.108  0.3653 -0.1906  0.2458
  487MOL0     C65640   6.025  11.435   2.234 -0.3412  0.3442  0.3113
  487MOL0     O65641   6.065  11.355   2.343  0.4497 -0.1958 -0.3042
  487MOL0     C65642   5.997  11.323   2.458  1.1110 -0.3988  0.1803
  487MOL0     C65643   6.067  11.282   2.573  0.7596  0.4650  0.5001
  487MOL0     C65644   6.004  11.251   2.697 -0.8591 -0.8646  0.0182
  487MOL0     C65645   5.865  11.245   2.704 -0.6324 -0.4340 -0.2874
  487MOL0     O65646   5.793  11.235   2.823  0.1242  0.0118 -0.0059
  487MOL0     C65647   5.847  11.156   2.926  0.0492 -0.1638 -0.2568
  487MOL0     C65648   5.748  11.133   3.025 -1.0398  0.5229 -0.4017
  487MOL0     C65649   5.637  11.031   2.984  0.0186  0.0483 -0.4741
  487MOL0     C65650   5.555  10.994   3.109  0.1272 -1.1821  0.3730
  487MOL0     C65651   5.433  10.901   3.074  0.7039 -0.0096  0.1583
  487MOL0     C65652   5.478  10.758   3.034  0.8177 -0.7730 -0.6372
  487MOL0     C65653   5.364  10.665   3.014 -0.4568 -0.7434  0.1098
  487MOL0     C65654   5.413  10.525   3.025 -0.6293 -0.0603  0.3122
  487MOL0    Cl65655   5.452  10.487   3.195 -0.1252 -0.3220 -0.2014
  487MOL0     C65656   5.794  11.278   2.592 -0.5684 -0.6591 -0.6436
  487MOL0     C65657   5.856  11.312   2.466 -0.3059 -0.8234  0.9225
  487MOL0     O65658   5.929  11.514   2.232 -0.5233 -0.2504 -0.1378
  487MOL0     C65659   6.055  11.473   1.990  0.6365  0.3389  0.2549
  487MOL0     C65660   6.142  11.490   1.878  0.6860  0.2373  0.6047
  487MOL0     N65661   6.951  11.206   1.713 -0.2340 -0.6758 -0.1982
  487MOL0     N65662   7.025  11.109   1.672  0.1479  0.3082 -0.5847
  487MOL0     C65663   7.979  11.053   1.565 -0.4974  0.7191 -0.2895
  487MOL0     C65664   8.087  11.111   1.622  0.0624  0.3768 -0.3898
  487MOL0     C65665   8.524  11.177   1.721  0.2378 -0.8132  0.6430
  487MOL0     C65666   8.513  11.266   1.829 -0.6448 -0.3960  0.0084
  487MOL0     C65667   8.623  11.332   1.880  0.0496 -0.7261  0.3319
  487MOL0     C65668   8.748  11.325   1.819 -0.0212  0.7149  0.5536
  487MOL0     O65669   8.847  11.405   1.872  0.5822  0.0945 -0.3911
  487MOL0     C65670   8.976  11.403   1.817  0.5923 -0.7887  0.7059
  487MOL0     C65671   9.055  11.494   1.905  0.3047 -0.2668  0.2465
  487MOL0     C65672   9.202  11.481   1.866  0.8895  0.7153 -0.0349
  487MOL0     C65673   9.274  11.368   1.948  0.4571 -0.4005  0.6390
  487MOL0     C65674   9.269  11.394   2.092  0.2056  0.7863  1.0933
  487MOL0     C65675   9.251  11.388   2.211  0.4350 -0.2053  0.0514
  487MOL0     C65676   8.767  11.232   1.716 -0.4273  0.6190  0.1101
  487MOL0     C65677   8.649  11.164   1.666  1.1482  0.0580 -0.0994
  487MOL0     H65678   8.243  10.833   1.724  0.0154 -0.2504 -0.8835
  487MOL0     H65679   8.055  10.725   1.640 -0.6555 -0.8293 -0.4936
  487MOL0     H65680   7.904  10.661   1.482 -0.1564 -0.8867 -0.1507
  487MOL0     H65681   7.800  10.679   1.613 -0.7646  0.5394 -0.1286
  487MOL0     H65682   7.753  10.666   1.307 -4.0798 -0.2065 -1.1756
  487MOL0     H65683   7.688  10.573   1.437 -0.0818 -0.5225  0.8019
  487MOL0     H65684   7.539  10.748   1.517 -2.3890 -0.3329 -1.8444
  487MOL0     H65685   7.605  10.870   1.415 -1.8493  0.1154 -2.3828
  487MOL0     H65686   7.518  10.784   1.213 -1.6806  0.2487 -0.4953
  487MOL0     H65687   7.488  10.622   1.282 -3.6240  0.7304 -1.3850
  487MOL0     H65688   7.277  10.733   1.274 -1.0996  1.0362 -0.0034
  487MOL0     H65689   7.325  10.717   1.440  2.6199 -1.5824  0.6611
  487MOL0     H65690   7.403  10.979   1.385 -1.1494  2.3872  0.3002
  487MOL0     H65691   7.291  10.947   1.256 -1.0608 -2.4939 -0.1269
  487MOL0     H65692   7.110  10.915   1.420 -0.2261  0.0003  1.6868
  487MOL0     H65693   7.218  10.906   1.554 -1.8343  0.9174  0.4233
  487MOL0     H65694   7.187  11.155   1.383  1.8972 -0.0437 -0.4832
  487MOL0     H65695   7.274  11.138   1.530  2.1695 -2.3168 -1.7350
  487MOL0     H65696   6.975  11.291   1.407  2.4820  0.2321  0.4960
  487MOL0     H65697   6.819  11.450   1.714  0.6941 -0.0800 -0.1270
  487MOL0     H65698   6.806  11.456   1.531 -1.9437  0.2245 -0.1481
  487MOL0     H65699   6.671  11.246   1.693 -2.1130  0.8115  0.7268
  487MOL0     H65700   6.624  11.320   1.531  1.5069 -2.4476 -0.9737
  487MOL0     H65701   6.565  11.523   1.642  1.6504  1.5320  2.3350
  487MOL0     H65702   6.619  11.473   1.797 -1.5253  1.9560  0.0691
  487MOL0     H65703   6.452  11.289   1.792 -2.6689  1.4413  1.6837
  487MOL0     H65704   6.390  11.339   1.625 -0.2031 -0.9370 -0.1546
  487MOL0     H65705   6.438  11.393   2.014 -1.1796 -1.3273  4.2351
  487MOL0     H65706   6.295  11.283   2.284  1.6368 -1.6417 -1.2718
  487MOL0     H65707   6.424  11.384   2.218  0.2290  0.5594  0.6409
  487MOL0     H65708   6.292  11.463   2.314  1.2067 -0.8519 -0.3371
  487MOL0     H65709   6.173  11.259   2.580  0.2049 -2.0395  1.8968
  487MOL0     H65710   6.060  11.236   2.788  2.4492 -0.4831 -1.7806
  487MOL0     H65711   5.894  11.067   2.883  1.4655 -2.0656  4.5989
  487MOL0     H65712   5.923  11.211   2.982  0.3637  0.2579 -1.0822
  487MOL0     H65713   5.800  11.085   3.109  2.2835  1.3539 -1.8268
  487MOL0     H65714   5.718  11.231   3.063  0.9411  0.4070  1.7080
  487MOL0     H65715   5.676  10.940   2.938 -0.7081 -0.2997 -0.4140
  487MOL0     H65716   5.572  11.085   2.914 -0.1394  3.8572  2.2864
  487MOL0     H65717   5.616  10.954   3.190  0.5388 -0.1785  0.5748
  487MOL0     H65718   5.508  11.085   3.148  0.4751  0.4613 -2.6741
  487MOL0     H65719   5.362  10.940   3.001  0.1974 -1.8585 -0.3975
  487MOL0     H65720   5.379  10.907   3.169  2.4699  0.4645  1.1989
  487MOL0     H65721   5.541  10.777   2.947  2.7534  3.3816  1.3697
  487MOL0     H65722   5.544  10.722   3.113  0.0374 -2.5561 -0.7411
  487MOL0     H65723   5.314  10.687   2.920  0.9682 -0.0593 -0.5145
  487MOL0     H65724   5.291  10.686   3.093 -0.1383  0.2467  0.1515
  487MOL0     H65725   5.507  10.527   2.969  1.3250  3.7517  3.2504
  487MOL0     H65726   5.343  10.451   2.986 -0.3871 -0.8859  1.3913
  487MOL0     H65727   5.686  11.287   2.589 -0.4286  1.0340 -2.1312
  487MOL0     H65728   5.799  11.338   2.377 -0.5705  0.5357  1.4528
  487MOL0     H65729   5.954  11.513   1.991 -0.4483 -2.2559  0.1572
  487MOL0     H65730   6.106  11.520   1.780 -2.2017 -1.6018  0.9728
  487MOL0     H65731   7.893  11.104   1.522 -0.1364  0.6219 -1.1450
  487MOL0     H65732   8.080  11.216   1.649 -2.0507  0.2168 -0.1379
  487MOL0     H65733   8.416  11.276   1.877 -0.5457 -1.0623  0.3621
  487MOL0     H65734   8.611  11.399   1.965 -1.2567  4.9925 -3.7269
  487MOL0     H65735   9.021  11.303   1.824  1.6181 -0.2770  1.7319
  487MOL0     H65736   8.976  11.437   1.713 -0.3655 -0.0636  0.9280
  487MOL0     H65737   9.036  11.453   2.004 -1.1681  0.8379  0.4537
  487MOL0     H65738   9.004  11.591   1.905 -1.2088 -1.0200  1.9818
  487MOL0     H65739   9.261  11.570   1.891 -0.7513  2.6831 -2.6153
  487MOL0     H65740   9.208  11.458   1.759 -0.9938  0.6339 -0.1516
  487MOL0     H65741   9.376  11.363   1.909  0.5351 -1.0199  0.9061
  487MOL0     H65742   9.225  11.270   1.936 -3.1433  1.2953  0.2091
  487MOL0     H65743   9.246  11.369   2.317  0.2336  0.1528  0.1067
  487MOL0     H65744   8.862  11.209   1.669 -2.5361  0.5048 -4.6950
  487MOL0     H65745   8.670  11.081   1.599  1.4916  1.9797 -2.4952
  488MOL0     O65746   9.629   6.444   0.227  0.7427  0.6798 -0.0646
  488MOL0     C65747   9.727   6.380   0.255  0.2646 -0.0302 -0.3082
  488MOL0     O65748   9.727   6.261   0.318 -0.3038 -0.1581 -0.1322
  488MOL0     C65749   9.619   6.180   0.355  0.1231 -0.2165 -0.2743
  488MOL0     C65750   9.645   6.052   0.422  0.0623 -0.2361  1.1506
  488MOL0     C65751   9.538   5.959   0.461 -0.0426  0.3449 -1.1442
  488MOL0     C65752   9.409   5.983   0.416 -0.4226 -0.3646 -0.6664
  488MOL0     O65753   9.326   5.881   0.439  0.1402 -0.1240 -0.3705
  488MOL0     C65754   9.197   5.882   0.367  0.2822  0.2535 -0.6183
  488MOL0     C65755   9.097   5.975   0.438 -0.2516 -0.9301  1.0751
  488MOL0     C65756   9.046   5.901   0.567  0.5086 -0.6967 -0.5463
  488MOL0     C65757   8.915   5.962   0.597 -0.0753  0.1859  0.3766
  488MOL0     C65758   8.866   5.908   0.734 -0.0799  0.4655  0.4010
  488MOL0     C65759   8.720   5.938   0.767 -0.3438  0.3765  0.5546
  488MOL0     C65760   8.684   5.908   0.912 -0.2910  0.8833 -0.3563
  488MOL0     C65761   8.642   5.755   0.943 -0.0076 -1.1883  0.2245
  488MOL0     N65762   8.618   5.742   1.090 -0.0510 -0.8692 -0.5986
  488MOL0     C65763   8.528   5.813   1.166 -0.0823  0.5700 -0.6286
  488MOL0     C65764   8.584   5.795   1.298  0.2560 -0.7086 -0.3667
  488MOL0     C65765   8.523   5.855   1.432 -0.8266  0.0160  1.3029
  488MOL0     C65766   8.579   5.989   1.460 -0.2088 -0.5607  0.0787
  488MOL0     C65767   8.545   6.100   1.374  0.0798  0.9634  0.5313
  488MOL0     C65768   8.611   6.230   1.408 -0.4496 -0.2979  0.0631
  488MOL0     O65769   8.566   6.335   1.319 -0.3682 -0.2549 -0.1702
  488MOL0     C65770   8.612   6.345   1.194  0.2513  0.8469 -0.5900
  488MOL0     C65771   8.727   6.414   1.192 -0.3007 -0.5010 -0.1200
  488MOL0     C65772   8.794   6.447   1.078  0.8526  0.3315  0.9927
  488MOL0     C65773   8.922   6.536   1.091  0.6204  0.5141 -0.2637
  488MOL0     C65774   8.746   6.398   0.952 -0.5984  0.5112 -1.0306
  488MOL0     C65775   8.803   6.402   0.823 -1.0524 -0.2265  0.8692
  488MOL0     O65776   8.722   6.374   0.718  1.3485  0.4232 -0.1081
  488MOL0     C65777   8.768   6.362   0.596  0.0771 -0.3530  0.1006
  488MOL0     C65778   8.847   6.470   0.539  0.0099  0.0465 -0.2292
  488MOL0     C65779   8.889   6.457   0.396  0.4581  0.7729  0.0431
  488MOL0     C65780   8.833   6.357   0.313  1.3605  0.9317  0.6072
  488MOL0     O65781   8.867   6.337   0.181  0.2323 -0.1544 -0.3924
  488MOL0     C65782   8.903   6.455   0.111  0.5673  0.6383  0.6733
  488MOL0     C65783   8.943   6.424  -0.039  0.0916  0.1340  0.1136
  488MOL0     C65784   9.094   6.432  -0.057 -0.9806  0.0881 -0.6368
  488MOL0     C65785   9.126   6.380  -0.197 -0.5771 -0.3687 -0.2883
  488MOL0     C65786   9.269   6.429  -0.241  0.5146  0.4755 -0.1090
  488MOL0     C65787   9.302   6.357  -0.373  0.6499 -0.0781  0.6223
  488MOL0     C65788   9.452   6.370  -0.412  0.4148  0.0265  0.3549
  488MOL0     C65789   9.483   6.318  -0.550 -0.5836  0.2981  0.3510
  488MOL0    Cl65790   9.649   6.343  -0.598 -0.0906 -0.1250 -0.1237
  488MOL0     C65791   8.757   6.260   0.375  0.3791  0.5051 -0.2821
  488MOL0     C65792   8.731   6.259   0.511 -0.4079 -0.3008 -0.0579
  488MOL0     O65793   8.925   6.411   0.813 -0.4987  0.6707  0.2645
  488MOL0     C65794   8.633   6.312   0.960  0.0967 -0.5539  0.5720
  488MOL0     C65795   8.564   6.284   1.078  1.1194 -0.4371 -0.0371
  488MOL0     N65796   8.695   5.721   1.298 -0.5507 -0.4095  0.2879
  488MOL0     N65797   8.710   5.688   1.170  0.1380 -0.8258  0.2013
  488MOL0     C65798   9.392   6.111   0.362  0.8225 -0.1841  0.1193
  488MOL0     C65799   9.487   6.215   0.329  0.8182 -0.2126 -0.4816
  488MOL0     C65800   9.858   6.447   0.235  1.1711 -0.7955 -0.4456
  488MOL0     C65801   9.875   6.543   0.134  0.0723  0.4477 -0.0144
  488MOL0     C65802   9.994   6.605   0.114 -0.1760  0.4842  0.3594
  488MOL0     C65803  10.098   6.590   0.197 -0.7301  0.5087  0.0953
  488MOL0     O65804  10.209   6.660   0.153 -0.5015  0.2443  0.5643
  488MOL0     C65805  10.337   6.590   0.175 -0.3664  0.3584  0.8419
  488MOL0     C65806  10.469   6.651   0.118  0.0806 -0.6448  0.3259
  488MOL0     C65807  10.485   6.791   0.183 -0.8456 -0.2054  0.0871
  488MOL0     C65808  10.602   6.868   0.138 -0.8868 -1.7801  0.1620
  488MOL0     C65809  10.597   7.001   0.212 -0.7065 -0.5508  0.9622
  488MOL0     C65810  10.596   7.102   0.280  0.0433 -1.0559  0.1896
  488MOL0     C65811  10.082   6.507   0.311  0.1573 -0.2875 -0.5720
  488MOL0     C65812   9.968   6.429   0.324 -0.1515 -0.5733 -0.7766
  488MOL0     H65813   9.744   6.008   0.435 -0.5133 -2.1730 -0.5350
  488MOL0     H65814   9.564   5.869   0.515  0.6722  1.8947  1.2589
  488MOL0     H65815   9.208   5.913   0.263  0.8643  0.3294 -0.5398
  488MOL0     H65816   9.150   5.783   0.372  0.2801  0.3000  1.5769
  488MOL0     H65817   9.145   6.067   0.474  0.5877 -0.4184 -1.1795
  488MOL0     H65818   9.014   5.995   0.370 -0.1814  3.3231  1.9316
  488MOL0     H65819   9.036   5.794   0.546 -0.3845 -0.9518  1.0411
  488MOL0     H65820   9.120   5.915   0.646 -0.1244 -0.1997 -0.0306
  488MOL0     H65821   8.930   6.069   0.608  1.0154 -0.0902  2.0550
  488MOL0     H65822   8.843   5.936   0.519  1.5027 -0.1959 -1.0270
  488MOL0     H65823   8.875   5.799   0.745 -1.8937 -0.1521 -2.8616
  488MOL0     H65824   8.935   5.956   0.804 -0.8114 -0.2466  1.6446
  488MOL0     H65825   8.707   6.044   0.745  0.0730  0.4843  0.8275
  488MOL0     H65826   8.662   5.872   0.701  3.3104 -0.7643 -1.8150
  488MOL0     H65827   8.759   5.943   0.983 -0.1835  0.4825 -0.2660
  488MOL0     H65828   8.588   5.958   0.925 -0.5538  0.5346 -0.9023
  488MOL0     H65829   8.724   5.687   0.918  1.9787 -0.4054  3.8445
  488MOL0     H65830   8.552   5.729   0.889  0.1106 -1.1182 -0.0058
  488MOL0     H65831   8.455   5.889   1.138 -1.4205 -1.2952 -2.5631
  488MOL0     H65832   8.416   5.858   1.414 -0.3607  1.0663 -1.9651
  488MOL0     H65833   8.546   5.794   1.520 -3.2061  0.8941  2.6209
  488MOL0     H65834   8.687   5.981   1.472 -0.2949 -0.1898  1.2585
  488MOL0     H65835   8.546   6.018   1.561 -0.4105  0.9274 -0.3919
  488MOL0     H65836   8.436   6.116   1.376  0.1429  1.3863  2.9842
  488MOL0     H65837   8.577   6.068   1.274 -0.9981 -0.6639  0.6725
  488MOL0     H65838   8.716   6.220   1.380 -0.1627  4.0936 -1.1506
  488MOL0     H65839   8.594   6.266   1.510 -0.2957  2.3423 -0.7756
  488MOL0     H65840   8.769   6.435   1.290 -0.5305 -0.7709  0.0369
  488MOL0     H65841   8.925   6.615   1.015  0.1015  0.3188 -0.4943
  488MOL0     H65842   8.937   6.579   1.190  3.6122 -0.0895 -0.3724
  488MOL0     H65843   9.007   6.469   1.077 -0.0416  0.1992 -3.7577
  488MOL0     H65844   8.870   6.553   0.606 -3.0881 -1.2351  2.7304
  488MOL0     H65845   8.949   6.539   0.358 -0.8914  1.0670 -1.5471
  488MOL0     H65846   8.809   6.511   0.111 -0.0092 -0.3089  0.2638
  488MOL0     H65847   8.990   6.516   0.136  0.9696  2.5698 -4.1660
  488MOL0     H65848   8.911   6.321  -0.060  0.0874 -0.2247  1.7254
  488MOL0     H65849   8.903   6.495  -0.113  1.9826 -1.1985 -2.3505
  488MOL0     H65850   9.148   6.378   0.022  0.3861  1.2443 -0.7285
  488MOL0     H65851   9.132   6.535  -0.051  1.7029 -0.7810 -1.1055
  488MOL0     H65852   9.130   6.271  -0.203 -1.1290 -0.3819 -0.4875
  488MOL0     H65853   9.045   6.411  -0.264 -2.2023 -0.2649  1.6204
  488MOL0     H65854   9.343   6.405  -0.164 -2.1377 -0.3026  2.4012
  488MOL0     H65855   9.269   6.537  -0.259 -2.9661  0.9291  1.6504
  488MOL0     H65856   9.290   6.249  -0.359  0.2024 -0.2803 -1.0851
  488MOL0     H65857   9.237   6.397  -0.451 -0.9240 -1.1329  1.3392
  488MOL0     H65858   9.507   6.319  -0.333 -2.1031 -4.6926 -0.5741
  488MOL0     H65859   9.487   6.473  -0.426 -0.0684  0.1736  0.1879
  488MOL0     H65860   9.422   6.363  -0.629  0.6616 -1.9182 -2.0299
  488MOL0     H65861   9.460   6.212  -0.552 -0.2851  0.2345  0.2049
  488MOL0     H65862   8.733   6.172   0.316  1.2226 -2.4941  3.4445
  488MOL0     H65863   8.691   6.173   0.563 -0.4847  0.3598  1.0097
  488MOL0     H65864   8.598   6.261   0.871  5.1985 -1.7899 -0.9956
  488MOL0     H65865   8.469   6.232   1.086  0.7242  0.3004  0.1657
  488MOL0     H65866   9.288   6.131   0.340 -0.1924 -3.9952  0.8624
  488MOL0     H65867   9.445   6.306   0.287 -0.0137 -0.4439 -0.1748
  488MOL0     H65868   9.795   6.582   0.072 -0.7057  2.2336  1.9809
  488MOL0     H65869  10.006   6.679   0.036  0.0007  0.7162  0.6079
  488MOL0     H65870  10.348   6.578   0.283  0.8084 -2.2147  0.5129
  488MOL0     H65871  10.332   6.490   0.130 -3.4449  0.4242  0.8136
  488MOL0     H65872  10.470   6.655   0.009 -0.3780  0.2702  0.3523
  488MOL0     H65873  10.558   6.589   0.137  1.3202 -0.0511 -2.8733
  488MOL0     H65874  10.492   6.778   0.291  0.5146 -2.1422 -0.1847
  488MOL0     H65875  10.392   6.846   0.164 -1.0200 -0.6499 -0.3602
  488MOL0     H65876  10.609   6.888   0.031  1.5473 -0.1259  0.5499
  488MOL0     H65877  10.692   6.810   0.160  1.5767  1.6970  0.1378
  488MOL0     H65878  10.594   7.175   0.358  1.1858 -1.4530  0.6177
  488MOL0     H65879  10.156   6.485   0.386  0.2428  1.0410 -0.2355
  488MOL0     H65880   9.961   6.365   0.411 -2.2913 -2.3551 -2.1574
  489MOL0     O65881   9.148   8.574  11.437  0.1951 -0.2740  0.1472
  489MOL0     C65882   9.212   8.642  11.361 -0.8479 -0.5621  0.6699
  489MOL0     O65883   9.167   8.703  11.254  0.5536 -0.4976  0.6269
  489MOL0     C65884   9.027   8.732  11.238  0.0371 -0.9067  0.0641
  489MOL0     C65885   8.925   8.708  11.329  0.5927 -0.8685 -0.4372
  489MOL0     C65886   8.792   8.749  11.313  0.6309  0.5701  0.3065
  489MOL0     C65887   8.764   8.830  11.202 -0.1091  0.3261 -0.6261
  489MOL0     O65888   8.641   8.873  11.153 -0.6652  0.5615 -0.4793
  489MOL0     C65889   8.537   8.868  11.239  0.9102  0.2065 -0.2666
  489MOL0     C65890   8.451   8.985  11.212 -0.7423 -0.5084  0.3935
  489MOL0     C65891   8.344   9.006  11.317  0.5194 -0.1901 -0.4440
  489MOL0     C65892   8.228   9.070  11.252 -0.7808  1.2893  0.1270
  489MOL0     C65893   8.104   9.086  11.343  0.1811 -0.3057 -0.4837
  489MOL0     C65894   7.974   9.083  11.275 -0.4964 -0.3694  0.1716
  489MOL0     C65895   7.873   9.124  11.381  0.2411  0.4924  0.3909
  489MOL0     C65896   7.735   9.104  11.322  0.2466 -0.0292 -0.1117
  489MOL0     N65897   7.625   9.153  11.413 -0.1630 -0.9254 -0.2203
  489MOL0     C65898   7.597   9.095  11.530  0.4713  0.2018  0.2981
  489MOL0     C65899   7.484   9.171  11.569 -0.0864 -0.4753  0.0116
  489MOL0     C65900   7.413   9.152  11.697  0.6762 -1.1539 -0.9503
  489MOL0     C65901   7.276   9.079  11.673 -0.3088  0.8361  0.2774
  489MOL0     C65902   7.282   8.946  11.587 -0.3638  0.3102 -0.0826
  489MOL0     C65903   7.142   8.898  11.544 -0.5147  0.1949  0.1600
  489MOL0     O65904   7.044   8.889  11.647  0.4778  0.3996 -0.2137
  489MOL0     C65905   6.922   8.843  11.602  0.6619 -0.1108 -1.1386
  489MOL0     C65906   6.854   8.894  11.495 -0.5031  0.0347  0.0174
  489MOL0     C65907   6.743   8.831  11.446  0.0960  0.1252  0.6412
  489MOL0     C65908   6.688   8.915  11.327  0.4398  1.2070  0.6090
  489MOL0     C65909   6.705   8.700  11.495  0.5614  0.2228  0.3295
  489MOL0     C65910   6.584   8.623  11.436  0.9118  0.4545 -0.9460
  489MOL0     O65911   6.530   8.670  11.319 -0.1171 -0.8865  0.2907
  489MOL0     C65912   6.411   8.617  11.268  0.7194 -0.9407 -0.7674
  489MOL0     C65913   6.306   8.707  11.253  0.3076  1.2557  0.2055
  489MOL0     C65914   6.183   8.663  11.200 -0.7221  0.5170  1.5919
  489MOL0     C65915   6.161   8.528  11.165  0.7812  0.3114  0.0996
  489MOL0     O65916   6.044   8.498  11.099  0.0516  0.5910 -0.3166
  489MOL0     C65917   6.011   8.361  11.107  0.4832  0.0222 -1.0019
  489MOL0     C65918   5.866   8.330  11.063  0.3099 -0.1777  0.0802
  489MOL0     C65919   5.852   8.169  11.048  0.7698 -0.1879  0.1520
  489MOL0     C65920   5.698   8.154  11.021 -0.0201 -0.2646 -0.6057
  489MOL0     C65921   5.657   8.016  11.034  0.3576  0.4461 -0.0527
  489MOL0     C65922   5.719   7.914  10.940 -0.5198  0.6731 -0.1002
  489MOL0     C65923   5.645   7.779  10.934  0.7827 -0.1755 -0.5022
  489MOL0     C65924   5.629   7.705  11.068  0.5759  0.2749  0.2160
  489MOL0    Cl65925   5.792   7.670  11.131  0.2981 -0.3588 -0.3808
  489MOL0     C65926   6.264   8.438  11.175 -0.1702 -0.6997 -0.5967
  489MOL0     C65927   6.386   8.485  11.236  1.0175  0.4578 -0.5912
  489MOL0     O65928   6.556   8.522  11.498  0.2108  0.3347 -0.4292
  489MOL0     C65929   6.771   8.654  11.610  0.8885 -0.4457  1.0208
  489MOL0     C65930   6.873   8.726  11.663 -1.3745 -0.0193 -0.4440
  489MOL0     N65931   7.471   9.277  11.480 -0.1159  0.3275  0.2930
  489MOL0     N65932   7.558   9.266  11.389  1.4849  0.3945  0.4639
  489MOL0     C65933   8.859   8.844  11.103 -0.7159 -0.2174  0.3424
  489MOL0     C65934   8.992   8.803  11.125  0.1737  0.3870 -1.1335
  489MOL0     C65935   9.359   8.668  11.374 -1.0072 -0.4624 -0.8961
  489MOL0     C65936   9.418   8.770  11.300 -0.6392 -0.7811 -0.8898
  489MOL0     C65937   9.554   8.803  11.320 -0.8207 -0.5268  0.0923
  489MOL0     C65938   9.632   8.729  11.416  0.4470  0.1297  0.4823
  489MOL0     O65939   9.774   8.744  11.443  0.2627 -0.2030  0.2278
  489MOL0     C65940   9.855   8.849  11.391  0.9478 -0.5628  0.2399
  489MOL0     C65941   9.963   8.788  11.303  0.4368  0.1833 -0.6446
  489MOL0     C65942  10.023   8.658  11.361  0.2999  0.3543  0.5491
  489MOL0     C65943  10.082   8.676  11.498  0.1683  0.0407  0.2162
  489MOL0     C65944  10.183   8.574  11.531  0.7854  0.3194 -0.6704
  489MOL0     C65945  10.256   8.483  11.570  0.1509  0.4996  0.1394
  489MOL0     C65946   9.575   8.623  11.478 -0.3045 -0.9406 -0.1331
  489MOL0     C65947   9.438   8.592  11.465 -0.4341 -0.1024  0.3677
  489MOL0     H65948   8.940   8.658  11.424 -0.1710  0.4243  0.4173
  489MOL0     H65949   8.712   8.728  11.384 -0.3839  2.3749 -0.2398
  489MOL0     H65950   8.481   8.775  11.223 -1.1891  1.4265 -0.3126
  489MOL0     H65951   8.569   8.880  11.343 -2.8740  0.9592  0.9824
  489MOL0     H65952   8.493   9.085  11.200 -0.7126 -0.4455  0.9885
  489MOL0     H65953   8.405   8.961  11.115  0.0955 -0.2801 -0.0708
  489MOL0     H65954   8.308   8.914  11.363  0.3915  0.1933  0.2347
  489MOL0     H65955   8.389   9.057  11.402 -3.0913 -0.5803  1.8995
  489MOL0     H65956   8.260   9.168  11.215 -2.3035  1.3879 -1.0366
  489MOL0     H65957   8.194   9.002  11.173 -0.0919  2.0106 -0.8245
  489MOL0     H65958   8.099   9.007  11.418  0.4959 -1.5735 -1.7626
  489MOL0     H65959   8.117   9.175  11.405  4.2480 -1.6600  0.9727
  489MOL0     H65960   7.975   9.155  11.193  0.7719 -0.6200 -0.0498
  489MOL0     H65961   7.953   8.984  11.235 -2.1951 -0.5932  1.4783
  489MOL0     H65962   7.866   9.061  11.470  2.3113  0.9531  0.9312
  489MOL0     H65963   7.885   9.229  11.408  2.8698  0.6699 -1.2004
  489MOL0     H65964   7.729   8.998  11.296  1.4226 -0.2014  0.2633
  489MOL0     H65965   7.742   9.164  11.230  1.3071  0.6767  0.4043
  489MOL0     H65966   7.637   9.009  11.582 -0.2912  0.4525  1.3255
  489MOL0     H65967   7.483   9.088  11.752 -0.9746 -4.0668 -2.0044
  489MOL0     H65968   7.386   9.247  11.742  4.0405  0.7083 -2.5107
  489MOL0     H65969   7.222   9.149  11.608 -2.3458 -0.1831  0.7806
  489MOL0     H65970   7.210   9.063  11.758 -2.5785  1.2398 -1.3140
  489MOL0     H65971   7.327   8.872  11.653 -1.0843 -2.0747 -2.1106
  489MOL0     H65972   7.343   8.951  11.497 -0.0225 -2.2248 -0.0649
  489MOL0     H65973   7.159   8.798  11.502  2.2739  0.3679  0.6900
  489MOL0     H65974   7.103   8.964  11.465 -4.6523  0.9977  2.5729
  489MOL0     H65975   6.910   8.972  11.446  3.5651 -3.9932 -2.6006
  489MOL0     H65976   6.587   8.951  11.347 -1.6722 -4.0706  0.8912
  489MOL0     H65977   6.757   9.000  11.313  0.7457  1.1723  1.7860
  489MOL0     H65978   6.690   8.853  11.237  2.5937 -1.0625  2.0768
  489MOL0     H65979   6.323   8.809  11.289 -0.2088  1.8501 -1.1618
  489MOL0     H65980   6.100   8.731  11.181 -0.7490  0.2898  0.8992
  489MOL0     H65981   6.076   8.300  11.044  1.6720 -0.6817  0.8360
  489MOL0     H65982   6.011   8.330  11.212  1.1452 -0.2864 -1.0881
  489MOL0     H65983   5.789   8.361  11.134 -2.1439 -2.0785 -1.5903
  489MOL0     H65984   5.845   8.387  10.972 -0.2898  0.3827  0.5631
  489MOL0     H65985   5.874   8.123  11.144  1.7541 -0.5605 -0.2445
  489MOL0     H65986   5.914   8.121  10.972 -1.1926  0.2891 -1.8616
  489MOL0     H65987   5.647   8.210  11.100  1.7058 -1.0057  1.1035
  489MOL0     H65988   5.671   8.178  10.918 -0.6163 -2.5550 -1.0410
  489MOL0     H65989   5.548   8.018  11.037  0.3741  0.5366  1.3963
  489MOL0     H65990   5.680   7.972  11.132  1.6863  0.8416 -0.1650
  489MOL0     H65991   5.700   7.968  10.847 -1.8418  2.2367  0.9997
  489MOL0     H65992   5.825   7.899  10.964 -1.3748 -2.1711  2.4890
  489MOL0     H65993   5.698   7.712  10.867  2.6063  1.0693 -0.3667
  489MOL0     H65994   5.549   7.799  10.884  0.3918 -0.4116  0.1403
  489MOL0     H65995   5.577   7.611  11.050  1.5584 -0.2212 -0.1548
  489MOL0     H65996   5.565   7.754  11.142  0.4710 -0.5398  0.6828
  489MOL0     H65997   6.261   8.334  11.143  0.0998 -0.3464 -1.8272
  489MOL0     H65998   6.473   8.422  11.250 -1.0763 -3.0232 -2.0470
  489MOL0     H65999   6.760   8.551  11.642  2.2286 -1.4854 -1.5618
  489MOL0     H66000   6.926   8.674  11.743 -2.7458  0.3735  0.7779
  489MOL0     H66001   8.836   8.900  11.013  0.6932 -0.9591 -0.5233
  489MOL0     H66002   9.070   8.824  11.053 -0.6079  4.2708 -1.0277
  489MOL0     H66003   9.352   8.836  11.244 -4.0047 -3.1179  0.0259
  489MOL0     H66004   9.584   8.887  11.259 -1.7148  1.1689  1.8860
  489MOL0     H66005   9.792   8.924  11.342  0.8876 -0.3220  0.6824
  489MOL0     H66006   9.902   8.883  11.484  1.8536  0.7082 -0.6446
  489MOL0     H66007  10.043   8.861  11.289  2.0505 -1.4767 -0.4685
  489MOL0     H66008   9.921   8.761  11.205  1.4847 -0.2930 -0.9715
  489MOL0     H66009  10.098   8.629  11.287 -0.2855 -0.4570  0.2521
  489MOL0     H66010   9.946   8.581  11.371  0.0221 -0.0995 -3.5143
  489MOL0     H66011  10.009   8.684  11.579  1.5538 -0.2585  1.5311
  489MOL0     H66012  10.147   8.764  11.503  0.4129 -0.1518  0.4260
  489MOL0     H66013  10.327   8.406  11.594 -0.4260  0.5883  2.3491
  489MOL0     H66014   9.634   8.568  11.551  0.1772  2.0469  1.8992
  489MOL0     H66015   9.398   8.505  11.516  0.5903 -0.0591  1.2799
  490MOL0     O66016   5.469   5.101   9.069  0.2986  0.2749  0.1718
  490MOL0     C66017   5.424   4.994   9.102 -0.0380  0.5100 -0.2430
  490MOL0     O66018   5.469   4.881   9.061  0.3933  0.1593 -0.2890
  490MOL0     C66019   5.580   4.853   8.983 -0.0541 -0.3036 -0.1846
  490MOL0     C66020   5.583   4.757   8.896  0.0515 -0.0672 -1.5298
  490MOL0     C66021   5.699   4.723   8.817 -0.0580 -0.4461 -0.7282
  490MOL0     C66022   5.818   4.805   8.815 -0.4598 -0.4455 -0.7744
  490MOL0     O66023   5.930   4.781   8.738 -0.5087 -0.6277 -0.4050
  490MOL0     C66024   5.935   4.644   8.682 -0.1225  0.4209 -0.9165
  490MOL0     C66025   6.077   4.620   8.643  0.3346 -0.4027 -0.2045
  490MOL0     C66026   6.120   4.702   8.518 -0.8534 -0.2451 -0.1817
  490MOL0     C66027   6.084   4.640   8.379  0.2859  0.7701  0.4727
  490MOL0     C66028   6.120   4.733   8.262 -0.7488 -0.6101  0.6524
  490MOL0     C66029   6.276   4.749   8.247  0.3812  0.9237  0.0998
  490MOL0     C66030   6.295   4.846   8.128 -0.6721 -0.3965 -0.0880
  490MOL0     C66031   6.327   4.988   8.178  0.5746 -0.2391  0.2294
  490MOL0     N66032   6.214   5.044   8.256 -0.3973 -0.1513 -0.2457
  490MOL0     C66033   6.228   5.091   8.384 -0.0894  0.4146  0.2187
  490MOL0     C66034   6.112   5.155   8.409  0.5015 -0.5960  0.3425
  490MOL0     C66035   6.085   5.226   8.543  0.8334 -0.9701  0.1354
  490MOL0     C66036   5.964   5.168   8.620  0.3051  0.9247 -1.1714
  490MOL0     C66037   5.832   5.156   8.533  0.1742  0.9430 -0.3229
  490MOL0     C66038   5.705   5.107   8.602 -0.0530 -0.0022 -0.7736
  490MOL0     O66039   5.587   5.163   8.546  0.0376 -0.3672  0.4965
  490MOL0     C66040   5.463   5.128   8.589  0.5872  0.6399 -0.6191
  490MOL0     C66041   5.349   5.144   8.511 -0.0748  0.5959  0.7247
  490MOL0     C66042   5.222   5.102   8.542 -0.1478  0.2216  0.2556
  490MOL0     C66043   5.118   5.126   8.442  0.1352 -0.2999  0.7035
  490MOL0     C66044   5.196   5.051   8.671 -0.0736  0.7194  0.1406
  490MOL0     C66045   5.070   5.003   8.723  0.0985  0.6611  0.4991
  490MOL0     O66046   5.070   4.911   8.822  0.7839  0.1440  0.0691
  490MOL0     C66047   4.956   4.835   8.831  0.9841 -0.1020  0.5810
  490MOL0     C66048   4.942   4.712   8.767  0.1972  0.1098 -1.1908
  490MOL0     C66049   4.828   4.627   8.797 -0.3280 -0.4517  0.5495
  490MOL0     C66050   4.731   4.662   8.894  0.0708  0.3198  0.0923
  490MOL0     O66051   4.628   4.569   8.912 -0.1864 -0.3071 -0.8633
  490MOL0     C66052   4.507   4.626   8.962 -0.0319 -0.7192  0.1622
  490MOL0     C66053   4.390   4.548   8.883 -0.0023 -0.7492 -0.2845
  490MOL0     C66054   4.340   4.614   8.758  0.0182  0.9900 -0.5042
  490MOL0     C66055   4.226   4.542   8.689  0.8630  0.1484 -1.1731
  490MOL0     C66056   4.084   4.532   8.737  0.5563 -0.7007  0.2063
  490MOL0     C66057   4.038   4.681   8.780  0.0104 -0.3060  0.2871
  490MOL0     C66058   4.044   4.773   8.668 -0.0979 -0.0792  0.1643
  490MOL0     C66059   3.971   4.906   8.687 -0.0566 -0.4708 -0.0812
  490MOL0    Cl66060   4.043   5.001   8.822  0.3438  0.3457 -0.1598
  490MOL0     C66061   4.754   4.786   8.961  0.0042 -0.4446 -0.8390
  490MOL0     C66062   4.862   4.873   8.930 -0.2001  0.3760  0.6837
  490MOL0     O66063   4.971   5.053   8.672 -0.5802  0.6921  0.1863
  490MOL0     C66064   5.309   5.024   8.745 -0.0722  0.2448 -0.8712
  490MOL0     C66065   5.439   5.061   8.712  0.4646 -0.2228  0.7235
  490MOL0     N66066   6.038   5.167   8.295  0.4593  0.9699 -0.3564
  490MOL0     N66067   6.098   5.092   8.206  0.1473 -0.2481 -0.8550
  490MOL0     C66068   5.803   4.920   8.889 -0.3221 -0.8607  0.8494
  490MOL0     C66069   5.691   4.944   8.973 -0.0465  0.3335  0.7937
  490MOL0     C66070   5.316   4.996   9.199  0.6249  0.7051  0.1125
  490MOL0     C66071   5.267   4.876   9.256  0.6909  0.3208 -0.1401
  490MOL0     C66072   5.156   4.874   9.343  0.1225  0.6403  0.3760
  490MOL0     C66073   5.094   4.995   9.375 -0.1556  1.0413 -0.5404
  490MOL0     O66074   4.976   4.999   9.447 -0.2685 -0.1243 -0.2886
  490MOL0     C66075   4.899   4.876   9.468  0.3058 -0.1542  0.6426
  490MOL0     C66076   4.815   4.835   9.347  0.2366  0.3775 -0.2760
  490MOL0     C66077   4.719   4.949   9.283  0.3192 -1.0889 -0.2892
  490MOL0     C66078   4.601   4.980   9.381 -0.1605  0.2252 -0.1925
  490MOL0     C66079   4.499   4.880   9.358 -0.4660 -0.0460 -0.4166
  490MOL0     C66080   4.438   4.774   9.354  0.4293  0.3245 -0.6289
  490MOL0     C66081   5.138   5.113   9.319  0.3103  0.3969 -0.2787
  490MOL0     C66082   5.252   5.114   9.232 -0.3217 -0.2807 -0.1784
  490MOL0     H66083   5.501   4.686   8.889  1.5265 -2.0346  0.1197
  490MOL0     H66084   5.687   4.643   8.745  0.8392 -0.1257 -1.2392
  490MOL0     H66085   5.910   4.573   8.761 -0.8470 -0.2309 -1.7126
  490MOL0     H66086   5.873   4.639   8.592 -0.5623 -0.5234 -0.5694
  490MOL0     H66087   6.135   4.641   8.733  0.6559 -2.1615  0.0456
  490MOL0     H66088   6.083   4.515   8.611 -1.9331  0.0909 -2.5587
  490MOL0     H66089   6.072   4.800   8.527 -0.0866  0.0095  1.6563
  490MOL0     H66090   6.229   4.707   8.521 -0.6165 -3.4498  1.3680
  490MOL0     H66091   6.131   4.544   8.358  1.6328  1.2577  1.1703
  490MOL0     H66092   5.975   4.635   8.373  0.3740 -0.0531 -0.6706
  490MOL0     H66093   6.080   4.697   8.167  1.7702 -1.2147 -0.2601
  490MOL0     H66094   6.069   4.829   8.275  0.2804  0.2831 -1.4763
  490MOL0     H66095   6.321   4.783   8.340  0.7375  1.8804 -0.4104
  490MOL0     H66096   6.318   4.650   8.225 -1.8546 -0.7678  2.6178
  490MOL0     H66097   6.374   4.811   8.061 -1.8558 -0.5792 -1.4556
  490MOL0     H66098   6.199   4.840   8.075 -0.9416 -0.4809  0.4053
  490MOL0     H66099   6.339   5.040   8.083  0.9051 -1.7943 -0.6098
  490MOL0     H66100   6.423   5.012   8.226  0.6358  1.4317 -0.6409
  490MOL0     H66101   6.311   5.070   8.451 -0.0194 -1.3956 -0.3819
  490MOL0     H66102   6.169   5.231   8.612  0.8252 -1.2659  0.1672
  490MOL0     H66103   6.051   5.327   8.521 -1.7032 -1.8626 -0.3725
  490MOL0     H66104   5.956   5.235   8.706  2.6290  0.1342 -0.2742
  490MOL0     H66105   5.985   5.066   8.652  1.4259  0.6219 -2.7327
  490MOL0     H66106   5.846   5.090   8.447 -2.8422  0.7285 -0.7327
  490MOL0     H66107   5.806   5.256   8.497 -6.5067  0.2162  1.1763
  490MOL0     H66108   5.715   5.139   8.706  0.1545  3.7394 -1.8172
  490MOL0     H66109   5.696   4.998   8.600 -3.4463  0.1533 -0.1213
  490MOL0     H66110   5.365   5.198   8.419  0.2074  0.0049  0.4205
  490MOL0     H66111   5.158   5.161   8.346  0.7643 -1.6634  0.4400
  490MOL0     H66112   5.063   5.034   8.417 -2.1723  1.0555  0.5231
  490MOL0     H66113   5.054   5.210   8.470 -1.0974 -1.6737  2.1792
  490MOL0     H66114   5.017   4.680   8.696 -0.1966 -0.8978 -1.1626
  490MOL0     H66115   4.824   4.535   8.740  0.9025 -0.0149 -0.2773
  490MOL0     H66116   4.508   4.616   9.071  1.1049 -0.3815  0.1908
  490MOL0     H66117   4.506   4.729   8.927 -1.1529 -0.6314  0.4004
  490MOL0     H66118   4.438   4.457   8.848  1.0478 -0.6274  0.7632
  490MOL0     H66119   4.305   4.525   8.947  0.1979  0.0567  0.2874
  490MOL0     H66120   4.421   4.633   8.687 -1.3551  1.1094 -2.0836
  490MOL0     H66121   4.286   4.706   8.781 -1.6124  0.7895 -3.1205
  490MOL0     H66122   4.217   4.564   8.582 -0.0339 -0.0337 -1.1395
  490MOL0     H66123   4.260   4.439   8.678  0.1260 -0.5656  2.0944
  490MOL0     H66124   4.087   4.471   8.828 -0.5840  0.2948  0.9360
  490MOL0     H66125   4.018   4.485   8.663  1.4860  0.8099 -1.6599
  490MOL0     H66126   3.934   4.665   8.810  0.0509 -0.8491  0.1465
  490MOL0     H66127   4.097   4.719   8.864  2.2840  0.9805 -1.7443
  490MOL0     H66128   3.999   4.713   8.589 -1.7518 -0.9405  1.6859
  490MOL0     H66129   4.148   4.804   8.652  0.3294 -1.2026  0.6873
  490MOL0     H66130   3.862   4.901   8.697  0.0265  0.5946  1.8319
  490MOL0     H66131   3.978   4.976   8.603 -2.5626  2.4249  1.9000
  490MOL0     H66132   4.689   4.829   9.037  0.2896 -1.1033 -0.2125
  490MOL0     H66133   4.869   4.967   8.983 -2.4682 -0.3760  2.4650
  490MOL0     H66134   5.295   4.983   8.845 -2.2558  2.1204 -0.2940
  490MOL0     H66135   5.512   5.053   8.792  0.9302  2.2891  0.6311
  490MOL0     H66136   5.875   4.998   8.865 -1.9606  0.4165 -0.2374
  490MOL0     H66137   5.702   5.042   9.019  0.6582  1.7821 -2.2122
  490MOL0     H66138   5.318   4.783   9.236 -2.1321 -0.9960 -1.7466
  490MOL0     H66139   5.139   4.774   9.382 -2.4644  0.4769 -0.9938
  490MOL0     H66140   4.956   4.788   9.500  1.9659  0.8823  0.6864
  490MOL0     H66141   4.831   4.887   9.553 -0.6486 -2.5114  0.2635
  490MOL0     H66142   4.757   4.744   9.367 -0.1790  1.0998  2.0381
  490MOL0     H66143   4.889   4.802   9.273 -1.1484  2.0729 -2.5702
  490MOL0     H66144   4.665   4.910   9.197  1.2859 -0.9808 -0.9640
  490MOL0     H66145   4.782   5.033   9.252 -1.9070  0.3803 -1.0877
  490MOL0     H66146   4.563   5.080   9.355  2.8882  0.8794 -2.8839
  490MOL0     H66147   4.622   4.976   9.488 -3.0372 -2.5976  0.3992
  490MOL0     H66148   4.367   4.694   9.344  2.1837 -1.2348 -1.1044
  490MOL0     H66149   5.087   5.199   9.363  2.6064  2.4231 -1.3412
  490MOL0     H66150   5.275   5.211   9.192 -1.7345 -0.5266 -1.6748
  491MOL0     O66151   1.367  11.312   9.212 -0.2662 -0.2257  0.4990
  491MOL0     C66152   1.322  11.415   9.255 -0.1494 -0.6363 -0.0751
  491MOL0     O66153   1.187  11.429   9.286  0.4053 -0.3405  0.6487
  491MOL0     C66154   1.092  11.329   9.255  0.6164 -0.0116  0.2819
  491MOL0     C66155   0.981  11.307   9.333 -0.4584 -0.2586 -0.3998
  491MOL0     C66156   0.875  11.225   9.295 -0.3660  0.5980  0.0750
  491MOL0     C66157   0.874  11.158   9.176 -0.6170 -0.2954 -0.0790
  491MOL0     O66158   0.777  11.067   9.138  0.8131 -0.0378  0.5947
  491MOL0     C66159   0.741  11.045   8.995  0.2292 -0.2953 -0.9068
  491MOL0     C66160   0.594  11.051   8.981  0.2112 -0.2170 -0.1623
  491MOL0     C66161   0.547  10.951   8.876 -0.1371 -0.1064 -0.1347
  491MOL0     C66162   0.400  10.974   8.863  0.4102  0.9460 -0.6456
  491MOL0     C66163   0.304  10.910   8.965 -0.7124  0.5956  0.2987
  491MOL0     C66164   0.151  10.962   8.944 -0.9855  1.2499 -0.4927
  491MOL0     C66165   0.046  10.913   9.036  0.0281  0.8647 -0.2065
  491MOL0     C66166  -0.005  10.769   9.029  0.0444 -0.7389 -0.0130
  491MOL0     N66167  -0.067  10.713   9.149  0.2776  0.4920 -0.4363
  491MOL0     C66168  -0.036  10.584   9.188 -0.4620 -0.1780  0.0082
  491MOL0     C66169  -0.108  10.564   9.304 -0.3615  0.4731  0.0327
  491MOL0     C66170  -0.104  10.422   9.368  0.4986 -0.0149  0.2565
  491MOL0     C66171  -0.235  10.339   9.345  0.1675  0.2726  0.1288
  491MOL0     C66172  -0.256  10.291   9.198  0.4665  0.3407  0.0056
  491MOL0     C66173  -0.141  10.208   9.139  0.4069 -0.1253  0.3553
  491MOL0     O66174  -0.058  10.296   9.061 -0.0282  0.5835 -0.9725
  491MOL0     C66175   0.041  10.242   8.985  0.2866 -0.1392 -0.3308
  491MOL0     C66176   0.120  10.319   8.901  0.8983 -0.4973 -1.2205
  491MOL0     C66177   0.209  10.268   8.806 -0.3807  0.4366  0.2171
  491MOL0     C66178   0.286  10.355   8.718 -0.3589 -0.3630 -0.1130
  491MOL0     C66179   0.234  10.122   8.808  0.2877  0.5005 -0.1501
  491MOL0     C66180   0.322  10.052   8.714  0.3848  0.6573 -0.2734
  491MOL0     O66181   0.338  10.092   8.587  0.0478 -0.1116  0.3151
  491MOL0     C66182   0.431  10.025   8.517  0.4689  0.2569 -0.3165
  491MOL0     C66183   0.561  10.046   8.526 -0.6826 -0.7780  0.4687
  491MOL0     C66184   0.651   9.970   8.453  0.0202 -0.7710  0.1461
  491MOL0     C66185   0.606   9.873   8.365  0.1123 -0.7692 -0.2492
  491MOL0     O66186   0.693   9.794   8.304  0.2541 -0.2908 -0.0543
  491MOL0     C66187   0.803   9.736   8.380  0.3675  0.2282 -1.0503
  491MOL0     C66188   0.856   9.615   8.302 -0.7601 -0.2118  0.2237
  491MOL0     C66189   0.749   9.511   8.301  0.0172  0.4739 -0.5765
  491MOL0     C66190   0.800   9.379   8.235 -0.3547  0.3365  0.0695
  491MOL0     C66191   0.689   9.279   8.213 -0.2273 -0.2855  0.7159
  491MOL0     C66192   0.748   9.157   8.138  0.6231  0.0291 -1.0123
  491MOL0     C66193   0.623   9.063   8.134  0.3555  0.7522  0.6652
  491MOL0     C66194   0.634   8.912   8.121 -0.0712  0.3534  0.1309
  491MOL0    Cl66195   0.730   8.847   8.267  0.1452 -0.2572  0.0315
  491MOL0     C66196   0.468   9.853   8.357  0.1993 -0.3703 -0.6989
  491MOL0     C66197   0.383   9.928   8.434 -0.4159 -0.5871  0.0321
  491MOL0     O66198   0.386   9.959   8.775  0.0947 -0.6015 -0.5596
  491MOL0     C66199   0.165  10.048   8.909 -1.3255  0.3370  1.1315
  491MOL0     C66200   0.068  10.107   8.988  0.1758  0.1835  0.4969
  491MOL0     N66201  -0.183  10.673   9.333 -0.4730 -0.3995  0.5882
  491MOL0     N66202  -0.160  10.764   9.242 -0.5372 -0.7143  0.6260
  491MOL0     C66203   0.991  11.174   9.093  0.0988  0.4450  0.3218
  491MOL0     C66204   1.102  11.254   9.132 -0.3930  0.2824 -0.2049
  491MOL0     C66205   1.422  11.531   9.263  0.8511  0.5682  0.0915
  491MOL0     C66206   1.389  11.648   9.338  0.3011 -0.1552  0.5411
  491MOL0     C66207   1.477  11.757   9.348 -0.0229 -0.3360  0.1886
  491MOL0     C66208   1.604  11.752   9.289 -0.6191 -0.7547 -0.0468
  491MOL0     O66209   1.696  11.858   9.296  0.5203  0.1509 -0.0638
  491MOL0     C66210   1.744  11.913   9.169 -0.1698 -0.6161 -0.2888
  491MOL0     C66211   1.883  11.871   9.126  0.0398 -1.1444 -0.8948
  491MOL0     C66212   1.949  11.972   9.040  0.4139  0.5069 -0.3234
  491MOL0     C66213   2.086  11.926   8.993  0.3996 -0.0716 -0.7992
  491MOL0     C66214   2.184  11.915   9.104 -0.8422  0.4231 -0.0076
  491MOL0     C66215   2.262  11.907   9.197  0.9082  0.1476  0.0296
  491MOL0     C66216   1.636  11.632   9.213 -0.3522  0.4263 -0.8746
  491MOL0     C66217   1.546  11.527   9.202 -0.5098  0.2160 -0.1476
  491MOL0     H66218   0.991  11.359   9.427 -0.1199 -2.1291  0.6472
  491MOL0     H66219   0.795  11.210   9.367  0.2387 -3.5069  0.1498
  491MOL0     H66220   0.794  11.113   8.928  2.7259  0.6104  1.7714
  491MOL0     H66221   0.767  10.940   8.974  4.8402 -0.5792  4.0491
  491MOL0     H66222   0.551  11.025   9.079 -1.8026 -0.2993 -1.0246
  491MOL0     H66223   0.566  11.152   8.950 -0.5579  0.4481  2.3967
  491MOL0     H66224   0.592  10.975   8.779  0.4729 -0.0946  0.1453
  491MOL0     H66225   0.571  10.852   8.917 -1.7264 -0.1358  0.7834
  491MOL0     H66226   0.379  11.080   8.879 -1.0435  1.1305 -3.2554
  491MOL0     H66227   0.377  10.951   8.758  3.1895  1.9888 -1.5925
  491MOL0     H66228   0.306  10.801   8.957  0.3869  0.4926  1.7101
  491MOL0     H66229   0.345  10.930   9.064  1.5512 -0.2990 -0.3961
  491MOL0     H66230   0.150  11.071   8.948 -0.2463  1.2300  0.6490
  491MOL0     H66231   0.132  10.927   8.842 -0.2077 -0.0911 -0.1991
  491MOL0     H66232   0.086  10.934   9.135  1.1651  1.1157 -0.6995
  491MOL0     H66233  -0.040  10.977   9.014 -0.5731 -0.0409 -0.5573
  491MOL0     H66234   0.086  10.711   9.007  1.9756  1.4393  1.7905
  491MOL0     H66235  -0.081  10.760   8.950 -0.3436 -1.3377  0.4281
  491MOL0     H66236   0.031  10.509   9.147 -1.0253 -2.0574  2.3218
  491MOL0     H66237  -0.018  10.367   9.329 -0.3390 -0.6665 -0.7180
  491MOL0     H66238  -0.095  10.450   9.474 -0.8923  3.5820 -0.4197
  491MOL0     H66239  -0.329  10.390   9.370 -0.6175 -2.3460  3.0922
  491MOL0     H66240  -0.245  10.259   9.418  0.3017  1.6010  1.6550
  491MOL0     H66241  -0.287  10.369   9.127 -0.6811  0.0774  0.2029
  491MOL0     H66242  -0.347  10.231   9.200  0.5078  0.2783  2.6890
  491MOL0     H66243  -0.187  10.126   9.083 -0.6393  0.7797 -0.1782
  491MOL0     H66244  -0.070  10.171   9.213  0.9533 -0.8999 -0.5419
  491MOL0     H66245   0.104  10.426   8.914  0.0793 -0.5876 -1.4322
  491MOL0     H66246   0.386  10.317   8.737 -0.9146 -1.0502  1.6406
  491MOL0     H66247   0.261  10.337   8.613  1.0029 -3.1479 -0.0353
  491MOL0     H66248   0.275  10.461   8.744  5.2949  0.1350  1.5743
  491MOL0     H66249   0.595  10.117   8.601  1.7954 -1.4200  0.0472
  491MOL0     H66250   0.755  10.001   8.459 -0.1652 -0.1550  0.2832
  491MOL0     H66251   0.877   9.814   8.396  0.7409 -0.7912  4.0458
  491MOL0     H66252   0.763   9.708   8.478 -0.5909 -0.4440 -1.6108
  491MOL0     H66253   0.878   9.650   8.201 -0.4217  0.4495  0.5221
  491MOL0     H66254   0.950   9.583   8.347 -1.1433 -2.0193 -0.2084
  491MOL0     H66255   0.662   9.553   8.249 -1.0421 -0.3005  0.5329
  491MOL0     H66256   0.720   9.484   8.403 -0.8940 -0.1199 -0.9743
  491MOL0     H66257   0.847   9.399   8.138  3.0188 -1.3702  1.2116
  491MOL0     H66258   0.883   9.341   8.295  0.0131 -0.2670 -0.8028
  491MOL0     H66259   0.618   9.330   8.148  0.1004  0.0745  0.6365
  491MOL0     H66260   0.635   9.255   8.305 -3.1020 -1.7017 -1.1827
  491MOL0     H66261   0.786   9.182   8.038  0.9443 -4.3387 -2.1989
  491MOL0     H66262   0.841   9.119   8.182 -0.1750 -0.7867  0.0244
  491MOL0     H66263   0.574   9.107   8.047 -1.4393  1.1195  1.8112
  491MOL0     H66264   0.549   9.081   8.212 -0.4998 -1.9309  0.5737
  491MOL0     H66265   0.683   8.890   8.026  0.7285 -2.1432  1.0416
  491MOL0     H66266   0.534   8.873   8.101 -0.3690  1.5797 -0.8597
  491MOL0     H66267   0.424   9.768   8.305 -2.3936 -1.6763  3.1527
  491MOL0     H66268   0.278   9.905   8.420 -0.7073  1.5688 -1.9974
  491MOL0     H66269   0.175   9.940   8.900 -0.6465  0.5504 -1.4443
  491MOL0     H66270   0.001  10.037   9.038  0.3295 -1.6586 -1.7100
  491MOL0     H66271   0.997  11.121   8.998  0.3649 -0.2134  0.6957
  491MOL0     H66272   1.191  11.255   9.071  0.8697 -1.5134  1.5158
  491MOL0     H66273   1.289  11.654   9.379  0.3866 -0.9576  0.8745
  491MOL0     H66274   1.446  11.849   9.397  0.9331  0.6899 -1.0630
  491MOL0     H66275   1.671  11.887   9.092  0.1189  0.3994 -0.9346
  491MOL0     H66276   1.741  12.022   9.180  1.3001 -0.7224  1.8667
  491MOL0     H66277   1.870  11.783   9.062  1.3350 -1.6599 -0.4699
  491MOL0     H66278   1.945  11.852   9.214  1.5357  1.0475 -1.3839
  491MOL0     H66279   1.954  12.067   9.093 -0.6832 -0.0603  0.8497
  491MOL0     H66280   1.890  11.990   8.950  0.3085  1.1355 -0.1311
  491MOL0     H66281   2.131  11.999   8.925  2.3378 -2.1063 -1.8301
  491MOL0     H66282   2.063  11.831   8.945  0.5999 -1.4693  1.7215
  491MOL0     H66283   2.340  11.906   9.271  1.6757  0.2168 -0.7653
  491MOL0     H66284   1.737  11.630   9.174  0.1437  0.9370  0.3209
  491MOL0     H66285   1.580  11.446   9.139  1.7355 -0.3858  1.7494
  492MOL0     O66286   9.286   0.038   2.561 -0.2353  0.2891 -0.4167
  492MOL0     C66287   9.383   0.003   2.626  0.8917 -0.8398 -0.1369
  492MOL0     O66288   9.381  -0.065   2.739 -0.0781  0.2236  0.0684
  492MOL0     C66289   9.265  -0.131   2.772  0.1365  0.3015 -0.2906
  492MOL0     C66290   9.201  -0.110   2.893  0.6967  0.0409  0.3086
  492MOL0     C66291   9.080  -0.168   2.934  0.0476 -0.0764 -0.3702
  492MOL0     C66292   9.018  -0.249   2.845  0.5137 -0.0211  1.1723
  492MOL0     O66293   8.898  -0.304   2.874  0.5785  0.0880  0.2117
  492MOL0     C66294   8.801  -0.220   2.922  0.2478 -0.2779  0.2056
  492MOL0     C66295   8.676  -0.288   2.917  1.0160  0.4290 -0.5803
  492MOL0     C66296   8.655  -0.342   2.777 -0.4891 -0.0441 -1.1112
  492MOL0     C66297   8.522  -0.397   2.761 -0.1877  0.9702 -0.0008
  492MOL0     C66298   8.506  -0.430   2.610 -1.2446  0.4679 -0.7255
  492MOL0     C66299   8.360  -0.423   2.558  0.0245  0.3444  0.1228
  492MOL0     C66300   8.329  -0.268   2.525 -0.1454  0.0132  0.1597
  492MOL0     C66301   8.184  -0.270   2.498  0.0770 -0.2044 -0.4539
  492MOL0     N66302   8.128  -0.135   2.493 -0.2669  0.3840 -0.2672
  492MOL0     C66303   8.162  -0.042   2.399 -0.3759  0.3383  0.7604
  492MOL0     C66304   8.113   0.073   2.447 -0.1634 -0.2059  0.0177
  492MOL0     C66305   8.141   0.206   2.387 -0.7602 -0.8310  0.6448
  492MOL0     C66306   8.284   0.261   2.412 -0.0974 -0.1043 -0.4257
  492MOL0     C66307   8.293   0.418   2.395  0.2927 -0.3848 -0.1693
  492MOL0     C66308   8.431   0.467   2.433  0.7430  0.3507  0.2057
  492MOL0     O66309   8.435   0.599   2.396  0.3913 -0.2912  1.1196
  492MOL0     C66310   8.548   0.665   2.350 -0.4507 -0.5087  0.5736
  492MOL0     C66311   8.546   0.806   2.349 -0.3886  0.6034 -0.3343
  492MOL0     C66312   8.661   0.874   2.311 -0.2697  0.3967 -0.0169
  492MOL0     C66313   8.648   1.022   2.324 -0.0912  0.3599 -0.5358
  492MOL0     C66314   8.776   0.808   2.260  0.2012 -0.9486 -0.0843
  492MOL0     C66315   8.903   0.869   2.220 -0.5463  0.2029  0.2418
  492MOL0     O66316   8.991   0.793   2.150 -0.0479  0.4022  0.2283
  492MOL0     C66317   9.093   0.853   2.072 -0.1159  0.6106 -0.0093
  492MOL0     C66318   9.225   0.810   2.094  0.7532  0.3852 -0.2223
  492MOL0     C66319   9.327   0.866   2.011  0.1495  0.3082 -0.1714
  492MOL0     C66320   9.299   0.947   1.906  0.3593 -0.6704  0.6381
  492MOL0     O66321   9.399   1.002   1.831  0.0285  0.9288  0.1584
  492MOL0     C66322   9.402   0.999   1.684 -0.3461 -0.0703  0.0569
  492MOL0     C66323   9.547   0.998   1.630  0.1406  0.2195 -0.5861
  492MOL0     C66324   9.636   1.094   1.711 -0.2558 -0.0079 -0.6816
  492MOL0     C66325   9.765   1.126   1.633  0.6999  0.6848 -0.0121
  492MOL0     C66326   9.834   1.263   1.670  0.0596  0.6731  0.5218
  492MOL0     C66327   9.953   1.283   1.581  0.0581 -0.5726  0.5032
  492MOL0     C66328  10.025   1.412   1.615  0.2448 -0.1186 -0.0380
  492MOL0     C66329  10.114   1.479   1.503 -0.3907  0.1615  0.1802
  492MOL0    Cl66330  10.249   1.369   1.480  0.2549 -0.1130  0.0023
  492MOL0     C66331   9.166   0.984   1.890  0.2330 -0.9212  0.1626
  492MOL0     C66332   9.069   0.944   1.970 -0.6689  0.1584 -0.3866
  492MOL0     O66333   8.927   0.993   2.240  0.1136  0.2243  0.5695
  492MOL0     C66334   8.769   0.665   2.259  0.4163  0.2875 -0.9035
  492MOL0     C66335   8.659   0.595   2.308 -0.7496  0.0860  0.5184
  492MOL0     N66336   8.026   0.041   2.548  0.3906  0.1691 -0.0409
  492MOL0     N66337   8.052  -0.079   2.585 -0.7469 -0.8418 -0.0706
  492MOL0     C66338   9.069  -0.272   2.718 -1.0019  0.4673  0.0068
  492MOL0     C66339   9.187  -0.210   2.683 -0.0412  0.8285  0.1521
  492MOL0     C66340   9.520   0.054   2.589  0.1787  0.0807  0.4474
  492MOL0     C66341   9.540   0.124   2.467 -1.4708 -0.1988  1.3595
  492MOL0     C66342   9.673   0.164   2.422 -0.4478 -0.1308 -0.1895
  492MOL0     C66343   9.785   0.143   2.507  0.5627 -1.4409 -0.2174
  492MOL0     O66344   9.910   0.184   2.485 -0.3528  1.1698  0.3968
  492MOL0     C66345   9.957   0.232   2.360 -0.8882  0.0787  0.0009
  492MOL0     C66346  10.061   0.130   2.310  0.3439 -0.3548  0.5126
  492MOL0     C66347  10.130   0.181   2.177 -0.0083 -0.2791 -0.0205
  492MOL0     C66348  10.059   0.133   2.046  0.5071 -0.0103  0.1343
  492MOL0     C66349   9.911   0.110   2.043  0.6071 -0.6559 -0.1400
  492MOL0     C66350   9.792   0.083   2.044  0.6550  0.6087  0.0672
  492MOL0     C66351   9.763   0.086   2.633  0.1542  1.2034  1.1536
  492MOL0     C66352   9.629   0.047   2.678  0.1439  0.2186  0.3463
  492MOL0     H66353   9.255  -0.042   2.959  1.9024  0.1564 -0.7527
  492MOL0     H66354   9.035  -0.156   3.032  3.1592  2.4146  0.9509
  492MOL0     H66355   8.814  -0.193   3.027 -0.2468 -1.6370  0.6424
  492MOL0     H66356   8.800  -0.128   2.862 -2.2831 -1.0064 -1.0070
  492MOL0     H66357   8.675  -0.372   2.988  0.8835 -0.6144 -1.7764
  492MOL0     H66358   8.596  -0.221   2.950  1.7046  0.0071  2.2291
  492MOL0     H66359   8.661  -0.250   2.718  1.3254  1.8677  1.7890
  492MOL0     H66360   8.736  -0.410   2.748 -0.5474 -1.2766  1.3451
  492MOL0     H66361   8.497  -0.481   2.828  0.7496  0.3988 -0.3503
  492MOL0     H66362   8.444  -0.324   2.784 -2.1067 -0.9801  0.0778
  492MOL0     H66363   8.562  -0.353   2.557 -0.1333  1.5319  1.8170
  492MOL0     H66364   8.553  -0.526   2.587  2.2985  1.6534  0.8930
  492MOL0     H66365   8.371  -0.478   2.465  1.3605  1.6834 -0.5585
  492MOL0     H66366   8.283  -0.463   2.625  0.1610 -1.5447 -0.7760
  492MOL0     H66367   8.343  -0.204   2.613  0.5999 -0.9503  0.7599
  492MOL0     H66368   8.386  -0.220   2.446 -0.3300 -0.5295 -0.3121
  492MOL0     H66369   8.126  -0.318   2.577  0.1563 -0.0451 -0.2979
  492MOL0     H66370   8.167  -0.321   2.402 -4.7686 -2.3158  1.2256
  492MOL0     H66371   8.231  -0.051   2.315 -3.3907  0.6039 -1.8989
  492MOL0     H66372   8.114   0.195   2.281 -1.1326 -3.2398  0.9202
  492MOL0     H66373   8.079   0.280   2.437 -0.9822 -0.3644 -0.2932
  492MOL0     H66374   8.361   0.225   2.342  0.6537 -0.5030  0.5843
  492MOL0     H66375   8.324   0.236   2.510  0.7522  0.9152 -0.4853
  492MOL0     H66376   8.223   0.483   2.448 -0.1835  0.9150 -2.2375
  492MOL0     H66377   8.279   0.430   2.287 -0.9115 -2.1144 -0.2539
  492MOL0     H66378   8.498   0.400   2.379  0.9493 -1.0701  2.1138
  492MOL0     H66379   8.454   0.451   2.539 -0.8207 -1.0569  0.3821
  492MOL0     H66380   8.458   0.854   2.391 -2.5041 -2.1737 -1.2844
  492MOL0     H66381   8.559   1.057   2.376 -0.3825  0.8359 -1.3359
  492MOL0     H66382   8.735   1.065   2.374  0.3927 -0.1274 -0.9439
  492MOL0     H66383   8.657   1.072   2.227  0.7789 -1.9498 -1.7098
  492MOL0     H66384   9.252   0.750   2.181  0.7183  0.9931  0.2093
  492MOL0     H66385   9.432   0.842   2.024 -0.0755  0.1603  1.7276
  492MOL0     H66386   9.360   0.907   1.641  1.5612 -0.5015 -0.9739
  492MOL0     H66387   9.352   1.091   1.653  1.6664  1.6229  1.5874
  492MOL0     H66388   9.586   0.896   1.634 -1.3768 -0.3493  0.6117
  492MOL0     H66389   9.551   1.035   1.527 -1.9025  1.7684 -0.1806
  492MOL0     H66390   9.655   1.068   1.815 -1.4087  1.5156 -0.0573
  492MOL0     H66391   9.572   1.181   1.728 -1.0947 -0.9575  1.2679
  492MOL0     H66392   9.838   1.048   1.659 -0.0618  0.5239  1.7519
  492MOL0     H66393   9.740   1.109   1.527  0.3879 -2.9583  0.5105
  492MOL0     H66394   9.860   1.274   1.775 -3.8666 -0.5988  1.8038
  492MOL0     H66395   9.750   1.330   1.648 -0.4120 -0.3771 -1.0599
  492MOL0     H66396  10.012   1.193   1.600  0.7056 -0.4772 -0.9627
  492MOL0     H66397   9.934   1.283   1.473 -2.0653  1.1810  0.8139
  492MOL0     H66398  10.082   1.392   1.706  0.8178  1.3637 -0.0395
  492MOL0     H66399   9.953   1.492   1.635 -1.9320 -1.8408 -0.5582
  492MOL0     H66400  10.156   1.575   1.534 -0.6927  0.1696  0.5684
  492MOL0     H66401  10.058   1.485   1.409  0.7923 -2.9770 -0.8559
  492MOL0     H66402   9.145   1.048   1.805 -3.9956  1.4411  2.6445
  492MOL0     H66403   8.965   0.974   1.955 -0.2926  1.7709  0.0576
  492MOL0     H66404   8.853   0.597   2.247  1.1732  0.8126  1.0342
  492MOL0     H66405   8.662   0.486   2.311 -0.2542  0.0464 -0.7462
  492MOL0     H66406   9.029  -0.352   2.657  2.3358 -1.0947 -0.3058
  492MOL0     H66407   9.218  -0.225   2.580  1.8452 -3.3006  1.1218
  492MOL0     H66408   9.460   0.142   2.396  1.4698  0.3843 -2.1280
  492MOL0     H66409   9.680   0.200   2.320  0.6540  2.4584  0.6996
  492MOL0     H66410   9.881   0.250   2.284 -1.7147  4.1190  1.5631
  492MOL0     H66411  10.010   0.326   2.374 -1.1072  0.5015 -1.8149
  492MOL0     H66412  10.025   0.032   2.278 -2.9628  0.3360  1.7553
  492MOL0     H66413  10.128   0.112   2.394  1.0629 -0.9544 -0.1697
  492MOL0     H66414  10.235   0.150   2.171  0.0933 -0.1080  0.6799
  492MOL0     H66415  10.126   0.289   2.168 -4.2103 -0.2252  0.4446
  492MOL0     H66416  10.112   0.050   1.998  0.0385  0.3020 -0.9429
  492MOL0     H66417  10.078   0.218   1.980 -2.0881 -1.1432 -2.2875
  492MOL0     H66418   9.691   0.049   2.054  0.5435  1.2469  1.1964
  492MOL0     H66419   9.844   0.066   2.702 -1.7249  0.1660  3.1579
  492MOL0     H66420   9.615   0.008   2.779  0.0801  1.6184  0.9054
  493MOL0     O66421   2.941   0.321  10.243  0.0023 -0.6202 -0.1938
  493MOL0     C66422   3.040   0.379  10.279 -0.3106 -0.8646  0.5900
  493MOL0     O66423   3.173   0.340  10.259 -0.2797  0.3158  0.0268
  493MOL0     C66424   3.209   0.224  10.189  0.6314 -0.6428  0.4732
  493MOL0     C66425   3.311   0.221  10.093 -0.2388 -0.8871  0.5026
  493MOL0     C66426   3.335   0.117  10.006  0.0514 -0.5715 -0.2056
  493MOL0     C66427   3.275  -0.004  10.030  0.5237 -0.5026  0.1078
  493MOL0     O66428   3.305  -0.105   9.951 -0.1663 -0.3715  0.1097
  493MOL0     C66429   3.274  -0.244   9.992  0.6982 -0.5216 -0.3642
  493MOL0     C66430   3.332  -0.355   9.899  0.5859 -0.3314  0.0945
  493MOL0     C66431   3.307  -0.493   9.958 -0.3970 -0.4675 -0.3544
  493MOL0     C66432   3.368  -0.616   9.884  0.1817  0.0989 -0.7569
  493MOL0     C66433   3.318  -0.743   9.952 -0.0004  0.0009 -0.1223
  493MOL0     C66434   3.388  -0.765  10.089  0.0171 -0.4423  0.4930
  493MOL0     C66435   3.360  -0.902  10.156  0.0455  0.6096  0.3685
  493MOL0     C66436   3.406  -1.021  10.074  0.6057 -0.3268 -0.3267
  493MOL0     N66437   3.385  -1.144  10.159 -0.2544  0.7818  0.7579
  493MOL0     C66438   3.298  -1.256  10.135 -0.7769  0.3374  0.3417
  493MOL0     C66439   3.336  -1.346  10.230 -0.4879  0.1868 -0.2380
  493MOL0     C66440   3.283  -1.492  10.238  0.5446  0.4066 -0.1059
  493MOL0     C66441   3.196  -1.512  10.360 -0.1690  0.0372  0.4439
  493MOL0     C66442   3.067  -1.416  10.363  0.7759  0.1786 -0.1190
  493MOL0     C66443   2.966  -1.441  10.245 -0.5367 -0.7353  0.2287
  493MOL0     O66444   2.936  -1.577  10.227 -0.3569 -0.9937  0.3608
  493MOL0     C66445   2.846  -1.618  10.138  0.4770  0.3145  0.8434
  493MOL0     C66446   2.847  -1.563  10.004  0.9931  0.7568 -0.0397
  493MOL0     C66447   2.762  -1.608   9.899  0.6739 -0.0272 -0.0860
  493MOL0     C66448   2.755  -1.532   9.772  0.0176 -0.5416  0.3604
  493MOL0     C66449   2.667  -1.716   9.931 -1.1605 -0.1457  0.8620
  493MOL0     C66450   2.574  -1.774   9.840 -0.4953  0.0670  0.6723
  493MOL0     O66451   2.512  -1.878   9.890  0.0722 -0.3403 -0.3453
  493MOL0     C66452   2.378  -1.897   9.883  0.4802  0.2217  0.0186
  493MOL0     C66453   2.323  -2.028   9.913  0.6889 -0.3146 -0.4635
  493MOL0     C66454   2.183  -2.053   9.920  0.0516 -0.3530  0.7402
  493MOL0     C66455   2.092  -1.955   9.858 -0.2238 -0.1722 -1.0387
  493MOL0     O66456   1.953  -1.968   9.842  0.1521 -0.0501 -0.3473
  493MOL0     C66457   1.905  -2.101   9.827 -0.8966 -0.1810 -0.0779
  493MOL0     C66458   1.756  -2.111   9.805  0.4429  0.3666  0.2435
  493MOL0     C66459   1.675  -2.088   9.934 -0.2531 -0.7607  1.1653
  493MOL0     C66460   1.550  -2.171   9.947 -0.1626 -0.0260 -0.3048
  493MOL0     C66461   1.472  -2.130  10.061  0.2693  0.0471 -0.1753
  493MOL0     C66462   1.374  -2.242  10.071 -0.2188 -0.5919 -0.3439
  493MOL0     C66463   1.270  -2.222  10.188  0.0644  0.7617 -0.2570
  493MOL0     C66464   1.197  -2.091  10.192 -0.0441 -0.0383 -0.0167
  493MOL0    Cl66465   1.092  -2.077  10.350  0.0815 -0.0453 -0.0102
  493MOL0     C66466   2.152  -1.835   9.833  0.0890  0.2434 -0.2832
  493MOL0     C66467   2.285  -1.801   9.837 -0.8604 -0.1879 -0.0933
  493MOL0     O66468   2.550  -1.722   9.730 -0.0590 -0.1947  0.0649
  493MOL0     C66469   2.674  -1.769  10.073 -0.3879 -0.0954  0.2576
  493MOL0     C66470   2.767  -1.721  10.163 -0.3460 -0.4260  0.7691
  493MOL0     N66471   3.440  -1.300  10.304  0.4562  0.4897  0.0343
  493MOL0     N66472   3.468  -1.183  10.256 -0.8150 -0.4879  0.1912
  493MOL0     C66473   3.176  -0.012  10.140 -0.2215  0.4193  0.5670
  493MOL0     C66474   3.147   0.105  10.221  1.1746 -0.4101  0.1502
  493MOL0     C66475   3.015   0.502  10.359  0.2930  1.0724  0.9066
  493MOL0     C66476   3.117   0.581  10.393  0.0832 -1.2630  0.6719
  493MOL0     C66477   3.089   0.702  10.467  0.1609  1.0115 -0.1983
  493MOL0     C66478   2.962   0.741  10.505 -0.3544  0.1074 -0.6762
  493MOL0     O66479   2.924   0.850  10.577 -0.2688  0.0928  0.4732
  493MOL0     C66480   3.010   0.965  10.588 -0.1863  0.1778  0.3901
  493MOL0     C66481   2.927   1.093  10.624 -0.4806  0.7042 -0.7037
  493MOL0     C66482   2.802   1.114  10.541  0.2155  0.4432 -0.5851
  493MOL0     C66483   2.687   1.016  10.586 -0.1986 -0.8135  0.0745
  493MOL0     C66484   2.561   1.076  10.542 -0.2392  0.2521 -0.7496
  493MOL0     C66485   2.453   1.122  10.505  0.6825 -0.4642 -0.4519
  493MOL0     C66486   2.856   0.647  10.468  0.2497  0.6458 -0.0701
  493MOL0     C66487   2.884   0.524  10.402  0.1890 -0.2689 -0.0899
  493MOL0     H66488   3.359   0.316  10.075 -2.3774  0.3642  1.0474
  493MOL0     H66489   3.420   0.131   9.940  0.1619 -0.9163 -0.1425
  493MOL0     H66490   3.321  -0.259  10.089  0.2021  1.1633  0.1653
  493MOL0     H66491   3.167  -0.265   9.999  0.7579 -0.9069 -0.6028
  493MOL0     H66492   3.294  -0.339   9.798 -2.7525 -0.6170  1.1870
  493MOL0     H66493   3.438  -0.336   9.882  0.2490  1.5823 -0.0648
  493MOL0     H66494   3.351  -0.500  10.058  0.6240 -2.7589 -0.8960
  493MOL0     H66495   3.199  -0.509   9.969 -0.2451 -2.8402 -1.6291
  493MOL0     H66496   3.342  -0.622   9.778  2.5605 -2.4689 -1.3097
  493MOL0     H66497   3.478  -0.616   9.881  0.3040 -1.6466  1.4523
  493MOL0     H66498   3.208  -0.736   9.957 -0.0419  0.3721 -1.3565
  493MOL0     H66499   3.346  -0.828   9.890  0.8403 -1.1338  1.7174
  493MOL0     H66500   3.496  -0.763  10.073 -0.1255 -0.1849 -0.4786
  493MOL0     H66501   3.355  -0.689  10.161  1.7308 -1.0445  1.9841
  493MOL0     H66502   3.419  -0.905  10.248 -1.4227  0.0752  1.3215
  493MOL0     H66503   3.253  -0.899  10.178 -0.2660 -0.9923 -0.8286
  493MOL0     H66504   3.512  -1.015  10.048  0.0059 -1.8701 -3.8372
  493MOL0     H66505   3.347  -1.029   9.982  2.0688  0.9699 -1.4275
  493MOL0     H66506   3.237  -1.270  10.047  1.2868 -0.6401 -1.0153
  493MOL0     H66507   3.222  -1.515  10.149 -1.8698  1.5933  1.1342
  493MOL0     H66508   3.362  -1.567  10.247 -2.0684 -2.8285 -1.7959
  493MOL0     H66509   3.247  -1.498  10.455 -0.6742  0.1884  0.6959
  493MOL0     H66510   3.165  -1.617  10.353  0.7596 -0.1633 -1.3390
  493MOL0     H66511   3.106  -1.314  10.371  1.2096  0.1972 -2.0328
  493MOL0     H66512   3.008  -1.438  10.452 -0.6700  2.4685 -0.4388
  493MOL0     H66513   3.012  -1.390  10.161  1.6325  4.1751  3.8877
  493MOL0     H66514   2.879  -1.379  10.272  0.8673  1.1269  0.6759
  493MOL0     H66515   2.911  -1.477   9.984  0.6434  1.1747  0.5941
  493MOL0     H66516   2.652  -1.496   9.763  0.3848  0.1325 -1.6270
  493MOL0     H66517   2.821  -1.446   9.758  1.5184 -1.6069  0.7023
  493MOL0     H66518   2.773  -1.604   9.692  0.5718  0.9890 -0.9438
  493MOL0     H66519   2.390  -2.106   9.949  2.0596  1.1019  0.1734
  493MOL0     H66520   2.140  -2.151   9.941 -4.4319  0.3591 -3.3960
  493MOL0     H66521   1.946  -2.141   9.734  2.2120  0.8639  0.7372
  493MOL0     H66522   1.936  -2.159   9.915 -0.2125 -0.5505 -0.5543
  493MOL0     H66523   1.730  -2.037   9.729 -3.0258  1.5574  2.3587
  493MOL0     H66524   1.725  -2.212   9.777 -2.1186  1.4464 -1.2209
  493MOL0     H66525   1.645  -1.983   9.931 -0.6305 -0.8826  0.5170
  493MOL0     H66526   1.726  -2.111  10.028 -2.0709 -1.3249  2.0463
  493MOL0     H66527   1.487  -2.143   9.862 -1.7885 -2.8803 -0.1720
  493MOL0     H66528   1.570  -2.278   9.936 -2.8651 -0.5536 -1.0565
  493MOL0     H66529   1.430  -2.030  10.045 -2.3246 -1.0448 -0.6718
  493MOL0     H66530   1.527  -2.126  10.155 -1.1544 -1.7348  0.8049
  493MOL0     H66531   1.317  -2.270   9.982 -1.8228  1.0316  0.1173
  493MOL0     H66532   1.437  -2.327  10.099  0.1050 -1.5174 -3.4815
  493MOL0     H66533   1.323  -2.226  10.284 -1.4556  0.6083  0.6056
  493MOL0     H66534   1.197  -2.303  10.188  0.7447  0.1125  0.6396
  493MOL0     H66535   1.136  -2.094  10.102  2.9052 -1.2203 -2.1112
  493MOL0     H66536   1.255  -2.001  10.170  3.5142 -1.7157  1.6974
  493MOL0     H66537   2.093  -1.757   9.787  3.6648  1.8772 -2.5096
  493MOL0     H66538   2.321  -1.708   9.794 -0.9852 -0.3058 -0.4596
  493MOL0     H66539   2.617  -1.857  10.102  2.2428 -1.5319  1.3933
  493MOL0     H66540   2.783  -1.759  10.264  4.0444  1.7201  1.1261
  493MOL0     H66541   3.126  -0.107  10.152  1.3340 -0.8700 -2.0620
  493MOL0     H66542   3.079   0.103  10.305  0.4518  3.8697 -0.1009
  493MOL0     H66543   3.218   0.573  10.355 -0.3166  2.8410 -1.8583
  493MOL0     H66544   3.176   0.757  10.503  0.1495 -0.3669  2.1125
  493MOL0     H66545   3.076   0.945  10.673  0.5797 -2.0945 -0.6670
  493MOL0     H66546   3.074   0.977  10.501 -0.9988 -0.3455 -0.2949
  493MOL0     H66547   2.990   1.180  10.605  3.7557 -1.8384  0.1620
  493MOL0     H66548   2.907   1.099  10.732 -0.0870 -0.4429 -0.5432
  493MOL0     H66549   2.817   1.117  10.432  0.1846 -0.9517 -0.6457
  493MOL0     H66550   2.760   1.210  10.573 -1.7948 -1.4998  3.3700
  493MOL0     H66551   2.683   0.995  10.693 -0.4096 -0.8133  0.0678
  493MOL0     H66552   2.697   0.918  10.537 -0.1240  0.5240 -2.8148
  493MOL0     H66553   2.359   1.164  10.475  0.7729  0.4295  0.4491
  493MOL0     H66554   2.754   0.678  10.486  0.5338  2.4381 -1.3063
  493MOL0     H66555   2.802   0.454  10.392 -0.7686  0.6880  0.7457
  494MOL0     O66556   2.912   2.264   4.640 -0.3174 -0.3454 -0.4609
  494MOL0     C66557   2.822   2.189   4.675 -0.0692 -0.1677 -0.9292
  494MOL0     O66558   2.760   2.195   4.790 -0.3304  0.5249  0.0421
  494MOL0     C66559   2.757   2.313   4.860  0.2799 -0.4473  0.4752
  494MOL0     C66560   2.667   2.412   4.819 -0.2349  0.1301 -0.3113
  494MOL0     C66561   2.661   2.533   4.893  0.3479 -0.2459  0.1247
  494MOL0     C66562   2.742   2.550   5.004  0.0695  0.0945  0.2909
  494MOL0     O66563   2.742   2.665   5.083 -0.3468  0.0415  0.0987
  494MOL0     C66564   2.653   2.771   5.045  0.0580  0.5930  0.3283
  494MOL0     C66565   2.733   2.865   4.954 -0.0714 -0.7458 -0.3043
  494MOL0     C66566   2.851   2.922   5.020 -0.1991  0.0539  0.0401
  494MOL0     C66567   2.919   3.020   4.932 -0.0266 -0.4079 -0.4552
  494MOL0     C66568   3.047   3.078   5.005  0.3701  0.2361 -0.1889
  494MOL0     C66569   3.152   2.981   5.036  0.6970  0.3751 -0.7474
  494MOL0     C66570   3.286   3.051   5.038 -0.1751 -0.2236  0.6694
  494MOL0     C66571   3.390   2.940   5.082  0.2332 -0.1759  0.1596
  494MOL0     N66572   3.521   2.985   5.112 -0.9602 -0.2906  0.5253
  494MOL0     C66573   3.643   2.945   5.059 -0.1847 -0.0669  0.0397
  494MOL0     C66574   3.739   3.029   5.104 -0.4945  0.1484 -0.2327
  494MOL0     C66575   3.886   3.035   5.061 -0.1766  0.2410 -0.5774
  494MOL0     C66576   3.962   2.909   5.108 -0.1408  0.6463  0.2583
  494MOL0     C66577   4.111   2.931   5.100 -0.5163 -0.2043  0.4724
  494MOL0     C66578   4.180   2.802   5.137 -0.1783  0.0279  0.7029
  494MOL0     O66579   4.143   2.692   5.052  0.1534  0.0698  0.2350
  494MOL0     C66580   4.201   2.680   4.933 -0.2207  0.4579  0.9793
  494MOL0     C66581   4.122   2.639   4.822 -0.0467  0.1328  0.1304
  494MOL0     C66582   4.168   2.622   4.694 -0.5458 -0.2525  0.2479
  494MOL0     C66583   4.070   2.556   4.598  0.7825  1.3354  0.9166
  494MOL0     C66584   4.303   2.657   4.669 -0.7855  0.4883 -0.4697
  494MOL0     C66585   4.370   2.633   4.543 -0.0460 -0.5105  0.0472
  494MOL0     O66586   4.384   2.505   4.499 -0.1685 -0.1044 -0.5661
  494MOL0     C66587   4.444   2.475   4.377 -1.0236  0.1311 -0.2018
  494MOL0     C66588   4.564   2.393   4.387 -0.2249  0.5511  0.1947
  494MOL0     C66589   4.630   2.335   4.284  1.3737  0.1637  0.3550
  494MOL0     C66590   4.591   2.376   4.153 -0.2873  0.4117  0.1528
  494MOL0     O66591   4.657   2.342   4.051 -0.0546  0.5545 -0.0388
  494MOL0     C66592   4.736   2.437   3.970  0.4094  0.0465 -0.2557
  494MOL0     C66593   4.884   2.402   3.972  0.6158  0.1555 -1.0661
  494MOL0     C66594   4.968   2.459   3.858  0.4950  0.6353 -0.1643
  494MOL0     C66595   5.093   2.383   3.834  0.4398 -0.1207  0.3563
  494MOL0     C66596   5.203   2.436   3.745 -0.0110 -0.5000 -0.6118
  494MOL0     C66597   5.290   2.526   3.828  0.6371  0.3299  0.9327
  494MOL0     C66598   5.396   2.450   3.920  0.1841 -0.8033 -0.2897
  494MOL0     C66599   5.499   2.551   3.977  0.0362 -1.0308 -0.1382
  494MOL0    Cl66600   5.612   2.450   4.064 -0.5929  0.0142 -0.1115
  494MOL0     C66601   4.483   2.460   4.140  0.2310 -0.0414  0.7282
  494MOL0     C66602   4.404   2.513   4.252 -0.9115 -0.8241  0.2272
  494MOL0     O66603   4.411   2.723   4.486 -0.3651  0.1087 -0.4695
  494MOL0     C66604   4.381   2.728   4.771 -0.6338  0.5705  0.3131
  494MOL0     C66605   4.323   2.728   4.900 -0.0106 -0.4645  0.1295
  494MOL0     N66606   3.678   3.111   5.205  0.2340 -0.1747  0.1411
  494MOL0     N66607   3.551   3.084   5.200  0.4124 -0.7982 -0.4451
  494MOL0     C66608   2.828   2.444   5.048 -0.2302 -0.0234 -0.3156
  494MOL0     C66609   2.837   2.329   4.970  1.1451 -0.1639 -0.1133
  494MOL0     C66610   2.812   2.065   4.600 -0.5253  0.6114 -0.2368
  494MOL0     C66611   2.866   2.058   4.468 -0.1548 -0.5456 -0.6518
  494MOL0     C66612   2.861   1.941   4.394 -0.2296  0.4329 -0.3433
  494MOL0     C66613   2.794   1.825   4.454  0.7644  0.2659  0.0049
  494MOL0     O66614   2.784   1.699   4.385 -0.2693  0.1631  0.5646
  494MOL0     C66615   2.810   1.687   4.238  0.4619 -0.8743  1.0232
  494MOL0     C66616   2.768   1.551   4.179 -1.0564 -0.1685  0.4066
  494MOL0     C66617   2.767   1.557   4.018  0.7157 -0.6469 -0.4180
  494MOL0     C66618   2.825   1.432   3.950  0.7423 -0.0972 -0.2048
  494MOL0     C66619   2.744   1.326   4.015  0.5423 -0.3610  0.4420
  494MOL0     C66620   2.685   1.227   4.058  0.4241  0.0936 -0.5798
  494MOL0     C66621   2.742   1.836   4.581 -0.3248  1.0923 -0.4754
  494MOL0     C66622   2.742   1.950   4.656  0.3649 -0.5671  1.0671
  494MOL0     H66623   2.614   2.400   4.725 -1.2741 -2.1751  0.5078
  494MOL0     H66624   2.585   2.598   4.851 -1.9461 -3.2916 -0.8408
  494MOL0     H66625   2.564   2.736   4.992 -0.7582  0.7923  1.5248
  494MOL0     H66626   2.613   2.813   5.138 -1.1886  2.8369 -1.1286
  494MOL0     H66627   2.766   2.812   4.864 -1.7963 -0.7242 -0.9768
  494MOL0     H66628   2.670   2.949   4.920 -0.4418 -0.5325  0.8649
  494MOL0     H66629   2.827   2.962   5.119 -0.8475 -1.7281  0.6380
  494MOL0     H66630   2.916   2.838   5.044  1.1960  1.7664  2.7437
  494MOL0     H66631   2.940   2.973   4.835 -0.3034 -2.3687  0.3933
  494MOL0     H66632   2.843   3.097   4.915 -2.4907 -2.8828 -1.6344
  494MOL0     H66633   3.088   3.159   4.944  0.4439  0.5572  0.2842
  494MOL0     H66634   3.014   3.132   5.095 -1.3758 -0.4692 -0.3643
  494MOL0     H66635   3.143   2.940   5.137  1.6551 -0.9861 -1.1719
  494MOL0     H66636   3.153   2.898   4.965 -0.2103  2.7950 -3.7967
  494MOL0     H66637   3.311   3.087   4.938  2.6534  1.3440  1.8219
  494MOL0     H66638   3.296   3.138   5.104 -0.2687 -2.0968  3.2838
  494MOL0     H66639   3.389   2.857   5.010  0.1223 -1.3460  1.4720
  494MOL0     H66640   3.349   2.901   5.176 -3.4364 -0.4818 -1.3862
  494MOL0     H66641   3.661   2.877   4.976  1.6325 -0.0356  0.3605
  494MOL0     H66642   3.892   3.043   4.952 -0.6682  0.4691 -0.5905
  494MOL0     H66643   3.940   3.121   5.102 -1.1714  0.9293 -0.6888
  494MOL0     H66644   3.932   2.816   5.060 -0.6646  1.6871 -1.5302
  494MOL0     H66645   3.920   2.895   5.208  0.6413  0.8454  0.6242
  494MOL0     H66646   4.149   3.016   5.158  2.0061 -0.5796 -0.4667
  494MOL0     H66647   4.139   2.968   5.000 -1.5395  0.8477  0.5511
  494MOL0     H66648   4.144   2.779   5.238  0.3986  3.6241  1.8635
  494MOL0     H66649   4.289   2.808   5.143 -0.1987  1.0312  0.2734
  494MOL0     H66650   4.025   2.597   4.848  0.3054 -1.3944 -0.9001
  494MOL0     H66651   4.017   2.468   4.636  1.8087  0.8059  1.1864
  494MOL0     H66652   3.998   2.628   4.559  0.2360 -0.3524 -1.3671
  494MOL0     H66653   4.109   2.515   4.505 -2.7442 -0.2489 -0.0286
  494MOL0     H66654   4.608   2.364   4.482  1.5286  0.0251 -0.7390
  494MOL0     H66655   4.722   2.279   4.299  1.4258  0.6683  2.0110
  494MOL0     H66656   4.704   2.444   3.866 -0.4457  0.0973  0.0031
  494MOL0     H66657   4.719   2.538   4.009  1.6111 -0.1588  0.8643
  494MOL0     H66658   4.924   2.439   4.066 -0.3176  2.1911 -1.3964
  494MOL0     H66659   4.877   2.295   3.952 -2.3487  0.5160 -2.5666
  494MOL0     H66660   4.996   2.562   3.884  2.0486 -0.2880  2.1431
  494MOL0     H66661   4.913   2.467   3.763 -2.0019  2.3644  1.2970
  494MOL0     H66662   5.139   2.343   3.926 -1.4241 -0.5202  1.1530
  494MOL0     H66663   5.063   2.294   3.778  1.1461 -0.1176 -0.0487
  494MOL0     H66664   5.149   2.493   3.668 -1.5687 -1.4824 -0.2956
  494MOL0     H66665   5.270   2.363   3.699 -0.6760 -1.2660 -0.3753
  494MOL0     H66666   5.347   2.585   3.755  0.1285  0.8753  0.9721
  494MOL0     H66667   5.238   2.597   3.893  2.4696 -0.3341  3.2841
  494MOL0     H66668   5.461   2.377   3.870  0.8380 -1.9617  2.0837
  494MOL0     H66669   5.345   2.392   3.997  1.5432 -1.8155 -0.1222
  494MOL0     H66670   5.458   2.626   4.045  2.4183 -1.6607  2.1499
  494MOL0     H66671   5.542   2.610   3.895 -2.9161  1.8125  0.1492
  494MOL0     H66672   4.449   2.485   4.040 -1.0335 -3.4026  0.1460
  494MOL0     H66673   4.329   2.589   4.236 -1.5491 -1.3026  0.8692
  494MOL0     H66674   4.482   2.766   4.768 -1.8642  4.1958 -0.2343
  494MOL0     H66675   4.383   2.772   4.979  1.9495 -2.2159 -0.2902
  494MOL0     H66676   2.892   2.456   5.135 -0.5022  0.2900 -0.1575
  494MOL0     H66677   2.901   2.243   4.989 -0.7725 -2.0739 -1.8622
  494MOL0     H66678   2.906   2.146   4.418  4.2118 -2.7411 -1.4705
  494MOL0     H66679   2.899   1.928   4.293  0.2418 -1.3922  0.0329
  494MOL0     H66680   2.759   1.769   4.186  0.7694 -1.0149  0.4960
  494MOL0     H66681   2.914   1.708   4.212  0.3734 -0.9939  0.5634
  494MOL0     H66682   2.666   1.526   4.208 -1.6892 -2.5670 -3.2526
  494MOL0     H66683   2.837   1.476   4.220  0.9513  1.2049 -0.2813
  494MOL0     H66684   2.814   1.649   3.982 -1.9907  0.9699 -0.0789
  494MOL0     H66685   2.662   1.571   3.988  1.0092 -2.1137 -2.3635
  494MOL0     H66686   2.927   1.402   3.975  0.3240 -2.9662 -1.5368
  494MOL0     H66687   2.808   1.445   3.842  0.3926 -1.4354 -0.3303
  494MOL0     H66688   2.637   1.133   4.077  0.0097  0.4183 -0.0182
  494MOL0     H66689   2.698   1.743   4.617 -0.1077 -1.0138 -4.9523
  494MOL0     H66690   2.697   1.948   4.755 -0.7027  0.9269  0.6358
  495MOL0     O66691  10.242   2.083   0.519 -0.6643  0.9362 -0.1429
  495MOL0     C66692  10.288   2.054   0.625  0.7680  0.0504  0.4022
  495MOL0     O66693  10.218   1.996   0.728 -0.5892  0.5758  0.4561
  495MOL0     C66694  10.092   1.962   0.709  0.6263  0.1993  0.2885
  495MOL0     C66695   9.995   2.065   0.720 -0.5588  0.7205 -0.5224
  495MOL0     C66696   9.863   2.033   0.693  0.5237 -0.0730 -0.4666
  495MOL0     C66697   9.834   1.899   0.670  0.3149  0.4748  0.1515
  495MOL0     O66698   9.705   1.859   0.668  0.3300  0.4433 -0.2167
  495MOL0     C66699   9.662   1.830   0.801  0.6024  0.4750  0.4217
  495MOL0     C66700   9.525   1.882   0.823  0.2625 -0.0513 -0.9197
  495MOL0     C66701   9.508   2.018   0.785 -0.5686 -0.0874 -0.0075
  495MOL0     C66702   9.554   2.116   0.896 -1.3585  0.7060  0.9422
  495MOL0     C66703   9.484   2.251   0.872  0.9787 -0.6144 -0.6850
  495MOL0     C66704   9.509   2.303   0.730 -0.8968 -0.0791  0.3806
  495MOL0     C66705   9.492   2.462   0.717 -0.2231  0.4900 -0.1728
  495MOL0     C66706   9.542   2.516   0.580  0.3415  0.8818  0.0958
  495MOL0     N66707   9.563   2.664   0.586  0.6178 -0.0997 -0.0557
  495MOL0     C66708   9.462   2.762   0.583 -0.0991 -0.1265 -0.9558
  495MOL0     C66709   9.534   2.882   0.588  0.3215  0.8023 -0.5566
  495MOL0     C66710   9.472   3.016   0.567  0.0191 -0.3808 -0.2648
  495MOL0     C66711   9.381   3.031   0.447  0.5777  1.1602  0.5654
  495MOL0     C66712   9.311   3.168   0.448  0.2999  0.9034 -0.6414
  495MOL0     C66713   9.387   3.271   0.359  0.0841 -0.0301  0.3002
  495MOL0     O66714   9.414   3.216   0.233 -0.3028 -0.1118  0.1819
  495MOL0     C66715   9.530   3.231   0.162 -0.7657 -0.0285  0.0532
  495MOL0     C66716   9.508   3.216   0.027  0.1977 -1.0489 -0.3761
  495MOL0     C66717   9.611   3.230  -0.065 -0.0332  0.5979 -0.1547
  495MOL0     C66718   9.575   3.223  -0.211  0.5778 -0.0814 -0.0671
  495MOL0     C66719   9.745   3.250  -0.022  1.0697 -0.2089  0.5486
  495MOL0     C66720   9.859   3.257  -0.115 -0.3499 -0.1699  0.8184
  495MOL0     O66721   9.978   3.233  -0.049  0.5392  0.0380 -0.2914
  495MOL0     C66722  10.094   3.267  -0.101 -0.3666 -0.3837  0.3666
  495MOL0     C66723  10.188   3.335  -0.023  0.1212  0.8903  0.7228
  495MOL0     C66724  10.303   3.368  -0.078 -1.2791 -0.8667 -0.0236
  495MOL0     C66725  10.348   3.342  -0.212 -0.2090 -0.3703 -0.1930
  495MOL0     O66726  10.467   3.374  -0.270 -0.6354 -0.3944  0.4345
  495MOL0     C66727  10.568   3.415  -0.183 -0.0901  0.1575  0.4722
  495MOL0     C66728  10.685   3.460  -0.270 -0.7095 -0.1076  0.1233
  495MOL0     C66729  10.799   3.506  -0.177  1.1481  0.1188  0.1811
  495MOL0     C66730  10.867   3.391  -0.114 -0.0724  1.0476 -0.1438
  495MOL0     C66731  10.989   3.460  -0.045  0.5631  0.5959  0.1877
  495MOL0     C66732  11.106   3.363  -0.005  1.2568 -0.0511  0.1430
  495MOL0     C66733  11.232   3.440   0.022 -0.5350 -0.3789 -0.4547
  495MOL0     C66734  11.327   3.330   0.061 -0.6860 -0.7642 -0.8854
  495MOL0    Cl66735  11.502   3.394   0.054  0.2552 -0.6138 -0.1097
  495MOL0     C66736  10.260   3.263  -0.280  0.9371  0.0244 -0.4949
  495MOL0     C66737  10.138   3.229  -0.228 -0.4824  0.6374  0.0822
  495MOL0     O66738   9.856   3.282  -0.235  0.5085 -0.2518 -0.1236
  495MOL0     C66739   9.761   3.260   0.115 -1.4009 -0.8759  0.6529
  495MOL0     C66740   9.659   3.252   0.209  0.5988 -0.7976  0.3419
  495MOL0     N66741   9.670   2.850   0.587  0.5743  0.2821 -0.0302
  495MOL0     N66742   9.682   2.719   0.599  0.2286  0.0463  0.4185
  495MOL0     C66743   9.932   1.796   0.658 -0.4105  1.0538 -0.2693
  495MOL0     C66744  10.062   1.835   0.667  1.1712  0.3259  0.0766
  495MOL0     C66745  10.430   2.078   0.642  0.1583  0.3184  0.3599
  495MOL0     C66746  10.495   2.156   0.554 -0.0677 -0.2735 -0.1166
  495MOL0     C66747  10.632   2.188   0.568 -0.5268 -0.3002  0.8302
  495MOL0     C66748  10.696   2.158   0.683  0.1378  0.0512 -1.1213
  495MOL0     O66749  10.824   2.191   0.710 -0.0817  0.3159 -0.2918
  495MOL0     C66750  10.925   2.221   0.610  0.3352 -0.8867  0.4179
  495MOL0     C66751  11.061   2.239   0.674  0.3106  0.0488 -0.8382
  495MOL0     C66752  11.071   2.371   0.765 -0.0433 -0.5143 -0.2572
  495MOL0     C66753  11.214   2.400   0.797 -0.7673 -0.5826 -0.2192
  495MOL0     C66754  11.239   2.521   0.871  0.3817 -0.9223 -0.4561
  495MOL0     C66755  11.242   2.616   0.938  0.6868 -0.8069  0.3713
  495MOL0     C66756  10.631   2.073   0.774  0.5186  0.9268 -0.2783
  495MOL0     C66757  10.502   2.026   0.756 -0.2347 -0.5104 -0.3999
  495MOL0     H66758  10.039   2.164   0.733  2.7178 -0.5320 -1.0460
  495MOL0     H66759   9.795   2.115   0.715  2.1003  1.0072  0.6288
  495MOL0     H66760   9.650   1.722   0.809 -2.2111  0.5323 -1.4262
  495MOL0     H66761   9.719   1.848   0.893 -2.4275 -2.2605  3.0739
  495MOL0     H66762   9.460   1.822   0.760 -0.5374 -0.4140  0.2278
  495MOL0     H66763   9.497   1.863   0.927 -1.7344  1.2444 -1.1601
  495MOL0     H66764   9.553   2.046   0.689 -1.5638 -3.0082 -1.4261
  495MOL0     H66765   9.400   2.030   0.774 -0.4212  1.0773 -0.3454
  495MOL0     H66766   9.533   2.069   0.993  2.0674 -1.2427  0.8959
  495MOL0     H66767   9.662   2.125   0.890 -0.1779 -5.5693  4.3856
  495MOL0     H66768   9.377   2.246   0.892  1.3067 -0.0650  1.5452
  495MOL0     H66769   9.526   2.311   0.954  0.7006 -2.1221  0.6085
  495MOL0     H66770   9.614   2.283   0.711 -0.5112 -1.1399  3.2395
  495MOL0     H66771   9.442   2.246   0.663 -0.0579 -1.5338  0.7323
  495MOL0     H66772   9.384   2.482   0.717 -0.3773  0.0103 -2.7464
  495MOL0     H66773   9.544   2.504   0.803  1.8248  0.6317 -1.4157
  495MOL0     H66774   9.475   2.496   0.496 -1.7509 -0.1616  1.8881
  495MOL0     H66775   9.638   2.465   0.567  0.6634  1.2537  0.9274
  495MOL0     H66776   9.356   2.747   0.564  0.1357  1.3639 -4.2757
  495MOL0     H66777   9.410   3.020   0.657  0.8099 -3.7613  0.5748
  495MOL0     H66778   9.548   3.094   0.580 -1.2644  0.5256  2.4863
  495MOL0     H66779   9.307   2.950   0.448  3.1284 -1.3651  0.0715
  495MOL0     H66780   9.436   3.015   0.354  1.8148  0.6372  1.3691
  495MOL0     H66781   9.304   3.206   0.550  1.2397 -1.2094  0.2596
  495MOL0     H66782   9.213   3.148   0.402  0.6804  0.7299 -1.3929
  495MOL0     H66783   9.476   3.289   0.420 -0.9559 -2.2929  2.6684
  495MOL0     H66784   9.327   3.362   0.348 -2.1254 -1.4220  0.0402
  495MOL0     H66785   9.403   3.203  -0.001  0.1593 -1.2024 -0.1619
  495MOL0     H66786   9.566   3.324  -0.252  2.0485  0.6290  1.2722
  495MOL0     H66787   9.644   3.169  -0.275 -3.4580 -1.6799 -3.5640
  495MOL0     H66788   9.480   3.168  -0.222 -0.9716  1.9944  1.9334
  495MOL0     H66789  10.164   3.368   0.078  1.5968  2.6240  0.5660
  495MOL0     H66790  10.360   3.432  -0.012 -0.0143  1.4305 -3.0743
  495MOL0     H66791  10.530   3.490  -0.114 -0.4255  2.6240 -2.2104
  495MOL0     H66792  10.605   3.328  -0.128 -0.6612  0.6788  1.7228
  495MOL0     H66793  10.710   3.374  -0.332  1.6124  2.0220 -2.1370
  495MOL0     H66794  10.646   3.534  -0.340 -0.1202 -0.9252 -1.0929
  495MOL0     H66795  10.760   3.580  -0.106  2.2794 -0.2021  1.1699
  495MOL0     H66796  10.866   3.563  -0.241 -2.3338  2.0885 -2.0221
  495MOL0     H66797  10.817   3.332  -0.037  0.5461  0.1629 -0.3969
  495MOL0     H66798  10.904   3.321  -0.190  0.9750  1.5112 -0.0846
  495MOL0     H66799  10.940   3.516   0.035  1.2038  1.4512 -0.0148
  495MOL0     H66800  11.021   3.538  -0.114  0.8464 -1.6694 -2.4087
  495MOL0     H66801  11.067   3.293   0.069 -0.1864  0.0498 -0.4868
  495MOL0     H66802  11.132   3.302  -0.091  2.5705  0.0951  0.4156
  495MOL0     H66803  11.224   3.508   0.107 -0.7939 -1.4537  0.4087
  495MOL0     H66804  11.269   3.485  -0.070  1.3736 -4.5094 -1.9725
  495MOL0     H66805  11.323   3.256  -0.020  0.2675 -2.8439  0.8731
  495MOL0     H66806  11.321   3.294   0.163  1.0087  0.5224 -0.2816
  495MOL0     H66807  10.297   3.240  -0.379 -1.1601 -3.2430 -0.6667
  495MOL0     H66808  10.077   3.152  -0.275 -1.2414  1.4237 -0.2547
  495MOL0     H66809   9.857   3.292   0.154 -0.9272  0.2935 -1.3157
  495MOL0     H66810   9.689   3.267   0.312  0.8548  1.2883 -0.0003
  495MOL0     H66811   9.908   1.690   0.660 -0.7648  1.1383  0.1911
  495MOL0     H66812  10.137   1.758   0.657  1.1762  0.4729 -1.2565
  495MOL0     H66813  10.435   2.197   0.473 -0.4010 -1.3261 -0.4203
  495MOL0     H66814  10.680   2.254   0.496 -0.9014  1.3331  1.9967
  495MOL0     H66815  10.933   2.143   0.534  0.2142 -1.1551  0.6733
  495MOL0     H66816  10.903   2.317   0.563  1.7468 -0.1045  1.2964
  495MOL0     H66817  11.145   2.245   0.604  1.5573  1.9163  0.6638
  495MOL0     H66818  11.071   2.156   0.744  1.5729  1.6491  1.0002
  495MOL0     H66819  11.019   2.379   0.861  0.4524  2.3901 -0.1373
  495MOL0     H66820  11.045   2.456   0.702  0.1271 -0.0436  0.3010
  495MOL0     H66821  11.275   2.411   0.707 -1.2289 -0.7803 -0.5566
  495MOL0     H66822  11.250   2.315   0.856 -1.2536 -3.2556 -3.4758
  495MOL0     H66823  11.233   2.706   0.996  1.5714  0.1823 -0.9641
  495MOL0     H66824  10.691   2.035   0.856  1.2853  1.4519 -0.5905
  495MOL0     H66825  10.458   1.973   0.840  0.3023 -1.3319 -0.6308
  496MOL0     O66826   4.397   6.906   0.805  1.1597  0.4599 -0.6550
  496MOL0     C66827   4.366   6.879   0.923  0.0607  0.9744 -0.3099
  496MOL0     O66828   4.267   6.928   1.000 -0.3996 -0.2181  0.3694
  496MOL0     C66829   4.185   7.037   0.956  0.6204  0.0279 -0.4327
  496MOL0     C66830   4.172   7.110   0.835 -0.0640  0.0826  0.5382
  496MOL0     C66831   4.087   7.218   0.819  0.1218 -0.3492 -0.1964
  496MOL0     C66832   4.010   7.262   0.930  0.2341  0.0001 -0.1469
  496MOL0     O66833   3.925   7.377   0.907 -0.2471 -0.5037 -0.0179
  496MOL0     C66834   3.803   7.353   0.969 -0.0242  0.0893 -1.1674
  496MOL0     C66835   3.690   7.438   0.909  0.1940 -0.2767  0.9218
  496MOL0     C66836   3.560   7.365   0.904 -0.5916  0.7401  0.6067
  496MOL0     C66837   3.447   7.445   0.827 -0.0977 -0.2413 -0.0881
  496MOL0     C66838   3.328   7.350   0.802 -0.3382  0.6618 -0.2222
  496MOL0     C66839   3.211   7.408   0.725 -0.3636  0.5191 -0.1577
  496MOL0     C66840   3.161   7.541   0.780 -0.6885 -0.4095 -0.0035
  496MOL0     C66841   3.137   7.538   0.927 -0.7268 -0.0787  0.5122
  496MOL0     N66842   3.016   7.467   0.974 -0.1772  0.4776  0.5250
  496MOL0     C66843   3.004   7.333   1.021 -0.5097  0.4212 -0.0937
  496MOL0     C66844   2.874   7.305   0.985 -0.0608  0.5764 -0.3563
  496MOL0     C66845   2.810   7.165   1.010 -0.4353  0.2988  0.0106
  496MOL0     C66846   2.675   7.182   1.081 -0.2607 -0.2704 -0.7500
  496MOL0     C66847   2.680   7.203   1.228 -0.2594 -0.5766  0.1430
  496MOL0     C66848   2.690   7.076   1.317 -0.1311 -0.0649 -0.0560
  496MOL0     O66849   2.582   6.991   1.326 -0.3706 -0.8966 -0.2510
  496MOL0     C66850   2.456   7.040   1.343 -0.3326  0.6229  0.0372
  496MOL0     C66851   2.412   7.125   1.452  0.2586  0.1076  0.6010
  496MOL0     C66852   2.278   7.163   1.469  0.0652  0.8811  0.2717
  496MOL0     C66853   2.243   7.262   1.577 -0.1152 -0.1065 -0.1664
  496MOL0     C66854   2.187   7.092   1.389  1.1484 -0.3900  0.1066
  496MOL0     C66855   2.043   7.106   1.411  0.1093 -0.0590 -0.0897
  496MOL0     O66856   1.990   7.099   1.542 -0.0642  0.8230  0.2114
  496MOL0     C66857   1.854   7.106   1.556  0.7112  0.3373 -0.2073
  496MOL0     C66858   1.754   7.022   1.493 -0.3274 -0.3804 -0.2949
  496MOL0     C66859   1.618   7.037   1.527  0.4326 -0.2585  0.3594
  496MOL0     C66860   1.576   7.139   1.612  0.0079 -0.8978 -0.8673
  496MOL0     O66861   1.434   7.159   1.619 -0.3921  0.4288  0.4740
  496MOL0     C66862   1.380   7.174   1.752 -0.8237  0.8519  0.5112
  496MOL0     C66863   1.414   7.050   1.839 -0.5668 -0.1840  0.2853
  496MOL0     C66864   1.308   7.008   1.932  0.4253 -0.2911 -0.3957
  496MOL0     C66865   1.307   7.109   2.056  0.5722  0.4349 -0.1230
  496MOL0     C66866   1.206   7.059   2.159  0.5009 -0.8870  0.5620
  496MOL0     C66867   1.073   7.016   2.119  0.7899  0.4042  0.1180
  496MOL0     C66868   0.974   6.999   2.229 -0.0557 -0.2245 -1.3405
  496MOL0     C66869   0.841   6.966   2.169 -0.1727  0.8469  1.0595
  496MOL0    Cl66870   0.710   6.973   2.285  0.7020 -0.3001  0.2079
  496MOL0     C66871   1.673   7.215   1.670  0.3644  0.1641  0.0897
  496MOL0     C66872   1.806   7.202   1.643  0.8621 -0.6019  0.2451
  496MOL0     O66873   1.977   7.124   1.310 -0.0422 -0.9630 -0.7937
  496MOL0     C66874   2.229   6.994   1.291 -0.8921  0.0087  1.0438
  496MOL0     C66875   2.359   6.964   1.274 -1.0332 -0.3200  0.2776
  496MOL0     N66876   2.816   7.423   0.953  0.2575  0.8312 -0.3900
  496MOL0     N66877   2.899   7.524   0.963  0.4762  0.0065 -0.3040
  496MOL0     C66878   4.028   7.189   1.055  0.3611 -0.0374  1.2995
  496MOL0     C66879   4.108   7.082   1.066 -0.9312 -0.2756 -0.6137
  496MOL0     C66880   4.429   6.759   0.984  0.1176  0.1798  0.3697
  496MOL0     C66881   4.558   6.718   0.929  0.3632  0.3306  0.1498
  496MOL0     C66882   4.636   6.610   0.984  0.4800  0.1679 -0.0096
  496MOL0     C66883   4.590   6.546   1.098 -0.2963 -0.0486 -0.3139
  496MOL0     O66884   4.656   6.443   1.160 -0.5563  0.8015  0.2336
  496MOL0     C66885   4.800   6.421   1.117  0.9325 -0.7399 -0.2667
  496MOL0     C66886   4.904   6.508   1.203 -0.0794 -0.0005 -0.4550
  496MOL0     C66887   5.023   6.528   1.112  0.7206  0.6280 -0.3327
  496MOL0     C66888   5.070   6.406   1.025 -0.6498  0.2303 -0.2807
  496MOL0     C66889   5.212   6.384   1.068  0.1462 -0.4028  0.2526
  496MOL0     C66890   5.321   6.354   1.106 -0.0713 -0.6123 -0.8966
  496MOL0     C66891   4.469   6.588   1.161 -0.1578 -0.1998  0.5440
  496MOL0     C66892   4.380   6.685   1.096 -0.2896 -0.6145 -0.0146
  496MOL0     H66893   4.230   7.069   0.753 -2.7715  0.9879 -2.0156
  496MOL0     H66894   4.066   7.258   0.720  0.0839 -0.5409 -0.2658
  496MOL0     H66895   3.775   7.248   0.959 -1.8914  0.3381  0.7347
  496MOL0     H66896   3.807   7.374   1.077 -0.2404  1.6244 -1.4324
  496MOL0     H66897   3.683   7.534   0.960 -0.9680 -0.8474  1.8659
  496MOL0     H66898   3.717   7.447   0.803  0.0331  0.6294  0.9501
  496MOL0     H66899   3.573   7.269   0.853  0.5162  0.6481  1.0442
  496MOL0     H66900   3.531   7.344   1.008 -0.8636 -0.9665  0.2116
  496MOL0     H66901   3.412   7.529   0.888  1.4347  0.6632 -0.3819
  496MOL0     H66902   3.497   7.481   0.736 -1.0386  0.5594 -0.3008
  496MOL0     H66903   3.367   7.268   0.740  0.6990  1.7571 -1.0806
  496MOL0     H66904   3.290   7.306   0.894  0.8870 -1.5774 -0.7355
  496MOL0     H66905   3.236   7.430   0.621  2.3859  0.8525  0.4893
  496MOL0     H66906   3.128   7.337   0.723  1.7247 -2.0923 -0.5050
  496MOL0     H66907   3.251   7.602   0.771 -0.3447 -1.0061 -0.7766
  496MOL0     H66908   3.074   7.583   0.728 -0.4585 -0.5311 -0.4861
  496MOL0     H66909   3.124   7.641   0.961 -2.4679 -0.2766  0.5115
  496MOL0     H66910   3.218   7.495   0.987 -0.4751 -0.2422  0.0577
  496MOL0     H66911   3.075   7.252   1.034 -2.5426 -1.9780 -2.5536
  496MOL0     H66912   2.803   7.117   0.912  2.4109  1.9923 -1.1891
  496MOL0     H66913   2.881   7.113   1.076 -1.5145  0.1303  1.0623
  496MOL0     H66914   2.618   7.089   1.073 -0.2136 -0.3804  0.1173
  496MOL0     H66915   2.621   7.258   1.024 -0.6397 -1.5208 -2.1354
  496MOL0     H66916   2.583   7.246   1.257 -0.7539 -2.0666  0.8070
  496MOL0     H66917   2.752   7.280   1.256 -2.0008  0.8943  0.7916
  496MOL0     H66918   2.710   7.115   1.417  0.4387 -0.0855 -0.1612
  496MOL0     H66919   2.777   7.015   1.292  1.2828  1.2593  1.3988
  496MOL0     H66920   2.480   7.180   1.516  1.1208  2.8517 -2.3934
  496MOL0     H66921   2.243   7.217   1.677 -2.1745  3.5222  1.6948
  496MOL0     H66922   2.324   7.333   1.588  0.3203 -0.4845 -0.8306
  496MOL0     H66923   2.150   7.313   1.550 -1.7840 -1.6466  2.2044
  496MOL0     H66924   1.800   6.948   1.429  1.4925  1.3075 -1.0400
  496MOL0     H66925   1.536   6.972   1.500  1.0331 -0.1724 -1.8747
  496MOL0     H66926   1.412   7.273   1.787  0.5679  1.3193 -1.9300
  496MOL0     H66927   1.271   7.175   1.736 -0.9695  1.4062  1.4353
  496MOL0     H66928   1.425   6.969   1.766  1.5172 -2.3348  2.7738
  496MOL0     H66929   1.509   7.061   1.892  1.0590 -1.9720 -2.0865
  496MOL0     H66930   1.315   6.900   1.952 -1.4870 -1.1322 -3.4947
  496MOL0     H66931   1.212   7.004   1.878  0.3801 -0.5256 -0.3002
  496MOL0     H66932   1.404   7.093   2.104 -1.4650 -2.2440  3.6127
  496MOL0     H66933   1.290   7.212   2.025 -2.6427  0.0903  0.1986
  496MOL0     H66934   1.183   7.146   2.222 -0.6527  0.8195 -2.0278
  496MOL0     H66935   1.244   6.976   2.219 -1.7280 -1.2060  1.6358
  496MOL0     H66936   1.028   7.080   2.043 -1.6874 -0.3874  0.8359
  496MOL0     H66937   1.086   6.912   2.089  0.5411  0.2700  0.4815
  496MOL0     H66938   0.973   7.097   2.277  2.2582 -1.2103  0.9753
  496MOL0     H66939   1.010   6.928   2.303  0.8611  1.6269  0.0859
  496MOL0     H66940   0.841   6.868   2.121 -0.8237  1.9901 -1.4285
  496MOL0     H66941   0.826   7.036   2.087  0.3189 -0.4043 -0.1212
  496MOL0     H66942   1.642   7.301   1.729 -2.7568 -2.0646  1.9879
  496MOL0     H66943   1.887   7.271   1.665  1.0904  0.0117 -2.1521
  496MOL0     H66944   2.149   6.942   1.240 -1.1888  1.7399 -0.3611
  496MOL0     H66945   2.386   6.902   1.190  1.7566  1.0069  0.0780
  496MOL0     H66946   3.988   7.216   1.152 -3.0186 -4.0099  1.2585
  496MOL0     H66947   4.123   7.040   1.165  1.5416 -0.0275 -0.8119
  496MOL0     H66948   4.611   6.776   0.854  2.4805 -1.5840  0.0494
  496MOL0     H66949   4.732   6.597   0.933 -0.9086  1.7890 -3.3216
  496MOL0     H66950   4.808   6.315   1.141  2.0920 -1.2064 -2.4771
  496MOL0     H66951   4.801   6.427   1.008 -0.0238  0.0305 -0.2446
  496MOL0     H66952   4.934   6.466   1.299  0.2914 -0.6491 -0.8429
  496MOL0     H66953   4.853   6.603   1.218  2.1550  1.4102 -1.3189
  496MOL0     H66954   5.091   6.564   1.190 -0.7342  0.8083  0.8919
  496MOL0     H66955   5.005   6.606   1.037  0.3180  0.5605 -0.3077
  496MOL0     H66956   5.058   6.434   0.920  0.6315  0.3822 -0.4098
  496MOL0     H66957   5.011   6.321   1.060 -0.3014 -0.1320 -0.5647
  496MOL0     H66958   5.420   6.339   1.143  2.2879  6.4602 -2.6357
  496MOL0     H66959   4.437   6.529   1.246 -0.7985 -1.4747 -0.5429
  496MOL0     H66960   4.280   6.712   1.131 -0.5521 -3.4841  1.7991
  497MOL0     O66961   8.181   6.980   5.455  0.1991  0.0943 -0.0084
  497MOL0     C66962   8.092   7.051   5.496  0.4817 -0.9238  0.7429
  497MOL0     O66963   7.976   7.018   5.559 -0.4643 -0.1283 -0.2451
  497MOL0     C66964   7.937   6.891   5.581  0.8987 -0.1813 -0.8786
  497MOL0     C66965   7.990   6.763   5.542 -0.2724 -0.2942 -0.3854
  497MOL0     C66966   7.936   6.643   5.591 -0.0496  0.4617 -0.5124
  497MOL0     C66967   7.826   6.649   5.677  0.2555 -0.8202 -0.8039
  497MOL0     O66968   7.775   6.540   5.740  0.7941  0.0538  0.4241
  497MOL0     C66969   7.767   6.420   5.657 -0.8072  0.2394 -1.1938
  497MOL0     C66970   7.634   6.354   5.681 -0.7454  0.0213  0.8435
  497MOL0     C66971   7.524   6.427   5.594  0.0825  0.1003 -0.0798
  497MOL0     C66972   7.408   6.346   5.601  0.0567 -0.6540  0.3420
  497MOL0     C66973   7.288   6.428   5.559 -0.0845 -1.0305  0.1610
  497MOL0     C66974   7.243   6.527   5.669  0.4072 -0.0575 -1.4638
  497MOL0     C66975   7.123   6.608   5.610 -0.2776  0.8563 -0.4685
  497MOL0     C66976   7.084   6.718   5.703 -0.2834 -1.2795 -0.8531
  497MOL0     N66977   7.178   6.834   5.696 -0.5250 -0.7300  0.7742
  497MOL0     C66978   7.234   6.891   5.584  0.6872 -0.5119 -0.5530
  497MOL0     C66979   7.333   6.967   5.636  0.2986 -1.0791  0.2180
  497MOL0     C66980   7.429   7.048   5.555 -0.4738 -0.7355 -0.2350
  497MOL0     C66981   7.526   6.967   5.462 -0.5803 -0.7203 -0.1848
  497MOL0     C66982   7.636   7.060   5.403 -0.0343  0.1410 -0.7206
  497MOL0     C66983   7.575   7.170   5.313  1.3099 -0.0800  0.3558
  497MOL0     O66984   7.516   7.123   5.191 -0.6263  0.3057  0.1015
  497MOL0     C66985   7.532   7.212   5.089 -0.1253 -0.4194  0.1190
  497MOL0     C66986   7.467   7.333   5.086  0.9091 -0.6506 -0.4001
  497MOL0     C66987   7.486   7.427   4.984 -0.7782 -1.3352  0.3616
  497MOL0     C66988   7.406   7.565   4.990 -0.5290  0.8843 -0.2038
  497MOL0     C66989   7.584   7.397   4.879 -0.6636 -0.1510  0.6729
  497MOL0     C66990   7.635   7.494   4.775  0.2921  0.2520 -0.4023
  497MOL0     O66991   7.566   7.617   4.769 -0.1097 -0.5699 -0.0290
  497MOL0     C66992   7.600   7.714   4.672  0.1307 -0.7048 -0.3343
  497MOL0     C66993   7.592   7.850   4.714  0.6974  0.0122  0.4990
  497MOL0     C66994   7.629   7.952   4.636 -0.6036  0.1620  0.7261
  497MOL0     C66995   7.681   7.929   4.506  0.7414 -0.2032  0.1442
  497MOL0     O66996   7.710   8.035   4.432  0.3405 -0.8413  0.3043
  497MOL0     C66997   7.815   8.031   4.344 -0.5293 -0.5024 -0.4886
  497MOL0     C66998   7.807   8.165   4.278 -0.0407 -0.2977  0.3846
  497MOL0     C66999   7.721   8.175   4.157 -0.1744 -0.9350  0.2878
  497MOL0     C67000   7.569   8.203   4.188 -0.4113 -0.2734  0.9610
  497MOL0     C67001   7.486   8.208   4.058 -0.4005  0.5444 -0.5756
  497MOL0     C67002   7.351   8.264   4.092 -0.3709  0.4357  0.7080
  497MOL0     C67003   7.267   8.246   3.962 -0.2464  0.0638  0.7020
  497MOL0     C67004   7.119   8.281   3.975 -0.4135  0.0663  0.5407
  497MOL0    Cl67005   7.052   8.267   4.139  0.3094 -0.1926 -0.1329
  497MOL0     C67006   7.703   7.792   4.466  0.5641 -0.2442 -0.0621
  497MOL0     C67007   7.658   7.692   4.544  0.4532 -0.0300 -0.0406
  497MOL0     O67008   7.735   7.465   4.709  0.0468 -0.1621 -0.7393
  497MOL0     C67009   7.639   7.269   4.884  0.0637  0.0794  0.1461
  497MOL0     C67010   7.621   7.176   4.990 -0.0537  0.4096  0.9362
  497MOL0     N67011   7.333   6.960   5.771  0.9083 -1.1832 -0.0987
  497MOL0     N67012   7.242   6.880   5.803  0.0164 -0.0603  0.0429
  497MOL0     C67013   7.779   6.773   5.710 -0.8230 -0.2042  0.0756
  497MOL0     C67014   7.823   6.889   5.661 -0.1163  0.8634  0.1159
  497MOL0     C67015   8.118   7.198   5.484  0.5383  0.1158 -0.0074
  497MOL0     C67016   8.011   7.297   5.499  0.0614  0.6159 -0.0254
  497MOL0     C67017   8.042   7.430   5.502  0.3710 -0.3480  0.8675
  497MOL0     C67018   8.167   7.481   5.463  0.1402  0.0185  0.0148
  497MOL0     O67019   8.197   7.617   5.457 -0.3651  1.0682  0.3590
  497MOL0     C67020   8.095   7.720   5.469 -0.4327 -0.9130  0.3705
  497MOL0     C67021   8.029   7.758   5.333  0.0159  0.3332  0.0421
  497MOL0     C67022   8.121   7.849   5.251 -0.1045 -1.0554  0.3545
  497MOL0     C67023   8.082   7.999   5.267  0.1569  1.1066  0.2294
  497MOL0     C67024   8.165   8.080   5.172  0.5132 -0.1932 -0.3691
  497MOL0     C67025   8.239   8.161   5.120  0.7559  0.0224 -0.4984
  497MOL0     C67026   8.264   7.383   5.424  0.0283  0.5271 -0.0344
  497MOL0     C67027   8.241   7.245   5.449  0.1339 -0.1989 -0.0876
  497MOL0     H67028   8.068   6.767   5.467 -0.8745  0.1833 -1.0021
  497MOL0     H67029   7.998   6.556   5.570 -1.2042  0.4453 -4.5897
  497MOL0     H67030   7.770   6.450   5.552 -2.8717  1.4795 -0.9547
  497MOL0     H67031   7.848   6.357   5.694 -0.6001 -0.0069 -2.0620
  497MOL0     H67032   7.641   6.258   5.628  1.5600  0.3932  0.3348
  497MOL0     H67033   7.612   6.343   5.787  1.6785 -1.6577  1.2733
  497MOL0     H67034   7.501   6.528   5.630 -1.6400 -0.4684  0.4918
  497MOL0     H67035   7.550   6.446   5.490  1.6009 -2.2479 -0.2189
  497MOL0     H67036   7.402   6.257   5.537 -1.8181  1.2595 -2.3688
  497MOL0     H67037   7.390   6.302   5.699  4.1893 -2.8768  0.3225
  497MOL0     H67038   7.317   6.490   5.475  1.3106 -3.0704 -0.9655
  497MOL0     H67039   7.208   6.360   5.526  0.3944 -2.4138  1.6798
  497MOL0     H67040   7.204   6.473   5.756  2.7200  1.6232  0.7875
  497MOL0     H67041   7.324   6.595   5.698  0.5705 -0.2333 -1.5088
  497MOL0     H67042   7.154   6.656   5.517  1.1373  0.9119  0.0161
  497MOL0     H67043   7.035   6.544   5.592 -0.6058  0.8597  0.9856
  497MOL0     H67044   7.053   6.696   5.805  2.5152  0.4053  0.4445
  497MOL0     H67045   6.990   6.749   5.655  0.4699 -2.2741 -3.1583
  497MOL0     H67046   7.218   6.866   5.479  1.2220 -2.0553 -0.2839
  497MOL0     H67047   7.379   7.127   5.498 -2.3984  0.0752  2.3672
  497MOL0     H67048   7.479   7.095   5.640  0.9324  1.1702 -2.0192
  497MOL0     H67049   7.479   6.913   5.379  0.0901  0.0956 -1.1150
  497MOL0     H67050   7.568   6.884   5.520  2.8820 -0.0931 -1.5605
  497MOL0     H67051   7.711   7.009   5.342  0.6682  1.7374 -1.2440
  497MOL0     H67052   7.689   7.095   5.491  0.0972 -0.0450 -0.7247
  497MOL0     H67053   7.662   7.232   5.290  3.2384 -2.7620 -0.0777
  497MOL0     H67054   7.505   7.232   5.369 -1.8823 -2.6510 -0.4270
  497MOL0     H67055   7.401   7.357   5.169 -0.7659 -2.8554 -0.9936
  497MOL0     H67056   7.313   7.548   5.046  0.1250  2.8855  1.6117
  497MOL0     H67057   7.465   7.644   5.036  1.6411 -0.5019 -0.4670
  497MOL0     H67058   7.370   7.589   4.889  1.7154 -0.4607 -1.4003
  497MOL0     H67059   7.567   7.865   4.819 -3.4911  2.6075 -0.6372
  497MOL0     H67060   7.629   8.048   4.686 -1.6945  0.4787  0.1565
  497MOL0     H67061   7.906   8.022   4.405 -1.2460  1.4667  0.9757
  497MOL0     H67062   7.805   7.944   4.278  0.3049 -1.7830  0.9877
  497MOL0     H67063   7.774   8.234   4.357  0.1403 -2.6046  2.6308
  497MOL0     H67064   7.906   8.193   4.242  0.1499 -1.0333  0.3124
  497MOL0     H67065   7.727   8.081   4.102 -0.2892  0.0549 -1.4737
  497MOL0     H67066   7.753   8.253   4.087  1.8897 -1.6876  0.3279
  497MOL0     H67067   7.545   8.115   4.249  1.2566 -0.4623  1.3903
  497MOL0     H67068   7.563   8.288   4.257  0.9828  0.9159 -0.3234
  497MOL0     H67069   7.482   8.110   4.011  2.4779  0.7919 -1.5800
  497MOL0     H67070   7.546   8.279   4.000  2.0861 -0.0254  1.1087
  497MOL0     H67071   7.299   8.215   4.175 -0.9663 -3.6897 -1.8074
  497MOL0     H67072   7.350   8.371   4.110 -0.5556  0.5517  0.0205
  497MOL0     H67073   7.264   8.140   3.936 -3.7492 -0.5512  2.9997
  497MOL0     H67074   7.299   8.295   3.869 -1.9159  0.1623  0.1454
  497MOL0     H67075   7.051   8.218   3.918 -0.0407 -2.9964  3.1649
  497MOL0     H67076   7.111   8.387   3.947 -1.9966 -0.7152 -2.2549
  497MOL0     H67077   7.753   7.771   4.373 -1.7489  1.2619 -1.7554
  497MOL0     H67078   7.677   7.590   4.515  0.5484  0.1592 -0.6536
  497MOL0     H67079   7.692   7.218   4.803 -1.5359 -3.0650  0.9166
  497MOL0     H67080   7.662   7.076   4.981 -1.8384 -0.3958  1.3076
  497MOL0     H67081   7.693   6.762   5.776  0.0825 -2.1609  1.0354
  497MOL0     H67082   7.782   6.980   5.704 -0.2606  0.6993  0.3270
  497MOL0     H67083   7.911   7.258   5.515  0.1214  0.3514 -0.2869
  497MOL0     H67084   7.959   7.498   5.523  0.3238 -0.6971  1.8413
  497MOL0     H67085   8.024   7.699   5.549 -0.3169 -0.3096  0.6394
  497MOL0     H67086   8.153   7.806   5.504 -2.9772  1.1708 -0.1997
  497MOL0     H67087   7.937   7.811   5.357 -0.3701 -0.4807  0.4122
  497MOL0     H67088   8.008   7.668   5.274  1.4449 -0.9873  1.4322
  497MOL0     H67089   8.122   7.838   5.142  3.4736  2.6885 -0.2214
  497MOL0     H67090   8.223   7.836   5.289 -0.2163 -1.6664  0.4634
  497MOL0     H67091   8.090   8.030   5.372 -2.5997  0.2101  0.7859
  497MOL0     H67092   7.980   8.022   5.235 -0.8846 -3.1727 -0.0400
  497MOL0     H67093   8.314   8.220   5.071  0.6665  2.9563  2.4764
  497MOL0     H67094   8.363   7.417   5.395 -0.9931  1.7269 -2.4334
  497MOL0     H67095   8.323   7.175   5.435  1.6392  1.4688  0.0086
  498MOL0     O67096   0.630   4.894   8.981  0.1891 -0.1541  0.2611
  498MOL0     C67097   0.574   5.003   8.970 -0.3329 -0.8872  1.0376
  498MOL0     O67098   0.630   5.121   9.006  0.2503 -0.4665 -0.1087
  498MOL0     C67099   0.764   5.119   9.032  0.5230  0.8818  1.3156
  498MOL0     C67100   0.865   5.064   8.949 -0.0875 -0.4708  0.5441
  498MOL0     C67101   1.008   5.071   8.984  1.2504  1.3838  0.1723
  498MOL0     C67102   1.049   5.141   9.098  0.4745 -0.3624  0.3553
  498MOL0     O67103   1.180   5.147   9.126 -0.4650  1.0627  1.4329
  498MOL0     C67104   1.218   5.085   9.246 -0.6592  0.8219  0.6031
  498MOL0     C67105   1.359   5.020   9.228  0.1754 -0.7744  0.7525
  498MOL0     C67106   1.385   4.918   9.340  0.5897 -0.0616 -0.2060
  498MOL0     C67107   1.515   4.834   9.327  0.9926 -0.4749  0.3272
  498MOL0     C67108   1.518   4.732   9.453 -0.6956 -0.6669  0.8014
  498MOL0     C67109   1.623   4.776   9.552 -0.0978 -0.3043  0.0675
  498MOL0     C67110   1.627   4.666   9.661  0.7925  0.2292  0.3304
  498MOL0     C67111   1.744   4.666   9.764 -0.5733  0.2784 -0.6934
  498MOL0     N67112   1.727   4.772   9.863 -0.5486 -0.2117  0.1481
  498MOL0     C67113   1.750   4.908   9.847 -0.1143  0.6877 -0.0522
  498MOL0     C67114   1.696   4.955   9.961 -0.1506 -0.5124  1.1113
  498MOL0     C67115   1.693   5.095  10.011  0.1946  0.4043  0.5866
  498MOL0     C67116   1.798   5.130  10.098  0.5171 -0.3347 -0.1274
  498MOL0     C67117   1.780   5.073  10.240 -0.1240  0.9557 -0.2263
  498MOL0     C67118   1.892   5.116  10.328 -1.1088  0.8696 -0.9561
  498MOL0     O67119   2.025   5.073  10.286  0.2339  0.2928 -0.4373
  498MOL0     C67120   2.136   5.148  10.328 -0.4649  0.0717 -0.4797
  498MOL0     C67121   2.141   5.238  10.434 -0.2827 -0.4100 -0.7635
  498MOL0     C67122   2.264   5.299  10.466  0.8262  0.7177 -0.8107
  498MOL0     C67123   2.257   5.385  10.592 -0.0637  0.3340  0.3176
  498MOL0     C67124   2.385   5.284  10.396  0.3053  0.3748  0.7502
  498MOL0     C67125   2.509   5.359  10.432  0.6561 -0.0593 -0.3676
  498MOL0     O67126   2.628   5.281  10.418 -0.6818 -0.2431 -0.2921
  498MOL0     C67127   2.757   5.332  10.404  0.5364  0.4112  0.0878
  498MOL0     C67128   2.823   5.392  10.507  0.1362  0.3607 -0.4356
  498MOL0     C67129   2.953   5.435  10.485  0.0685  0.3204  0.0988
  498MOL0     C67130   3.011   5.433  10.355  0.5562 -0.2451  0.1514
  498MOL0     O67131   3.141   5.464  10.344 -0.0831 -0.9491  0.0389
  498MOL0     C67132   3.196   5.596  10.397  0.0399  0.0186  0.0716
  498MOL0     C67133   3.282   5.666  10.287  0.4346  0.0085  0.5565
  498MOL0     C67134   3.412   5.603  10.260  0.1026  0.2284  0.0558
  498MOL0     C67135   3.463   5.636  10.112 -0.2026  0.6037 -0.3585
  498MOL0     C67136   3.467   5.782  10.090  0.5491 -0.6101 -0.5558
  498MOL0     C67137   3.590   5.856  10.130 -0.5207  0.3773  0.2915
  498MOL0     C67138   3.615   5.983  10.051 -1.6186 -0.2277  0.6029
  498MOL0     C67139   3.742   6.051  10.090  0.2137 -0.5743  0.4376
  498MOL0    Cl67140   3.790   6.162   9.960  0.1290 -0.0949  0.1968
  498MOL0     C67141   2.934   5.384  10.247 -0.5628  0.5141  0.0716
  498MOL0     C67142   2.809   5.338  10.275  0.1879 -0.4439  0.3435
  498MOL0     O67143   2.499   5.484  10.452 -0.4515  0.0509 -0.2005
  498MOL0     C67144   2.383   5.187  10.289  0.6547  0.5282 -0.8416
  498MOL0     C67145   2.261   5.112  10.270  0.6968 -0.1484  0.1372
  498MOL0     N67146   1.659   4.859  10.049  0.5347  0.1506 -1.1251
  498MOL0     N67147   1.674   4.749   9.987  0.0296  0.4937  0.1887
  498MOL0     C67148   0.952   5.187   9.189 -0.1285  0.1407  0.3308
  498MOL0     C67149   0.814   5.195   9.143  0.2363 -0.5482  1.3574
  498MOL0     C67150   0.431   4.998   8.945 -0.9914  0.6002 -0.3376
  498MOL0     C67151   0.363   4.881   8.944 -0.3316  1.1444  0.5234
  498MOL0     C67152   0.225   4.870   8.927  0.2497  0.0020 -0.4750
  498MOL0     C67153   0.146   4.985   8.904 -0.5271  0.4119 -0.7623
  498MOL0     O67154   0.012   4.965   8.889  0.4538  0.5247 -0.3277
  498MOL0     C67155  -0.061   5.075   8.833 -0.3617  0.1203 -0.2042
  498MOL0     C67156  -0.211   5.055   8.815  0.0234 -0.4031 -0.2258
  498MOL0     C67157  -0.240   4.929   8.732  0.0018 -0.5696 -0.3048
  498MOL0     C67158  -0.388   4.916   8.715 -0.3249 -0.6445  1.4779
  498MOL0     C67159  -0.449   4.923   8.852 -0.1665  0.9949  1.1514
  498MOL0     C67160  -0.501   4.917   8.960  0.5168 -1.0806  0.6654
  498MOL0     C67161   0.214   5.106   8.912 -0.5455 -0.0673  0.4283
  498MOL0     C67162   0.354   5.113   8.922  0.1313 -0.3960  0.0622
  498MOL0     H67163   0.843   5.009   8.858 -0.1706 -0.6624  0.6791
  498MOL0     H67164   1.085   5.016   8.931  0.9784 -1.9703  2.8533
  498MOL0     H67165   1.219   5.159   9.327  0.0664 -0.9613  2.3049
  498MOL0     H67166   1.152   5.001   9.269 -0.2514  0.3946  0.2161
  498MOL0     H67167   1.367   4.974   9.129  0.7992 -1.1330  0.9601
  498MOL0     H67168   1.442   5.092   9.228  2.0018 -2.6317  3.7813
  498MOL0     H67169   1.386   4.968   9.438 -2.3574 -0.3856  0.0718
  498MOL0     H67170   1.300   4.854   9.366  0.3735 -0.2534 -1.3549
  498MOL0     H67171   1.513   4.783   9.230 -2.3669 -0.2056  0.1327
  498MOL0     H67172   1.604   4.897   9.326 -0.9699  2.5536 -2.7666
  498MOL0     H67173   1.428   4.739   9.514  0.1346  0.4826  1.9318
  498MOL0     H67174   1.543   4.631   9.418  3.0625  0.6319 -0.8451
  498MOL0     H67175   1.720   4.795   9.504 -0.5669 -1.4508 -1.3927
  498MOL0     H67176   1.602   4.874   9.594 -0.1020  0.3138 -1.3215
  498MOL0     H67177   1.537   4.653   9.722 -0.2730 -3.0033 -1.6808
  498MOL0     H67178   1.642   4.572   9.608  0.2336  0.8833 -1.0213
  498MOL0     H67179   1.839   4.686   9.714 -2.3182  2.3973 -3.4174
  498MOL0     H67180   1.748   4.573   9.823  3.3415  3.3264  4.8248
  498MOL0     H67181   1.799   4.964   9.769 -0.9747  1.9967  0.3187
  498MOL0     H67182   1.713   5.162   9.926  3.7584 -3.5162 -2.0571
  498MOL0     H67183   1.593   5.119  10.048 -0.1477 -0.7736  0.4485
  498MOL0     H67184   1.799   5.238  10.113  1.2443 -0.3536  0.0039
  498MOL0     H67185   1.890   5.095  10.051 -0.1416 -0.2282 -1.5408
  498MOL0     H67186   1.771   4.965  10.247  1.7170  0.2747 -4.8169
  498MOL0     H67187   1.688   5.122  10.273  0.1936  1.3612  0.0667
  498MOL0     H67188   1.866   5.081  10.428 -2.0300 -0.8602 -1.7618
  498MOL0     H67189   1.885   5.225  10.331  0.5948  0.9896  0.3565
  498MOL0     H67190   2.054   5.249  10.498  1.8217  0.8971  2.1263
  498MOL0     H67191   2.198   5.475  10.570 -1.0517 -0.0969  1.1541
  498MOL0     H67192   2.212   5.324  10.670  3.0700  0.2652  2.2596
  498MOL0     H67193   2.350   5.429  10.629 -1.2024  4.9422 -1.5073
  498MOL0     H67194   2.782   5.388  10.607  1.2396  1.0016  0.0583
  498MOL0     H67195   3.002   5.468  10.576  0.9646 -1.9155  0.4905
  498MOL0     H67196   3.123   5.671  10.430  2.8353  2.0802  2.0694
  498MOL0     H67197   3.274   5.584  10.473  1.9111 -0.0722 -1.7744
  498MOL0     H67198   3.224   5.675  10.195  2.0043 -0.2442 -0.4877
  498MOL0     H67199   3.300   5.769  10.320 -2.9593  0.6612  0.7801
  498MOL0     H67200   3.409   5.494  10.261  1.3144  0.1811 -0.0136
  498MOL0     H67201   3.483   5.629  10.340 -0.3230 -0.7245  0.7499
  498MOL0     H67202   3.561   5.586  10.106 -0.9441 -1.0563  0.5794
  498MOL0     H67203   3.408   5.590  10.030  2.1319 -2.2726 -0.4861
  498MOL0     H67204   3.380   5.829  10.138  0.7307  0.3740 -1.1634
  498MOL0     H67205   3.446   5.797   9.984 -1.0858  1.1366 -0.0453
  498MOL0     H67206   3.597   5.872  10.238  1.3924  2.8430 -0.1206
  498MOL0     H67207   3.673   5.788  10.109 -1.7982 -1.3510  0.5720
  498MOL0     H67208   3.526   6.044  10.072 -2.3076 -0.8647 -0.3784
  498MOL0     H67209   3.613   5.961   9.944 -1.8904  1.6661  0.1926
  498MOL0     H67210   3.822   5.979  10.110  1.7743  1.5019  2.1278
  498MOL0     H67211   3.724   6.103  10.185 -0.6472 -0.6202  0.3095
  498MOL0     H67212   2.971   5.376  10.145  0.2211 -1.2225  0.4532
  498MOL0     H67213   2.752   5.307  10.188  0.2220 -0.2826  0.2615
  498MOL0     H67214   2.468   5.151  10.232 -0.6548 -1.5183 -1.6341
  498MOL0     H67215   2.274   5.026  10.205  1.1389 -0.4204  0.5896
  498MOL0     H67216   0.981   5.221   9.288  0.6574 -2.6101  1.1335
  498MOL0     H67217   0.733   5.234   9.205 -2.3420 -1.1157 -1.4443
  498MOL0     H67218   0.424   4.793   8.959  2.6025  3.0647  0.8319
  498MOL0     H67219   0.175   4.774   8.929 -1.6972  0.9669 -0.3545
  498MOL0     H67220  -0.048   5.161   8.900 -0.1297 -1.5063  1.9426
  498MOL0     H67221  -0.010   5.091   8.737  0.6863 -0.8155  0.1755
  498MOL0     H67222  -0.263   5.138   8.765 -0.3543  0.0489  0.8788
  498MOL0     H67223  -0.245   5.043   8.918 -0.6944 -0.8115 -0.5017
  498MOL0     H67224  -0.191   4.837   8.767 -1.1481 -1.5103 -1.0593
  498MOL0     H67225  -0.204   4.963   8.634 -0.5051  2.6824  0.5229
  498MOL0     H67226  -0.411   4.822   8.663  0.2151 -0.0315  0.0732
  498MOL0     H67227  -0.432   4.995   8.654  0.4876  0.2211  1.9936
  498MOL0     H67228  -0.555   4.914   9.053 -4.4448  1.3341 -1.7276
  498MOL0     H67229   0.148   5.193   8.910 -2.5650 -1.5308 -0.9787
  498MOL0     H67230   0.405   5.207   8.942  1.0982 -0.9159  0.1002
  499MOL0     O67231   8.486   5.575   1.999 -0.1781 -0.3020 -1.3647
  499MOL0     C67232   8.576   5.520   1.944  0.5044 -0.2223 -0.2812
  499MOL0     O67233   8.587   5.388   1.920  0.3284 -0.4058 -0.3009
  499MOL0     C67234   8.514   5.298   1.997 -0.1445  0.1186 -0.1347
  499MOL0     C67235   8.394   5.244   1.960 -0.1905 -0.8442 -0.3855
  499MOL0     C67236   8.312   5.193   2.054  0.2750 -0.6130 -1.2590
  499MOL0     C67237   8.348   5.175   2.189 -0.0896 -0.4048  0.8660
  499MOL0     O67238   8.248   5.120   2.269 -0.0981  0.3671 -0.0619
  499MOL0     C67239   8.301   5.073   2.387 -0.4201 -0.5709 -0.3921
  499MOL0     C67240   8.182   4.994   2.441  0.0163  0.3124  0.0030
  499MOL0     C67241   8.163   4.860   2.368  0.0996 -0.1231 -0.1020
  499MOL0     C67242   8.024   4.812   2.372  0.0273  0.5623  0.2561
  499MOL0     C67243   7.995   4.661   2.330  0.1014 -0.4334 -0.0760
  499MOL0     C67244   7.840   4.640   2.301  0.6152  0.4614 -0.4683
  499MOL0     C67245   7.820   4.515   2.212  0.3631  0.0395  1.1486
  499MOL0     C67246   7.688   4.447   2.248  0.5342 -0.0737 -1.2652
  499MOL0     N67247   7.564   4.512   2.228  0.0937 -0.0791  0.3848
  499MOL0     C67248   7.525   4.632   2.285 -0.3989  1.4528 -0.2054
  499MOL0     C67249   7.431   4.683   2.205 -0.0101 -0.5455  0.6278
  499MOL0     C67250   7.364   4.816   2.219  0.5806 -0.2262 -0.6799
  499MOL0     C67251   7.255   4.825   2.329  0.7536  0.4998  0.2438
  499MOL0     C67252   7.206   4.967   2.359 -0.1804  0.7870 -1.0047
  499MOL0     C67253   7.092   4.983   2.469  0.5068  0.0187  0.6899
  499MOL0     O67254   6.970   4.909   2.440 -0.2152 -0.1515 -0.1216
  499MOL0     C67255   6.878   4.896   2.539 -0.9929  0.0459 -0.5115
  499MOL0     C67256   6.900   4.938   2.668 -0.2163 -0.4137  0.1474
  499MOL0     C67257   6.795   4.931   2.766 -0.5344  0.1953 -0.7815
  499MOL0     C67258   6.841   4.966   2.904  0.2108 -0.4414  0.9450
  499MOL0     C67259   6.670   4.874   2.726 -0.3958  0.3950 -0.7198
  499MOL0     C67260   6.553   4.857   2.818 -0.5231  0.9695 -0.2880
  499MOL0     O67261   6.520   4.972   2.883  0.6556  0.2063  0.3534
  499MOL0     C67262   6.433   4.966   2.985 -0.6595 -0.4560  0.1828
  499MOL0     C67263   6.462   5.049   3.098 -0.0822  0.4705  0.2684
  499MOL0     C67264   6.365   5.068   3.198  0.4461 -0.5369  0.3659
  499MOL0     C67265   6.237   5.020   3.187  0.5684  0.5029  0.1666
  499MOL0     O67266   6.140   5.059   3.270 -0.3713 -0.5091 -0.4740
  499MOL0     C67267   6.004   5.079   3.211  0.6029 -0.5672 -0.1288
  499MOL0     C67268   5.915   5.137   3.325 -0.7609  0.3859 -0.3333
  499MOL0     C67269   5.928   5.052   3.454  0.0043 -0.6712  0.1837
  499MOL0     C67270   5.897   4.903   3.427 -0.0675  0.7430 -0.0340
  499MOL0     C67271   5.866   4.833   3.558 -0.6554 -0.6332 -0.0608
  499MOL0     C67272   5.726   4.861   3.609 -0.2355  0.0660 -0.7207
  499MOL0     C67273   5.679   4.757   3.719 -0.7069  0.3911  0.2784
  499MOL0     C67274   5.773   4.743   3.836  0.7433  1.3203 -1.1290
  499MOL0    Cl67275   5.706   4.680   3.992 -0.6208 -0.3464  0.4720
  499MOL0     C67276   6.206   4.933   3.074  0.2982 -0.4966  0.4666
  499MOL0     C67277   6.302   4.907   2.971 -1.1070  0.0321 -0.1602
  499MOL0     O67278   6.507   4.742   2.833 -0.4235  0.2458  0.3202
  499MOL0     C67279   6.661   4.829   2.601  0.7212  0.0447  0.0926
  499MOL0     C67280   6.762   4.835   2.509  0.2138  0.9164  0.4364
  499MOL0     N67281   7.404   4.598   2.097  0.4076 -0.3450 -0.1352
  499MOL0     N67282   7.472   4.491   2.124  0.0691  0.5007  0.0342
  499MOL0     C67283   8.477   5.215   2.223 -0.3840  0.1127  0.2072
  499MOL0     C67284   8.555   5.285   2.129  0.7699  0.3653 -0.2638
  499MOL0     C67285   8.667   5.600   1.864 -0.6372  0.2856  1.6294
  499MOL0     C67286   8.729   5.540   1.747  0.3476  0.3780 -0.2263
  499MOL0     C67287   8.823   5.610   1.677 -0.0866  0.0067 -0.3337
  499MOL0     C67288   8.852   5.746   1.717  0.1567  0.0971  0.2306
  499MOL0     O67289   8.944   5.827   1.668  0.5822 -0.1569  0.1917
  499MOL0     C67290   8.993   5.781   1.551 -0.1586  0.2575  0.2891
  499MOL0     C67291   9.083   5.907   1.517 -0.2371  0.7781 -0.2629
  499MOL0     C67292   9.151   5.898   1.384  0.3878 -0.4406 -0.3178
  499MOL0     C67293   9.048   5.892   1.269  0.7751 -0.5482  0.3362
  499MOL0     C67294   9.006   6.024   1.243 -0.6894 -0.2669 -0.5913
  499MOL0     C67295   8.965   6.138   1.231  0.1849 -0.2199  0.4545
  499MOL0     C67296   8.779   5.807   1.818  0.3092 -0.6461  0.2519
  499MOL0     C67297   8.688   5.732   1.881 -0.0334  0.0677  0.9950
  499MOL0     H67298   8.354   5.245   1.859 -2.9665 -0.1733  0.6591
  499MOL0     H67299   8.212   5.168   2.019 -0.4948  2.9165 -2.0116
  499MOL0     H67300   8.377   4.998   2.362  0.7016 -0.3239  2.0175
  499MOL0     H67301   8.336   5.139   2.466 -1.0537 -0.3176 -0.3197
  499MOL0     H67302   8.202   4.974   2.546  2.1298  1.4395 -0.1210
  499MOL0     H67303   8.090   5.054   2.438 -0.7264 -0.8252 -2.0086
  499MOL0     H67304   8.194   4.870   2.264 -3.7576  0.8895 -1.3416
  499MOL0     H67305   8.221   4.777   2.408 -0.0870 -0.7953 -1.1945
  499MOL0     H67306   7.987   4.821   2.474  0.9903 -0.9829  0.7775
  499MOL0     H67307   7.965   4.884   2.314 -0.8729  0.5601  1.1493
  499MOL0     H67308   8.054   4.632   2.242  0.9392 -1.8158  0.9039
  499MOL0     H67309   8.030   4.595   2.410  2.0798 -2.6261 -2.5661
  499MOL0     H67310   7.787   4.628   2.396  2.8297 -2.1866  0.5694
  499MOL0     H67311   7.804   4.723   2.239  1.3755  1.7584  0.7589
  499MOL0     H67312   7.816   4.540   2.106 -2.5593 -2.3533  0.5566
  499MOL0     H67313   7.902   4.443   2.221  1.1814  0.5983 -1.0748
  499MOL0     H67314   7.674   4.415   2.352 -2.2130 -0.7638 -1.7880
  499MOL0     H67315   7.690   4.355   2.189 -0.9691 -0.1690 -1.1935
  499MOL0     H67316   7.553   4.677   2.379 -1.3777  0.6279  0.5070
  499MOL0     H67317   7.441   4.891   2.241 -1.3433  1.5553  0.3595
  499MOL0     H67318   7.323   4.843   2.122 -2.4653 -2.3829 -0.1401
  499MOL0     H67319   7.294   4.777   2.419  1.1923 -1.3083 -0.8715
  499MOL0     H67320   7.170   4.774   2.282  0.5779  1.5063 -0.5915
  499MOL0     H67321   7.182   4.997   2.257  0.9886 -0.9223 -1.8238
  499MOL0     H67322   7.295   5.019   2.394 -0.1943  1.0894 -1.4147
  499MOL0     H67323   7.061   5.087   2.480  0.1893 -0.1780  1.7365
  499MOL0     H67324   7.139   4.948   2.561 -0.7270  1.4218  1.9138
  499MOL0     H67325   6.996   4.981   2.695 -1.2103  2.8368 -1.1006
  499MOL0     H67326   6.949   4.987   2.909  0.1101  0.2640  0.4186
  499MOL0     H67327   6.786   5.047   2.952  0.8720  0.1871  0.6710
  499MOL0     H67328   6.820   4.875   2.960 -1.6718 -0.2554  0.5833
  499MOL0     H67329   6.560   5.094   3.099 -0.4387  1.2657  0.8009
  499MOL0     H67330   6.386   5.135   3.280 -1.3845 -1.0778  1.3255
  499MOL0     H67331   6.010   5.150   3.128 -3.3063  1.9849  1.4675
  499MOL0     H67332   5.963   4.984   3.176 -0.1356 -0.4303  0.3349
  499MOL0     H67333   5.932   5.243   3.345 -0.4644  0.4191 -0.7406
  499MOL0     H67334   5.813   5.118   3.290 -1.4276  2.1462  0.5287
  499MOL0     H67335   5.854   5.097   3.520 -1.6773 -2.1022 -0.6539
  499MOL0     H67336   6.024   5.067   3.504  0.5699 -0.7387 -0.8527
  499MOL0     H67337   5.813   4.878   3.362  0.2228 -1.2409  0.3139
  499MOL0     H67338   5.975   4.862   3.362 -0.0180 -0.5437  0.8111
  499MOL0     H67339   5.944   4.855   3.632  1.7583 -0.7289 -2.4079
  499MOL0     H67340   5.872   4.727   3.532  1.6659  0.0139 -2.6519
  499MOL0     H67341   5.698   4.961   3.642 -1.5330 -0.5418  0.0853
  499MOL0     H67342   5.671   4.843   3.516 -1.4166 -1.3458  0.2097
  499MOL0     H67343   5.674   4.659   3.671  0.6950  1.7142 -2.8283
  499MOL0     H67344   5.582   4.790   3.756  0.0291  0.5430  2.1626
  499MOL0     H67345   5.812   4.844   3.856  0.7873  1.5182 -2.1500
  499MOL0     H67346   5.866   4.688   3.818  0.6782  0.0518  1.9051
  499MOL0     H67347   6.108   4.889   3.063 -0.1833  0.4414  0.8855
  499MOL0     H67348   6.274   4.850   2.883 -1.2995 -1.2939  0.7204
  499MOL0     H67349   6.571   4.777   2.568 -1.3026  3.4300 -0.3032
  499MOL0     H67350   6.745   4.795   2.409 -1.9577  0.0619  1.0899
  499MOL0     H67351   8.507   5.186   2.323 -1.0660 -0.4441  0.2548
  499MOL0     H67352   8.654   5.327   2.138  1.0412 -0.3381  0.0846
  499MOL0     H67353   8.704   5.437   1.728 -0.7951  0.6188 -0.0736
  499MOL0     H67354   8.883   5.562   1.600  0.9822  1.6789 -0.5986
  499MOL0     H67355   9.052   5.691   1.573 -0.5086  0.3320  1.6540
  499MOL0     H67356   8.918   5.767   1.473  0.1779  0.0462  0.0036
  499MOL0     H67357   9.161   5.903   1.594  0.9124  1.6787 -1.3294
  499MOL0     H67358   9.036   6.006   1.517  2.5706  2.2256 -0.1264
  499MOL0     H67359   9.205   5.803   1.382  0.2056 -0.5760  0.5453
  499MOL0     H67360   9.231   5.972   1.375 -0.4116  0.5211  0.2238
  499MOL0     H67361   8.964   5.825   1.290  0.0065  0.6809  1.3513
  499MOL0     H67362   9.095   5.854   1.177  0.0529 -5.0182  1.5497
  499MOL0     H67363   8.936   6.241   1.243 -0.3874 -0.4881  1.5757
  499MOL0     H67364   8.785   5.914   1.835 -0.8581 -0.3477 -1.0606
  499MOL0     H67365   8.627   5.782   1.956 -1.5568  0.8955 -0.7084
  500MOL0     O67366   1.937   9.685   6.217  0.1407 -0.9803  0.6048
  500MOL0     C67367   1.859   9.601   6.176  0.3232 -0.0217  0.7237
  500MOL0     O67368   1.846   9.555   6.047 -0.1550  0.5881  0.6392
  500MOL0     C67369   1.944   9.592   5.962 -0.5666 -0.6162 -0.7642
  500MOL0     C67370   2.044   9.497   5.930 -0.1569 -0.5361  1.0115
  500MOL0     C67371   2.128   9.522   5.822 -0.6195  1.1419 -0.1411
  500MOL0     C67372   2.142   9.652   5.777  0.8624  0.6547  0.0315
  500MOL0     O67373   2.245   9.692   5.700  0.2547  0.5122  0.2463
  500MOL0     C67374   2.288   9.621   5.585 -0.2057  0.6291  0.4875
  500MOL0     C67375   2.435   9.590   5.600 -1.1957 -0.5158 -0.7598
  500MOL0     C67376   2.503   9.497   5.505  0.8810  0.7604 -0.5516
  500MOL0     C67377   2.503   9.547   5.367  0.6110 -0.0096  0.0521
  500MOL0     C67378   2.614   9.487   5.279  1.3634  0.2821  0.3776
  500MOL0     C67379   2.573   9.345   5.245  0.1374  0.5318 -0.3315
  500MOL0     C67380   2.678   9.278   5.147 -0.1614  0.3975 -0.6732
  500MOL0     C67381   2.612   9.139   5.108 -0.5303 -0.9165 -0.7948
  500MOL0     N67382   2.720   9.044   5.087  0.1518  0.5082  0.7027
  500MOL0     C67383   2.814   9.050   4.983 -0.0406 -0.1988  0.3329
  500MOL0     C67384   2.875   8.926   4.989 -0.3924 -0.4726  0.1971
  500MOL0     C67385   2.972   8.866   4.883 -0.3756 -0.1478  0.5541
  500MOL0     C67386   3.066   8.969   4.818 -0.8175  0.9323 -0.1181
  500MOL0     C67387   3.153   9.054   4.912 -1.5790 -0.1803 -0.7341
  500MOL0     C67388   3.246   8.994   5.027 -1.0425 -0.2192 -0.6421
  500MOL0     O67389   3.310   9.112   5.092 -0.5076 -0.1935 -0.2650
  500MOL0     C67390   3.236   9.188   5.172  0.0717 -1.0932  0.0925
  500MOL0     C67391   3.261   9.323   5.176 -0.7971 -1.0376 -0.4558
  500MOL0     C67392   3.202   9.424   5.252  0.4289 -0.3503 -0.2111
  500MOL0     C67393   3.262   9.566   5.255 -0.1726 -0.2284  0.3831
  500MOL0     C67394   3.095   9.376   5.335  0.0988 -0.3513 -0.0452
  500MOL0     C67395   3.018   9.466   5.423 -1.1622 -0.3817  0.3040
  500MOL0     O67396   2.989   9.425   5.554 -0.1491  0.0606  0.4275
  500MOL0     C67397   2.910   9.488   5.650  0.2744 -0.5622 -0.0223
  500MOL0     C67398   2.894   9.432   5.774  0.0242  0.9007 -0.1234
  500MOL0     C67399   2.809   9.485   5.870  0.1056  0.2907  0.0665
  500MOL0     C67400   2.747   9.604   5.850 -0.6007 -0.0394 -0.6168
  500MOL0     O67401   2.661   9.658   5.941 -0.4331  0.0414  1.1007
  500MOL0     C67402   2.595   9.567   6.033  1.2596  0.2142 -1.3272
  500MOL0     C67403   2.466   9.601   6.089  0.6115 -0.4019 -0.9322
  500MOL0     C67404   2.459   9.748   6.125  0.6507  1.1053 -0.8521
  500MOL0     C67405   2.409   9.846   6.018  0.4119  0.0388  0.5564
  500MOL0     C67406   2.419   9.990   6.054  0.1284 -0.6418 -0.7203
  500MOL0     C67407   2.555  10.072   6.032  0.3856 -0.2634  0.5609
  500MOL0     C67408   2.640  10.034   5.912  0.0803  0.1660  0.2024
  500MOL0     C67409   2.752  10.138   5.899  0.2691 -0.2346 -0.0159
  500MOL0    Cl67410   2.834  10.133   5.743  0.1942 -0.3079 -0.0039
  500MOL0     C67411   2.773   9.673   5.737 -0.0657  0.5957 -0.3071
  500MOL0     C67412   2.853   9.618   5.630  0.0206 -0.2573 -0.1262
  500MOL0     O67413   2.983   9.575   5.368  0.7115  0.8088  0.0594
  500MOL0     C67414   3.056   9.239   5.321  0.2296 -0.2568 -0.1975
  500MOL0     C67415   3.123   9.146   5.246 -0.2959 -0.4751 -0.4014
  500MOL0     N67416   2.813   8.843   5.081  0.2029 -0.3086  0.3737
  500MOL0     N67417   2.724   8.916   5.139  0.0381 -0.5970  0.0471
  500MOL0     C67418   2.056   9.754   5.817 -0.0038  0.4200 -0.2964
  500MOL0     C67419   1.955   9.724   5.911 -0.5405 -0.3804 -0.1551
  500MOL0     C67420   1.764   9.536   6.275  0.5044  0.6721 -0.2552
  500MOL0     C67421   1.643   9.478   6.240 -0.2517 -0.1698  0.2793
  500MOL0     C67422   1.568   9.405   6.333 -0.0479  1.2110  0.1450
  500MOL0     C67423   1.608   9.388   6.460  0.1709 -0.5309  0.0120
  500MOL0     O67424   1.537   9.308   6.544  0.1258 -0.8859  0.7651
  500MOL0     C67425   1.598   9.176   6.558 -0.2187  0.1784  0.0958
  500MOL0     C67426   1.495   9.072   6.593 -0.5987 -0.1117 -0.0299
  500MOL0     C67427   1.381   9.067   6.507  0.8548 -0.0321 -0.2632
  500MOL0     C67428   1.388   9.048   6.350 -0.7807 -0.6460  0.2263
  500MOL0     C67429   1.499   8.959   6.316 -0.2363  0.0826  0.2139
  500MOL0     C67430   1.592   8.895   6.275 -0.3976 -0.0178 -0.6811
  500MOL0     C67431   1.730   9.439   6.504 -0.3732  0.4388 -0.0421
  500MOL0     C67432   1.803   9.512   6.410  1.1322 -0.7251  0.7340
  500MOL0     H67433   2.059   9.403   5.982  0.2140  0.2744  2.4323
  500MOL0     H67434   2.204   9.447   5.799  0.0792  2.0806 -1.0293
  500MOL0     H67435   2.232   9.528   5.571 -0.8233  1.2242 -1.2193
  500MOL0     H67436   2.277   9.678   5.493  3.2610  1.5625  0.5310
  500MOL0     H67437   2.489   9.685   5.602  1.6499 -2.0436 -0.6361
  500MOL0     H67438   2.447   9.555   5.703  0.6400  3.0176  0.4093
  500MOL0     H67439   2.606   9.493   5.539  0.8420  1.0517 -0.3982
  500MOL0     H67440   2.460   9.396   5.505  0.3718  0.9725 -1.2735
  500MOL0     H67441   2.402   9.545   5.327  0.9414  0.2898 -0.8145
  500MOL0     H67442   2.527   9.653   5.379  3.9738 -0.9438  3.8785
  500MOL0     H67443   2.626   9.547   5.188 -4.8722 -0.2938 -1.2669
  500MOL0     H67444   2.713   9.477   5.325  1.4258 -0.3904  0.1009
  500MOL0     H67445   2.565   9.292   5.341  0.7370 -0.1238 -0.6347
  500MOL0     H67446   2.480   9.344   5.188 -0.3077 -2.0691  0.2816
  500MOL0     H67447   2.676   9.346   5.061 -1.9177 -1.3129 -2.0837
  500MOL0     H67448   2.769   9.275   5.207 -0.4194 -1.4654 -0.3279
  500MOL0     H67449   2.555   9.157   5.017 -0.6788  0.2335 -0.4926
  500MOL0     H67450   2.539   9.118   5.187  0.0596  1.1594  0.3597
  500MOL0     H67451   2.832   9.133   4.915 -1.9041  0.7989  0.9931
  500MOL0     H67452   3.027   8.781   4.926  1.4265  0.0528 -1.2069
  500MOL0     H67453   2.910   8.831   4.800 -1.1060  0.9102  0.6315
  500MOL0     H67454   3.007   9.038   4.757  0.5833  3.1126  0.8721
  500MOL0     H67455   3.129   8.914   4.748 -1.1287  0.7084 -0.2225
  500MOL0     H67456   3.096   9.136   4.955  0.5642  0.9846  0.0106
  500MOL0     H67457   3.227   9.107   4.852  1.2683  3.5941  5.1631
  500MOL0     H67458   3.322   8.933   4.977  0.2985  0.2562  0.7586
  500MOL0     H67459   3.194   8.934   5.102 -0.0140 -0.3540 -0.0217
  500MOL0     H67460   3.340   9.348   5.107  0.8785 -2.0480  1.0260
  500MOL0     H67461   3.370   9.573   5.241 -0.2604  2.0660  0.4545
  500MOL0     H67462   3.209   9.625   5.180  2.2475  0.6322 -0.7576
  500MOL0     H67463   3.256   9.615   5.352  0.4478  0.0582  0.2853
  500MOL0     H67464   2.940   9.336   5.792  2.4692  1.6225 -1.9013
  500MOL0     H67465   2.787   9.421   5.955 -2.9002  0.9668 -0.0751
  500MOL0     H67466   2.578   9.469   5.988 -2.7424  0.1783 -0.0812
  500MOL0     H67467   2.676   9.569   6.107 -1.0411  1.4175  1.3045
  500MOL0     H67468   2.381   9.587   6.021  0.0479  0.4946 -0.4280
  500MOL0     H67469   2.444   9.550   6.183 -1.2805  0.4574 -0.8526
  500MOL0     H67470   2.559   9.768   6.166  1.2105  0.4618 -1.8587
  500MOL0     H67471   2.395   9.759   6.213 -0.3300 -0.6272 -1.2973
  500MOL0     H67472   2.469   9.833   5.928 -0.3907  3.3403 -0.5991
  500MOL0     H67473   2.305   9.824   5.993 -0.4577  1.3680  2.7145
  500MOL0     H67474   2.388  10.001   6.158  5.7730  4.9065  0.9897
  500MOL0     H67475   2.346  10.042   5.992 -2.7230 -2.7452  0.6296
  500MOL0     H67476   2.539  10.180   6.027 -0.2431 -0.3899 -0.5503
  500MOL0     H67477   2.603  10.051   6.128 -2.1328 -1.4927  1.6612
  500MOL0     H67478   2.582  10.037   5.819 -0.9294  0.8495  0.8422
  500MOL0     H67479   2.688   9.939   5.938  2.1028  1.1546  0.2661
  500MOL0     H67480   2.821  10.124   5.983  0.8575  1.7130 -0.1341
  500MOL0     H67481   2.714  10.240   5.907 -0.4251 -0.3206 -1.7225
  500MOL0     H67482   2.738   9.775   5.722 -0.1561  0.2445 -3.0184
  500MOL0     H67483   2.859   9.683   5.544  1.0140  0.6516  0.5961
  500MOL0     H67484   2.955   9.220   5.356 -0.0359 -2.1720 -1.7814
  500MOL0     H67485   3.088   9.043   5.246 -1.0967 -0.3243 -4.2340
  500MOL0     H67486   2.053   9.852   5.771 -2.0113  1.7434  2.4392
  500MOL0     H67487   1.881   9.799   5.933  0.3797  1.1882 -2.0371
  500MOL0     H67488   1.604   9.489   6.139  1.7297 -0.0742 -0.5251
  500MOL0     H67489   1.466   9.375   6.312  0.6400  0.6393 -2.9146
  500MOL0     H67490   1.654   9.145   6.469  1.6372 -1.4999  1.7616
  500MOL0     H67491   1.673   9.193   6.635 -0.4098  1.7154 -0.0225
  500MOL0     H67492   1.472   9.063   6.700 -2.4392  2.6319 -0.1070
  500MOL0     H67493   1.555   8.981   6.585  1.6237  1.3206 -0.4590
  500MOL0     H67494   1.334   9.165   6.515  2.3691  0.8475 -1.5243
  500MOL0     H67495   1.322   8.990   6.557  0.6528  0.6548  0.5761
  500MOL0     H67496   1.396   9.148   6.305  0.1194 -0.1420  1.4577
  500MOL0     H67497   1.298   9.005   6.307 -1.7176  1.9107 -0.5643
  500MOL0     H67498   1.677   8.833   6.258 -0.3826 -0.7027  1.5617
  500MOL0     H67499   1.752   9.423   6.610 -0.8579 -0.3816 -0.0582
  500MOL0     H67500   1.893   9.554   6.454 -0.0669  1.4722  1.2232
  501MOL0     O67501   8.637   6.510   4.541  0.1628 -0.2592 -0.1855
  501MOL0     C67502   8.668   6.564   4.646 -0.8145 -0.4468 -0.0264
  501MOL0     O67503   8.791   6.579   4.698  0.1543  0.7182  0.5899
  501MOL0     C67504   8.888   6.522   4.632 -0.2011  0.3577 -0.0286
  501MOL0     C67505   8.999   6.610   4.610  0.7719  0.8142  0.7822
  501MOL0     C67506   9.107   6.565   4.537  0.3125 -0.6858  0.1123
  501MOL0     C67507   9.118   6.430   4.504 -0.1543  0.6180 -0.3485
  501MOL0     O67508   9.235   6.373   4.450 -0.0307  0.7212 -0.2615
  501MOL0     C67509   9.334   6.454   4.394  0.6323  0.3060 -1.3215
  501MOL0     C67510   9.427   6.355   4.324 -0.6781 -0.5741 -1.0484
  501MOL0     C67511   9.360   6.256   4.233  0.0685  0.0538  0.0254
  501MOL0     C67512   9.318   6.331   4.104 -0.5179  0.2704 -0.4074
  501MOL0     C67513   9.272   6.227   4.000  0.4387 -0.2915 -0.6191
  501MOL0     C67514   9.219   6.293   3.872  0.0179  0.5008 -1.1456
  501MOL0     C67515   9.233   6.209   3.744 -0.3785  1.0582 -0.0643
  501MOL0     C67516   9.190   6.276   3.609 -0.4369 -0.7924  0.0706
  501MOL0     N67517   9.288   6.382   3.576 -0.6431  0.3363  1.1119
  501MOL0     C67518   9.409   6.353   3.494 -0.7935 -0.5094 -0.4429
  501MOL0     C67519   9.480   6.469   3.506  0.4983  0.1396 -0.0796
  501MOL0     C67520   9.616   6.496   3.441 -0.5718  0.1148  0.0480
  501MOL0     C67521   9.631   6.627   3.355 -0.3216 -0.1772 -0.5453
  501MOL0     C67522   9.674   6.759   3.427  0.2349  0.1756  0.0989
  501MOL0     C67523   9.672   6.876   3.329  0.7828 -0.0515  0.4014
  501MOL0     O67524   9.729   6.995   3.396 -0.4735 -0.6528  0.5058
  501MOL0     C67525   9.658   7.111   3.386  0.3161 -0.1661 -0.1690
  501MOL0     C67526   9.516   7.110   3.392  0.3353 -1.0887 -0.0769
  501MOL0     C67527   9.442   7.228   3.372  0.3310  0.8338  0.0479
  501MOL0     C67528   9.296   7.224   3.390  0.4028  0.0586  0.3318
  501MOL0     C67529   9.512   7.350   3.360 -0.5413  0.0554 -0.0254
  501MOL0     C67530   9.452   7.486   3.326 -0.6028  0.3992 -0.0678
  501MOL0     O67531   9.538   7.590   3.311  0.4013 -0.0496  0.4511
  501MOL0     C67532   9.485   7.699   3.255  1.4532  0.5425 -0.8224
  501MOL0     C67533   9.455   7.702   3.119 -0.3095  0.4820 -0.7762
  501MOL0     C67534   9.411   7.828   3.061  0.1383  0.5971  0.0830
  501MOL0     C67535   9.391   7.937   3.137  0.1813  0.7913  0.2356
  501MOL0     O67536   9.349   8.046   3.063 -0.3337 -1.3146  0.0625
  501MOL0     C67537   9.349   8.169   3.135  0.0741 -0.1594 -0.2896
  501MOL0     C67538   9.309   8.285   3.047 -0.0608 -0.2041 -0.7062
  501MOL0     C67539   9.417   8.333   2.938  0.4751  0.7612 -0.2405
  501MOL0     C67540   9.356   8.441   2.854  0.5222 -1.0243  0.5658
  501MOL0     C67541   9.429   8.449   2.720  0.0400 -0.3216  0.1141
  501MOL0     C67542   9.394   8.571   2.647  0.3809  0.0101  0.4223
  501MOL0     C67543   9.259   8.576   2.574  0.3140  0.1882 -0.6744
  501MOL0     C67544   9.247   8.705   2.498  0.6227 -1.2399  0.3317
  501MOL0    Cl67545   9.132   8.659   2.371 -0.1090  0.3502  0.2270
  501MOL0     C67546   9.419   7.929   3.273 -0.9303  0.1913  0.3974
  501MOL0     C67547   9.464   7.810   3.328 -0.9513  0.0191  0.5713
  501MOL0     O67548   9.334   7.496   3.322 -0.7321 -0.2666  0.7470
  501MOL0     C67549   9.653   7.350   3.370 -0.6071 -0.0225 -0.3036
  501MOL0     C67550   9.725   7.231   3.373 -0.5797  0.3486  0.3254
  501MOL0     N67551   9.406   6.560   3.572 -0.1053 -0.4611 -0.0683
  501MOL0     N67552   9.297   6.510   3.615  0.2578 -0.7636  0.2311
  501MOL0     C67553   9.008   6.340   4.521  1.0829 -0.1680  0.6723
  501MOL0     C67554   8.897   6.386   4.588  0.3284 -0.5979 -0.1691
  501MOL0     C67555   8.559   6.618   4.722  0.4978 -0.1023 -0.0063
  501MOL0     C67556   8.443   6.655   4.654  0.3191 -0.4582 -0.3086
  501MOL0     C67557   8.345   6.724   4.725  0.7784  0.0639 -0.7724
  501MOL0     C67558   8.349   6.747   4.861 -0.0946 -0.0211  0.0954
  501MOL0     O67559   8.255   6.813   4.933  0.0541 -0.0852 -0.1980
  501MOL0     C67560   8.115   6.793   4.908 -0.2921  0.6971 -0.0716
  501MOL0     C67561   8.031   6.839   5.025  0.8943  0.0596 -0.2245
  501MOL0     C67562   8.031   6.986   5.042 -0.2143 -0.4272  0.1359
  501MOL0     C67563   7.935   7.023   5.148  0.3899  0.2022 -0.0874
  501MOL0     C67564   7.934   7.173   5.167  0.3486  0.3771  0.8599
  501MOL0     C67565   7.932   7.290   5.152  0.2180 -0.8678  0.4470
  501MOL0     C67566   8.466   6.708   4.928 -0.3579 -0.5210  0.8835
  501MOL0     C67567   8.575   6.643   4.856  0.6302 -0.5363 -1.1526
  501MOL0     H67568   8.999   6.714   4.640  3.8428  1.2748 -0.5013
  501MOL0     H67569   9.183   6.640   4.519 -1.4604  1.4323  1.0208
  501MOL0     H67570   9.289   6.525   4.324  0.3126  1.9766  0.4946
  501MOL0     H67571   9.387   6.521   4.462  1.9369  2.4394 -4.1758
  501MOL0     H67572   9.497   6.420   4.271  0.0147 -1.0868 -0.7763
  501MOL0     H67573   9.477   6.285   4.392 -1.5862 -1.6926 -1.4901
  501MOL0     H67574   9.435   6.184   4.199 -0.1378 -0.0326 -0.2579
  501MOL0     H67575   9.271   6.206   4.273  0.6148 -0.4278  0.6464
  501MOL0     H67576   9.239   6.403   4.123  0.5641  1.5647 -0.6799
  501MOL0     H67577   9.408   6.370   4.055  0.7148 -3.0914 -1.1215
  501MOL0     H67578   9.352   6.156   3.978  0.0129 -0.7022 -0.8333
  501MOL0     H67579   9.193   6.163   4.039  0.3646 -0.7401 -1.4922
  501MOL0     H67580   9.111   6.313   3.875 -0.4962 -2.1508  0.8280
  501MOL0     H67581   9.276   6.387   3.873 -0.9492  1.0989 -1.1544
  501MOL0     H67582   9.337   6.185   3.721  0.0208  2.0179  0.6665
  501MOL0     H67583   9.179   6.117   3.763 -0.1884  1.1970  1.1795
  501MOL0     H67584   9.085   6.304   3.620 -0.8767 -1.7480 -1.3109
  501MOL0     H67585   9.191   6.199   3.531 -0.7228 -0.1236 -0.6143
  501MOL0     H67586   9.442   6.262   3.445  1.1871 -0.3756  0.5239
  501MOL0     H67587   9.686   6.504   3.525 -0.4260 -3.2538  0.4029
  501MOL0     H67588   9.648   6.412   3.378 -1.4696  0.0380 -0.3147
  501MOL0     H67589   9.529   6.641   3.317 -0.0256 -1.0745 -1.7042
  501MOL0     H67590   9.702   6.620   3.273 -0.9432  1.7533 -1.2950
  501MOL0     H67591   9.773   6.753   3.474  1.1460  0.6931 -1.6594
  501MOL0     H67592   9.607   6.774   3.512 -0.1307  2.9987 -0.6171
  501MOL0     H67593   9.571   6.894   3.289  0.7675  1.4976  1.0784
  501MOL0     H67594   9.734   6.854   3.242  1.5030 -2.2674  1.3976
  501MOL0     H67595   9.460   7.019   3.413 -0.3947 -0.9889 -1.4479
  501MOL0     H67596   9.244   7.261   3.302 -0.0419  4.3033  2.1183
  501MOL0     H67597   9.259   7.121   3.402  0.1682  0.1292  0.2097
  501MOL0     H67598   9.267   7.281   3.479  0.9294 -0.7889  1.0692
  501MOL0     H67599   9.462   7.610   3.062 -1.3107 -0.3137  0.3170
  501MOL0     H67600   9.379   7.846   2.959  2.5591  0.6514 -0.7109
  501MOL0     H67601   9.273   8.154   3.212 -0.7680  1.0717 -0.8464
  501MOL0     H67602   9.447   8.179   3.183 -0.0765  0.6764 -0.1256
  501MOL0     H67603   9.218   8.274   2.988 -1.9486  0.1419  1.9589
  501MOL0     H67604   9.287   8.362   3.122  0.5267  1.1879 -1.9248
  501MOL0     H67605   9.446   8.251   2.871 -0.1100  0.6565 -0.3667
  501MOL0     H67606   9.505   8.379   2.985  0.1642 -0.7724  2.0050
  501MOL0     H67607   9.249   8.425   2.837 -0.2705  2.6757  1.0808
  501MOL0     H67608   9.354   8.534   2.911  0.1739 -1.5413  1.4038
  501MOL0     H67609   9.426   8.361   2.656  1.6715 -0.0300 -0.4169
  501MOL0     H67610   9.538   8.453   2.732 -0.1389 -1.0500  2.6213
  501MOL0     H67611   9.393   8.664   2.704  0.9116  1.5723 -1.9411
  501MOL0     H67612   9.468   8.595   2.570 -0.5692  0.8937 -0.2466
  501MOL0     H67613   9.176   8.581   2.645  2.1122  0.1398  1.5697
  501MOL0     H67614   9.237   8.484   2.519 -1.9209  0.5848 -0.5280
  501MOL0     H67615   9.334   8.737   2.441 -0.1484 -1.1404 -0.8257
  501MOL0     H67616   9.217   8.791   2.559  0.5175 -1.2779  0.3343
  501MOL0     H67617   9.420   8.022   3.329 -0.1228  2.6256 -3.3050
  501MOL0     H67618   9.496   7.820   3.431  0.6294 -2.8304  0.4450
  501MOL0     H67619   9.712   7.440   3.380  2.9405 -2.0863 -1.0215
  501MOL0     H67620   9.832   7.240   3.364 -0.4910  0.5074  1.3529
  501MOL0     H67621   9.007   6.233   4.499 -1.1792 -0.5705  2.3903
  501MOL0     H67622   8.804   6.331   4.596 -2.5378  3.8424  0.5280
  501MOL0     H67623   8.440   6.632   4.548  2.9346 -1.7144 -0.1670
  501MOL0     H67624   8.251   6.748   4.676 -1.1899 -1.5553  1.9601
  501MOL0     H67625   8.097   6.862   4.825 -0.7820  0.7440  0.0669
  501MOL0     H67626   8.093   6.687   4.887  0.6658  0.7648 -1.5444
  501MOL0     H67627   8.056   6.791   5.120  1.4684 -2.2503 -1.4674
  501MOL0     H67628   7.930   6.803   5.002  0.9338  0.3702 -0.8823
  501MOL0     H67629   8.013   7.036   4.947 -0.8367 -1.0771 -0.0958
  501MOL0     H67630   8.131   7.011   5.079  0.2566 -3.4493  1.2131
  501MOL0     H67631   7.958   6.976   5.244  0.1908  1.9983  0.8851
  501MOL0     H67632   7.832   6.991   5.125 -0.4121  0.3438  2.8520
  501MOL0     H67633   7.922   7.395   5.132 -2.5669 -1.2305 -0.4976
  501MOL0     H67634   8.463   6.732   5.034 -0.2994  0.2471  0.7102
  501MOL0     H67635   8.665   6.627   4.914 -0.2421  2.6243  1.4020
  502MOL0     O67636   2.498   0.978  10.060  0.8190  0.3323 -0.1061
  502MOL0     C67637   2.545   1.095  10.080  0.3144 -0.2608  0.5356
  502MOL0     O67638   2.672   1.131  10.104 -0.7134  0.1450  0.3179
  502MOL0     C67639   2.774   1.042  10.075  0.1053  0.0723  1.2140
  502MOL0     C67640   2.784   0.919  10.141  0.1401 -0.2783 -0.3411
  502MOL0     C67641   2.896   0.836  10.130 -0.7297 -0.6316  0.2237
  502MOL0     C67642   3.001   0.873  10.046 -0.0636 -0.1566  0.2501
  502MOL0     O67643   3.110   0.789  10.021 -0.1217 -0.1350 -0.0159
  502MOL0     C67644   3.080   0.649  10.027  0.1458 -0.2548  0.5781
  502MOL0     C67645   3.172   0.581   9.938  0.0881  0.1244 -0.4342
  502MOL0     C67646   3.207   0.654   9.808  0.4208  0.4610 -0.8294
  502MOL0     C67647   3.286   0.559   9.706  0.3201  1.1426 -0.2028
  502MOL0     C67648   3.363   0.621   9.601  0.9880  0.5372  0.6049
  502MOL0     C67649   3.267   0.684   9.492  1.0168 -0.7628 -0.6112
  502MOL0     C67650   3.320   0.794   9.399 -0.9148  0.3884 -0.2912
  502MOL0     C67651   3.311   0.932   9.466  0.0851  0.1707 -0.7951
  502MOL0     N67652   3.172   0.968   9.463  0.4765 -0.7434 -0.2211
  502MOL0     C67653   3.100   1.016   9.568  0.4001  0.9258 -0.6014
  502MOL0     C67654   2.965   1.020   9.542 -0.6745  0.0131  0.1337
  502MOL0     C67655   2.861   1.092   9.622 -1.0822  0.1440  0.2956
  502MOL0     C67656   2.745   1.005   9.653 -0.3405  0.2883 -1.2442
  502MOL0     C67657   2.641   1.098   9.722  0.3230  0.5432  0.1614
  502MOL0     C67658   2.510   1.033   9.749  0.1271  0.7271 -0.3913
  502MOL0     O67659   2.413   1.144   9.785  0.2554 -0.4300  0.4053
  502MOL0     C67660   2.292   1.121   9.836  0.2474  0.1945  0.4312
  502MOL0     C67661   2.243   1.000   9.882 -0.2237  0.3156  0.1546
  502MOL0     C67662   2.114   0.991   9.941 -0.7757  0.6162  0.4856
  502MOL0     C67663   2.072   0.860  10.005 -0.1509 -0.4507 -0.5609
  502MOL0     C67664   2.029   1.101   9.951 -0.7353 -0.3723 -0.5667
  502MOL0     C67665   1.893   1.092   9.998 -0.8020 -0.1545 -1.0019
  502MOL0     O67666   1.856   1.164  10.107 -0.0703 -0.5146  0.4383
  502MOL0     C67667   1.730   1.143  10.156  0.7852 -0.2004 -0.6561
  502MOL0     C67668   1.617   1.202  10.099 -0.6823  0.6240 -0.6158
  502MOL0     C67669   1.493   1.166  10.146 -0.1207 -1.0233  1.1733
  502MOL0     C67670   1.482   1.085  10.251 -1.5555  0.2386  0.1333
  502MOL0     O67671   1.362   1.047  10.303 -0.4405 -0.3745 -0.5261
  502MOL0     C67672   1.250   1.033  10.214  0.2437  0.6020 -0.5308
  502MOL0     C67673   1.141   0.970  10.295  0.0051  0.3220  0.5789
  502MOL0     C67674   1.018   0.931  10.211 -0.5786  0.5789  0.5699
  502MOL0     C67675   0.894   0.919  10.296  1.3651 -0.5446 -0.2398
  502MOL0     C67676   0.794   0.813  10.242 -0.0742  0.5746  0.2700
  502MOL0     C67677   0.796   0.684  10.319  0.5293  0.6604  0.6613
  502MOL0     C67678   0.928   0.609  10.317  0.0985 -0.7948  0.3820
  502MOL0     C67679   0.927   0.472  10.379  0.0572  0.1581 -0.0163
  502MOL0    Cl67680   0.897   0.429  10.553  0.7800  0.1673  0.4448
  502MOL0     C67681   1.597   1.027  10.307  0.2635 -0.9621  0.0226
  502MOL0     C67682   1.728   1.056  10.263  0.5821  0.1463 -0.4364
  502MOL0     O67683   1.825   1.005   9.941  0.0770 -0.5077  0.4726
  502MOL0     C67684   2.076   1.220   9.896  0.0251 -0.4640 -0.4934
  502MOL0     C67685   2.206   1.232   9.842 -0.5194 -0.2855 -0.7352
  502MOL0     N67686   2.955   0.971   9.413 -0.7751  0.3919 -0.0733
  502MOL0     N67687   3.076   0.940   9.368  0.4629  0.4491 -0.1037
  502MOL0     C67688   2.985   0.995   9.969 -0.4720 -0.1907 -0.0009
  502MOL0     C67689   2.869   1.068   9.980  0.4570 -0.5280  0.3891
  502MOL0     C67690   2.445   1.209  10.093  0.2209  0.0571  0.7654
  502MOL0     C67691   2.318   1.185  10.138  0.3587  0.2982 -0.1441
  502MOL0     C67692   2.224   1.284  10.162  0.0423 -0.0512 -0.1994
  502MOL0     C67693   2.260   1.418  10.138  0.0424 -0.5645 -0.3759
  502MOL0     O67694   2.176   1.533  10.137  0.0097 -0.9773  0.5666
  502MOL0     C67695   2.044   1.541  10.192 -0.0456  0.0793  0.6233
  502MOL0     C67696   1.933   1.525  10.094 -0.0568  0.3107 -0.0299
  502MOL0     C67697   1.939   1.650   9.999  0.4498 -0.1029  0.1232
  502MOL0     C67698   1.823   1.649   9.895 -0.2902 -0.4320  0.0161
  502MOL0     C67699   1.841   1.546   9.793 -0.4835 -0.1888  0.2921
  502MOL0     C67700   1.862   1.469   9.696  0.1843 -0.3408  0.0649
  502MOL0     C67701   2.392   1.447  10.108  0.4348  0.7559 -0.7979
  502MOL0     C67702   2.485   1.343  10.081 -1.1920 -0.6641  0.5855
  502MOL0     H67703   2.711   0.889  10.215  0.8348  1.2248  0.9971
  502MOL0     H67704   2.901   0.750  10.196  0.7339  0.1450  1.1829
  502MOL0     H67705   3.083   0.621  10.132  1.3176 -0.0406  0.6218
  502MOL0     H67706   2.981   0.634   9.984  0.4102 -1.6227  0.4046
  502MOL0     H67707   3.267   0.571   9.992 -1.6187 -1.6775  2.5348
  502MOL0     H67708   3.142   0.476   9.923 -0.8682  0.6202 -2.3682
  502MOL0     H67709   3.110   0.680   9.764  0.1956 -0.3622 -0.8350
  502MOL0     H67710   3.262   0.748   9.823  1.1354  0.9167 -5.1079
  502MOL0     H67711   3.350   0.493   9.764 -1.7353  0.1937  1.0885
  502MOL0     H67712   3.209   0.501   9.653 -0.8937  0.7348  1.9217
  502MOL0     H67713   3.426   0.697   9.648  0.2241  1.2893  0.4430
  502MOL0     H67714   3.417   0.537   9.556 -4.4302 -2.8556 -0.4981
  502MOL0     H67715   3.236   0.603   9.424  2.0798  0.1469 -2.2378
  502MOL0     H67716   3.169   0.713   9.532  1.4472  2.3689 -1.6240
  502MOL0     H67717   3.426   0.777   9.374 -0.4842 -1.1322  2.2839
  502MOL0     H67718   3.265   0.788   9.305 -1.6487  1.1256  0.0831
  502MOL0     H67719   3.366   1.011   9.413  0.4403  0.1435 -0.4753
  502MOL0     H67720   3.360   0.924   9.564  2.2329  0.4747 -1.8001
  502MOL0     H67721   3.147   1.057   9.656  0.8308  0.6889 -0.7190
  502MOL0     H67722   2.907   1.123   9.717  1.8994  3.2003 -1.9026
  502MOL0     H67723   2.834   1.179   9.562  1.0732  1.7582  1.5169
  502MOL0     H67724   2.777   0.912   9.699  3.6607  2.8908  1.9168
  502MOL0     H67725   2.711   0.974   9.554 -0.3218  0.2494 -1.2387
  502MOL0     H67726   2.622   1.178   9.650  1.3383 -1.1740 -2.1246
  502MOL0     H67727   2.682   1.145   9.812  0.5025  2.4101 -0.8259
  502MOL0     H67728   2.517   0.960   9.829 -3.0953  2.1394  1.3793
  502MOL0     H67729   2.471   0.987   9.657 -1.2119  1.6669 -0.3265
  502MOL0     H67730   2.304   0.915   9.853  1.8535  1.6200  0.4997
  502MOL0     H67731   2.046   0.885  10.109 -2.7913 -1.1672 -0.9880
  502MOL0     H67732   1.988   0.804   9.964  0.7473 -2.2500 -0.0582
  502MOL0     H67733   2.152   0.786  10.017 -1.8103 -3.0706 -4.1488
  502MOL0     H67734   1.629   1.269  10.015 -1.4234  0.7905 -0.6006
  502MOL0     H67735   1.404   1.204  10.097 -0.3462 -0.8037  1.7413
  502MOL0     H67736   1.217   1.135  10.190 -2.6167  1.0075  3.9143
  502MOL0     H67737   1.268   0.964  10.132  1.4093  1.6419 -1.1881
  502MOL0     H67738   1.179   0.880  10.345 -0.4317  0.7081  1.6408
  502MOL0     H67739   1.114   1.047  10.367  1.6116  0.6949  0.8083
  502MOL0     H67740   1.044   0.833  10.169  0.3366  0.7960  0.6037
  502MOL0     H67741   0.995   0.999  10.128  0.1665  0.1982  0.0320
  502MOL0     H67742   0.909   0.904  10.403 -0.1150  0.4623  0.1398
  502MOL0     H67743   0.837   1.012  10.293  2.2095 -0.0133 -0.1025
  502MOL0     H67744   0.807   0.800  10.134 -0.0174  2.1334  0.0732
  502MOL0     H67745   0.692   0.847  10.260  0.3008  2.2354 -0.5579
  502MOL0     H67746   0.760   0.709  10.419 -0.2853  0.4027  0.4413
  502MOL0     H67747   0.714   0.620  10.285 -0.0181  2.5525 -1.8821
  502MOL0     H67748   0.995   0.676  10.370 -1.2717  0.9713 -0.0372
  502MOL0     H67749   0.964   0.592  10.215 -0.0080  4.6516 -0.8479
  502MOL0     H67750   1.027   0.433  10.356 -1.1676 -2.1711 -1.8495
  502MOL0     H67751   0.852   0.418  10.321  1.4858  0.3193 -2.1251
  502MOL0     H67752   1.577   0.965  10.394 -0.3399 -3.3875 -1.7353
  502MOL0     H67753   1.817   1.009  10.303  1.0307 -2.2777 -3.8260
  502MOL0     H67754   2.007   1.303   9.901  0.3328 -0.2420  3.5237
  502MOL0     H67755   2.240   1.327   9.804  0.7238 -0.1696  0.5661
  502MOL0     H67756   3.070   1.023   9.907 -1.3823  0.7851 -0.8596
  502MOL0     H67757   2.851   1.157   9.921  2.1420 -2.2693 -3.0247
  502MOL0     H67758   2.284   1.085  10.161  1.5645  0.0681  0.7061
  502MOL0     H67759   2.123   1.277  10.203  0.3362  2.9628  1.3009
  502MOL0     H67760   2.031   1.463  10.267  1.7667  0.8544  1.8124
  502MOL0     H67761   2.030   1.636  10.244 -1.2784  1.4459 -2.0202
  502MOL0     H67762   1.839   1.523  10.149  0.1787 -0.4813  0.3504
  502MOL0     H67763   1.951   1.429  10.045 -2.7957 -1.0638  1.4435
  502MOL0     H67764   2.029   1.653   9.936  0.5169  0.0318  0.2236
  502MOL0     H67765   1.946   1.739  10.063  1.9041 -0.7538  0.9394
  502MOL0     H67766   1.804   1.747   9.851 -0.4448 -0.8256 -0.8142
  502MOL0     H67767   1.731   1.624   9.948 -1.8647  3.9327 -0.2753
  502MOL0     H67768   1.875   1.408   9.608  1.1319 -0.0808  0.0174
  502MOL0     H67769   2.426   1.548  10.084 -0.2399  0.1225 -5.2693
  502MOL0     H67770   2.588   1.368  10.057 -1.4332 -0.8819 -0.7438
  503MOL0     O67771  10.592   2.319   0.019 -0.5994  0.4640  0.5604
  503MOL0     C67772  10.576   2.407   0.095 -1.2225  0.1904  0.0645
  503MOL0     O67773  10.451   2.471   0.114 -0.1200  0.4668 -0.4102
  503MOL0     C67774  10.336   2.425   0.042 -0.9583  0.8293 -0.3183
  503MOL0     C67775  10.318   2.289   0.011  0.2143  0.1799 -0.2979
  503MOL0     C67776  10.191   2.243  -0.023 -0.7569  0.0604  0.2227
  503MOL0     C67777  10.092   2.333  -0.059  0.2602  0.0264  0.1417
  503MOL0     O67778   9.987   2.280  -0.133  0.9166  0.1821 -0.6150
  503MOL0     C67779   9.926   2.169  -0.073  0.0532  0.6661 -0.3266
  503MOL0     C67780   9.795   2.113  -0.141  0.0860  0.0993 -0.8425
  503MOL0     C67781   9.816   2.050  -0.275 -0.0510  0.4580  0.5193
  503MOL0     C67782   9.696   2.057  -0.368 -1.7137 -0.4415  0.3654
  503MOL0     C67783   9.564   2.001  -0.319 -0.0355  0.1618  0.2095
  503MOL0     C67784   9.577   1.851  -0.310  0.2993  0.4325 -0.0695
  503MOL0     C67785   9.457   1.771  -0.258 -0.1104  0.0992  0.0828
  503MOL0     C67786   9.333   1.765  -0.361  0.0321  0.1550 -0.4853
  503MOL0     N67787   9.207   1.737  -0.297  1.4362 -0.0586 -0.5162
  503MOL0     C67788   9.175   1.625  -0.226  0.4597 -0.2377  0.0457
  503MOL0     C67789   9.045   1.643  -0.193 -0.0227  0.6938  0.8700
  503MOL0     C67790   8.968   1.554  -0.097 -0.1792  0.1441  0.1728
  503MOL0     C67791   8.932   1.418  -0.158  0.3700 -0.0704  0.4723
  503MOL0     C67792   8.813   1.340  -0.096 -0.9998 -0.4582  0.4156
  503MOL0     C67793   8.762   1.236  -0.198 -0.2404  0.1344 -0.3648
  503MOL0     O67794   8.639   1.277  -0.258  0.3648  0.0760 -0.4239
  503MOL0     C67795   8.516   1.212  -0.236 -0.1262 -0.1784  0.0726
  503MOL0     C67796   8.493   1.102  -0.154  0.3704 -0.2759 -0.8403
  503MOL0     C67797   8.356   1.071  -0.121 -0.5261  0.0330  0.0678
  503MOL0     C67798   8.321   0.962  -0.016 -0.0987  0.0113 -0.2739
  503MOL0     C67799   8.249   1.122  -0.201  0.2122 -0.1516 -0.3764
  503MOL0     C67800   8.112   1.086  -0.197  0.4131 -0.9465  0.0540
  503MOL0     O67801   8.019   1.182  -0.230 -0.2557  0.1631 -0.6627
  503MOL0     C67802   7.888   1.140  -0.223 -0.4419 -0.2758 -0.3379
  503MOL0     C67803   7.817   1.146  -0.103  0.4926  0.3423 -1.0132
  503MOL0     C67804   7.686   1.089  -0.097 -0.2060 -0.0691  0.4551
  503MOL0     C67805   7.622   1.056  -0.222  0.3142 -0.8315  0.0363
  503MOL0     O67806   7.492   1.009  -0.231  0.5731 -0.2657  0.4767
  503MOL0     C67807   7.409   0.972  -0.129  0.2507 -0.4397 -0.2161
  503MOL0     C67808   7.280   0.906  -0.197  0.4127 -0.4689  0.7766
  503MOL0     C67809   7.156   0.922  -0.112  0.5472  0.7931 -0.1575
  503MOL0     C67810   7.032   0.840  -0.165 -0.2672  1.0682  0.5354
  503MOL0     C67811   6.920   0.846  -0.062 -0.8026  0.5229  1.0343
  503MOL0     C67812   6.776   0.790  -0.095  0.4077 -0.1245  0.5142
  503MOL0     C67813   6.783   0.635  -0.118  0.3056 -0.6265 -0.3829
  503MOL0     C67814   6.649   0.561  -0.079 -0.7944  0.0136  0.2458
  503MOL0    Cl67815   6.649   0.522   0.102 -0.1817  0.4886  0.9770
  503MOL0     C67816   7.693   1.042  -0.340  0.2574  0.5517 -0.9048
  503MOL0     C67817   7.825   1.085  -0.340  0.5744  0.6426  1.2070
  503MOL0     O67818   8.085   0.968  -0.174 -0.1860 -0.3628  0.3234
  503MOL0     C67819   8.286   1.219  -0.300  1.0230 -0.0975 -0.8673
  503MOL0     C67820   8.414   1.260  -0.323 -1.2327  0.4538  0.5222
  503MOL0     N67821   9.002   1.763  -0.231  0.8153 -0.8205 -0.0615
  503MOL0     N67822   9.101   1.822  -0.299  0.4608 -0.3359  0.1441
  503MOL0     C67823  10.107   2.465  -0.027  0.6173  0.2722 -0.0883
  503MOL0     C67824  10.228   2.511   0.022 -0.4816  0.1947 -0.3840
  503MOL0     C67825  10.691   2.456   0.184 -1.1868  1.1153  0.0019
  503MOL0     C67826  10.658   2.517   0.303 -0.1534 -0.4920  0.0284
  503MOL0     C67827  10.757   2.576   0.389 -1.3372  0.6353  1.0933
  503MOL0     C67828  10.899   2.563   0.358  0.9327  1.0905  0.7879
  503MOL0     O67829  10.995   2.594   0.450 -0.7390  0.8452  1.1240
  503MOL0     C67830  11.061   2.715   0.429 -0.3139  0.4133 -0.0212
  503MOL0     C67831  11.211   2.707   0.476 -0.3633  0.5485 -0.3561
  503MOL0     C67832  11.274   2.846   0.447  0.4228  0.7819  0.0276
  503MOL0     C67833  11.428   2.864   0.453  1.1502  0.5988  0.0752
  503MOL0     C67834  11.481   2.757   0.364 -0.8510  0.6835  0.5769
  503MOL0     C67835  11.527   2.668   0.292  0.1054  0.1328 -0.5517
  503MOL0     C67836  10.924   2.483   0.238 -0.0131  0.4710  0.2368
  503MOL0     C67837  10.824   2.445   0.148  0.0342  0.3796 -0.3359
  503MOL0     H67838  10.398   2.216   0.020  1.6010  1.2323 -3.0068
  503MOL0     H67839  10.192   2.136  -0.044 -2.4341 -0.2124  1.3932
  503MOL0     H67840   9.998   2.087  -0.079  0.9702  1.2330  1.9665
  503MOL0     H67841   9.901   2.204   0.028  2.0522 -0.8540  0.7494
  503MOL0     H67842   9.750   2.030  -0.086 -1.8481  1.1586 -0.7224
  503MOL0     H67843   9.725   2.196  -0.159 -0.5665 -0.6958 -2.1252
  503MOL0     H67844   9.901   2.090  -0.332 -1.8914  0.2519 -2.6325
  503MOL0     H67845   9.849   1.946  -0.269  0.9601  0.5998 -1.4960
  503MOL0     H67846   9.692   2.163  -0.396  1.0121 -0.4522 -0.3639
  503MOL0     H67847   9.734   2.006  -0.457 -0.2543  2.0336 -0.5415
  503MOL0     H67848   9.533   2.053  -0.227  1.1266  1.9933 -0.3709
  503MOL0     H67849   9.487   2.031  -0.391  1.7599  1.5424 -1.2170
  503MOL0     H67850   9.591   1.806  -0.409  0.9105 -2.6800  1.2918
  503MOL0     H67851   9.663   1.831  -0.247 -0.0453  2.1736  1.0035
  503MOL0     H67852   9.484   1.667  -0.241 -0.9612 -0.3141 -0.9535
  503MOL0     H67853   9.424   1.831  -0.173 -0.2874  1.8067 -1.1307
  503MOL0     H67854   9.371   1.704  -0.444  1.7056  0.9464 -0.3292
  503MOL0     H67855   9.313   1.857  -0.418 -1.3606  0.3598  0.2766
  503MOL0     H67856   9.238   1.543  -0.195  0.9957 -0.3096 -1.1584
  503MOL0     H67857   9.029   1.551  -0.006  0.3550 -2.0914 -0.2114
  503MOL0     H67858   8.868   1.597  -0.086 -0.2124  0.6690 -1.8968
  503MOL0     H67859   9.018   1.350  -0.165 -1.7699 -2.8644 -0.3561
  503MOL0     H67860   8.907   1.436  -0.263  2.6142  1.2675  0.0956
  503MOL0     H67861   8.728   1.408  -0.088 -2.6550 -2.2540 -1.0649
  503MOL0     H67862   8.842   1.306   0.005  1.9301 -2.1599 -0.8434
  503MOL0     H67863   8.771   1.135  -0.157  1.3714  1.4886  2.9751
  503MOL0     H67864   8.841   1.223  -0.273 -0.5397 -3.4686 -0.2368
  503MOL0     H67865   8.571   1.064  -0.089 -0.9790 -0.6656  0.6364
  503MOL0     H67866   8.316   0.863  -0.062 -0.2018 -0.5963  1.0018
  503MOL0     H67867   8.388   0.964   0.070 -0.8259  0.3673  0.2970
  503MOL0     H67868   8.233   0.978   0.047  0.8023  0.5069  0.8884
  503MOL0     H67869   7.871   1.166  -0.011  0.7164  2.8399 -1.6176
  503MOL0     H67870   7.629   1.093  -0.004  3.1186 -0.8015  2.7208
  503MOL0     H67871   7.460   0.898  -0.067 -0.8966 -3.2041 -2.4017
  503MOL0     H67872   7.381   1.064  -0.076 -1.1088  0.6340 -2.6374
  503MOL0     H67873   7.265   0.940  -0.300 -2.3333 -0.8406  0.9975
  503MOL0     H67874   7.291   0.797  -0.193 -1.1136 -0.6432  0.5759
  503MOL0     H67875   7.129   1.028  -0.102  0.1990  0.5219  3.2686
  503MOL0     H67876   7.171   0.878  -0.013 -0.6628 -0.0683 -0.3420
  503MOL0     H67877   6.999   0.889  -0.257  1.5505  0.0313 -0.7329
  503MOL0     H67878   7.057   0.742  -0.207 -1.8838  1.3609 -1.2474
  503MOL0     H67879   6.906   0.952  -0.037  2.1872  0.9968  1.0466
  503MOL0     H67880   6.959   0.792   0.024  1.4583 -0.1910 -0.3401
  503MOL0     H67881   6.699   0.807  -0.019 -0.3753  1.0098 -0.4863
  503MOL0     H67882   6.736   0.843  -0.183 -0.2267  0.8145  1.3424
  503MOL0     H67883   6.863   0.594  -0.055 -1.6929 -1.3934  1.8394
  503MOL0     H67884   6.811   0.628  -0.223  0.4663  1.3973 -0.5018
  503MOL0     H67885   6.631   0.468  -0.133  1.0014 -0.7147  0.8319
  503MOL0     H67886   6.566   0.628  -0.104 -0.9780  0.5948  2.2162
  503MOL0     H67887   7.642   0.994  -0.423 -2.8466 -0.9753  1.6361
  503MOL0     H67888   7.890   1.068  -0.425  0.2934  1.2953  0.8587
  503MOL0     H67889   8.202   1.269  -0.347  2.7437  2.4965 -1.4461
  503MOL0     H67890   8.435   1.343  -0.389 -0.1020 -0.7747 -0.7111
  503MOL0     H67891  10.036   2.548  -0.034  1.9894  2.1999  4.5435
  503MOL0     H67892  10.238   2.613   0.059 -0.5032  0.0226  0.1054
  503MOL0     H67893  10.555   2.538   0.331 -0.4758 -2.4188  0.4684
  503MOL0     H67894  10.718   2.633   0.473 -1.7056  0.0312  1.3420
  503MOL0     H67895  11.061   2.741   0.323 -0.2228 -0.4857 -0.2496
  503MOL0     H67896  11.004   2.787   0.488  1.6114  0.8832  1.3997
  503MOL0     H67897  11.253   2.630   0.412 -1.6904  0.3620 -1.0303
  503MOL0     H67898  11.234   2.685   0.581  3.3104 -0.7393 -1.2751
  503MOL0     H67899  11.237   2.907   0.530  2.2458 -1.6085  2.8031
  503MOL0     H67900  11.228   2.894   0.360 -0.2456 -1.9930 -1.2596
  503MOL0     H67901  11.472   2.861   0.553  2.4778 -1.8240 -0.5013
  503MOL0     H67902  11.458   2.957   0.405 -0.8041 -0.0921 -2.7606
  503MOL0     H67903  11.551   2.585   0.229  4.8159  0.4885  0.4675
  503MOL0     H67904  11.026   2.470   0.203 -1.0846 -1.2644 -2.5687
  503MOL0     H67905  10.863   2.404   0.055 -1.2615  0.8495 -1.0987
  504MOL0     O67906   0.995   7.431   9.364  0.3996  0.3260 -0.3780
  504MOL0     C67907   1.069   7.508   9.300 -0.5394  0.0246  0.3345
  504MOL0     O67908   1.074   7.528   9.170  0.3489  0.5216  0.8790
  504MOL0     C67909   0.981   7.462   9.094  0.1323 -0.4823  0.9988
  504MOL0     C67910   0.881   7.531   9.039  1.0665  0.4512 -0.8838
  504MOL0     C67911   0.798   7.474   8.939 -0.0645  0.1030  0.4730
  504MOL0     C67912   0.824   7.342   8.890 -0.6222 -0.6424 -0.1435
  504MOL0     O67913   0.781   7.297   8.769  0.4004 -0.2502 -0.0786
  504MOL0     C67914   0.648   7.250   8.785  1.1703 -0.0017  0.3994
  504MOL0     C67915   0.591   7.129   8.700 -0.0885 -0.5812  0.9117
  504MOL0     C67916   0.440   7.094   8.730  0.4923 -0.3089 -0.7363
  504MOL0     C67917   0.337   7.188   8.669 -0.9314 -0.3571  0.0280
  504MOL0     C67918   0.198   7.133   8.657  0.2603  0.1318 -1.0521
  504MOL0     C67919   0.181   7.002   8.583 -0.5507 -1.2542  0.7503
  504MOL0     C67920   0.047   6.990   8.530 -0.1007  0.1019  0.3339
  504MOL0     C67921   0.034   6.880   8.420 -0.0570  0.2789  0.6339
  504MOL0     N67922  -0.085   6.902   8.333 -0.1016  0.2211 -0.5287
  504MOL0     C67923  -0.114   6.828   8.220 -0.1886 -0.4472  0.6706
  504MOL0     C67924  -0.199   6.906   8.151 -0.6594  0.3454  0.4959
  504MOL0     C67925  -0.254   6.858   8.017  0.1699  0.0954 -0.2006
  504MOL0     C67926  -0.346   6.737   8.041  0.2290 -0.6320 -0.5420
  504MOL0     C67927  -0.456   6.772   8.137  0.1098  0.7099  0.0483
  504MOL0     C67928  -0.560   6.881   8.099 -0.3633 -0.4369  1.0001
  504MOL0     O67929  -0.600   6.879   7.959 -0.0078  0.5645  0.4204
  504MOL0     C67930  -0.702   6.800   7.914 -0.2731  0.3040  0.5636
  504MOL0     C67931  -0.749   6.826   7.789  0.8388 -0.0409  0.6275
  504MOL0     C67932  -0.862   6.772   7.740 -0.7616  0.8746  0.7099
  504MOL0     C67933  -0.910   6.808   7.606 -0.6390  0.6078  0.4648
  504MOL0     C67934  -0.931   6.671   7.813  0.0958 -0.6046 -0.8443
  504MOL0     C67935  -1.073   6.611   7.774  0.3997 -0.2724 -0.9961
  504MOL0     O67936  -1.115   6.501   7.845  0.8777  1.1332 -0.0456
  504MOL0     C67937  -1.234   6.434   7.804 -1.1894 -0.0770 -0.0751
  504MOL0     C67938  -1.335   6.437   7.895 -0.3490  0.3073 -1.2903
  504MOL0     C67939  -1.446   6.367   7.862  0.4935 -0.1250  0.3029
  504MOL0     C67940  -1.462   6.297   7.737 -0.4747 -0.4088  0.2150
  504MOL0     O67941  -1.564   6.222   7.706  0.0093  0.5100  0.7942
  504MOL0     C67942  -1.687   6.246   7.769 -0.7946  0.2719 -0.7888
  504MOL0     C67943  -1.805   6.225   7.677  0.0708 -0.3749  0.0990
  504MOL0     C67944  -1.807   6.090   7.613 -0.0451  0.6959 -0.3619
  504MOL0     C67945  -1.885   5.979   7.693 -0.0207 -0.3719  0.1505
  504MOL0     C67946  -1.818   5.905   7.810  0.3062 -0.1414 -0.5011
  504MOL0     C67947  -1.701   5.815   7.755  0.0804 -0.2119  0.7009
  504MOL0     C67948  -1.613   5.759   7.866  0.6908  0.4847  0.3842
  504MOL0     C67949  -1.668   5.673   7.986  0.0239  0.6308  0.2640
  504MOL0    Cl67950  -1.769   5.541   7.917  0.2135  0.5741 -0.4664
  504MOL0     C67951  -1.356   6.292   7.658 -0.7521 -0.1665  0.3700
  504MOL0     C67952  -1.238   6.369   7.685  0.2102  0.1468  0.0359
  504MOL0     O67953  -1.147   6.677   7.704  0.5236 -0.2691  0.5070
  504MOL0     C67954  -0.872   6.628   7.931 -0.4131  0.2926 -0.0450
  504MOL0     C67955  -0.771   6.710   7.993 -0.0889 -0.5288  1.0220
  504MOL0     N67956  -0.228   7.022   8.214 -0.5750  0.6768 -0.1036
  504MOL0     N67957  -0.159   7.023   8.331 -0.2014 -0.0348  0.0343
  504MOL0     C67958   0.920   7.270   8.957 -1.1005 -0.1169  0.6675
  504MOL0     C67959   0.995   7.325   9.055  0.5234 -0.1191 -0.0891
  504MOL0     C67960   1.173   7.575   9.382 -0.2054 -0.8668 -0.1021
  504MOL0     C67961   1.138   7.622   9.512  0.1859  0.2698  0.7060
  504MOL0     C67962   1.223   7.701   9.582 -0.9510  0.7547 -0.0563
  504MOL0     C67963   1.346   7.727   9.532 -0.1556 -0.0758 -0.0981
  504MOL0     O67964   1.421   7.806   9.620  0.3306 -0.1298  0.0032
  504MOL0     C67965   1.516   7.897   9.554  0.1431 -0.0970 -0.2559
  504MOL0     C67966   1.546   8.015   9.651  0.0826  0.4171  0.6285
  504MOL0     C67967   1.414   8.090   9.672 -0.4523  0.8343 -0.1769
  504MOL0     C67968   1.398   8.222   9.597  0.5849  0.0016 -0.2102
  504MOL0     C67969   1.332   8.198   9.470 -0.6898 -0.7122  0.4436
  504MOL0     C67970   1.275   8.178   9.367  1.0814  0.3697 -0.4170
  504MOL0     C67971   1.388   7.682   9.399  0.3874 -0.4078 -0.8430
  504MOL0     C67972   1.298   7.604   9.329  0.2702 -1.0411  0.0119
  504MOL0     H67973   0.855   7.631   9.074 -2.2499 -0.9897  1.3016
  504MOL0     H67974   0.725   7.536   8.888  0.7532  1.1822  0.5659
  504MOL0     H67975   0.618   7.213   8.883  0.6913 -0.4554  0.0835
  504MOL0     H67976   0.580   7.335   8.777 -1.4087 -1.9666  0.2076
  504MOL0     H67977   0.621   7.139   8.595  0.6180  0.8053  1.2333
  504MOL0     H67978   0.653   7.045   8.734  0.4621 -1.1127 -1.2512
  504MOL0     H67979   0.419   6.995   8.688  2.7166 -0.7859 -0.8273
  504MOL0     H67980   0.420   7.089   8.837 -2.5068  2.2618 -1.0361
  504MOL0     H67981   0.338   7.280   8.728 -2.7353 -0.9136  1.0251
  504MOL0     H67982   0.372   7.214   8.569 -1.4762  1.1570  0.2077
  504MOL0     H67983   0.165   7.110   8.759 -1.1615  2.3282 -0.9203
  504MOL0     H67984   0.124   7.206   8.621  0.0054  0.1023 -0.6005
  504MOL0     H67985   0.241   6.996   8.492 -2.6818 -1.7569 -0.6883
  504MOL0     H67986   0.218   6.923   8.650  2.9125 -0.7906 -0.3682
  504MOL0     H67987  -0.028   6.976   8.608 -2.8997 -2.5356 -2.5336
  504MOL0     H67988   0.013   7.087   8.491 -1.3610  0.1840  1.5712
  504MOL0     H67989   0.022   6.781   8.466  1.0527  1.0064  2.5769
  504MOL0     H67990   0.123   6.886   8.357 -0.4113 -2.5038 -0.2724
  504MOL0     H67991  -0.074   6.736   8.176 -1.9308 -0.3633 -1.2604
  504MOL0     H67992  -0.305   6.937   7.962  3.0302  2.6500  0.5370
  504MOL0     H67993  -0.162   6.830   7.964 -0.2938 -0.9463 -0.4780
  504MOL0     H67994  -0.302   6.648   8.085  0.7444 -0.3407 -0.4656
  504MOL0     H67995  -0.385   6.690   7.950  0.1815  1.5588 -1.7275
  504MOL0     H67996  -0.422   6.800   8.237 -0.9569 -1.9186  1.2295
  504MOL0     H67997  -0.509   6.682   8.169  0.4011  0.8548  0.9886
  504MOL0     H67998  -0.502   6.972   8.113  0.2875 -0.9710  1.8816
  504MOL0     H67999  -0.644   6.888   8.168  0.8146  2.3168  2.3084
  504MOL0     H68000  -0.706   6.907   7.731  3.9349 -2.5753 -0.9618
  504MOL0     H68001  -0.830   6.862   7.554 -0.6057  1.2379  1.1576
  504MOL0     H68002  -0.947   6.720   7.552 -1.1381 -0.8183  2.9516
  504MOL0     H68003  -0.991   6.877   7.629 -1.2659 -0.0717  0.3189
  504MOL0     H68004  -1.328   6.496   7.986 -2.9822  1.3254 -1.6588
  504MOL0     H68005  -1.537   6.375   7.921  0.7565  0.0410  0.6881
  504MOL0     H68006  -1.695   6.178   7.853 -3.0433  0.5892 -0.6709
  504MOL0     H68007  -1.690   6.347   7.811 -0.1592 -0.6290  1.5870
  504MOL0     H68008  -1.899   6.261   7.718  0.1300  0.4770 -0.4888
  504MOL0     H68009  -1.787   6.299   7.598 -1.4761 -2.0089 -1.9014
  504MOL0     H68010  -1.701   6.072   7.595  0.1847  2.4066 -0.9289
  504MOL0     H68011  -1.858   6.098   7.517 -0.0780 -1.4688 -0.5699
  504MOL0     H68012  -1.982   6.009   7.731 -1.2521 -3.1543 -0.5412
  504MOL0     H68013  -1.905   5.898   7.621  0.1829  0.1369 -0.4925
  504MOL0     H68014  -1.891   5.848   7.869  3.1947 -1.1767  2.4085
  504MOL0     H68015  -1.781   5.980   7.881 -0.2911 -1.6117  1.4735
  504MOL0     H68016  -1.732   5.735   7.686  1.2309 -1.0325  1.0997
  504MOL0     H68017  -1.636   5.870   7.687 -0.4801 -0.2243  0.1429
  504MOL0     H68018  -1.574   5.854   7.904 -0.7407  2.5431 -2.8353
  504MOL0     H68019  -1.529   5.709   7.816 -0.0153  1.7262 -2.2279
  504MOL0     H68020  -1.729   5.724   8.061 -1.1457  0.0711 -0.2777
  504MOL0     H68021  -1.583   5.636   8.045 -0.3780  0.4022  0.7038
  504MOL0     H68022  -1.367   6.229   7.571  1.4973  0.1379 -0.2017
  504MOL0     H68023  -1.153   6.378   7.618 -2.1879  2.4514 -3.0390
  504MOL0     H68024  -0.910   6.545   7.989 -1.8544  1.2541  0.4354
  504MOL0     H68025  -0.747   6.686   8.096  1.8515 -0.5325  0.6095
  504MOL0     H68026   0.942   7.169   8.922  1.8969  0.8507 -0.5881
  504MOL0     H68027   1.076   7.275   9.108  2.2698  3.2699  0.7709
  504MOL0     H68028   1.035   7.598   9.535  0.5499 -0.7809  1.2887
  504MOL0     H68029   1.201   7.739   9.681 -0.9184 -0.6679  0.5094
  504MOL0     H68030   1.614   7.852   9.533  1.4465  2.5283 -0.2631
  504MOL0     H68031   1.470   7.937   9.463 -0.1584 -0.6018 -0.3263
  504MOL0     H68032   1.628   8.078   9.615  2.2156 -2.2753  0.5245
  504MOL0     H68033   1.587   7.972   9.743  2.2455  1.7780  0.3700
  504MOL0     H68034   1.417   8.121   9.777  1.1963  0.4792 -0.0865
  504MOL0     H68035   1.322   8.032   9.663 -1.3043  1.8891  1.3245
  504MOL0     H68036   1.489   8.282   9.587  0.0382  1.5092  2.7045
  504MOL0     H68037   1.337   8.288   9.659  2.6479 -0.2503  2.2367
  504MOL0     H68038   1.224   8.152   9.276  0.6786  0.0465 -0.1037
  504MOL0     H68039   1.482   7.722   9.361  0.4965  1.8817  1.5356
  504MOL0     H68040   1.314   7.558   9.233  1.3820 -2.4377  0.8270
  505MOL0     O68041   6.475   5.757   3.681 -0.9528 -0.4794  0.8645
  505MOL0     C68042   6.574   5.800   3.744 -0.4417 -0.6397 -0.4672
  505MOL0     O68043   6.667   5.877   3.702  0.3657  0.1336 -0.8713
  505MOL0     C68044   6.667   5.918   3.571 -0.7391  0.2225 -0.2969
  505MOL0     C68045   6.571   6.001   3.523  0.7756  0.5837 -0.9794
  505MOL0     C68046   6.580   6.047   3.394 -0.0509  0.1541  1.1919
  505MOL0     C68047   6.683   6.004   3.304 -0.0919 -0.4340  1.2691
  505MOL0     O68048   6.708   6.049   3.179 -0.5430  0.1814  0.9973
  505MOL0     C68049   6.586   6.116   3.136 -0.6686 -0.8626  0.2085
  505MOL0     C68050   6.600   6.152   2.989 -0.5630  0.0312 -0.0367
  505MOL0     C68051   6.617   6.020   2.904  0.1145  0.1983  0.3059
  505MOL0     C68052   6.571   6.052   2.763  0.3556 -0.7500 -0.3293
  505MOL0     C68053   6.551   5.941   2.660 -1.4676 -0.6615 -0.3599
  505MOL0     C68054   6.490   5.998   2.526 -0.2698  0.5596 -0.4198
  505MOL0     C68055   6.612   6.032   2.439 -0.0809 -0.0680  0.5351
  505MOL0     C68056   6.562   6.112   2.311 -0.0796  0.3192 -0.7536
  505MOL0     N68057   6.470   6.027   2.226  0.0145  0.2185 -0.1946
  505MOL0     C68058   6.330   6.038   2.230 -0.0568  0.1719 -0.1859
  505MOL0     C68059   6.291   5.981   2.114  0.2093  0.2786 -0.1143
  505MOL0     C68060   6.144   5.961   2.064 -0.0858 -0.0122 -0.8043
  505MOL0     C68061   6.138   5.887   1.925  0.1964  0.1589  0.0746
  505MOL0     C68062   5.989   5.862   1.891  0.8211  0.3127  0.4083
  505MOL0     C68063   5.968   5.759   1.788 -0.2586  1.1672  0.0983
  505MOL0     O68064   6.002   5.630   1.860  0.8723  0.5711  0.4215
  505MOL0     C68065   5.963   5.511   1.808 -0.7075 -0.3822 -0.1938
  505MOL0     C68066   5.860   5.496   1.713  0.2453 -0.7458 -0.5648
  505MOL0     C68067   5.829   5.364   1.668 -0.5905 -0.0994 -0.4706
  505MOL0     C68068   5.714   5.365   1.576 -0.3616 -0.2941 -0.1212
  505MOL0     C68069   5.901   5.245   1.696 -0.1501  0.0706  0.3873
  505MOL0     C68070   5.877   5.112   1.646  0.7989 -0.7145  1.0557
  505MOL0     O68071   5.882   5.009   1.729  0.4808  0.7887  0.2981
  505MOL0     C68072   5.887   4.886   1.661 -1.2255 -0.1684 -0.0935
  505MOL0     C68073   5.999   4.850   1.588 -0.0690  0.9371 -0.1630
  505MOL0     C68074   6.008   4.735   1.513 -0.3629 -0.4372  0.0464
  505MOL0     C68075   5.905   4.635   1.524 -0.3826 -0.5577  0.6664
  505MOL0     O68076   5.929   4.528   1.452  0.1788  0.7835 -0.2612
  505MOL0     C68077   5.884   4.527   1.315 -0.2875 -0.5053  0.0572
  505MOL0     C68078   5.939   4.406   1.246  0.7388  0.0998 -0.5078
  505MOL0     C68079   5.888   4.396   1.094  1.0495  0.2731 -0.0171
  505MOL0     C68080   5.768   4.294   1.069  0.3915 -0.1640  0.1115
  505MOL0     C68081   5.773   4.255   0.926  0.0414  0.5979 -0.3802
  505MOL0     C68082   5.666   4.145   0.895 -0.7619  0.0726  0.1029
  505MOL0     C68083   5.520   4.195   0.888 -0.0713  0.4051 -0.0896
  505MOL0     C68084   5.439   4.076   0.914  0.5598  0.1672  0.4505
  505MOL0    Cl68085   5.428   4.056   1.097  0.3418 -0.4262 -0.2298
  505MOL0     C68086   5.793   4.673   1.606 -0.0152  0.0153  0.5157
  505MOL0     C68087   5.790   4.791   1.673  0.9800  0.3000  0.0590
  505MOL0     O68088   5.872   5.100   1.522 -0.3216 -0.0891  0.4596
  505MOL0     C68089   6.010   5.273   1.780  0.2965  0.0214  0.1741
  505MOL0     C68090   6.031   5.395   1.847 -0.1374  0.3020  0.1964
  505MOL0     N68091   6.397   5.918   2.056 -0.7507 -0.1226  0.7703
  505MOL0     N68092   6.505   5.942   2.123  1.3061 -0.4995  0.1356
  505MOL0     C68093   6.774   5.912   3.360  0.3108  0.0901  0.7566
  505MOL0     C68094   6.778   5.881   3.498  0.3512  0.9105 -0.3884
  505MOL0     C68095   6.585   5.758   3.886 -0.3697  1.3886  1.7867
  505MOL0     C68096   6.530   5.633   3.929 -0.3343 -0.5179 -0.5362
  505MOL0     C68097   6.555   5.584   4.062  0.4302  0.1191 -0.2777
  505MOL0     C68098   6.652   5.656   4.143  0.6642  0.6337  0.3670
  505MOL0     O68099   6.701   5.620   4.268  0.5922  0.0436 -0.2853
  505MOL0     C68100   6.641   5.505   4.331  0.4768 -0.1945 -0.1081
  505MOL0     C68101   6.498   5.525   4.378  0.5986 -0.5509  0.3720
  505MOL0     C68102   6.497   5.643   4.475  0.5885  0.4742 -0.0170
  505MOL0     C68103   6.352   5.674   4.523 -0.0913  0.4346  0.0280
  505MOL0     C68104   6.362   5.801   4.597  0.0998  0.6778 -0.2240
  505MOL0     C68105   6.364   5.900   4.661 -0.3524 -0.7168  0.5686
  505MOL0     C68106   6.705   5.775   4.092  0.5569 -0.5178  0.1911
  505MOL0     C68107   6.667   5.835   3.970 -0.8560 -0.8680  0.3686
  505MOL0     H68108   6.493   6.023   3.596  2.0623 -0.3781  0.7646
  505MOL0     H68109   6.500   6.116   3.367 -0.3403 -1.4248 -2.6146
  505MOL0     H68110   6.498   6.056   3.158 -0.3659 -1.7247 -0.8552
  505MOL0     H68111   6.600   6.214   3.184  2.5634 -0.5810 -1.0075
  505MOL0     H68112   6.519   6.210   2.944  1.0034 -0.8727 -4.6471
  505MOL0     H68113   6.693   6.207   2.975  2.1679 -4.4492 -1.4588
  505MOL0     H68114   6.722   5.990   2.908 -0.0856 -0.3769  1.5114
  505MOL0     H68115   6.562   5.943   2.959  0.0120  1.5676  2.2047
  505MOL0     H68116   6.479   6.112   2.764  2.6472  3.1391 -0.7293
  505MOL0     H68117   6.644   6.123   2.722  1.0251 -2.7865 -2.9794
  505MOL0     H68118   6.646   5.899   2.626 -0.3526  2.2965 -1.2289
  505MOL0     H68119   6.491   5.858   2.698 -1.4154  0.0965  1.5249
  505MOL0     H68120   6.416   5.932   2.479  2.1207 -1.3431 -1.7532
  505MOL0     H68121   6.435   6.090   2.550 -0.6553  0.3200 -0.3666
  505MOL0     H68122   6.702   6.074   2.484  1.0266 -3.8800  2.2257
  505MOL0     H68123   6.648   5.933   2.408  0.0162  0.2321 -0.3599
  505MOL0     H68124   6.644   6.143   2.246 -0.2191 -0.5489 -1.3752
  505MOL0     H68125   6.515   6.204   2.346 -1.4891 -1.4006  2.3708
  505MOL0     H68126   6.279   6.105   2.299 -1.4697 -3.5827  2.7699
  505MOL0     H68127   6.092   5.906   2.143 -0.7976  4.3900  2.1651
  505MOL0     H68128   6.090   6.055   2.051 -0.6272 -0.3588 -1.1085
  505MOL0     H68129   6.199   5.797   1.929 -1.6759 -1.1181  1.5081
  505MOL0     H68130   6.177   5.954   1.848  3.1636  1.2228  2.3390
  505MOL0     H68131   5.943   5.956   1.861  0.4592 -0.5548 -1.9377
  505MOL0     H68132   5.935   5.831   1.981  0.3906 -4.1277 -1.1333
  505MOL0     H68133   6.039   5.768   1.705  0.5323 -1.9978  0.2924
  505MOL0     H68134   5.862   5.762   1.759  0.5676  2.0339 -3.3691
  505MOL0     H68135   5.818   5.589   1.677  2.2343 -0.1300 -1.4343
  505MOL0     H68136   5.721   5.454   1.512  2.0619  0.2643  0.7998
  505MOL0     H68137   5.719   5.281   1.506 -2.4372 -1.9600  1.6137
  505MOL0     H68138   5.624   5.354   1.636  0.0777  0.5441  0.7319
  505MOL0     H68139   6.089   4.912   1.594  0.6361 -0.1667  0.8782
  505MOL0     H68140   6.098   4.728   1.452 -0.7731  3.6764 -1.3844
  505MOL0     H68141   5.774   4.520   1.316 -0.3081 -0.9416 -1.8950
  505MOL0     H68142   5.905   4.612   1.250 -1.2173 -0.1412  0.2158
  505MOL0     H68143   6.048   4.417   1.244  0.7181  0.1432 -1.5395
  505MOL0     H68144   5.907   4.317   1.301 -1.2105  0.5565 -0.8172
  505MOL0     H68145   5.967   4.357   1.030 -2.3275 -3.2273 -2.4984
  505MOL0     H68146   5.854   4.499   1.075  2.7840  1.2135  1.6184
  505MOL0     H68147   5.791   4.201   1.121 -1.1707 -1.9186 -2.1560
  505MOL0     H68148   5.672   4.331   1.105  0.0116 -0.3354 -0.7044
  505MOL0     H68149   5.869   4.211   0.896  0.2510  0.8989 -0.1618
  505MOL0     H68150   5.742   4.342   0.867 -0.9565  0.2810 -0.3325
  505MOL0     H68151   5.691   4.103   0.797 -1.4508 -1.4204  0.5516
  505MOL0     H68152   5.681   4.065   0.968 -0.0890  0.7589  0.7322
  505MOL0     H68153   5.485   4.240   0.795  1.6344  4.3084  0.9769
  505MOL0     H68154   5.499   4.269   0.965 -0.2677  0.5507 -0.2825
  505MOL0     H68155   5.480   3.990   0.861  1.1014  0.7724 -0.1356
  505MOL0     H68156   5.338   4.086   0.872  1.5421  0.0901 -2.0635
  505MOL0     H68157   5.709   4.605   1.612  1.0692 -1.2333  4.6381
  505MOL0     H68158   5.706   4.821   1.735  2.5903  2.3988  1.3262
  505MOL0     H68159   6.090   5.202   1.797  0.6240  0.5388  0.8954
  505MOL0     H68160   6.123   5.412   1.902  0.6512  0.1429 -1.0329
  505MOL0     H68161   6.852   5.867   3.300  0.3511  1.8114 -0.5676
  505MOL0     H68162   6.853   5.821   3.548 -0.5212  0.5204  0.5035
  505MOL0     H68163   6.462   5.573   3.869 -3.4984  0.0651  2.1490
  505MOL0     H68164   6.530   5.480   4.082 -0.7926  0.7954  2.0314
  505MOL0     H68165   6.645   5.414   4.271 -0.6562 -1.9200  2.2812
  505MOL0     H68166   6.703   5.471   4.414 -1.2119 -0.7057  0.9854
  505MOL0     H68167   6.461   5.435   4.429  0.5267 -0.4138  0.5628
  505MOL0     H68168   6.427   5.544   4.297  0.6694  1.8183  0.8019
  505MOL0     H68169   6.549   5.729   4.432  1.7212  1.0082  2.2561
  505MOL0     H68170   6.545   5.603   4.565 -2.5548 -4.4751 -0.1553
  505MOL0     H68171   6.293   5.606   4.585 -0.9438  1.9757  0.9695
  505MOL0     H68172   6.294   5.701   4.435  0.4632 -0.7290 -0.7093
  505MOL0     H68173   6.366   5.989   4.719 -1.4969  0.0579 -0.5323
  505MOL0     H68174   6.772   5.827   4.160  3.8206 -1.6373 -1.9102
  505MOL0     H68175   6.713   5.931   3.950  0.4968 -1.3087  1.2155
  506MOL0     O68176  10.436   7.521   6.356 -0.5468 -0.2180 -0.4491
  506MOL0     C68177  10.385   7.412   6.377 -0.7104  0.1932 -0.5936
  506MOL0     O68178  10.259   7.389   6.445  0.0937 -0.0603  0.1590
  506MOL0     C68179  10.187   7.500   6.486  0.3620 -0.6837  0.0465
  506MOL0     C68180  10.153   7.607   6.394  0.0542 -0.2868  0.7624
  506MOL0     C68181  10.068   7.717   6.441  0.0173  0.3528 -0.1541
  506MOL0     C68182  10.008   7.722   6.571 -0.6219  0.6471 -0.2381
  506MOL0     O68183   9.924   7.815   6.618  0.6207  0.0930  0.1075
  506MOL0     C68184   9.833   7.874   6.526 -0.1009 -1.4940 -0.2918
  506MOL0     C68185   9.738   7.778   6.469 -0.8931  0.9707 -0.4724
  506MOL0     C68186   9.617   7.843   6.407  0.6056 -0.1244  0.8409
  506MOL0     C68187   9.516   7.739   6.342 -0.0392 -0.4633 -1.1423
  506MOL0     C68188   9.423   7.811   6.244 -0.7258  0.0003  0.1290
  506MOL0     C68189   9.331   7.899   6.308  1.0767 -0.0484 -0.2364
  506MOL0     C68190   9.232   7.987   6.224  0.1866 -0.1804  0.1716
  506MOL0     C68191   9.287   8.131   6.215 -0.3876  0.1601 -0.9102
  506MOL0     N68192   9.422   8.147   6.159  0.2489  0.6171 -0.4221
  506MOL0     C68193   9.457   8.145   6.024 -1.2388  0.2371  1.2514
  506MOL0     C68194   9.591   8.141   6.025 -0.3348  0.3939  0.5602
  506MOL0     C68195   9.670   8.119   5.898 -0.7595  0.0919  0.1025
  506MOL0     C68196   9.770   8.229   5.857 -0.4114 -0.1089  0.1603
  506MOL0     C68197   9.889   8.165   5.780  1.4987  0.4611  0.0714
  506MOL0     C68198   9.960   8.265   5.690  0.1334  0.5618 -0.2028
  506MOL0     O68199  10.043   8.359   5.753  0.0947 -0.4557 -0.9306
  506MOL0     C68200  10.178   8.395   5.713  0.2726  0.8630  0.6703
  506MOL0     C68201  10.233   8.485   5.801 -0.1839 -0.7030  0.4463
  506MOL0     C68202  10.365   8.533   5.777  0.4383 -0.4968  0.3674
  506MOL0     C68203  10.429   8.597   5.898 -0.0503  0.1805 -0.1851
  506MOL0     C68204  10.425   8.503   5.655 -0.6467 -0.0801 -0.8978
  506MOL0     C68205  10.563   8.561   5.613  1.4593  1.0716 -0.5095
  506MOL0     O68206  10.592   8.563   5.477 -1.3691  0.2668 -1.2673
  506MOL0     C68207  10.704   8.635   5.437 -0.2761 -0.8571 -0.1176
  506MOL0     C68208  10.805   8.564   5.375 -0.3993 -0.0239 -0.3660
  506MOL0     C68209  10.929   8.627   5.341  0.1011  0.0414  0.0641
  506MOL0     C68210  10.930   8.770   5.355 -0.8547 -0.4033  0.5778
  506MOL0     O68211  11.034   8.849   5.312  0.6674  0.0286  0.2042
  506MOL0     C68212  11.168   8.802   5.352  0.5632 -0.7942 -0.4931
  506MOL0     C68213  11.263   8.908   5.291  0.0341  0.0951  0.5450
  506MOL0     C68214  11.413   8.865   5.308 -0.6206 -0.1008 -0.3554
  506MOL0     C68215  11.487   9.000   5.266  0.0162  0.1348 -0.2798
  506MOL0     C68216  11.630   8.955   5.271 -1.3598  0.1172  0.1461
  506MOL0     C68217  11.724   9.071   5.263 -0.0832  0.0467 -0.5692
  506MOL0     C68218  11.865   9.012   5.258 -0.9300 -0.3262 -0.2929
  506MOL0     C68219  11.965   9.105   5.171 -0.4037 -0.0592  0.0833
  506MOL0    Cl68220  12.004   9.256   5.242 -0.1446  0.0263  0.2623
  506MOL0     C68221  10.817   8.835   5.397 -0.2047  0.3476 -0.3846
  506MOL0     C68222  10.705   8.775   5.447 -0.6914  0.7535 -0.2985
  506MOL0     O68223  10.641   8.588   5.700 -0.5372 -0.2744  0.2233
  506MOL0     C68224  10.377   8.407   5.568  0.6843 -1.3744 -0.0822
  506MOL0     C68225  10.252   8.353   5.597 -0.4788  0.3767 -0.1857
  506MOL0     N68226   9.633   8.136   6.162  0.8768  0.6127 -0.1472
  506MOL0     N68227   9.532   8.132   6.237  0.3639 -0.2886  0.2163
  506MOL0     C68228  10.043   7.615   6.661  0.4718  0.0111  0.3793
  506MOL0     C68229  10.119   7.501   6.614 -0.4189 -0.1564 -0.3577
  506MOL0     C68230  10.474   7.288   6.343 -0.5553  0.1490 -0.7559
  506MOL0     C68231  10.616   7.303   6.319 -0.3925 -0.5953  0.1246
  506MOL0     C68232  10.698   7.196   6.286  0.0239 -0.6885  1.3075
  506MOL0     C68233  10.652   7.065   6.288  0.8288 -0.1289 -0.4205
  506MOL0     O68234  10.742   6.958   6.267 -0.5993 -0.1527  0.2935
  506MOL0     C68235  10.681   6.827   6.276 -0.1992 -0.5778 -1.0567
  506MOL0     C68236  10.671   6.785   6.423  0.3732 -0.3984 -0.0529
  506MOL0     C68237  10.640   6.635   6.443 -1.0699 -1.0938  0.7228
  506MOL0     C68238  10.566   6.601   6.570  0.3234 -0.1023  0.2253
  506MOL0     C68239  10.634   6.647   6.690  0.4414  0.1192  0.5070
  506MOL0     C68240  10.716   6.665   6.776  0.4120 -0.2722 -0.4245
  506MOL0     C68241  10.511   7.049   6.326  0.1357  0.6250  0.3456
  506MOL0     C68242  10.423   7.158   6.350  0.4154  0.6296 -0.0572
  506MOL0     H68243  10.205   7.607   6.299 -1.8565 -3.0712 -0.4619
  506MOL0     H68244  10.039   7.798   6.375 -0.6455  1.5263  1.5253
  506MOL0     H68245   9.794   7.956   6.586  4.2067  0.2386  0.4694
  506MOL0     H68246   9.881   7.936   6.450  1.0134  0.1538  1.6633
  506MOL0     H68247   9.797   7.720   6.396 -2.6998 -1.1318 -0.3838
  506MOL0     H68248   9.706   7.710   6.549 -2.2561  1.3941 -0.6308
  506MOL0     H68249   9.552   7.895   6.478 -1.9003  0.0258 -1.4119
  506MOL0     H68250   9.649   7.916   6.332 -1.7027  0.8263  0.6770
  506MOL0     H68251   9.579   7.675   6.278  0.2916 -0.7535 -0.5385
  506MOL0     H68252   9.462   7.679   6.416 -0.1475 -0.1540 -0.9676
  506MOL0     H68253   9.482   7.857   6.164 -0.1054  0.5886  0.9133
  506MOL0     H68254   9.370   7.731   6.192  1.0010 -0.8083 -0.4824
  506MOL0     H68255   9.265   7.844   6.375 -0.7893 -0.7366 -2.5210
  506MOL0     H68256   9.382   7.966   6.379  0.3876  1.4900 -1.1508
  506MOL0     H68257   9.219   7.948   6.123 -2.9573  0.0669  0.3720
  506MOL0     H68258   9.139   8.005   6.279  0.6243  0.5064  0.7204
  506MOL0     H68259   9.274   8.189   6.307 -5.1052  1.8672 -2.3535
  506MOL0     H68260   9.218   8.191   6.154 -0.4513  0.5825 -0.4335
  506MOL0     H68261   9.392   8.131   5.938  1.7143  1.2579 -1.3374
  506MOL0     H68262   9.722   8.031   5.938 -0.8758  0.3998  0.9527
  506MOL0     H68263   9.610   8.086   5.812 -1.0501 -0.5000  0.5266
  506MOL0     H68264   9.817   8.269   5.947  0.8512 -1.6310  0.2301
  506MOL0     H68265   9.723   8.309   5.800  1.8765  2.8734  2.1960
  506MOL0     H68266   9.859   8.078   5.720 -3.5679 -0.7897  3.7006
  506MOL0     H68267   9.958   8.124   5.854 -1.3553 -1.1937  2.0173
  506MOL0     H68268   9.885   8.326   5.638  0.8508  0.1176 -1.8410
  506MOL0     H68269  10.009   8.210   5.608 -2.1745  1.7702 -2.5558
  506MOL0     H68270  10.178   8.507   5.892 -1.3661  1.0381 -0.6220
  506MOL0     H68271  10.459   8.701   5.880  0.1563  0.2642  0.5952
  506MOL0     H68272  10.353   8.607   5.977 -0.1738  1.5854 -0.4486
  506MOL0     H68273  10.519   8.548   5.937 -2.2167 -2.5636  1.8207
  506MOL0     H68274  10.789   8.464   5.335 -0.5876 -0.4784  0.7951
  506MOL0     H68275  11.003   8.571   5.285 -0.2754  2.8858 -3.6594
  506MOL0     H68276  11.172   8.794   5.461 -0.4277 -0.0379 -0.3853
  506MOL0     H68277  11.183   8.705   5.304 -0.4211 -0.8906 -0.6361
  506MOL0     H68278  11.239   8.912   5.184 -1.4771 -0.3833  0.8388
  506MOL0     H68279  11.247   9.006   5.337  4.3461  0.5494  1.4303
  506MOL0     H68280  11.430   8.777   5.247 -0.6151 -0.0990 -0.3564
  506MOL0     H68281  11.444   8.833   5.408 -1.8795  0.0622  0.1123
  506MOL0     H68282  11.450   9.017   5.165  2.1390 -1.2116 -1.3744
  506MOL0     H68283  11.461   9.078   5.338 -0.9819 -1.4425  1.1492
  506MOL0     H68284  11.629   8.893   5.181  1.4214  0.2082 -0.0353
  506MOL0     H68285  11.663   8.896   5.356 -0.4444 -0.5070 -0.6206
  506MOL0     H68286  11.699   9.132   5.176 -1.6345 -1.1787 -1.0386
  506MOL0     H68287  11.706   9.123   5.357 -4.6636 -0.6530 -0.8432
  506MOL0     H68288  11.874   8.911   5.216  0.8303 -0.2290 -0.2562
  506MOL0     H68289  11.893   8.996   5.363 -0.4753 -0.5922 -0.4510
  506MOL0     H68290  11.926   9.135   5.073 -0.6556 -0.6192  0.0113
  506MOL0     H68291  12.065   9.063   5.158  1.4093  3.4756  1.1698
  506MOL0     H68292  10.825   8.942   5.408 -0.2616  0.2801  0.3544
  506MOL0     H68293  10.627   8.829   5.500  0.2324  1.2729  0.5613
  506MOL0     H68294  10.420   8.379   5.472  1.1719 -1.2756  0.1076
  506MOL0     H68295  10.205   8.278   5.533 -1.3322 -1.1534  2.0768
  506MOL0     H68296   9.994   7.610   6.757  0.4851  0.1824  0.3956
  506MOL0     H68297  10.142   7.418   6.680  1.4153  1.7892  1.6410
  506MOL0     H68298  10.669   7.398   6.320 -0.3590 -0.6099 -0.4004
  506MOL0     H68299  10.801   7.224   6.270  0.0289  1.2418  4.0511
  506MOL0     H68300  10.590   6.817   6.216 -1.8351 -1.9272  1.4260
  506MOL0     H68301  10.736   6.757   6.213 -1.4731 -0.9474 -1.8019
  506MOL0     H68302  10.597   6.844   6.477  2.6603 -0.1849  3.2145
  506MOL0     H68303  10.766   6.811   6.472  0.4635 -0.2514 -0.3078
  506MOL0     H68304  10.735   6.582   6.440  0.6914  1.8804 -1.3811
  506MOL0     H68305  10.580   6.596   6.360 -0.3594 -3.1513  1.0995
  506MOL0     H68306  10.542   6.494   6.569 -2.5718  0.4188 -2.7253
  506MOL0     H68307  10.462   6.634   6.576 -0.1570 -1.4032 -0.5547
  506MOL0     H68308  10.797   6.671   6.845  0.4849  3.8693 -0.6299
  506MOL0     H68309  10.469   6.949   6.322  0.7691  0.3695  0.0491
  506MOL0     H68310  10.319   7.141   6.377  0.5632  2.7179  2.1539
  507MOL0     O68311   4.931  10.314   9.389 -1.0168 -0.3589 -0.1089
  507MOL0     C68312   4.843  10.389   9.414 -0.8448 -0.7860  0.5311
  507MOL0     O68313   4.869  10.527   9.431  0.2413  0.4457 -0.2319
  507MOL0     C68314   4.987  10.589   9.469 -0.1291  0.3131  0.1882
  507MOL0     C68315   5.112  10.535   9.458  0.4116 -0.0293  0.3715
  507MOL0     C68316   5.223  10.615   9.500 -0.2822  0.0020  0.4175
  507MOL0     C68317   5.205  10.749   9.529  0.8452 -0.0750 -0.2142
  507MOL0     O68318   5.296  10.846   9.540 -0.3579  0.2067  0.3057
  507MOL0     C68319   5.428  10.794   9.556  0.5679 -0.2171  0.2250
  507MOL0     C68320   5.526  10.911   9.566  0.5240 -0.2568  0.6768
  507MOL0     C68321   5.502  11.018   9.471 -0.2855  0.2399  0.5764
  507MOL0     C68322   5.574  11.147   9.518  0.1865 -0.6116 -0.0341
  507MOL0     C68323   5.573  11.248   9.399  0.0780  0.9912  0.2891
  507MOL0     C68324   5.578  11.398   9.451  0.6469  0.5550 -0.4074
  507MOL0     C68325   5.607  11.479   9.326 -0.2001  0.4133 -0.5416
  507MOL0     C68326   5.634  11.621   9.362 -0.2505  0.4280  0.0617
  507MOL0     N68327   5.649  11.703   9.238 -0.5211  0.2864 -0.3495
  507MOL0     C68328   5.747  11.693   9.149  0.6139 -0.2427 -0.6234
  507MOL0     C68329   5.738  11.813   9.087  0.1396  0.4392 -0.4664
  507MOL0     C68330   5.819  11.873   8.978  0.0560  0.1002  0.6264
  507MOL0     C68331   5.913  11.763   8.929 -1.0189  0.5505 -0.3287
  507MOL0     C68332   6.002  11.808   8.817 -0.3117 -0.2014 -0.3200
  507MOL0     C68333   6.117  11.713   8.805 -0.8390 -0.0803 -0.1001
  507MOL0     O68334   6.187  11.721   8.680 -0.3258  0.3757  0.1000
  507MOL0     C68335   6.269  11.625   8.641  0.4483  0.0199 -0.1565
  507MOL0     C68336   6.333  11.652   8.522  0.2614  0.0771 -0.8304
  507MOL0     C68337   6.430  11.560   8.466 -0.3288 -0.4099 -0.0446
  507MOL0     C68338   6.480  11.620   8.331 -0.1582  0.1137  0.2956
  507MOL0     C68339   6.453  11.429   8.522 -0.3613  0.4251 -0.0731
  507MOL0     C68340   6.519  11.306   8.460 -0.0436 -0.5626 -0.9677
  507MOL0     O68341   6.473  11.187   8.486  0.5424 -0.6181  0.4322
  507MOL0     C68342   6.510  11.073   8.422  0.0554 -0.0583  0.7913
  507MOL0     C68343   6.647  11.042   8.398 -0.4112 -0.3798  1.4275
  507MOL0     C68344   6.685  10.924   8.317  0.5638 -0.7125  0.4943
  507MOL0     C68345   6.583  10.850   8.260 -0.2199  0.4426  0.6436
  507MOL0     O68346   6.615  10.735   8.186  0.1155 -0.4397 -0.6229
  507MOL0     C68347   6.516  10.695   8.098 -0.0619 -1.1346 -0.2631
  507MOL0     C68348   6.589  10.594   8.002  0.7791 -1.0108  0.0596
  507MOL0     C68349   6.659  10.460   8.056  0.0748 -0.1669 -0.3616
  507MOL0     C68350   6.695  10.364   7.942 -0.1240 -0.4093  0.8645
  507MOL0     C68351   6.809  10.268   7.970  0.0793 -0.0242  0.6537
  507MOL0     C68352   6.802  10.198   8.109  0.0054  0.3663  0.2731
  507MOL0     C68353   6.687  10.103   8.098  0.9742  0.7606 -0.4306
  507MOL0     C68354   6.607  10.111   8.232 -0.7072  0.3039 -0.0275
  507MOL0    Cl68355   6.698  10.054   8.379  0.1671  0.1850 -0.2420
  507MOL0     C68356   6.453  10.882   8.282  1.1287 -0.3442  0.6267
  507MOL0     C68357   6.412  10.998   8.364 -0.0245 -0.1974  0.0450
  507MOL0     O68358   6.607  11.330   8.381 -0.4051  0.1157  0.0817
  507MOL0     C68359   6.381  11.404   8.649  0.7077 -0.4864  0.0688
  507MOL0     C68360   6.294  11.499   8.706 -0.7576 -0.0000  0.8401
  507MOL0     N68361   5.621  11.882   9.128 -0.5780 -0.3059 -0.0827
  507MOL0     N68362   5.564  11.808   9.219 -0.0618 -0.0551  0.4915
  507MOL0     C68363   5.071  10.797   9.534  0.2330  0.8399  0.1911
  507MOL0     C68364   4.965  10.714   9.513  0.6534  1.0157  0.1763
  507MOL0     C68365   4.703  10.332   9.411  0.5551  0.2670  0.3085
  507MOL0     C68366   4.599  10.424   9.438  0.2630 -0.0307  0.0524
  507MOL0     C68367   4.466  10.385   9.430 -0.4387 -0.6618 -0.0932
  507MOL0     C68368   4.432  10.258   9.403 -0.0812  0.5169  0.4215
  507MOL0     O68369   4.309  10.212   9.390  0.5897  0.4109 -0.2658
  507MOL0     C68370   4.189  10.290   9.423  0.1502 -0.1064 -0.2160
  507MOL0     C68371   4.158  10.252   9.561 -0.6172 -1.0735  0.9979
  507MOL0     C68372   4.101  10.116   9.578 -0.5824 -0.3497  1.3970
  507MOL0     C68373   3.964  10.133   9.652  0.4292  0.8168 -1.0102
  507MOL0     C68374   3.852  10.118   9.554 -0.4489 -0.4233  0.3458
  507MOL0     C68375   3.761  10.098   9.481  0.5571  0.0156 -0.3449
  507MOL0     C68376   4.529  10.159   9.380 -0.3726  0.5117 -0.2224
  507MOL0     C68377   4.667  10.203   9.385  0.0405  0.1392  0.1310
  507MOL0     H68378   5.122  10.430   9.429 -1.1911 -0.7476  2.1844
  507MOL0     H68379   5.316  10.560   9.501 -2.1376 -3.4332 -0.8684
  507MOL0     H68380   5.431  10.745   9.654 -0.2650  0.2964  0.5196
  507MOL0     H68381   5.465  10.727   9.478 -1.2496 -2.7037  1.3645
  507MOL0     H68382   5.530  10.955   9.666 -0.2385  1.0084  0.1657
  507MOL0     H68383   5.628  10.881   9.541 -0.1422 -0.6179 -1.8101
  507MOL0     H68384   5.534  10.992   9.370 -1.9293 -1.1248  0.3658
  507MOL0     H68385   5.402  11.061   9.458 -0.8920 -1.2212  0.2877
  507MOL0     H68386   5.521  11.191   9.604 -0.5249  4.0299 -2.5374
  507MOL0     H68387   5.675  11.119   9.548  0.0752  0.4116  1.3930
  507MOL0     H68388   5.658  11.227   9.333  0.2066  2.3761 -0.0164
  507MOL0     H68389   5.483  11.227   9.339  1.4098  2.6547 -2.4882
  507MOL0     H68390   5.486  11.420   9.505 -1.5091 -5.1989 -1.1146
  507MOL0     H68391   5.670  11.419   9.507  1.2118 -0.0550 -1.0827
  507MOL0     H68392   5.697  11.437   9.280  0.2814  1.1821 -0.3067
  507MOL0     H68393   5.516  11.481   9.265 -0.4234 -1.4215 -0.3377
  507MOL0     H68394   5.723  11.627   9.426 -2.1994  0.3587  2.9708
  507MOL0     H68395   5.549  11.656   9.422 -1.5152 -1.1280 -0.7456
  507MOL0     H68396   5.807  11.606   9.122 -2.2779 -2.2856 -0.9116
  507MOL0     H68397   5.759  11.922   8.901  1.2381  0.6186 -0.0040
  507MOL0     H68398   5.877  11.961   9.010  0.6251  0.6312 -1.6667
  507MOL0     H68399   5.853  11.678   8.895 -0.5656  0.7546 -1.6905
  507MOL0     H68400   5.976  11.738   9.015 -0.9207  0.7495 -0.3430
  507MOL0     H68401   6.047  11.901   8.852 -0.7212  0.3993 -1.3522
  507MOL0     H68402   5.947  11.819   8.723  0.4488  1.4839 -0.6050
  507MOL0     H68403   6.072  11.616   8.827 -0.5294  0.2550  2.4063
  507MOL0     H68404   6.179  11.733   8.893 -0.8237  0.6831 -0.2758
  507MOL0     H68405   6.319  11.745   8.467  0.3250 -0.1163 -1.1750
  507MOL0     H68406   6.402  11.583   8.264 -1.5880  1.8646  0.9217
  507MOL0     H68407   6.488  11.729   8.319 -2.2386  0.0968 -2.1375
  507MOL0     H68408   6.581  11.581   8.313  0.4373 -0.8471  4.5857
  507MOL0     H68409   6.721  11.111   8.440 -0.3960 -0.9444  2.3661
  507MOL0     H68410   6.789  10.896   8.307  0.5233 -0.0583 -2.7586
  507MOL0     H68411   6.426  10.649   8.139  0.9495 -1.7417  1.3660
  507MOL0     H68412   6.475  10.777   8.039 -2.4761 -0.2298  2.4441
  507MOL0     H68413   6.509  10.563   7.934  0.0691  1.1236 -0.1519
  507MOL0     H68414   6.665  10.648   7.945  1.1737  0.0802  1.5397
  507MOL0     H68415   6.598  10.405   8.128  0.0839  0.0857 -0.1582
  507MOL0     H68416   6.751  10.492   8.107  0.8669 -1.4827 -0.9038
  507MOL0     H68417   6.608  10.311   7.901 -0.2937  1.1253 -0.8860
  507MOL0     H68418   6.722  10.430   7.859  1.7388 -1.0556  0.9196
  507MOL0     H68419   6.890  10.341   7.983 -1.4592  1.4938  2.4194
  507MOL0     H68420   6.822  10.194   7.891 -1.0142  2.1482 -1.7046
  507MOL0     H68421   6.893  10.141   8.129 -1.2977 -2.3887 -1.1366
  507MOL0     H68422   6.789  10.272   8.189 -1.6828 -0.3882  0.7307
  507MOL0     H68423   6.726  10.005   8.069  2.2655  1.1435 -0.0685
  507MOL0     H68424   6.611  10.122   8.022 -0.5111 -1.2442  0.4498
  507MOL0     H68425   6.518  10.047   8.229 -1.9498  1.9174  0.7156
  507MOL0     H68426   6.575  10.214   8.250  1.1308  0.9233 -0.1288
  507MOL0     H68427   6.372  10.833   8.228 -0.9612  2.6592  0.8177
  507MOL0     H68428   6.308  11.026   8.377  0.3448  0.1048  2.8381
  507MOL0     H68429   6.404  11.309   8.697 -2.6987 -2.0164 -1.0637
  507MOL0     H68430   6.263  11.483   8.809 -0.0877 -1.6085  0.8174
  507MOL0     H68431   5.052  10.902   9.551  1.7175  0.7594  2.8424
  507MOL0     H68432   4.862  10.747   9.528  0.3707  0.1861  0.1185
  507MOL0     H68433   4.637  10.523   9.462 -1.6893  0.3280  1.9520
  507MOL0     H68434   4.390  10.458   9.455  0.4771  0.7970 -1.3559
  507MOL0     H68435   4.215  10.395   9.404  3.7349 -0.5073  1.5856
  507MOL0     H68436   4.110  10.256   9.355 -1.5124 -0.0109  1.5474
  507MOL0     H68437   4.103  10.332   9.613  1.8454  0.0099  2.1140
  507MOL0     H68438   4.254  10.269   9.610  0.7900  4.9693 -2.6853
  507MOL0     H68439   4.172  10.065   9.644  2.4031 -0.2829 -1.5181
  507MOL0     H68440   4.093  10.061   9.483  1.9579 -0.1845  1.0113
  507MOL0     H68441   3.951  10.221   9.716 -3.4548  0.5191 -1.1431
  507MOL0     H68442   3.963  10.050   9.723  0.3879  1.6526  0.0051
  507MOL0     H68443   3.671  10.068   9.431 -1.6252 -0.9568  3.7040
  507MOL0     H68444   4.508  10.061   9.339  0.9167  0.7230 -1.4591
  507MOL0     H68445   4.742  10.126   9.371 -1.9805 -1.7968 -0.6589
  508MOL0     O68446   6.374   1.380   6.722 -0.1555  0.5586 -0.2436
  508MOL0     C68447   6.361   1.281   6.793 -0.8386  0.6315 -0.0150
  508MOL0     O68448   6.462   1.210   6.841  0.8952  0.3400  0.3562
  508MOL0     C68449   6.596   1.224   6.832 -0.8756  0.3249  0.4495
  508MOL0     C68450   6.663   1.341   6.794  0.0557 -0.3411 -0.0243
  508MOL0     C68451   6.802   1.348   6.801 -0.0875 -0.6784  0.4603
  508MOL0     C68452   6.875   1.233   6.849  0.3610  0.1574 -0.1196
  508MOL0     O68453   7.011   1.225   6.829 -0.1937  0.3606  0.1270
  508MOL0     C68454   7.082   1.143   6.921  0.0122  0.9987 -0.9280
  508MOL0     C68455   7.226   1.168   6.878  0.0929  0.1267  0.7344
  508MOL0     C68456   7.326   1.132   6.998 -0.5587  0.0191 -0.2824
  508MOL0     C68457   7.470   1.185   6.980 -0.0238 -0.5610  0.7271
  508MOL0     C68458   7.557   1.156   7.104 -0.0006  0.1136  0.1025
  508MOL0     C68459   7.697   1.201   7.071 -0.3626  0.1971 -0.9738
  508MOL0     C68460   7.793   1.178   7.201  0.5225  1.4765 -0.3531
  508MOL0     C68461   7.810   1.029   7.237  0.6392  0.6239  0.2139
  508MOL0     N68462   7.915   0.986   7.327  0.1220  0.1926  0.3173
  508MOL0     C68463   7.951   1.058   7.436  0.6352 -0.4638  0.5673
  508MOL0     C68464   8.067   0.990   7.469  0.1833  0.1886  0.7957
  508MOL0     C68465   8.154   1.017   7.587  0.5941 -0.4303 -0.6668
  508MOL0     C68466   8.241   1.144   7.554  0.3030  0.6888 -1.2622
  508MOL0     C68467   8.322   1.178   7.679 -0.2611  0.2766 -0.8588
  508MOL0     C68468   8.447   1.090   7.691 -0.5827  0.3285  0.2571
  508MOL0     O68469   8.509   1.099   7.561  0.3939 -0.9209 -0.0026
  508MOL0     C68470   8.648   1.087   7.554  0.1195  0.6224 -0.5210
  508MOL0     C68471   8.711   1.024   7.665 -0.9970 -0.5261  0.3149
  508MOL0     C68472   8.851   1.022   7.666  0.4940  0.2962 -0.0188
  508MOL0     C68473   8.915   0.954   7.790 -0.3163 -0.2472 -1.0361
  508MOL0     C68474   8.924   1.093   7.564 -0.0766  0.2309  0.9039
  508MOL0     C68475   9.074   1.098   7.548  0.0366  0.3206  0.0554
  508MOL0     O68476   9.114   1.090   7.423  0.4955 -1.2233  0.8354
  508MOL0     C68477   9.241   1.124   7.383 -0.2165  0.4867  0.6792
  508MOL0     C68478   9.267   1.146   7.244  0.1892 -0.1005  0.2306
  508MOL0     C68479   9.389   1.193   7.201 -0.1607  1.6126  1.1523
  508MOL0     C68480   9.495   1.230   7.291 -0.0100 -0.4345  0.0400
  508MOL0     O68481   9.602   1.304   7.238  1.0658  1.2994  0.7017
  508MOL0     C68482   9.704   1.367   7.320 -1.0490  0.3892  0.2107
  508MOL0     C68483   9.855   1.344   7.291  0.3550 -0.4290  0.2762
  508MOL0     C68484   9.950   1.462   7.332 -0.4676  0.3237 -0.3590
  508MOL0     C68485   9.938   1.580   7.242 -0.0231 -0.0605 -0.3621
  508MOL0     C68486  10.046   1.686   7.268  0.5390  0.1081  0.1770
  508MOL0     C68487  10.046   1.770   7.396 -0.5058 -0.2892  0.0569
  508MOL0     C68488  10.189   1.836   7.419  0.1069 -0.5246 -0.1089
  508MOL0     C68489  10.300   1.739   7.451 -0.3877  0.1205 -0.8253
  508MOL0    Cl68490  10.265   1.651   7.597  0.5111 -0.3183  0.1495
  508MOL0     C68491   9.470   1.206   7.427  0.0050  0.5588 -0.1287
  508MOL0     C68492   9.348   1.151   7.464  0.7401  0.5853 -0.1395
  508MOL0     O68493   9.143   1.091   7.647 -0.0366 -0.1495 -0.6816
  508MOL0     C68494   8.862   1.161   7.454  0.2508  0.7330 -0.5857
  508MOL0     C68495   8.721   1.150   7.452  0.7332  0.0099  0.5854
  508MOL0     N68496   8.087   0.881   7.386 -0.1286 -0.1430 -1.1185
  508MOL0     N68497   7.992   0.880   7.303 -0.7825  0.8483  0.2375
  508MOL0     C68498   6.804   1.126   6.915 -0.4700  0.2917 -0.9170
  508MOL0     C68499   6.669   1.118   6.893  1.1321 -0.2666  1.1590
  508MOL0     C68500   6.228   1.231   6.824  0.7602 -0.7739  0.5462
  508MOL0     C68501   6.211   1.111   6.901  0.3915 -0.2097  0.0567
  508MOL0     C68502   6.083   1.066   6.925  0.4501 -0.6081 -0.0646
  508MOL0     C68503   5.975   1.125   6.859 -0.5137  0.7534  0.4591
  508MOL0     O68504   5.848   1.080   6.875  0.4813  0.1492 -0.5525
  508MOL0     C68505   5.772   1.170   6.961 -0.4041  0.0567 -0.5605
  508MOL0     C68506   5.632   1.142   6.955  0.9175  0.0231  0.1676
  508MOL0     C68507   5.551   1.213   7.069 -0.1455  0.3356 -1.1080
  508MOL0     C68508   5.403   1.166   7.087  0.3812 -0.7177  0.1867
  508MOL0     C68509   5.370   1.171   7.228 -0.0821  0.0506  0.3189
  508MOL0     C68510   5.327   1.172   7.339  0.8114 -0.6131  0.4811
  508MOL0     C68511   5.985   1.239   6.776 -0.4941 -0.1136  0.6489
  508MOL0     C68512   6.114   1.291   6.763  0.2164 -0.6649 -0.4598
  508MOL0     H68513   6.607   1.426   6.756  1.6313  0.2717 -1.0750
  508MOL0     H68514   6.858   1.426   6.749 -0.4033 -0.8965 -0.2152
  508MOL0     H68515   7.058   1.175   7.022 -1.8369 -2.1932 -0.2373
  508MOL0     H68516   7.063   1.037   6.900 -1.7577  0.6888  1.8057
  508MOL0     H68517   7.244   1.094   6.799 -0.2359 -0.8067  1.5115
  508MOL0     H68518   7.244   1.271   6.846  1.7886 -0.1346  0.7540
  508MOL0     H68519   7.301   1.171   7.097 -3.1082  4.0291 -2.2248
  508MOL0     H68520   7.319   1.023   7.004 -2.6171 -0.0249 -2.2254
  508MOL0     H68521   7.512   1.143   6.887 -0.9940  0.2795 -0.1140
  508MOL0     H68522   7.477   1.293   6.964 -1.5279 -0.6700 -1.1441
  508MOL0     H68523   7.514   1.197   7.195 -2.0273 -0.1972 -0.6510
  508MOL0     H68524   7.574   1.050   7.123  0.7178  0.1117 -0.4891
  508MOL0     H68525   7.729   1.151   6.979 -4.0168 -2.3536 -1.0701
  508MOL0     H68526   7.688   1.309   7.052  1.7082  0.1498 -2.6283
  508MOL0     H68527   7.888   1.227   7.178  1.3167 -0.0748 -0.5373
  508MOL0     H68528   7.748   1.226   7.288 -4.7071 -4.3142  0.8435
  508MOL0     H68529   7.824   0.984   7.139 -2.9774  1.8974 -1.0547
  508MOL0     H68530   7.716   0.988   7.276  2.0178 -1.3094  1.6989
  508MOL0     H68531   7.907   1.150   7.472  1.3072 -0.0665  0.3959
  508MOL0     H68532   8.084   1.021   7.671  1.7061  2.1282  0.2468
  508MOL0     H68533   8.224   0.934   7.601  1.6439  0.4429 -0.6333
  508MOL0     H68534   8.173   1.226   7.528  0.4790  0.6127 -1.9877
  508MOL0     H68535   8.298   1.111   7.467  0.9102 -1.9691  0.0343
  508MOL0     H68536   8.267   1.179   7.774 -1.9293  0.2090 -1.7695
  508MOL0     H68537   8.334   1.286   7.665 -3.0820  1.3443  3.0751
  508MOL0     H68538   8.430   0.982   7.695 -1.9842  0.4191 -1.8654
  508MOL0     H68539   8.510   1.125   7.773 -1.7813 -2.5159  2.5803
  508MOL0     H68540   8.656   0.965   7.737 -1.0298 -3.0333 -1.6160
  508MOL0     H68541   9.008   1.009   7.806  0.8513 -0.9074 -4.6542
  508MOL0     H68542   8.850   0.965   7.877 -0.9022  0.4447 -1.5546
  508MOL0     H68543   8.947   0.850   7.780  1.3620  0.1459 -0.2479
  508MOL0     H68544   9.179   1.132   7.182 -0.1797 -1.2897  0.9952
  508MOL0     H68545   9.411   1.196   7.095 -0.2355 -0.4330  1.0409
  508MOL0     H68546   9.689   1.475   7.314  1.5406  0.9955  2.7141
  508MOL0     H68547   9.690   1.354   7.428 -1.9629  0.4738  0.1104
  508MOL0     H68548   9.882   1.245   7.329  0.6524 -0.7031 -0.6324
  508MOL0     H68549   9.865   1.339   7.182  1.6759  0.7702  0.3076
  508MOL0     H68550  10.056   1.436   7.335  0.6010  3.1584 -4.4627
  508MOL0     H68551   9.926   1.498   7.433 -0.2786 -1.9742  0.5769
  508MOL0     H68552   9.936   1.546   7.138 -2.7659 -2.4011  0.3120
  508MOL0     H68553   9.846   1.636   7.259  0.5710  1.2289 -1.2044
  508MOL0     H68554  10.037   1.747   7.177 -1.9331  1.4389  1.2340
  508MOL0     H68555  10.140   1.630   7.273 -1.3394 -3.1816  1.1631
  508MOL0     H68556   9.969   1.847   7.394 -0.2719 -0.0723 -1.6335
  508MOL0     H68557  10.036   1.710   7.487  0.1075 -0.4860 -0.0021
  508MOL0     H68558  10.170   1.910   7.497 -3.4030 -1.1523 -0.2085
  508MOL0     H68559  10.203   1.895   7.328 -1.1897  2.7451  1.6472
  508MOL0     H68560  10.389   1.798   7.475 -0.9545  0.8897 -0.5777
  508MOL0     H68561  10.320   1.660   7.378  1.3992 -1.2633  1.0426
  508MOL0     H68562   9.549   1.239   7.493  1.8550 -1.7562 -1.0051
  508MOL0     H68563   9.342   1.149   7.572  2.9654  2.8151  0.1187
  508MOL0     H68564   8.925   1.213   7.383  0.4360  1.7193  0.2751
  508MOL0     H68565   8.666   1.203   7.375  0.6984 -1.1133 -0.1921
  508MOL0     H68566   6.858   1.043   6.960  1.3160  0.4163 -2.6868
  508MOL0     H68567   6.609   1.028   6.905 -0.5152 -0.1074 -3.4766
  508MOL0     H68568   6.306   1.073   6.938  1.9327  0.2234 -3.0743
  508MOL0     H68569   6.073   0.977   6.987 -1.8479 -0.8678 -0.7109
  508MOL0     H68570   5.797   1.147   7.066  2.2964  0.9545 -0.9121
  508MOL0     H68571   5.795   1.269   6.921 -0.7348 -0.6968 -2.7483
  508MOL0     H68572   5.616   1.037   6.978 -0.7525 -0.0931 -1.3774
  508MOL0     H68573   5.598   1.167   6.854  1.3010  0.6677  0.1908
  508MOL0     H68574   5.536   1.320   7.057  1.9404  0.8693  0.4845
  508MOL0     H68575   5.606   1.202   7.163 -0.8760  2.0012 -0.4522
  508MOL0     H68576   5.398   1.065   7.045  2.9180 -1.7204  2.0241
  508MOL0     H68577   5.331   1.229   7.034 -0.3766  0.0956  2.0742
  508MOL0     H68578   5.297   1.188   7.440 -2.5524 -2.2349 -0.1155
  508MOL0     H68579   5.909   1.294   6.720  2.9138  2.6451 -1.7225
  508MOL0     H68580   6.117   1.387   6.712 -1.2764  0.0118  0.6410
  509MOL0     O68581  10.793   6.561   2.503  1.0602  0.6009 -0.7631
  509MOL0     C68582  10.902   6.617   2.513 -0.2089 -0.5796  0.4062
  509MOL0     O68583  10.988   6.635   2.401  0.6484  0.2191  0.3663
  509MOL0     C68584  10.946   6.611   2.270 -0.1669  0.3710  0.5193
  509MOL0     C68585  10.806   6.612   2.228  0.6017 -0.1567  0.6799
  509MOL0     C68586  10.776   6.587   2.093  0.1221  0.6974 -0.0646
  509MOL0     C68587  10.881   6.549   2.000  0.0120 -1.2474 -1.0858
  509MOL0     O68588  10.869   6.527   1.862  0.1932  1.0438 -0.1944
  509MOL0     C68589  10.745   6.536   1.790  0.1281  0.1347 -0.1655
  509MOL0     C68590  10.772   6.455   1.656 -0.3836  0.6070 -0.2311
  509MOL0     C68591  10.768   6.558   1.538  0.6487  0.1877 -0.5637
  509MOL0     C68592  10.744   6.468   1.408 -0.5999 -0.0363  0.0527
  509MOL0     C68593  10.621   6.515   1.321  0.2278  0.7064 -0.6599
  509MOL0     C68594  10.486   6.479   1.385 -1.0892 -0.4545 -0.4381
  509MOL0     C68595  10.365   6.550   1.315 -0.4986  0.3106 -0.7223
  509MOL0     C68596  10.331   6.494   1.176 -0.2267  0.2466  0.4121
  509MOL0     N68597  10.300   6.345   1.170 -0.6873  1.2536 -0.1288
  509MOL0     C68598  10.175   6.296   1.190  0.4749 -0.4344 -0.7513
  509MOL0     C68599  10.188   6.163   1.155  1.0111  0.5379  1.0411
  509MOL0     C68600  10.067   6.072   1.169  0.1317  0.5920  0.6591
  509MOL0     C68601  10.058   6.017   1.313 -0.4484 -0.5428 -0.7496
  509MOL0     C68602   9.915   5.967   1.338 -0.9460  0.6746  0.1044
  509MOL0     C68603   9.902   5.901   1.476 -0.8819  0.3328  0.0604
  509MOL0     O68604   9.798   5.801   1.483 -0.2016 -0.2349  0.9011
  509MOL0     C68605   9.700   5.810   1.580  0.4586  0.9204 -0.8540
  509MOL0     C68606   9.719   5.849   1.712  0.7614  1.6416  0.2886
  509MOL0     C68607   9.614   5.843   1.809 -0.3349 -0.5326 -0.7000
  509MOL0     C68608   9.655   5.885   1.947  0.0014  0.0152 -0.2073
  509MOL0     C68609   9.488   5.813   1.767 -1.4512  1.2214  0.9644
  509MOL0     C68610   9.374   5.801   1.858  0.4718  0.7213  0.4115
  509MOL0     O68611   9.285   5.705   1.820  0.4989 -0.0146 -0.1714
  509MOL0     C68612   9.177   5.673   1.888  0.1928 -0.2081 -1.1220
  509MOL0     C68613   9.134   5.541   1.863 -0.0410 -0.1842  0.0031
  509MOL0     C68614   9.028   5.487   1.927  0.4735 -0.3084 -0.2869
  509MOL0     C68615   8.953   5.561   2.024  0.0052 -0.1835  0.3123
  509MOL0     O68616   8.855   5.496   2.094 -0.5019  0.4346  0.1222
  509MOL0     C68617   8.811   5.558   2.218 -0.7080  0.5028 -0.4987
  509MOL0     C68618   8.919   5.563   2.318 -0.1049 -0.6212 -0.0593
  509MOL0     C68619   8.860   5.572   2.466 -0.3314 -0.3341  1.0809
  509MOL0     C68620   8.808   5.442   2.518 -0.1890 -0.4764  0.3205
  509MOL0     C68621   8.747   5.455   2.660  0.5243 -0.4262  0.2577
  509MOL0     C68622   8.862   5.489   2.751 -0.0270 -0.2904 -0.4002
  509MOL0     C68623   8.854   5.454   2.907 -0.1183 -0.1139 -0.0337
  509MOL0     C68624   8.840   5.304   2.936 -0.0577 -0.6556 -0.0229
  509MOL0    Cl68625   8.989   5.237   2.857  0.4877  0.1967 -0.0039
  509MOL0     C68626   8.985   5.695   2.045  0.2722  0.0111  0.1729
  509MOL0     C68627   9.103   5.754   1.980  0.8347 -0.6583 -0.1897
  509MOL0     O68628   9.355   5.877   1.948  0.1851 -0.8012  0.6348
  509MOL0     C68629   9.459   5.777   1.625  0.3801 -1.1182 -0.2843
  509MOL0     C68630   9.566   5.773   1.540 -0.0683  0.0347 -0.0983
  509MOL0     N68631  10.312   6.141   1.114 -0.1425 -0.4801 -1.5825
  509MOL0     N68632  10.389   6.245   1.126  0.9206 -0.1782  0.0334
  509MOL0     C68633  11.015   6.537   2.049  0.7415  0.0179 -0.2733
  509MOL0     C68634  11.046   6.575   2.180  0.4220  0.2848  0.3737
  509MOL0     C68635  10.940   6.686   2.645  0.1551 -0.4275 -0.5691
  509MOL0     C68636  11.058   6.752   2.649 -0.0228 -0.1137  0.8181
  509MOL0     C68637  11.100   6.812   2.768 -0.2373 -0.3349  0.2988
  509MOL0     C68638  11.026   6.810   2.884  0.3088  0.4199 -0.4967
  509MOL0     O68639  11.051   6.880   3.000 -0.4322 -1.0512 -0.7373
  509MOL0     C68640  11.175   6.951   3.007 -0.0830  0.1345 -0.3960
  509MOL0     C68641  11.183   7.016   3.144 -1.2357  0.1743  0.1400
  509MOL0     C68642  11.314   7.093   3.155  0.2188 -0.3586  0.7293
  509MOL0     C68643  11.439   7.025   3.216  0.0288  0.2510  0.2365
  509MOL0     C68644  11.432   6.998   3.359  0.1676 -0.6600 -0.2198
  509MOL0     C68645  11.440   6.975   3.475 -0.3805  0.4207  0.3829
  509MOL0     C68646  10.907   6.732   2.875 -0.1250  0.7956 -0.8640
  509MOL0     C68647  10.863   6.675   2.757  0.1178  0.7058 -1.0332
  509MOL0     H68648  10.738   6.653   2.301 -0.2067  0.4741 -0.3998
  509MOL0     H68649  10.675   6.603   2.058  0.5093  1.8559 -0.7406
  509MOL0     H68650  10.671   6.484   1.851  0.6679  1.1355  1.3961
  509MOL0     H68651  10.703   6.636   1.779  0.3320  0.0698 -1.8940
  509MOL0     H68652  10.871   6.410   1.656  1.0372  3.4852  0.0533
  509MOL0     H68653  10.695   6.380   1.636  0.5596 -0.2968 -0.5990
  509MOL0     H68654  10.696   6.639   1.550 -0.1324 -0.2987 -1.7845
  509MOL0     H68655  10.866   6.605   1.526  1.4429 -1.5434 -1.2652
  509MOL0     H68656  10.824   6.475   1.334  1.4637  0.9044  2.2626
  509MOL0     H68657  10.757   6.363   1.433 -1.7738 -0.2312 -0.0914
  509MOL0     H68658  10.632   6.623   1.315  0.2074  1.2381  4.4822
  509MOL0     H68659  10.636   6.480   1.218 -0.9108  1.6950 -1.1806
  509MOL0     H68660  10.479   6.371   1.398  0.6662 -0.3721  1.6717
  509MOL0     H68661  10.487   6.520   1.487 -0.8997 -0.9534 -0.2412
  509MOL0     H68662  10.278   6.537   1.380  1.4771  0.0104  2.0394
  509MOL0     H68663  10.378   6.658   1.301 -0.0088  0.5429  1.2008
  509MOL0     H68664  10.413   6.515   1.107  1.1525 -3.0238  0.8659
  509MOL0     H68665  10.244   6.544   1.132 -0.3900  0.4004  0.9081
  509MOL0     H68666  10.103   6.364   1.233  2.9204  2.0749 -0.3734
  509MOL0     H68667   9.976   6.127   1.143 -0.7389 -1.3333 -0.6003
  509MOL0     H68668  10.076   5.985   1.104 -4.1887 -0.0840  0.6155
  509MOL0     H68669  10.078   6.105   1.376 -0.7029 -0.7816 -0.3254
  509MOL0     H68670  10.120   5.936   1.351  0.7224  1.4544  1.9530
  509MOL0     H68671   9.889   5.887   1.268  0.0394 -2.7493  3.2955
  509MOL0     H68672   9.855   6.057   1.326  1.7025  2.4769 -0.7251
  509MOL0     H68673   9.883   5.980   1.549 -2.1600 -2.5722  3.0695
  509MOL0     H68674   9.994   5.858   1.517 -0.7426  2.7627  2.6027
  509MOL0     H68675   9.822   5.870   1.737  0.9779  0.5826  0.3307
  509MOL0     H68676   9.755   5.929   1.949  0.7159 -1.5426  1.6611
  509MOL0     H68677   9.584   5.946   2.003 -0.3747 -0.8651  0.2938
  509MOL0     H68678   9.651   5.792   2.005 -2.4385 -0.5731 -1.1733
  509MOL0     H68679   9.191   5.487   1.788 -0.1606  2.0002 -1.7487
  509MOL0     H68680   8.991   5.393   1.886 -0.6503  0.3856 -0.8781
  509MOL0     H68681   8.767   5.657   2.208 -2.6586  0.0340  2.3167
  509MOL0     H68682   8.729   5.495   2.255  1.8870 -2.1771  1.2293
  509MOL0     H68683   8.970   5.466   2.310 -2.7525 -2.1385  0.3404
  509MOL0     H68684   8.997   5.635   2.293 -0.0398 -0.6042  0.1880
  509MOL0     H68685   8.774   5.639   2.467  0.4441  0.7186 -0.1406
  509MOL0     H68686   8.937   5.613   2.531 -0.9607  1.2927  0.8249
  509MOL0     H68687   8.748   5.384   2.447 -1.7034 -1.4152  2.2821
  509MOL0     H68688   8.888   5.368   2.528 -0.6285 -0.7553  2.0872
  509MOL0     H68689   8.710   5.355   2.687  1.6189 -0.9109  0.0559
  509MOL0     H68690   8.672   5.532   2.679  0.4769 -1.3236  5.1344
  509MOL0     H68691   8.955   5.452   2.705 -1.5239 -0.9874 -3.0638
  509MOL0     H68692   8.877   5.597   2.749  0.6837 -0.2024  2.9650
  509MOL0     H68693   8.770   5.516   2.937 -0.7863 -0.1230 -1.7551
  509MOL0     H68694   8.946   5.487   2.956 -0.7206  1.2471  0.2053
  509MOL0     H68695   8.744   5.278   2.890  0.1890  0.4926 -1.2654
  509MOL0     H68696   8.839   5.280   3.042  1.3293 -0.6875 -0.0002
  509MOL0     H68697   8.934   5.770   2.105  0.7596  1.2005 -0.8512
  509MOL0     H68698   9.130   5.858   1.990  0.1033 -0.5633  0.9224
  509MOL0     H68699   9.354   5.753   1.607 -0.0744  0.3761  0.1571
  509MOL0     H68700   9.528   5.748   1.442 -2.7768  1.0614  0.6002
  509MOL0     H68701  11.102   6.493   2.000 -0.0220 -2.8612  0.7121
  509MOL0     H68702  11.145   6.585   2.224  1.6655 -3.8751 -1.0399
  509MOL0     H68703  11.126   6.757   2.564  2.0684  1.9601  2.4786
  509MOL0     H68704  11.189   6.874   2.772 -0.7065  0.5528 -1.5887
  509MOL0     H68705  11.247   6.871   2.991 -1.0192 -0.7770 -0.1279
  509MOL0     H68706  11.186   7.027   2.929 -1.1460  0.2912 -0.4097
  509MOL0     H68707  11.177   6.943   3.225  0.4805 -0.4400 -0.2472
  509MOL0     H68708  11.095   7.080   3.155 -2.5586 -1.8516  2.3809
  509MOL0     H68709  11.288   7.180   3.217 -0.4000 -2.3779  3.5133
  509MOL0     H68710  11.330   7.135   3.055 -3.0336 -2.3238 -0.8202
  509MOL0     H68711  11.529   7.085   3.200  0.5926 -0.8506 -0.8234
  509MOL0     H68712  11.447   6.931   3.161  2.2291 -0.5793  1.8097
  509MOL0     H68713  11.448   6.957   3.581 -0.6234  0.1141  0.3518
  509MOL0     H68714  10.840   6.730   2.960  2.4686  1.1979  1.2849
  509MOL0     H68715  10.762   6.637   2.745 -0.2598  2.2057 -3.0591
  510MOL0     O68716   6.338   2.118   8.351  0.9894  0.2742  0.0586
  510MOL0     C68717   6.331   2.034   8.264  0.2274 -0.7529  0.2928
  510MOL0     O68718   6.232   1.939   8.257 -0.5182 -1.0987  0.0579
  510MOL0     C68719   6.115   1.929   8.327 -1.0125  0.0576 -0.0021
  510MOL0     C68720   6.027   1.826   8.290 -0.0360 -0.0351 -0.1576
  510MOL0     C68721   5.904   1.823   8.354 -0.1492  0.5215  0.0684
  510MOL0     C68722   5.861   1.910   8.454 -0.1500 -0.7402  0.1178
  510MOL0     O68723   5.734   1.887   8.492 -0.3122  0.2493  0.0203
  510MOL0     C68724   5.701   1.909   8.629  0.0173  0.5372  0.1401
  510MOL0     C68725   5.546   1.901   8.644 -0.0327  0.1474  0.2208
  510MOL0     C68726   5.493   1.827   8.768  0.0637 -1.1407  0.0226
  510MOL0     C68727   5.338   1.796   8.754 -0.4403  0.1995  0.0034
  510MOL0     C68728   5.289   1.739   8.888  0.4257 -0.0185  0.3522
  510MOL0     C68729   5.141   1.736   8.890  0.3106  0.3109 -0.2378
  510MOL0     C68730   5.099   1.657   9.012  0.8149  0.4062  0.3935
  510MOL0     C68731   4.943   1.698   9.035 -0.8064  0.5622  0.3846
  510MOL0     N68732   4.921   1.790   9.142 -0.0565  0.2904 -0.2449
  510MOL0     C68733   4.811   1.866   9.148  0.5521 -0.5702 -0.0341
  510MOL0     C68734   4.823   1.948   9.260  1.0190 -0.0928 -0.4214
  510MOL0     C68735   4.727   2.055   9.318  0.2720  0.1333 -0.5009
  510MOL0     C68736   4.571   2.032   9.305  0.0047 -0.8469  0.3024
  510MOL0     C68737   4.517   1.887   9.323  0.2317  0.1571 -0.4194
  510MOL0     C68738   4.370   1.856   9.299  0.1521  0.7470  0.0703
  510MOL0     O68739   4.341   1.881   9.161  0.0942  0.0530 -0.4839
  510MOL0     C68740   4.248   1.807   9.090  0.1983  0.1769 -0.1533
  510MOL0     C68741   4.116   1.804   9.137 -0.5380 -0.1117 -0.0697
  510MOL0     C68742   4.012   1.765   9.055  0.1500  0.1563  0.4546
  510MOL0     C68743   3.881   1.768   9.127 -0.3631 -0.3753  0.2488
  510MOL0     C68744   4.031   1.722   8.917 -0.5078 -0.9203 -0.1912
  510MOL0     C68745   3.924   1.679   8.825  0.6294 -0.7614  0.8912
  510MOL0     O68746   3.966   1.686   8.694  0.1425  0.2039 -0.4723
  510MOL0     C68747   3.863   1.667   8.598  0.1477 -0.1168  0.3635
  510MOL0     C68748   3.743   1.736   8.605 -0.1433  0.8723 -0.3864
  510MOL0     C68749   3.640   1.735   8.505 -1.0948  0.0816  0.3375
  510MOL0     C68750   3.658   1.646   8.398 -0.0290 -0.3078  0.8448
  510MOL0     O68751   3.552   1.642   8.312 -0.3900 -0.2565  0.3670
  510MOL0     C68752   3.519   1.511   8.260 -0.0520  0.5328 -0.4098
  510MOL0     C68753   3.384   1.531   8.205 -0.3216  0.7851 -0.3278
  510MOL0     C68754   3.272   1.508   8.319  0.3978  0.1058  0.4358
  510MOL0     C68755   3.135   1.581   8.296 -0.5806  0.4444  0.8845
  510MOL0     C68756   3.142   1.730   8.308  1.3379  0.0560 -0.4265
  510MOL0     C68757   3.148   1.773   8.456 -0.2600  0.4647  0.2697
  510MOL0     C68758   3.137   1.923   8.463  0.1942  0.0655 -0.2113
  510MOL0     C68759   3.150   1.969   8.610  0.1664 -0.4169  0.2212
  510MOL0    Cl68760   3.301   1.919   8.687  0.2480  0.1138  0.7924
  510MOL0     C68761   3.778   1.579   8.387 -0.1791  0.0214  0.0647
  510MOL0     C68762   3.881   1.583   8.483  0.5422 -0.2813  0.7087
  510MOL0     O68763   3.816   1.631   8.870 -0.2750 -0.3190  0.2923
  510MOL0     C68764   4.170   1.719   8.869 -0.1701 -0.5786  0.0988
  510MOL0     C68765   4.269   1.766   8.951 -0.5298  0.0081 -0.6746
  510MOL0     N68766   4.940   1.907   9.319  0.6582  0.2429  0.1801
  510MOL0     N68767   5.001   1.818   9.245 -0.1254  0.1829 -0.0266
  510MOL0     C68768   5.944   2.016   8.490 -0.4587  0.3512  0.5340
  510MOL0     C68769   6.070   2.019   8.431  0.2038  1.6184  0.5263
  510MOL0     C68770   6.445   2.027   8.175 -0.7232 -0.0120  0.9980
  510MOL0     C68771   6.561   2.104   8.194 -0.6928 -0.3059  0.6417
  510MOL0     C68772   6.671   2.075   8.113 -0.5674  0.5250  0.0870
  510MOL0     C68773   6.672   1.982   8.004  0.3292 -1.4620 -0.5306
  510MOL0     O68774   6.775   1.961   7.912  0.0989 -0.7943  0.1594
  510MOL0     C68775   6.904   2.031   7.912  0.2558  1.2084  0.3425
  510MOL0     C68776   6.988   1.986   7.785  0.1123  0.2620 -0.0741
  510MOL0     C68777   7.028   1.841   7.810  0.5343 -0.0618 -0.1380
  510MOL0     C68778   7.106   1.763   7.694 -0.2877 -0.5286 -0.1666
  510MOL0     C68779   7.247   1.799   7.668  0.6568  0.3381 -0.3212
  510MOL0     C68780   7.361   1.818   7.642  0.1774  0.5515 -0.8034
  510MOL0     C68781   6.557   1.909   7.978  0.6193  0.3698 -0.1685
  510MOL0     C68782   6.450   1.926   8.067  0.2122  0.9440 -0.5704
  510MOL0     H68783   6.040   1.760   8.204 -0.4498 -0.9423  0.4558
  510MOL0     H68784   5.836   1.748   8.315  0.2028 -1.3219  2.7811
  510MOL0     H68785   5.754   1.824   8.673 -1.1437 -0.9229 -1.1815
  510MOL0     H68786   5.742   2.003   8.666 -1.6167  0.0864  3.4958
  510MOL0     H68787   5.506   2.002   8.633  0.0305  0.2413  0.8027
  510MOL0     H68788   5.514   1.843   8.558  0.6447  1.9690 -1.3349
  510MOL0     H68789   5.553   1.736   8.774  0.5256 -0.8356  0.1528
  510MOL0     H68790   5.501   1.887   8.859 -0.8286  0.1991 -0.7408
  510MOL0     H68791   5.280   1.888   8.739  1.4215  1.6003  1.0095
  510MOL0     H68792   5.320   1.740   8.662 -1.6759 -2.0741  1.4999
  510MOL0     H68793   5.322   1.635   8.884 -0.3188 -0.2297 -1.2945
  510MOL0     H68794   5.330   1.802   8.967  0.3634  0.9883 -0.3937
  510MOL0     H68795   5.103   1.838   8.883 -1.1331 -0.1114  0.8724
  510MOL0     H68796   5.108   1.690   8.797  0.9988  2.6786 -1.7310
  510MOL0     H68797   5.119   1.551   8.994  2.4967  0.9048 -0.9600
  510MOL0     H68798   5.156   1.677   9.103 -0.9107 -0.4437  1.7142
  510MOL0     H68799   4.887   1.606   9.054 -0.0739 -1.3308 -4.8988
  510MOL0     H68800   4.900   1.750   8.949  2.3482  3.4151  0.3091
  510MOL0     H68801   4.729   1.870   9.077 -1.0864 -2.3057  1.6629
  510MOL0     H68802   4.750   2.055   9.425 -2.5228 -3.2531  0.2991
  510MOL0     H68803   4.754   2.154   9.280 -1.7114  0.8624 -0.1660
  510MOL0     H68804   4.531   2.068   9.210 -0.0099  0.2814  0.7175
  510MOL0     H68805   4.525   2.089   9.387 -3.0081 -1.8339 -0.5470
  510MOL0     H68806   4.529   1.869   9.431 -1.2756  1.9894  0.1011
  510MOL0     H68807   4.584   1.812   9.279 -0.7767 -0.5332 -0.8282
  510MOL0     H68808   4.309   1.909   9.373 -0.9859 -0.9145  0.3865
  510MOL0     H68809   4.356   1.749   9.320 -0.0684  0.9563  1.0580
  510MOL0     H68810   4.100   1.847   9.235 -1.4678 -1.4637  0.4141
  510MOL0     H68811   3.875   1.861   9.185  0.1348  1.0348 -1.8420
  510MOL0     H68812   3.805   1.763   9.048  2.7041  3.3174 -3.3625
  510MOL0     H68813   3.872   1.678   9.188  0.0485 -1.4356 -1.2039
  510MOL0     H68814   3.719   1.802   8.688  0.9147  0.2643  0.4300
  510MOL0     H68815   3.536   1.764   8.516 -1.5706 -1.7272  0.9585
  510MOL0     H68816   3.590   1.487   8.180  0.8582  2.1285 -0.1237
  510MOL0     H68817   3.512   1.437   8.340 -0.8399 -0.5933 -1.4850
  510MOL0     H68818   3.383   1.633   8.165  0.3963  0.4689 -1.1867
  510MOL0     H68819   3.376   1.454   8.128 -0.6911  1.8923 -1.4354
  510MOL0     H68820   3.323   1.530   8.413  0.9399 -1.0944  0.4348
  510MOL0     H68821   3.249   1.401   8.316 -1.6006  0.5025  0.2798
  510MOL0     H68822   3.104   1.557   8.194  1.0402  2.3264 -0.1198
  510MOL0     H68823   3.053   1.554   8.363 -1.3733  1.0253  0.1699
  510MOL0     H68824   3.050   1.768   8.263 -0.3016 -1.1056  1.7121
  510MOL0     H68825   3.229   1.775   8.259  1.5665 -0.0957 -0.1592
  510MOL0     H68826   3.063   1.723   8.504 -0.1736 -1.9064 -1.8287
  510MOL0     H68827   3.239   1.742   8.507  0.5085  5.2065  2.3550
  510MOL0     H68828   3.049   1.970   8.418  2.1857  1.7132 -2.6406
  510MOL0     H68829   3.212   1.967   8.397 -2.1718  0.3515 -2.8991
  510MOL0     H68830   3.067   1.929   8.669  0.4526 -0.4494  0.6055
  510MOL0     H68831   3.142   2.078   8.609 -0.7038 -0.4462 -1.8629
  510MOL0     H68832   3.799   1.512   8.305  2.4353  0.3738  0.3676
  510MOL0     H68833   3.973   1.525   8.478  0.4749 -0.3248 -0.0782
  510MOL0     H68834   4.187   1.690   8.766 -2.9187  0.4276 -0.7245
  510MOL0     H68835   4.372   1.775   8.921 -0.3794 -0.5558 -0.3491
  510MOL0     H68836   5.912   2.098   8.553 -2.9871  0.9021 -1.3194
  510MOL0     H68837   6.139   2.098   8.461  4.8357 -0.8104 -2.4516
  510MOL0     H68838   6.576   2.177   8.273 -0.0774 -1.6324  1.7997
  510MOL0     H68839   6.758   2.138   8.127  0.0921 -0.6711  1.7563
  510MOL0     H68840   6.896   2.140   7.911  0.1046  1.2223 -2.0562
  510MOL0     H68841   6.959   2.006   8.003 -1.4657 -1.6081  0.7403
  510MOL0     H68842   7.079   2.045   7.771 -0.8123  1.7642  0.0821
  510MOL0     H68843   6.928   1.998   7.694 -0.5909  1.9716  0.5755
  510MOL0     H68844   6.928   1.799   7.824  0.6615 -0.7684 -1.2146
  510MOL0     H68845   7.088   1.839   7.901  3.7600  0.0114 -2.0901
  510MOL0     H68846   7.047   1.765   7.602 -0.8997  0.8918  0.2363
  510MOL0     H68847   7.127   1.663   7.732  1.6088  0.2135  0.8446
  510MOL0     H68848   7.461   1.843   7.614  0.2287 -2.5088 -4.0407
  510MOL0     H68849   6.557   1.827   7.907  2.4331 -0.7604  1.0368
  510MOL0     H68850   6.373   1.850   8.058 -0.3351  1.4780 -0.4441
  511MOL0     O68851  11.287   8.929   4.493  0.0561  0.7216  0.4976
  511MOL0     C68852  11.233   8.866   4.402  0.4811  0.6479  0.3545
  511MOL0     O68853  11.280   8.864   4.273 -0.1418 -0.4232 -0.6986
  511MOL0     C68854  11.331   8.987   4.237 -0.1944  0.3507  0.0435
  511MOL0     C68855  11.465   8.981   4.191  0.2600 -0.1057  0.0207
  511MOL0     C68856  11.535   9.101   4.166  0.0317  1.1310 -0.1599
  511MOL0     C68857  11.483   9.222   4.195 -0.3319 -0.0575  0.2229
  511MOL0     O68858  11.554   9.339   4.169  0.2300 -0.2096  0.3989
  511MOL0     C68859  11.516   9.476   4.186 -0.1078 -0.8458 -0.4893
  511MOL0     C68860  11.601   9.568   4.099  0.3937  0.9940  0.4081
  511MOL0     C68861  11.564   9.535   3.949  0.1823 -0.7399 -0.1689
  511MOL0     C68862  11.623   9.649   3.852  0.4330  0.4607 -0.8918
  511MOL0     C68863  11.617   9.609   3.712  0.1314  0.2012 -0.7289
  511MOL0     C68864  11.469   9.603   3.666 -0.5878  0.5839  0.3517
  511MOL0     C68865  11.441   9.628   3.519 -0.1689 -0.4868  0.0760
  511MOL0     C68866  11.293   9.593   3.483  0.2680 -0.7380 -0.8217
  511MOL0     N68867  11.198   9.699   3.518  0.5701 -0.0746  0.6247
  511MOL0     C68868  11.109   9.707   3.615 -0.7224  0.1784 -0.2028
  511MOL0     C68869  11.050   9.825   3.622 -0.0694  0.4460  0.3432
  511MOL0     C68870  10.944   9.862   3.721 -0.0958  0.3591 -0.3493
  511MOL0     C68871  11.007   9.860   3.862  0.7562 -0.9734 -0.2140
  511MOL0     C68872  10.902   9.921   3.970 -0.3497  0.2489  0.2749
  511MOL0     C68873  10.789   9.824   3.989  0.2007 -0.3391 -0.1431
  511MOL0     O68874  10.695   9.889   4.079  0.7412 -0.6559  0.1636
  511MOL0     C68875  10.589   9.936   4.004  0.0016  0.1769 -0.3573
  511MOL0     C68876  10.601   9.990   3.876 -0.6994  0.2766  0.0053
  511MOL0     C68877  10.497  10.031   3.801  0.4587  1.0566  0.0591
  511MOL0     C68878  10.539  10.090   3.662 -0.6026  0.3905 -0.7521
  511MOL0     C68879  10.370  10.032   3.861  0.2821 -0.1881 -0.5773
  511MOL0     C68880  10.248  10.070   3.790  0.5793 -0.1974 -0.7986
  511MOL0     O68881  10.135  10.058   3.869 -0.1910  0.2714  1.0045
  511MOL0     C68882  10.016  10.030   3.805  0.0021  0.9922  0.6508
  511MOL0     C68883   9.919  10.126   3.801  0.5765 -0.1995  0.7552
  511MOL0     C68884   9.788  10.116   3.753  0.0873 -0.2678  0.8965
  511MOL0     C68885   9.747   9.991   3.691 -0.1236  0.3469 -0.5745
  511MOL0     O68886   9.633   9.980   3.619 -0.3740 -0.4658  0.0417
  511MOL0     C68887   9.510  10.017   3.691 -0.9168 -0.9894  0.1024
  511MOL0     C68888   9.412  10.012   3.577 -0.1517 -0.9622  0.9258
  511MOL0     C68889   9.269  10.047   3.619 -0.5991  0.3575 -0.4051
  511MOL0     C68890   9.202   9.930   3.684 -0.2922  0.2323  0.1866
  511MOL0     C68891   9.054   9.948   3.677  0.1114  1.1468  0.1043
  511MOL0     C68892   8.994   9.826   3.753 -0.1678 -0.0380  0.4266
  511MOL0     C68893   8.834   9.833   3.753 -0.0304 -0.7806  0.6149
  511MOL0     C68894   8.762   9.717   3.818 -0.4346 -0.0173 -0.1118
  511MOL0    Cl68895   8.593   9.765   3.836  0.0587 -0.0927 -0.4215
  511MOL0     C68896   9.844   9.886   3.691 -0.0774  0.4520 -0.1467
  511MOL0     C68897   9.977   9.911   3.739  1.1424  1.1689 -0.1246
  511MOL0     O68898  10.250  10.114   3.678  0.5850 -0.0107  0.2066
  511MOL0     C68899  10.356   9.984   3.996 -0.4865 -0.3779 -0.0598
  511MOL0     C68900  10.461   9.935   4.064  0.2509  0.3044  0.4132
  511MOL0     N68901  11.115   9.896   3.528 -0.4353 -0.3864  0.5225
  511MOL0     N68902  11.197   9.825   3.465 -0.4585  0.4161 -1.0577
  511MOL0     C68903  11.352   9.230   4.233  0.3699 -0.1807  0.3992
  511MOL0     C68904  11.278   9.112   4.247  0.9490  0.5123 -0.2481
  511MOL0     C68905  11.116   8.787   4.439  0.3656 -0.0625 -0.3950
  511MOL0     C68906  11.049   8.721   4.333  0.0648  0.0279 -0.5926
  511MOL0     C68907  10.939   8.637   4.366  0.2301  0.3832  0.5191
  511MOL0     C68908  10.903   8.620   4.502  0.3821 -0.3050  0.3267
  511MOL0     O68909  10.802   8.523   4.510 -0.4706  0.4984 -0.6047
  511MOL0     C68910  10.749   8.507   4.644 -0.2914 -0.7110  0.0805
  511MOL0     C68911  10.690   8.367   4.660  0.5737  0.2069  0.1782
  511MOL0     C68912  10.578   8.357   4.558  1.2218 -0.3529  0.2221
  511MOL0     C68913  10.486   8.239   4.568  0.5148  0.8901 -0.0268
  511MOL0     C68914  10.378   8.256   4.672 -0.3892  0.7010 -0.6907
  511MOL0     C68915  10.299   8.289   4.764  0.5236 -0.2315 -0.2600
  511MOL0     C68916  10.976   8.683   4.606 -1.2841 -1.1337 -0.3294
  511MOL0     C68917  11.072   8.769   4.566  0.9452 -0.0795 -0.7866
  511MOL0     H68918  11.525   8.893   4.173  0.9177  0.7469 -2.3604
  511MOL0     H68919  11.641   9.104   4.144  0.5358  2.4432  2.0892
  511MOL0     H68920  11.410   9.496   4.165 -0.1978  0.7961  1.3045
  511MOL0     H68921  11.538   9.507   4.288 -3.5534 -0.5148  0.2846
  511MOL0     H68922  11.601   9.675   4.121  0.5394  0.8655  1.0428
  511MOL0     H68923  11.708   9.543   4.101  0.6230  1.4893 -2.1875
  511MOL0     H68924  11.595   9.435   3.919 -0.8047 -0.6479 -1.6022
  511MOL0     H68925  11.456   9.544   3.933  0.0339  2.6505  1.6844
  511MOL0     H68926  11.557   9.734   3.873 -0.4477 -0.2586 -0.6595
  511MOL0     H68927  11.728   9.671   3.872  1.3610 -3.5257 -0.5540
  511MOL0     H68928  11.673   9.677   3.648 -1.2355 -0.0215 -2.2246
  511MOL0     H68929  11.657   9.509   3.696  0.7205  0.3567 -0.2457
  511MOL0     H68930  11.431   9.505   3.696 -2.6713  1.1504 -0.2975
  511MOL0     H68931  11.408   9.677   3.720  0.2305  0.1187  1.9636
  511MOL0     H68932  11.467   9.731   3.494 -0.7293  0.2055  2.1425
  511MOL0     H68933  11.511   9.564   3.465  0.4034  0.5029 -0.3872
  511MOL0     H68934  11.258   9.510   3.546 -1.1482  0.2132 -0.3129
  511MOL0     H68935  11.289   9.569   3.376 -1.3988 -0.3136 -0.8736
  511MOL0     H68936  11.077   9.616   3.665  0.9259 -1.0704 -1.2918
  511MOL0     H68937  10.915   9.967   3.712 -2.5465 -0.2562 -0.4587
  511MOL0     H68938  10.853   9.800   3.722  0.0041  0.2093 -0.5524
  511MOL0     H68939  11.100   9.918   3.861 -0.2918  0.8105 -0.3085
  511MOL0     H68940  11.022   9.758   3.897  2.0647 -1.2625 -1.5082
  511MOL0     H68941  10.873  10.019   3.931  0.8632  1.4357  2.1861
  511MOL0     H68942  10.956   9.934   4.064 -0.2200 -1.3813  0.4558
  511MOL0     H68943  10.817   9.726   4.029 -1.7164 -1.3819 -1.1893
  511MOL0     H68944  10.746   9.786   3.896 -0.3438 -1.8065  0.6685
  511MOL0     H68945  10.695  10.013   3.826 -1.0371 -0.2020 -0.8559
  511MOL0     H68946  10.619  10.026   3.624  1.7801  2.0080  1.2060
  511MOL0     H68947  10.464  10.086   3.583 -2.3398 -1.8108  0.8681
  511MOL0     H68948  10.581  10.187   3.689 -0.2002 -0.3007  1.2860
  511MOL0     H68949   9.949  10.227   3.827 -2.7467  1.2046 -0.3681
  511MOL0     H68950   9.736  10.210   3.739  0.3660 -0.4219 -1.7251
  511MOL0     H68951   9.488   9.936   3.762  3.3148 -2.4612  0.0081
  511MOL0     H68952   9.521  10.120   3.725 -2.9597 -0.6815 -0.0415
  511MOL0     H68953   9.440  10.101   3.520  0.4988  1.0825  4.1553
  511MOL0     H68954   9.420   9.931   3.505 -1.1572  0.6492 -1.1029
  511MOL0     H68955   9.216  10.063   3.525  1.7037 -1.2410 -2.0755
  511MOL0     H68956   9.264  10.130   3.690  0.7025  0.0367  0.0942
  511MOL0     H68957   9.222   9.836   3.631 -2.1194 -0.3979  0.5273
  511MOL0     H68958   9.226   9.904   3.787 -2.1021  0.1059  0.6014
  511MOL0     H68959   9.010   9.960   3.578 -1.4900  1.0996  0.7628
  511MOL0     H68960   9.030  10.040   3.732 -0.7806 -0.1481  2.0022
  511MOL0     H68961   9.036   9.743   3.694  1.2044  0.4176  0.7193
  511MOL0     H68962   9.030   9.824   3.856 -0.0338 -0.1349  0.3778
  511MOL0     H68963   8.787   9.849   3.656  1.6102 -0.8164 -0.2174
  511MOL0     H68964   8.795   9.924   3.801 -2.5725 -1.1177 -0.6362
  511MOL0     H68965   8.813   9.699   3.913 -0.2002  2.5003  0.3088
  511MOL0     H68966   8.777   9.629   3.756  2.9375 -1.0470  1.8888
  511MOL0     H68967   9.822   9.786   3.656 -2.4857  0.3627  1.3361
  511MOL0     H68968  10.045   9.826   3.735 -0.1539  0.1089 -0.3390
  511MOL0     H68969  10.262   9.985   4.050  0.6176 -2.5609  2.0746
  511MOL0     H68970  10.454   9.880   4.157  1.3217  0.8921  0.8630
  511MOL0     H68971  11.302   9.323   4.262  0.0827 -1.0496  2.9775
  511MOL0     H68972  11.173   9.129   4.267  0.0338 -2.4249 -1.9558
  511MOL0     H68973  11.079   8.728   4.229  2.2224  0.4566  0.0207
  511MOL0     H68974  10.895   8.592   4.278  2.2658 -4.5026  1.6582
  511MOL0     H68975  10.823   8.522   4.724 -3.1691  0.3119  2.7803
  511MOL0     H68976  10.671   8.579   4.670  0.0321 -0.6626  0.9862
  511MOL0     H68977  10.647   8.345   4.757  1.2197 -1.8876  0.0558
  511MOL0     H68978  10.756   8.283   4.634 -0.1815 -0.4671  0.3786
  511MOL0     H68979  10.625   8.345   4.459  0.4100 -2.4278  0.0487
  511MOL0     H68980  10.518   8.448   4.557 -1.5929 -2.0474 -2.6544
  511MOL0     H68981  10.549   8.156   4.600  1.7748  2.1911  0.9598
  511MOL0     H68982  10.443   8.217   4.469 -1.5617 -1.0423  1.1998
  511MOL0     H68983  10.228   8.324   4.836  0.4239 -0.5962 -0.1799
  511MOL0     H68984  10.962   8.675   4.713 -1.0961  3.2938  0.2159
  511MOL0     H68985  11.130   8.814   4.646  1.7037 -0.0800 -1.3254
  512MOL0     O68986   3.677   5.600   5.338  0.1621  0.7304  0.3118
  512MOL0     C68987   3.562   5.619   5.297 -0.7832 -0.4318  0.6915
  512MOL0     O68988   3.456   5.636   5.380 -0.2188 -0.4417 -0.1551
  512MOL0     C68989   3.484   5.637   5.522 -0.4176  0.1446 -1.2656
  512MOL0     C68990   3.470   5.514   5.597 -0.3725 -0.7321  0.7475
  512MOL0     C68991   3.496   5.505   5.739  0.5813 -0.3251  0.2575
  512MOL0     C68992   3.525   5.628   5.798 -0.1809 -0.4767  0.1442
  512MOL0     O68993   3.536   5.637   5.933 -0.2342  0.1128 -0.4771
  512MOL0     C68994   3.415   5.613   5.996  0.4215  0.2417  0.4628
  512MOL0     C68995   3.425   5.624   6.144  0.2273 -0.0167 -1.0010
  512MOL0     C68996   3.329   5.515   6.211  0.1391 -0.0337 -0.3658
  512MOL0     C68997   3.322   5.537   6.364 -0.6481 -0.3024 -1.0494
  512MOL0     C68998   3.197   5.473   6.432 -0.5024 -0.5065 -0.5831
  512MOL0     C68999   3.205   5.521   6.578  1.4621  0.2927 -0.3302
  512MOL0     C69000   3.091   5.469   6.666  0.1660 -0.3196 -0.6968
  512MOL0     C69001   2.949   5.469   6.601 -0.0240 -0.0209  0.1313
  512MOL0     N69002   2.844   5.407   6.691 -0.3439 -0.6586  0.7027
  512MOL0     C69003   2.835   5.273   6.724 -0.0735 -1.6451  1.4093
  512MOL0     C69004   2.722   5.276   6.804 -0.7467  0.5675 -0.8031
  512MOL0     C69005   2.638   5.159   6.856 -0.5427  0.2301 -0.8083
  512MOL0     C69006   2.598   5.050   6.744  0.4430 -0.3929 -0.4045
  512MOL0     C69007   2.442   5.058   6.729 -0.7339  0.2957  0.2408
  512MOL0     C69008   2.395   4.936   6.645 -0.7155  0.1912 -0.8276
  512MOL0     O69009   2.348   4.825   6.719  0.7615 -0.2916  0.0074
  512MOL0     C69010   2.229   4.765   6.672 -0.4275 -0.4955  0.2837
  512MOL0     C69011   2.214   4.723   6.544 -0.2577 -0.4882  0.6388
  512MOL0     C69012   2.090   4.686   6.495 -0.3688 -0.3207  0.1430
  512MOL0     C69013   2.077   4.661   6.341  0.0210  0.5640 -0.6748
  512MOL0     C69014   1.976   4.672   6.578  0.0084 -0.9303  0.7928
  512MOL0     C69015   1.863   4.593   6.533  0.3047 -0.1678  0.1993
  512MOL0     O69016   1.740   4.647   6.578 -0.7196  0.4915  0.4151
  512MOL0     C69017   1.626   4.630   6.496 -0.7497  0.5524 -0.0767
  512MOL0     C69018   1.497   4.628   6.551 -0.4255  0.1820 -0.1334
  512MOL0     C69019   1.382   4.586   6.483  0.4289  0.7328 -0.8945
  512MOL0     C69020   1.393   4.549   6.351  0.4383  0.8984  0.9021
  512MOL0     O69021   1.274   4.536   6.274 -0.9888 -0.4490 -0.8247
  512MOL0     C69022   1.276   4.547   6.128  0.1890 -0.4879  0.5455
  512MOL0     C69023   1.137   4.498   6.075  0.8630 -0.3267 -0.0919
  512MOL0     C69024   1.017   4.572   6.136 -0.5938 -0.4987  0.5438
  512MOL0     C69025   0.993   4.706   6.056 -0.4027 -0.4248 -0.2238
  512MOL0     C69026   0.943   4.824   6.142  0.4213  0.4468 -0.2344
  512MOL0     C69027   0.795   4.821   6.161  0.6390  0.5539  0.5010
  512MOL0     C69028   0.699   4.839   6.033  0.2800  0.5795 -0.9961
  512MOL0     C69029   0.717   4.986   5.984 -0.2839 -0.1198  0.0234
  512MOL0    Cl69030   0.601   5.026   5.863  0.3288 -0.3530 -0.6312
  512MOL0     C69031   1.517   4.558   6.290  0.1483 -1.0174 -0.3308
  512MOL0     C69032   1.634   4.597   6.360  0.2314  0.1214 -0.1138
  512MOL0     O69033   1.875   4.491   6.462  0.4085  0.0054  0.1403
  512MOL0     C69034   1.990   4.720   6.711  0.0489  0.0662  0.0308
  512MOL0     C69035   2.114   4.763   6.758 -0.3116 -0.5502  0.5237
  512MOL0     N69036   2.695   5.401   6.835  0.2229  0.2505  0.5504
  512MOL0     N69037   2.777   5.484   6.777 -0.3799  0.8597  0.1740
  512MOL0     C69038   3.542   5.748   5.727 -0.2125  0.6124  0.2887
  512MOL0     C69039   3.532   5.749   5.586 -0.1735  0.0598  0.0687
  512MOL0     C69040   3.537   5.606   5.146 -0.2845 -0.1705 -0.3955
  512MOL0     C69041   3.420   5.577   5.084  1.0004  0.3005 -0.2092
  512MOL0     C69042   3.410   5.570   4.953  0.6352 -1.2095  0.6363
  512MOL0     C69043   3.525   5.594   4.871  0.2176  0.2659  1.3660
  512MOL0     O69044   3.506   5.584   4.738  0.6674 -0.1643  0.4059
  512MOL0     C69045   3.615   5.629   4.660  0.7350  0.4746  0.0034
  512MOL0     C69046   3.557   5.622   4.520 -0.1509  0.1505  0.1984
  512MOL0     C69047   3.441   5.711   4.477 -0.3438 -0.6115  0.6865
  512MOL0     C69048   3.309   5.668   4.536  0.8974 -0.5679  0.2710
  512MOL0     C69049   3.209   5.647   4.426  0.1780  0.0055  0.5407
  512MOL0     C69050   3.138   5.651   4.328  0.5226  0.6844  0.2102
  512MOL0     C69051   3.650   5.623   4.932 -0.2994 -0.6053  0.3002
  512MOL0     C69052   3.651   5.629   5.069  0.2841 -0.7491 -0.1726
  512MOL0     H69053   3.438   5.422   5.549  0.0220 -1.7958  2.4571
  512MOL0     H69054   3.494   5.414   5.799 -0.2561 -0.4573  0.0439
  512MOL0     H69055   3.323   5.661   5.960 -0.6882 -1.6347  0.6465
  512MOL0     H69056   3.393   5.506   5.985 -1.6315  0.4325  2.0590
  512MOL0     H69057   3.528   5.601   6.173  1.5646  1.6833 -3.9292
  512MOL0     H69058   3.399   5.726   6.176 -0.7875 -0.6475  0.2657
  512MOL0     H69059   3.229   5.522   6.168  0.0834  1.8132 -0.0275
  512MOL0     H69060   3.361   5.413   6.189 -1.5058 -1.0248  1.6314
  512MOL0     H69061   3.410   5.494   6.413 -0.6964 -2.1558 -2.4645
  512MOL0     H69062   3.335   5.643   6.388 -1.2882 -0.5057  0.2546
  512MOL0     H69063   3.106   5.507   6.382  0.3162  1.0503 -1.0771
  512MOL0     H69064   3.201   5.364   6.430 -2.1738 -0.6358  0.7626
  512MOL0     H69065   3.303   5.498   6.621  2.8194  2.6240 -1.9569
  512MOL0     H69066   3.197   5.630   6.578  0.1266  0.2095  0.1584
  512MOL0     H69067   3.103   5.366   6.699 -2.9776 -1.5139 -2.9026
  512MOL0     H69068   3.103   5.537   6.752  0.1966 -1.5336  0.2883
  512MOL0     H69069   2.958   5.405   6.513 -1.4216 -0.4663  0.2798
  512MOL0     H69070   2.914   5.569   6.573 -1.5742 -0.8682 -1.1411
  512MOL0     H69071   2.890   5.188   6.685  1.3561 -0.9721  1.8739
  512MOL0     H69072   2.695   5.111   6.936  2.3495  3.2491 -0.8188
  512MOL0     H69073   2.552   5.198   6.912 -0.9639 -1.7328 -0.0365
  512MOL0     H69074   2.625   4.956   6.792 -0.0924  1.1799  3.3224
  512MOL0     H69075   2.640   5.070   6.645 -0.6680 -0.3160 -0.8717
  512MOL0     H69076   2.415   5.142   6.665 -2.2076 -0.5496 -0.3058
  512MOL0     H69077   2.396   5.061   6.829 -2.2836  1.5578 -0.4511
  512MOL0     H69078   2.458   4.905   6.562  0.9773  1.0834  0.0723
  512MOL0     H69079   2.305   4.985   6.606 -0.5479  1.9702  0.8429
  512MOL0     H69080   2.299   4.733   6.477 -0.4968 -0.5628  0.3163
  512MOL0     H69081   1.981   4.676   6.293 -0.0450  2.9247  0.0334
  512MOL0     H69082   2.149   4.725   6.290  0.3171 -0.0107 -0.9904
  512MOL0     H69083   2.114   4.558   6.336  1.7531  1.0161  1.1225
  512MOL0     H69084   1.473   4.660   6.652  1.0670 -3.2280  1.4648
  512MOL0     H69085   1.296   4.596   6.550  0.2100 -0.7816 -0.9177
  512MOL0     H69086   1.285   4.650   6.092 -1.0361 -1.4812 -3.0678
  512MOL0     H69087   1.359   4.486   6.088 -1.1585 -2.3603  0.4691
  512MOL0     H69088   1.129   4.504   5.966 -0.5847  0.6154  0.0379
  512MOL0     H69089   1.117   4.394   6.103  2.5229 -0.3037  1.3787
  512MOL0     H69090   1.036   4.581   6.243  1.9202  1.0149  0.0506
  512MOL0     H69091   0.926   4.513   6.123 -1.7867  1.7622 -2.4464
  512MOL0     H69092   1.081   4.741   6.002  1.1443  0.3843  2.5791
  512MOL0     H69093   0.916   4.691   5.980 -2.8058 -1.1068  2.1716
  512MOL0     H69094   0.977   4.917   6.094  0.7698  0.6476  0.3885
  512MOL0     H69095   0.994   4.833   6.238  1.7477  3.5722 -1.0939
  512MOL0     H69096   0.767   4.719   6.189  2.1112  0.3767  1.4064
  512MOL0     H69097   0.756   4.896   6.231 -2.4682 -1.6543  1.3661
  512MOL0     H69098   0.595   4.825   6.061  0.9548 -0.1614  1.4447
  512MOL0     H69099   0.728   4.764   5.959 -0.2309 -2.4472  1.6445
  512MOL0     H69100   0.822   5.015   5.977  0.0632 -1.1819  0.6532
  512MOL0     H69101   0.703   5.064   6.059  1.6979 -0.8847  1.2672
  512MOL0     H69102   1.533   4.548   6.183 -0.7087  2.7707 -0.9585
  512MOL0     H69103   1.734   4.603   6.318  1.1268 -2.0615  1.5345
  512MOL0     H69104   1.908   4.711   6.782  0.4979 -0.5264  0.4826
  512MOL0     H69105   2.124   4.800   6.860  1.1326  0.5868  0.0034
  512MOL0     H69106   3.567   5.848   5.762  1.2106 -0.0328  1.2267
  512MOL0     H69107   3.561   5.838   5.531  1.7792 -1.1723 -0.9812
  512MOL0     H69108   3.339   5.573   5.156  1.7523 -0.2740  0.6384
  512MOL0     H69109   3.320   5.542   4.897  1.5908 -1.8396 -0.6431
  512MOL0     H69110   3.651   5.729   4.684  0.1025  0.6127  0.4020
  512MOL0     H69111   3.696   5.559   4.679  0.9981  0.8577  0.2968
  512MOL0     H69112   3.527   5.518   4.508 -1.9223  0.9570 -4.1584
  512MOL0     H69113   3.638   5.635   4.448 -0.3311 -2.7060 -0.6424
  512MOL0     H69114   3.449   5.719   4.368  1.4313  1.7791  0.9073
  512MOL0     H69115   3.459   5.814   4.507 -0.0778 -0.3677 -0.2665
  512MOL0     H69116   3.268   5.740   4.607 -1.2880 -3.4701  2.1878
  512MOL0     H69117   3.312   5.571   4.588 -2.0363 -1.3158 -0.7960
  512MOL0     H69118   3.072   5.651   4.243 -0.0402  0.3240  0.6410
  512MOL0     H69119   3.741   5.648   4.878 -1.0670  3.5672  0.5808
  512MOL0     H69120   3.748   5.658   5.109  1.6679 -3.1089 -1.5948
  513MOL0     O69121   0.401   8.094   0.048 -0.2364 -0.2512 -0.0688
  513MOL0     C69122   0.452   8.069  -0.061  0.9970 -0.6222 -0.2648
  513MOL0     O69123   0.421   7.962  -0.137  0.3749  0.6370  0.0821
  513MOL0     C69124   0.348   7.864  -0.084  1.2157  0.6702 -0.2502
  513MOL0     C69125   0.395   7.743  -0.023  0.4266  0.5763 -0.2782
  513MOL0     C69126   0.308   7.654   0.039  0.4808  0.2232  0.0011
  513MOL0     C69127   0.174   7.677   0.045 -0.0994  0.8574  0.2058
  513MOL0     O69128   0.077   7.593   0.107  0.1602 -0.8815 -0.3619
  513MOL0     C69129   0.123   7.512   0.207  0.3394  0.5791 -0.7684
  513MOL0     C69130   0.000   7.453   0.266  0.5092 -0.5794  0.5839
  513MOL0     C69131   0.025   7.341   0.366 -0.2493  0.7362  0.1440
  513MOL0     C69132  -0.039   7.363   0.517  0.1975  0.2329  0.9162
  513MOL0     C69133  -0.036   7.233   0.590  0.1387 -0.4032 -0.0007
  513MOL0     C69134  -0.104   7.258   0.727  0.1735  0.0403 -1.2671
  513MOL0     C69135  -0.083   7.139   0.815 -0.2501 -0.0076  0.0801
  513MOL0     C69136   0.058   7.162   0.885  1.0839 -0.2727  0.7353
  513MOL0     N69137   0.124   7.039   0.914 -0.0801  0.0899  0.6120
  513MOL0     C69138   0.098   6.942   1.011 -0.4020  0.6219 -0.2504
  513MOL0     C69139   0.186   6.845   0.986  0.2445 -1.1066 -0.2875
  513MOL0     C69140   0.196   6.714   1.059  0.5671  0.2041 -0.2209
  513MOL0     C69141   0.136   6.589   0.981 -0.0293  0.0115  0.5175
  513MOL0     C69142  -0.019   6.570   0.992 -0.2129  0.4426 -0.1797
  513MOL0     C69143  -0.070   6.531   1.131  0.4821 -0.1315 -0.0856
  513MOL0     O69144  -0.161   6.629   1.173 -0.0541  0.9010 -0.0452
  513MOL0     C69145  -0.283   6.638   1.106 -0.5306  0.0247  0.9079
  513MOL0     C69146  -0.320   6.750   1.022 -0.4876  0.5477  0.7947
  513MOL0     C69147  -0.439   6.772   0.959  1.3411  0.3328  0.3355
  513MOL0     C69148  -0.462   6.904   0.891 -0.9616  0.3112 -0.0232
  513MOL0     C69149  -0.539   6.661   0.966 -0.3896  0.5861  0.5828
  513MOL0     C69150  -0.665   6.652   0.885  0.2172 -0.6484 -0.2068
  513MOL0     O69151  -0.749   6.555   0.910  0.1771  0.0421  0.4337
  513MOL0     C69152  -0.878   6.557   0.860 -0.5060 -0.3260 -0.0481
  513MOL0     C69153  -0.960   6.672   0.838 -0.1725  0.6168 -0.6226
  513MOL0     C69154  -1.088   6.660   0.794 -0.6094  0.1916 -0.4736
  513MOL0     C69155  -1.144   6.522   0.787  0.0218 -0.9598 -0.4584
  513MOL0     O69156  -1.274   6.519   0.742  0.4610 -0.5523 -0.0139
  513MOL0     C69157  -1.365   6.422   0.795 -0.4885 -0.4487 -0.5588
  513MOL0     C69158  -1.503   6.454   0.738 -0.1238  0.5471  0.0184
  513MOL0     C69159  -1.596   6.341   0.779 -0.4714 -0.0056  0.3758
  513MOL0     C69160  -1.731   6.348   0.698 -0.5960 -0.1770 -0.3615
  513MOL0     C69161  -1.841   6.246   0.738  0.0748  0.4451 -0.3454
  513MOL0     C69162  -1.797   6.099   0.757 -0.6893 -0.0496  0.5839
  513MOL0     C69163  -1.904   6.009   0.795  0.1420 -0.0427 -0.8821
  513MOL0     C69164  -1.944   6.021   0.942  0.8327  0.5248  0.2101
  513MOL0    Cl69165  -1.822   5.967   1.051 -0.4916  0.1709 -0.6472
  513MOL0     C69166  -1.076   6.414   0.829 -0.2417 -0.6888  0.0216
  513MOL0     C69167  -0.943   6.432   0.863  0.0749  0.0636  0.6169
  513MOL0     O69168  -0.687   6.739   0.802  0.0298  0.6231 -0.1223
  513MOL0     C69169  -0.497   6.541   1.043  0.1369 -0.2005 -0.0402
  513MOL0     C69170  -0.378   6.533   1.110  0.1439 -0.1125 -0.4133
  513MOL0     N69171   0.266   6.882   0.875 -0.9940 -0.4163 -0.2476
  513MOL0     N69172   0.226   7.000   0.837  0.3707  0.0811 -0.2034
  513MOL0     C69173   0.131   7.790  -0.015  1.2303  0.1712  0.3665
  513MOL0     C69174   0.205   7.880  -0.092  0.2731 -0.5488 -0.0969
  513MOL0     C69175   0.552   8.168  -0.109 -0.2013 -0.9598  0.0058
  513MOL0     C69176   0.591   8.280  -0.037 -1.2092  0.0571 -0.2197
  513MOL0     C69177   0.692   8.365  -0.091  0.0361 -0.3828  1.0430
  513MOL0     C69178   0.767   8.320  -0.198  0.0350  0.3323 -0.0018
  513MOL0     O69179   0.866   8.412  -0.237 -0.8311 -0.7137  0.0101
  513MOL0     C69180   0.954   8.376  -0.346 -0.2445  0.2370 -0.6293
  513MOL0     C69181   0.887   8.436  -0.476 -1.0157  0.7455 -0.2944
  513MOL0     C69182   0.941   8.577  -0.506  0.8063  0.4864  0.9278
  513MOL0     C69183   0.870   8.636  -0.628  0.2250  0.5128  0.2181
  513MOL0     C69184   0.917   8.774  -0.639  0.0938 -0.1502 -0.4383
  513MOL0     C69185   0.964   8.884  -0.653  0.6559 -0.1489  0.3490
  513MOL0     C69186   0.733   8.205  -0.270  0.5232 -0.3633  0.3354
  513MOL0     C69187   0.622   8.135  -0.233  0.8399  0.2561  0.6279
  513MOL0     H69188   0.497   7.713  -0.048 -0.4499 -0.5869 -2.9546
  513MOL0     H69189   0.333   7.560   0.087 -1.5518 -0.5385 -0.3281
  513MOL0     H69190   0.190   7.439   0.161  2.2963  1.7962  0.0232
  513MOL0     H69191   0.176   7.571   0.283  1.3556  2.2673 -2.6973
  513MOL0     H69192  -0.056   7.535   0.311  0.0869  0.6143 -1.9436
  513MOL0     H69193  -0.063   7.409   0.189 -2.6350 -1.1354  3.2654
  513MOL0     H69194  -0.013   7.253   0.314 -3.2147  1.6129  0.6445
  513MOL0     H69195   0.133   7.324   0.375 -0.2721  0.3680 -0.2461
  513MOL0     H69196   0.034   7.424   0.571  0.1228  0.5078  0.7057
  513MOL0     H69197  -0.144   7.394   0.512 -0.4118 -1.8793 -1.7114
  513MOL0     H69198  -0.084   7.154   0.532  0.1519  0.0817 -0.6904
  513MOL0     H69199   0.067   7.198   0.602  0.1362 -1.7252 -2.9674
  513MOL0     H69200  -0.085   7.354   0.776 -2.1999  0.6338 -1.3876
  513MOL0     H69201  -0.211   7.270   0.711 -0.0395 -0.9731 -0.7260
  513MOL0     H69202  -0.161   7.133   0.892 -0.1638 -3.9885  0.0963
  513MOL0     H69203  -0.084   7.043   0.762 -0.6706  0.2286 -0.3405
  513MOL0     H69204   0.061   7.227   0.973  6.3304  2.7759 -1.2038
  513MOL0     H69205   0.121   7.221   0.817  1.0085  0.5330  1.3509
  513MOL0     H69206   0.022   6.931   1.088  0.3217  1.4236  0.6220
  513MOL0     H69207   0.300   6.695   1.086  0.9834  1.0167 -1.2025
  513MOL0     H69208   0.129   6.718   1.145 -0.5581  3.2824 -1.1104
  513MOL0     H69209   0.174   6.492   1.014  4.5567  1.7579  1.2602
  513MOL0     H69210   0.164   6.602   0.876  0.9780 -0.3414  0.7238
  513MOL0     H69211  -0.054   6.483   0.935  1.1985 -0.0087 -0.3852
  513MOL0     H69212  -0.062   6.658   0.943  0.6084  0.3666 -1.0601
  513MOL0     H69213   0.011   6.525   1.204  1.5223 -1.1948 -1.2736
  513MOL0     H69214  -0.122   6.434   1.131 -2.1973  1.2057  0.2779
  513MOL0     H69215  -0.246   6.830   1.025  1.8689 -1.5294  2.2186
  513MOL0     H69216  -0.388   6.974   0.931 -0.7379  0.2783 -0.3785
  513MOL0     H69217  -0.454   6.893   0.783 -1.3923  0.2421 -0.0480
  513MOL0     H69218  -0.560   6.946   0.917 -1.5096  0.6140 -2.3282
  513MOL0     H69219  -0.921   6.773   0.849 -3.1005  1.9721 -1.6204
  513MOL0     H69220  -1.161   6.739   0.780 -1.2017 -0.1480  0.5970
  513MOL0     H69221  -1.325   6.323   0.773  3.3408  1.1430 -1.6355
  513MOL0     H69222  -1.362   6.436   0.903  1.5041  0.3884 -0.6911
  513MOL0     H69223  -1.537   6.545   0.789 -1.5499 -0.8111  1.6201
  513MOL0     H69224  -1.490   6.467   0.630 -2.5468  0.3810 -0.3470
  513MOL0     H69225  -1.622   6.357   0.884  1.9702  0.3416  0.9705
  513MOL0     H69226  -1.547   6.245   0.761 -1.1012 -1.0880  3.7114
  513MOL0     H69227  -1.770   6.450   0.703  4.3513  1.9489  0.3088
  513MOL0     H69228  -1.716   6.334   0.590  0.6770  2.3982 -0.5786
  513MOL0     H69229  -1.914   6.242   0.657  0.1459 -3.0625 -0.3892
  513MOL0     H69230  -1.901   6.273   0.825 -0.5612  0.5067 -0.7972
  513MOL0     H69231  -1.757   6.051   0.667 -1.5017 -0.5632  0.4794
  513MOL0     H69232  -1.709   6.100   0.821  0.3843  0.3356 -0.8369
  513MOL0     H69233  -1.879   5.905   0.771 -1.1191 -0.4110 -0.6551
  513MOL0     H69234  -1.990   6.032   0.732 -0.7629 -0.9705 -0.0209
  513MOL0     H69235  -2.027   5.956   0.971  0.2861  2.9403  5.1901
  513MOL0     H69236  -1.973   6.121   0.977  1.9414  1.0484 -0.2991
  513MOL0     H69237  -1.117   6.315   0.846 -1.3958 -0.2500 -0.1262
  513MOL0     H69238  -0.892   6.341   0.894 -1.3141 -0.9431  0.0441
  513MOL0     H69239  -0.554   6.450   1.059  1.6642 -0.9844  1.2963
  513MOL0     H69240  -0.348   6.447   1.168  1.5637  0.3013 -0.4916
  513MOL0     H69241   0.024   7.806  -0.008  1.4290  1.5674  0.4254
  513MOL0     H69242   0.166   7.964  -0.149  2.7695  0.2002 -0.8012
  513MOL0     H69243   0.548   8.316   0.056 -0.2741  0.5910  0.0217
  513MOL0     H69244   0.718   8.456  -0.038  1.9523 -1.5527  2.2104
  513MOL0     H69245   1.045   8.434  -0.327 -2.0293  2.2689  2.7815
  513MOL0     H69246   0.975   8.269  -0.348 -2.2989 -0.2410 -3.4110
  513MOL0     H69247   0.778   8.442  -0.479 -0.9264  3.4690 -0.4289
  513MOL0     H69248   0.924   8.374  -0.558  2.5327 -0.8798  2.2600
  513MOL0     H69249   1.049   8.574  -0.524  0.4831 -1.7267 -1.1175
  513MOL0     H69250   0.912   8.646  -0.426 -0.6317  0.1820  0.6889
  513MOL0     H69251   0.761   8.634  -0.623  0.0623  3.9039  0.6159
  513MOL0     H69252   0.887   8.588  -0.725 -2.0194  0.9361 -0.4531
  513MOL0     H69253   1.000   8.985  -0.654  0.3390 -0.0348 -0.1169
  513MOL0     H69254   0.782   8.178  -0.363 -1.6529  1.3216 -1.4242
  513MOL0     H69255   0.593   8.039  -0.275 -1.4709 -0.0768  2.7176
  514MOL0     O69256   2.366   6.877   5.734  0.0078  0.6114  0.4039
  514MOL0     C69257   2.346   6.939   5.832 -0.1567  0.7792  0.0789
  514MOL0     O69258   2.425   7.051   5.859  0.7263 -0.6051 -0.5466
  514MOL0     C69259   2.503   7.090   5.751  0.0665 -0.6108 -0.4339
  514MOL0     C69260   2.617   7.017   5.718  1.1296 -0.3048  0.2574
  514MOL0     C69261   2.680   7.049   5.590 -0.6683  0.2146  0.4637
  514MOL0     C69262   2.632   7.148   5.503 -0.2497 -0.6916  0.9794
  514MOL0     O69263   2.680   7.174   5.373  0.0519  0.5838 -0.5514
  514MOL0     C69264   2.803   7.122   5.332  0.1551 -0.5949  0.2346
  514MOL0     C69265   2.860   7.204   5.217 -1.6041 -0.2860  0.0469
  514MOL0     C69266   2.886   7.357   5.250 -0.1696 -1.2440  0.9856
  514MOL0     C69267   2.926   7.437   5.123 -0.9346  0.0299  0.5555
  514MOL0     C69268   2.979   7.574   5.148 -0.6434  0.5457 -0.2696
  514MOL0     C69269   3.124   7.588   5.218  0.0472  0.3998  0.3179
  514MOL0     C69270   3.180   7.734   5.220 -0.0065  0.0540  0.4502
  514MOL0     C69271   3.274   7.758   5.348  1.0919 -0.3469  0.3606
  514MOL0     N69272   3.376   7.659   5.357 -0.3812  0.3531 -0.3635
  514MOL0     C69273   3.493   7.638   5.281 -0.1406 -0.5443 -0.5934
  514MOL0     C69274   3.559   7.532   5.339 -0.2748 -0.0407 -0.6979
  514MOL0     C69275   3.701   7.493   5.324 -0.6586  0.1674 -0.5265
  514MOL0     C69276   3.716   7.381   5.229  0.4174 -0.2454  1.3315
  514MOL0     C69277   3.862   7.331   5.226  0.2936 -0.3801 -0.3987
  514MOL0     C69278   3.964   7.440   5.187 -0.0635  0.4106 -0.7709
  514MOL0     O69279   3.913   7.501   5.068  0.4760  0.6306 -0.3596
  514MOL0     C69280   4.010   7.492   4.968  0.7678 -0.2281  0.1454
  514MOL0     C69281   4.151   7.504   4.988  0.2964  0.6634  0.1314
  514MOL0     C69282   4.242   7.477   4.885 -0.5835  0.2240 -0.0464
  514MOL0     C69283   4.385   7.482   4.911  0.1580 -0.0866 -0.7780
  514MOL0     C69284   4.179   7.461   4.756  0.1086  0.3421 -0.0322
  514MOL0     C69285   4.271   7.454   4.636  0.4141 -0.4453 -0.0837
  514MOL0     O69286   4.355   7.350   4.627 -0.2556  0.8087  1.1142
  514MOL0     C69287   4.467   7.356   4.546 -0.6055 -0.1628 -0.6125
  514MOL0     C69288   4.495   7.270   4.440 -0.2370 -0.4307 -0.2028
  514MOL0     C69289   4.617   7.275   4.364 -0.4365 -0.7747  0.0232
  514MOL0     C69290   4.704   7.378   4.375 -0.0144  0.3878 -0.1539
  514MOL0     O69291   4.819   7.368   4.308 -0.2526 -0.5195 -0.0594
  514MOL0     C69292   4.939   7.410   4.370  0.4227 -0.1583  0.5671
  514MOL0     C69293   5.049   7.304   4.343 -0.5026  0.3714  0.6018
  514MOL0     C69294   5.192   7.357   4.383 -0.0242  0.3978  1.3045
  514MOL0     C69295   5.230   7.491   4.312 -0.4150  0.0553  0.0663
  514MOL0     C69296   5.367   7.541   4.350 -0.2849 -0.1581  0.0628
  514MOL0     C69297   5.412   7.652   4.263  0.4145 -0.2250 -0.6129
  514MOL0     C69298   5.551   7.715   4.301  0.5918 -0.5474  0.6039
  514MOL0     C69299   5.677   7.633   4.297 -0.7764  0.9743  0.1434
  514MOL0    Cl69300   5.690   7.553   4.131  0.1114 -0.0213 -0.2330
  514MOL0     C69301   4.670   7.469   4.478 -0.0723 -0.4391 -0.2528
  514MOL0     C69302   4.561   7.457   4.563 -0.2286 -0.6079 -0.3858
  514MOL0     O69303   4.261   7.537   4.549  0.2641  0.3476 -0.0343
  514MOL0     C69304   4.044   7.427   4.737 -0.0835  0.8941 -0.2471
  514MOL0     C69305   3.958   7.446   4.847  0.4228 -0.6332 -0.1364
  514MOL0     N69306   3.482   7.491   5.441  0.2662  0.3596  0.1168
  514MOL0     N69307   3.371   7.564   5.456 -0.2600  0.4555  0.8858
  514MOL0     C69308   2.515   7.223   5.539  0.4081  0.5918  0.1606
  514MOL0     C69309   2.453   7.188   5.666 -0.1190  0.0166  0.9959
  514MOL0     C69310   2.256   6.900   5.944  0.3058 -0.7108 -0.1728
  514MOL0     C69311   2.263   6.968   6.064 -0.4125  0.4664 -0.4410
  514MOL0     C69312   2.197   6.904   6.169  0.5942 -0.6569 -0.9698
  514MOL0     C69313   2.120   6.787   6.155  0.8519 -0.7688 -0.3657
  514MOL0     O69314   2.044   6.739   6.263 -0.3172  0.1442 -0.1070
  514MOL0     C69315   2.124   6.647   6.349 -0.3763 -0.4190  1.1058
  514MOL0     C69316   2.146   6.512   6.282  0.0317 -0.7153  0.3068
  514MOL0     C69317   2.020   6.429   6.290 -0.1792  0.5742  0.7680
  514MOL0     C69318   2.043   6.272   6.264 -0.0085  0.4303 -0.7035
  514MOL0     C69319   2.138   6.251   6.157 -0.1018  0.3514 -0.8313
  514MOL0     C69320   2.209   6.234   6.061 -0.1629 -0.7142 -0.0279
  514MOL0     C69321   2.103   6.736   6.027 -0.1904 -0.1332  0.1339
  514MOL0     C69322   2.175   6.788   5.926 -0.2955  0.2879 -0.2030
  514MOL0     H69323   2.670   6.940   5.774  2.7131  0.8387  0.4017
  514MOL0     H69324   2.760   6.980   5.564 -1.4670  0.3559 -2.9131
  514MOL0     H69325   2.881   7.104   5.407  1.7634  0.5346 -1.0753
  514MOL0     H69326   2.785   7.021   5.293  2.3118 -1.1596  0.5456
  514MOL0     H69327   2.948   7.150   5.180 -1.5625  0.3026 -0.7351
  514MOL0     H69328   2.785   7.202   5.138 -0.7082  1.4051 -0.9038
  514MOL0     H69329   2.798   7.410   5.287 -1.4696  0.2936 -3.6084
  514MOL0     H69330   2.968   7.363   5.322 -0.3207  2.5189  1.0363
  514MOL0     H69331   3.000   7.388   5.059 -0.3923  3.0605 -1.3959
  514MOL0     H69332   2.843   7.446   5.051 -1.2181  1.3621  1.0159
  514MOL0     H69333   2.987   7.622   5.050  1.7322  2.0676  0.5710
  514MOL0     H69334   2.901   7.635   5.195 -1.7253  0.2771 -1.6502
  514MOL0     H69335   3.105   7.553   5.320  0.4592  2.6690  1.2281
  514MOL0     H69336   3.197   7.523   5.169 -2.0929 -3.7028  2.0850
  514MOL0     H69337   3.226   7.761   5.124 -0.7214  0.2002  0.1482
  514MOL0     H69338   3.096   7.803   5.219  0.9045  1.2338 -1.9023
  514MOL0     H69339   3.201   7.753   5.429 -0.9453 -1.5570 -1.4441
  514MOL0     H69340   3.313   7.859   5.334 -3.3103  1.4806 -0.4749
  514MOL0     H69341   3.529   7.695   5.195  0.2945 -0.0989 -0.1225
  514MOL0     H69342   3.749   7.583   5.286  1.7149  0.2330  2.3090
  514MOL0     H69343   3.749   7.470   5.420 -0.6301 -0.1080 -0.6035
  514MOL0     H69344   3.687   7.410   5.127  3.6681 -0.0106  0.3593
  514MOL0     H69345   3.652   7.298   5.260 -0.6804  0.2975  0.6196
  514MOL0     H69346   3.882   7.255   5.150 -0.9491  0.4053 -1.5613
  514MOL0     H69347   3.882   7.289   5.326  0.3209 -0.8856 -0.6122
  514MOL0     H69348   4.065   7.399   5.175 -0.4567 -0.1606 -2.4591
  514MOL0     H69349   3.963   7.508   5.272 -0.4110 -1.2758  0.6178
  514MOL0     H69350   4.188   7.529   5.086 -1.7805  0.4379  1.0180
  514MOL0     H69351   4.404   7.492   5.018 -0.7960  2.4976 -0.7962
  514MOL0     H69352   4.430   7.391   4.869 -0.8802 -0.4337 -1.1660
  514MOL0     H69353   4.428   7.570   4.863 -1.1619  1.9561  1.5796
  514MOL0     H69354   4.429   7.185   4.431 -0.8443  0.2516 -3.3064
  514MOL0     H69355   4.634   7.192   4.296 -1.3222 -1.9065  1.1489
  514MOL0     H69356   4.972   7.509   4.337  2.6868  0.1432  3.3486
  514MOL0     H69357   4.937   7.431   4.478 -1.1215  6.2467 -0.2944
  514MOL0     H69358   5.030   7.211   4.398  0.6237  0.4564  1.1633
  514MOL0     H69359   5.050   7.282   4.236 -0.7978  5.0489 -0.5871
  514MOL0     H69360   5.265   7.286   4.345 -0.2913  1.8089 -2.3038
  514MOL0     H69361   5.210   7.365   4.490  1.6030 -0.6391  1.1478
  514MOL0     H69362   5.214   7.476   4.205 -0.5148 -0.0511  0.0971
  514MOL0     H69363   5.163   7.570   4.346 -1.5175 -1.4747  1.6189
  514MOL0     H69364   5.438   7.461   4.325  1.6837  2.1299 -2.1838
  514MOL0     H69365   5.375   7.566   4.456 -0.7305  2.0742 -0.3760
  514MOL0     H69366   5.415   7.621   4.158  0.1119 -2.9014  0.0791
  514MOL0     H69367   5.338   7.732   4.269  3.4111  2.7553 -0.3184
  514MOL0     H69368   5.543   7.745   4.406  2.5783 -0.9366  0.8999
  514MOL0     H69369   5.567   7.805   4.242  1.0502 -0.1594  1.3043
  514MOL0     H69370   5.680   7.551   4.369  2.1224  2.5578  2.0371
  514MOL0     H69371   5.765   7.696   4.314 -0.3959  1.1775 -2.2541
  514MOL0     H69372   4.739   7.550   4.498 -2.0146  1.1834  0.2749
  514MOL0     H69373   4.551   7.515   4.654  0.1489 -1.3577  0.1471
  514MOL0     H69374   4.007   7.406   4.637 -0.8078  0.2621  0.1438
  514MOL0     H69375   3.852   7.428   4.835 -0.0859  1.5318  0.5509
  514MOL0     H69376   2.479   7.303   5.476 -1.7648  0.0565  0.6340
  514MOL0     H69377   2.365   7.245   5.694 -1.0836 -0.2890 -1.2041
  514MOL0     H69378   2.333   7.050   6.079  1.0915 -0.6648 -1.0514
  514MOL0     H69379   2.197   6.961   6.261  1.2276  0.7860 -1.8260
  514MOL0     H69380   2.218   6.699   6.370 -0.7250  0.8271 -0.2460
  514MOL0     H69381   2.063   6.642   6.439 -2.9705 -0.6186 -0.5468
  514MOL0     H69382   2.221   6.453   6.335 -0.5824 -1.9819 -0.2150
  514MOL0     H69383   2.183   6.538   6.182  0.0689 -0.5615  0.3597
  514MOL0     H69384   1.950   6.461   6.212 -0.1258 -0.4447  0.2868
  514MOL0     H69385   1.976   6.446   6.389  1.0688  3.6988  0.9022
  514MOL0     H69386   1.954   6.215   6.237  1.0426 -1.6963  0.0867
  514MOL0     H69387   2.083   6.225   6.355 -3.3534 -0.5183  0.3995
  514MOL0     H69388   2.267   6.232   5.971 -1.5244 -1.1651 -0.9259
  514MOL0     H69389   2.039   6.649   6.015 -1.3030  0.4211  1.6939
  514MOL0     H69390   2.180   6.731   5.834  2.8090 -1.5276  0.9454
  515MOL0     O69391   1.404   2.069   4.772 -0.0234 -0.4204 -0.0489
  515MOL0     C69392   1.385   2.183   4.722  0.8470 -1.2266 -0.4668
  515MOL0     O69393   1.469   2.247   4.635 -0.4843  0.3095 -0.5422
  515MOL0     C69394   1.587   2.190   4.604  0.3462  0.4149 -0.4202
  515MOL0     C69395   1.698   2.184   4.689 -0.7727 -0.5063  0.1423
  515MOL0     C69396   1.816   2.132   4.651 -0.4033  0.6741 -0.1033
  515MOL0     C69397   1.830   2.074   4.527 -0.3831  0.7794  0.0925
  515MOL0     O69398   1.950   2.022   4.502  0.6413  0.0291 -0.2603
  515MOL0     C69399   1.946   1.881   4.462  0.9067 -1.1662 -1.1112
  515MOL0     C69400   2.086   1.833   4.475 -0.1770 -0.5730  0.0254
  515MOL0     C69401   2.137   1.814   4.612  0.6072 -0.1665 -0.4983
  515MOL0     C69402   2.286   1.799   4.608 -0.2830  0.6738  0.3234
  515MOL0     C69403   2.350   1.742   4.736 -0.0116  0.4812 -0.1111
  515MOL0     C69404   2.307   1.787   4.881  0.4369 -0.1741 -0.5255
  515MOL0     C69405   2.371   1.911   4.943  0.4046 -1.0642 -0.2587
  515MOL0     C69406   2.346   2.032   4.852  0.6169 -0.1083 -1.3443
  515MOL0     N69407   2.322   2.153   4.934 -0.1256  0.0230  0.3125
  515MOL0     C69408   2.425   2.226   4.974 -1.0211 -0.2458 -0.7243
  515MOL0     C69409   2.382   2.297   5.084 -0.0392  0.8396  0.3140
  515MOL0     C69410   2.468   2.368   5.179  0.3524 -0.4759  0.0941
  515MOL0     C69411   2.389   2.459   5.273  0.1302  0.7899  0.2889
  515MOL0     C69412   2.484   2.556   5.346  0.0355  0.2056 -0.8637
  515MOL0     C69413   2.445   2.567   5.495 -0.4429  0.7069 -0.4027
  515MOL0     O69414   2.458   2.440   5.556 -0.4052 -0.2666  0.1841
  515MOL0     C69415   2.407   2.429   5.680  0.3069  0.8711  0.2258
  515MOL0     C69416   2.309   2.338   5.710  0.9029  1.0150  0.0587
  515MOL0     C69417   2.255   2.315   5.839  0.2569  0.4378 -0.8893
  515MOL0     C69418   2.129   2.228   5.847  0.7059  0.0015  0.2796
  515MOL0     C69419   2.311   2.404   5.939 -0.1240  0.3881  0.9667
  515MOL0     C69420   2.268   2.398   6.080  0.1187  0.6850 -0.7453
  515MOL0     O69421   2.355   2.435   6.174  0.5972  0.0359  0.6270
  515MOL0     C69422   2.321   2.446   6.308  0.3982  0.7318  0.2770
  515MOL0     C69423   2.380   2.563   6.370  0.2102  0.1551  0.9701
  515MOL0     C69424   2.355   2.596   6.505 -0.6728  1.2534  0.6236
  515MOL0     C69425   2.269   2.503   6.570  0.2438  0.1537 -0.4259
  515MOL0     O69426   2.228   2.507   6.699 -0.0132  0.0246 -0.4469
  515MOL0     C69427   2.291   2.604   6.783 -0.1989 -0.0317  0.3344
  515MOL0     C69428   2.252   2.612   6.926 -0.5570 -0.0186  0.6969
  515MOL0     C69429   2.252   2.477   6.995  0.4391  0.5368  0.6645
  515MOL0     C69430   2.173   2.488   7.122 -0.5113 -0.0742 -0.1957
  515MOL0     C69431   2.157   2.362   7.205  0.1685 -0.0280 -0.2052
  515MOL0     C69432   2.037   2.381   7.302  0.1742  0.5458  0.0648
  515MOL0     C69433   1.988   2.251   7.365  0.4892  0.1898  0.7742
  515MOL0     C69434   1.865   2.279   7.449  0.1706 -0.6879  0.6017
  515MOL0    Cl69435   1.906   2.311   7.621  0.2825 -0.2759 -0.5256
  515MOL0     C69436   2.212   2.391   6.510 -0.5069 -0.0022  0.3254
  515MOL0     C69437   2.241   2.363   6.376  0.1685  0.4170 -0.7011
  515MOL0     O69438   2.154   2.366   6.098  0.3082 -0.1652  0.1406
  515MOL0     C69439   2.413   2.495   5.909 -0.2444 -0.7998 -0.7822
  515MOL0     C69440   2.464   2.506   5.782  0.4662  0.2804  0.0993
  515MOL0     N69441   2.250   2.260   5.099 -0.3678  0.5013  0.3783
  515MOL0     N69442   2.215   2.171   5.009  0.2736 -0.0158 -0.4580
  515MOL0     C69443   1.729   2.077   4.440  0.1198 -0.1442 -0.5325
  515MOL0     C69444   1.600   2.119   4.478  0.4598  1.5080 -0.2550
  515MOL0     C69445   1.247   2.255   4.754 -0.5044  0.1545  0.2468
  515MOL0     C69446   1.144   2.185   4.817 -0.6893 -0.2326 -0.9130
  515MOL0     C69447   1.021   2.241   4.840  0.0194  0.7734  0.5580
  515MOL0     C69448   0.988   2.365   4.780 -0.2983 -0.1310 -0.7126
  515MOL0     O69449   0.861   2.408   4.806  0.2513 -1.2196 -0.0258
  515MOL0     C69450   0.826   2.552   4.802  0.1066  0.2771 -0.4773
  515MOL0     C69451   0.672   2.567   4.846 -0.3017  0.1596  0.3160
  515MOL0     C69452   0.576   2.514   4.737  0.3348  0.4277  0.6161
  515MOL0     C69453   0.558   2.615   4.619  0.0139  0.4269  0.2962
  515MOL0     C69454   0.528   2.754   4.672  0.9315 -0.4840  0.3395
  515MOL0     C69455   0.486   2.862   4.712  0.1040  0.1624 -0.0669
  515MOL0     C69456   1.089   2.437   4.717  0.9022  0.5043 -0.0089
  515MOL0     C69457   1.217   2.384   4.704 -0.7916  0.1561 -0.1147
  515MOL0     H69458   1.705   2.235   4.784  5.1003 -1.1632  0.4650
  515MOL0     H69459   1.891   2.126   4.730  0.5256  2.8076 -0.7516
  515MOL0     H69460   1.888   1.813   4.525 -2.0731  0.1431 -2.2974
  515MOL0     H69461   1.916   1.880   4.357  0.2790 -0.1570 -0.9523
  515MOL0     H69462   2.093   1.740   4.419  0.2932 -0.8960  0.6079
  515MOL0     H69463   2.144   1.909   4.421 -0.9677 -1.9889 -3.0738
  515MOL0     H69464   2.112   1.906   4.665  2.8500  1.2580 -1.7381
  515MOL0     H69465   2.094   1.731   4.669 -0.5159  1.9457  1.9399
  515MOL0     H69466   2.311   1.713   4.544  0.4658 -1.3940  3.2167
  515MOL0     H69467   2.330   1.889   4.562 -0.0389 -0.7829 -2.5355
  515MOL0     H69468   2.336   1.634   4.739  1.0126  0.3423 -0.0471
  515MOL0     H69469   2.457   1.757   4.716 -0.0692  0.1102 -0.7119
  515MOL0     H69470   2.197   1.793   4.879  0.3950 -0.8864 -1.7704
  515MOL0     H69471   2.327   1.698   4.942  3.3515  0.6783 -0.1362
  515MOL0     H69472   2.312   1.931   5.033  2.2069  1.0159  0.5787
  515MOL0     H69473   2.478   1.897   4.963  0.8363  1.3181 -0.5925
  515MOL0     H69474   2.255   2.014   4.795 -1.4486  1.3847  1.2232
  515MOL0     H69475   2.430   2.043   4.784  0.5541  3.4465 -0.9949
  515MOL0     H69476   2.525   2.228   4.931 -0.7147 -3.3787 -0.3830
  515MOL0     H69477   2.504   2.284   5.239 -1.9372 -3.4101 -2.3380
  515MOL0     H69478   2.545   2.410   5.114  1.1838 -5.1433 -2.3791
  515MOL0     H69479   2.347   2.391   5.347  2.1135 -1.6245 -0.6687
  515MOL0     H69480   2.309   2.510   5.217 -0.1373 -2.4975 -2.7220
  515MOL0     H69481   2.471   2.655   5.303  4.2569  1.4022  0.1048
  515MOL0     H69482   2.588   2.521   5.345 -0.1175 -0.3619  0.3464
  515MOL0     H69483   2.346   2.610   5.512  0.0894  1.2441  1.7616
  515MOL0     H69484   2.505   2.647   5.540 -0.1913  0.6281 -0.5955
  515MOL0     H69485   2.260   2.287   5.627  0.6407  1.4270 -0.0411
  515MOL0     H69486   2.126   2.164   5.758  0.9235 -0.0899  0.3384
  515MOL0     H69487   2.124   2.166   5.937  2.4024 -1.1600 -0.3797
  515MOL0     H69488   2.047   2.300   5.838  0.0115 -0.9095 -1.0230
  515MOL0     H69489   2.444   2.625   6.308  0.2466 -1.2162 -0.4063
  515MOL0     H69490   2.408   2.680   6.548  0.0217  1.6804 -0.9901
  515MOL0     H69491   2.399   2.584   6.778 -0.1916 -1.3756  3.3125
  515MOL0     H69492   2.289   2.704   6.739 -1.4015  0.1781  0.8395
  515MOL0     H69493   2.317   2.680   6.981  3.0989 -1.0716 -1.9430
  515MOL0     H69494   2.150   2.653   6.923 -0.4129  0.3597  0.8585
  515MOL0     H69495   2.359   2.457   7.010  0.6389 -1.0335 -2.1415
  515MOL0     H69496   2.207   2.403   6.928  0.6935 -0.4625  1.5645
  515MOL0     H69497   2.226   2.564   7.180  0.7051 -0.0710 -1.2723
  515MOL0     H69498   2.076   2.520   7.084  0.8360  2.1860 -1.9856
  515MOL0     H69499   2.250   2.345   7.260  0.1240  6.6159  2.9685
  515MOL0     H69500   2.130   2.278   7.141 -2.6199  1.3228 -0.9811
  515MOL0     H69501   2.069   2.454   7.377 -0.4544  2.5718 -1.5480
  515MOL0     H69502   1.961   2.429   7.239  1.7327  1.2681 -1.3401
  515MOL0     H69503   2.066   2.208   7.427 -0.4652 -5.5071 -1.3322
  515MOL0     H69504   1.961   2.175   7.290 -2.2653  1.0727  0.7395
  515MOL0     H69505   1.802   2.189   7.448 -0.8349 -0.0342  1.9602
  515MOL0     H69506   1.809   2.361   7.403  2.4526  1.0288  0.7492
  515MOL0     H69507   2.161   2.322   6.577  1.6600 -1.5507  0.4931
  515MOL0     H69508   2.190   2.275   6.338  0.5196 -0.2890  0.4053
  515MOL0     H69509   2.458   2.555   5.986 -0.5105  0.3644 -1.5096
  515MOL0     H69510   2.548   2.574   5.764  1.3437  0.3938  3.8527
  515MOL0     H69511   1.743   2.028   4.345 -1.3745  0.3849 -1.0564
  515MOL0     H69512   1.516   2.124   4.410  0.1594 -0.6680 -0.1274
  515MOL0     H69513   1.157   2.089   4.865 -1.8624  0.4648  0.8838
  515MOL0     H69514   0.951   2.177   4.892 -0.3249  0.1990 -0.5732
  515MOL0     H69515   0.893   2.605   4.870 -2.0819  1.3444  0.9431
  515MOL0     H69516   0.844   2.582   4.698  0.1559 -0.2445 -0.6222
  515MOL0     H69517   0.654   2.673   4.865 -1.2642  0.4080 -1.6731
  515MOL0     H69518   0.666   2.510   4.939  2.0257  0.8341  0.9447
  515MOL0     H69519   0.474   2.496   4.773 -0.9339  4.0007 -0.6719
  515MOL0     H69520   0.601   2.415   4.699 -1.5599 -0.3371  1.2401
  515MOL0     H69521   0.479   2.582   4.552 -1.0044  1.5709  0.9073
  515MOL0     H69522   0.659   2.618   4.575  0.4715  0.8560  1.3398
  515MOL0     H69523   0.451   2.953   4.756  1.5341  2.3637 -3.1200
  515MOL0     H69524   1.070   2.540   4.688 -0.3774  0.4842  0.7145
  515MOL0     H69525   1.294   2.431   4.644 -1.6989  1.4280 -0.3228
  516MOL0     O69526   5.217   1.911   4.225  0.6487  0.0689 -0.5213
  516MOL0     C69527   5.124   1.951   4.145 -0.3100 -0.3114  0.2336
  516MOL0     O69528   5.144   2.008   4.016 -0.3152  0.0736  0.1709
  516MOL0     C69529   5.264   1.980   3.967 -0.6875  0.2679 -0.2444
  516MOL0     C69530   5.301   1.860   3.901  0.7309 -0.3039  0.3505
  516MOL0     C69531   5.427   1.851   3.835 -0.1236 -0.0257 -0.0544
  516MOL0     C69532   5.520   1.950   3.842 -0.1226 -0.7418  0.4471
  516MOL0     O69533   5.646   1.931   3.790  0.7890  0.3937  0.3478
  516MOL0     C69534   5.661   2.010   3.668 -0.0534  0.8164 -0.6781
  516MOL0     C69535   5.717   2.159   3.693 -0.9991 -0.2587  0.4114
  516MOL0     C69536   5.858   2.153   3.765 -0.1570  0.3625  0.0808
  516MOL0     C69537   5.977   2.156   3.679 -0.4914  0.2175  0.0317
  516MOL0     C69538   6.103   2.172   3.755 -0.0847  0.4068  0.4660
  516MOL0     C69539   6.225   2.187   3.667  0.7732  0.7844  0.2337
  516MOL0     C69540   6.351   2.155   3.745 -0.7824  0.1945 -0.0612
  516MOL0     C69541   6.481   2.172   3.667  0.0473  0.8357 -0.3616
  516MOL0     N69542   6.523   2.310   3.633  0.0600 -1.1509 -0.5792
  516MOL0     C69543   6.626   2.366   3.701  0.0801  1.2478 -0.3791
  516MOL0     C69544   6.646   2.484   3.638  0.6101 -0.1896  0.1405
  516MOL0     C69545   6.737   2.586   3.689 -0.4918 -0.3160 -0.7734
  516MOL0     C69546   6.697   2.735   3.663 -0.2236  0.1695 -0.4055
  516MOL0     C69547   6.608   2.793   3.779  0.3184  0.4635 -0.0019
  516MOL0     C69548   6.552   2.937   3.773  0.7730  0.2296 -0.5681
  516MOL0     O69549   6.659   3.030   3.785  0.4547 -0.1052  0.4159
  516MOL0     C69550   6.606   3.157   3.821  0.2400 -0.0244 -0.0572
  516MOL0     C69551   6.484   3.216   3.779 -0.1137  0.2889  0.2348
  516MOL0     C69552   6.449   3.347   3.813  0.3148 -0.5326 -0.0790
  516MOL0     C69553   6.329   3.412   3.750  0.1834  0.7126 -0.0295
  516MOL0     C69554   6.547   3.424   3.876  0.5961 -0.0298 -1.1700
  516MOL0     C69555   6.515   3.567   3.912 -0.1113 -1.0112 -0.9706
  516MOL0     O69556   6.563   3.649   3.817  0.6249 -0.1000  0.1455
  516MOL0     C69557   6.549   3.786   3.843 -1.1459  1.0655 -0.4188
  516MOL0     C69558   6.430   3.856   3.822 -0.0497  0.3784 -0.0086
  516MOL0     C69559   6.418   3.996   3.854  0.1353  0.7839  0.2583
  516MOL0     C69560   6.531   4.073   3.883 -0.6287 -0.4906  0.6773
  516MOL0     O69561   6.509   4.212   3.898 -0.1641  0.6361  0.3756
  516MOL0     C69562   6.621   4.294   3.909  0.0138 -0.1169  0.3744
  516MOL0     C69563   6.574   4.441   3.951  0.7001  1.0511  0.2014
  516MOL0     C69564   6.502   4.445   4.080 -0.3381  0.2941  0.0141
  516MOL0     C69565   6.488   4.589   4.121 -0.1895  0.8142  0.1185
  516MOL0     C69566   6.412   4.593   4.249 -0.0030  0.0730 -0.6492
  516MOL0     C69567   6.388   4.738   4.298 -0.7631 -0.1900 -0.9291
  516MOL0     C69568   6.352   4.731   4.455 -0.6098  0.0131 -0.5854
  516MOL0     C69569   6.306   4.865   4.513 -0.6019 -0.3220  0.3161
  516MOL0    Cl69570   6.147   4.900   4.464  0.2356 -0.2423  0.1026
  516MOL0     C69571   6.654   4.002   3.893 -0.4627  1.0956 -0.0963
  516MOL0     C69572   6.660   3.862   3.882 -0.3294 -0.1728  0.1080
  516MOL0     O69573   6.468   3.601   4.022 -0.2104  1.0077  0.7578
  516MOL0     C69574   6.668   3.369   3.930 -0.1708  0.4702  0.4956
  516MOL0     C69575   6.694   3.231   3.900 -0.6948 -0.1053 -1.2740
  516MOL0     N69576   6.561   2.496   3.530  0.4256 -0.2516 -0.2067
  516MOL0     N69577   6.480   2.394   3.535  0.0146 -0.4010  0.5705
  516MOL0     C69578   5.485   2.070   3.911  0.2072  0.0844  0.4709
  516MOL0     C69579   5.360   2.085   3.976  0.4606  0.4191  0.1777
  516MOL0     C69580   4.988   1.950   4.201  0.3703  0.3357 -0.3386
  516MOL0     C69581   4.953   1.896   4.327 -0.4089 -0.3232  0.6767
  516MOL0     C69582   4.817   1.894   4.368 -0.3818 -0.4095  0.5449
  516MOL0     C69583   4.709   1.933   4.278  0.3457 -0.1270 -0.3973
  516MOL0     O69584   4.582   1.909   4.322  0.1969 -0.8244 -0.4960
  516MOL0     C69585   4.470   1.972   4.254  0.0715 -0.0580 -0.4481
  516MOL0     C69586   4.371   2.027   4.369 -0.1062 -0.9292  0.4673
  516MOL0     C69587   4.285   2.149   4.325 -0.3564  0.9430 -0.2465
  516MOL0     C69588   4.244   2.208   4.454  0.0588  0.0439 -0.9460
  516MOL0     C69589   4.140   2.120   4.515  0.7278  0.8352  0.6746
  516MOL0     C69590   4.049   2.061   4.565  1.0178  0.3671  0.0071
  516MOL0     C69591   4.743   1.986   4.156  0.3446  0.7928  0.0230
  516MOL0     C69592   4.877   2.005   4.127  0.1256 -0.1829 -0.5205
  516MOL0     H69593   5.219   1.789   3.898  0.2304  0.2839 -0.1932
  516MOL0     H69594   5.449   1.753   3.795 -1.2405 -0.7643  1.0838
  516MOL0     H69595   5.730   1.957   3.602  2.6776 -0.8667  3.1719
  516MOL0     H69596   5.565   2.011   3.615 -0.8304  0.0245  0.6427
  516MOL0     H69597   5.721   2.215   3.599  0.9289  1.0633  1.2299
  516MOL0     H69598   5.639   2.206   3.754 -0.3537  4.0136 -1.6874
  516MOL0     H69599   5.864   2.235   3.837  0.4379 -0.9443  1.5834
  516MOL0     H69600   5.862   2.065   3.830 -0.9944  0.6641  0.5421
  516MOL0     H69601   5.972   2.081   3.600  0.3015  0.9612 -0.7550
  516MOL0     H69602   5.974   2.247   3.618 -0.8719  0.2058  0.0336
  516MOL0     H69603   6.098   2.268   3.807  2.1877  0.6324  0.3783
  516MOL0     H69604   6.115   2.089   3.825 -0.7865  1.0494  1.3660
  516MOL0     H69605   6.218   2.120   3.581  3.5655  3.5899 -2.4883
  516MOL0     H69606   6.220   2.290   3.628 -0.8503 -0.1151 -2.1797
  516MOL0     H69607   6.355   2.210   3.839  2.0895  0.9597 -0.5114
  516MOL0     H69608   6.354   2.050   3.775  2.2495 -0.1108 -1.0432
  516MOL0     H69609   6.457   2.129   3.570  1.2863 -1.3263  0.2178
  516MOL0     H69610   6.560   2.108   3.707 -0.2101  0.2707 -0.7531
  516MOL0     H69611   6.664   2.355   3.803  2.1733 -2.2449 -1.3845
  516MOL0     H69612   6.743   2.574   3.797  1.6315  1.5493 -0.6234
  516MOL0     H69613   6.836   2.586   3.643 -0.0103  0.3774  0.2456
  516MOL0     H69614   6.646   2.746   3.566  1.6216  0.4722 -1.3747
  516MOL0     H69615   6.791   2.790   3.663 -1.3290  2.1847 -0.0929
  516MOL0     H69616   6.657   2.788   3.876 -2.1621 -0.7743  1.2885
  516MOL0     H69617   6.520   2.729   3.788  1.1680 -1.0166 -1.6616
  516MOL0     H69618   6.462   2.948   3.834  1.3045 -1.4477  0.5986
  516MOL0     H69619   6.518   2.943   3.670 -0.8540  0.4836 -0.0365
  516MOL0     H69620   6.430   3.155   3.707  1.3536  2.5547 -3.0522
  516MOL0     H69621   6.257   3.436   3.829  2.5638  0.9733  2.1886
  516MOL0     H69622   6.360   3.504   3.702  1.3100  1.5333  2.1495
  516MOL0     H69623   6.288   3.345   3.673 -1.0522  1.0787  0.2833
  516MOL0     H69624   6.338   3.804   3.797  0.1998 -1.9832  3.2149
  516MOL0     H69625   6.329   4.054   3.833 -0.6168 -0.3179  0.3496
  516MOL0     H69626   6.679   4.259   3.995 -1.5125 -1.2652  0.9720
  516MOL0     H69627   6.689   4.292   3.823 -0.7367 -0.4957 -0.2256
  516MOL0     H69628   6.660   4.509   3.956 -0.2659  2.2867  0.5506
  516MOL0     H69629   6.510   4.486   3.874 -1.6356  1.4503  2.2574
  516MOL0     H69630   6.553   4.392   4.161  1.4087  1.4672 -0.2426
  516MOL0     H69631   6.413   4.384   4.065  1.1770 -1.7490 -1.2419
  516MOL0     H69632   6.584   4.641   4.116 -0.8114  1.9480 -0.7916
  516MOL0     H69633   6.419   4.636   4.050 -0.7005  0.6644  0.5151
  516MOL0     H69634   6.470   4.555   4.334 -2.8540  2.0184  2.4096
  516MOL0     H69635   6.313   4.546   4.247 -0.4722  0.9637  0.5702
  516MOL0     H69636   6.484   4.789   4.282  0.5460 -0.8049  3.6068
  516MOL0     H69637   6.311   4.785   4.235  1.7147  3.2652 -1.6658
  516MOL0     H69638   6.440   4.695   4.509 -0.6437 -0.1445 -0.6342
  516MOL0     H69639   6.267   4.665   4.473 -0.0004 -0.0023  2.9399
  516MOL0     H69640   6.367   4.950   4.480 -0.2648  0.1109  1.9951
  516MOL0     H69641   6.311   4.859   4.622 -2.1527  1.3048  0.5364
  516MOL0     H69642   6.749   4.043   3.927  0.3137  0.1160 -1.0128
  516MOL0     H69643   6.741   3.792   3.899 -1.8826 -1.6082  2.2540
  516MOL0     H69644   6.746   3.420   3.986  0.8851  1.3991 -1.7154
  516MOL0     H69645   6.786   3.180   3.928 -0.7599  1.5641  2.5830
  516MOL0     H69646   5.561   2.144   3.932 -2.2362  2.0779  3.1610
  516MOL0     H69647   5.331   2.180   4.020 -1.3518 -0.2063  0.4065
  516MOL0     H69648   5.025   1.850   4.393 -1.7810  1.4141  3.6188
  516MOL0     H69649   4.785   1.850   4.462 -3.3817  1.9370  0.7665
  516MOL0     H69650   4.481   2.055   4.184 -1.7381  0.7571  0.1738
  516MOL0     H69651   4.425   1.897   4.187 -0.7864 -1.1706  1.2861
  516MOL0     H69652   4.438   2.045   4.454 -1.3003 -4.8925  2.4842
  516MOL0     H69653   4.301   1.953   4.407  1.0936 -1.2036  2.2552
  516MOL0     H69654   4.198   2.117   4.268 -0.3495  1.0107 -0.2935
  516MOL0     H69655   4.337   2.228   4.270 -1.5459  2.7449  1.0993
  516MOL0     H69656   4.212   2.312   4.443  1.7535  1.2172  3.1870
  516MOL0     H69657   4.321   2.219   4.531 -0.3836  0.6390 -0.5715
  516MOL0     H69658   3.965   2.011   4.610  1.9866 -3.4664 -2.0211
  516MOL0     H69659   4.668   2.005   4.081  2.1842  1.8881 -1.6497
  516MOL0     H69660   4.893   2.050   4.029 -0.6131 -0.3021 -0.6996
  517MOL0     O69661  10.316   7.884   5.775  0.6971  0.6428  0.0337
  517MOL0     C69662  10.341   7.776   5.831  0.0974 -0.4320 -0.1746
  517MOL0     O69663  10.242   7.689   5.878 -0.3230  0.5566 -0.3253
  517MOL0     C69664  10.115   7.722   5.852  0.4238  0.5737 -0.2459
  517MOL0     C69665  10.047   7.669   5.740 -0.4681  0.2496 -0.2951
  517MOL0     C69666   9.913   7.700   5.718  0.4931  0.7166 -0.1946
  517MOL0     C69667   9.848   7.792   5.799 -0.5909 -0.6612 -1.1588
  517MOL0     O69668   9.723   7.843   5.767 -0.0325  0.4749 -0.2695
  517MOL0     C69669   9.631   7.741   5.735 -0.2275  0.0550 -0.0826
  517MOL0     C69670   9.506   7.776   5.811 -0.2501  0.0401  0.9552
  517MOL0     C69671   9.383   7.695   5.752  0.5389  0.1149  0.3337
  517MOL0     C69672   9.259   7.757   5.810  0.1695 -0.3524 -0.7282
  517MOL0     C69673   9.129   7.692   5.769 -0.6548 -0.6155  0.4854
  517MOL0     C69674   9.086   7.562   5.843 -0.1100 -0.1266  1.3484
  517MOL0     C69675   9.003   7.595   5.967  0.3263  0.2827 -0.1127
  517MOL0     C69676   9.062   7.661   6.097 -0.4246  0.3418 -0.4466
  517MOL0     N69677   8.980   7.663   6.211  0.3100  0.4595 -1.6384
  517MOL0     C69678   8.849   7.635   6.224  0.9342  0.5627 -0.0540
  517MOL0     C69679   8.808   7.642   6.349 -0.9286  0.2133 -0.4619
  517MOL0     C69680   8.679   7.597   6.405  0.8265  0.1049  1.3362
  517MOL0     C69681   8.687   7.445   6.443  0.3864 -0.4005 -0.5958
  517MOL0     C69682   8.572   7.407   6.540  0.2685 -0.2868 -0.0577
  517MOL0     C69683   8.428   7.433   6.491 -0.4097 -0.9521 -0.7472
  517MOL0     O69684   8.398   7.566   6.529  0.3533 -0.3836 -0.1049
  517MOL0     C69685   8.347   7.669   6.446  0.5225 -0.3030  0.0785
  517MOL0     C69686   8.249   7.623   6.358  0.2070  0.4386  0.4363
  517MOL0     C69687   8.194   7.701   6.256 -0.1938 -0.1554  0.8394
  517MOL0     C69688   8.113   7.637   6.147  0.5267  0.1322 -0.0126
  517MOL0     C69689   8.238   7.843   6.253  0.3292  0.3834  0.3304
  517MOL0     C69690   8.196   7.940   6.146 -0.3008 -0.5382 -0.1242
  517MOL0     O69691   8.283   8.044   6.128 -0.1769  0.2287  0.5363
  517MOL0     C69692   8.295   8.103   6.010 -0.7762 -0.2452  0.2645
  517MOL0     C69693   8.282   8.036   5.891  0.4151 -0.5374  0.2288
  517MOL0     C69694   8.299   8.115   5.773  0.5637  0.0549 -0.0406
  517MOL0     C69695   8.298   8.254   5.771 -0.0253  0.0371 -0.0330
  517MOL0     O69696   8.294   8.330   5.655  0.2647  0.0938 -0.0024
  517MOL0     C69697   8.195   8.435   5.658  0.4258  0.4862  0.0320
  517MOL0     C69698   8.194   8.531   5.543  0.2658 -0.5518 -0.1508
  517MOL0     C69699   8.254   8.484   5.413  0.6441  0.4546  0.1965
  517MOL0     C69700   8.251   8.593   5.309  1.2816  0.3256  0.2455
  517MOL0     C69701   8.297   8.534   5.177  0.6721  0.0364  0.3899
  517MOL0     C69702   8.297   8.638   5.062  0.0587 -0.5872 -0.3353
  517MOL0     C69703   8.413   8.628   4.965 -0.4767  0.4258 -0.2986
  517MOL0     C69704   8.418   8.494   4.895 -0.3164 -0.1222 -0.0578
  517MOL0    Cl69705   8.281   8.442   4.796 -0.0074  0.1866  0.4165
  517MOL0     C69706   8.309   8.312   5.895 -0.4042 -0.2164 -0.5057
  517MOL0     C69707   8.305   8.237   6.015  0.2312 -0.2220  0.6987
  517MOL0     O69708   8.085   7.928   6.089  0.5736 -0.2033  0.1528
  517MOL0     C69709   8.324   7.888   6.357  1.5406 -0.5124  0.9885
  517MOL0     C69710   8.381   7.801   6.453 -0.1709 -0.8656  0.3368
  517MOL0     N69711   8.916   7.654   6.435 -0.3117  0.1414  0.5468
  517MOL0     N69712   9.016   7.661   6.349  0.1696  0.0133  1.2936
  517MOL0     C69713   9.922   7.838   5.912 -0.7391  0.7973 -0.4114
  517MOL0     C69714  10.055   7.798   5.940  0.3608 -0.5151 -1.5147
  517MOL0     C69715  10.480   7.760   5.866  0.8741  0.2768 -0.4211
  517MOL0     C69716  10.579   7.770   5.774  0.3306 -0.0691  0.0654
  517MOL0     C69717  10.710   7.756   5.808 -0.4582  0.5240 -0.2832
  517MOL0     C69718  10.751   7.749   5.946 -0.3553  0.2134  0.0020
  517MOL0     O69719  10.879   7.718   5.990  0.7208  0.8985  0.0136
  517MOL0     C69720  10.913   7.581   5.986  0.1195 -0.5938  0.0423
  517MOL0     C69721  11.048   7.561   6.049  0.4885 -0.1077 -0.0625
  517MOL0     C69722  11.067   7.624   6.187  0.3607 -0.6853 -0.7009
  517MOL0     C69723  10.994   7.551   6.302 -0.4398  0.6445  1.0071
  517MOL0     C69724  11.053   7.415   6.312 -0.1761  0.1726 -0.8800
  517MOL0     C69725  11.110   7.311   6.327  0.1979 -0.2798  0.0985
  517MOL0     C69726  10.645   7.734   6.036 -0.0534  0.5240 -0.3955
  517MOL0     C69727  10.514   7.744   6.004 -0.5313  0.3302  0.6912
  517MOL0     H69728  10.075   7.587   5.675 -3.1373 -2.7839  2.0313
  517MOL0     H69729   9.858   7.669   5.629  0.2066 -1.6913  0.7451
  517MOL0     H69730   9.621   7.751   5.627  1.7107  0.5653 -0.2504
  517MOL0     H69731   9.659   7.641   5.769 -0.1267  0.0772 -0.0990
  517MOL0     H69732   9.522   7.756   5.918  0.0339 -2.4503  0.4957
  517MOL0     H69733   9.490   7.882   5.792  2.6876 -0.0956 -3.8242
  517MOL0     H69734   9.384   7.690   5.643  1.3585 -5.2514  0.3303
  517MOL0     H69735   9.387   7.595   5.795  0.3658  0.7680  1.9650
  517MOL0     H69736   9.271   7.764   5.919  1.8851  1.4295 -0.9763
  517MOL0     H69737   9.266   7.860   5.774  0.8852  0.1984  0.8710
  517MOL0     H69738   9.056   7.773   5.781  2.6096  2.2247  3.8477
  517MOL0     H69739   9.146   7.678   5.662 -2.0490 -0.5793  0.2314
  517MOL0     H69740   9.025   7.497   5.780 -0.4924 -0.7857  2.3668
  517MOL0     H69741   9.173   7.507   5.879  1.4193  1.5611  0.3945
  517MOL0     H69742   8.916   7.656   5.944 -0.7243 -0.5412  1.5058
  517MOL0     H69743   8.965   7.502   6.009  1.8414 -0.0865  0.5166
  517MOL0     H69744   9.065   7.764   6.061 -2.9317  0.7342  0.2576
  517MOL0     H69745   9.168   7.638   6.116  0.0454  2.1955 -0.6154
  517MOL0     H69746   8.791   7.617   6.134  0.5747  0.0375  0.2810
  517MOL0     H69747   8.641   7.656   6.489 -0.6216 -2.2557  2.4668
  517MOL0     H69748   8.605   7.606   6.325  0.7181  2.6467  1.6535
  517MOL0     H69749   8.783   7.417   6.488  0.0167 -0.7891 -0.0208
  517MOL0     H69750   8.675   7.382   6.355  1.0254  0.4006 -1.2673
  517MOL0     H69751   8.577   7.465   6.632 -2.1142  0.4774 -0.3326
  517MOL0     H69752   8.587   7.305   6.574  1.7436  0.1639  0.7068
  517MOL0     H69753   8.359   7.376   6.554  0.5838 -1.4453 -0.0853
  517MOL0     H69754   8.416   7.416   6.384 -2.1240 -1.2567 -0.5303
  517MOL0     H69755   8.212   7.520   6.359 -1.6540  1.0607 -0.0767
  517MOL0     H69756   8.154   7.539   6.121  0.8789  0.5844 -1.2413
  517MOL0     H69757   8.010   7.634   6.184  1.2409 -0.1818  2.0651
  517MOL0     H69758   8.120   7.686   6.049 -0.3161 -2.1059 -1.2828
  517MOL0     H69759   8.278   7.928   5.890  1.8689 -0.6136 -1.5699
  517MOL0     H69760   8.292   8.074   5.673  0.5688 -0.6560  0.2416
  517MOL0     H69761   8.098   8.386   5.668 -0.8925  3.2440  2.2155
  517MOL0     H69762   8.209   8.495   5.748  0.8288 -1.1112  1.0622
  517MOL0     H69763   8.089   8.539   5.517 -0.0134  2.5765  1.5253
  517MOL0     H69764   8.232   8.631   5.566  1.3560 -0.0565 -3.4845
  517MOL0     H69765   8.197   8.404   5.366  0.0221 -0.1938  1.9965
  517MOL0     H69766   8.357   8.454   5.436 -1.2399 -5.2270  2.9732
  517MOL0     H69767   8.152   8.638   5.293  0.2953 -1.1785  1.7566
  517MOL0     H69768   8.325   8.669   5.335 -0.2649  1.9075  0.2228
  517MOL0     H69769   8.230   8.452   5.148  0.5151  1.1742 -2.8661
  517MOL0     H69770   8.394   8.483   5.174  0.4290 -0.3727 -1.0123
  517MOL0     H69771   8.201   8.634   5.010 -1.1255 -0.2662  1.6987
  517MOL0     H69772   8.302   8.738   5.106 -1.6331 -0.7232  0.2273
  517MOL0     H69773   8.514   8.637   5.007  0.4461 -0.4324 -2.2272
  517MOL0     H69774   8.416   8.707   4.890  1.6543 -1.1391 -2.0090
  517MOL0     H69775   8.434   8.420   4.974  3.1902  1.6819  1.1236
  517MOL0     H69776   8.505   8.504   4.830 -1.2583  1.2571 -1.1597
  517MOL0     H69777   8.344   8.415   5.902  2.7405 -1.0875 -1.8499
  517MOL0     H69778   8.318   8.287   6.110  3.1075  1.2022 -0.3052
  517MOL0     H69779   8.353   7.993   6.365 -1.3712  0.4677  0.0047
  517MOL0     H69780   8.447   7.833   6.533 -1.2735 -1.6341  1.5953
  517MOL0     H69781   9.885   7.918   5.976  1.2282  1.8442 -0.5362
  517MOL0     H69782  10.114   7.832   6.025 -1.8045 -0.1148 -0.0754
  517MOL0     H69783  10.544   7.785   5.672 -0.2273 -2.0542 -0.0686
  517MOL0     H69784  10.794   7.757   5.740  1.3488 -4.5206  1.4493
  517MOL0     H69785  10.837   7.521   6.036 -0.0079 -0.7206 -0.3009
  517MOL0     H69786  10.926   7.554   5.880  0.0588  3.0710 -1.0232
  517MOL0     H69787  11.124   7.619   5.995  1.4140  1.2088  2.4986
  517MOL0     H69788  11.078   7.456   6.042 -1.1121 -0.5182 -1.7841
  517MOL0     H69789  11.035   7.729   6.182 -0.6281 -0.9913 -1.1219
  517MOL0     H69790  11.176   7.633   6.196  0.1640  2.1438 -0.2043
  517MOL0     H69791  10.885   7.553   6.295 -0.5997  2.9560  2.9801
  517MOL0     H69792  11.011   7.598   6.399 -2.9722 -2.2608  3.0607
  517MOL0     H69793  11.152   7.214   6.347  0.4065 -0.2667 -0.2551
  517MOL0     H69794  10.666   7.713   6.141 -1.2757  1.1630 -0.0003
  517MOL0     H69795  10.446   7.713   6.083 -0.8392 -1.4017 -0.2217
  518MOL0     O69796   4.032   6.877   4.106 -0.2876  0.4507  0.2948
  518MOL0     C69797   4.103   6.950   4.147 -1.3536 -1.0741 -0.3390
  518MOL0     O69798   4.083   7.004   4.273 -0.4989  0.2153  0.2026
  518MOL0     C69799   4.048   6.920   4.377  0.7248 -0.3570  0.3635
  518MOL0     C69800   4.023   6.994   4.492 -0.0463  0.0225 -0.2463
  518MOL0     C69801   3.997   6.932   4.624 -1.2044 -0.2966  1.4629
  518MOL0     C69802   4.000   6.793   4.637 -0.1556  0.1705 -0.6389
  518MOL0     O69803   3.973   6.732   4.763 -0.5258 -0.5949  0.5939
  518MOL0     C69804   4.083   6.644   4.789 -0.0079  0.3178  0.5320
  518MOL0     C69805   4.122   6.620   4.939  0.1015 -0.9020 -0.2480
  518MOL0     C69806   4.123   6.737   5.017 -0.1754  0.0291 -0.0240
  518MOL0     C69807   4.219   6.707   5.133 -0.0900  0.3967 -0.3508
  518MOL0     C69808   4.212   6.802   5.257  0.4905  0.4797 -0.5894
  518MOL0     C69809   4.288   6.748   5.382 -0.0141 -0.4855  0.0415
  518MOL0     C69810   4.447   6.755   5.374  0.8675 -0.5877 -0.6574
  518MOL0     C69811   4.516   6.638   5.308  0.0762 -0.1914 -0.0707
  518MOL0     N69812   4.660   6.659   5.314  0.3913  0.0154 -0.4423
  518MOL0     C69813   4.738   6.641   5.429 -0.2406 -0.3386 -0.0383
  518MOL0     C69814   4.865   6.678   5.408 -1.5957  0.3346 -0.0579
  518MOL0     C69815   4.983   6.663   5.500 -0.5878 -0.0187  0.3795
  518MOL0     C69816   5.115   6.657   5.432 -0.3285 -0.1075  0.5061
  518MOL0     C69817   5.232   6.629   5.518 -1.1430  0.3391  0.2169
  518MOL0     C69818   5.225   6.490   5.601 -0.6501  0.0097  0.8149
  518MOL0     O69819   5.193   6.376   5.521  0.2527  0.4231 -0.2454
  518MOL0     C69820   5.142   6.276   5.595 -1.2026  0.6676 -0.9291
  518MOL0     C69821   5.014   6.240   5.586 -0.2642 -0.4194 -0.1482
  518MOL0     C69822   4.957   6.124   5.652  0.2930 -0.3435 -0.1342
  518MOL0     C69823   4.812   6.107   5.645  0.0128  0.5451  0.3739
  518MOL0     C69824   5.044   6.041   5.737  0.4769  0.2845  0.2819
  518MOL0     C69825   4.995   5.926   5.809 -0.1841  0.8790  0.0733
  518MOL0     O69826   5.096   5.873   5.891 -0.1683 -0.1083  0.5587
  518MOL0     C69827   5.066   5.788   5.998  0.7358 -0.0631 -0.4685
  518MOL0     C69828   5.115   5.657   5.986  0.5569 -0.6620 -0.8430
  518MOL0     C69829   5.092   5.562   6.087  0.1065  0.6168 -0.5945
  518MOL0     C69830   5.029   5.604   6.207 -0.2899 -0.3235 -0.6720
  518MOL0     O69831   5.002   5.516   6.309 -0.2050  0.3817 -0.4973
  518MOL0     C69832   5.081   5.404   6.343  0.1278  1.5335 -0.3719
  518MOL0     C69833   5.213   5.459   6.385 -0.6631 -0.5523  0.5984
  518MOL0     C69834   5.300   5.354   6.445  0.1732 -0.2629  0.6552
  518MOL0     C69835   5.334   5.225   6.378 -0.1922 -0.2229 -0.5468
  518MOL0     C69836   5.464   5.163   6.432  0.4817 -0.7793 -0.5557
  518MOL0     C69837   5.435   5.080   6.562  0.1424  0.1488  0.0550
  518MOL0     C69838   5.541   4.969   6.581  0.0729  0.2223 -0.8541
  518MOL0     C69839   5.494   4.864   6.678 -0.0705 -0.1759  0.5359
  518MOL0    Cl69840   5.426   4.925   6.832 -0.4510 -0.1307  0.1502
  518MOL0     C69841   4.987   5.740   6.227 -0.6051  0.7157 -0.5185
  518MOL0     C69842   5.004   5.824   6.123 -0.5349 -0.4618 -0.6371
  518MOL0     O69843   4.873   5.897   5.827 -0.2260 -0.1362  0.4065
  518MOL0     C69844   5.181   6.077   5.729  0.1400 -0.2861  0.0833
  518MOL0     C69845   5.230   6.190   5.659  0.2998 -0.6467  0.0772
  518MOL0     N69846   4.858   6.722   5.274  0.2537  0.1284 -0.2581
  518MOL0     N69847   4.745   6.711   5.223 -0.3096 -0.0040 -0.5338
  518MOL0     C69848   4.028   6.724   4.514  0.4810  0.7228  0.2832
  518MOL0     C69849   4.049   6.781   4.391  0.0091  0.1174  0.2302
  518MOL0     C69850   4.232   6.989   4.078 -0.4069  0.2148 -0.2390
  518MOL0     C69851   4.231   6.982   3.942 -0.1250 -0.8960  0.7994
  518MOL0     C69852   4.335   7.049   3.867  0.5342  0.7469  0.5921
  518MOL0     C69853   4.451   7.086   3.934  0.6559 -0.0148 -0.1921
  518MOL0     O69854   4.574   7.135   3.896 -0.0517 -0.3284  0.3169
  518MOL0     C69855   4.592   7.180   3.758  0.7898  0.7755  1.3594
  518MOL0     C69856   4.732   7.219   3.733 -0.6119  0.2134 -0.3065
  518MOL0     C69857   4.842   7.120   3.776  0.0769 -0.0798  0.3178
  518MOL0     C69858   4.961   7.161   3.858 -0.4263 -0.3397  0.4201
  518MOL0     C69859   5.048   7.260   3.781  0.7897 -0.4534 -0.0811
  518MOL0     C69860   5.103   7.351   3.723  0.1683 -0.5144 -0.2034
  518MOL0     C69861   4.463   7.073   4.069  0.2155 -0.4592  0.6804
  518MOL0     C69862   4.349   7.035   4.139 -0.4810 -0.4494  0.1742
  518MOL0     H69863   4.030   7.102   4.492 -3.3201  0.3662 -2.1580
  518MOL0     H69864   3.966   6.988   4.712 -3.5884 -0.3255  0.6948
  518MOL0     H69865   4.045   6.549   4.752  1.1221 -0.7249  1.9482
  518MOL0     H69866   4.176   6.677   4.740 -0.5036  1.8596  0.5707
  518MOL0     H69867   4.052   6.552   4.990  0.4874 -0.4610  0.9089
  518MOL0     H69868   4.220   6.571   4.939  1.7600  2.1574 -0.6086
  518MOL0     H69869   4.159   6.824   4.960 -1.0179 -0.3738 -1.2037
  518MOL0     H69870   4.028   6.757   5.068  1.2551 -2.3016  3.9982
  518MOL0     H69871   4.180   6.615   5.177  0.8705 -0.1082 -0.5162
  518MOL0     H69872   4.322   6.694   5.099  1.3119  0.3841  3.4330
  518MOL0     H69873   4.264   6.893   5.224  0.4271  1.1419  1.0757
  518MOL0     H69874   4.111   6.832   5.286  0.3614 -0.5532  0.0654
  518MOL0     H69875   4.243   6.810   5.460 -2.6786 -1.4187 -0.6703
  518MOL0     H69876   4.261   6.643   5.396 -0.6841 -0.5376 -1.4837
  518MOL0     H69877   4.473   6.840   5.311 -1.5165  0.8949  0.2181
  518MOL0     H69878   4.472   6.769   5.480  0.0294 -1.9089 -0.2584
  518MOL0     H69879   4.481   6.616   5.207 -1.0090 -1.1687  0.4885
  518MOL0     H69880   4.499   6.548   5.368  0.9976 -1.9232 -2.2762
  518MOL0     H69881   4.705   6.598   5.523  3.8556 -0.5650  1.5001
  518MOL0     H69882   4.984   6.746   5.572 -1.0231 -0.2649  0.6720
  518MOL0     H69883   4.969   6.567   5.551 -1.6202  0.4421  0.9937
  518MOL0     H69884   5.140   6.751   5.381 -1.3277 -0.7281 -1.1952
  518MOL0     H69885   5.105   6.584   5.351 -2.9735  1.9343 -1.2113
  518MOL0     H69886   5.250   6.717   5.580 -0.1003 -0.1341  0.6140
  518MOL0     H69887   5.319   6.634   5.452  0.4319  2.5936  2.3091
  518MOL0     H69888   5.149   6.508   5.678 -1.5298  1.3505 -0.3128
  518MOL0     H69889   5.322   6.481   5.649 -0.6111  2.6655  1.3860
  518MOL0     H69890   4.950   6.305   5.528 -2.6253 -0.8201  1.8226
  518MOL0     H69891   4.759   6.176   5.578 -1.7586 -1.9353 -0.9484
  518MOL0     H69892   4.782   6.008   5.609  0.0722  0.3353  0.8923
  518MOL0     H69893   4.774   6.109   5.747  0.0311  2.9843  0.3922
  518MOL0     H69894   5.159   5.632   5.891  0.0274  1.1878 -1.6197
  518MOL0     H69895   5.115   5.456   6.073 -1.7041  0.1194 -0.0642
  518MOL0     H69896   5.029   5.355   6.426  1.0292 -2.5886 -2.0297
  518MOL0     H69897   5.097   5.323   6.271  2.1187  0.6821  0.9481
  518MOL0     H69898   5.270   5.487   6.296  1.1640  1.3790  2.2597
  518MOL0     H69899   5.203   5.549   6.446 -1.8056  0.4703 -1.0260
  518MOL0     H69900   5.260   5.338   6.546 -2.3924 -1.3161 -0.4370
  518MOL0     H69901   5.397   5.402   6.459 -0.0040  0.4695 -0.4909
  518MOL0     H69902   5.261   5.145   6.390  1.4410 -2.0627 -2.2240
  518MOL0     H69903   5.334   5.246   6.271  0.1174 -3.8436 -1.3701
  518MOL0     H69904   5.541   5.238   6.449 -2.1336  1.9972 -0.2298
  518MOL0     H69905   5.505   5.102   6.350 -0.2998 -0.5940 -1.1038
  518MOL0     H69906   5.445   5.147   6.647  1.8874  2.2153 -1.6611
  518MOL0     H69907   5.333   5.040   6.551 -0.0842  1.0889 -1.4620
  518MOL0     H69908   5.633   5.016   6.618 -0.6408  0.0650  1.2553
  518MOL0     H69909   5.549   4.931   6.479 -2.1307 -2.8359 -0.0262
  518MOL0     H69910   5.578   4.798   6.703  0.3092  0.9732  2.5035
  518MOL0     H69911   5.421   4.795   6.635 -1.8623 -2.1638  5.9632
  518MOL0     H69912   4.949   5.769   6.325  0.9730  1.7046 -0.1665
  518MOL0     H69913   4.955   5.920   6.137 -0.3665  0.0741 -3.2345
  518MOL0     H69914   5.257   6.022   5.784  0.2166 -2.0813 -1.6916
  518MOL0     H69915   5.337   6.200   5.669  0.6086 -2.1876 -1.2561
  518MOL0     H69916   4.017   6.617   4.529 -0.1314  0.6077 -0.8548
  518MOL0     H69917   4.054   6.720   4.302 -1.1759  1.4558 -0.8066
  518MOL0     H69918   4.151   6.934   3.888  0.3474  1.3710 -2.2065
  518MOL0     H69919   4.321   7.057   3.760 -2.8050 -2.5944  0.5481
  518MOL0     H69920   4.563   7.093   3.698  0.1290  0.6103  1.8945
  518MOL0     H69921   4.533   7.271   3.747  1.7063  1.2456  0.2256
  518MOL0     H69922   4.735   7.322   3.770 -0.0437  1.2318 -2.9296
  518MOL0     H69923   4.742   7.226   3.624 -1.1689 -3.5549 -0.7478
  518MOL0     H69924   4.872   7.061   3.688  1.6610 -1.9986  2.0433
  518MOL0     H69925   4.795   7.041   3.835  1.3676 -1.1294 -0.0073
  518MOL0     H69926   5.027   7.083   3.895 -1.6096  0.0242  3.6279
  518MOL0     H69927   4.936   7.205   3.955  0.4306  1.1620 -0.0047
  518MOL0     H69928   5.138   7.436   3.667 -1.7331  1.5534  1.5803
  518MOL0     H69929   4.554   7.098   4.123  1.4506  1.1293 -1.9828
  518MOL0     H69930   4.341   7.029   4.247 -0.9451 -0.2470  0.1529
  519MOL0     O69931  10.898   9.712   8.697  0.9083  0.0112 -0.3708
  519MOL0     C69932  10.968   9.705   8.598 -0.7437  0.6498  0.5792
  519MOL0     O69933  10.989   9.808   8.504 -0.2940 -0.3476 -0.2695
  519MOL0     C69934  10.915   9.920   8.519 -0.9289  0.0890  0.3519
  519MOL0     C69935  10.985  10.036   8.537  0.4543 -0.5648  0.2841
  519MOL0     C69936  10.913  10.156   8.563 -0.3215 -0.1129 -0.3245
  519MOL0     C69937  10.777  10.150   8.565  0.2061 -0.1102  1.1891
  519MOL0     O69938  10.705  10.266   8.555  0.1967 -0.2542  0.2250
  519MOL0     C69939  10.784  10.393   8.568  0.1590  0.0110 -0.5866
  519MOL0     C69940  10.683  10.509   8.578  0.6107 -0.0115 -0.9818
  519MOL0     C69941  10.603  10.556   8.456 -0.3266  0.2683 -0.0515
  519MOL0     C69942  10.520  10.679   8.474 -0.7644 -1.1094 -0.1417
  519MOL0     C69943  10.588  10.805   8.534  0.1243  0.0092  0.4215
  519MOL0     C69944  10.682  10.874   8.433  0.6664 -0.9257 -0.5955
  519MOL0     C69945  10.823  10.885   8.497 -0.2782 -0.6322  0.0062
  519MOL0     C69946  10.924  10.974   8.410 -0.1557 -0.4045  0.2447
  519MOL0     N69947  10.968  10.893   8.292 -0.3270 -0.8357  0.7490
  519MOL0     C69948  10.891  10.862   8.182  0.6251  0.6826 -0.0889
  519MOL0     C69949  10.950  10.758   8.120 -0.3611  0.8022 -0.2986
  519MOL0     C69950  10.906  10.698   7.992 -0.8333  0.6973 -0.4159
  519MOL0     C69951  10.782  10.610   8.023 -0.2883  0.6233 -0.3529
  519MOL0     C69952  10.795  10.465   8.053 -0.3607  0.5230 -1.4326
  519MOL0     C69953  10.882  10.433   8.158 -0.1625 -0.5192 -0.4405
  519MOL0     O69954  10.858  10.293   8.191  0.0644 -0.6212  0.4727
  519MOL0     C69955  10.925  10.190   8.134 -0.0575  0.4449  0.8334
  519MOL0     C69956  10.889  10.069   8.171  0.1055  0.7547 -0.3053
  519MOL0     C69957  10.929   9.950   8.112  0.0502 -0.0441  0.8830
  519MOL0     C69958  10.875   9.826   8.165  1.2704 -0.9930  0.2543
  519MOL0     C69959  11.036   9.958   8.016  0.6192  0.3139 -0.0974
  519MOL0     C69960  11.092   9.836   7.948  0.3211  0.3658 -0.7777
  519MOL0     O69961  11.144   9.856   7.827  0.5716  0.6515 -0.2613
  519MOL0     C69962  11.242   9.762   7.786 -0.1029 -0.1065 -0.2069
  519MOL0     C69963  11.373   9.776   7.814  0.5159 -0.1088  0.1087
  519MOL0     C69964  11.464   9.673   7.789  0.7348 -0.4703  0.5824
  519MOL0     C69965  11.413   9.556   7.724  0.1209 -0.3682 -0.3176
  519MOL0     O69966  11.506   9.460   7.690 -0.0321  0.5445  0.6590
  519MOL0     C69967  11.549   9.440   7.553  0.5504 -0.2608  0.4224
  519MOL0     C69968  11.696   9.448   7.518 -1.0700  0.8031 -0.0773
  519MOL0     C69969  11.775   9.350   7.600 -0.5799  0.9085  1.0173
  519MOL0     C69970  11.922   9.335   7.581 -0.7660  0.2396  0.2164
  519MOL0     C69971  11.955   9.275   7.443  0.1200  1.1573 -1.0565
  519MOL0     C69972  12.101   9.233   7.427 -0.1353  0.4972  0.3907
  519MOL0     C69973  12.144   9.195   7.289  0.0746  0.4319 -0.4283
  519MOL0     C69974  12.295   9.176   7.277  0.3579 -0.1880 -0.3683
  519MOL0    Cl69975  12.342   9.223   7.113  0.0656 -0.2440  0.5803
  519MOL0     C69976  11.282   9.544   7.695  0.2220  0.3124  0.0972
  519MOL0     C69977  11.192   9.647   7.724  0.4172  0.0623  0.1576
  519MOL0     O69978  11.086   9.727   7.999 -0.4090 -0.1413  0.5351
  519MOL0     C69979  11.085  10.084   7.976  0.8361 -0.6876  0.4301
  519MOL0     C69980  11.028  10.196   8.040 -0.5394 -0.6168  0.1424
  519MOL0     N69981  11.068  10.728   8.199  1.5155 -0.8760 -0.2128
  519MOL0     N69982  11.069  10.811   8.293 -0.4983 -0.1128  0.4649
  519MOL0     C69983  10.702  10.040   8.545 -0.0027  0.0248 -0.5214
  519MOL0     C69984  10.779   9.923   8.529  0.7252 -0.4425  0.2452
  519MOL0     C69985  11.051   9.578   8.574 -0.1200  0.0513 -0.0696
  519MOL0     C69986  11.022   9.465   8.658  0.2865 -0.7080  0.1144
  519MOL0     C69987  11.096   9.351   8.646  0.2551 -0.7887  0.8124
  519MOL0     C69988  11.212   9.351   8.570  0.0012  0.3446  0.4081
  519MOL0     O69989  11.296   9.239   8.568 -0.2219  0.3123 -0.4078
  519MOL0     C69990  11.334   9.181   8.693  0.4384 -0.0031  0.0902
  519MOL0     C69991  11.458   9.109   8.668  0.1561 -0.1576 -0.0523
  519MOL0     C69992  11.493   9.039   8.784 -1.4876  0.2140  0.0326
  519MOL0     C69993  11.646   8.993   8.767 -0.0395 -0.7634  0.1024
  519MOL0     C69994  11.702   8.950   8.898  0.1922 -0.1725  0.2621
  519MOL0     C69995  11.754   8.922   9.008 -0.2106 -0.4636  0.1248
  519MOL0     C69996  11.228   9.456   8.477 -0.2511 -0.1488  0.0378
  519MOL0     C69997  11.149   9.567   8.471  0.5535 -0.1590  0.4196
  519MOL0     H69998  11.094  10.033   8.539  0.4499 -0.7553  1.8685
  519MOL0     H69999  10.970  10.246   8.583 -0.7657  0.2133 -0.5355
  519MOL0     H70000  10.837  10.406   8.662  0.6112  3.0141 -1.1476
  519MOL0     H70001  10.846  10.401   8.478 -0.6052  1.8093 -0.9956
  519MOL0     H70002  10.608  10.495   8.657  2.7915  1.3801  1.5151
  519MOL0     H70003  10.739  10.593   8.620  0.2631  0.4442 -1.4115
  519MOL0     H70004  10.672  10.569   8.372 -0.6022 -1.4119 -0.5648
  519MOL0     H70005  10.535  10.475   8.433  0.8035 -0.2953 -1.5946
  519MOL0     H70006  10.469  10.698   8.379 -3.5979  1.3210  1.6713
  519MOL0     H70007  10.447  10.645   8.547 -1.5500  2.4558  0.9251
  519MOL0     H70008  10.511  10.882   8.545 -3.2037 -2.6640 -2.1478
  519MOL0     H70009  10.633  10.787   8.632 -1.3220  1.3653  1.3750
  519MOL0     H70010  10.692  10.816   8.342  4.1377 -2.4397  0.5869
  519MOL0     H70011  10.642  10.975   8.423 -0.7601 -0.8918  3.4487
  519MOL0     H70012  10.830  10.931   8.596  1.9149  1.6821 -1.1033
  519MOL0     H70013  10.862  10.783   8.501  1.6127 -0.1709 -3.0234
  519MOL0     H70014  11.008  10.997   8.476  0.5884  0.6477 -1.0142
  519MOL0     H70015  10.879  11.067   8.372  0.3552 -0.2163  0.0857
  519MOL0     H70016  10.800  10.908   8.145  1.7804  2.0655 -1.3546
  519MOL0     H70017  10.894  10.782   7.923  3.4852  1.0971 -0.9557
  519MOL0     H70018  10.988  10.638   7.953  0.3925  1.4208  0.9313
  519MOL0     H70019  10.718  10.616   7.935 -0.2389  2.1325 -0.3168
  519MOL0     H70020  10.725  10.652   8.106 -0.8565  0.2913 -0.5756
  519MOL0     H70021  10.840  10.406   7.973 -0.8322 -1.4662 -0.3178
  519MOL0     H70022  10.692  10.427   8.062 -0.0526  0.2162  2.3754
  519MOL0     H70023  10.864  10.503   8.240  0.6327  1.3778 -1.8071
  519MOL0     H70024  10.982  10.459   8.123  0.4181 -0.7314  0.9880
  519MOL0     H70025  10.813  10.065   8.248  1.1294  3.7354  0.9952
  519MOL0     H70026  10.938   9.781   8.242  2.5741 -0.2672 -0.3551
  519MOL0     H70027  10.776   9.837   8.211  1.7508 -1.5119  1.4577
  519MOL0     H70028  10.847   9.757   8.085 -1.3196  0.5087 -0.2640
  519MOL0     H70029  11.378   9.860   7.883 -1.4871 -2.7373  3.8086
  519MOL0     H70030  11.566   9.684   7.823  1.1298  0.9095 -0.9330
  519MOL0     H70031  11.516   9.340   7.522 -3.2931  0.4890  1.4942
  519MOL0     H70032  11.496   9.510   7.488  2.4727 -1.2042 -2.3320
  519MOL0     H70033  11.713   9.425   7.412  0.8473  2.7182 -0.2779
  519MOL0     H70034  11.724   9.553   7.532  1.7845  0.0373  0.6192
  519MOL0     H70035  11.727   9.253   7.613  3.0580 -0.9684  2.0175
  519MOL0     H70036  11.770   9.394   7.700 -0.2674 -0.9162  1.8716
  519MOL0     H70037  11.975   9.429   7.597 -1.7091  0.7472  0.4187
  519MOL0     H70038  11.949   9.267   7.663 -2.5791  0.7069  1.2558
  519MOL0     H70039  11.930   9.345   7.363  1.1867  0.6261 -1.8819
  519MOL0     H70040  11.894   9.186   7.424  0.0900  1.6288 -3.3985
  519MOL0     H70041  12.175   9.307   7.461 -0.5410  0.7354  0.7764
  519MOL0     H70042  12.133   9.148   7.488  1.8655  0.3998 -0.7156
  519MOL0     H70043  12.113   9.275   7.221 -0.8899 -1.0895 -1.8713
  519MOL0     H70044  12.108   9.095   7.262  3.0258 -0.5194 -1.1836
  519MOL0     H70045  12.320   9.069   7.281 -0.9577 -0.4938  0.7402
  519MOL0     H70046  12.344   9.229   7.359  1.1284 -1.5840  0.1123
  519MOL0     H70047  11.252   9.453   7.644  1.3708 -1.3522  2.2172
  519MOL0     H70048  11.087   9.640   7.698  0.1666 -2.3325  1.5422
  519MOL0     H70049  11.154  10.090   7.892 -1.6366 -1.9468 -1.8330
  519MOL0     H70050  11.075  10.291   8.015 -0.2083  0.5003  4.2601
  519MOL0     H70051  10.595  10.055   8.553 -0.3299 -1.1685 -2.1983
  519MOL0     H70052  10.729   9.831   8.499 -1.2802  1.2509 -1.9675
  519MOL0     H70053  10.934   9.479   8.720  0.1230 -0.5686 -0.1481
  519MOL0     H70054  11.067   9.271   8.714 -0.1915  0.5365  2.2220
  519MOL0     H70055  11.336   9.257   8.772 -0.3871  1.6082 -1.3710
  519MOL0     H70056  11.252   9.112   8.716  0.0713  0.9491  1.8542
  519MOL0     H70057  11.532   9.181   8.630  1.0957 -0.9878  0.1744
  519MOL0     H70058  11.438   9.036   8.589 -1.8639 -1.2004  1.3257
  519MOL0     H70059  11.426   8.957   8.811  0.3869 -1.2379  0.5183
  519MOL0     H70060  11.494   9.110   8.868  0.6463 -1.6151  1.6881
  519MOL0     H70061  11.703   9.079   8.729 -0.9853 -0.9655 -1.8659
  519MOL0     H70062  11.649   8.918   8.688 -0.0704  0.3323 -0.9702
  519MOL0     H70063  11.793   8.901   9.105 -0.8131 -3.5556 -0.1790
  519MOL0     H70064  11.315   9.439   8.414 -0.4357 -2.7031  0.3672
  519MOL0     H70065  11.159   9.647   8.399  2.1125  0.1739  0.9643
  520MOL0     O70066   9.240   3.021  10.732 -0.3465  0.1326 -0.4510
  520MOL0     C70067   9.218   2.985  10.620 -0.3685  0.1259 -0.4167
  520MOL0     O70068   9.106   2.934  10.578  0.1756 -0.3191  0.2073
  520MOL0     C70069   8.979   2.969  10.644 -0.7898  0.2325  0.0290
  520MOL0     C70070   8.863   2.884  10.639  0.0049  0.2242 -0.3829
  520MOL0     C70071   8.741   2.913  10.691  0.6765 -0.8968 -0.5272
  520MOL0     C70072   8.724   3.042  10.751  0.3045 -0.3366  0.2184
  520MOL0     O70073   8.600   3.084  10.800  0.0931 -0.1540 -0.0358
  520MOL0     C70074   8.509   2.980  10.835 -0.3106  0.8557 -1.3177
  520MOL0     C70075   8.381   3.044  10.894  0.9989 -0.6536 -0.2090
  520MOL0     C70076   8.272   2.929  10.930  0.1342 -0.0173  0.1742
  520MOL0     C70077   8.183   2.959  11.051  1.7810  0.7478  0.1083
  520MOL0     C70078   8.095   2.839  11.073  0.3960  0.2079 -0.1680
  520MOL0     C70079   8.179   2.725  11.142 -0.7894 -0.1876  0.4502
  520MOL0     C70080   8.096   2.590  11.142 -0.4808 -0.1205 -0.6588
  520MOL0     C70081   8.097   2.510  11.268  0.0970 -0.8626 -0.1807
  520MOL0     N70082   8.093   2.373  11.230  0.5361  0.5477 -0.2156
  520MOL0     C70083   7.988   2.305  11.185  0.7221 -0.4876  0.0783
  520MOL0     C70084   8.040   2.180  11.166  0.0499  0.1585 -0.1420
  520MOL0     C70085   7.957   2.056  11.140 -0.3928  0.7641 -0.3692
  520MOL0     C70086   7.894   2.029  11.281  0.7220 -0.4382  0.0247
  520MOL0     C70087   7.812   1.893  11.284 -0.0476  0.1801 -0.3179
  520MOL0     C70088   7.688   1.928  11.198 -0.1349  0.1341 -0.9759
  520MOL0     O70089   7.591   1.829  11.239 -0.4393  0.4627 -0.0813
  520MOL0     C70090   7.464   1.834  11.198  0.4380  0.7292 -0.1493
  520MOL0     C70091   7.408   1.911  11.097 -0.1273  0.2998 -0.0431
  520MOL0     C70092   7.270   1.912  11.072  0.8711 -0.1010 -0.4065
  520MOL0     C70093   7.220   1.991  10.957  0.9299  0.2600 -0.3965
  520MOL0     C70094   7.190   1.823  11.155 -0.4935 -0.8514  0.1232
  520MOL0     C70095   7.040   1.830  11.146 -0.1264 -0.6440  0.4922
  520MOL0     O70096   6.990   1.957  11.130  0.6613  0.5234  0.3253
  520MOL0     C70097   6.850   1.966  11.122 -0.4760  1.0519  0.1492
  520MOL0     C70098   6.785   2.024  11.009  1.0012 -0.8805  0.0641
  520MOL0     C70099   6.651   2.036  10.990 -1.4554 -1.0335 -0.1100
  520MOL0     C70100   6.572   1.996  11.089  0.6775 -0.5078 -0.4623
  520MOL0     O70101   6.432   1.993  11.073 -0.2058  0.2994  0.3327
  520MOL0     C70102   6.381   2.129  11.040 -0.4998 -0.9122 -0.2321
  520MOL0     C70103   6.220   2.137  11.047 -0.8369  1.1199  0.0298
  520MOL0     C70104   6.149   2.064  11.165 -0.8629 -0.5393 -0.0411
  520MOL0     C70105   6.175   2.139  11.297 -0.1823  1.0904 -0.3366
  520MOL0     C70106   6.079   2.085  11.397  0.3354  0.3086 -1.5758
  520MOL0     C70107   6.075   2.174  11.519  0.3795  1.0310  0.3638
  520MOL0     C70108   6.044   2.096  11.647  0.4695 -0.3874 -0.5056
  520MOL0     C70109   6.039   2.201  11.767 -0.7538  1.1107 -0.1542
  520MOL0    Cl70110   5.883   2.296  11.801  0.0401 -0.5929 -0.5207
  520MOL0     C70111   6.630   1.951  11.213  0.4928 -0.3135 -0.4136
  520MOL0     C70112   6.769   1.941  11.226 -0.4945  0.0863 -1.1935
  520MOL0     O70113   6.980   1.724  11.135  0.1497  0.0373 -0.3323
  520MOL0     C70114   7.248   1.738  11.244 -0.1584 -0.9029  0.0857
  520MOL0     C70115   7.382   1.738  11.269 -0.3742  0.1499 -0.4903
  520MOL0     N70116   8.181   2.188  11.179 -0.4431 -0.2356  0.3724
  520MOL0     N70117   8.209   2.308  11.212  0.2201 -0.1160 -0.0110
  520MOL0     C70118   8.832   3.129  10.753  0.4196  0.8082 -0.2165
  520MOL0     C70119   8.960   3.097  10.704  0.0927  0.0108 -0.5807
  520MOL0     C70120   9.342   2.967  10.532 -0.0256 -0.0073 -0.4822
  520MOL0     C70121   9.344   2.893  10.413  0.2544 -0.2725  1.1183
  520MOL0     C70122   9.466   2.874  10.341  0.3608 -0.0217  0.9291
  520MOL0     C70123   9.582   2.943  10.366  0.5833  0.2241  0.3600
  520MOL0     O70124   9.707   2.930  10.306  0.2351 -0.1329  0.9141
  520MOL0     C70125   9.738   2.801  10.259  0.2150  0.7852  0.4921
  520MOL0     C70126   9.757   2.700  10.373 -0.8647  0.1020 -0.3639
  520MOL0     C70127   9.867   2.758  10.464 -0.0862  0.1180 -1.9032
  520MOL0     C70128   9.915   2.652  10.566  0.5476  0.6709 -0.3226
  520MOL0     C70129   9.993   2.548  10.490  0.3989  1.0937 -0.0881
  520MOL0     C70130  10.060   2.462  10.434  0.0532 -0.3504 -0.8820
  520MOL0     C70131   9.569   3.028  10.474  0.3954  0.5287 -0.0358
  520MOL0     C70132   9.459   3.035  10.563  0.2667  0.3431 -0.1605
  520MOL0     H70133   8.879   2.793  10.582 -1.7144 -0.4863  0.1898
  520MOL0     H70134   8.660   2.842  10.687  1.1285 -1.3822 -1.1523
  520MOL0     H70135   8.476   2.925  10.746  2.8970 -1.8263 -1.0500
  520MOL0     H70136   8.549   2.914  10.914  0.9289  1.4767 -1.4088
  520MOL0     H70137   8.410   3.097  10.985  2.0840  2.9711 -2.4806
  520MOL0     H70138   8.333   3.121  10.834  0.0378 -0.9254  0.1882
  520MOL0     H70139   8.193   2.915  10.856 -1.2565  4.2577  0.5838
  520MOL0     H70140   8.337   2.842  10.945  2.5728  1.4954 -0.8662
  520MOL0     H70141   8.230   2.992  11.144 -0.6321 -1.2647  2.1925
  520MOL0     H70142   8.109   3.033  11.020  0.5045 -0.4763  0.1004
  520MOL0     H70143   8.009   2.875  11.130 -0.9215 -1.8875 -0.7481
  520MOL0     H70144   8.052   2.811  10.977 -0.3022  0.7552 -0.0247
  520MOL0     H70145   8.277   2.709  11.097  0.9373  2.0377  3.0856
  520MOL0     H70146   8.203   2.746  11.247  3.9369 -1.1466 -0.2586
  520MOL0     H70147   7.990   2.614  11.141 -0.6306 -0.8021 -1.5593
  520MOL0     H70148   8.126   2.528  11.057 -1.5933  2.5801 -3.1594
  520MOL0     H70149   8.014   2.538  11.335  0.3518  1.3920 -0.7460
  520MOL0     H70150   8.187   2.525  11.328 -0.9757 -0.6114  1.4517
  520MOL0     H70151   7.883   2.331  11.179  0.9801  0.2015 -2.7189
  520MOL0     H70152   7.887   2.082  11.059 -0.8029 -1.8652 -0.9438
  520MOL0     H70153   8.019   1.974  11.102  1.9676  2.6052 -0.7141
  520MOL0     H70154   7.830   2.109  11.318 -0.8786 -1.8579  0.4720
  520MOL0     H70155   7.979   2.019  11.350  1.6588  1.7372 -0.7255
  520MOL0     H70156   7.791   1.874  11.390  1.4352  0.9814  0.1506
  520MOL0     H70157   7.875   1.820  11.232  2.4717  1.2015  1.1383
  520MOL0     H70158   7.717   1.902  11.096  1.3346 -1.3780 -0.2304
  520MOL0     H70159   7.644   2.027  11.216 -1.4989 -1.0995  4.1002
  520MOL0     H70160   7.479   1.968  11.038  0.4125  0.6952  0.9558
  520MOL0     H70161   7.125   1.944  10.929  1.2140 -1.5307  1.3826
  520MOL0     H70162   7.217   2.098  10.975 -3.2674  0.2010  0.1214
  520MOL0     H70163   7.286   1.961  10.875  0.4245 -1.0992 -0.3325
  520MOL0     H70164   6.857   2.053  10.933  0.4154  1.0508  0.2069
  520MOL0     H70165   6.610   2.066  10.894 -2.8651 -1.7139  0.2602
  520MOL0     H70166   6.411   2.205  11.113 -0.9064 -0.5026 -0.4842
  520MOL0     H70167   6.414   2.162  10.942 -1.0473 -0.9923 -0.4498
  520MOL0     H70168   6.195   2.242  11.033  0.4785  1.3001 -1.3080
  520MOL0     H70169   6.181   2.078  10.963  1.2006 -0.1719 -0.0796
  520MOL0     H70170   6.182   1.962  11.184 -1.2409 -0.5274  0.6878
  520MOL0     H70171   6.042   2.070  11.142 -0.7582  0.9015 -0.2699
  520MOL0     H70172   6.281   2.134  11.324  0.4879  1.2854 -2.6785
  520MOL0     H70173   6.148   2.244  11.290  0.9320  1.4598  0.6567
  520MOL0     H70174   6.112   1.986  11.431 -0.3407  0.2489 -1.0850
  520MOL0     H70175   5.977   2.074  11.360  0.3356 -1.6627 -1.0923
  520MOL0     H70176   6.174   2.219  11.534  0.5700  0.7242  0.0450
  520MOL0     H70177   6.004   2.255  11.504  1.0979  1.4684 -0.8401
  520MOL0     H70178   6.115   2.015  11.665  5.0653  3.7430  2.4126
  520MOL0     H70179   5.942   2.057  11.642 -0.0983  0.8917  0.6137
  520MOL0     H70180   6.113   2.281  11.766 -0.7762  1.1815  1.3261
  520MOL0     H70181   6.073   2.143  11.853  1.8041  2.5462 -0.1012
  520MOL0     H70182   6.565   1.924  11.296  2.1723 -1.5378  0.5625
  520MOL0     H70183   6.824   1.905  11.312 -1.5210  0.7995 -0.2056
  520MOL0     H70184   7.183   1.669  11.296  0.8902  0.3709  3.3764
  520MOL0     H70185   7.419   1.671  11.345 -0.9127 -0.6581 -0.9179
  520MOL0     H70186   8.836   3.221  10.810  3.8832 -1.9937  4.8347
  520MOL0     H70187   9.042   3.166  10.684  0.3614  0.6296  2.1776
  520MOL0     H70188   9.250   2.846  10.385 -1.0910  1.8540  1.8256
  520MOL0     H70189   9.467   2.804  10.258 -1.4760  0.8670  0.0782
  520MOL0     H70190   9.674   2.759  10.182  0.3494  0.7795  0.3812
  520MOL0     H70191   9.840   2.811  10.220  0.4461  3.3944  1.5250
  520MOL0     H70192   9.804   2.616  10.321  4.3429  2.9333 -0.9243
  520MOL0     H70193   9.669   2.679  10.433 -1.4998  3.1792 -0.0417
  520MOL0     H70194   9.831   2.835  10.532  0.2241 -1.3999  0.0753
  520MOL0     H70195   9.954   2.795  10.408  0.1713 -0.3983 -1.8566
  520MOL0     H70196   9.827   2.597  10.603 -1.1355  2.3631 -1.6362
  520MOL0     H70197   9.980   2.682  10.649  2.8118 -1.9882 -0.9813
  520MOL0     H70198  10.106   2.381  10.381  0.9561  0.0183 -0.6874
  520MOL0     H70199   9.660   3.077  10.507 -0.2662  1.7142  0.1171
  520MOL0     H70200   9.479   3.099  10.648 -0.2424  2.2574 -1.4151
  521MOL0     O70201   8.811   3.361   5.429 -0.3008  0.4037  0.2942
  521MOL0     C70202   8.816   3.241   5.469  0.6743 -0.1935 -0.5204
  521MOL0     O70203   8.710   3.173   5.542  0.1354  0.2349  0.8683
  521MOL0     C70204   8.607   3.251   5.594 -0.0242  0.3502 -0.1360
  521MOL0     C70205   8.585   3.252   5.727  0.4481 -0.1502  0.0931
  521MOL0     C70206   8.471   3.321   5.774 -0.6388  0.4131 -0.0073
  521MOL0     C70207   8.393   3.393   5.692  0.1165 -0.5456  1.2879
  521MOL0     O70208   8.287   3.461   5.748 -0.5014  0.6035 -0.2990
  521MOL0     C70209   8.176   3.502   5.668  0.0807  0.0544 -0.6557
  521MOL0     C70210   8.054   3.528   5.746  0.2598 -0.2001  0.0644
  521MOL0     C70211   8.030   3.401   5.836 -0.4177  0.8162  0.1573
  521MOL0     C70212   7.945   3.434   5.954 -0.6867 -0.1932  0.1917
  521MOL0     C70213   7.907   3.301   6.024  0.5303  0.2440  0.0373
  521MOL0     C70214   7.844   3.303   6.171  0.0304 -1.2634  0.0351
  521MOL0     C70215   7.788   3.159   6.207  1.1234 -0.1471  0.0472
  521MOL0     C70216   7.733   3.143   6.347 -0.2516  0.1789  0.3934
  521MOL0     N70217   7.834   3.150   6.453  0.2124 -0.0106  0.4778
  521MOL0     C70218   7.973   3.125   6.444  0.7306  1.1583  1.0443
  521MOL0     C70219   8.005   3.157   6.567 -0.5765  0.3112 -0.6323
  521MOL0     C70220   8.147   3.162   6.615 -0.7263 -0.4203  0.4620
  521MOL0     C70221   8.217   3.024   6.588 -0.4318 -0.0211  0.2546
  521MOL0     C70222   8.362   3.065   6.566  0.0652  0.6208  0.0561
  521MOL0     C70223   8.450   2.942   6.525 -0.1723  0.1368  0.3984
  521MOL0     O70224   8.441   2.839   6.625  0.4586 -0.2841  0.2929
  521MOL0     C70225   8.484   2.718   6.587 -0.1808 -0.2406  0.1725
  521MOL0     C70226   8.381   2.634   6.548 -0.7580  0.4121 -0.2505
  521MOL0     C70227   8.402   2.494   6.532 -0.6516 -0.3451 -0.8124
  521MOL0     C70228   8.277   2.411   6.517  0.6593  0.7423 -0.4139
  521MOL0     C70229   8.531   2.441   6.525  0.4988  0.3262  0.1127
  521MOL0     C70230   8.573   2.307   6.470  0.7680  0.4125  0.5129
  521MOL0     O70231   8.713   2.276   6.480 -0.0106  0.2682  0.0210
  521MOL0     C70232   8.765   2.181   6.402  0.0985  0.1828  0.7684
  521MOL0     C70233   8.757   2.046   6.445 -0.0182 -0.4636 -0.7567
  521MOL0     C70234   8.836   1.944   6.381 -0.2176  0.3072 -0.4216
  521MOL0     C70235   8.924   1.987   6.281 -0.7025 -1.2047 -0.4385
  521MOL0     O70236   9.018   1.908   6.232 -0.0853 -0.5310  0.8185
  521MOL0     C70237   8.998   1.776   6.208  0.3865  0.7348 -0.1035
  521MOL0     C70238   9.108   1.695   6.251 -0.8271 -0.4244 -0.4760
  521MOL0     C70239   9.116   1.691   6.403 -0.7393 -0.0948  0.4073
  521MOL0     C70240   9.026   1.583   6.456  0.0484 -0.5556 -0.6218
  521MOL0     C70241   9.008   1.597   6.607 -0.2137 -0.8708  0.2712
  521MOL0     C70242   8.921   1.503   6.677  1.2912  0.1730  0.1701
  521MOL0     C70243   8.983   1.365   6.689 -0.3733 -0.8316  0.3753
  521MOL0     C70244   9.085   1.357   6.795  0.2504  0.5578  0.0473
  521MOL0    Cl70245   9.177   1.212   6.813 -0.1710  0.2424 -0.3536
  521MOL0     C70246   8.933   2.120   6.236  0.8462 -0.8137 -0.1396
  521MOL0     C70247   8.843   2.211   6.285 -1.1869 -0.3035 -0.6071
  521MOL0     O70248   8.489   2.240   6.403 -0.0914  0.5114  0.2180
  521MOL0     C70249   8.639   2.532   6.554  0.3362 -0.0545  0.7808
  521MOL0     C70250   8.609   2.657   6.596 -1.1881 -0.1438 -0.5946
  521MOL0     N70251   7.894   3.177   6.648 -0.2745 -0.6422  0.0335
  521MOL0     N70252   7.789   3.169   6.580  0.1663  0.5719 -0.8115
  521MOL0     C70253   8.430   3.407   5.554  0.2553 -0.6487 -0.2115
  521MOL0     C70254   8.538   3.332   5.505 -0.1506 -0.6024  0.6730
  521MOL0     C70255   8.945   3.176   5.442  0.1122  0.1567 -0.2602
  521MOL0     C70256   9.054   3.253   5.387  0.1996  0.1766 -0.7100
  521MOL0     C70257   9.170   3.187   5.356 -0.6624  0.6289 -0.5230
  521MOL0     C70258   9.185   3.048   5.375 -0.4002  1.1073  0.0879
  521MOL0     O70259   9.297   2.974   5.359  0.1067 -0.0227 -0.4686
  521MOL0     C70260   9.419   3.036   5.309  0.0630 -0.4010 -0.2021
  521MOL0     C70261   9.402   3.061   5.160  0.4061 -0.9378 -0.1330
  521MOL0     C70262   9.541   3.010   5.107  0.6775  0.8392  0.8243
  521MOL0     C70263   9.548   3.028   4.950 -0.2458 -0.2859 -0.6209
  521MOL0     C70264   9.625   3.154   4.916  0.5471  0.5999 -0.6165
  521MOL0     C70265   9.673   3.256   4.882 -0.1725  0.2874  0.4200
  521MOL0     C70266   9.080   2.970   5.417  0.0515  0.1134 -0.1541
  521MOL0     C70267   8.962   3.036   5.460 -0.4293 -0.1803  0.3557
  521MOL0     H70268   8.643   3.195   5.799 -0.6608 -2.1760 -0.5229
  521MOL0     H70269   8.457   3.319   5.882  2.1307  2.3096  0.4849
  521MOL0     H70270   8.199   3.592   5.610  0.2713  1.3646  1.3568
  521MOL0     H70271   8.150   3.432   5.588 -1.0473  0.8010 -0.9768
  521MOL0     H70272   8.078   3.618   5.803 -1.0729 -0.9846  1.9560
  521MOL0     H70273   7.972   3.550   5.677 -0.9486  1.0124  1.8249
  521MOL0     H70274   7.990   3.329   5.765  1.4355 -1.0674  0.8989
  521MOL0     H70275   8.120   3.363   5.885  0.2685 -0.7763 -2.1976
  521MOL0     H70276   7.995   3.500   6.025 -0.9101  1.4607 -1.1238
  521MOL0     H70277   7.848   3.478   5.928 -0.4849 -0.3349 -0.8165
  521MOL0     H70278   7.842   3.239   5.961  0.0641  0.0010  0.7457
  521MOL0     H70279   7.997   3.241   6.042  0.1125 -0.9424 -1.6011
  521MOL0     H70280   7.914   3.340   6.246  0.4224 -3.2733  0.7233
  521MOL0     H70281   7.752   3.362   6.178 -0.1301 -1.7192  2.9157
  521MOL0     H70282   7.710   3.137   6.134  2.9987  0.4038 -2.2465
  521MOL0     H70283   7.869   3.090   6.184  1.1103  1.1139 -5.0077
  521MOL0     H70284   7.683   3.046   6.354  0.3022 -0.5857 -3.4525
  521MOL0     H70285   7.662   3.225   6.346  1.1217  1.4472  1.7634
  521MOL0     H70286   8.032   3.112   6.354 -1.0642  1.1853 -0.1725
  521MOL0     H70287   8.200   3.247   6.570 -4.1284  1.1896 -0.9295
  521MOL0     H70288   8.147   3.175   6.724 -1.7823 -2.3734  0.7225
  521MOL0     H70289   8.178   2.975   6.499 -0.3650 -0.6986  0.5882
  521MOL0     H70290   8.206   2.962   6.678  0.4770  0.0449  0.4189
  521MOL0     H70291   8.407   3.115   6.652 -0.0648  0.5490  0.1660
  521MOL0     H70292   8.349   3.128   6.477 -0.5348  1.5592  0.7857
  521MOL0     H70293   8.550   2.977   6.498  0.0500 -2.0443 -1.9165
  521MOL0     H70294   8.414   2.904   6.429 -0.5585 -0.9308  0.9447
  521MOL0     H70295   8.289   2.692   6.545  0.8232  3.0531 -1.3428
  521MOL0     H70296   8.290   2.303   6.516  1.4516  0.8302 -0.7647
  521MOL0     H70297   8.207   2.433   6.598 -0.5204 -1.2108 -0.8410
  521MOL0     H70298   8.226   2.423   6.421 -2.5823  1.8675  1.2972
  521MOL0     H70299   8.687   2.015   6.521 -1.3421 -2.0281 -2.5116
  521MOL0     H70300   8.831   1.843   6.419 -0.6681  0.1994 -0.7514
  521MOL0     H70301   8.905   1.742   6.254  1.4983 -0.0950  1.5939
  521MOL0     H70302   8.992   1.764   6.099  1.3868  2.5243 -0.3935
  521MOL0     H70303   9.099   1.592   6.215 -2.0612 -1.3426  2.2071
  521MOL0     H70304   9.195   1.753   6.219 -2.3461  1.9726 -0.4290
  521MOL0     H70305   9.103   1.792   6.443 -1.2182 -0.8012  2.1353
  521MOL0     H70306   9.217   1.656   6.425 -0.7508 -1.5757 -1.6280
  521MOL0     H70307   8.922   1.596   6.423 -1.0329 -1.5299  2.1338
  521MOL0     H70308   9.064   1.481   6.441 -2.4184 -1.6978  0.3378
  521MOL0     H70309   8.974   1.700   6.625  1.7293  0.2143 -1.7534
  521MOL0     H70310   9.104   1.589   6.659  1.4933 -2.1716 -2.8080
  521MOL0     H70311   8.903   1.538   6.779 -0.5048  1.3024 -0.4978
  521MOL0     H70312   8.830   1.489   6.619  1.3834 -0.8623  0.2591
  521MOL0     H70313   9.006   1.327   6.589 -0.2858  0.0209  0.0674
  521MOL0     H70314   8.900   1.303   6.725 -0.3472 -1.5702 -0.7601
  521MOL0     H70315   9.041   1.385   6.891  1.2502  1.1515  0.3427
  521MOL0     H70316   9.154   1.441   6.786  0.2799  0.6076  0.6975
  521MOL0     H70317   9.012   2.151   6.168  1.5534 -0.9190  0.6188
  521MOL0     H70318   8.831   2.313   6.251 -2.0764 -0.0805  0.3371
  521MOL0     H70319   8.746   2.515   6.553  0.8856  2.9901  0.0178
  521MOL0     H70320   8.691   2.718   6.631  0.7566 -3.1941  0.4777
  521MOL0     H70321   8.378   3.478   5.491  1.5434  0.3819 -0.1590
  521MOL0     H70322   8.558   3.352   5.400 -0.3481  0.0143  0.7452
  521MOL0     H70323   9.054   3.360   5.374  2.5101  1.0716  4.2552
  521MOL0     H70324   9.258   3.240   5.321 -1.3565  0.3159 -2.9088
  521MOL0     H70325   9.438   3.128   5.365  0.7743 -1.8090  1.9925
  521MOL0     H70326   9.504   2.975   5.340  0.5849 -0.0035 -0.8380
  521MOL0     H70327   9.374   3.166   5.146  1.0331  0.1273  4.7402
  521MOL0     H70328   9.319   3.001   5.123 -0.2015 -1.4134  1.8837
  521MOL0     H70329   9.555   2.905   5.136 -1.7348  0.5301  1.0283
  521MOL0     H70330   9.619   3.073   5.151 -0.4680  0.7688  3.0890
  521MOL0     H70331   9.450   3.056   4.911 -0.7570 -0.8535  0.2264
  521MOL0     H70332   9.589   2.941   4.897 -1.1456 -1.0306 -0.1274
  521MOL0     H70333   9.721   3.346   4.850 -0.6508 -0.3059 -2.1763
  521MOL0     H70334   9.095   2.862   5.420  1.3853  0.2627  3.2828
  521MOL0     H70335   8.880   2.982   5.506 -1.8334 -0.4404 -2.2820
  522MOL0     O70336   3.485   5.982   4.705 -0.3828 -0.6198  0.3360
  522MOL0     C70337   3.423   6.084   4.739  0.2802  0.0387 -0.1700
  522MOL0     O70338   3.443   6.217   4.690  0.0660  0.4832 -0.6769
  522MOL0     C70339   3.554   6.232   4.618  0.0567  1.0386  0.3365
  522MOL0     C70340   3.685   6.228   4.677  0.1675 -0.6400  0.3341
  522MOL0     C70341   3.789   6.260   4.598 -0.5291  0.0934 -0.3644
  522MOL0     C70342   3.774   6.283   4.458 -0.3953  0.5059  0.3477
  522MOL0     O70343   3.878   6.318   4.376 -1.0225  0.3451  1.2663
  522MOL0     C70344   3.851   6.326   4.229 -0.4917  0.0060 -0.4021
  522MOL0     C70345   3.985   6.319   4.146 -0.2191 -0.3026 -0.5311
  522MOL0     C70346   4.076   6.198   4.170 -0.5399  0.7502  0.0052
  522MOL0     C70347   4.005   6.068   4.143  0.4469 -0.7556 -0.2979
  522MOL0     C70348   4.098   5.949   4.192  0.3453  0.0673 -0.1065
  522MOL0     C70349   4.143   5.948   4.338  0.0137  0.3722  0.2755
  522MOL0     C70350   4.028   5.962   4.442  0.7758 -0.5239  1.0250
  522MOL0     C70351   3.932   5.843   4.446  0.5785  0.0338  0.2019
  522MOL0     N70352   3.813   5.870   4.360 -0.1648 -0.1871  0.2004
  522MOL0     C70353   3.794   5.805   4.242 -0.1279 -0.2601  0.1250
  522MOL0     C70354   3.673   5.837   4.192  0.2361 -0.5814  0.0109
  522MOL0     C70355   3.598   5.783   4.067  1.3609  0.4337  0.2980
  522MOL0     C70356   3.670   5.778   3.928  0.0449  0.3042 -0.3048
  522MOL0     C70357   3.656   5.913   3.852 -0.0876 -0.1828 -0.4476
  522MOL0     C70358   3.681   5.915   3.704 -0.5605 -0.6730 -0.3137
  522MOL0     O70359   3.825   5.875   3.693  0.1474 -0.1090 -0.4115
  522MOL0     C70360   3.879   5.878   3.571 -0.0937  0.1429  0.4849
  522MOL0     C70361   3.816   5.905   3.450 -0.7282 -0.0290 -0.1286
  522MOL0     C70362   3.874   5.881   3.325  0.2747  1.3444  0.7185
  522MOL0     C70363   3.778   5.897   3.201  0.7541 -0.1277 -0.3232
  522MOL0     C70364   4.007   5.822   3.314 -0.2969  0.1087  0.2797
  522MOL0     C70365   4.072   5.776   3.190  0.2134 -0.2919  0.7821
  522MOL0     O70366   4.172   5.684   3.206  0.7030 -0.2040 -0.3631
  522MOL0     C70367   4.221   5.629   3.088 -0.4593 -0.3003  0.2774
  522MOL0     C70368   4.311   5.696   3.005 -0.1160 -0.5541  0.2763
  522MOL0     C70369   4.384   5.629   2.906 -0.2420  0.5499  0.2830
  522MOL0     C70370   4.366   5.490   2.879  0.2425 -1.0550 -0.4413
  522MOL0     O70371   4.433   5.428   2.779 -0.1330 -0.2863  0.0866
  522MOL0     C70372   4.568   5.460   2.750  0.7002 -0.0725 -0.3719
  522MOL0     C70373   4.635   5.336   2.691  0.7613  0.2088  0.4598
  522MOL0     C70374   4.789   5.329   2.703 -0.1029  0.8471  0.3777
  522MOL0     C70375   4.845   5.419   2.583  0.9200 -0.6072  0.4290
  522MOL0     C70376   4.996   5.380   2.554  0.0598 -0.9522 -0.3314
  522MOL0     C70377   5.061   5.477   2.450  0.4186 -0.4996 -0.2730
  522MOL0     C70378   5.013   5.472   2.297  0.7364 -0.4614 -0.4425
  522MOL0     C70379   5.111   5.546   2.206  0.4447  0.0268 -1.3161
  522MOL0    Cl70380   5.058   5.546   2.035 -0.3141 -0.3389 -0.2660
  522MOL0     C70381   4.265   5.422   2.953  0.8254 -0.7775  0.7867
  522MOL0     C70382   4.196   5.495   3.058  0.6407  0.2013  0.7187
  522MOL0     O70383   4.045   5.824   3.084  0.4645  0.4056 -0.4317
  522MOL0     C70384   4.072   5.801   3.438  0.1732  0.3005 -0.3852
  522MOL0     C70385   4.013   5.827   3.559  0.4031 -0.4621  0.0007
  522MOL0     N70386   3.632   5.943   4.268  0.1100  0.1045  0.4999
  522MOL0     N70387   3.706   5.956   4.373 -0.5971 -0.2828  0.0100
  522MOL0     C70388   3.641   6.297   4.405  0.1411  0.1146  0.3061
  522MOL0     C70389   3.533   6.253   4.480 -0.1518  1.0792 -0.3265
  522MOL0     C70390   3.302   6.056   4.830  0.1724  0.0808  0.0337
  522MOL0     C70391   3.216   6.156   4.874 -0.1080  0.4776  0.2720
  522MOL0     C70392   3.112   6.130   4.967 -0.5329  0.1541 -0.7371
  522MOL0     C70393   3.097   5.996   5.009  0.1268  0.8296  0.6980
  522MOL0     O70394   3.006   5.953   5.098  0.2763  0.1018 -0.4496
  522MOL0     C70395   2.926   6.045   5.177 -0.9620 -0.2391 -0.8616
  522MOL0     C70396   2.865   5.972   5.309 -0.0542  0.1149 -0.1518
  522MOL0     C70397   2.741   5.882   5.279  0.9324 -0.1319 -0.6132
  522MOL0     C70398   2.772   5.755   5.203 -1.6229  0.8354  0.6016
  522MOL0     C70399   2.707   5.631   5.262 -0.0005 -0.2610  0.5741
  522MOL0     C70400   2.660   5.524   5.290  0.6026 -0.2696  0.0976
  522MOL0     C70401   3.167   5.895   4.958  0.4628  0.4873  0.1004
  522MOL0     C70402   3.269   5.925   4.865  0.4826  1.1126  0.4495
  522MOL0     H70403   3.688   6.227   4.785 -0.7524  0.8469  0.4011
  522MOL0     H70404   3.888   6.274   4.640 -0.9498  1.5303  0.1868
  522MOL0     H70405   3.793   6.239   4.197  1.2109 -1.4172  0.2321
  522MOL0     H70406   3.795   6.419   4.212  0.7460  1.3398  2.1646
  522MOL0     H70407   3.961   6.330   4.039  1.2083 -1.5761 -1.0227
  522MOL0     H70408   4.051   6.400   4.176  1.2453 -0.8940 -2.0024
  522MOL0     H70409   4.165   6.205   4.107  0.9383  0.7347  1.9840
  522MOL0     H70410   4.108   6.200   4.275  0.0457  2.5451 -0.1736
  522MOL0     H70411   3.904   6.067   4.186  0.0589 -2.3562 -1.1945
  522MOL0     H70412   3.991   6.067   4.035 -0.5220 -2.2851 -0.1862
  522MOL0     H70413   4.054   5.850   4.177 -0.7638  0.4554  0.4716
  522MOL0     H70414   4.189   5.958   4.132  0.5314  1.6239  0.3539
  522MOL0     H70415   4.201   5.858   4.360 -0.6230  0.0923  0.8337
  522MOL0     H70416   4.215   6.029   4.355  1.0320 -0.7086  1.2409
  522MOL0     H70417   4.062   5.979   4.544 -1.0461  3.6640  1.1434
  522MOL0     H70418   3.966   6.049   4.418  1.2640 -0.1247  1.2128
  522MOL0     H70419   3.898   5.825   4.548  3.0413 -1.2367  0.8916
  522MOL0     H70420   3.993   5.762   4.405  1.9715  0.4095  1.4403
  522MOL0     H70421   3.872   5.738   4.208  0.8439  0.1556  1.4640
  522MOL0     H70422   3.567   5.680   4.088  2.5009 -1.3563 -5.2439
  522MOL0     H70423   3.501   5.833   4.060  2.3981  2.3489 -1.6200
  522MOL0     H70424   3.607   5.710   3.869 -0.1859  2.1670 -2.3124
  522MOL0     H70425   3.770   5.735   3.929  0.7270  1.8116 -1.3122
  522MOL0     H70426   3.726   5.978   3.906 -0.7397 -2.5509  3.5731
  522MOL0     H70427   3.554   5.951   3.866  0.4852  0.9612  0.8119
  522MOL0     H70428   3.671   6.016   3.663  0.7994 -0.6840 -0.7406
  522MOL0     H70429   3.605   5.858   3.650 -1.6760 -0.3975  0.9365
  522MOL0     H70430   3.712   5.935   3.446 -0.3475  1.6911  1.4648
  522MOL0     H70431   3.829   5.968   3.135  0.3414  1.3363  0.9050
  522MOL0     H70432   3.752   5.797   3.163  0.0723 -0.9682  2.1676
  522MOL0     H70433   3.683   5.942   3.233  0.3243 -0.8578 -0.5470
  522MOL0     H70434   4.340   5.799   3.027  2.2661 -1.4642  1.7420
  522MOL0     H70435   4.453   5.682   2.841 -0.6354 -0.4444 -0.9960
  522MOL0     H70436   4.570   5.545   2.682 -1.0449 -0.8057 -1.4009
  522MOL0     H70437   4.622   5.470   2.845  0.5882  0.3109 -0.3464
  522MOL0     H70438   4.595   5.243   2.732 -0.1413  0.9881  1.4010
  522MOL0     H70439   4.610   5.329   2.585 -0.4774  0.9014  0.6901
  522MOL0     H70440   4.809   5.225   2.674  0.9812  0.5538  2.0337
  522MOL0     H70441   4.825   5.357   2.802 -0.4477  0.8844  0.4958
  522MOL0     H70442   4.781   5.401   2.497  0.8328 -3.8924  1.0687
  522MOL0     H70443   4.845   5.525   2.609 -0.8793 -0.0080 -1.7299
  522MOL0     H70444   4.998   5.282   2.506  0.9741 -0.6632 -0.9067
  522MOL0     H70445   5.045   5.388   2.652 -0.2426  2.5376 -0.3261
  522MOL0     H70446   5.066   5.579   2.487  1.5886 -1.2099  1.6192
  522MOL0     H70447   5.162   5.436   2.458 -0.0703 -1.6124  0.6037
  522MOL0     H70448   4.915   5.519   2.290  1.1088  0.2276 -1.1211
  522MOL0     H70449   5.009   5.369   2.260 -1.3387  0.4404 -3.0007
  522MOL0     H70450   5.202   5.486   2.209  2.0945  2.2798 -2.6692
  522MOL0     H70451   5.140   5.640   2.255  2.3327 -0.8704 -0.6297
  522MOL0     H70452   4.243   5.316   2.940  1.5212 -0.5514 -3.7971
  522MOL0     H70453   4.132   5.442   3.127 -1.2468 -2.7553 -2.9263
  522MOL0     H70454   4.174   5.763   3.445  1.0705  2.8578  1.8930
  522MOL0     H70455   4.081   5.811   3.642  0.6238  0.0887 -0.0657
  522MOL0     H70456   3.632   6.326   4.301  1.3624 -2.1493 -0.4996
  522MOL0     H70457   3.431   6.260   4.443 -0.4722 -1.1618  0.0141
  522MOL0     H70458   3.245   6.251   4.829 -1.1969  0.9805  0.6073
  522MOL0     H70459   3.053   6.212   5.007 -1.6482 -0.5774 -0.8527
  522MOL0     H70460   2.987   6.126   5.219 -3.7741  1.7338 -0.3328
  522MOL0     H70461   2.847   6.103   5.131  1.3935  3.4800 -0.6543
  522MOL0     H70462   2.843   6.047   5.385 -1.7229 -2.9397  2.6958
  522MOL0     H70463   2.938   5.911   5.364 -1.0890 -1.3009 -0.2797
  522MOL0     H70464   2.670   5.937   5.216 -0.6747  0.1061  1.3113
  522MOL0     H70465   2.695   5.856   5.374 -0.7123 -0.2633 -1.4030
  522MOL0     H70466   2.879   5.733   5.193 -1.6003  1.8792 -2.2840
  522MOL0     H70467   2.731   5.760   5.102 -0.8051  3.6184  0.3284
  522MOL0     H70468   2.596   5.441   5.313 -0.6516  0.1558 -1.6507
  522MOL0     H70469   3.136   5.794   4.983 -1.9572  0.3834 -2.6855
  522MOL0     H70470   3.326   5.838   4.836 -1.6880 -0.9751  1.9554
  523MOL0     O70471   2.881   2.517   6.040 -0.1035 -0.0143 -0.4497
  523MOL0     C70472   2.930   2.507   6.151  0.0504 -0.2970  0.4157
  523MOL0     O70473   3.035   2.581   6.206  0.4725  0.3480 -0.0323
  523MOL0     C70474   3.121   2.640   6.122 -0.1819 -0.1569  0.7740
  523MOL0     C70475   3.218   2.562   6.065  0.1120 -0.1931  0.7292
  523MOL0     C70476   3.316   2.623   5.980  0.4440 -0.0736  0.8127
  523MOL0     C70477   3.307   2.763   5.943  0.3658 -0.4800 -0.2798
  523MOL0     O70478   3.379   2.817   5.842 -0.8178  0.0534  0.4476
  523MOL0     C70479   3.451   2.729   5.759  0.1626  0.4340  0.0599
  523MOL0     C70480   3.513   2.805   5.641 -0.1344  0.3160  0.5087
  523MOL0     C70481   3.622   2.898   5.678  0.0847 -0.0419 -0.2194
  523MOL0     C70482   3.664   2.979   5.553  0.4741 -0.3533  0.9366
  523MOL0     C70483   3.755   3.101   5.579 -0.2436 -0.2432  0.2542
  523MOL0     C70484   3.895   3.071   5.648 -0.0376 -0.0585 -0.5667
  523MOL0     C70485   3.999   3.189   5.628  0.0590 -0.2953 -0.6069
  523MOL0     C70486   4.065   3.201   5.493  0.4990  0.6126  0.2787
  523MOL0     N70487   4.166   3.092   5.476 -0.5861  0.4722 -0.2619
  523MOL0     C70488   4.306   3.094   5.503  0.1454  0.4444  0.3082
  523MOL0     C70489   4.358   2.976   5.463 -0.0408 -0.5240  0.5175
  523MOL0     C70490   4.498   2.934   5.472  0.3016 -0.1133  0.8842
  523MOL0     C70491   4.528   2.860   5.597  0.5436  0.0605 -0.2799
  523MOL0     C70492   4.674   2.876   5.643 -0.6120 -0.0088 -0.4137
  523MOL0     C70493   4.726   2.757   5.723  0.1066 -0.6246  0.8993
  523MOL0     O70494   4.848   2.802   5.789  0.5149 -0.7198 -0.8609
  523MOL0     C70495   4.971   2.795   5.730  0.1733  0.0566  1.0026
  523MOL0     C70496   4.986   2.765   5.595 -0.3852 -0.1354 -0.7177
  523MOL0     C70497   5.116   2.766   5.533  0.2720 -0.5542 -0.8712
  523MOL0     C70498   5.125   2.730   5.387 -0.1490  0.4335  0.1029
  523MOL0     C70499   5.228   2.801   5.613 -0.5984  0.2868 -0.2682
  523MOL0     C70500   5.361   2.807   5.556 -0.7228 -0.0742  0.3389
  523MOL0     O70501   5.394   2.910   5.470  0.7094 -0.0465 -0.0214
  523MOL0     C70502   5.486   2.901   5.373  0.6101  1.0280  0.4848
  523MOL0     C70503   5.461   2.824   5.257  0.0379 -0.5763  0.5491
  523MOL0     C70504   5.552   2.827   5.153 -1.0798  0.6609 -0.1845
  523MOL0     C70505   5.671   2.901   5.153  0.4776 -0.1003 -0.2659
  523MOL0     O70506   5.752   2.881   5.053 -0.1965  0.0977  0.2340
  523MOL0     C70507   5.864   2.964   5.038 -1.2187  0.4120  0.1979
  523MOL0     C70508   5.911   2.984   4.888  0.2419 -0.1378  0.8448
  523MOL0     C70509   5.918   2.850   4.816 -0.3371  0.0283 -0.0058
  523MOL0     C70510   5.964   2.877   4.671 -0.2362  0.1183  0.5449
  523MOL0     C70511   5.947   2.749   4.594 -1.0278  0.5737  0.5268
  523MOL0     C70512   6.044   2.741   4.477 -0.1676  0.8430  0.8983
  523MOL0     C70513   6.189   2.729   4.536  0.0836 -0.5205 -0.1378
  523MOL0     C70514   6.273   2.853   4.495 -0.3437  0.2662 -0.0223
  523MOL0    Cl70515   6.441   2.835   4.546  0.0328  0.3597  0.0529
  523MOL0     C70516   5.692   2.976   5.271 -0.4696 -0.4695 -0.3144
  523MOL0     C70517   5.602   2.972   5.381  0.3708  0.1601 -0.1305
  523MOL0     O70518   5.438   2.715   5.583  0.2463  0.7185  0.7310
  523MOL0     C70519   5.216   2.812   5.758  0.5917 -0.2772  0.9216
  523MOL0     C70520   5.082   2.814   5.805  0.7619 -0.1368 -0.0799
  523MOL0     N70521   4.248   2.901   5.427  0.0759  0.5807  0.4688
  523MOL0     N70522   4.137   2.971   5.426 -0.2580 -0.4126 -0.6131
  523MOL0     C70523   3.208   2.835   6.009  0.1140  0.0685 -0.2149
  523MOL0     C70524   3.111   2.780   6.091  0.0603 -0.6810  0.0448
  523MOL0     C70525   2.857   2.425   6.257  0.3857  0.6104 -0.6122
  523MOL0     C70526   2.927   2.371   6.366 -1.4291  0.5146  0.6347
  523MOL0     C70527   2.861   2.297   6.471 -0.6295  0.5372 -0.4583
  523MOL0     C70528   2.722   2.266   6.459 -0.5084  0.0505 -0.2019
  523MOL0     O70529   2.667   2.198   6.562  0.2337  0.3475  0.2023
  523MOL0     C70530   2.523   2.189   6.568  0.0227  0.5575  0.2115
  523MOL0     C70531   2.496   2.120   6.703  0.5832 -0.0280 -0.1178
  523MOL0     C70532   2.590   1.993   6.713 -0.7215  1.1531 -0.0218
  523MOL0     C70533   2.537   1.905   6.829 -0.5647  0.2758  0.6591
  523MOL0     C70534   2.612   1.775   6.844  0.4747 -0.4197  0.2740
  523MOL0     C70535   2.663   1.673   6.865  0.4418  0.7606  0.0781
  523MOL0     C70536   2.662   2.315   6.341  1.2717 -0.3935  0.7361
  523MOL0     C70537   2.727   2.385   6.247  0.6950 -0.6623 -0.3768
  523MOL0     H70538   3.214   2.454   6.072 -0.4058 -0.2596 -0.4662
  523MOL0     H70539   3.391   2.553   5.944  1.9476  1.3731  1.0239
  523MOL0     H70540   3.539   2.682   5.804 -0.4829 -0.0245  0.8855
  523MOL0     H70541   3.387   2.648   5.720  1.7611 -0.2901 -1.2115
  523MOL0     H70542   3.558   2.725   5.581  0.9349 -1.4490  3.4862
  523MOL0     H70543   3.441   2.869   5.590 -1.0872  0.9013  2.4876
  523MOL0     H70544   3.590   2.967   5.756  0.6350  0.1163 -0.1351
  523MOL0     H70545   3.705   2.846   5.726  0.7845  3.1027  2.3176
  523MOL0     H70546   3.710   2.905   5.487  1.8370  1.3624 -0.1084
  523MOL0     H70547   3.572   3.014   5.505 -0.6832 -0.9514  2.6122
  523MOL0     H70548   3.770   3.149   5.482 -1.1074 -2.2754 -0.9434
  523MOL0     H70549   3.709   3.178   5.642 -0.4157  0.4037 -0.6591
  523MOL0     H70550   3.881   3.059   5.756 -0.5594  0.3346 -0.5862
  523MOL0     H70551   3.939   2.980   5.604  0.4697 -0.5216  0.8430
  523MOL0     H70552   3.952   3.285   5.649 -0.9529 -1.4278  3.1345
  523MOL0     H70553   4.082   3.169   5.696 -0.9893 -0.7865  0.5690
  523MOL0     H70554   4.108   3.299   5.471  1.2675  0.1677 -0.2315
  523MOL0     H70555   3.989   3.184   5.416 -0.8785 -1.5169  1.9944
  523MOL0     H70556   4.360   3.183   5.535  1.0762  0.1876 -0.5062
  523MOL0     H70557   4.539   2.882   5.385  1.2804 -1.0793  1.8865
  523MOL0     H70558   4.566   3.020   5.471  0.9454 -0.6162 -0.1896
  523MOL0     H70559   4.511   2.753   5.577 -1.4338  0.6915 -2.3774
  523MOL0     H70560   4.471   2.902   5.680  0.8311  0.6532 -0.3759
  523MOL0     H70561   4.660   2.957   5.715  0.8857 -1.2879  1.4076
  523MOL0     H70562   4.756   2.890   5.572  2.0594  2.3491  2.8073
  523MOL0     H70563   4.735   2.673   5.654 -2.8249 -0.1435 -0.2304
  523MOL0     H70564   4.653   2.734   5.802  0.6241  2.4233  2.4221
  523MOL0     H70565   4.901   2.735   5.536  0.8268 -2.7357 -1.2744
  523MOL0     H70566   5.198   2.650   5.370 -1.2204 -0.8497  1.3457
  523MOL0     H70567   5.030   2.687   5.355 -0.5924  2.1471 -1.0239
  523MOL0     H70568   5.149   2.812   5.319  0.9255  0.4816  0.5198
  523MOL0     H70569   5.366   2.774   5.244  0.8381 -2.2753  0.9009
  523MOL0     H70570   5.515   2.783   5.061 -3.8273  3.0923 -0.3988
  523MOL0     H70571   5.845   3.067   5.070 -0.9517  0.1288  1.3016
  523MOL0     H70572   5.957   2.926   5.081  1.3748  1.1377 -4.2319
  523MOL0     H70573   5.832   3.045   4.843 -0.2660 -0.5000  1.2497
  523MOL0     H70574   6.011   3.030   4.886 -0.4187  1.3634 -0.5323
  523MOL0     H70575   5.817   2.807   4.814 -0.8136  0.1951  5.6886
  523MOL0     H70576   5.973   2.772   4.869 -2.7665 -0.6339  1.7139
  523MOL0     H70577   5.890   2.948   4.634 -3.7180 -2.2630  2.3631
  523MOL0     H70578   6.066   2.916   4.674  1.5881 -3.6005 -3.2078
  523MOL0     H70579   5.843   2.759   4.562 -1.5084 -1.6585  1.2142
  523MOL0     H70580   5.955   2.666   4.665  1.2194  0.5745  0.3631
  523MOL0     H70581   6.025   2.652   4.416  1.0891  0.8601  0.4671
  523MOL0     H70582   6.036   2.829   4.411  0.2200  1.7080  1.9836
  523MOL0     H70583   6.240   2.638   4.504  3.5745 -0.7231  4.7784
  523MOL0     H70584   6.184   2.729   4.646  2.1701  0.4568 -0.0062
  523MOL0     H70585   6.228   2.946   4.531  1.7227  0.7945  1.3767
  523MOL0     H70586   6.263   2.863   4.386 -0.1336 -1.2777 -0.2164
  523MOL0     H70587   5.788   3.024   5.289  1.1395 -3.7551  0.5071
  523MOL0     H70588   5.621   3.021   5.476  0.0870 -1.7519  0.9527
  523MOL0     H70589   5.311   2.823   5.808  0.8391  1.8638  0.0813
  523MOL0     H70590   5.078   2.821   5.913  1.9316  0.0732 -0.0338
  523MOL0     H70591   3.211   2.940   5.982 -0.0324  0.1487  0.0663
  523MOL0     H70592   3.029   2.848   6.112  1.8221  1.2879  0.8345
  523MOL0     H70593   3.035   2.384   6.366 -1.6182  3.3948 -2.4606
  523MOL0     H70594   2.911   2.270   6.564  2.9311  2.0926 -1.7435
  523MOL0     H70595   2.479   2.289   6.563  0.1832  0.5577 -2.6622
  523MOL0     H70596   2.482   2.136   6.481  0.2674  2.0708 -0.8691
  523MOL0     H70597   2.391   2.091   6.715  1.0936 -0.9895  3.0062
  523MOL0     H70598   2.529   2.190   6.781  2.7254  0.3368 -1.2828
  523MOL0     H70599   2.698   2.012   6.722 -0.1788 -0.0474 -2.8419
  523MOL0     H70600   2.577   1.945   6.615  0.5868 -3.0379  1.6343
  523MOL0     H70601   2.430   1.885   6.819 -0.9195  2.0418  0.6333
  523MOL0     H70602   2.540   1.956   6.925 -1.6580 -0.1366  0.9255
  523MOL0     H70603   2.699   1.575   6.889 -0.6311  0.6890  1.5700
  523MOL0     H70604   2.558   2.285   6.332  0.7064  0.3448  3.6575
  523MOL0     H70605   2.670   2.413   6.159 -1.8498 -1.1021  1.0332
  524MOL0     O70606   5.324   3.668   0.066 -0.1735  0.5893  0.4559
  524MOL0     C70607   5.304   3.771   0.006 -0.2115 -1.1422  0.2240
  524MOL0     O70608   5.182   3.813  -0.029  0.5261 -0.4255  0.2284
  524MOL0     C70609   5.063   3.749   0.010 -0.3173  0.3878 -0.1849
  524MOL0     C70610   4.965   3.835   0.073 -0.5931  0.1883  0.1293
  524MOL0     C70611   4.835   3.781   0.116 -0.7603 -0.9014  0.0751
  524MOL0     C70612   4.812   3.643   0.097 -0.5915 -0.1407  0.5125
  524MOL0     O70613   4.692   3.589   0.138  0.1090 -0.0951  0.0378
  524MOL0     C70614   4.571   3.655   0.109  0.2187  0.0316  0.9893
  524MOL0     C70615   4.507   3.582  -0.012 -0.5087 -0.7710  0.4399
  524MOL0     C70616   4.406   3.677  -0.089 -0.7139  0.9038  0.9370
  524MOL0     C70617   4.356   3.612  -0.220  0.5570  0.5652 -0.4128
  524MOL0     C70618   4.226   3.528  -0.200 -0.0105  0.4365 -0.1292
  524MOL0     C70619   4.153   3.496  -0.340  0.2297 -0.6724 -0.1251
  524MOL0     C70620   4.019   3.418  -0.343  0.0207 -0.1398 -0.0260
  524MOL0     C70621   4.036   3.281  -0.272  0.1209 -0.1936 -0.3080
  524MOL0     N70622   4.137   3.202  -0.329  0.4488 -0.1744  0.5719
  524MOL0     C70623   4.254   3.172  -0.274 -0.1794 -0.5187 -0.1572
  524MOL0     C70624   4.321   3.108  -0.371 -0.3058  0.8194  0.1424
  524MOL0     C70625   4.453   3.044  -0.354  0.7035 -0.3520  0.2119
  524MOL0     C70626   4.458   2.932  -0.238  0.3684 -0.1318  0.2284
  524MOL0     C70627   4.412   2.793  -0.272 -0.0824 -0.8389  0.2114
  524MOL0     C70628   4.445   2.695  -0.168 -0.3062 -0.0988  0.0697
  524MOL0     O70629   4.436   2.557  -0.215  0.1488 -0.1856 -0.4534
  524MOL0     C70630   4.305   2.523  -0.246  0.1396  0.3639  0.2902
  524MOL0     C70631   4.227   2.460  -0.153 -0.0639 -0.5183 -0.2129
  524MOL0     C70632   4.097   2.432  -0.173  0.2371  0.5598 -0.3471
  524MOL0     C70633   4.022   2.384  -0.047  0.2803 -0.8815 -0.3695
  524MOL0     C70634   4.030   2.465  -0.295  0.4914 -0.7400 -0.4853
  524MOL0     C70635   3.893   2.420  -0.331 -0.8177 -0.3551  0.2694
  524MOL0     O70636   3.881   2.378  -0.465 -0.1930  0.1687 -0.2032
  524MOL0     C70637   3.768   2.368  -0.540  0.2171 -0.2243 -0.0251
  524MOL0     C70638   3.628   2.391  -0.497 -0.7204  0.3622  0.4210
  524MOL0     C70639   3.521   2.351  -0.580 -0.4785  0.2402  0.0342
  524MOL0     C70640   3.540   2.314  -0.710  0.1815  0.1448 -0.0158
  524MOL0     O70641   3.443   2.308  -0.806  0.3127 -0.1448 -0.9057
  524MOL0     C70642   3.312   2.293  -0.754  0.1449  1.1146  0.6929
  524MOL0     C70643   3.205   2.272  -0.878 -0.0382  0.1197  0.2785
  524MOL0     C70644   3.138   2.407  -0.930 -0.1147  0.1072 -0.9448
  524MOL0     C70645   3.247   2.493  -0.978  0.0439 -0.4597 -0.1812
  524MOL0     C70646   3.187   2.596  -1.072  0.0470  0.2477  0.2481
  524MOL0     C70647   3.269   2.714  -1.097  0.2758  0.5469  0.6056
  524MOL0     C70648   3.194   2.833  -1.148 -0.1628  0.3420  1.1644
  524MOL0     C70649   3.137   2.816  -1.294 -0.2489 -0.0877  0.4550
  524MOL0    Cl70650   3.058   2.961  -1.344  0.1415 -0.0064 -0.1008
  524MOL0     C70651   3.671   2.296  -0.753 -1.0805 -0.0597  1.1784
  524MOL0     C70652   3.781   2.324  -0.672 -0.5609 -0.0824  0.5909
  524MOL0     O70653   3.804   2.431  -0.253 -0.3674 -0.6349 -0.5753
  524MOL0     C70654   4.110   2.516  -0.399 -0.4797  0.1275 -0.0368
  524MOL0     C70655   4.247   2.554  -0.375 -0.4788  0.7122  0.1804
  524MOL0     N70656   4.225   3.081  -0.472  0.8553  0.6243 -0.7127
  524MOL0     N70657   4.121   3.148  -0.452 -0.1680 -0.0087  0.1125
  524MOL0     C70658   4.907   3.564   0.033 -0.2398  0.1709  0.1346
  524MOL0     C70659   5.030   3.618  -0.011 -0.3641  0.7226 -0.1437
  524MOL0     C70660   5.419   3.840  -0.052  0.2577  0.2601 -0.2033
  524MOL0     C70661   5.403   3.943  -0.150  0.1732  0.0848  0.6225
  524MOL0     C70662   5.512   4.010  -0.213 -0.0985  0.1864  0.9349
  524MOL0     C70663   5.643   3.970  -0.171  1.0744 -0.2178  0.0025
  524MOL0     O70664   5.756   4.027  -0.222  0.1036  0.3539  0.3644
  524MOL0     C70665   5.745   4.088  -0.351  0.8472  0.3364 -0.7638
  524MOL0     C70666   5.882   4.153  -0.367  0.0909 -0.9606 -0.5973
  524MOL0     C70667   5.987   4.044  -0.379 -0.6353  0.7523 -0.0743
  524MOL0     C70668   6.124   4.093  -0.410 -0.4713  0.4205  1.4977
  524MOL0     C70669   6.155   4.106  -0.559 -0.3521  0.7288 -0.1367
  524MOL0     C70670   6.183   4.111  -0.681  0.1705 -1.2288 -0.3845
  524MOL0     C70671   5.659   3.879  -0.072 -0.7116 -1.2852  0.1531
  524MOL0     C70672   5.550   3.805  -0.021  0.6045  0.6351 -0.9098
  524MOL0     H70673   4.992   3.940   0.084  1.6962 -0.2033 -1.2610
  524MOL0     H70674   4.769   3.844   0.175 -0.8497 -1.9453  1.1312
  524MOL0     H70675   4.488   3.652   0.181 -1.4598  0.1985 -0.8602
  524MOL0     H70676   4.592   3.756   0.072 -0.6359  0.1459  0.7788
  524MOL0     H70677   4.592   3.552  -0.075  1.4730  0.9817  2.1536
  524MOL0     H70678   4.447   3.498   0.025 -1.4605 -0.1929  0.2386
  524MOL0     H70679   4.322   3.693  -0.021 -0.1750 -1.5622  2.2921
  524MOL0     H70680   4.452   3.775  -0.108 -1.5747  1.2077  0.3171
  524MOL0     H70681   4.345   3.697  -0.287 -2.2980 -0.5947 -1.5587
  524MOL0     H70682   4.432   3.545  -0.263 -1.7129 -2.0610 -0.6142
  524MOL0     H70683   4.263   3.433  -0.159  1.7385 -0.2398 -2.9316
  524MOL0     H70684   4.153   3.569  -0.131  0.9574 -0.4570  1.4888
  524MOL0     H70685   4.122   3.594  -0.379  1.4541  1.3222  3.3936
  524MOL0     H70686   4.216   3.441  -0.410  1.6663 -2.8961  2.7079
  524MOL0     H70687   3.933   3.471  -0.299 -1.5930 -0.8290 -2.1809
  524MOL0     H70688   3.996   3.401  -0.448  0.5039  0.4661 -0.2361
  524MOL0     H70689   3.941   3.228  -0.281 -1.0106  1.2519  2.0480
  524MOL0     H70690   4.050   3.296  -0.165 -1.0728 -0.4070 -0.1066
  524MOL0     H70691   4.282   3.200  -0.173 -0.3298 -2.2704  0.4034
  524MOL0     H70692   4.497   3.002  -0.446  1.0967 -0.2764  0.3606
  524MOL0     H70693   4.515   3.130  -0.325 -0.5011  1.5551 -2.4462
  524MOL0     H70694   4.403   2.978  -0.156  0.0876  2.2908 -1.2396
  524MOL0     H70695   4.564   2.928  -0.212  0.3119  0.9525  0.6443
  524MOL0     H70696   4.456   2.765  -0.369 -1.0871  1.3592 -0.9613
  524MOL0     H70697   4.304   2.801  -0.288  0.0128 -2.7917 -2.2117
  524MOL0     H70698   4.383   2.717  -0.081  1.1873 -1.1995  1.4762
  524MOL0     H70699   4.545   2.707  -0.125 -0.9996  1.2558  1.3875
  524MOL0     H70700   4.281   2.439  -0.061  2.2825  1.6406 -0.9849
  524MOL0     H70701   3.927   2.433  -0.025  0.7082 -0.6648  1.1179
  524MOL0     H70702   4.002   2.277  -0.046 -4.3583 -0.2292 -0.5998
  524MOL0     H70703   4.083   2.414   0.039 -0.2250  0.0213 -0.3087
  524MOL0     H70704   3.602   2.425  -0.397  0.3249  1.1495  0.4429
  524MOL0     H70705   3.424   2.356  -0.530  0.3923 -2.2560  2.2279
  524MOL0     H70706   3.311   2.203  -0.693  0.9148 -0.4584 -1.5013
  524MOL0     H70707   3.277   2.382  -0.700  2.6053  1.7096  1.4288
  524MOL0     H70708   3.248   2.206  -0.954 -1.7592 -3.3627  2.1063
  524MOL0     H70709   3.116   2.221  -0.840  0.3670  0.6450  2.0280
  524MOL0     H70710   3.080   2.466  -0.857  1.7515  2.4858 -1.2584
  524MOL0     H70711   3.071   2.387  -1.014  0.7457 -1.6307 -1.2508
  524MOL0     H70712   3.288   2.540  -0.888 -0.7109  1.2197 -0.6776
  524MOL0     H70713   3.322   2.429  -1.025 -0.2301 -1.5003  0.7567
  524MOL0     H70714   3.092   2.635  -1.034 -1.5916 -1.2661 -2.0301
  524MOL0     H70715   3.171   2.537  -1.163  2.5159  1.4823 -1.1221
  524MOL0     H70716   3.310   2.743  -1.000 -1.9665 -2.0747  2.5031
  524MOL0     H70717   3.334   2.687  -1.180 -1.8978 -0.3855 -0.8721
  524MOL0     H70718   3.267   2.914  -1.150 -4.2575  4.4606 -0.4397
  524MOL0     H70719   3.119   2.857  -1.072 -0.4253  0.2017  0.9511
  524MOL0     H70720   3.063   2.736  -1.295  0.2479 -0.6284 -2.1572
  524MOL0     H70721   3.205   2.798  -1.379 -1.4792  0.3442 -0.6501
  524MOL0     H70722   3.692   2.249  -0.848  4.5696  2.9914  0.4384
  524MOL0     H70723   3.884   2.305  -0.700 -0.6257 -2.6905  1.7681
  524MOL0     H70724   4.069   2.538  -0.497  2.0027 -3.9324 -2.2608
  524MOL0     H70725   4.316   2.593  -0.448 -0.4063 -1.4144 -0.9533
  524MOL0     H70726   4.878   3.467  -0.008  2.0826 -0.2113 -0.7790
  524MOL0     H70727   5.114   3.559  -0.047 -0.2679 -0.6170  2.0667
  524MOL0     H70728   5.304   3.966  -0.188  0.5084 -0.6997 -0.7988
  524MOL0     H70729   5.491   4.059  -0.308 -2.1416  0.9052  1.7036
  524MOL0     H70730   5.717   4.009  -0.421  1.9901 -4.9754  3.9759
  524MOL0     H70731   5.674   4.171  -0.347  0.4000 -0.0311 -0.9516
  524MOL0     H70732   5.909   4.213  -0.280  0.9519 -2.1254 -0.0469
  524MOL0     H70733   5.884   4.221  -0.453 -4.5900  5.7481  3.6501
  524MOL0     H70734   5.962   3.971  -0.456  0.7008  1.4467 -1.2054
  524MOL0     H70735   6.001   3.986  -0.287 -1.0832  0.9634  0.1332
  524MOL0     H70736   6.197   4.018  -0.376 -1.5136 -1.3934 -0.0363
  524MOL0     H70737   6.152   4.187  -0.363  0.3391  2.4469 -2.6311
  524MOL0     H70738   6.190   4.138  -0.784  0.6452  0.8034  0.1390
  524MOL0     H70739   5.756   3.855  -0.031  0.2448  2.9381  0.8646
  524MOL0     H70740   5.574   3.728   0.052  3.5580  0.2836 -2.0737
  525MOL0     O70741   6.184   2.927   5.262 -0.5631 -0.3802  0.9403
  525MOL0     C70742   6.214   2.811   5.229  0.4385 -0.2461 -0.5388
  525MOL0     O70743   6.157   2.704   5.281 -0.4632  0.0657  0.6564
  525MOL0     C70744   6.060   2.712   5.374 -0.1292 -0.5226 -0.0101
  525MOL0     C70745   5.924   2.671   5.351 -0.0431  1.1636 -0.2902
  525MOL0     C70746   5.821   2.685   5.445 -0.4968 -0.0602 -0.0346
  525MOL0     C70747   5.873   2.711   5.580  0.2475 -1.0171 -0.2804
  525MOL0     O70748   5.790   2.715   5.688 -0.5231 -0.5004 -0.0604
  525MOL0     C70749   5.762   2.588   5.741 -0.7254  0.7725  0.0526
  525MOL0     C70750   5.730   2.596   5.890 -0.4098  0.5225  0.3390
  525MOL0     C70751   5.598   2.676   5.913 -0.3178 -0.3138 -0.1618
  525MOL0     C70752   5.567   2.684   6.065  0.3760  0.1176 -0.5695
  525MOL0     C70753   5.436   2.767   6.075 -0.0598 -1.3054  0.4468
  525MOL0     C70754   5.382   2.749   6.215 -0.8328  0.6255 -0.0061
  525MOL0     C70755   5.251   2.818   6.238 -0.6914 -0.0249  0.4227
  525MOL0     C70756   5.194   2.795   6.380  0.6434 -0.4504 -0.1058
  525MOL0     N70757   5.285   2.825   6.490  1.0152  0.0798  0.8109
  525MOL0     C70758   5.328   2.956   6.526  0.4702 -0.1473 -0.3331
  525MOL0     C70759   5.434   2.927   6.602 -0.5394 -0.3625 -0.5442
  525MOL0     C70760   5.495   3.033   6.689 -0.2865 -0.9608  0.3658
  525MOL0     C70761   5.514   3.167   6.614 -0.1637 -0.3974 -0.1764
  525MOL0     C70762   5.480   3.296   6.688 -0.6060  0.4631 -0.4998
  525MOL0     C70763   5.334   3.309   6.731  0.1460  1.0594  0.1655
  525MOL0     O70764   5.307   3.440   6.788 -0.3865 -0.1661  0.4488
  525MOL0     C70765   5.349   3.470   6.917  0.5291 -0.5165  0.6644
  525MOL0     C70766   5.382   3.376   7.011 -0.2718  0.7961 -0.0255
  525MOL0     C70767   5.412   3.408   7.141  0.2583  0.4992  0.1604
  525MOL0     C70768   5.426   3.286   7.235  0.1034 -0.1570  0.5733
  525MOL0     C70769   5.416   3.542   7.177 -1.1736 -1.7033  0.0841
  525MOL0     C70770   5.466   3.603   7.311  0.2023 -0.0072 -0.3570
  525MOL0     O70771   5.498   3.737   7.316  0.1221 -0.3989 -0.2257
  525MOL0     C70772   5.587   3.809   7.396 -0.2771 -0.3830 -0.4618
  525MOL0     C70773   5.593   3.950   7.371  1.0358  0.3247  0.0660
  525MOL0     C70774   5.679   4.030   7.430 -0.2861  0.0494 -0.3210
  525MOL0     C70775   5.755   3.985   7.539 -0.3022 -0.4213 -0.2586
  525MOL0     O70776   5.840   4.068   7.605  0.3381 -0.5083 -0.0580
  525MOL0     C70777   5.894   4.174   7.535  0.2867 -0.4912 -0.2432
  525MOL0     C70778   6.014   4.225   7.608  0.3424 -0.8617 -0.2381
  525MOL0     C70779   6.122   4.124   7.642 -0.0560  0.6766  0.4832
  525MOL0     C70780   6.233   4.179   7.737  0.5777  0.4256 -0.7815
  525MOL0     C70781   6.319   4.078   7.808 -0.4721 -0.3909 -0.0979
  525MOL0     C70782   6.422   4.133   7.902  0.3378  0.0027 -0.4766
  525MOL0     C70783   6.519   4.222   7.829 -0.1322  0.7398  0.3598
  525MOL0     C70784   6.642   4.259   7.899  1.0728  0.5107  0.3347
  525MOL0    Cl70785   6.754   4.360   7.799 -0.4867 -0.3972 -0.0347
  525MOL0     C70786   5.755   3.842   7.569  0.3485 -0.6601  0.0078
  525MOL0     C70787   5.669   3.752   7.501  0.2773  0.1096  0.7042
  525MOL0     O70788   5.495   3.526   7.400  0.2042  0.6819  0.2423
  525MOL0     C70789   5.384   3.642   7.083  0.4026  0.3512 -0.2360
  525MOL0     C70790   5.346   3.606   6.955 -0.6964 -0.4923  0.1071
  525MOL0     N70791   5.466   2.799   6.595 -0.5081  0.6047 -0.1041
  525MOL0     N70792   5.374   2.731   6.532  0.1567 -0.8278 -1.1362
  525MOL0     C70793   6.004   2.758   5.606 -0.5030 -0.0460 -0.8479
  525MOL0     C70794   6.097   2.750   5.501  0.4402 -1.2740  0.3190
  525MOL0     C70795   6.331   2.798   5.140  0.5888 -0.3100  0.3351
  525MOL0     C70796   6.401   2.917   5.080  1.1516  0.9002 -0.3875
  525MOL0     C70797   6.490   2.889   4.980  0.8606 -0.2547 -0.6043
  525MOL0     C70798   6.535   2.768   4.938  0.3433  0.5226  1.0750
  525MOL0     O70799   6.598   2.767   4.813 -0.5763 -0.1177 -0.5596
  525MOL0     C70800   6.650   2.637   4.781 -0.0208  0.2899  0.0689
  525MOL0     C70801   6.744   2.654   4.673 -0.1381 -0.4710  0.1410
  525MOL0     C70802   6.788   2.510   4.627  0.3462 -0.0283 -0.5147
  525MOL0     C70803   6.904   2.461   4.711 -0.8692 -0.3540 -0.0681
  525MOL0     C70804   6.869   2.412   4.851 -0.0272  1.1903  0.3337
  525MOL0     C70805   6.833   2.377   4.960 -0.4539  0.5761  0.0675
  525MOL0     C70806   6.481   2.657   5.007 -0.8323  0.4715 -0.0330
  525MOL0     C70807   6.387   2.672   5.113 -0.3325  0.0817  0.2587
  525MOL0     H70808   5.896   2.636   5.253  1.0343  1.8452 -0.8568
  525MOL0     H70809   5.718   2.652   5.438 -0.1013 -0.9366 -2.8782
  525MOL0     H70810   5.680   2.541   5.687 -1.7761 -0.7112  2.7583
  525MOL0     H70811   5.857   2.534   5.734  0.9815  3.4081  1.0703
  525MOL0     H70812   5.710   2.495   5.926 -0.9350 -0.4960 -2.5305
  525MOL0     H70813   5.808   2.649   5.945  0.3128 -1.3729  1.2156
  525MOL0     H70814   5.603   2.780   5.880 -2.0266  0.7748  2.6404
  525MOL0     H70815   5.521   2.629   5.851 -0.7062  0.3295 -0.1843
  525MOL0     H70816   5.540   2.585   6.103 -0.4995  0.3107 -0.6691
  525MOL0     H70817   5.656   2.725   6.113  2.0108 -0.4940 -2.9069
  525MOL0     H70818   5.441   2.875   6.060  0.8426 -1.4006 -0.0118
  525MOL0     H70819   5.368   2.727   5.999  0.6977 -2.7567  0.4933
  525MOL0     H70820   5.381   2.643   6.242 -0.2880  0.4930 -0.4949
  525MOL0     H70821   5.470   2.787   6.266 -1.6244  0.1958  1.7624
  525MOL0     H70822   5.270   2.925   6.226 -1.3962  0.0072 -0.5517
  525MOL0     H70823   5.177   2.781   6.166  0.3937  2.0194 -1.9031
  525MOL0     H70824   5.165   2.690   6.382  2.5041 -1.0043  0.2887
  525MOL0     H70825   5.106   2.858   6.395  1.1535 -0.3811  3.2379
  525MOL0     H70826   5.287   3.056   6.514 -2.1747 -0.7356  2.4940
  525MOL0     H70827   5.442   3.050   6.783  1.6898  0.7750  1.2489
  525MOL0     H70828   5.588   2.994   6.733 -0.3737 -1.5680  0.0196
  525MOL0     H70829   5.473   3.175   6.513  0.9348  1.2772 -0.5406
  525MOL0     H70830   5.623   3.181   6.610 -0.3654  1.1897 -1.0281
  525MOL0     H70831   5.503   3.384   6.628 -0.0474  0.8440  0.2599
  525MOL0     H70832   5.537   3.284   6.781 -1.7103 -0.9498  0.0314
  525MOL0     H70833   5.305   3.231   6.802 -0.6234  0.7086 -0.5225
  525MOL0     H70834   5.283   3.291   6.636  3.1940 -1.8073 -1.1231
  525MOL0     H70835   5.371   3.271   6.983  0.0861  1.3681 -2.5577
  525MOL0     H70836   5.343   3.266   7.303  0.8406 -2.6822  0.8172
  525MOL0     H70837   5.440   3.190   7.185 -1.0209 -0.1379  0.2072
  525MOL0     H70838   5.518   3.305   7.290  0.7575 -1.3149 -0.0711
  525MOL0     H70839   5.534   3.993   7.290  3.1231  2.1215 -0.6028
  525MOL0     H70840   5.675   4.137   7.411  1.5172  1.4366  5.2255
  525MOL0     H70841   5.931   4.136   7.440  0.9768 -1.8248  0.5318
  525MOL0     H70842   5.828   4.260   7.516  1.5268 -0.1555 -3.6836
  525MOL0     H70843   6.048   4.303   7.539 -1.3964  0.2546  0.1018
  525MOL0     H70844   5.975   4.265   7.702  0.4825 -2.2793  0.4526
  525MOL0     H70845   6.171   4.089   7.550  1.9401  0.4518  1.5765
  525MOL0     H70846   6.072   4.041   7.693 -0.6960  0.4502 -0.4816
  525MOL0     H70847   6.291   4.261   7.693  2.4608 -0.7521 -0.6002
  525MOL0     H70848   6.182   4.238   7.814  0.8929 -0.8168  0.4080
  525MOL0     H70849   6.375   4.011   7.741  0.0673  1.5181 -1.6593
  525MOL0     H70850   6.253   4.001   7.851 -2.2905  0.2100 -1.6326
  525MOL0     H70851   6.367   4.192   7.976  1.1618  2.1296 -1.5005
  525MOL0     H70852   6.468   4.053   7.961 -3.2765 -2.5021 -0.7231
  525MOL0     H70853   6.473   4.313   7.790 -1.9688  0.8288  2.4926
  525MOL0     H70854   6.547   4.168   7.739 -0.4290  0.0706  0.6588
  525MOL0     H70855   6.680   4.165   7.938  0.2618 -0.4273 -1.0377
  525MOL0     H70856   6.608   4.323   7.981  2.1032  0.4025  0.8675
  525MOL0     H70857   5.819   3.817   7.654  1.8891  3.3181  0.2657
  525MOL0     H70858   5.669   3.649   7.535  1.0100 -0.1328  0.0113
  525MOL0     H70859   5.379   3.744   7.120 -1.0995  0.1208  0.2813
  525MOL0     H70860   5.312   3.677   6.880  0.2233 -0.5070 -0.3257
  525MOL0     H70861   6.034   2.772   5.710 -3.1129  1.4598 -0.1985
  525MOL0     H70862   6.197   2.777   5.530  0.3511  0.7236 -1.0040
  525MOL0     H70863   6.370   3.018   5.104 -3.2748 -0.0245 -1.3311
  525MOL0     H70864   6.538   2.976   4.936 -1.8711  3.9006  3.5760
  525MOL0     H70865   6.695   2.596   4.872  0.9485  0.1995 -0.4356
  525MOL0     H70866   6.574   2.567   4.746  0.1616 -0.6864  1.5594
  525MOL0     H70867   6.827   2.718   4.705  0.7290  0.5057 -3.6084
  525MOL0     H70868   6.695   2.691   4.583 -1.0546 -2.3124 -0.1562
  525MOL0     H70869   6.817   2.518   4.522 -0.2414  5.8795 -0.5636
  525MOL0     H70870   6.701   2.446   4.643 -0.0031  0.7399  0.8141
  525MOL0     H70871   6.994   2.522   4.720 -1.0811  0.0069 -0.3871
  525MOL0     H70872   6.939   2.375   4.654 -2.2413 -1.1174  0.1931
  525MOL0     H70873   6.807   2.327   5.052 -0.8758  0.2071 -0.2483
  525MOL0     H70874   6.491   2.551   4.984 -2.2926  0.0279  1.2238
  525MOL0     H70875   6.337   2.588   5.160 -0.6269 -0.5891 -1.2149
  526MOL0     O70876   7.481   2.077   2.822  0.5442 -0.9807  0.1402
  526MOL0     C70877   7.371   2.022   2.795 -0.5340 -0.5170 -0.1791
  526MOL0     O70878   7.348   1.937   2.689 -0.9593  0.1441 -0.2135
  526MOL0     C70879   7.449   1.935   2.592 -0.5253 -0.4253 -0.4755
  526MOL0     C70880   7.430   2.025   2.480  0.0299  0.5369 -0.9551
  526MOL0     C70881   7.533   2.036   2.389 -0.3308 -0.6327  0.9173
  526MOL0     C70882   7.648   1.964   2.407  0.7572 -1.3601 -0.0589
  526MOL0     O70883   7.748   1.992   2.318 -0.7966 -0.2461  0.3690
  526MOL0     C70884   7.873   2.031   2.371 -0.2928 -0.0320  0.0556
  526MOL0     C70885   7.963   2.067   2.250 -1.3961 -0.1075 -0.6620
  526MOL0     C70886   8.112   2.048   2.287  0.4982 -0.2223 -0.4048
  526MOL0     C70887   8.150   2.157   2.389  0.9289 -0.0624 -0.3210
  526MOL0     C70888   8.298   2.143   2.406  0.1419  0.0732 -0.2436
  526MOL0     C70889   8.366   2.240   2.500  0.3842 -0.8980 -0.0415
  526MOL0     C70890   8.365   2.385   2.443 -0.3972  0.0197 -0.0879
  526MOL0     C70891   8.440   2.478   2.536  0.2649  0.0921  0.1587
  526MOL0     N70892   8.428   2.615   2.489  0.3543 -0.3352 -0.1690
  526MOL0     C70893   8.475   2.665   2.368 -0.4536  0.3060 -0.2553
  526MOL0     C70894   8.431   2.788   2.360  0.8766 -0.4528  0.8744
  526MOL0     C70895   8.441   2.882   2.238 -0.4842 -0.6254 -0.3666
  526MOL0     C70896   8.396   2.821   2.112  0.1844  0.5748 -0.0648
  526MOL0     C70897   8.395   2.908   1.985 -0.9464  1.0281 -0.2691
  526MOL0     C70898   8.388   2.828   1.849  0.4240  0.3109  0.0343
  526MOL0     O70899   8.269   2.758   1.854 -0.2814  0.2680 -0.4302
  526MOL0     C70900   8.195   2.751   1.740  0.2816  0.0178 -0.4453
  526MOL0     C70901   8.245   2.718   1.608  0.5545  0.2807  0.3316
  526MOL0     C70902   8.168   2.725   1.494 -0.7758  0.8610 -0.5452
  526MOL0     C70903   8.222   2.669   1.363 -0.1391 -0.0738 -0.1334
  526MOL0     C70904   8.044   2.787   1.498  0.0331  0.3938  0.5429
  526MOL0     C70905   7.955   2.797   1.380 -0.8688 -0.4128 -0.1712
  526MOL0     O70906   7.866   2.902   1.403  0.0422 -0.1795  0.3099
  526MOL0     C70907   7.749   2.914   1.339  0.1478 -0.0296  0.0474
  526MOL0     C70908   7.721   2.878   1.210  0.0453  0.0752 -0.3853
  526MOL0     C70909   7.595   2.892   1.154  0.7771 -0.4795 -0.4916
  526MOL0     C70910   7.489   2.957   1.229 -0.9250 -0.1563 -0.3702
  526MOL0     O70911   7.359   2.975   1.170 -1.6000 -0.3150 -0.1451
  526MOL0     C70912   7.358   2.999   1.023 -0.5331 -0.0994 -0.5357
  526MOL0     C70913   7.208   3.019   1.000 -0.2933 -0.1059 -1.3208
  526MOL0     C70914   7.157   3.162   1.067  0.2986  0.5931  0.1775
  526MOL0     C70915   7.003   3.170   1.081  0.3690 -0.0504  0.4657
  526MOL0     C70916   6.961   3.307   1.149 -0.5765  0.9391 -0.3884
  526MOL0     C70917   7.024   3.327   1.290  0.2441  0.7176  0.5663
  526MOL0     C70918   6.949   3.442   1.358  0.1805 -0.1771  0.9239
  526MOL0     C70919   6.990   3.586   1.331 -0.3609 -0.1668  0.0038
  526MOL0    Cl70920   6.880   3.690   1.419 -0.1869  0.6043  0.2506
  526MOL0     C70921   7.519   3.007   1.351  0.2759 -0.4815 -0.7187
  526MOL0     C70922   7.642   2.981   1.409  1.0693  0.7355  0.5116
  526MOL0     O70923   7.949   2.719   1.290 -0.2094  0.7361  0.1864
  526MOL0     C70924   7.988   2.812   1.623  0.5375 -0.2759 -0.6909
  526MOL0     C70925   8.067   2.798   1.740  0.2268  1.3086  0.7352
  526MOL0     N70926   8.354   2.811   2.470 -0.2598 -0.1970  0.2163
  526MOL0     N70927   8.342   2.708   2.542 -0.1631 -0.1808 -0.6980
  526MOL0     C70928   7.674   1.875   2.513 -0.1276 -0.5194 -0.4319
  526MOL0     C70929   7.570   1.856   2.606 -0.3556 -0.0465 -0.3047
  526MOL0     C70930   7.259   2.058   2.883 -0.9160  0.3090  0.4482
  526MOL0     C70931   7.278   2.071   3.022  0.4900  0.2244  0.4325
  526MOL0     C70932   7.156   2.104   3.090  0.2244  0.4498  0.8865
  526MOL0     C70933   7.022   2.121   3.028 -0.0451  0.0407 -0.1973
  526MOL0     O70934   6.915   2.146   3.110  0.8425  0.1583  0.3538
  526MOL0     C70935   6.789   2.198   3.058 -0.4141  0.1385 -0.0131
  526MOL0     C70936   6.694   2.274   3.158  0.4695  0.7169  0.2230
  526MOL0     C70937   6.568   2.320   3.086  0.5899 -0.0056 -0.1458
  526MOL0     C70938   6.477   2.194   3.043  0.6702 -0.9053  0.5383
  526MOL0     C70939   6.382   2.152   3.148 -0.2356  1.4560  0.5713
  526MOL0     C70940   6.298   2.105   3.221  0.0731  0.5783 -0.6762
  526MOL0     C70941   7.026   2.107   2.888  0.0271  0.3112 -0.6201
  526MOL0     C70942   7.141   2.069   2.817  0.2673  0.0557 -0.4088
  526MOL0     H70943   7.333   2.059   2.446 -0.3140 -1.1062 -1.7104
  526MOL0     H70944   7.519   2.073   2.288 -3.9254 -2.9397  0.4116
  526MOL0     H70945   7.863   2.102   2.454 -3.1830 -0.0537 -0.1916
  526MOL0     H70946   7.910   1.938   2.415 -2.3110 -2.0197 -2.1707
  526MOL0     H70947   7.946   2.011   2.158 -1.4640 -0.3540 -0.4988
  526MOL0     H70948   7.947   2.174   2.233  1.4171  0.4754 -0.1831
  526MOL0     H70949   8.127   1.945   2.318 -0.9266 -1.5046 -3.5314
  526MOL0     H70950   8.169   2.059   2.193 -2.6532 -0.2993 -2.4759
  526MOL0     H70951   8.115   2.259   2.371  0.2294  0.0990  1.7316
  526MOL0     H70952   8.102   2.137   2.485 -0.1049 -0.0417 -0.8234
  526MOL0     H70953   8.313   2.038   2.432 -2.3817 -0.3669 -0.2995
  526MOL0     H70954   8.348   2.141   2.309  1.0752 -1.0305  0.2332
  526MOL0     H70955   8.308   2.254   2.591  0.7377  1.2496 -0.0789
  526MOL0     H70956   8.466   2.201   2.522 -0.7755 -2.3551  3.2128
  526MOL0     H70957   8.415   2.372   2.347  0.5372 -2.8380  0.6958
  526MOL0     H70958   8.259   2.408   2.428 -0.7554 -0.9277  0.8322
  526MOL0     H70959   8.545   2.448   2.545 -0.1800 -2.4863 -2.1576
  526MOL0     H70960   8.391   2.475   2.634 -1.9760  2.1568 -0.8075
  526MOL0     H70961   8.547   2.604   2.314 -0.3601 -2.5534  2.7494
  526MOL0     H70962   8.364   2.957   2.263 -0.7182 -0.6516 -0.9892
  526MOL0     H70963   8.534   2.939   2.241 -1.4381  0.9933  0.9276
  526MOL0     H70964   8.302   2.771   2.137  1.4781 -1.5998  0.7559
  526MOL0     H70965   8.474   2.748   2.090  1.2691  0.2801  3.9554
  526MOL0     H70966   8.490   2.962   1.987  0.7625 -1.5220 -2.9507
  526MOL0     H70967   8.318   2.984   1.988  0.6487  2.6736  0.7928
  526MOL0     H70968   8.480   2.772   1.832  0.0552 -0.0770 -0.7108
  526MOL0     H70969   8.377   2.905   1.772  2.4454  2.1178  1.4220
  526MOL0     H70970   8.343   2.672   1.600 -0.5541 -3.1835  3.4991
  526MOL0     H70971   8.295   2.588   1.371  0.0745 -0.1761 -2.5184
  526MOL0     H70972   8.145   2.617   1.306  0.0319 -2.2784  1.5105
  526MOL0     H70973   8.264   2.752   1.305 -2.3022  2.5249  1.7532
  526MOL0     H70974   7.803   2.842   1.148  0.4270  1.1390 -0.5254
  526MOL0     H70975   7.578   2.867   1.050  1.9328  1.9038 -1.3358
  526MOL0     H70976   7.421   3.085   1.000 -0.0134 -0.5472 -0.8079
  526MOL0     H70977   7.394   2.907   0.976  0.3123 -1.2720  2.1612
  526MOL0     H70978   7.189   3.018   0.893 -0.7155 -2.7292 -1.2895
  526MOL0     H70979   7.161   2.934   1.051  2.0898 -0.1753  1.0069
  526MOL0     H70980   7.185   3.239   0.994  2.0606  0.6953  0.8998
  526MOL0     H70981   7.210   3.174   1.161 -1.1854  1.0088  0.9842
  526MOL0     H70982   6.952   3.153   0.986 -1.5857  0.0337  1.4365
  526MOL0     H70983   6.967   3.086   1.143  2.5724  1.2415  3.7871
  526MOL0     H70984   6.852   3.300   1.154 -0.5125  0.8362  2.3627
  526MOL0     H70985   6.995   3.381   1.076  1.6306  0.1494 -0.2318
  526MOL0     H70986   7.010   3.233   1.343 -2.6198  0.2349 -0.8437
  526MOL0     H70987   7.132   3.341   1.286  0.2570  0.6261  0.5949
  526MOL0     H70988   6.945   3.428   1.466 -2.4311 -2.8574  0.5933
  526MOL0     H70989   6.844   3.461   1.334  0.7666  3.3997  0.5101
  526MOL0     H70990   6.983   3.617   1.227 -1.1932  0.4799  0.2353
  526MOL0     H70991   7.092   3.609   1.363 -0.7372 -1.2772  2.1750
  526MOL0     H70992   7.445   3.065   1.405 -0.4108 -2.5386  0.6714
  526MOL0     H70993   7.668   3.000   1.512  2.1185 -2.1725  0.8936
  526MOL0     H70994   7.888   2.849   1.640  1.8617  2.8500  1.4421
  526MOL0     H70995   8.045   2.821   1.844 -1.2531  0.1174  0.7266
  526MOL0     H70996   7.766   1.825   2.541  0.0354  1.8247  4.1386
  526MOL0     H70997   7.579   1.790   2.692 -0.3176  2.2699  1.5635
  526MOL0     H70998   7.373   2.058   3.074  1.6805 -1.6431 -1.9981
  526MOL0     H70999   7.163   2.106   3.198 -2.1993  2.3938  1.0985
  526MOL0     H71000   6.800   2.266   2.973  0.8711 -1.4391 -1.1777
  526MOL0     H71001   6.745   2.102   3.029 -0.7826  0.1120  0.6007
  526MOL0     H71002   6.747   2.356   3.209  0.6687 -0.2713  1.6671
  526MOL0     H71003   6.661   2.206   3.237  2.3731 -0.6203 -0.0690
  526MOL0     H71004   6.598   2.373   2.995  0.1046  0.5469  0.0118
  526MOL0     H71005   6.514   2.385   3.155 -0.8280 -0.2001 -1.0414
  526MOL0     H71006   6.527   2.114   2.989  0.3494  0.0040 -1.1888
  526MOL0     H71007   6.405   2.215   2.963 -1.0501 -3.0832  1.4242
  526MOL0     H71008   6.212   2.064   3.271  2.0762 -0.8146  1.8623
  526MOL0     H71009   6.936   2.124   2.830 -0.8577 -0.8430  0.3556
  526MOL0     H71010   7.140   2.057   2.709  2.0928  1.0866 -0.5808
  527MOL0     O71011   5.817   9.736   5.126  1.5778  0.3033  0.6105
  527MOL0     C71012   5.928   9.759   5.166  0.1533  0.2265 -0.1626
  527MOL0     O71013   5.998   9.869   5.141  0.0382  1.2901 -0.7740
  527MOL0     C71014   5.946   9.961   5.062  0.4217 -0.1536  0.4819
  527MOL0     C71015   5.965   9.953   4.924 -0.3483  0.3512 -0.3834
  527MOL0     C71016   5.900  10.051   4.844 -0.5021  0.7314  0.1319
  527MOL0     C71017   5.814  10.148   4.895  0.8414 -0.1510  0.8111
  527MOL0     O71018   5.730  10.212   4.815  0.5006 -0.9455  0.1404
  527MOL0     C71019   5.787  10.299   4.712  0.1527 -0.0832  0.3579
  527MOL0     C71020   5.777  10.245   4.562  0.9869  0.1254 -0.8842
  527MOL0     C71021   5.691  10.327   4.469  0.4724 -1.2679  0.6140
  527MOL0     C71022   5.745  10.476   4.457  0.5584  0.0751  0.2932
  527MOL0     C71023   5.628  10.556   4.374  0.2447  0.7508 -0.0750
  527MOL0     C71024   5.656  10.695   4.320 -0.2997  0.1527 -0.8881
  527MOL0     C71025   5.571  10.740   4.208 -0.1389 -0.2423  1.1620
  527MOL0     C71026   5.634  10.866   4.162 -0.0231 -0.0475  0.1481
  527MOL0     N71027   5.538  10.942   4.075 -0.1027  1.0129 -0.5801
  527MOL0     C71028   5.443  11.031   4.128  0.0398  0.6629 -0.0993
  527MOL0     C71029   5.412  11.116   4.029  0.4744  0.0656  0.1536
  527MOL0     C71030   5.322  11.233   4.027  0.4074 -0.9159  0.0341
  527MOL0     C71031   5.396  11.370   4.056  0.2792  1.0372  1.0816
  527MOL0     C71032   5.299  11.480   4.117 -1.3637  0.4010  0.5779
  527MOL0     C71033   5.168  11.499   4.034  0.4330  0.6045  0.2832
  527MOL0     O71034   5.121  11.636   4.029  0.2272  0.5156 -0.4612
  527MOL0     C71035   5.015  11.663   3.954  0.3675  0.3588 -0.3605
  527MOL0     C71036   4.916  11.564   3.926 -0.7588 -0.7571  0.1191
  527MOL0     C71037   4.814  11.596   3.840  1.1672  0.7648 -1.0577
  527MOL0     C71038   4.703  11.491   3.830  0.8355 -0.0752 -0.0534
  527MOL0     C71039   4.813  11.729   3.783 -1.0043 -0.3374  0.2860
  527MOL0     C71040   4.705  11.765   3.686 -1.4756  0.1018  0.0144
  527MOL0     O71041   4.697  11.905   3.658  0.2955 -0.4565 -0.2984
  527MOL0     C71042   4.606  11.961   3.566 -0.5097  0.4365  0.2669
  527MOL0     C71043   4.522  12.065   3.617  0.0432  0.9831  0.3175
  527MOL0     C71044   4.432  12.126   3.537  1.1585 -0.0734  0.6868
  527MOL0     C71045   4.403  12.081   3.405 -0.8019  0.8994 -0.5750
  527MOL0     O71046   4.312  12.136   3.322 -0.6096 -0.4477  0.4070
  527MOL0     C71047   4.235  12.245   3.365 -0.9763 -0.1158  0.1822
  527MOL0     C71048   4.141  12.290   3.258  0.0250  0.5165 -0.0848
  527MOL0     C71049   4.066  12.173   3.198  0.6366 -0.4380  0.1125
  527MOL0     C71050   3.946  12.230   3.110  0.5698  0.4983 -0.6136
  527MOL0     C71051   3.870  12.129   3.020 -0.7885  0.4944 -0.2065
  527MOL0     C71052   3.770  12.186   2.915  0.9383  0.4509  0.9068
  527MOL0     C71053   3.713  12.067   2.834 -0.1833  0.0442  0.9123
  527MOL0     C71054   3.583  12.009   2.895 -1.0231 -0.5566 -0.1070
  527MOL0    Cl71055   3.438  12.072   2.827  0.3319 -0.2729 -0.0685
  527MOL0     C71056   4.483  11.973   3.362  0.1022  0.7577  0.4775
  527MOL0     C71057   4.582  11.916   3.439 -0.5953 -0.3012  0.3630
  527MOL0     O71058   4.642  11.676   3.628 -0.1311 -0.1494 -0.0429
  527MOL0     C71059   4.914  11.824   3.816 -0.7523 -0.1793  0.1281
  527MOL0     C71060   5.007  11.794   3.914  0.8063 -0.8649  0.5793
  527MOL0     N71061   5.482  11.076   3.916 -0.3617  0.9705  0.2391
  527MOL0     N71062   5.557  10.975   3.947 -0.6565 -0.2072  0.2810
  527MOL0     C71063   5.817  10.169   5.034  0.5378  0.7817  0.6474
  527MOL0     C71064   5.879  10.077   5.117 -0.0729 -0.0716 -0.1305
  527MOL0     C71065   5.984   9.663   5.263 -0.5318 -0.1197 -0.2213
  527MOL0     C71066   5.921   9.537   5.296  0.5694 -0.7567 -0.0784
  527MOL0     C71067   5.959   9.450   5.401 -0.4088 -0.3169  0.1873
  527MOL0     C71068   6.063   9.504   5.481  0.2137  0.7456 -0.1531
  527MOL0     O71069   6.087   9.416   5.592  0.0033  0.2687  0.5201
  527MOL0     C71070   6.208   9.430   5.663  0.1091 -0.1836  0.5072
  527MOL0     C71071   6.211   9.319   5.761  0.1526  0.5472 -0.2726
  527MOL0     C71072   6.112   9.335   5.875  0.4377 -0.2392 -0.1074
  527MOL0     C71073   6.107   9.463   5.962 -0.3305 -0.6916  0.0416
  527MOL0     C71074   6.237   9.509   5.997 -0.0610  0.3211  0.2190
  527MOL0     C71075   6.348   9.541   5.994 -0.0765 -0.0652  0.0659
  527MOL0     C71076   6.136   9.620   5.450  0.0588  0.0929  0.9910
  527MOL0     C71077   6.104   9.697   5.331  0.7868  0.7588  0.1421
  527MOL0     H71078   6.028   9.874   4.885  0.4353  1.1539 -0.7903
  527MOL0     H71079   5.906  10.037   4.737  0.5866 -0.0089  0.2710
  527MOL0     H71080   5.721  10.384   4.695  0.0471 -0.4096 -0.9828
  527MOL0     H71081   5.892  10.328   4.727  0.6007  1.0073 -3.6304
  527MOL0     H71082   5.880  10.241   4.528  2.3069 -1.0585  2.7889
  527MOL0     H71083   5.728  10.147   4.566 -3.7151  2.0798 -2.4861
  527MOL0     H71084   5.691  10.265   4.379  0.5771 -2.1514  1.2045
  527MOL0     H71085   5.590  10.314   4.510  0.0987 -1.8806 -0.4589
  527MOL0     H71086   5.754  10.517   4.557  1.9015 -0.8584  0.5870
  527MOL0     H71087   5.849  10.487   4.423  0.9357  1.5312  1.7864
  527MOL0     H71088   5.589  10.497   4.291 -0.6196 -1.4088  1.7585
  527MOL0     H71089   5.548  10.575   4.446  1.5620  1.4574  1.2672
  527MOL0     H71090   5.657  10.767   4.402 -0.3904  0.6385 -1.3077
  527MOL0     H71091   5.754  10.701   4.273  0.0099  1.8398 -0.0889
  527MOL0     H71092   5.551  10.670   4.127  0.9185  1.7343 -0.9152
  527MOL0     H71093   5.467  10.758   4.235 -0.1232  1.7053  0.1059
  527MOL0     H71094   5.728  10.858   4.107 -0.3445  2.4200 -0.9050
  527MOL0     H71095   5.652  10.922   4.254 -0.4111  0.4204 -0.0530
  527MOL0     H71096   5.406  11.043   4.229  0.2146  1.3988 -0.1149
  527MOL0     H71097   5.258  11.236   3.938  0.3099  4.4739 -0.0004
  527MOL0     H71098   5.251  11.208   4.107 -0.1418 -1.4299 -0.6002
  527MOL0     H71099   5.430  11.400   3.956  0.6122 -2.1120  0.1387
  527MOL0     H71100   5.485  11.351   4.117  1.4206 -0.0306 -0.8109
  527MOL0     H71101   5.347  11.575   4.141  1.1747 -0.3895 -0.9451
  527MOL0     H71102   5.269  11.438   4.213 -1.8428  1.6524  0.9962
  527MOL0     H71103   5.095  11.437   4.088 -0.5050  1.6634  0.2580
  527MOL0     H71104   5.173  11.447   3.938 -0.5173 -0.4368  0.7645
  527MOL0     H71105   4.914  11.461   3.958 -0.2073 -1.3138 -1.5488
  527MOL0     H71106   4.678  11.465   3.727 -0.6609 -0.1005  0.2921
  527MOL0     H71107   4.735  11.396   3.874 -1.8921 -0.5014  1.1712
  527MOL0     H71108   4.620  11.520   3.895  1.2813  1.6823 -0.2271
  527MOL0     H71109   4.520  12.103   3.718  0.1818 -0.2809  0.8116
  527MOL0     H71110   4.366  12.207   3.565  2.0467  1.0958 -0.5005
  527MOL0     H71111   4.180  12.202   3.449 -0.2987 -3.0765 -0.7628
  527MOL0     H71112   4.299  12.329   3.395 -1.2053  0.3112 -0.4842
  527MOL0     H71113   4.068  12.345   3.319  0.8237  0.3101  1.0916
  527MOL0     H71114   4.183  12.358   3.184 -1.1787  0.2736 -1.0373
  527MOL0     H71115   4.030  12.096   3.267 -1.1884  1.0364  0.8948
  527MOL0     H71116   4.124  12.126   3.118 -1.0827 -0.2762 -1.3000
  527MOL0     H71117   3.881  12.273   3.187  0.8895  2.3997 -1.3525
  527MOL0     H71118   3.976  12.315   3.048 -0.3082  1.0055 -0.3667
  527MOL0     H71119   3.808  12.065   3.083  0.4698  1.8634  2.6444
  527MOL0     H71120   3.943  12.062   2.974  2.1550  2.4789  1.2158
  527MOL0     H71121   3.694  12.250   2.961 -1.0440  0.1587 -1.7434
  527MOL0     H71122   3.828  12.245   2.844 -0.0530 -0.4863 -0.7351
  527MOL0     H71123   3.794  11.996   2.816 -0.6354 -0.4555  0.8273
  527MOL0     H71124   3.691  12.100   2.732  2.1489 -1.3884 -0.1135
  527MOL0     H71125   3.580  12.007   3.004 -0.0517  0.1591 -0.0511
  527MOL0     H71126   3.594  11.901   2.883 -1.0540 -0.4636 -1.0863
  527MOL0     H71127   4.461  11.932   3.264  0.2006 -1.5796  1.3593
  527MOL0     H71128   4.636  11.830   3.400  3.3883  1.3643  1.6304
  527MOL0     H71129   4.921  11.924   3.774 -1.0905 -0.4663 -0.6247
  527MOL0     H71130   5.077  11.868   3.951  1.8511 -0.0086 -2.7690
  527MOL0     H71131   5.756  10.246   5.080  0.0038  1.0464 -0.4826
  527MOL0     H71132   5.862  10.089   5.224  0.4799  0.4482 -0.0973
  527MOL0     H71133   5.845   9.508   5.224 -1.9305 -1.1119  2.5202
  527MOL0     H71134   5.904   9.360   5.427 -1.0332  0.4292  1.5634
  527MOL0     H71135   6.299   9.420   5.603  0.9879 -4.5870  2.2272
  527MOL0     H71136   6.211   9.523   5.720 -1.7772 -0.3892  0.9990
  527MOL0     H71137   6.312   9.314   5.804 -0.2405 -3.0920  0.5912
  527MOL0     H71138   6.198   9.226   5.705  0.1043  1.3784 -1.6892
  527MOL0     H71139   6.131   9.246   5.935 -0.6449 -1.7882 -1.9695
  527MOL0     H71140   6.015   9.319   5.826  0.1500 -2.9881  1.2221
  527MOL0     H71141   6.049   9.438   6.051 -0.4186 -0.3453  0.0853
  527MOL0     H71142   6.053   9.543   5.910  2.3099  0.5435 -0.9569
  527MOL0     H71143   6.449   9.569   6.013 -0.6485  0.7626  2.2061
  527MOL0     H71144   6.230   9.647   5.498  0.7980  1.1417 -0.9264
  527MOL0     H71145   6.161   9.788   5.316  0.8261  1.0449  1.7769
  528MOL0     O71146   8.127   8.955   2.456  0.6549  0.4649 -0.1076
  528MOL0     C71147   8.112   8.890   2.557 -0.1726 -0.1363  0.2479
  528MOL0     O71148   8.002   8.805   2.584 -0.3705 -0.2565  0.1221
  528MOL0     C71149   7.907   8.801   2.487  0.1569  1.0080  0.1422
  528MOL0     C71150   7.928   8.732   2.369  0.0827 -0.2400 -1.1346
  528MOL0     C71151   7.830   8.731   2.265  0.3961  0.0271  0.4103
  528MOL0     C71152   7.710   8.798   2.274 -0.2359 -0.5629  1.2905
  528MOL0     O71153   7.614   8.810   2.177 -0.0068 -1.2419 -0.1795
  528MOL0     C71154   7.632   8.781   2.034  0.1142 -0.5878  0.2566
  528MOL0     C71155   7.488   8.754   1.974 -0.6105  0.7907 -0.3019
  528MOL0     C71156   7.423   8.629   2.044  1.6770  0.2677 -0.8150
  528MOL0     C71157   7.293   8.576   1.974  0.5800  0.1560 -0.2388
  528MOL0     C71158   7.250   8.451   2.047 -0.9284 -0.3939  0.1385
  528MOL0     C71159   7.130   8.404   1.979 -0.5029 -0.6562 -1.0685
  528MOL0     C71160   7.090   8.275   2.042  0.4972 -0.3209 -0.3477
  528MOL0     C71161   7.008   8.294   2.175 -0.7198  0.0431  0.6491
  528MOL0     N71162   6.867   8.338   2.145  0.3528  0.4768 -0.1379
  528MOL0     C71163   6.817   8.465   2.171  1.3355  0.1600 -0.2505
  528MOL0     C71164   6.689   8.471   2.125 -0.2482  0.4442 -0.3113
  528MOL0     C71165   6.584   8.578   2.162 -0.4320 -0.1899  0.5609
  528MOL0     C71166   6.531   8.586   2.306 -0.6150 -0.9731  0.0502
  528MOL0     C71167   6.494   8.741   2.344 -0.4703  0.1179 -0.0676
  528MOL0     C71168   6.452   8.748   2.495 -1.4034  1.3387  0.1892
  528MOL0     O71169   6.575   8.753   2.572 -0.2865  0.2027  0.2122
  528MOL0     C71170   6.577   8.748   2.710  0.7544  0.2102 -0.3035
  528MOL0     C71171   6.690   8.774   2.780  0.0241  0.5759 -0.2556
  528MOL0     C71172   6.699   8.781   2.918  0.9622 -0.5294 -1.2273
  528MOL0     C71173   6.831   8.820   2.982 -0.8751 -0.2624 -0.5430
  528MOL0     C71174   6.582   8.759   2.993  0.4593 -0.9212 -0.5044
  528MOL0     C71175   6.576   8.749   3.140 -0.5938  0.0179 -0.5962
  528MOL0     O71176   6.692   8.749   3.216  0.2109 -0.5125  0.4434
  528MOL0     C71177   6.681   8.743   3.351  0.3006  0.3284  0.5332
  528MOL0     C71178   6.651   8.627   3.418 -0.5066  0.0185 -0.2141
  528MOL0     C71179   6.613   8.630   3.553  0.8108  0.5744 -0.3581
  528MOL0     C71180   6.613   8.753   3.620 -0.2877  0.3690  0.2014
  528MOL0     O71181   6.585   8.747   3.750 -0.7683 -0.4076 -0.7343
  528MOL0     C71182   6.448   8.784   3.789  0.0498  0.1420 -0.4293
  528MOL0     C71183   6.404   8.687   3.902  0.1175  0.4247  0.5148
  528MOL0     C71184   6.403   8.540   3.865  0.6669  0.2757 -0.6480
  528MOL0     C71185   6.297   8.490   3.767 -0.4923 -0.0842 -0.2148
  528MOL0     C71186   6.160   8.544   3.792  0.3232 -1.1259 -0.0333
  528MOL0     C71187   6.060   8.497   3.686 -0.0167  0.0425 -1.0115
  528MOL0     C71188   5.930   8.455   3.762 -0.3760  0.8896 -1.3477
  528MOL0     C71189   5.859   8.333   3.689  0.0892 -0.7960  1.0287
  528MOL0    Cl71190   5.786   8.415   3.534  0.1561 -0.0070 -0.4815
  528MOL0     C71191   6.643   8.873   3.549  0.0258  0.4411  0.0493
  528MOL0     C71192   6.686   8.867   3.419 -0.7428  0.4892  0.4144
  528MOL0     O71193   6.459   8.739   3.178  0.3165  0.7578 -0.9031
  528MOL0     C71194   6.464   8.739   2.924 -0.0125  0.8205 -0.2927
  528MOL0     C71195   6.471   8.727   2.784 -0.2263 -0.6782 -0.4219
  528MOL0     N71196   6.671   8.348   2.058  0.4760 -0.4418 -0.2933
  528MOL0     N71197   6.776   8.274   2.056  0.3702  0.2937 -0.1437
  528MOL0     C71198   7.693   8.873   2.391  0.2938 -0.0754 -0.2804
  528MOL0     C71199   7.786   8.871   2.491 -0.9163 -0.2559  0.0271
  528MOL0     C71200   8.224   8.880   2.656 -0.2034 -0.1529  0.3602
  528MOL0     C71201   8.225   8.792   2.755 -0.5168  1.2950  0.3860
  528MOL0     C71202   8.334   8.772   2.835  0.4126 -0.2971  1.1210
  528MOL0     C71203   8.443   8.865   2.824  0.3397  0.6173  1.4003
  528MOL0     O71204   8.555   8.843   2.898  0.2198  0.5793  0.1081
  528MOL0     C71205   8.577   8.946   2.993 -0.1096 -0.3132 -0.4848
  528MOL0     C71206   8.720   8.993   2.988  0.6130  0.5912  0.8842
  528MOL0     C71207   8.736   9.115   3.081  0.1778  0.7968  0.2111
  528MOL0     C71208   8.870   9.184   3.054  0.6628 -0.1579 -1.0359
  528MOL0     C71209   8.977   9.118   3.131 -0.8966  0.0242  0.5280
  528MOL0     C71210   9.052   9.045   3.188  0.6010  0.8884 -0.0356
  528MOL0     C71211   8.435   8.972   2.729  0.9988  0.1564  0.9541
  528MOL0     C71212   8.326   8.973   2.646 -0.3004  0.6676 -0.2406
  528MOL0     H71213   8.016   8.671   2.354  0.1778 -0.2807 -0.4140
  528MOL0     H71214   7.859   8.674   2.178 -2.8957 -1.8824  0.3982
  528MOL0     H71215   7.667   8.873   1.986 -1.6789 -0.8070 -1.6436
  528MOL0     H71216   7.700   8.696   2.023 -0.0482 -0.5986 -0.7709
  528MOL0     H71217   7.419   8.835   1.997 -1.1551  0.4534 -0.7413
  528MOL0     H71218   7.499   8.742   1.866 -0.5362 -0.6855 -0.1491
  528MOL0     H71219   7.505   8.556   2.038  0.9736 -0.5545 -0.7242
  528MOL0     H71220   7.403   8.642   2.150  0.9490 -2.8610 -0.4729
  528MOL0     H71221   7.228   8.665   1.977  1.1423  0.5729 -0.3157
  528MOL0     H71222   7.315   8.552   1.870 -0.8701 -2.6497  0.0026
  528MOL0     H71223   7.333   8.379   2.045  0.2657  0.9380  0.1780
  528MOL0     H71224   7.233   8.473   2.153 -1.8589 -0.1500 -0.0572
  528MOL0     H71225   7.051   8.481   1.982  0.1764  0.0260  1.0077
  528MOL0     H71226   7.142   8.379   1.873  0.9010  0.9560 -1.3268
  528MOL0     H71227   7.026   8.227   1.968  0.4986  0.7737 -1.0716
  528MOL0     H71228   7.181   8.217   2.056  1.8348  1.4905 -1.1587
  528MOL0     H71229   7.040   8.388   2.221  1.0367  0.3849 -1.1751
  528MOL0     H71230   7.019   8.208   2.242  3.0843  1.9524  2.8336
  528MOL0     H71231   6.851   8.540   2.242  0.8420  1.2051 -1.0741
  528MOL0     H71232   6.632   8.677   2.159 -0.3637 -0.2027  1.0731
  528MOL0     H71233   6.495   8.570   2.098 -1.1417  0.0782  1.4863
  528MOL0     H71234   6.620   8.565   2.367 -0.6673  1.3172  1.0297
  528MOL0     H71235   6.454   8.519   2.345 -1.2353  1.1881  2.8622
  528MOL0     H71236   6.415   8.767   2.274  0.9574 -0.0635 -1.8292
  528MOL0     H71237   6.581   8.807   2.332 -1.3028  2.0509  3.3672
  528MOL0     H71238   6.389   8.661   2.513  1.8538 -1.4375 -0.8257
  528MOL0     H71239   6.384   8.831   2.515 -0.1742  2.4547 -0.1081
  528MOL0     H71240   6.783   8.803   2.732 -0.5392  2.2203 -0.4170
  528MOL0     H71241   6.876   8.737   3.038 -0.8729 -0.4145 -0.7716
  528MOL0     H71242   6.899   8.847   2.901  0.3119 -1.6751 -0.0785
  528MOL0     H71243   6.832   8.907   3.048  0.5894  1.2212 -2.4139
  528MOL0     H71244   6.649   8.534   3.361  4.1504 -0.9824  0.8281
  528MOL0     H71245   6.607   8.539   3.611 -0.1677  1.6248  1.2713
  528MOL0     H71246   6.454   8.882   3.837  1.2037  1.1169 -2.4283
  528MOL0     H71247   6.372   8.779   3.711  0.4011 -0.8984 -0.7213
  528MOL0     H71248   6.483   8.696   3.978  3.7719 -0.6801 -2.8022
  528MOL0     H71249   6.307   8.711   3.946 -0.6693 -1.0601 -0.3220
  528MOL0     H71250   6.383   8.491   3.960 -2.2366  1.2820 -0.6519
  528MOL0     H71251   6.496   8.512   3.815  0.5056 -0.9314 -0.3084
  528MOL0     H71252   6.317   8.523   3.665 -3.1471 -0.4559 -0.9362
  528MOL0     H71253   6.292   8.380   3.761  0.6832 -0.1774  0.2271
  528MOL0     H71254   6.157   8.653   3.783 -1.3196 -1.2534 -1.5492
  528MOL0     H71255   6.125   8.520   3.893 -2.7395 -1.5811 -1.0785
  528MOL0     H71256   6.032   8.566   3.607 -3.0251 -0.4631 -0.5106
  528MOL0     H71257   6.108   8.416   3.629  0.0909 -0.5680 -0.0797
  528MOL0     H71258   5.873   8.546   3.778  2.3631  2.2936  1.7588
  528MOL0     H71259   5.961   8.416   3.860  0.6509  1.0383 -1.6047
  528MOL0     H71260   5.780   8.292   3.753 -0.3087  0.8994  1.6937
  528MOL0     H71261   5.930   8.255   3.662  0.7418  0.0751  0.1403
  528MOL0     H71262   6.639   8.967   3.602 -2.1319  0.2690  0.3010
  528MOL0     H71263   6.715   8.949   3.354 -1.1044 -1.2636 -2.0798
  528MOL0     H71264   6.371   8.735   2.980  0.8429 -2.9360  1.1478
  528MOL0     H71265   6.374   8.714   2.737 -1.8449  3.1261  1.4578
  528MOL0     H71266   7.599   8.922   2.413  0.1950 -1.7808  3.8792
  528MOL0     H71267   7.771   8.944   2.570 -0.4357 -1.1150  0.9314
  528MOL0     H71268   8.146   8.718   2.762  0.5539  0.2438  1.9789
  528MOL0     H71269   8.323   8.698   2.914 -1.2526 -1.4741 -0.1463
  528MOL0     H71270   8.499   9.022   3.003  1.4631  1.1780  1.2412
  528MOL0     H71271   8.576   8.903   3.094  1.0516  2.3248  0.7693
  528MOL0     H71272   8.756   9.017   2.888  2.3770 -1.3424  0.9855
  528MOL0     H71273   8.788   8.912   3.018  0.7586  0.0407 -0.8338
  528MOL0     H71274   8.708   9.079   3.181  1.1710 -0.5235  0.0279
  528MOL0     H71275   8.664   9.189   3.044 -1.2687 -1.0375 -0.8473
  528MOL0     H71276   8.864   9.291   3.078  0.3695 -0.5116  0.6182
  528MOL0     H71277   8.912   9.167   2.955  1.1939  0.9539 -1.0204
  528MOL0     H71278   9.120   8.988   3.249 -2.3809 -1.2673  1.5468
  528MOL0     H71279   8.519   9.039   2.711  1.9790 -0.9912  1.1114
  528MOL0     H71280   8.317   9.050   2.571  1.2740 -0.1663 -1.3398
  529MOL0     O71281  11.407   9.257   2.186 -0.2723 -0.2760 -0.1774
  529MOL0     C71282  11.485   9.175   2.229 -0.4059  0.1337  0.2807
  529MOL0     O71283  11.446   9.052   2.284 -0.4740 -0.4734 -0.5016
  529MOL0     C71284  11.318   9.056   2.341 -0.1631  0.4897 -0.0487
  529MOL0     C71285  11.294   9.080   2.478 -0.1817 -0.1645  0.9102
  529MOL0     C71286  11.165   9.067   2.540 -0.4636  0.6140 -0.1835
  529MOL0     C71287  11.059   9.031   2.468 -0.5979  0.1343  0.0679
  529MOL0     O71288  10.941   9.031   2.532  1.0260  0.3812  0.1408
  529MOL0     C71289  10.836   8.948   2.474 -0.8166  0.2069  0.0235
  529MOL0     C71290  10.725   9.041   2.444 -0.9014 -0.4045 -0.3087
  529MOL0     C71291  10.602   8.968   2.391  0.0094  0.5790 -0.5393
  529MOL0     C71292  10.489   9.057   2.329  0.3590 -0.0177 -0.1013
  529MOL0     C71293  10.352   8.993   2.354 -0.5414  0.1328  0.0361
  529MOL0     C71294  10.310   8.972   2.505 -0.1803  0.1482  0.5992
  529MOL0     C71295  10.159   8.920   2.515  0.1903  0.5885 -0.0578
  529MOL0     C71296  10.120   8.878   2.658 -0.6636 -0.1931 -0.8099
  529MOL0     N71297  10.111   8.997   2.748  0.3357 -0.3687  0.2631
  529MOL0     C71298  10.022   9.105   2.731 -0.7357 -0.1714  0.6256
  529MOL0     C71299  10.045   9.189   2.837 -0.6658  0.5932  0.2658
  529MOL0     C71300   9.959   9.316   2.862 -0.2072 -0.2140 -0.1953
  529MOL0     C71301   9.913   9.392   2.737 -0.3691  0.3408  0.3919
  529MOL0     C71302   9.766   9.351   2.687  0.4543  0.1923  1.1614
  529MOL0     C71303   9.745   9.410   2.551 -0.2905  0.7981  0.9244
  529MOL0     O71304   9.613   9.449   2.535 -0.2787  0.0647  0.2067
  529MOL0     C71305   9.550   9.461   2.409  0.1443  0.6463 -0.6472
  529MOL0     C71306   9.412   9.468   2.407 -0.6606  0.2924 -0.7281
  529MOL0     C71307   9.341   9.477   2.293  1.1038 -0.1354  0.3546
  529MOL0     C71308   9.188   9.489   2.305 -0.0504 -0.8257 -0.3346
  529MOL0     C71309   9.407   9.465   2.169 -0.5192 -0.3442 -0.6225
  529MOL0     C71310   9.351   9.450   2.039  0.0524 -0.3971  0.4275
  529MOL0     O71311   9.378   9.349   1.950  0.1288  0.2340  1.3358
  529MOL0     C71312   9.303   9.319   1.830  0.2899 -0.4489  0.4214
  529MOL0     C71313   9.369   9.233   1.748  0.5339  0.3358  1.0682
  529MOL0     C71314   9.316   9.193   1.623  0.2938  0.3068  0.2901
  529MOL0     C71315   9.200   9.249   1.573  0.2554  0.2057 -0.6416
  529MOL0     O71316   9.141   9.227   1.450  0.1918  0.9810  0.0354
  529MOL0     C71317   9.181   9.116   1.375  0.1062  0.1548  0.4352
  529MOL0     C71318   9.076   9.096   1.256 -1.1032  0.5260  0.3518
  529MOL0     C71319   9.091   8.970   1.177  0.3480  0.0917  0.3405
  529MOL0     C71320   8.985   8.991   1.073  0.2483  0.7718  0.3517
  529MOL0     C71321   8.978   8.885   0.958  0.5265 -0.2476 -0.8744
  529MOL0     C71322   8.922   8.744   0.999  0.3822  0.8079 -0.8178
  529MOL0     C71323   8.888   8.655   0.879 -0.0670  0.4109  0.3168
  529MOL0     C71324   8.827   8.516   0.899 -0.0260 -0.8090 -0.1219
  529MOL0    Cl71325   8.966   8.407   0.953 -0.0769 -0.0112 -0.0028
  529MOL0     C71326   9.138   9.337   1.648  0.3383 -0.4181 -0.0177
  529MOL0     C71327   9.190   9.383   1.767 -0.2981  1.1043 -0.0068
  529MOL0     O71328   9.300   9.556   2.013  0.3487 -0.3775  0.3759
  529MOL0     C71329   9.549   9.446   2.168 -0.9255 -0.3312 -0.4017
  529MOL0     C71330   9.624   9.449   2.287  0.3290  1.2762  0.5629
  529MOL0     N71331  10.129   9.119   2.917 -0.4541 -0.7816  0.3145
  529MOL0     N71332  10.163   9.007   2.871 -1.0693 -0.4146  0.1438
  529MOL0     C71333  11.077   9.013   2.325  0.1206 -0.0848  0.4639
  529MOL0     C71334  11.207   9.017   2.265  0.7093 -0.7667 -0.2618
  529MOL0     C71335  11.622   9.197   2.195 -1.5247  0.0496 -0.7948
  529MOL0     C71336  11.667   9.326   2.161  0.2777  0.8616 -0.3271
  529MOL0     C71337  11.797   9.349   2.115  1.0460 -0.4818  0.2595
  529MOL0     C71338  11.892   9.259   2.110 -0.0253 -0.2850  0.7048
  529MOL0     O71339  12.017   9.280   2.052  0.2518 -0.1341  0.1026
  529MOL0     C71340  12.092   9.351   2.150  0.6561 -0.3561 -1.0589
  529MOL0     C71341  12.237   9.373   2.099 -0.3945  0.5061 -0.0094
  529MOL0     C71342  12.326   9.249   2.103  1.0925  0.0569 -0.5153
  529MOL0     C71343  12.453   9.277   2.032 -0.3601  0.5984 -1.4378
  529MOL0     C71344  12.529   9.385   2.103 -0.7315 -0.1400  0.5009
  529MOL0     C71345  12.597   9.464   2.171  0.4831 -0.3338  0.7911
  529MOL0     C71346  11.850   9.128   2.152  1.4058  0.7381 -0.2493
  529MOL0     C71347  11.720   9.095   2.195  0.7140 -0.3167 -0.1372
  529MOL0     H71348  11.379   9.107   2.539 -0.8199  4.5509  0.0655
  529MOL0     H71349  11.146   9.082   2.646  1.6471 -1.2796  0.5263
  529MOL0     H71350  10.867   8.886   2.390  0.9387  0.5531  0.3684
  529MOL0     H71351  10.796   8.880   2.551  0.1381 -2.0755 -1.3757
  529MOL0     H71352  10.694   9.100   2.531  0.3497  1.1820 -0.8874
  529MOL0     H71353  10.757   9.109   2.365  1.8374  0.2316  1.2380
  529MOL0     H71354  10.639   8.897   2.316 -2.2444 -2.2869  0.8923
  529MOL0     H71355  10.554   8.908   2.469 -1.8243  1.4934 -0.9133
  529MOL0     H71356  10.495   9.162   2.357 -1.1982 -0.2315  1.1468
  529MOL0     H71357  10.496   9.063   2.220  0.6423  0.8082 -0.0417
  529MOL0     H71358  10.281   9.059   2.304  1.5424 -0.1069 -3.5909
  529MOL0     H71359  10.346   8.896   2.304  0.5079 -0.5601  1.2019
  529MOL0     H71360  10.375   8.900   2.556  0.7530  0.7159  0.2375
  529MOL0     H71361  10.333   9.065   2.559  1.1928 -1.2235  2.5241
  529MOL0     H71362  10.101   9.009   2.489 -0.1399  1.0751  2.1208
  529MOL0     H71363  10.151   8.834   2.448 -1.4313  0.3150  0.4427
  529MOL0     H71364  10.191   8.801   2.691 -1.4581 -0.5415  0.1399
  529MOL0     H71365  10.023   8.827   2.656  0.2689 -2.0576 -1.4635
  529MOL0     H71366   9.962   9.108   2.641 -0.9219  0.8357  0.7609
  529MOL0     H71367   9.879   9.286   2.930 -0.3857 -0.2037 -0.3981
  529MOL0     H71368  10.031   9.380   2.914  0.3230 -1.4198  0.5867
  529MOL0     H71369   9.978   9.388   2.649  0.5299  2.2517  0.8958
  529MOL0     H71370   9.924   9.495   2.773  3.1407 -0.0623  0.7971
  529MOL0     H71371   9.691   9.397   2.751 -1.5749 -3.1279  1.4001
  529MOL0     H71372   9.755   9.242   2.685 -0.5791  0.1708  3.8570
  529MOL0     H71373   9.781   9.331   2.485  0.3768  0.4879  1.6529
  529MOL0     H71374   9.815   9.493   2.536  1.2550 -0.0812  2.9732
  529MOL0     H71375   9.377   9.471   2.510  2.5778 -3.4017  0.7269
  529MOL0     H71376   9.161   9.527   2.404  0.4194 -0.2049 -0.4404
  529MOL0     H71377   9.143   9.558   2.233  0.3187 -0.7159 -0.4608
  529MOL0     H71378   9.142   9.390   2.295 -0.1598 -0.8438  0.3220
  529MOL0     H71379   9.458   9.187   1.789  2.4764  2.0615 -1.0094
  529MOL0     H71380   9.367   9.122   1.558  1.5348  0.7537  0.7442
  529MOL0     H71381   9.285   9.127   1.342 -1.3829  0.0600 -5.4954
  529MOL0     H71382   9.186   9.024   1.434  3.6360 -0.5381 -0.7086
  529MOL0     H71383   8.981   9.086   1.309 -1.4407 -1.2282 -0.4960
  529MOL0     H71384   9.079   9.177   1.183 -0.4956 -0.0839 -0.3164
  529MOL0     H71385   9.078   8.879   1.235 -1.3941 -0.7725 -1.2707
  529MOL0     H71386   9.181   8.965   1.116  0.2962  2.8829 -0.1068
  529MOL0     H71387   8.887   8.985   1.122 -1.0504 -2.2729 -2.2201
  529MOL0     H71388   8.982   9.087   1.020  0.2487 -0.0780 -1.2716
  529MOL0     H71389   9.082   8.877   0.926  0.3101 -0.9066 -1.4440
  529MOL0     H71390   8.908   8.923   0.882 -0.4306  1.3615  0.7226
  529MOL0     H71391   8.994   8.684   1.056 -3.3197 -3.2261  0.1777
  529MOL0     H71392   8.835   8.749   1.065  1.2708 -4.1919  1.2480
  529MOL0     H71393   8.980   8.635   0.825  0.1502 -0.2835  0.9302
  529MOL0     H71394   8.817   8.709   0.815 -1.1582 -0.4108  0.8149
  529MOL0     H71395   8.798   8.465   0.807  0.4280  0.7539 -1.1713
  529MOL0     H71396   8.742   8.514   0.967 -0.4643  1.6725 -0.5362
  529MOL0     H71397   9.050   9.386   1.608 -1.0166  0.1277  3.2615
  529MOL0     H71398   9.143   9.465   1.820  0.4784  1.0114  0.8466
  529MOL0     H71399   9.602   9.429   2.074  1.0605 -0.0508  0.6031
  529MOL0     H71400   9.732   9.433   2.288 -0.0557 -2.1198  0.0410
  529MOL0     H71401  10.989   9.006   2.263  0.0169  1.2939  0.4307
  529MOL0     H71402  11.219   8.983   2.163  1.0394 -1.4876  0.0134
  529MOL0     H71403  11.603   9.413   2.175 -2.8714 -0.9761 -2.1488
  529MOL0     H71404  11.828   9.449   2.085 -0.6934 -0.4816 -1.8312
  529MOL0     H71405  12.045   9.447   2.174 -0.9003 -1.8176  2.6006
  529MOL0     H71406  12.094   9.292   2.243 -0.9070 -2.0766 -2.0529
  529MOL0     H71407  12.289   9.437   2.171  0.8237 -2.6119  2.1081
  529MOL0     H71408  12.238   9.421   2.001 -2.5161  2.6498  0.9377
  529MOL0     H71409  12.259   9.180   2.053 -0.0861  1.9384 -1.6577
  529MOL0     H71410  12.353   9.219   2.205  3.5562  0.3381 -1.0076
  529MOL0     H71411  12.443   9.306   1.927 -1.1289  1.4680 -1.1350
  529MOL0     H71412  12.504   9.180   2.041 -1.4996  0.1041  0.1705
  529MOL0     H71413  12.655   9.551   2.192 -0.8650  1.3731 -1.9379
  529MOL0     H71414  11.916   9.042   2.148 -1.3408 -1.5753  0.8064
  529MOL0     H71415  11.692   8.997   2.233 -0.8114 -0.9537 -2.6436
  530MOL0     O71416   2.770  11.243   5.256 -0.6468 -0.7471  0.1158
  530MOL0     C71417   2.793  11.317   5.163 -0.2531  0.8018 -0.0303
  530MOL0     O71418   2.882  11.284   5.068  0.0431  0.0491  0.2018
  530MOL0     C71419   2.981  11.190   5.092  0.9189 -1.0706 -0.3853
  530MOL0     C71420   3.067  11.176   5.204  0.1085 -0.1893 -0.1630
  530MOL0     C71421   3.172  11.079   5.193 -0.0091  0.2985  0.5489
  530MOL0     C71422   3.180  11.000   5.076 -1.2705  0.2923  0.3345
  530MOL0     O71423   3.278  10.903   5.042 -0.1886  0.8554 -0.1337
  530MOL0     C71424   3.373  10.850   5.146  0.2378  0.8002 -0.2270
  530MOL0     C71425   3.474  10.747   5.090  0.5046 -0.9289  0.3668
  530MOL0     C71426   3.546  10.814   4.971  1.2463 -0.3029  0.1780
  530MOL0     C71427   3.620  10.730   4.873  0.2852  0.3360 -0.0747
  530MOL0     C71428   3.723  10.661   4.953  0.2441 -0.4993 -0.2449
  530MOL0     C71429   3.845  10.616   4.859  0.2319  0.3668  0.3357
  530MOL0     C71430   3.822  10.545   4.724  0.5961  0.7084 -0.2748
  530MOL0     C71431   3.940  10.515   4.632  0.1248  0.2835 -1.1662
  530MOL0     N71432   4.016  10.415   4.700  0.0240  0.2945  0.1488
  530MOL0     C71433   4.006  10.273   4.686 -0.3005 -0.4824  0.0498
  530MOL0     C71434   4.107  10.222   4.759  0.6481 -0.1649  0.3492
  530MOL0     C71435   4.151  10.078   4.781  0.8131 -0.1426 -0.2182
  530MOL0     C71436   4.271  10.032   4.677  0.5118  1.2082  0.8003
  530MOL0     C71437   4.412  10.049   4.732  0.8963 -0.2056  0.0044
  530MOL0     C71438   4.443   9.961   4.855 -0.5478 -0.4210 -0.3387
  530MOL0     O71439   4.415   9.825   4.807  0.1455 -0.2401  0.4843
  530MOL0     C71440   4.503   9.772   4.716  0.5915  0.8666  0.4928
  530MOL0     C71441   4.628   9.823   4.677  0.1745  0.7666 -0.1385
  530MOL0     C71442   4.704   9.772   4.574 -0.0891 -0.1133  0.5607
  530MOL0     C71443   4.830   9.854   4.541 -0.4439  0.6384 -0.4595
  530MOL0     C71444   4.661   9.654   4.501  0.4399  0.1627 -0.1442
  530MOL0     C71445   4.725   9.603   4.375  0.1384  0.1909 -0.8055
  530MOL0     O71446   4.640   9.588   4.273 -0.0241 -0.3760 -0.1193
  530MOL0     C71447   4.685   9.542   4.152 -1.3030 -0.3406 -0.4761
  530MOL0     C71448   4.662   9.612   4.034  0.6682 -0.1246 -0.0383
  530MOL0     C71449   4.720   9.575   3.915  0.1766 -0.1487 -0.0919
  530MOL0     C71450   4.806   9.460   3.901  0.7606 -0.9977  0.0973
  530MOL0     O71451   4.853   9.425   3.771  0.8467 -0.6632 -0.5346
  530MOL0     C71452   4.967   9.510   3.729  0.5574 -0.5123 -0.4349
  530MOL0     C71453   4.955   9.526   3.576 -0.1027  1.7860 -0.5719
  530MOL0     C71454   5.074   9.603   3.516  0.1809  0.0881 -0.0095
  530MOL0     C71455   5.069   9.635   3.367  0.8684 -0.8456 -1.1644
  530MOL0     C71456   5.179   9.734   3.304  0.1523 -0.2484  0.6923
  530MOL0     C71457   5.167   9.749   3.139 -0.0939 -0.3090 -0.2457
  530MOL0     C71458   5.248   9.628   3.071  0.5172 -0.4017 -0.5616
  530MOL0     C71459   5.404   9.633   3.074  0.5670  0.9975 -1.0144
  530MOL0    Cl71460   5.460   9.787   3.017 -0.0901  0.6472 -0.0434
  530MOL0     C71461   4.817   9.380   4.013 -0.5998  0.2685 -0.6679
  530MOL0     C71462   4.771   9.428   4.135  0.0335 -0.5508  0.0099
  530MOL0     O71463   4.846   9.585   4.373 -0.4941  0.5482 -0.1245
  530MOL0     C71464   4.538   9.597   4.543 -0.2403 -0.6340  0.3803
  530MOL0     C71465   4.468   9.654   4.652  0.0779 -0.8049  0.6752
  530MOL0     N71466   4.169  10.326   4.818 -0.8888 -0.7155  0.2820
  530MOL0     N71467   4.118  10.443   4.781 -0.3030  0.7768  0.0761
  530MOL0     C71468   3.087  11.014   4.972 -0.3647 -0.1856  0.1740
  530MOL0     C71469   2.983  11.107   4.985 -0.5423  0.5952 -0.1308
  530MOL0     C71470   2.718  11.445   5.132 -0.2371 -0.4355 -0.0133
  530MOL0     C71471   2.778  11.548   5.043  0.1341 -0.4424  0.1709
  530MOL0     C71472   2.702  11.663   5.007  0.0544 -0.2490 -0.1317
  530MOL0     C71473   2.576  11.682   5.060  0.5661 -0.1077  0.7865
  530MOL0     O71474   2.499  11.792   5.014 -0.7645 -0.0513 -0.8581
  530MOL0     C71475   2.414  11.850   5.115  0.2910  1.0012 -0.3809
  530MOL0     C71476   2.437  11.993   5.102  0.2834 -0.4557  0.1645
  530MOL0     C71477   2.394  12.046   4.959  0.0088 -0.1588 -0.4582
  530MOL0     C71478   2.406  12.194   4.942 -0.0894  0.2805 -0.5932
  530MOL0     C71479   2.548  12.243   4.966 -0.0693 -0.1745  0.1477
  530MOL0     C71480   2.664  12.289   4.982  0.1850  1.0311 -0.5493
  530MOL0     C71481   2.523  11.583   5.148  0.2267 -0.5038  1.3535
  530MOL0     C71482   2.589  11.469   5.179 -0.4925 -0.6948 -0.4118
  530MOL0     H71483   3.075  11.226   5.300  2.4249 -3.4368  1.5343
  530MOL0     H71484   3.241  11.053   5.273  0.5946 -0.0714 -0.0908
  530MOL0     H71485   3.437  10.932   5.179 -0.1396  1.1675 -0.3951
  530MOL0     H71486   3.315  10.805   5.227  2.1754  1.8104  1.8359
  530MOL0     H71487   3.550  10.714   5.161  3.1928 -0.2736 -2.0007
  530MOL0     H71488   3.420  10.664   5.045 -1.8898 -0.8288  2.7926
  530MOL0     H71489   3.474  10.868   4.909  0.4174  0.5482  1.8162
  530MOL0     H71490   3.606  10.896   5.009 -0.1505  0.6658  0.3735
  530MOL0     H71491   3.554  10.647   4.845  0.1160 -0.0412  1.3202
  530MOL0     H71492   3.648  10.776   4.779 -3.8503  2.0346 -0.7156
  530MOL0     H71493   3.764  10.730   5.027 -1.3275  1.2204 -0.9009
  530MOL0     H71494   3.679  10.578   5.009  1.2369 -0.2625  0.9387
  530MOL0     H71495   3.904  10.705   4.836 -0.8151  0.7372 -1.0670
  530MOL0     H71496   3.909  10.546   4.915  1.9583  2.7548  1.5292
  530MOL0     H71497   3.773  10.454   4.759 -0.3658  0.2178 -2.6917
  530MOL0     H71498   3.749  10.612   4.676 -1.2018  2.1145  3.9168
  530MOL0     H71499   4.001  10.605   4.625 -2.2712  2.3980  2.0367
  530MOL0     H71500   3.906  10.467   4.540  0.9557  1.4667 -2.1142
  530MOL0     H71501   3.934  10.220   4.624  1.7504  1.1401 -4.1722
  530MOL0     H71502   4.183  10.054   4.882  0.4520 -0.1855 -0.1129
  530MOL0     H71503   4.060  10.017   4.784 -0.3153  1.4894  1.5346
  530MOL0     H71504   4.264  10.093   4.587 -1.0512 -1.6490 -1.1675
  530MOL0     H71505   4.260   9.928   4.644  1.7374  0.2658  3.0951
  530MOL0     H71506   4.425  10.156   4.754 -0.1333  0.8082 -3.4939
  530MOL0     H71507   4.487  10.030   4.655  0.6027 -0.6986 -0.1648
  530MOL0     H71508   4.361   9.980   4.925  0.1108 -2.5939  1.1160
  530MOL0     H71509   4.541   9.986   4.897 -2.1921  1.7861  2.5556
  530MOL0     H71510   4.678   9.908   4.723  1.3156  3.0043 -4.8822
  530MOL0     H71511   4.808   9.953   4.500 -1.1179  0.0964 -1.4515
  530MOL0     H71512   4.885   9.867   4.634  3.0208 -3.0464 -1.7088
  530MOL0     H71513   4.886   9.808   4.459 -1.2387 -0.4423 -0.4284
  530MOL0     H71514   4.599   9.700   4.032  0.0103 -0.5925 -0.1170
  530MOL0     H71515   4.699   9.630   3.824 -1.6795  2.3056  1.6738
  530MOL0     H71516   4.961   9.605   3.784 -3.0073  0.0532 -1.5491
  530MOL0     H71517   5.060   9.471   3.771  0.1069  2.5691  4.0325
  530MOL0     H71518   4.965   9.428   3.528 -0.6262  3.6395 -4.9430
  530MOL0     H71519   4.860   9.570   3.545  0.6400  1.7745 -3.0724
  530MOL0     H71520   5.157   9.542   3.553  0.9701  0.3659 -1.2918
  530MOL0     H71521   5.076   9.701   3.565  0.2544 -0.6772  1.5987
  530MOL0     H71522   5.077   9.537   3.321  0.5638 -2.0667  1.2370
  530MOL0     H71523   4.971   9.673   3.337 -0.3094 -1.6668  1.3735
  530MOL0     H71524   5.277   9.700   3.339  0.1883 -0.7098  0.1556
  530MOL0     H71525   5.162   9.836   3.341  1.0875  0.6903 -1.2754
  530MOL0     H71526   5.061   9.743   3.113 -0.0000  0.0854 -0.7268
  530MOL0     H71527   5.209   9.840   3.095  0.1711 -1.1409 -1.7957
  530MOL0     H71528   5.223   9.631   2.965  2.0252 -1.1360 -0.9723
  530MOL0     H71529   5.208   9.532   3.105 -0.4956 -0.1000 -0.8624
  530MOL0     H71530   5.436   9.552   3.008 -0.7110 -0.4814  0.1318
  530MOL0     H71531   5.450   9.623   3.173  1.2474 -0.3105 -1.4473
  530MOL0     H71532   4.876   9.290   3.999 -1.1639 -0.1725 -0.2607
  530MOL0     H71533   4.807   9.377   4.224 -1.5158  0.6068  1.3611
  530MOL0     H71534   4.492   9.506   4.505 -1.3827 -1.0770  2.6463
  530MOL0     H71535   4.374   9.605   4.673  0.1231 -1.3552 -0.3547
  530MOL0     H71536   3.088  10.948   4.886  2.3397 -1.8085  1.3425
  530MOL0     H71537   2.918  11.122   4.899  0.3103 -1.1265 -1.1302
  530MOL0     H71538   2.870  11.527   4.990 -1.6277 -2.0572 -2.5375
  530MOL0     H71539   2.756  11.731   4.941  2.6858  1.6886  3.6567
  530MOL0     H71540   2.311  11.816   5.103  1.0319 -0.8747 -2.1142
  530MOL0     H71541   2.444  11.822   5.216  1.9922  2.4018 -0.4407
  530MOL0     H71542   2.543  12.014   5.116 -0.4191  1.4224  3.7758
  530MOL0     H71543   2.369  12.050   5.166 -1.7620  2.3283 -4.1049
  530MOL0     H71544   2.292  12.021   4.928  0.4140 -0.4627 -1.6154
  530MOL0     H71545   2.457  12.002   4.881 -0.4788  0.5928 -1.2932
  530MOL0     H71546   2.333  12.247   5.004  2.8222  2.7345  1.0029
  530MOL0     H71547   2.370  12.222   4.842  0.4586  0.7405 -0.6675
  530MOL0     H71548   2.765  12.325   4.991  0.8310 -0.1194 -2.5652
  530MOL0     H71549   2.416  11.580   5.169 -0.3165 -0.3479 -1.0917
  530MOL0     H71550   2.556  11.392   5.248 -0.0894 -0.5552 -0.0523
  531MOL0     O71551   8.461   8.282   6.554 -0.1687 -0.1290  0.3899
  531MOL0     C71552   8.546   8.263   6.466 -0.3669  0.9705 -0.2246
  531MOL0     O71553   8.653   8.170   6.470  0.0313 -0.0310  1.2482
  531MOL0     C71554   8.669   8.096   6.581 -0.4174 -0.4917 -0.7185
  531MOL0     C71555   8.682   8.158   6.702 -0.0976  0.7966 -0.2652
  531MOL0     C71556   8.677   8.086   6.823  0.0072 -0.0999  0.2754
  531MOL0     C71557   8.677   7.952   6.815  0.0544  0.0327 -0.7308
  531MOL0     O71558   8.677   7.873   6.934 -0.7000  0.0354 -0.4572
  531MOL0     C71559   8.550   7.869   6.993 -0.2480 -0.3705  1.7689
  531MOL0     C71560   8.451   7.758   6.934  0.0754  0.2956 -0.2806
  531MOL0     C71561   8.453   7.611   6.978 -0.0889  0.6335  0.5285
  531MOL0     C71562   8.347   7.533   6.905 -0.4251  0.3708  0.8801
  531MOL0     C71563   8.330   7.380   6.943 -0.8677 -0.4515 -0.2151
  531MOL0     C71564   8.203   7.311   6.900  0.2774 -0.8045  0.5207
  531MOL0     C71565   8.191   7.163   6.946  0.7480  0.7595 -0.7846
  531MOL0     C71566   8.290   7.065   6.887 -0.0095  0.5045  0.5091
  531MOL0     N71567   8.272   7.052   6.743  1.1253  0.3368 -0.0326
  531MOL0     C71568   8.150   7.018   6.681  0.5266 -0.9104 -1.2237
  531MOL0     C71569   8.158   7.057   6.553 -0.4759  0.6869  0.1356
  531MOL0     C71570   8.049   7.039   6.447 -1.0092 -1.0368 -0.0091
  531MOL0     C71571   8.050   7.136   6.325  0.1478 -0.6079  0.4177
  531MOL0     C71572   7.948   7.086   6.225  0.9609 -0.3366 -0.5718
  531MOL0     C71573   7.926   7.193   6.127  0.1572 -0.3515 -0.2434
  531MOL0     O71574   7.811   7.170   6.052 -0.0859  0.0154  0.3350
  531MOL0     C71575   7.779   7.246   5.944  0.3992 -0.1186  0.5639
  531MOL0     C71576   7.647   7.241   5.911  1.4056 -0.0811  0.1375
  531MOL0     C71577   7.593   7.324   5.806  0.3608  0.2496  0.7454
  531MOL0     C71578   7.444   7.328   5.782  0.1093  0.0735  0.0190
  531MOL0     C71579   7.683   7.409   5.729 -0.0383  0.2719 -0.8921
  531MOL0     C71580   7.644   7.486   5.607 -0.4062  0.6806  0.1135
  531MOL0     O71581   7.718   7.590   5.565 -0.4926 -0.0486 -0.3113
  531MOL0     C71582   7.700   7.644   5.438  0.4017 -0.3205  0.0686
  531MOL0     C71583   7.727   7.571   5.322 -0.2690 -1.1878  0.6599
  531MOL0     C71584   7.733   7.638   5.197  0.0924  0.1472 -0.5864
  531MOL0     C71585   7.691   7.772   5.181 -0.3464  0.1539  0.4268
  531MOL0     O71586   7.703   7.832   5.058 -0.1150  0.6567 -0.1348
  531MOL0     C71587   7.819   7.794   4.972 -0.0204  0.5078  0.0503
  531MOL0     C71588   7.871   7.923   4.909  0.0711 -0.6208 -0.3931
  531MOL0     C71589   7.998   7.907   4.828  0.4640  0.0704  0.3845
  531MOL0     C71590   8.025   8.036   4.751  0.1373  0.4821  0.0088
  531MOL0     C71591   8.168   8.033   4.713  0.9547  0.6567  0.3317
  531MOL0     C71592   8.215   8.143   4.618 -1.2798 -0.2680 -0.4301
  531MOL0     C71593   8.368   8.167   4.631 -0.0605 -0.1855 -0.4418
  531MOL0     C71594   8.439   8.044   4.573 -0.6367  0.3310  0.6945
  531MOL0    Cl71595   8.376   7.992   4.406  0.0550  0.1764 -0.1132
  531MOL0     C71596   7.656   7.840   5.301 -1.0649  0.3023  0.8134
  531MOL0     C71597   7.655   7.781   5.421 -0.9555 -0.4614  0.1423
  531MOL0     O71598   7.557   7.433   5.544 -0.2515  0.4773  0.0631
  531MOL0     C71599   7.812   7.416   5.776 -0.1440 -0.3819  0.6008
  531MOL0     C71600   7.866   7.343   5.882  0.3041 -0.0987  0.0648
  531MOL0     N71601   8.283   7.118   6.538  0.8073 -0.2135 -0.2398
  531MOL0     N71602   8.353   7.115   6.657  0.3699  1.0050  1.2501
  531MOL0     C71603   8.683   7.884   6.689  1.1257 -0.4387 -0.4045
  531MOL0     C71604   8.689   7.959   6.568  0.0998  0.1214  0.4513
  531MOL0     C71605   8.547   8.348   6.349  0.0123 -0.0409  0.4405
  531MOL0     C71606   8.658   8.364   6.257  0.4652 -0.4541 -0.3076
  531MOL0     C71607   8.654   8.453   6.147 -0.0652  0.0823  0.7596
  531MOL0     C71608   8.536   8.525   6.119 -0.3844 -0.0768  0.8159
  531MOL0     O71609   8.537   8.601   6.003  0.1241 -0.5287 -0.1324
  531MOL0     C71610   8.557   8.742   6.021  0.3171 -0.0509  0.2771
  531MOL0     C71611   8.700   8.768   6.072 -0.0733 -0.1227 -0.4618
  531MOL0     C71612   8.721   8.918   6.102 -0.0697  0.9965  0.2471
  531MOL0     C71613   8.840   8.941   6.181 -0.5671 -0.0051 -0.4713
  531MOL0     C71614   8.826   8.887   6.326  0.4745  0.3408  0.7805
  531MOL0     C71615   8.831   8.855   6.445  0.3555 -0.1412  0.9515
  531MOL0     C71616   8.434   8.512   6.205  0.9726  0.5078  0.1646
  531MOL0     C71617   8.434   8.423   6.316  0.5432  0.0652  0.4713
  531MOL0     H71618   8.688   8.266   6.707  0.2668  0.9043 -2.2248
  531MOL0     H71619   8.673   8.134   6.920  3.3065 -1.8395  1.4243
  531MOL0     H71620   8.559   7.860   7.102  1.7760  2.4938  1.9488
  531MOL0     H71621   8.497   7.965   6.989  0.9421  0.2461 -1.4057
  531MOL0     H71622   8.356   7.809   6.955 -0.7101 -0.2217 -2.3187
  531MOL0     H71623   8.466   7.766   6.826 -1.7566  0.5250 -0.5516
  531MOL0     H71624   8.544   7.551   6.969 -1.0295 -0.8587  0.6752
  531MOL0     H71625   8.433   7.600   7.085 -1.9905 -1.4469  0.0306
  531MOL0     H71626   8.261   7.599   6.922  0.7230  2.5719 -1.2962
  531MOL0     H71627   8.371   7.538   6.799  0.8349  3.3067  1.2166
  531MOL0     H71628   8.418   7.321   6.913  1.9299  2.9273  0.6869
  531MOL0     H71629   8.334   7.380   7.053  2.0433  0.8442 -0.2155
  531MOL0     H71630   8.123   7.364   6.954  0.5925  2.4532 -1.9230
  531MOL0     H71631   8.182   7.311   6.793 -0.9217 -3.4732  0.6918
  531MOL0     H71632   8.198   7.160   7.055 -2.4957  1.5395 -0.4539
  531MOL0     H71633   8.096   7.123   6.911  1.3977 -0.1016 -1.6165
  531MOL0     H71634   8.281   6.965   6.929 -1.8452  0.0499 -0.8599
  531MOL0     H71635   8.383   7.119   6.907 -0.8995  3.4550 -2.3489
  531MOL0     H71636   8.066   6.974   6.735  1.5696  1.0869  2.4182
  531MOL0     H71637   8.076   6.940   6.409  0.1266 -0.5526 -0.5019
  531MOL0     H71638   7.951   7.031   6.496 -2.0824  2.5070 -1.2313
  531MOL0     H71639   8.148   7.130   6.277  0.1919 -0.7119  0.5186
  531MOL0     H71640   8.033   7.238   6.361 -0.9866 -0.9623  0.9424
  531MOL0     H71641   7.851   7.064   6.270  0.5204  0.5608 -1.0469
  531MOL0     H71642   7.977   7.004   6.158 -0.2723 -0.0342 -1.5218
  531MOL0     H71643   8.024   7.196   6.078  0.8667 -1.3935  1.0186
  531MOL0     H71644   7.904   7.285   6.182 -1.8419 -0.9017 -0.0449
  531MOL0     H71645   7.582   7.171   5.963  1.2032 -0.2607 -0.3463
  531MOL0     H71646   7.405   7.430   5.783 -2.2889 -0.6046 -3.7020
  531MOL0     H71647   7.418   7.292   5.682 -1.3320 -0.4264  0.5389
  531MOL0     H71648   7.380   7.273   5.852 -3.0864  2.9075 -0.3964
  531MOL0     H71649   7.762   7.469   5.336  4.7300  0.4070  1.6159
  531MOL0     H71650   7.766   7.568   5.122 -3.5630 -3.7881  1.0877
  531MOL0     H71651   7.909   7.763   5.026  1.9824 -0.3648 -3.5272
  531MOL0     H71652   7.799   7.718   4.897  0.2312  1.3780 -0.9289
  531MOL0     H71653   7.796   7.975   4.849  0.9404  0.1288 -0.8487
  531MOL0     H71654   7.905   7.981   4.995  3.5067 -3.1315  0.1503
  531MOL0     H71655   7.983   7.823   4.759 -0.1556  0.3344  0.1895
  531MOL0     H71656   8.086   7.885   4.888  1.2875 -0.8427 -1.1061
  531MOL0     H71657   7.968   8.046   4.658  1.0821  2.0641 -0.4376
  531MOL0     H71658   7.997   8.128   4.802 -3.6451 -0.7190  0.4023
  531MOL0     H71659   8.192   7.936   4.668 -3.1051  0.1928 -1.2320
  531MOL0     H71660   8.211   8.038   4.814 -2.2338 -3.6228  2.2091
  531MOL0     H71661   8.195   8.120   4.513 -1.2562  3.5775 -1.4024
  531MOL0     H71662   8.174   8.242   4.638  2.2540  1.6250 -1.6479
  531MOL0     H71663   8.400   8.191   4.733  1.1538 -0.4750 -0.7348
  531MOL0     H71664   8.406   8.247   4.566  0.9967 -1.0113 -0.8805
  531MOL0     H71665   8.433   7.963   4.647  1.0161 -2.1165 -1.6393
  531MOL0     H71666   8.544   8.071   4.566 -0.2010 -1.4495 -0.4935
  531MOL0     H71667   7.632   7.946   5.300 -0.8844  0.3524 -0.7117
  531MOL0     H71668   7.631   7.852   5.499  0.4361  1.8913 -1.4625
  531MOL0     H71669   7.875   7.482   5.717  0.3821 -1.6096 -0.2360
  531MOL0     H71670   7.971   7.357   5.905 -0.5068  2.6443  2.7607
  531MOL0     H71671   8.701   7.777   6.684 -0.1566 -0.7237  0.6496
  531MOL0     H71672   8.688   7.917   6.468 -2.1278 -0.6292  0.7224
  531MOL0     H71673   8.746   8.304   6.278  1.0365  0.4983  0.0814
  531MOL0     H71674   8.735   8.459   6.076 -0.3111 -3.4707 -0.0261
  531MOL0     H71675   8.537   8.792   5.925  1.3286  3.8196  1.8909
  531MOL0     H71676   8.487   8.783   6.094 -0.5937  1.4042 -1.3411
  531MOL0     H71677   8.768   8.741   5.991  2.7521 -0.7919  1.9506
  531MOL0     H71678   8.711   8.705   6.161  1.2996  0.0734 -0.4637
  531MOL0     H71679   8.638   8.956   6.163  1.7647  0.8106  3.0664
  531MOL0     H71680   8.726   8.970   6.006  1.2666 -1.5423 -1.1665
  531MOL0     H71681   8.850   9.050   6.186  2.0944 -0.2219  0.3725
  531MOL0     H71682   8.924   8.889   6.134  0.2527 -0.0542  0.9943
  531MOL0     H71683   8.832   8.818   6.546 -1.4085  2.4531  2.0219
  531MOL0     H71684   8.350   8.578   6.186 -0.9159 -1.6129  0.6981
  531MOL0     H71685   8.350   8.428   6.384 -0.5215 -0.8037 -0.7055
  532MOL0     O71686   9.009   4.353   1.884  0.4199 -0.2051 -0.0312
  532MOL0     C71687   9.082   4.255   1.910  0.9446 -0.0255  0.1894
  532MOL0     O71688   9.031   4.130   1.935 -0.0632 -0.1949  0.3226
  532MOL0     C71689   8.899   4.114   1.957  0.7866 -0.3788 -0.7173
  532MOL0     C71690   8.796   4.112   1.863  0.8693 -0.2549 -0.4049
  532MOL0     C71691   8.670   4.085   1.903 -0.2757  0.3085 -0.0936
  532MOL0     C71692   8.633   4.077   2.038  0.1277  1.0211  0.9868
  532MOL0     O71693   8.504   4.058   2.087 -0.2249 -0.5002 -0.2591
  532MOL0     C71694   8.402   4.068   1.998 -0.5068 -0.2059  0.5907
  532MOL0     C71695   8.276   4.052   2.086  0.1233  0.6458  0.4253
  532MOL0     C71696   8.274   3.942   2.193 -0.3705 -0.0951  0.2417
  532MOL0     C71697   8.292   3.806   2.132 -0.2737 -0.7503  0.0329
  532MOL0     C71698   8.309   3.695   2.223 -0.3040  0.6373 -0.1326
  532MOL0     C71699   8.338   3.557   2.156  1.0837 -0.0428  0.8588
  532MOL0     C71700   8.360   3.454   2.264 -0.0516 -0.7029 -0.3051
  532MOL0     C71701   8.382   3.304   2.218 -0.1696  0.2694 -0.6207
  532MOL0     N71702   8.492   3.284   2.124 -0.1632  0.4774  0.0676
  532MOL0     C71703   8.623   3.281   2.155 -0.2394 -0.1989 -0.6568
  532MOL0     C71704   8.698   3.228   2.061 -0.7915  0.1824  0.3293
  532MOL0     C71705   8.841   3.182   2.053  0.6235  0.7272  0.0542
  532MOL0     C71706   8.846   3.041   2.119  1.3655  0.1096  0.7776
  532MOL0     C71707   8.822   2.910   2.033  0.7781 -0.6944  0.1448
  532MOL0     C71708   8.841   2.779   2.107 -1.1869 -0.6650 -0.5001
  532MOL0     O71709   8.789   2.682   2.022  0.0712  0.0867 -0.3904
  532MOL0     C71710   8.763   2.550   2.070 -1.2931 -0.0960 -0.4051
  532MOL0     C71711   8.822   2.495   2.190 -0.1223  0.2041  0.3600
  532MOL0     C71712   8.797   2.363   2.239  0.1154 -0.6679 -0.1695
  532MOL0     C71713   8.843   2.332   2.381 -0.0120 -0.0952 -0.2461
  532MOL0     C71714   8.718   2.279   2.157  0.5969 -0.8331  0.1503
  532MOL0     C71715   8.679   2.143   2.193 -0.1656 -0.3437 -0.1595
  532MOL0     O71716   8.706   2.037   2.114  1.2906 -0.3944 -0.0121
  532MOL0     C71717   8.603   1.944   2.106  0.1599 -0.6893  0.1443
  532MOL0     C71718   8.639   1.825   2.164  0.5216 -0.1947 -0.0317
  532MOL0     C71719   8.540   1.724   2.175  0.2852  0.2458  0.5173
  532MOL0     C71720   8.416   1.733   2.100  0.8898  0.2023  0.0132
  532MOL0     O71721   8.330   1.634   2.068 -0.2549  0.6373  0.9881
  532MOL0     C71722   8.393   1.503   2.101  0.3147 -0.9759  0.2504
  532MOL0     C71723   8.511   1.442   2.017  0.4614 -0.3100 -0.1250
  532MOL0     C71724   8.515   1.292   2.022 -0.3249 -1.0848 -0.0344
  532MOL0     C71725   8.585   1.231   1.905  0.1844 -0.4060  1.2029
  532MOL0     C71726   8.586   1.080   1.895  0.2617  0.1253  0.1406
  532MOL0     C71727   8.455   1.016   1.939 -0.0845  0.2520  0.1834
  532MOL0     C71728   8.457   0.872   1.899 -0.6145  0.5913 -0.6670
  532MOL0     C71729   8.323   0.793   1.927 -0.6279  0.0931 -0.5946
  532MOL0    Cl71730   8.205   0.854   1.813  0.2451  0.0294 -0.5320
  532MOL0     C71731   8.393   1.851   2.033  0.5184  0.4847  0.3067
  532MOL0     C71732   8.482   1.956   2.040 -0.7062  0.4512 -0.0649
  532MOL0     O71733   8.621   2.134   2.305  0.0750 -0.2013 -0.8328
  532MOL0     C71734   8.660   2.338   2.038 -0.9494  0.3446 -0.2057
  532MOL0     C71735   8.685   2.469   1.997  0.0692 -0.2185 -1.0560
  532MOL0     N71736   8.608   3.213   1.958  0.2812  0.0060  1.1993
  532MOL0     N71737   8.481   3.248   1.992 -0.6105  0.8189  0.2363
  532MOL0     C71738   8.734   4.100   2.131  0.0970 -0.1353 -0.5960
  532MOL0     C71739   8.863   4.114   2.087  0.3359 -0.1013 -0.0009
  532MOL0     C71740   9.224   4.260   1.905 -0.0424 -1.1697 -0.4718
  532MOL0     C71741   9.292   4.379   1.953 -0.2687  0.4859 -0.6609
  532MOL0     C71742   9.432   4.371   1.950  0.6327  0.2417  0.6292
  532MOL0     C71743   9.501   4.258   1.901 -0.1230 -0.9587  0.0743
  532MOL0     O71744   9.639   4.255   1.904 -0.0897 -0.0613 -0.2192
  532MOL0     C71745   9.712   4.135   1.902  0.3658  0.7272  0.3731
  532MOL0     C71746   9.864   4.167   1.897 -0.6197  0.8375 -0.5417
  532MOL0     C71747   9.909   4.211   1.755  0.7582 -0.5657 -0.2490
  532MOL0     C71748  10.061   4.192   1.767  0.1565 -0.2286  0.3322
  532MOL0     C71749  10.120   4.057   1.779  0.0521 -0.3010  0.2883
  532MOL0     C71750  10.186   3.948   1.792 -0.1308  0.0226 -0.5574
  532MOL0     C71751   9.426   4.159   1.840 -0.1035 -0.1005 -0.6108
  532MOL0     C71752   9.284   4.155   1.850 -0.3527  0.2964 -0.2257
  532MOL0     H71753   8.829   4.139   1.762  3.4212  0.2800  0.4822
  532MOL0     H71754   8.588   4.073   1.832  0.1226  0.5376 -0.5988
  532MOL0     H71755   8.414   4.165   1.948 -3.1887 -0.0121  0.1796
  532MOL0     H71756   8.398   3.988   1.923  1.4370 -2.0111  2.3092
  532MOL0     H71757   8.256   4.145   2.140 -1.4583  0.6832 -0.1842
  532MOL0     H71758   8.187   4.034   2.026 -0.5352  2.6329  0.7461
  532MOL0     H71759   8.364   3.947   2.255  0.1237 -1.1490 -0.3589
  532MOL0     H71760   8.183   3.956   2.251  0.0128  2.9667  0.2722
  532MOL0     H71761   8.209   3.788   2.063  0.9240 -0.0467 -1.6306
  532MOL0     H71762   8.377   3.810   2.064 -0.5517 -0.3221 -0.2947
  532MOL0     H71763   8.395   3.715   2.288 -1.8582 -1.2511  2.7212
  532MOL0     H71764   8.228   3.680   2.295  1.0468 -1.1669  1.1019
  532MOL0     H71765   8.254   3.530   2.090  0.1833  0.7436  1.6595
  532MOL0     H71766   8.429   3.547   2.096  1.2262 -2.9672  1.4239
  532MOL0     H71767   8.441   3.488   2.331 -3.0425 -0.2044  3.4148
  532MOL0     H71768   8.274   3.465   2.331  0.0991 -0.8874 -0.0808
  532MOL0     H71769   8.286   3.270   2.178  0.2574 -1.2545 -0.4027
  532MOL0     H71770   8.390   3.243   2.309  2.7824 -0.1964 -1.0964
  532MOL0     H71771   8.663   3.312   2.251 -1.1030  0.6021 -0.5352
  532MOL0     H71772   8.878   3.191   1.951 -1.2325  0.6870 -0.6574
  532MOL0     H71773   8.897   3.258   2.110  0.4000  0.6754  0.3465
  532MOL0     H71774   8.783   3.040   2.208  2.1244  0.7695  1.3373
  532MOL0     H71775   8.950   3.025   2.150  1.9946  0.7714 -0.8851
  532MOL0     H71776   8.886   2.911   1.945  2.4559  3.0112  1.2197
  532MOL0     H71777   8.716   2.918   2.005  0.6986  1.0560  0.8104
  532MOL0     H71778   8.795   2.787   2.206  2.7961 -1.8422  1.6632
  532MOL0     H71779   8.948   2.765   2.126 -0.6325  2.5897 -0.7769
  532MOL0     H71780   8.892   2.554   2.247  0.0667 -0.3705  0.7339
  532MOL0     H71781   8.949   2.360   2.390 -0.1746  1.2039 -1.9454
  532MOL0     H71782   8.800   2.400   2.455  2.0033  0.1774  0.7660
  532MOL0     H71783   8.834   2.227   2.411 -0.7557  0.2507  0.8155
  532MOL0     H71784   8.739   1.807   2.202  0.7176 -0.5591 -0.7132
  532MOL0     H71785   8.553   1.632   2.230 -1.4496 -1.2031 -1.3457
  532MOL0     H71786   8.413   1.500   2.208 -1.2821  2.4746  0.7696
  532MOL0     H71787   8.308   1.437   2.083 -0.8307 -0.0448  2.0124
  532MOL0     H71788   8.481   1.471   1.916 -1.4355 -2.6797 -0.3302
  532MOL0     H71789   8.605   1.495   2.036  0.9877 -0.4027 -2.2557
  532MOL0     H71790   8.416   1.249   2.035 -1.0701  1.2204  3.3865
  532MOL0     H71791   8.562   1.265   2.117 -1.6881  2.7750  1.9565
  532MOL0     H71792   8.529   1.269   1.819  1.5427  2.8135  1.5900
  532MOL0     H71793   8.687   1.271   1.901  0.4363 -1.1016  0.1899
  532MOL0     H71794   8.667   1.041   1.957 -1.2162  0.2993  2.2892
  532MOL0     H71795   8.594   1.056   1.789  1.9885 -0.6229  0.4029
  532MOL0     H71796   8.446   1.028   2.047  1.9890 -1.5741  0.6157
  532MOL0     H71797   8.372   1.065   1.886 -0.3712  0.5279  0.8792
  532MOL0     H71798   8.543   0.822   1.946 -0.3790 -0.3653 -2.0775
  532MOL0     H71799   8.481   0.858   1.794  0.8342 -1.3841 -0.1352
  532MOL0     H71800   8.299   0.787   2.033 -0.0220 -2.8366 -0.5495
  532MOL0     H71801   8.344   0.689   1.902  1.2167 -0.3564  2.3680
  532MOL0     H71802   8.297   1.853   1.982  0.7770 -0.6337 -0.2462
  532MOL0     H71803   8.468   2.051   1.990 -1.2141  0.3716 -0.0778
  532MOL0     H71804   8.580   2.277   1.997  0.2563 -2.4563  1.2823
  532MOL0     H71805   8.639   2.501   1.905 -0.7546 -1.0682 -0.9626
  532MOL0     H71806   8.696   4.094   2.233  0.1491  0.4388 -0.5436
  532MOL0     H71807   8.942   4.144   2.155  0.9431 -0.9817 -0.3084
  532MOL0     H71808   9.238   4.464   1.993 -0.3171  0.6390 -1.0505
  532MOL0     H71809   9.488   4.450   2.000  0.6513 -0.9344  2.5853
  532MOL0     H71810   9.679   4.070   1.983  0.2520  1.2770  0.7783
  532MOL0     H71811   9.671   4.080   1.818  0.7703 -1.6877  1.6745
  532MOL0     H71812   9.910   4.072   1.923  1.8012  2.4437  1.5743
  532MOL0     H71813   9.892   4.245   1.969 -2.6040  0.9040  0.2146
  532MOL0     H71814   9.875   4.315   1.744 -1.1839 -1.1908 -0.3896
  532MOL0     H71815   9.859   4.139   1.691 -0.3477 -1.4506  1.5286
  532MOL0     H71816  10.100   4.250   1.851 -2.5285  0.0673  1.4768
  532MOL0     H71817  10.104   4.239   1.678  2.5406  0.0954  1.5796
  532MOL0     H71818  10.247   3.860   1.798  0.0396  0.2229  1.1674
  532MOL0     H71819   9.469   4.074   1.788  1.3071  0.9812 -1.2955
  532MOL0     H71820   9.222   4.077   1.808 -1.4731 -1.2256  3.7871
  533MOL0     O71821   2.583   0.113   5.945 -0.3508 -1.0004 -0.0676
  533MOL0     C71822   2.592   0.053   6.053  0.3423 -0.5277  1.1187
  533MOL0     O71823   2.483   0.036   6.134 -0.3177  0.6447  0.1122
  533MOL0     C71824   2.368   0.107   6.102  0.4009 -0.4938  0.5885
  533MOL0     C71825   2.252   0.044   6.076  0.5671 -0.7635 -0.2750
  533MOL0     C71826   2.134   0.116   6.048 -0.3550 -0.1798  0.0627
  533MOL0     C71827   2.129   0.257   6.059  0.2880 -0.1567  0.4744
  533MOL0     O71828   2.013   0.330   6.058 -0.2715 -0.4539 -0.5220
  533MOL0     C71829   1.998   0.398   5.928 -0.2492  0.4024  0.5011
  533MOL0     C71830   1.864   0.464   5.922  0.7480  0.2616 -0.2411
  533MOL0     C71831   1.839   0.532   5.783  0.5136 -0.3196  0.4451
  533MOL0     C71832   1.855   0.446   5.662 -0.5299  0.3818 -0.0538
  533MOL0     C71833   1.815   0.525   5.535 -0.1066 -0.3826 -0.4307
  533MOL0     C71834   1.734   0.440   5.436 -0.3373 -0.4632  0.3771
  533MOL0     C71835   1.704   0.522   5.311 -0.9778  0.7533  0.0056
  533MOL0     C71836   1.573   0.597   5.328  0.2637 -0.5424  0.4412
  533MOL0     N71837   1.543   0.669   5.207 -0.2084  0.5930  0.2899
  533MOL0     C71838   1.609   0.783   5.170  0.1558  0.4491  0.5755
  533MOL0     C71839   1.526   0.831   5.067 -0.2519  0.3032 -0.2511
  533MOL0     C71840   1.548   0.956   4.989  0.4691  0.5453 -0.9247
  533MOL0     C71841   1.606   1.070   5.076  0.1846  0.2402 -0.1375
  533MOL0     C71842   1.631   1.190   4.985  1.1374 -0.1576 -0.5642
  533MOL0     C71843   1.696   1.305   5.064  0.5948  0.1748  0.3934
  533MOL0     O71844   1.615   1.330   5.182 -0.3899 -0.1015  0.1910
  533MOL0     C71845   1.686   1.385   5.285 -0.8758  0.4512  0.0891
  533MOL0     C71846   1.776   1.303   5.353  0.1580  0.2365  0.2287
  533MOL0     C71847   1.855   1.349   5.461  0.6898 -0.3275 -0.1444
  533MOL0     C71848   1.937   1.243   5.525 -0.1513  0.2117  0.8364
  533MOL0     C71849   1.845   1.484   5.496 -0.2721 -0.0030 -0.1365
  533MOL0     C71850   1.932   1.550   5.591  0.0106 -0.2146 -0.3829
  533MOL0     O71851   1.894   1.675   5.628  0.1532 -0.4343  0.0058
  533MOL0     C71852   1.946   1.743   5.740  0.4194 -0.4262  0.8296
  533MOL0     C71853   2.005   1.686   5.856  0.6044 -0.2982 -0.9794
  533MOL0     C71854   2.021   1.760   5.965  0.4198  0.0339 -0.0291
  533MOL0     C71855   1.989   1.894   5.976  0.3440 -0.4008  1.1497
  533MOL0     O71856   1.998   1.957   6.094 -0.0996 -0.5825  0.0777
  533MOL0     C71857   1.887   2.050   6.123 -0.0985 -0.3888  1.1027
  533MOL0     C71858   1.897   2.096   6.269  0.7846  0.2223 -0.5374
  533MOL0     C71859   1.919   1.987   6.375  0.1305  0.2912  0.1681
  533MOL0     C71860   1.924   2.058   6.511 -0.1819  0.2025 -0.1567
  533MOL0     C71861   1.945   1.943   6.619  0.5297 -0.2436 -0.4559
  533MOL0     C71862   1.995   2.000   6.750 -0.4917 -0.3793  0.4264
  533MOL0     C71863   1.917   2.127   6.802  0.4456 -0.0842  0.0135
  533MOL0     C71864   1.968   2.169   6.935  0.9902 -0.3560  0.5935
  533MOL0    Cl71865   1.910   2.331   6.975  0.1541  0.3177  0.0673
  533MOL0     C71866   1.935   1.957   5.859  0.7810  0.3751  0.9270
  533MOL0     C71867   1.909   1.877   5.738 -0.0654 -0.4323 -0.1375
  533MOL0     O71868   2.037   1.499   5.635  0.7534  0.4899 -0.0797
  533MOL0     C71869   1.745   1.560   5.431 -0.4743 -0.5300  0.1892
  533MOL0     C71870   1.666   1.514   5.326  0.3375 -0.2058 -0.3215
  533MOL0     N71871   1.414   0.745   5.043  0.3155  0.5900 -0.5510
  533MOL0     N71872   1.430   0.647   5.125  0.3349  0.4587  0.0814
  533MOL0     C71873   2.246   0.320   6.084  0.5085 -0.1835  0.2414
  533MOL0     C71874   2.372   0.247   6.098  1.5185  0.2135 -1.1278
  533MOL0     C71875   2.722   0.000   6.082 -0.1047  0.0631  0.6161
  533MOL0     C71876   2.739  -0.080   6.198 -0.8057  0.9342 -0.1698
  533MOL0     C71877   2.847  -0.165   6.210  0.2501  0.4259 -0.3809
  533MOL0     C71878   2.957  -0.165   6.123  1.0947  0.0303  0.8187
  533MOL0     O71879   3.052  -0.262   6.136  0.1313  0.3379 -0.5854
  533MOL0     C71880   3.170  -0.210   6.203  0.1042 -0.0638 -0.2874
  533MOL0     C71881   3.165  -0.198   6.361  0.3157  0.1950  0.7268
  533MOL0     C71882   3.307  -0.202   6.423 -0.1910  0.0657 -0.3155
  533MOL0     C71883   3.291  -0.245   6.577 -0.7302 -0.2069  0.6928
  533MOL0     C71884   3.302  -0.393   6.589 -0.2279 -1.1574 -0.3358
  533MOL0     C71885   3.311  -0.517   6.609  0.2961  0.0128  0.5087
  533MOL0     C71886   2.947  -0.070   6.021 -0.2137  0.6792 -0.9985
  533MOL0     C71887   2.832   0.007   6.004 -0.3487  0.2238  0.2118
  533MOL0     H71888   2.262  -0.064   6.071 -1.2361 -0.9225 -1.1689
  533MOL0     H71889   2.040   0.073   6.015 -0.7278 -0.5642  1.5815
  533MOL0     H71890   2.066   0.482   5.912 -1.2359  0.8447 -1.7629
  533MOL0     H71891   2.015   0.319   5.854 -5.2342 -1.0569  0.4996
  533MOL0     H71892   1.779   0.398   5.940  0.4201  1.1912  1.9743
  533MOL0     H71893   1.856   0.533   6.007  3.3517 -0.9217  1.0820
  533MOL0     H71894   1.741   0.580   5.790 -0.6234 -2.5309  0.6534
  533MOL0     H71895   1.914   0.611   5.768  0.5291 -0.5123 -0.5397
  533MOL0     H71896   1.959   0.420   5.640 -1.0819  0.6664 -3.5442
  533MOL0     H71897   1.788   0.362   5.682 -1.6475  1.1547 -0.4120
  533MOL0     H71898   1.745   0.606   5.559 -2.3828 -2.9458  2.4019
  533MOL0     H71899   1.895   0.582   5.485  0.5145  1.4622  2.4142
  533MOL0     H71900   1.793   0.354   5.402 -1.5632 -1.2856  0.2661
  533MOL0     H71901   1.641   0.404   5.481 -0.8154  1.5554  1.1013
  533MOL0     H71902   1.785   0.593   5.293  0.2676 -0.9517 -1.5062
  533MOL0     H71903   1.694   0.446   5.233  0.3684  0.8273 -0.2664
  533MOL0     H71904   1.574   0.673   5.407 -0.0985  1.7331 -1.6332
  533MOL0     H71905   1.487   0.532   5.341 -0.3070 -0.1957 -1.3172
  533MOL0     H71906   1.710   0.820   5.189  0.3239  1.0624 -1.2682
  533MOL0     H71907   1.620   0.941   4.908  2.7060  3.1499  0.4249
  533MOL0     H71908   1.449   0.985   4.952  0.2644  2.2379  0.8074
  533MOL0     H71909   1.700   1.048   5.128 -0.3655 -0.2031  0.7083
  533MOL0     H71910   1.529   1.092   5.151  1.5356  1.7061  0.8754
  533MOL0     H71911   1.536   1.220   4.940  0.4091 -0.1077  0.9255
  533MOL0     H71912   1.705   1.163   4.909 -0.1053  1.2994 -2.3486
  533MOL0     H71913   1.702   1.394   5.001 -0.9112  0.9583  1.3019
  533MOL0     H71914   1.793   1.261   5.086 -0.0761 -2.9370 -2.1337
  533MOL0     H71915   1.764   1.197   5.330 -1.8353  0.3249  0.6527
  533MOL0     H71916   1.890   1.144   5.521  0.1979  0.0124  1.4774
  533MOL0     H71917   2.035   1.241   5.476  1.6805  0.5597  4.1768
  533MOL0     H71918   1.957   1.260   5.631  0.0234 -2.3130  1.2774
  533MOL0     H71919   2.008   1.578   5.855 -0.4252 -0.3415 -0.4811
  533MOL0     H71920   2.069   1.722   6.055  2.3552  2.5909  0.1117
  533MOL0     H71921   1.890   2.143   6.065 -0.3579  0.8657  3.0317
  533MOL0     H71922   1.796   1.998   6.091 -0.4008  0.0026  1.3166
  533MOL0     H71923   1.983   2.163   6.281  1.4271 -0.9319  2.1782
  533MOL0     H71924   1.813   2.160   6.299  1.0126  0.6396 -0.7781
  533MOL0     H71925   2.009   1.933   6.345 -0.2438 -1.3843  1.8152
  533MOL0     H71926   1.833   1.919   6.387  1.0779 -0.6977  1.8793
  533MOL0     H71927   2.005   2.131   6.511  1.0958 -1.1545 -0.7703
  533MOL0     H71928   1.829   2.110   6.526  0.1248  0.9225 -0.6989
  533MOL0     H71929   2.016   1.864   6.591  0.5862 -1.5675  2.9112
  533MOL0     H71930   1.858   1.881   6.640 -0.5253  0.0924 -3.4603
  533MOL0     H71931   1.998   1.917   6.820 -0.2228 -3.3347 -2.8066
  533MOL0     H71932   2.103   2.014   6.741 -0.6457  1.0710  0.4695
  533MOL0     H71933   1.812   2.094   6.807  1.3727 -3.2390  2.5635
  533MOL0     H71934   1.927   2.210   6.732 -1.7607 -1.3601 -1.9589
  533MOL0     H71935   2.076   2.164   6.917  1.0892  2.0732  0.0936
  533MOL0     H71936   1.950   2.093   7.012  1.3900 -1.8810 -0.7717
  533MOL0     H71937   1.910   2.062   5.867  1.4516  0.6304 -0.0954
  533MOL0     H71938   1.859   1.922   5.652 -2.3659 -0.8414  0.9066
  533MOL0     H71939   1.739   1.665   5.458  2.6595 -0.5544  1.4315
  533MOL0     H71940   1.589   1.567   5.271 -2.1311  0.4134  3.4157
  533MOL0     H71941   2.250   0.425   6.113  0.2178 -0.4835  1.4199
  533MOL0     H71942   2.469   0.287   6.124  2.3732 -3.3377  2.2711
  533MOL0     H71943   2.670  -0.094   6.280  1.4245  0.0288  1.6644
  533MOL0     H71944   2.846  -0.242   6.287 -0.3684  0.3477 -0.4676
  533MOL0     H71945   3.248  -0.281   6.176  1.3228 -0.0594  2.8308
  533MOL0     H71946   3.204  -0.118   6.156  0.4283 -1.2779 -2.5673
  533MOL0     H71947   3.105  -0.274   6.411 -3.2840  2.3532 -0.0001
  533MOL0     H71948   3.108  -0.107   6.384 -0.7046 -0.5257  1.1210
  533MOL0     H71949   3.362  -0.108   6.417 -2.0241  1.2397  0.3106
  533MOL0     H71950   3.365  -0.270   6.360  1.9405  1.7500 -0.3080
  533MOL0     H71951   3.190  -0.216   6.607 -0.3828  2.1012 -0.1906
  533MOL0     H71952   3.358  -0.183   6.638 -1.2214  4.0385 -2.6076
  533MOL0     H71953   3.326  -0.622   6.619 -2.3030 -0.7266 -1.8725
  533MOL0     H71954   3.023  -0.077   5.943 -0.9729 -0.5691 -1.6621
  533MOL0     H71955   2.829   0.081   5.925  1.4962 -1.7141 -1.8400
  534MOL0     O71956   7.881   5.268   2.738 -0.0091 -0.5390 -0.4089
  534MOL0     C71957   7.930   5.246   2.622 -0.3555 -0.8379  0.0587
  534MOL0     O71958   7.890   5.151   2.536 -0.3717  0.2355  0.0359
  534MOL0     C71959   7.805   5.048   2.579  2.5147 -1.4536  1.0740
  534MOL0     C71960   7.833   4.942   2.663  0.3420  0.2529 -0.0234
  534MOL0     C71961   7.745   4.837   2.680  0.2642 -0.9902 -0.4748
  534MOL0     C71962   7.624   4.844   2.600  0.0475 -0.1247  0.7231
  534MOL0     O71963   7.523   4.742   2.607  0.4668 -0.0562  0.3861
  534MOL0     C71964   7.560   4.616   2.662  0.8879 -1.1596  0.1700
  534MOL0     C71965   7.427   4.533   2.654 -0.2826  1.2102  0.5259
  534MOL0     C71966   7.441   4.392   2.718 -0.7870 -0.0745  0.8142
  534MOL0     C71967   7.330   4.296   2.711  0.8785 -0.7444 -0.2348
  534MOL0     C71968   7.348   4.150   2.774 -0.7796 -0.7909 -0.0920
  534MOL0     C71969   7.213   4.094   2.808  0.4249  0.6035 -0.5911
  534MOL0     C71970   7.237   3.963   2.878  0.5214 -0.2772 -0.2211
  534MOL0     C71971   7.287   3.849   2.787  0.3621  0.8086 -0.5809
  534MOL0     N71972   7.205   3.811   2.665 -0.1974  0.2240  0.4145
  534MOL0     C71973   7.070   3.801   2.667  0.6881  1.6199  0.0997
  534MOL0     C71974   7.038   3.778   2.542 -0.6537  0.1799  0.2640
  534MOL0     C71975   6.900   3.753   2.488 -0.1821  0.5732 -0.3308
  534MOL0     C71976   6.837   3.627   2.546 -0.2500  0.0662  0.0583
  534MOL0     C71977   6.749   3.568   2.436  0.3825  0.2605 -0.4578
  534MOL0     C71978   6.699   3.426   2.477  0.0416 -0.0743  0.0507
  534MOL0     O71979   6.636   3.416   2.602  0.2738  0.5510 -0.6834
  534MOL0     C71980   6.505   3.421   2.589  0.3927  0.7560 -0.9190
  534MOL0     C71981   6.442   3.543   2.588 -0.3812  0.1710  0.1866
  534MOL0     C71982   6.311   3.548   2.565  0.0944 -0.5769  0.8194
  534MOL0     C71983   6.249   3.682   2.517 -0.2971  0.2004 -0.3239
  534MOL0     C71984   6.231   3.429   2.566  1.1191  0.4392 -0.7339
  534MOL0     C71985   6.082   3.427   2.548  0.5561 -0.4666  0.1347
  534MOL0     O71986   6.017   3.543   2.587 -0.2199  0.4146  0.3121
  534MOL0     C71987   5.884   3.552   2.587 -0.0244  0.4125  0.3223
  534MOL0     C71988   5.805   3.530   2.470 -0.0398 -0.7616  0.1008
  534MOL0     C71989   5.669   3.521   2.489  0.1409  0.0271  0.4506
  534MOL0     C71990   5.608   3.542   2.620 -0.9425 -0.2050  0.1905
  534MOL0     O71991   5.479   3.540   2.644 -0.1116 -0.1219 -0.0037
  534MOL0     C71992   5.399   3.650   2.592  0.0455  0.1226  0.1327
  534MOL0     C71993   5.402   3.761   2.693 -0.4249  0.9683  1.2210
  534MOL0     C71994   5.305   3.734   2.814  0.4993  0.0084 -0.4084
  534MOL0     C71995   5.172   3.794   2.797  0.5688 -0.4604  0.3438
  534MOL0     C71996   5.068   3.751   2.902  0.0762 -0.3461 -0.0617
  534MOL0     C71997   4.937   3.823   2.883 -0.8882 -0.1794 -0.5705
  534MOL0     C71998   4.839   3.774   2.987  0.7334  0.0962 -0.5021
  534MOL0     C71999   4.704   3.853   2.961 -0.1459 -0.2348 -0.1914
  534MOL0    Cl72000   4.626   3.776   2.814  0.6735  0.0115  0.3339
  534MOL0     C72001   5.693   3.570   2.729  0.2053 -0.8834  1.0472
  534MOL0     C72002   5.826   3.559   2.716 -0.2883  0.0055 -1.0234
  534MOL0     O72003   6.024   3.334   2.498 -0.5318 -0.6527  0.4407
  534MOL0     C72004   6.295   3.307   2.582 -0.3192 -0.4854  0.1704
  534MOL0     C72005   6.433   3.305   2.591  0.1526  1.0234 -0.0408
  534MOL0     N72006   7.151   3.790   2.461 -0.2564 -1.0404  0.4517
  534MOL0     N72007   7.256   3.813   2.535  0.0125  0.8079  0.6640
  534MOL0     C72008   7.585   4.958   2.534  0.0395 -0.0140 -0.1099
  534MOL0     C72009   7.676   5.061   2.520  0.2644 -0.6865  0.3244
  534MOL0     C72010   8.033   5.344   2.570 -0.3186 -0.5089 -0.5180
  534MOL0     C72011   8.114   5.334   2.451 -1.4907  1.7085  0.2817
  534MOL0     C72012   8.215   5.420   2.419 -0.7455  0.3607  0.4228
  534MOL0     C72013   8.245   5.536   2.489 -0.3400  0.9273  0.5496
  534MOL0     O72014   8.335   5.625   2.447  0.3583  0.3188 -0.1223
  534MOL0     C72015   8.326   5.657   2.302  0.4919  0.9935 -0.1873
  534MOL0     C72016   8.403   5.784   2.271 -0.5484  0.8874 -0.1932
  534MOL0     C72017   8.334   5.905   2.346  0.3264  0.5405 -0.1436
  534MOL0     C72018   8.382   6.042   2.301 -0.3919  1.3224 -0.0930
  534MOL0     C72019   8.527   6.059   2.345  0.5837 -0.4481 -1.4992
  534MOL0     C72020   8.643   6.073   2.368 -1.2547  1.0673  0.7009
  534MOL0     C72021   8.173   5.539   2.608  0.2845 -0.5431  0.6386
  534MOL0     C72022   8.070   5.453   2.651  0.2597 -0.1758  0.0612
  534MOL0     H72023   7.928   4.954   2.713 -0.6686  1.3686  1.7235
  534MOL0     H72024   7.744   4.770   2.765 -4.2490  0.2338  0.6710
  534MOL0     H72025   7.637   4.563   2.606 -1.5220 -3.7568 -0.9235
  534MOL0     H72026   7.589   4.626   2.768 -1.9985 -2.4922  1.1731
  534MOL0     H72027   7.335   4.577   2.694 -1.3224 -1.7273  1.6256
  534MOL0     H72028   7.409   4.520   2.547 -2.7967 -0.0306  1.0150
  534MOL0     H72029   7.522   4.344   2.663 -1.8766 -1.5062  0.4041
  534MOL0     H72030   7.460   4.420   2.822 -0.2675  0.0683  0.6832
  534MOL0     H72031   7.240   4.332   2.760  0.0906 -3.2157  0.2838
  534MOL0     H72032   7.300   4.287   2.606  0.8909 -0.2785 -0.2788
  534MOL0     H72033   7.398   4.081   2.705 -1.1177 -0.7479 -0.3844
  534MOL0     H72034   7.428   4.152   2.849  0.6861 -2.2023 -1.5354
  534MOL0     H72035   7.149   4.157   2.869 -0.7718  0.2237 -1.4254
  534MOL0     H72036   7.154   4.083   2.717 -0.8108 -0.1071  0.2767
  534MOL0     H72037   7.315   3.992   2.950  1.8751 -0.3132 -1.6172
  534MOL0     H72038   7.142   3.940   2.926  1.6042  1.7873  3.2571
  534MOL0     H72039   7.284   3.757   2.847 -2.2621  0.5082 -1.0312
  534MOL0     H72040   7.391   3.864   2.758  1.3945  0.7536  2.7056
  534MOL0     H72041   7.006   3.785   2.753 -0.7596  2.7194 -0.7423
  534MOL0     H72042   6.843   3.845   2.499 -1.4172 -0.4479  2.9856
  534MOL0     H72043   6.926   3.743   2.382  1.5567  3.1654 -0.2170
  534MOL0     H72044   6.780   3.659   2.634 -0.2751 -2.3354  0.9816
  534MOL0     H72045   6.914   3.554   2.574 -1.0322 -1.6014 -1.8712
  534MOL0     H72046   6.820   3.549   2.355 -0.1028 -2.1850 -0.3763
  534MOL0     H72047   6.671   3.639   2.408  0.1399  0.2259  0.1184
  534MOL0     H72048   6.779   3.352   2.486 -0.1912 -0.8477 -3.1731
  534MOL0     H72049   6.640   3.384   2.395 -0.3599  0.4331  0.0735
  534MOL0     H72050   6.501   3.634   2.581 -2.6238  1.8915  2.0183
  534MOL0     H72051   6.211   3.659   2.417 -2.4139  2.1626 -0.0406
  534MOL0     H72052   6.172   3.722   2.582 -0.3525 -0.2400 -0.1109
  534MOL0     H72053   6.331   3.754   2.510  0.5584 -0.6646  0.4361
  534MOL0     H72054   5.855   3.525   2.374  1.7412 -0.7508  1.0014
  534MOL0     H72055   5.607   3.514   2.400 -0.1818  1.6325  0.5109
  534MOL0     H72056   5.436   3.678   2.493 -0.3948  0.9045  0.1785
  534MOL0     H72057   5.296   3.613   2.582  0.9556 -2.6789  0.3709
  534MOL0     H72058   5.508   3.767   2.720 -0.0779  1.0723 -0.1236
  534MOL0     H72059   5.370   3.854   2.646  0.5529 -0.2187 -2.0632
  534MOL0     H72060   5.348   3.776   2.905 -0.8512 -0.2599  0.3738
  534MOL0     H72061   5.295   3.628   2.842 -1.4707  0.2014 -0.2417
  534MOL0     H72062   5.180   3.903   2.791  0.1629 -0.4050  0.7234
  534MOL0     H72063   5.130   3.769   2.699 -2.6594  0.5510  1.3375
  534MOL0     H72064   5.123   3.783   2.991  2.3545 -1.9744 -0.7757
  534MOL0     H72065   5.074   3.642   2.893  1.6186 -0.2552 -0.4784
  534MOL0     H72066   4.948   3.932   2.890  1.4063 -0.0511 -3.9071
  534MOL0     H72067   4.899   3.797   2.784 -0.5093  0.9781 -1.0344
  534MOL0     H72068   4.865   3.789   3.092 -2.1646 -3.5834  0.9842
  534MOL0     H72069   4.824   3.670   2.956  0.2254  0.7903 -2.7653
  534MOL0     H72070   4.723   3.960   2.951 -3.8643  0.4542 -1.4272
  534MOL0     H72071   4.625   3.855   3.037 -1.5094  0.4319 -1.5652
  534MOL0     H72072   5.641   3.587   2.823 -2.2043 -1.1824 -0.1279
  534MOL0     H72073   5.899   3.562   2.796  0.2813  1.2126 -1.5584
  534MOL0     H72074   6.237   3.215   2.589 -0.5141 -0.4534 -0.8432
  534MOL0     H72075   6.494   3.219   2.616  1.4568  1.3354 -1.9508
  534MOL0     H72076   7.483   4.964   2.497  0.8760 -0.8914 -2.8069
  534MOL0     H72077   7.663   5.151   2.461  0.3328  1.4104  3.2856
  534MOL0     H72078   8.099   5.260   2.374  0.3654  1.5852  0.0020
  534MOL0     H72079   8.279   5.407   2.333  1.7158 -0.4688  2.2825
  534MOL0     H72080   8.373   5.578   2.244 -2.4385 -0.0697 -1.3163
  534MOL0     H72081   8.229   5.661   2.252 -0.8156  0.6634  2.1504
  534MOL0     H72082   8.402   5.799   2.163  1.6630 -1.0110 -0.5552
  534MOL0     H72083   8.506   5.763   2.303 -1.7276  0.5910  3.9194
  534MOL0     H72084   8.359   5.896   2.452  1.1927  1.9762 -0.1904
  534MOL0     H72085   8.226   5.890   2.341  0.5100 -2.1954  1.9377
  534MOL0     H72086   8.315   6.116   2.345  1.0552  1.1748  2.5644
  534MOL0     H72087   8.374   6.055   2.193 -1.5312  2.1446  0.0771
  534MOL0     H72088   8.750   6.082   2.372 -0.7104 -3.0775 -0.0503
  534MOL0     H72089   8.207   5.616   2.677  0.1042 -1.0506  1.3126
  534MOL0     H72090   8.009   5.469   2.739 -0.3340 -4.7608  0.7198
  535MOL0     O72091   8.643  10.168   9.065 -0.6290 -0.6554 -0.0344
  535MOL0     C72092   8.730  10.188   8.980  1.4137 -1.1460  0.5988
  535MOL0     O72093   8.708  10.263   8.855  0.1793 -0.0478 -0.3916
  535MOL0     C72094   8.584  10.316   8.840 -0.1229  0.0149  0.0729
  535MOL0     C72095   8.590  10.450   8.830 -0.2987  0.5746 -0.2623
  535MOL0     C72096   8.475  10.517   8.809 -0.4220  0.0076 -0.6943
  535MOL0     C72097   8.349  10.454   8.814 -1.0450 -0.1071  0.8275
  535MOL0     O72098   8.243  10.533   8.796  0.8338 -0.2393  0.3366
  535MOL0     C72099   8.113  10.477   8.775 -0.1289  1.0383  0.6134
  535MOL0     C72100   8.033  10.592   8.724 -0.5195 -0.0864  0.7344
  535MOL0     C72101   7.899  10.547   8.662  0.5437 -0.2659 -0.1715
  535MOL0     C72102   7.803  10.522   8.778 -0.1933 -0.1202 -0.7622
  535MOL0     C72103   7.685  10.448   8.729  0.2539  0.3904 -0.7007
  535MOL0     C72104   7.576  10.446   8.843  0.1104 -1.1740  0.0770
  535MOL0     C72105   7.451  10.364   8.805 -0.1614  0.5764  1.0220
  535MOL0     C72106   7.334  10.369   8.894  0.1500 -0.2478  0.5102
  535MOL0     N72107   7.365  10.291   9.007  0.7360 -0.7921 -0.2146
  535MOL0     C72108   7.310  10.171   9.036  1.1428 -0.0338  0.3764
  535MOL0     C72109   7.362  10.136   9.150  0.0797  0.9327 -0.9394
  535MOL0     C72110   7.323  10.016   9.236  0.4354 -0.4545  0.2144
  535MOL0     C72111   7.283   9.881   9.156  0.3256 -0.4877 -0.0086
  535MOL0     C72112   7.240   9.783   9.267 -0.5007 -0.1661 -0.4126
  535MOL0     C72113   7.101   9.821   9.320  0.3968  0.0101 -0.0261
  535MOL0     O72114   7.013   9.836   9.211 -0.0198 -0.4756 -0.9417
  535MOL0     C72115   6.875   9.834   9.230 -0.1261  0.2691  0.3500
  535MOL0     C72116   6.798   9.826   9.106 -1.0994 -0.6789 -0.3408
  535MOL0     C72117   6.658   9.818   9.110  0.2153 -0.0971  1.1028
  535MOL0     C72118   6.587   9.813   8.974 -0.4180  0.1785 -0.2574
  535MOL0     C72119   6.593   9.823   9.240  0.7473 -0.5636  0.0321
  535MOL0     C72120   6.446   9.799   9.255  0.6620  0.5040  0.0620
  535MOL0     O72121   6.365   9.793   9.154 -0.3974 -0.0736 -0.1014
  535MOL0     C72122   6.240   9.752   9.182  0.1638  0.0588 -1.2467
  535MOL0     C72123   6.187   9.634   9.127 -0.2516 -0.0441 -0.1911
  535MOL0     C72124   6.055   9.605   9.146 -0.2683  0.6568 -0.0298
  535MOL0     C72125   5.974   9.673   9.239  0.1494  0.2721 -0.6239
  535MOL0     O72126   5.842   9.640   9.278  0.1817 -0.8633 -0.1594
  535MOL0     C72127   5.788   9.510   9.233  0.4654  0.4277  0.0931
  535MOL0     C72128   5.650   9.497   9.273  1.0216  0.6611 -0.1461
  535MOL0     C72129   5.633   9.505   9.428 -0.1564 -0.2871  0.5174
  535MOL0     C72130   5.500   9.448   9.477  0.2225 -0.8522  0.4579
  535MOL0     C72131   5.472   9.457   9.633 -0.1477 -0.3152  0.6479
  535MOL0     C72132   5.574   9.373   9.719  0.1186 -0.5622 -0.2752
  535MOL0     C72133   5.563   9.221   9.695 -0.2337 -1.3572  0.5031
  535MOL0     C72134   5.628   9.145   9.806 -0.5529  0.0530 -0.3862
  535MOL0    Cl72135   5.654   8.964   9.773 -0.2091 -0.0294 -0.3407
  535MOL0     C72136   6.025   9.790   9.289  0.2608  0.0653 -0.3119
  535MOL0     C72137   6.152   9.831   9.262 -0.3862 -1.0140  0.2677
  535MOL0     O72138   6.410   9.776   9.375 -0.0120  0.1861 -0.1264
  535MOL0     C72139   6.676   9.824   9.361  0.6488  0.7958 -0.0607
  535MOL0     C72140   6.813   9.823   9.347 -0.1207 -0.6544 -0.2034
  535MOL0     N72141   7.461  10.220   9.186  0.0894 -0.2915  0.4422
  535MOL0     N72142   7.445  10.322   9.109 -0.2584 -0.0093 -0.4615
  535MOL0     C72143   8.341  10.315   8.840 -0.9341 -1.6015  0.3345
  535MOL0     C72144   8.464  10.247   8.849  1.1184 -0.0684 -0.4085
  535MOL0     C72145   8.865  10.161   9.020 -0.5627  0.7221 -0.1202
  535MOL0     C72146   8.887  10.073   9.136 -0.0641 -0.0123  0.0435
  535MOL0     C72147   9.024  10.036   9.163  0.6352 -0.5353 -0.3426
  535MOL0     C72148   9.134  10.075   9.081  0.1018  0.1623 -0.5459
  535MOL0     O72149   9.263  10.041   9.098 -0.2460  0.1201 -0.6062
  535MOL0     C72150   9.301   9.991   9.231 -0.6959  0.8429 -0.2847
  535MOL0     C72151   9.441   9.993   9.276 -0.4711 -0.0445 -0.0528
  535MOL0     C72152   9.528   9.886   9.213  0.2508  0.7561 -0.1577
  535MOL0     C72153   9.675   9.908   9.244  0.3558  0.1807  0.3509
  535MOL0     C72154   9.759   9.833   9.145  1.1377  0.1425 -0.6288
  535MOL0     C72155   9.845   9.789   9.069  0.5366  0.0386  0.8939
  535MOL0     C72156   9.106  10.153   8.967 -0.1692 -0.1102  0.2321
  535MOL0     C72157   8.973  10.198   8.940  0.1761 -0.7965  0.0534
  535MOL0     H72158   8.688  10.497   8.828  1.2264 -2.3893 -3.1492
  535MOL0     H72159   8.490  10.623   8.793  0.7238  0.2072  1.3786
  535MOL0     H72160   8.110  10.397   8.701  2.6395  1.0712  0.3557
  535MOL0     H72161   8.077  10.445   8.873 -1.2394  0.3505 -0.0016
  535MOL0     H72162   8.020  10.663   8.807  1.1187 -0.6777  1.5394
  535MOL0     H72163   8.087  10.650   8.649 -0.0410 -1.8258 -0.3296
  535MOL0     H72164   7.860  10.626   8.597  0.7519 -1.0295 -1.2478
  535MOL0     H72165   7.913  10.457   8.602  0.9999  0.3500 -1.0141
  535MOL0     H72166   7.849  10.472   8.865 -3.6648  2.4633  2.9300
  535MOL0     H72167   7.769  10.620   8.814 -1.0846 -0.3141 -1.0694
  535MOL0     H72168   7.648  10.497   8.639 -3.6595 -1.6313 -0.4175
  535MOL0     H72169   7.705  10.345   8.699  0.2947  0.4435 -0.8586
  535MOL0     H72170   7.619  10.418   8.939  0.5706 -1.6098 -0.2490
  535MOL0     H72171   7.549  10.551   8.856  2.4966 -0.7647  2.5639
  535MOL0     H72172   7.422  10.417   8.714  1.8467  3.4837  1.9187
  535MOL0     H72173   7.494  10.267   8.777  2.1086  0.5063  4.2055
  535MOL0     H72174   7.239  10.341   8.847 -0.4438  1.2932  0.7402
  535MOL0     H72175   7.324  10.466   8.942  1.9720  0.2984 -0.1209
  535MOL0     H72176   7.233  10.115   8.984  2.6329 -2.2102  0.3642
  535MOL0     H72177   7.402   9.995   9.309  2.4185 -2.8335 -2.3839
  535MOL0     H72178   7.238  10.046   9.298  1.1676 -1.1047  1.5746
  535MOL0     H72179   7.370   9.837   9.105  1.1351 -0.9393  1.6712
  535MOL0     H72180   7.209   9.901   9.079  0.7882 -0.7336 -0.5272
  535MOL0     H72181   7.306   9.776   9.354 -2.2752 -1.1775  0.8884
  535MOL0     H72182   7.231   9.687   9.215  0.0411  0.6719 -2.1482
  535MOL0     H72183   7.119   9.912   9.379 -0.7298  4.1278 -5.1730
  535MOL0     H72184   7.063   9.743   9.386 -1.4153 -0.2880 -1.3650
  535MOL0     H72185   6.848   9.841   9.011  1.0379 -2.1936  0.4590
  535MOL0     H72186   6.653   9.847   8.893  2.1112  0.4224  1.7893
  535MOL0     H72187   6.552   9.717   8.936  2.1807 -0.0428 -2.3017
  535MOL0     H72188   6.506   9.887   8.984  0.9568  1.9534 -1.6102
  535MOL0     H72189   6.253   9.563   9.076 -0.0164  1.1627 -1.6498
  535MOL0     H72190   6.022   9.512   9.100 -0.5796 -0.0112  1.4775
  535MOL0     H72191   5.788   9.510   9.123 -0.7599  1.1518  0.0650
  535MOL0     H72192   5.841   9.422   9.270 -0.9025  0.3004  1.9028
  535MOL0     H72193   5.579   9.568   9.229  0.7157  1.6263  1.8108
  535MOL0     H72194   5.614   9.402   9.231  2.0702  0.9168 -1.7031
  535MOL0     H72195   5.641   9.609   9.460  1.0435 -0.2130  0.0172
  535MOL0     H72196   5.703   9.444   9.486 -0.1942 -1.8451 -0.9871
  535MOL0     H72197   5.412   9.490   9.426 -0.4631 -3.1011 -0.3569
  535MOL0     H72198   5.495   9.343   9.446 -0.1823 -0.6239 -0.2957
  535MOL0     H72199   5.370   9.419   9.650 -0.5056  1.2241  2.2715
  535MOL0     H72200   5.456   9.560   9.667 -0.2255 -0.9209  2.5983
  535MOL0     H72201   5.671   9.412   9.687 -0.8655  0.7694 -1.8138
  535MOL0     H72202   5.548   9.395   9.823  1.5347 -1.3390  0.2559
  535MOL0     H72203   5.628   9.212   9.608 -0.1707  1.0558  0.2446
  535MOL0     H72204   5.460   9.187   9.680 -1.0169  0.9964  0.1776
  535MOL0     H72205   5.559   9.140   9.891 -0.6293  0.4442 -0.4218
  535MOL0     H72206   5.724   9.186   9.838  2.3227 -3.7667 -3.2277
  535MOL0     H72207   5.965   9.842   9.363  1.2212 -1.0779  1.3403
  535MOL0     H72208   6.175   9.934   9.288 -0.2819 -1.1249  0.6252
  535MOL0     H72209   6.641   9.820   9.464  0.7004 -2.1598 -0.0682
  535MOL0     H72210   6.860   9.828   9.444  0.1459  1.2651 -0.3854
  535MOL0     H72211   8.243  10.271   8.851 -0.6384 -2.5729 -0.6951
  535MOL0     H72212   8.453  10.141   8.870 -0.8944 -0.0946 -1.3608
  535MOL0     H72213   8.803  10.024   9.183  1.4768 -1.3940  1.5223
  535MOL0     H72214   9.038   9.961   9.241 -3.8148 -1.6319 -0.3433
  535MOL0     H72215   9.247  10.056   9.300 -1.7131 -0.6550  0.3783
  535MOL0     H72216   9.257   9.892   9.241 -0.2043  0.8140  2.2225
  535MOL0     H72217   9.428   9.980   9.384 -0.4596  0.3738  0.0012
  535MOL0     H72218   9.482  10.093   9.263  2.1804 -0.9273  0.8483
  535MOL0     H72219   9.510   9.881   9.106 -1.5044  0.5875  0.1246
  535MOL0     H72220   9.495   9.793   9.260 -1.4360  1.0533 -0.7144
  535MOL0     H72221   9.688   9.871   9.346  2.0194  0.8839  0.4231
  535MOL0     H72222   9.691  10.015   9.228  0.1770 -0.0720 -1.9029
  535MOL0     H72223   9.929   9.745   9.020 -1.7073 -4.9045  0.8766
  535MOL0     H72224   9.189  10.176   8.901  0.9777 -1.4898  1.1277
  535MOL0     H72225   8.958  10.256   8.850  1.7473  0.5231  0.5824
  536MOL0     O72226   8.231   4.261  10.868 -0.5547  0.7243 -0.0259
  536MOL0     C72227   8.284   4.335  10.953 -0.6191  0.1211  0.3836
  536MOL0     O72228   8.280   4.471  10.951 -0.0515 -0.4364  0.1083
  536MOL0     C72229   8.161   4.531  10.926  0.1581  0.2979 -0.2510
  536MOL0     C72230   8.040   4.488  10.981 -0.5860 -0.3923  0.1069
  536MOL0     C72231   7.921   4.544  10.948 -0.1498  0.7864  0.4444
  536MOL0     C72232   7.909   4.645  10.848 -0.7590  0.4640 -0.3829
  536MOL0     O72233   7.781   4.673  10.807  0.5245 -0.6596 -0.0532
  536MOL0     C72234   7.774   4.749  10.681 -0.0533  0.3515  0.6386
  536MOL0     C72235   7.627   4.756  10.642  0.4169  0.2808 -0.6102
  536MOL0     C72236   7.563   4.621  10.625 -0.2555  1.0017  0.5368
  536MOL0     C72237   7.424   4.636  10.556 -0.1729  0.5816  0.4461
  536MOL0     C72238   7.321   4.704  10.642  1.0953  0.9397  1.2972
  536MOL0     C72239   7.188   4.716  10.556  0.3111  0.0038  0.2240
  536MOL0     C72240   7.130   4.571  10.529  0.1228  0.3450  1.0990
  536MOL0     C72241   6.993   4.575  10.462 -0.7968 -0.2195  0.5177
  536MOL0     N72242   6.894   4.629  10.555 -0.2910  0.6334 -0.1518
  536MOL0     C72243   6.877   4.756  10.604  0.5128  0.2430 -0.2143
  536MOL0     C72244   6.764   4.748  10.687  0.2704 -0.2820  0.4337
  536MOL0     C72245   6.703   4.856  10.765  0.0950 -0.5873 -0.5332
  536MOL0     C72246   6.644   4.793  10.890  0.2803 -0.1755 -0.5707
  536MOL0     C72247   6.556   4.892  10.958  0.2869 -0.1976 -0.2430
  536MOL0     C72248   6.418   4.923  10.890 -0.6653 -0.6077 -0.3581
  536MOL0     O72249   6.374   5.048  10.936 -0.4278  0.4012  0.8919
  536MOL0     C72250   6.269   5.055  11.032 -0.3472  0.3115  0.5505
  536MOL0     C72251   6.224   5.179  11.077  1.6096 -0.6376  0.5707
  536MOL0     C72252   6.120   5.205  11.173  0.5589 -0.1969  0.9667
  536MOL0     C72253   6.078   5.346  11.203  0.0187  0.5068 -1.7436
  536MOL0     C72254   6.067   5.097  11.238  0.2465 -0.6074 -0.1031
  536MOL0     C72255   5.985   5.096  11.358 -0.1438  0.5123 -0.2219
  536MOL0     O72256   5.898   4.994  11.362  0.0557  0.0934  0.9027
  536MOL0     C72257   5.780   5.000  11.424  0.1639 -0.1343 -0.8267
  536MOL0     C72258   5.737   4.881  11.474  0.2129  0.4327 -0.2800
  536MOL0     C72259   5.627   4.864  11.561 -0.1984 -0.7407 -0.7920
  536MOL0     C72260   5.548   4.974  11.588  0.1683 -0.0513 -0.6754
  536MOL0     O72261   5.440   4.966  11.672 -0.3760 -0.0015 -0.3049
  536MOL0     C72262   5.381   4.839  11.684  0.2528  0.6316  0.3618
  536MOL0     C72263   5.237   4.833  11.745 -0.3711  0.2715  0.8505
  536MOL0     C72264   5.169   4.702  11.697  0.4573  0.1510 -0.1552
  536MOL0     C72265   5.230   4.578  11.776  0.1227  0.1338  0.8214
  536MOL0     C72266   5.132   4.465  11.792 -0.1923  0.4024  0.5909
  536MOL0     C72267   5.183   4.333  11.847  0.0600 -0.4365  0.3805
  536MOL0     C72268   5.085   4.265  11.936 -0.3504 -0.0983 -0.5260
  536MOL0     C72269   4.962   4.214  11.863 -0.0711 -0.3149 -0.8804
  536MOL0    Cl72270   5.005   4.110  11.730  0.5224 -0.0472 -0.0884
  536MOL0     C72271   5.589   5.102  11.535 -0.3142  0.0413  0.2747
  536MOL0     C72272   5.710   5.114  11.463  0.1787 -0.3317 -0.2288
  536MOL0     O72273   6.004   5.175  11.451  0.4264  0.7409 -0.4607
  536MOL0     C72274   6.102   4.971  11.197 -0.5498 -0.7855  0.7264
  536MOL0     C72275   6.203   4.951  11.099 -0.1268 -1.0545  0.2822
  536MOL0     N72276   6.709   4.624  10.670 -0.2103  0.4344  0.1903
  536MOL0     N72277   6.785   4.552  10.593  0.4333 -0.6545 -0.6419
  536MOL0     C72278   8.032   4.709  10.809  0.7178  0.5681  0.1268
  536MOL0     C72279   8.151   4.646  10.842 -0.1063  0.8241  0.1923
  536MOL0     C72280   8.376   4.284  11.058  0.0546  0.3738 -0.3300
  536MOL0     C72281   8.438   4.170  11.027  0.4904 -0.9236 -0.9404
  536MOL0     C72282   8.513   4.096  11.119 -0.2525 -0.6270  1.0679
  536MOL0     C72283   8.524   4.142  11.249  0.4767 -0.1898 -0.0616
  536MOL0     O72284   8.590   4.069  11.333 -0.8201 -0.1898 -0.6291
  536MOL0     C72285   8.719   4.124  11.356 -0.9987  0.3332 -0.4043
  536MOL0     C72286   8.775   4.069  11.484  0.8391  0.1753 -0.3021
  536MOL0     C72287   8.928   4.061  11.493  0.2306  0.1962 -0.1275
  536MOL0     C72288   8.975   4.033  11.638  0.5266  0.1581  0.0540
  536MOL0     C72289   9.120   4.010  11.624 -0.6495 -0.0115 -0.0992
  536MOL0     C72290   9.237   4.001  11.594  0.0338 -0.5889  0.8031
  536MOL0     C72291   8.465   4.267  11.285 -0.6344  0.0370 -0.2952
  536MOL0     C72292   8.388   4.339  11.190  0.7112 -0.1656 -0.4129
  536MOL0     H72293   8.050   4.414  11.060 -2.5779 -0.1602  0.6316
  536MOL0     H72294   7.829   4.499  10.985 -1.5822  3.3469  0.2368
  536MOL0     H72295   7.803   4.854  10.687 -1.1719  0.7377 -0.2670
  536MOL0     H72296   7.831   4.687  10.612 -0.1005  0.3996  0.5562
  536MOL0     H72297   7.572   4.813  10.717  2.4515  1.1330  0.3068
  536MOL0     H72298   7.610   4.810  10.549 -1.0572  0.9687  0.0244
  536MOL0     H72299   7.625   4.560  10.560 -2.4988 -0.1596 -0.6509
  536MOL0     H72300   7.559   4.571  10.722 -1.4131  2.0417  1.0570
  536MOL0     H72301   7.426   4.679  10.456 -2.8575 -1.6908 -0.7313
  536MOL0     H72302   7.375   4.538  10.548 -1.9174  1.3509  1.0686
  536MOL0     H72303   7.297   4.658  10.738  0.1439  0.5261  0.8811
  536MOL0     H72304   7.352   4.802  10.677  0.4025  0.6827  2.7377
  536MOL0     H72305   7.123   4.778  10.618  0.9764 -0.8780  1.8666
  536MOL0     H72306   7.195   4.771  10.461 -2.0093 -1.4722 -0.9102
  536MOL0     H72307   7.192   4.516  10.458 -3.6974  0.2158 -2.5553
  536MOL0     H72308   7.135   4.518  10.625  0.6911  1.1964  1.5548
  536MOL0     H72309   6.962   4.478  10.423  1.8439 -0.1653 -2.0402
  536MOL0     H72310   6.998   4.647  10.381 -3.2870  0.3132  0.7442
  536MOL0     H72311   6.921   4.851  10.578  1.0626  0.4735  1.4566
  536MOL0     H72312   6.763   4.943  10.794 -2.3483  1.0250  0.1001
  536MOL0     H72313   6.619   4.900  10.709 -0.0730  0.8820  0.7913
  536MOL0     H72314   6.724   4.765  10.960 -0.5964 -1.9547 -0.2175
  536MOL0     H72315   6.588   4.700  10.878 -0.5885  0.3372 -0.5557
  536MOL0     H72316   6.616   4.983  10.958  1.6974 -1.0876 -1.2889
  536MOL0     H72317   6.539   4.853  11.059 -0.8134  3.6253  1.2186
  536MOL0     H72318   6.337   4.852  10.905 -2.3965  1.7602  2.8727
  536MOL0     H72319   6.428   4.933  10.782 -1.0572  0.5278 -0.3071
  536MOL0     H72320   6.277   5.268  11.044  1.6846 -1.5836 -2.0896
  536MOL0     H72321   6.145   5.382  11.282  0.6751 -0.7303 -1.7181
  536MOL0     H72322   6.087   5.410  11.115  1.5528  1.8172 -0.6966
  536MOL0     H72323   5.979   5.349  11.249  1.3708 -1.0268  1.6173
  536MOL0     H72324   5.795   4.792  11.449  1.0020  1.5677 -2.7093
  536MOL0     H72325   5.601   4.762  11.586 -0.4023 -0.6465 -0.6098
  536MOL0     H72326   5.378   4.782  11.591 -2.6037 -0.4654  1.0049
  536MOL0     H72327   5.438   4.770  11.747 -0.3034 -0.9808 -0.8276
  536MOL0     H72328   5.247   4.858  11.851  1.1170  2.2548  0.2982
  536MOL0     H72329   5.198   4.924  11.698  2.6960  0.6733 -1.1902
  536MOL0     H72330   5.174   4.684  11.589 -1.4593  1.0581 -0.4324
  536MOL0     H72331   5.065   4.715  11.728  0.4959  0.1805 -0.0364
  536MOL0     H72332   5.312   4.538  11.715  0.0040  0.8868  0.1460
  536MOL0     H72333   5.267   4.618  11.871  0.5736  0.0606  0.6820
  536MOL0     H72334   5.081   4.444  11.698 -0.1670  0.1899  0.6230
  536MOL0     H72335   5.060   4.496  11.869 -0.2452 -2.1757  1.7159
  536MOL0     H72336   5.216   4.262  11.771 -2.0477 -1.5127  0.4188
  536MOL0     H72337   5.270   4.359  11.909  2.4744 -0.6464 -2.7161
  536MOL0     H72338   5.066   4.319  12.028  1.5841  0.7987 -0.6088
  536MOL0     H72339   5.125   4.174  11.982 -0.1740  1.3062  2.2496
  536MOL0     H72340   4.897   4.299  11.840  1.2747  0.8736 -0.4128
  536MOL0     H72341   4.907   4.151  11.934 -3.3267 -0.3783 -3.2525
  536MOL0     H72342   5.527   5.182  11.575 -1.8479 -0.6223 -0.6798
  536MOL0     H72343   5.747   5.211  11.433  1.3111 -0.3812  0.9253
  536MOL0     H72344   6.071   4.874  11.236 -2.8885 -0.7334 -0.7570
  536MOL0     H72345   6.221   4.848  11.071 -0.5776 -1.0661  0.0273
  536MOL0     H72346   8.041   4.796  10.744  1.5773 -1.3651 -2.4810
  536MOL0     H72347   8.234   4.694  10.791  0.8476  0.4300  1.3179
  536MOL0     H72348   8.427   4.145  10.922 -0.4241 -0.3912 -0.9847
  536MOL0     H72349   8.582   4.015  11.098  4.0870  2.7066  1.0412
  536MOL0     H72350   8.788   4.089  11.279 -0.8178  2.1957 -1.1614
  536MOL0     H72351   8.721   4.234  11.353  1.7130  0.3526 -0.7051
  536MOL0     H72352   8.733   3.971  11.507  3.6736 -1.1231 -0.3131
  536MOL0     H72353   8.740   4.140  11.560 -1.7495 -0.8549 -0.4420
  536MOL0     H72354   8.966   4.154  11.450  1.2596 -1.1194 -2.2651
  536MOL0     H72355   8.952   3.985  11.419 -0.9136 -0.5444  0.2444
  536MOL0     H72356   8.925   3.943  11.675 -3.0037  2.5644  1.7115
  536MOL0     H72357   8.938   4.119  11.695 -2.7592  0.4109 -2.2146
  536MOL0     H72358   9.340   4.014  11.570 -0.5948  0.8050 -1.4422
  536MOL0     H72359   8.478   4.311  11.383 -0.4809  0.5987 -0.5597
  536MOL0     H72360   8.332   4.431  11.205  0.1817  0.4351 -4.7768
  537MOL0     O72361   7.269   5.860   1.333 -0.4342  0.1731  0.5323
  537MOL0     C72362   7.205   5.882   1.434 -0.1226 -0.3134 -0.6130
  537MOL0     O72363   7.112   5.971   1.445 -0.0356  0.4291 -0.0053
  537MOL0     C72364   7.091   6.058   1.338 -0.3346 -0.3835 -0.1298
  537MOL0     C72365   7.017   6.023   1.216  0.1683 -0.2634  0.1045
  537MOL0     C72366   7.031   6.102   1.108 -0.0998 -0.2198 -0.0379
  537MOL0     C72367   7.104   6.221   1.113  0.4388  0.2033 -0.6769
  537MOL0     O72368   7.104   6.290   0.993  0.0931  0.3816  0.2097
  537MOL0     C72369   7.112   6.436   0.997  0.7509  0.1594  0.3739
  537MOL0     C72370   6.984   6.498   1.071  0.2588 -0.2348  1.1610
  537MOL0     C72371   6.984   6.660   1.059  0.3796  1.0762 -1.0664
  537MOL0     C72372   7.113   6.717   1.116  0.6764 -0.3256 -0.2750
  537MOL0     C72373   7.080   6.864   1.157  0.4910  0.6048 -0.2107
  537MOL0     C72374   7.067   6.953   1.047  0.1071  0.2157  0.6168
  537MOL0     C72375   7.078   7.100   1.079 -0.1076  0.5826  0.8871
  537MOL0     C72376   6.978   7.145   1.183 -0.2330  0.0990 -0.2878
  537MOL0     N72377   6.976   7.291   1.233 -0.1417 -0.3983  0.3247
  537MOL0     C72378   7.078   7.345   1.321  0.0197 -0.3981  0.4310
  537MOL0     C72379   7.024   7.467   1.354  0.4072  0.8143  0.0864
  537MOL0     C72380   7.094   7.566   1.449 -0.2846 -0.4190  0.2865
  537MOL0     C72381   7.248   7.532   1.461  0.8685  0.2845  0.2194
  537MOL0     C72382   7.337   7.639   1.518 -0.2135  0.0086 -0.2307
  537MOL0     C72383   7.300   7.669   1.668  0.2323  0.0791 -0.5492
  537MOL0     O72384   7.333   7.546   1.736  0.2730 -0.0019 -0.8299
  537MOL0     C72385   7.332   7.553   1.870  0.0448  0.7937  0.2038
  537MOL0     C72386   7.258   7.639   1.955  0.1017 -0.6957 -0.0142
  537MOL0     C72387   7.279   7.669   2.084  0.6357  0.2672  0.1314
  537MOL0     C72388   7.178   7.762   2.151 -0.6920  0.3259 -0.7916
  537MOL0     C72389   7.372   7.586   2.152 -0.1140 -0.0778 -0.0131
  537MOL0     C72390   7.406   7.595   2.299  0.4382 -0.2983  0.3598
  537MOL0     O72391   7.528   7.548   2.334 -0.1974  0.0921 -0.8402
  537MOL0     C72392   7.572   7.539   2.464  1.0837 -0.0299  0.1680
  537MOL0     C72393   7.664   7.437   2.498 -0.3368  0.2714 -0.3341
  537MOL0     C72394   7.715   7.424   2.625 -0.2027 -0.4039 -0.9506
  537MOL0     C72395   7.681   7.508   2.732 -0.1727 -0.3665  0.4033
  537MOL0     O72396   7.738   7.479   2.852  0.3326 -0.0109  0.8121
  537MOL0     C72397   7.658   7.523   2.966 -0.2779  0.5908  0.3231
  537MOL0     C72398   7.712   7.655   3.021 -0.3433  0.3901  0.2942
  537MOL0     C72399   7.636   7.699   3.155 -0.4287  0.6197  0.5837
  537MOL0     C72400   7.709   7.632   3.275 -0.0802 -0.4523 -0.3616
  537MOL0     C72401   7.667   7.670   3.413 -0.1930 -0.5849  0.1550
  537MOL0     C72402   7.526   7.631   3.437  0.3286 -0.4334  1.3852
  537MOL0     C72403   7.473   7.657   3.580 -0.8060 -0.0906 -0.5067
  537MOL0     C72404   7.510   7.799   3.629 -0.7246 -0.7292  0.0228
  537MOL0    Cl72405   7.450   7.798   3.797 -0.0247 -0.0512 -0.0259
  537MOL0     C72406   7.594   7.604   2.704  0.2213 -0.3775 -0.2296
  537MOL0     C72407   7.536   7.630   2.576 -0.0834  0.3532 -1.0862
  537MOL0     O72408   7.321   7.633   2.378  0.2283 -0.4506 -0.6846
  537MOL0     C72409   7.430   7.480   2.075  0.2115 -0.2653 -0.0323
  537MOL0     C72410   7.410   7.468   1.940 -0.4809  0.3461 -0.6258
  537MOL0     N72411   6.909   7.489   1.286 -0.6016 -0.3508  0.4819
  537MOL0     N72412   6.881   7.388   1.208 -0.2313  0.7417 -0.4522
  537MOL0     C72413   7.182   6.262   1.231  1.6004  0.4203 -0.2291
  537MOL0     C72414   7.178   6.166   1.338 -0.0149  0.0253 -0.1610
  537MOL0     C72415   7.238   5.809   1.555  0.8999  0.9068 -0.3350
  537MOL0     C72416   7.165   5.822   1.681 -0.2593 -0.0039  0.9326
  537MOL0     C72417   7.208   5.757   1.800  0.3428 -0.1902  0.6014
  537MOL0     C72418   7.320   5.673   1.796  0.0648  0.1773 -0.3296
  537MOL0     O72419   7.365   5.605   1.902 -0.6131 -0.2440 -0.4286
  537MOL0     C72420   7.277   5.592   2.017 -0.2722  0.0443 -1.1146
  537MOL0     C72421   7.345   5.527   2.131 -0.2014 -0.3478 -0.0680
  537MOL0     C72422   7.464   5.605   2.188 -0.2659 -0.4444  0.3219
  537MOL0     C72423   7.414   5.748   2.218 -0.3467 -0.5517 -0.2609
  537MOL0     C72424   7.513   5.826   2.302 -0.4058  1.5627  0.2608
  537MOL0     C72425   7.599   5.883   2.360 -0.0884  0.3946  0.5248
  537MOL0     C72426   7.390   5.665   1.681 -0.5368  0.6317  0.2616
  537MOL0     C72427   7.344   5.723   1.559  0.4167 -0.3342 -0.9046
  537MOL0     H72428   6.970   5.925   1.223  0.5762 -0.5013 -0.4666
  537MOL0     H72429   6.972   6.084   1.018 -1.5352 -0.2957  0.8772
  537MOL0     H72430   7.206   6.466   1.043  0.9248  0.6188 -0.2764
  537MOL0     H72431   7.112   6.471   0.894  0.7205 -2.8826 -0.7484
  537MOL0     H72432   6.889   6.465   1.028  2.2464 -3.3347 -1.3033
  537MOL0     H72433   6.987   6.466   1.175 -2.5785  0.0425  1.3993
  537MOL0     H72434   6.962   6.688   0.956  0.2840 -1.2162 -1.7200
  537MOL0     H72435   6.898   6.694   1.118 -1.0520 -4.3458  0.5102
  537MOL0     H72436   7.135   6.661   1.207  1.5561 -1.8450 -1.3723
  537MOL0     H72437   7.195   6.712   1.043  0.5906  0.0904 -0.3998
  537MOL0     H72438   6.985   6.872   1.211  0.1849  2.4126 -0.9540
  537MOL0     H72439   7.159   6.902   1.223  1.8446 -3.1917  0.5782
  537MOL0     H72440   7.146   6.926   0.977 -2.0489 -0.3069 -1.7652
  537MOL0     H72441   6.973   6.930   0.997 -1.0855 -0.8679  3.1498
  537MOL0     H72442   7.182   7.123   1.104  0.6543 -2.3326  0.6660
  537MOL0     H72443   7.050   7.153   0.987 -1.4146  2.5730  2.3268
  537MOL0     H72444   7.011   7.097   1.276  3.3197  2.4317 -0.1062
  537MOL0     H72445   6.881   7.110   1.149 -0.3204  0.1387 -0.0819
  537MOL0     H72446   7.159   7.289   1.368 -1.3365 -0.4022  2.9216
  537MOL0     H72447   7.077   7.670   1.421  1.5267  0.0648  0.8514
  537MOL0     H72448   7.044   7.559   1.546  0.1080  3.6048  0.9705
  537MOL0     H72449   7.296   7.508   1.366  4.0326  0.5509  1.6325
  537MOL0     H72450   7.253   7.441   1.521  0.9563  0.3893  0.3699
  537MOL0     H72451   7.322   7.733   1.465 -3.1648 -1.7327 -2.8364
  537MOL0     H72452   7.440   7.601   1.515 -0.3454 -0.5540  1.1634
  537MOL0     H72453   7.194   7.692   1.678  0.9304  3.2989  0.5127
  537MOL0     H72454   7.357   7.751   1.712 -1.8289  0.6023  1.3016
  537MOL0     H72455   7.182   7.704   1.914 -2.7157 -2.3737  2.1667
  537MOL0     H72456   7.097   7.708   2.201  0.5476 -1.2230 -0.4020
  537MOL0     H72457   7.228   7.823   2.227  1.8737  2.3367 -3.8357
  537MOL0     H72458   7.132   7.836   2.084  0.7352  1.5905 -0.4339
  537MOL0     H72459   7.701   7.368   2.422 -1.1329  1.0130 -1.4380
  537MOL0     H72460   7.788   7.346   2.646 -0.7094 -0.7138 -0.2589
  537MOL0     H72461   7.549   7.520   2.951 -0.7720 -0.0285  3.4606
  537MOL0     H72462   7.670   7.447   3.043 -1.6052  0.8406  0.8139
  537MOL0     H72463   7.818   7.633   3.039 -0.5982 -0.7359  0.4924
  537MOL0     H72464   7.705   7.735   2.947 -0.2335  0.6280  0.5407
  537MOL0     H72465   7.532   7.668   3.148  0.2332 -1.4637 -3.8355
  537MOL0     H72466   7.636   7.808   3.164 -2.6216  0.6554  0.6563
  537MOL0     H72467   7.691   7.524   3.271 -2.6870 -0.1160  0.4172
  537MOL0     H72468   7.816   7.649   3.258 -0.1641  1.7124  0.9697
  537MOL0     H72469   7.673   7.779   3.425 -2.1873 -0.5567  1.3521
  537MOL0     H72470   7.737   7.631   3.488  0.2850  1.2067  0.6988
  537MOL0     H72471   7.451   7.679   3.373 -0.4357 -2.5924  0.5520
  537MOL0     H72472   7.526   7.525   3.411 -2.3882 -0.3173  0.6166
  537MOL0     H72473   7.509   7.579   3.648 -2.9765 -0.6851  0.0610
  537MOL0     H72474   7.364   7.650   3.580 -1.1854  0.7477  5.3385
  537MOL0     H72475   7.474   7.882   3.567 -1.7557 -1.7972 -0.8677
  537MOL0     H72476   7.618   7.802   3.645 -1.1534 -0.9369  3.9561
  537MOL0     H72477   7.579   7.671   2.788  2.6168 -1.8033  1.4391
  537MOL0     H72478   7.475   7.719   2.561 -2.5443 -0.7579  1.4145
  537MOL0     H72479   7.489   7.411   2.134 -0.3315 -0.2102  0.5924
  537MOL0     H72480   7.454   7.389   1.881  0.8178 -0.3112  1.1180
  537MOL0     H72481   7.252   6.345   1.229  0.8003  1.3217  2.9695
  537MOL0     H72482   7.246   6.181   1.420 -1.2512  0.3057  0.8414
  537MOL0     H72483   7.085   5.895   1.679 -0.6568 -0.4157 -1.1826
  537MOL0     H72484   7.161   5.785   1.894  2.9229 -0.4134  2.0864
  537MOL0     H72485   7.239   5.686   2.059  0.4030 -1.3147  3.0672
  537MOL0     H72486   7.200   5.516   2.001 -1.1125  0.5234  0.3965
  537MOL0     H72487   7.381   5.427   2.107 -1.5063 -1.0000  0.6228
  537MOL0     H72488   7.277   5.509   2.215  2.4750 -1.7593  1.9303
  537MOL0     H72489   7.546   5.605   2.116 -2.2635 -0.6991 -2.1029
  537MOL0     H72490   7.498   5.558   2.281  1.2093  2.8039  1.5714
  537MOL0     H72491   7.312   5.740   2.258 -0.2687  1.2744  0.4055
  537MOL0     H72492   7.415   5.803   2.123 -0.4848 -1.1044 -0.5885
  537MOL0     H72493   7.693   5.916   2.400  1.6913 -1.9791 -1.3718
  537MOL0     H72494   7.474   5.596   1.686  0.3247  1.7163  1.9538
  537MOL0     H72495   7.386   5.696   1.463 -2.9336 -1.5124 -2.1618
  538MOL0     O72496   9.809   6.922   3.010  0.0741  0.8110  0.4048
  538MOL0     C72497   9.834   6.917   2.892 -0.4397 -0.2410  0.3128
  538MOL0     O72498   9.806   6.811   2.817  0.0578  0.0128  0.2262
  538MOL0     C72499   9.744   6.702   2.866  0.3126  0.2065  0.4016
  538MOL0     C72500   9.811   6.600   2.948 -0.2943 -0.9762  0.9960
  538MOL0     C72501   9.740   6.486   2.992 -0.5285 -0.4632  0.4541
  538MOL0     C72502   9.606   6.462   2.956  0.1653  0.1912 -0.0009
  538MOL0     O72503   9.532   6.347   2.999  0.0272 -0.3308  1.0182
  538MOL0     C72504   9.594   6.249   3.081  0.0257 -0.3861 -0.1502
  538MOL0     C72505   9.491   6.127   3.101 -0.0214 -0.6605 -0.6034
  538MOL0     C72506   9.476   6.049   2.965 -0.2860 -0.2541 -0.1960
  538MOL0     C72507   9.399   5.922   2.988 -0.6258 -0.2959  0.7706
  538MOL0     C72508   9.394   5.839   2.858 -0.6344 -0.4367 -0.5827
  538MOL0     C72509   9.265   5.771   2.837 -1.0422  0.2859 -0.3180
  538MOL0     C72510   9.255   5.647   2.941  0.4490 -0.4025  0.0648
  538MOL0     C72511   9.291   5.511   2.880  0.5984 -0.3434 -0.1137
  538MOL0     N72512   9.435   5.483   2.875  0.0496 -0.5512 -0.6848
  538MOL0     C72513   9.518   5.499   2.769  0.0160 -0.2493  0.5625
  538MOL0     C72514   9.645   5.481   2.818 -0.1630  0.3612  0.3870
  538MOL0     C72515   9.788   5.498   2.758 -0.9622  0.3025 -0.8063
  538MOL0     C72516   9.825   5.637   2.695 -0.2217  0.8340 -0.3555
  538MOL0     C72517   9.760   5.759   2.755  0.3336 -0.6171 -0.0766
  538MOL0     C72518   9.797   5.791   2.901 -0.5104  1.0767 -0.3414
  538MOL0     O72519   9.939   5.759   2.929  0.7174 -0.1369  0.4637
  538MOL0     C72520   9.960   5.738   3.063 -0.5122 -0.3089  0.4469
  538MOL0     C72521   9.910   5.817   3.162 -0.0673 -0.2551  0.6103
  538MOL0     C72522   9.959   5.804   3.287 -0.1493 -0.8796 -0.6382
  538MOL0     C72523   9.930   5.916   3.384  0.0355 -0.4378 -0.5998
  538MOL0     C72524  10.031   5.686   3.323 -0.6542 -0.1565  0.6762
  538MOL0     C72525  10.078   5.658   3.460 -0.2362  1.0396  0.5732
  538MOL0     O72526  10.175   5.554   3.477  0.5208 -0.3305  1.0897
  538MOL0     C72527  10.230   5.543   3.601 -1.1486  0.5120 -0.1342
  538MOL0     C72528  10.250   5.412   3.659  0.3780  1.5399 -0.7005
  538MOL0     C72529  10.299   5.388   3.792  0.1091  0.3286  0.5118
  538MOL0     C72530  10.328   5.500   3.871  0.3529  0.2864 -0.0274
  538MOL0     O72531  10.363   5.470   3.997 -0.5168  0.4051  0.0819
  538MOL0     C72532  10.422   5.579   4.062 -0.4018 -0.1631 -0.8757
  538MOL0     C72533  10.464   5.538   4.209  0.3557 -0.5213  0.0361
  538MOL0     C72534  10.542   5.406   4.216  1.1204 -0.8130 -0.2211
  538MOL0     C72535  10.615   5.390   4.351  0.1305 -0.1369 -0.1101
  538MOL0     C72536  10.688   5.246   4.345  0.5101  0.2010 -0.0475
  538MOL0     C72537  10.782   5.229   4.472  0.6477  0.0592  0.2033
  538MOL0     C72538  10.856   5.102   4.469  0.4067  0.9450 -0.1942
  538MOL0     C72539  10.938   5.089   4.602  0.5906  0.6913  0.5817
  538MOL0    Cl72540  10.818   5.053   4.727  0.1458 -0.2698 -0.0691
  538MOL0     C72541  10.317   5.632   3.809 -0.1649 -0.0265 -0.4392
  538MOL0     C72542  10.277   5.650   3.679  0.2245  0.0271 -0.6396
  538MOL0     O72543  10.012   5.704   3.551 -0.3681 -0.1176 -0.2462
  538MOL0     C72544  10.047   5.590   3.225 -0.0873  0.0902 -0.5919
  538MOL0     C72545  10.017   5.616   3.095 -0.7162 -0.1055  0.2906
  538MOL0     N72546   9.635   5.434   2.949 -0.1757 -0.0924 -0.1855
  538MOL0     N72547   9.505   5.434   2.977 -0.1924  0.7737  0.3283
  538MOL0     C72548   9.540   6.555   2.881 -0.8166  0.4043  0.3697
  538MOL0     C72549   9.605   6.674   2.836  0.7483 -1.0241 -1.0356
  538MOL0     C72550   9.882   7.036   2.830  0.1949  0.4528  0.3501
  538MOL0     C72551   9.841   7.070   2.700 -0.1361 -0.1129  0.1200
  538MOL0     C72552   9.900   7.182   2.638  0.0905 -0.6511  0.0411
  538MOL0     C72553   9.984   7.266   2.704  0.5374 -0.6207 -0.6478
  538MOL0     O72554  10.024   7.378   2.643  0.0463  0.2294  0.2910
  538MOL0     C72555  10.162   7.419   2.664  0.3478 -1.0156  0.6784
  538MOL0     C72556  10.161   7.573   2.671  0.2419  0.1433 -0.4856
  538MOL0     C72557  10.107   7.638   2.541  0.3584  1.1693 -0.8578
  538MOL0     C72558  10.082   7.787   2.557  0.1601  0.3597 -0.3116
  538MOL0     C72559  10.190   7.877   2.609  0.6804 -0.7025 -0.2821
  538MOL0     C72560  10.283   7.956   2.634  0.4942  0.7574  0.2355
  538MOL0     C72561  10.003   7.241   2.847 -1.1568 -0.1324  0.0426
  538MOL0     C72562   9.952   7.133   2.898 -0.3803  0.0812  0.4216
  538MOL0     H72563   9.908   6.622   2.990 -1.0935 -0.2358  2.5532
  538MOL0     H72564   9.791   6.418   3.060 -3.3875 -3.4403 -0.0953
  538MOL0     H72565   9.690   6.216   3.041  0.7919  2.7948 -1.2419
  538MOL0     H72566   9.623   6.289   3.178  0.7055  0.9854 -0.8932
  538MOL0     H72567   9.522   6.061   3.183  0.5982  3.1388  2.5309
  538MOL0     H72568   9.397   6.166   3.142  1.4597 -1.0167  3.6307
  538MOL0     H72569   9.424   6.112   2.893 -3.2600 -0.2553  1.7885
  538MOL0     H72570   9.575   6.023   2.927  0.0760 -1.3272  1.3410
  538MOL0     H72571   9.434   5.865   3.075 -0.3412  3.2533  3.2094
  538MOL0     H72572   9.300   5.952   3.021 -0.9490 -2.7221  2.2328
  538MOL0     H72573   9.401   5.903   2.770 -2.4609  1.3781  0.5191
  538MOL0     H72574   9.486   5.780   2.862  0.1726  0.8091  3.0067
  538MOL0     H72575   9.180   5.833   2.865 -0.2421  0.0197  3.1911
  538MOL0     H72576   9.262   5.739   2.733  1.0054 -0.9993 -0.0480
  538MOL0     H72577   9.308   5.670   3.033  0.9284 -0.3754 -0.2135
  538MOL0     H72578   9.151   5.630   2.970 -0.2707 -0.3407 -2.2238
  538MOL0     H72579   9.256   5.508   2.777  2.6906  1.1753 -0.9461
  538MOL0     H72580   9.237   5.432   2.933  0.3006 -1.2851 -1.7478
  538MOL0     H72581   9.491   5.528   2.668 -1.4418  0.9419  1.2561
  538MOL0     H72582   9.856   5.482   2.843 -2.7745  1.1586  0.8715
  538MOL0     H72583   9.799   5.421   2.680 -0.4353  0.0615 -0.5056
  538MOL0     H72584   9.793   5.637   2.591  0.5018  1.1211 -0.5829
  538MOL0     H72585   9.932   5.657   2.695 -0.2034  1.3010  2.7579
  538MOL0     H72586   9.650   5.754   2.750  0.0390  0.3914  3.1495
  538MOL0     H72587   9.786   5.841   2.687 -1.2684  0.5852  0.6645
  538MOL0     H72588   9.739   5.729   2.969 -0.3348 -0.1009 -1.2384
  538MOL0     H72589   9.775   5.897   2.920  2.1419  1.3601  1.7609
  538MOL0     H72590   9.844   5.901   3.138 -0.6077 -0.7822  0.2042
  538MOL0     H72591   9.841   5.885   3.439  0.0926 -1.0706 -0.8491
  538MOL0     H72592  10.010   5.930   3.457 -0.0072  0.6893 -0.7454
  538MOL0     H72593   9.915   6.009   3.329  3.3350  0.2686 -0.5577
  538MOL0     H72594  10.214   5.334   3.593 -0.3447  1.3323 -0.0696
  538MOL0     H72595  10.301   5.289   3.837  0.3628  0.1171  0.0505
  538MOL0     H72596  10.514   5.603   4.008 -0.2969  1.0766 -0.1897
  538MOL0     H72597  10.359   5.668   4.066  0.5229  0.5884 -2.1233
  538MOL0     H72598  10.524   5.623   4.244 -3.3379  1.3167  2.4883
  538MOL0     H72599  10.373   5.539   4.269 -0.4981  1.6605 -1.1856
  538MOL0     H72600  10.604   5.389   4.127  1.5687  0.9766 -0.2828
  538MOL0     H72601  10.471   5.323   4.224  1.5647 -1.0793  1.2012
  538MOL0     H72602  10.680   5.476   4.369 -1.5478  0.5470  3.6946
  538MOL0     H72603  10.540   5.383   4.430 -0.0346  0.3241 -0.2198
  538MOL0     H72604  10.758   5.250   4.261  1.2029  0.7879  0.5367
  538MOL0     H72605  10.621   5.160   4.338  2.2566 -1.2991  0.6286
  538MOL0     H72606  10.847   5.315   4.489  0.1579  0.4705  0.0003
  538MOL0     H72607  10.722   5.235   4.563  0.0798  2.5501 -0.2675
  538MOL0     H72608  10.922   5.104   4.381 -0.4674  1.5043 -0.8644
  538MOL0     H72609  10.775   5.031   4.450 -0.2384  1.3834  0.8675
  538MOL0     H72610  10.990   5.183   4.623  1.1723 -0.1770  3.4154
  538MOL0     H72611  11.015   5.012   4.598 -0.0382  0.1130 -1.3026
  538MOL0     H72612  10.344   5.723   3.861 -0.8223  0.1138 -0.3242
  538MOL0     H72613  10.277   5.748   3.633  3.8076  0.2120 -0.5169
  538MOL0     H72614  10.103   5.501   3.252  1.6352  0.3564 -2.9555
  538MOL0     H72615  10.035   5.546   3.014 -1.1144  2.3609 -2.0783
  538MOL0     H72616   9.434   6.541   2.861 -1.0481  0.1830  1.6679
  538MOL0     H72617   9.538   6.746   2.791 -0.8018 -0.1804  2.2925
  538MOL0     H72618   9.771   7.007   2.647 -0.3814  0.1930  0.0747
  538MOL0     H72619   9.884   7.186   2.531 -0.0968 -1.0765  0.0512
  538MOL0     H72620  10.210   7.382   2.755  0.1990 -2.2895  0.2596
  538MOL0     H72621  10.219   7.388   2.575  3.7865 -1.5347  2.9004
  538MOL0     H72622  10.261   7.608   2.699  0.1160 -1.0162  1.6189
  538MOL0     H72623  10.092   7.601   2.751 -2.1460 -0.6546 -2.1677
  538MOL0     H72624  10.013   7.595   2.507  0.0283  0.2080  1.1159
  538MOL0     H72625  10.183   7.623   2.464 -1.4200  1.9270 -2.8275
  538MOL0     H72626   9.995   7.807   2.621  1.2031  1.5504  0.7916
  538MOL0     H72627  10.041   7.821   2.462  3.4127 -2.9738 -3.2095
  538MOL0     H72628  10.361   8.028   2.647  1.9422  0.0058 -3.2564
  538MOL0     H72629  10.050   7.313   2.914  1.5768 -0.8564 -0.9568
  538MOL0     H72630   9.956   7.119   3.005 -1.1198  3.1805  0.9547
  539MOL0     O72631   2.435   9.990   7.542  0.3662  0.2961 -0.8340
  539MOL0     C72632   2.425  10.083   7.459  0.5818 -1.2129 -0.3507
  539MOL0     O72633   2.486  10.104   7.343  0.2420 -0.0253  0.7110
  539MOL0     C72634   2.597  10.026   7.306 -0.3421 -0.5336 -0.2948
  539MOL0     C72635   2.714  10.010   7.386 -0.8101  0.2364  0.1522
  539MOL0     C72636   2.823   9.932   7.344  0.1846 -0.0705 -1.0383
  539MOL0     C72637   2.811   9.858   7.225  0.5230  0.2325 -0.3112
  539MOL0     O72638   2.910   9.771   7.171  0.8569  0.4571 -0.0005
  539MOL0     C72639   3.000   9.710   7.258 -0.2527 -0.0001 -0.1071
  539MOL0     C72640   3.119   9.647   7.189  0.2463  0.9400  0.6256
  539MOL0     C72641   3.213   9.732   7.111 -0.7974 -1.6766 -0.9244
  539MOL0     C72642   3.294   9.834   7.210 -0.6869  0.6128  0.1265
  539MOL0     C72643   3.343   9.950   7.121 -0.4612  0.2497  0.1506
  539MOL0     C72644   3.427  10.031   7.224 -1.0656  0.2783  1.2140
  539MOL0     C72645   3.470  10.158   7.148  1.0437  0.0022 -0.2526
  539MOL0     C72646   3.625  10.170   7.126  0.0824  0.0966  0.8615
  539MOL0     N72647   3.668  10.288   7.058 -0.3714  0.1809 -0.7217
  539MOL0     C72648   3.626  10.415   7.100 -0.2687  0.3830  0.0882
  539MOL0     C72649   3.677  10.491   6.995  0.2329  0.3052 -0.2177
  539MOL0     C72650   3.657  10.646   6.994  0.1831  0.2504 -0.9117
  539MOL0     C72651   3.790  10.717   7.041  0.8519  0.1729  0.2612
  539MOL0     C72652   3.795  10.870   7.016  1.0164  0.8162  0.7104
  539MOL0     C72653   3.931  10.916   7.065 -0.0236 -0.3404 -0.3041
  539MOL0     O72654   4.038  10.847   7.019 -0.5861  0.1190 -0.0141
  539MOL0     C72655   4.161  10.863   7.069 -0.3491 -0.2714  0.0213
  539MOL0     C72656   4.195  10.957   7.167 -0.8362  0.4770  0.3024
  539MOL0     C72657   4.329  10.968   7.217 -0.2608  0.2839  0.0015
  539MOL0     C72658   4.362  11.081   7.303  0.8546  0.0261 -0.9205
  539MOL0     C72659   4.422  10.876   7.183 -0.3585  0.4855 -0.2563
  539MOL0     C72660   4.562  10.867   7.238 -0.2147 -0.4738  0.3365
  539MOL0     O72661   4.617  10.983   7.287  0.4415 -0.2854  0.6487
  539MOL0     C72662   4.716  11.006   7.374 -0.4001  0.4348 -0.4494
  539MOL0     C72663   4.761  11.133   7.403 -0.7566 -0.1560  0.1131
  539MOL0     C72664   4.863  11.167   7.488 -0.1111  0.6509 -0.2337
  539MOL0     C72665   4.921  11.064   7.562 -0.4676 -0.5216 -0.2241
  539MOL0     O72666   5.024  11.112   7.647 -0.2868  0.3793  0.1732
  539MOL0     C72667   5.104  11.006   7.689  0.6023 -1.4307 -1.4597
  539MOL0     C72668   5.185  10.972   7.564 -0.5207  0.9221  0.6674
  539MOL0     C72669   5.320  10.894   7.591 -0.0411  0.4754 -0.3589
  539MOL0     C72670   5.448  10.974   7.632  0.2203 -0.5502 -0.3566
  539MOL0     C72671   5.558  10.891   7.688  0.5156  0.6770 -0.4156
  539MOL0     C72672   5.606  10.778   7.598 -0.6207  0.2094 -0.1847
  539MOL0     C72673   5.661  10.662   7.682 -0.5983  0.4328  0.5841
  539MOL0     C72674   5.729  10.564   7.584 -0.4643  0.5839 -0.1329
  539MOL0    Cl72675   5.863  10.468   7.658  0.3842  0.4425 -0.0736
  539MOL0     C72676   4.873  10.929   7.547  0.1025  0.6434  0.4015
  539MOL0     C72677   4.779  10.901   7.446 -0.3508  0.5495  0.7435
  539MOL0     O72678   4.619  10.757   7.238  0.2089  0.5752 -0.0833
  539MOL0     C72679   4.390  10.778   7.088  0.8537  0.2791 -0.1418
  539MOL0     C72680   4.256  10.774   7.030  0.4712 -0.9753 -0.1951
  539MOL0     N72681   3.752  10.413   6.906 -0.2874  0.1673  0.1186
  539MOL0     N72682   3.734  10.290   6.939 -0.0992 -0.2742 -0.9127
  539MOL0     C72683   2.695   9.869   7.138  0.7211 -0.0065 -0.3356
  539MOL0     C72684   2.588   9.956   7.183 -0.0242  0.3535 -0.1590
  539MOL0     C72685   2.349  10.198   7.515 -0.2364  0.3604  0.8023
  539MOL0     C72686   2.275  10.196   7.637 -0.3993 -0.4510 -0.2390
  539MOL0     C72687   2.200  10.311   7.672  0.6997  0.5844  0.0710
  539MOL0     C72688   2.198  10.416   7.588 -0.4050 -0.2135  0.5860
  539MOL0     O72689   2.118  10.520   7.637 -0.0294 -0.1826  0.0126
  539MOL0     C72690   2.082  10.624   7.553  0.0146  0.4347  0.0578
  539MOL0     C72691   1.986  10.728   7.601  0.3849 -0.0315  0.3697
  539MOL0     C72692   1.940  10.842   7.500  0.6842 -0.2079  0.0630
  539MOL0     C72693   2.047  10.922   7.436 -0.5018 -1.1029 -1.1845
  539MOL0     C72694   2.081  10.864   7.307  0.2082 -0.2875 -1.0903
  539MOL0     C72695   2.110  10.816   7.202  0.0255 -0.7243  0.1122
  539MOL0     C72696   2.282  10.425   7.480  0.5600 -0.1325  0.1411
  539MOL0     C72697   2.351  10.316   7.437 -0.4567  0.4825 -0.6548
  539MOL0     H72698   2.724  10.046   7.488  2.2109  0.6299 -0.1865
  539MOL0     H72699   2.917   9.935   7.397 -0.1223 -3.1230 -0.1230
  539MOL0     H72700   3.030   9.775   7.341 -2.0074  0.0372  0.5582
  539MOL0     H72701   2.942   9.629   7.303  0.5885  0.4058  1.8057
  539MOL0     H72702   3.169   9.577   7.257 -0.9876 -2.0397 -1.3020
  539MOL0     H72703   3.062   9.583   7.120 -3.2596  0.3852  3.7079
  539MOL0     H72704   3.293   9.670   7.068  1.6100  1.7799 -1.8304
  539MOL0     H72705   3.167   9.794   7.034 -0.4885  0.8096  0.7634
  539MOL0     H72706   3.225   9.869   7.287  0.7681  0.7327  1.4298
  539MOL0     H72707   3.383   9.790   7.257 -0.3115 -1.4564 -2.3066
  539MOL0     H72708   3.413   9.922   7.041 -0.2503  3.1696 -0.7970
  539MOL0     H72709   3.258  10.008   7.085 -2.0347 -3.2714 -2.4196
  539MOL0     H72710   3.363  10.058   7.308 -2.6610  1.3655 -0.2833
  539MOL0     H72711   3.509   9.968   7.261  0.4968 -0.3243 -2.7920
  539MOL0     H72712   3.419  10.163   7.052 -1.5818 -0.8728  1.0156
  539MOL0     H72713   3.414  10.245   7.183 -1.0645 -1.0920 -0.7259
  539MOL0     H72714   3.649  10.081   7.068 -0.6883 -0.5596  1.5240
  539MOL0     H72715   3.686  10.157   7.216 -1.3169  0.3992  1.8815
  539MOL0     H72716   3.564  10.455   7.180 -0.2846  2.4183 -0.8863
  539MOL0     H72717   3.612  10.677   6.900 -1.4838 -4.0271 -1.7682
  539MOL0     H72718   3.589  10.665   7.078  0.5795 -1.3724 -0.1706
  539MOL0     H72719   3.857  10.678   6.964  0.1197 -0.3589 -0.1296
  539MOL0     H72720   3.831  10.694   7.139  5.6046  0.7018 -1.3550
  539MOL0     H72721   3.713  10.914   7.073 -0.0856  1.3904 -1.2464
  539MOL0     H72722   3.788  10.908   6.914  1.0671 -0.8857  0.0355
  539MOL0     H72723   3.930  10.923   7.174 -2.8493 -0.0911 -0.2695
  539MOL0     H72724   3.947  11.021   7.039 -1.8888  0.3080  0.9569
  539MOL0     H72725   4.120  11.028   7.201 -1.1863  0.4605 -0.4038
  539MOL0     H72726   4.411  11.156   7.240  4.1736 -2.5630 -1.7271
  539MOL0     H72727   4.269  11.123   7.342  1.5498 -0.8743  1.9737
  539MOL0     H72728   4.421  11.050   7.390 -1.2770  2.6295  1.6289
  539MOL0     H72729   4.722  11.221   7.353 -0.7988  0.3236  0.9732
  539MOL0     H72730   4.902  11.267   7.500 -1.1523  1.0376  0.0576
  539MOL0     H72731   5.165  11.056   7.764 -2.5604  0.0478  0.3154
  539MOL0     H72732   5.063  10.921   7.743  0.8272 -0.9559 -0.5192
  539MOL0     H72733   5.128  10.915   7.490  1.6570  1.7127 -1.8126
  539MOL0     H72734   5.228  11.057   7.510  3.7933 -1.5597 -0.3530
  539MOL0     H72735   5.359  10.866   7.493  0.9978  1.7709 -0.3517
  539MOL0     H72736   5.312  10.802   7.649  1.8728 -0.1581 -1.0022
  539MOL0     H72737   5.491  11.019   7.541  2.9271 -0.9033  0.6665
  539MOL0     H72738   5.424  11.054   7.703 -2.5509 -2.1019  0.5743
  539MOL0     H72739   5.505  10.844   7.771 -3.4890  1.5406 -2.2668
  539MOL0     H72740   5.643  10.954   7.717  0.2348  1.4127 -1.1489
  539MOL0     H72741   5.523  10.738   7.538 -0.8623 -1.8688  1.4258
  539MOL0     H72742   5.681  10.820   7.530  2.1367 -0.1352  2.4398
  539MOL0     H72743   5.586  10.610   7.742 -1.4103  0.5426 -0.2993
  539MOL0     H72744   5.741  10.697   7.747  3.8572  1.3896 -4.6311
  539MOL0     H72745   5.764  10.631   7.505 -0.6606  0.5480 -0.2516
  539MOL0     H72746   5.660  10.494   7.536  0.7074  0.3903 -1.5938
  539MOL0     H72747   4.903  10.846   7.611 -0.7070 -1.1209 -1.4093
  539MOL0     H72748   4.745  10.801   7.421 -1.0037  0.9490  0.0054
  539MOL0     H72749   4.454  10.697   7.054  1.0576  0.1425  0.5488
  539MOL0     H72750   4.223  10.694   6.965  1.8244  0.6840 -3.0865
  539MOL0     H72751   2.665   9.814   7.050 -1.0378 -1.5782  1.1823
  539MOL0     H72752   2.493   9.977   7.135 -0.1019  3.9280  1.2408
  539MOL0     H72753   2.268  10.105   7.696 -1.2809  0.5114  1.1900
  539MOL0     H72754   2.138  10.300   7.760  0.2757  0.5383 -0.2309
  539MOL0     H72755   2.177  10.668   7.523 -0.5355  1.1189 -0.7268
  539MOL0     H72756   2.035  10.585   7.462 -1.5422  0.2942  0.8843
  539MOL0     H72757   2.043  10.771   7.684  2.6588 -0.0537 -1.0876
  539MOL0     H72758   1.894  10.693   7.648 -0.4717  2.5392  0.7565
  539MOL0     H72759   1.879  10.906   7.564  0.5894  0.5281 -0.7501
  539MOL0     H72760   1.867  10.806   7.428 -0.5182  1.1678  0.5653
  539MOL0     H72761   2.138  10.921   7.495  0.1993 -2.8020 -2.2326
  539MOL0     H72762   2.029  11.029   7.417 -1.4112 -0.6462  1.7300
  539MOL0     H72763   2.129  10.789   7.101  0.7699  3.9443 -1.2508
  539MOL0     H72764   2.274  10.518   7.425  0.0354 -1.0241 -1.3720
  539MOL0     H72765   2.406  10.323   7.343  0.4385  2.4593 -0.0263
  540MOL0     O72766   3.907   4.766   4.483  0.3976  0.1445 -0.2248
  540MOL0     C72767   3.915   4.845   4.394  0.2545 -0.2177  0.4521
  540MOL0     O72768   3.858   4.965   4.395 -0.4228 -0.2401  0.4606
  540MOL0     C72769   3.758   5.001   4.481 -0.2743 -0.0626 -0.6880
  540MOL0     C72770   3.768   5.128   4.538  0.1932 -0.7296  0.8152
  540MOL0     C72771   3.681   5.174   4.639  1.1362 -0.5240 -0.6486
  540MOL0     C72772   3.582   5.088   4.686  0.7981 -0.0266 -0.6535
  540MOL0     O72773   3.487   5.109   4.783 -0.0868  0.2838 -0.1163
  540MOL0     C72774   3.510   5.237   4.855 -1.6034 -0.2643 -0.1275
  540MOL0     C72775   3.618   5.208   4.961 -0.8203  0.0754  0.7840
  540MOL0     C72776   3.562   5.132   5.082 -0.1467  0.7501  0.4051
  540MOL0     C72777   3.665   5.136   5.196  0.5381 -0.0162 -0.0577
  540MOL0     C72778   3.660   5.009   5.285  0.8876 -0.0648  0.0077
  540MOL0     C72779   3.510   4.987   5.331  0.6668 -1.3977  0.3356
  540MOL0     C72780   3.517   4.879   5.436 -0.5062 -0.8783  0.6889
  540MOL0     C72781   3.390   4.784   5.438  0.2082  0.5551  0.7978
  540MOL0     N72782   3.271   4.865   5.479 -0.6301  0.4584  0.1145
  540MOL0     C72783   3.262   4.889   5.616  0.0748  0.8411  0.4296
  540MOL0     C72784   3.221   5.017   5.619  0.3786  0.7241 -1.1339
  540MOL0     C72785   3.205   5.089   5.743  0.1583 -0.4889 -0.1596
  540MOL0     C72786   3.090   5.035   5.831  0.0968 -0.0888  0.5010
  540MOL0     C72787   2.952   4.999   5.767 -0.1045 -0.7496  0.0284
  540MOL0     C72788   2.889   5.134   5.729 -0.7166 -0.6358 -0.4910
  540MOL0     O72789   2.821   5.181   5.844 -0.3598 -0.7717  0.1918
  540MOL0     C72790   2.704   5.125   5.870 -0.2539  0.7372  0.7480
  540MOL0     C72791   2.659   5.136   6.001 -0.4758 -0.0479  0.1246
  540MOL0     C72792   2.539   5.075   6.032  0.0449 -0.3504  0.5138
  540MOL0     C72793   2.489   5.079   6.174 -0.5287 -0.1053  0.1432
  540MOL0     C72794   2.458   5.006   5.937 -0.1131  1.0665  1.0481
  540MOL0     C72795   2.333   4.936   5.955  0.8386 -0.5400 -0.3129
  540MOL0     O72796   2.293   4.839   5.871 -0.0398 -0.5097 -0.7916
  540MOL0     C72797   2.157   4.801   5.876 -0.8785  0.7842  0.8336
  540MOL0     C72798   2.045   4.878   5.843 -0.0987  0.1448 -0.6731
  540MOL0     C72799   1.915   4.839   5.843  0.1214 -0.1117 -0.9016
  540MOL0     C72800   1.891   4.712   5.892 -0.2148 -0.1667  0.4351
  540MOL0     O72801   1.758   4.672   5.872 -0.5695 -0.0601  0.2555
  540MOL0     C72802   1.728   4.531   5.859 -0.8244 -0.5805 -0.2737
  540MOL0     C72803   1.575   4.525   5.856  0.3535  0.4938 -0.5203
  540MOL0     C72804   1.509   4.589   5.735  0.0135  0.0244 -0.2892
  540MOL0     C72805   1.357   4.595   5.759  0.0868 -0.7923 -0.0020
  540MOL0     C72806   1.275   4.583   5.628  0.0354  0.4271  0.2274
  540MOL0     C72807   1.279   4.691   5.533  0.2116 -0.4434 -0.3317
  540MOL0     C72808   1.213   4.649   5.402 -0.0574 -1.1283 -0.6840
  540MOL0     C72809   1.077   4.721   5.395  0.7516  0.0166 -0.1555
  540MOL0    Cl72810   0.994   4.659   5.245 -0.1227 -0.1382 -0.2410
  540MOL0     C72811   1.999   4.629   5.919 -0.3722  0.1343 -0.0143
  540MOL0     C72812   2.128   4.675   5.921 -0.3922 -0.2863  0.2580
  540MOL0     O72813   2.265   4.973   6.050 -0.0423  0.6420 -0.2167
  540MOL0     C72814   2.520   4.985   5.811 -0.5418 -0.0739  0.6770
  540MOL0     C72815   2.641   5.040   5.777 -0.0101  0.3964  0.7640
  540MOL0     N72816   3.177   5.060   5.495 -0.8295 -0.2652  0.6204
  540MOL0     N72817   3.213   4.971   5.407  0.2659  0.4286 -0.1230
  540MOL0     C72818   3.560   4.963   4.624 -0.8293  0.7489 -0.2099
  540MOL0     C72819   3.649   4.926   4.523 -0.3479  0.1934 -0.2056
  540MOL0     C72820   4.009   4.812   4.282 -0.3158  0.0260 -0.2094
  540MOL0     C72821   4.078   4.686   4.269 -0.6040  1.0067 -0.4605
  540MOL0     C72822   4.169   4.659   4.172 -0.3507 -0.0318  0.6860
  540MOL0     C72823   4.184   4.762   4.079  0.3258  0.2216 -0.3957
  540MOL0     O72824   4.270   4.740   3.980 -0.7464 -0.8450  0.0269
  540MOL0     C72825   4.229   4.761   3.842  0.3830 -0.4965 -0.0857
  540MOL0     C72826   4.316   4.883   3.794  0.3195  0.2144  0.3007
  540MOL0     C72827   4.473   4.864   3.794  1.1759  0.2924 -0.3586
  540MOL0     C72828   4.538   5.004   3.788 -0.4033 -0.0138 -0.0696
  540MOL0     C72829   4.539   5.068   3.665  0.0656  1.3204  0.0118
  540MOL0     C72830   4.515   5.097   3.552  0.4813  0.1154 -0.1441
  540MOL0     C72831   4.108   4.874   4.077  1.2547 -0.2009 -0.4802
  540MOL0     C72832   4.026   4.904   4.180  0.7007  0.3594 -0.8324
  540MOL0     H72833   3.843   5.193   4.494  1.7521 -1.5686  2.1314
  540MOL0     H72834   3.693   5.270   4.689  2.5639 -1.3399  0.6529
  540MOL0     H72835   3.526   5.327   4.795 -0.9577  0.3433  0.9347
  540MOL0     H72836   3.418   5.272   4.901 -1.2363 -2.2884  2.4091
  540MOL0     H72837   3.700   5.152   4.915 -0.8908  0.8202 -0.3059
  540MOL0     H72838   3.669   5.299   4.995  0.8353  1.0236 -3.5282
  540MOL0     H72839   3.473   5.170   5.134 -1.4384  0.0639 -1.2118
  540MOL0     H72840   3.538   5.028   5.056 -2.0098  0.6783  2.0733
  540MOL0     H72841   3.768   5.155   5.165  1.3391  1.0812  2.9530
  540MOL0     H72842   3.630   5.216   5.262  0.4254 -0.5458  0.5350
  540MOL0     H72843   3.707   4.922   5.238  0.1919 -0.8193  0.6725
  540MOL0     H72844   3.718   5.023   5.377  1.1350 -0.6835 -0.0544
  540MOL0     H72845   3.476   5.080   5.377 -0.5849 -2.4782  1.7027
  540MOL0     H72846   3.452   4.966   5.241 -0.4047 -0.7223  0.8519
  540MOL0     H72847   3.605   4.816   5.424 -0.2945 -1.2674  3.5589
  540MOL0     H72848   3.526   4.929   5.533 -0.3241  1.1599 -0.3167
  540MOL0     H72849   3.404   4.690   5.491 -0.1619 -0.1156 -0.2574
  540MOL0     H72850   3.369   4.755   5.335  1.8914  2.0929 -0.0299
  540MOL0     H72851   3.288   4.828   5.702 -2.0116  0.4803  0.8666
  540MOL0     H72852   3.293   5.072   5.807 -0.3040 -0.5060  0.4781
  540MOL0     H72853   3.188   5.193   5.716 -2.1558 -0.7037  0.2591
  540MOL0     H72854   3.060   5.092   5.920 -2.0741 -2.5415  1.4862
  540MOL0     H72855   3.127   4.942   5.877  1.1532  1.1577  2.3039
  540MOL0     H72856   2.894   4.931   5.830 -2.6582  0.5588 -0.7347
  540MOL0     H72857   2.959   4.944   5.672  0.5191 -2.1289  0.8468
  540MOL0     H72858   2.835   5.141   5.634  1.0965  0.1011 -1.5073
  540MOL0     H72859   2.975   5.199   5.713 -0.9096 -0.4349 -0.7222
  540MOL0     H72860   2.726   5.178   6.075  0.2628 -1.8741  0.5474
  540MOL0     H72861   2.474   4.975   6.204 -1.5600  0.4745  1.8129
  540MOL0     H72862   2.544   5.124   6.257 -0.5291  0.0413  0.0635
  540MOL0     H72863   2.395   5.135   6.165  0.1254  1.4780  2.3087
  540MOL0     H72864   2.070   4.975   5.802 -0.5419 -0.2543 -1.9338
  540MOL0     H72865   1.834   4.908   5.821  0.9389  1.6096  1.1400
  540MOL0     H72866   1.766   4.495   5.763 -0.5186  3.0818 -1.7222
  540MOL0     H72867   1.763   4.472   5.944 -1.2594 -1.2236 -0.5312
  540MOL0     H72868   1.538   4.422   5.865 -0.3974  0.8026  0.0292
  540MOL0     H72869   1.523   4.577   5.937  1.0791  0.6352 -0.1355
  540MOL0     H72870   1.530   4.524   5.649 -0.9461 -0.4216 -0.1916
  540MOL0     H72871   1.545   4.692   5.726  0.4365  0.0498  1.3346
  540MOL0     H72872   1.321   4.505   5.811 -2.9337  0.1487 -0.2642
  540MOL0     H72873   1.324   4.681   5.819  0.7707 -0.7787  0.3641
  540MOL0     H72874   1.169   4.570   5.654 -0.0916  0.6375 -0.1656
  540MOL0     H72875   1.308   4.487   5.586  3.0894  2.6432 -2.9447
  540MOL0     H72876   1.239   4.779   5.584  2.5610 -0.2157  1.3205
  540MOL0     H72877   1.382   4.724   5.512  0.3922 -0.1871  0.8848
  540MOL0     H72878   1.196   4.542   5.391 -0.3233 -1.1004 -0.5452
  540MOL0     H72879   1.283   4.678   5.323  0.4972  2.1425  0.8487
  540MOL0     H72880   1.092   4.828   5.382  0.6212  0.0343 -0.1648
  540MOL0     H72881   1.010   4.707   5.481  0.9818 -1.8839 -0.2344
  540MOL0     H72882   1.988   4.533   5.969  1.5412  0.9629  2.1935
  540MOL0     H72883   2.192   4.598   5.962 -1.7713 -0.7664  1.6281
  540MOL0     H72884   2.475   4.930   5.729  1.1975  1.4967 -1.4399
  540MOL0     H72885   2.674   5.003   5.681  1.9775 -0.7676  1.8039
  540MOL0     H72886   3.467   4.912   4.644  1.2671 -2.9965  0.9564
  540MOL0     H72887   3.629   4.836   4.465 -2.5991  2.0017 -2.5019
  540MOL0     H72888   4.055   4.607   4.340 -0.5250 -2.0391 -3.4887
  540MOL0     H72889   4.241   4.578   4.177  1.0214  0.9748 -1.1515
  540MOL0     H72890   4.248   4.668   3.788 -2.1120 -0.5836 -0.9513
  540MOL0     H72891   4.121   4.779   3.840  0.7526  2.4056  0.3390
  540MOL0     H72892   4.280   4.959   3.864  0.2353  0.1575  0.3193
  540MOL0     H72893   4.285   4.900   3.690 -0.9058  0.6465  0.7156
  540MOL0     H72894   4.517   4.792   3.725  1.2561 -0.3608  0.3587
  540MOL0     H72895   4.488   4.820   3.894 -1.9449 -0.2877 -0.0375
  540MOL0     H72896   4.639   4.980   3.823  0.0006 -0.2144 -1.3027
  540MOL0     H72897   4.499   5.075   3.861 -2.6596 -1.3991  0.1478
  540MOL0     H72898   4.491   5.134   3.455 -1.2029  0.1047  0.2275
  540MOL0     H72899   4.128   4.942   3.995  2.3716 -1.1318 -1.0111
  540MOL0     H72900   3.964   4.993   4.177  2.6758  1.9479  1.8385
  541MOL0     O72901   2.786   4.808   5.520 -0.7900  0.0074 -0.0542
  541MOL0     C72902   2.866   4.738   5.460  1.0196  0.0481  0.1833
  541MOL0     O72903   2.869   4.723   5.322 -0.0907 -0.6261 -0.1191
  541MOL0     C72904   2.793   4.816   5.244  0.6124 -0.1005 -0.3754
  541MOL0     C72905   2.810   4.955   5.251  0.0319  0.3002 -0.7392
  541MOL0     C72906   2.731   5.031   5.163  0.2555 -0.2641 -0.1045
  541MOL0     C72907   2.633   4.982   5.076 -0.3741  0.0166 -0.5946
  541MOL0     O72908   2.573   5.072   4.991 -0.5191 -0.0458  0.1682
  541MOL0     C72909   2.534   5.022   4.859  0.3940  0.8672  0.5244
  541MOL0     C72910   2.569   5.125   4.754 -0.3550  0.0652 -0.1029
  541MOL0     C72911   2.719   5.159   4.721  0.6447 -0.1356  1.0195
  541MOL0     C72912   2.831   5.153   4.824 -0.3321 -0.1602 -1.2682
  541MOL0     C72913   2.957   5.218   4.775  0.7645 -0.8117  1.1840
  541MOL0     C72914   3.035   5.258   4.891  0.7398 -0.5316 -0.6876
  541MOL0     C72915   3.079   5.158   4.992  1.0252 -0.0825 -0.5716
  541MOL0     C72916   3.189   5.216   5.075 -0.2723  0.5085 -0.4574
  541MOL0     N72917   3.122   5.311   5.158  0.2641 -0.9085 -0.0473
  541MOL0     C72918   3.069   5.291   5.283  0.2039  0.3033  0.1702
  541MOL0     C72919   3.034   5.409   5.324  0.2396 -0.6604 -0.2172
  541MOL0     C72920   2.968   5.440   5.453  0.5352  0.6815 -0.6042
  541MOL0     C72921   3.056   5.471   5.571 -0.4521  0.7912 -0.1091
  541MOL0     C72922   3.027   5.603   5.632 -0.0849 -0.0694  0.6298
  541MOL0     C72923   3.141   5.628   5.739  0.6762  0.1762  0.4818
  541MOL0     O72924   3.139   5.527   5.842 -1.2866 -0.0128 -0.1903
  541MOL0     C72925   3.046   5.514   5.942  0.6808 -0.0269 -0.7673
  541MOL0     C72926   3.060   5.398   6.015 -1.0682 -0.1277 -0.3716
  541MOL0     C72927   2.974   5.364   6.118  0.5528  0.3671 -0.5677
  541MOL0     C72928   2.999   5.235   6.188  0.4383  0.2789  0.6094
  541MOL0     C72929   2.855   5.447   6.134  0.4769  0.2847 -0.3444
  541MOL0     C72930   2.751   5.409   6.245  0.0383  0.7484  0.2681
  541MOL0     O72931   2.647   5.497   6.247  0.1090 -0.3300 -0.1216
  541MOL0     C72932   2.549   5.473   6.347  0.3563 -0.5402  0.2627
  541MOL0     C72933   2.427   5.411   6.312 -0.5851  0.0959 -0.8123
  541MOL0     C72934   2.323   5.378   6.404 -0.2390  0.4047 -0.4505
  541MOL0     C72935   2.341   5.398   6.540 -0.6531  0.1235  0.2430
  541MOL0     O72936   2.232   5.363   6.624  0.7273 -1.0109  0.0045
  541MOL0     C72937   2.094   5.388   6.576 -1.0947  0.3400 -0.1478
  541MOL0     C72938   2.069   5.538   6.551  0.3148 -0.0197 -0.5998
  541MOL0     C72939   1.923   5.554   6.495 -0.0103  0.2359 -0.0061
  541MOL0     C72940   1.865   5.697   6.517 -0.6372 -0.0500  0.4790
  541MOL0     C72941   1.747   5.728   6.434  0.3895 -0.3410  0.2021
  541MOL0     C72942   1.730   5.885   6.428 -0.9996 -0.0801 -0.3096
  541MOL0     C72943   1.589   5.912   6.368 -0.9038  0.2707  0.4197
  541MOL0     C72944   1.606   6.024   6.256 -0.2751  0.5600 -0.0593
  541MOL0    Cl72945   1.714   5.972   6.125  0.0938  0.2482  0.2417
  541MOL0     C72946   2.474   5.441   6.577  0.0568  1.0898  0.5693
  541MOL0     C72947   2.569   5.483   6.484 -0.8933  0.6125  0.5276
  541MOL0     O72948   2.755   5.298   6.300  0.1287  0.0226 -0.1212
  541MOL0     C72949   2.831   5.562   6.055  0.1693  0.3581  1.1490
  541MOL0     C72950   2.933   5.591   5.959  0.1605  0.3767 -0.2670
  541MOL0     N72951   3.069   5.505   5.241  0.4735 -0.9044 -0.5350
  541MOL0     N72952   3.115   5.446   5.138  0.4140 -0.5888  0.6079
  541MOL0     C72953   2.620   4.846   5.069 -0.1214  1.2436  0.4017
  541MOL0     C72954   2.705   4.760   5.151 -0.3505 -0.3236  0.3400
  541MOL0     C72955   2.962   4.658   5.541  0.0157  0.4002  0.6525
  541MOL0     C72956   2.940   4.651   5.683 -0.5233 -0.1622  0.5338
  541MOL0     C72957   3.047   4.596   5.758  0.2163  0.1639 -0.1892
  541MOL0     C72958   3.162   4.545   5.699  0.7714  0.8100  1.1140
  541MOL0     O72959   3.256   4.484   5.770  0.0086 -0.9286 -0.4073
  541MOL0     C72960   3.274   4.347   5.764  1.2625 -0.0484  1.0172
  541MOL0     C72961   3.404   4.304   5.827 -0.0590 -0.6023 -0.6851
  541MOL0     C72962   3.520   4.373   5.762 -0.4557 -0.6170  0.2899
  541MOL0     C72963   3.573   4.312   5.635  1.0475  0.3500  0.0110
  541MOL0     C72964   3.647   4.193   5.673 -0.3462  0.0512 -1.0966
  541MOL0     C72965   3.727   4.117   5.717 -0.1541 -0.1586  0.8895
  541MOL0     C72966   3.173   4.540   5.557 -0.1449  0.9297 -0.9467
  541MOL0     C72967   3.074   4.598   5.481 -0.1244 -0.1872  0.6793
  541MOL0     H72968   2.886   4.999   5.314 -0.2782  0.9608 -0.8219
  541MOL0     H72969   2.759   5.136   5.167  0.6432 -0.1778 -2.8767
  541MOL0     H72970   2.596   4.935   4.839 -1.9276 -1.1004  1.4308
  541MOL0     H72971   2.429   4.998   4.845  0.3399  2.1042 -1.5316
  541MOL0     H72972   2.525   5.103   4.657  0.8798 -0.1764 -0.6258
  541MOL0     H72973   2.516   5.217   4.780  2.1009  1.3948  0.5997
  541MOL0     H72974   2.745   5.089   4.641 -2.1950 -1.2041  0.9111
  541MOL0     H72975   2.715   5.261   4.680  3.2812 -0.5660 -0.6039
  541MOL0     H72976   2.802   5.209   4.914 -1.6538 -0.1560 -1.6745
  541MOL0     H72977   2.844   5.049   4.858 -1.1473 -0.4866 -1.9122
  541MOL0     H72978   3.013   5.137   4.729 -1.1249 -1.2880 -0.4376
  541MOL0     H72979   2.948   5.304   4.708  1.6566 -1.2644  0.4683
  541MOL0     H72980   3.121   5.301   4.839  0.5417  0.1349 -0.4743
  541MOL0     H72981   2.988   5.336   4.953 -0.7387 -0.8779 -1.3413
  541MOL0     H72982   2.991   5.123   5.048  1.2422 -0.8090 -0.6769
  541MOL0     H72983   3.126   5.074   4.940 -0.0139 -1.3700  0.4996
  541MOL0     H72984   3.253   5.271   5.005 -1.0857  3.4583  0.9376
  541MOL0     H72985   3.251   5.136   5.116 -0.8268 -0.7971 -2.0676
  541MOL0     H72986   3.056   5.202   5.343 -4.2932 -1.5868 -3.0324
  541MOL0     H72987   2.905   5.525   5.425 -1.7391 -0.7431 -0.0800
  541MOL0     H72988   2.907   5.354   5.482  0.3694  0.7581 -0.7217
  541MOL0     H72989   3.157   5.474   5.530 -1.3264  2.1249 -2.2998
  541MOL0     H72990   3.048   5.388   5.643 -0.4064 -0.5762 -1.6254
  541MOL0     H72991   2.936   5.588   5.691 -1.3833  0.7715 -1.0509
  541MOL0     H72992   2.999   5.684   5.564 -0.2386  0.2600  1.0814
  541MOL0     H72993   3.114   5.723   5.785  0.0468 -0.3447  1.2093
  541MOL0     H72994   3.241   5.639   5.697  0.0500 -0.5950 -1.3320
  541MOL0     H72995   3.151   5.341   5.996 -0.3559  0.8527 -0.0200
  541MOL0     H72996   3.108   5.221   6.189  0.3974 -0.3128  3.1462
  541MOL0     H72997   2.979   5.243   6.295 -0.0420  1.4061  0.4549
  541MOL0     H72998   2.954   5.149   6.139  1.7083  0.2724 -0.6279
  541MOL0     H72999   2.421   5.397   6.204 -2.2189 -0.3625 -0.6872
  541MOL0     H73000   2.231   5.339   6.363  0.3316 -1.3808 -0.1181
  541MOL0     H73001   2.060   5.328   6.491 -3.2662 -0.5240  1.2568
  541MOL0     H73002   2.024   5.360   6.655 -1.3307 -0.1114 -0.5150
  541MOL0     H73003   2.077   5.578   6.652  0.3947 -4.4542  1.3835
  541MOL0     H73004   2.143   5.586   6.485  2.6563 -0.6859  1.3830
  541MOL0     H73005   1.856   5.492   6.555  2.1294 -0.7552  1.4813
  541MOL0     H73006   1.922   5.534   6.388 -3.2698 -1.3560  0.2024
  541MOL0     H73007   1.847   5.702   6.625  1.6345  1.4413  0.8539
  541MOL0     H73008   1.942   5.772   6.500 -0.9389  0.1790  0.0995
  541MOL0     H73009   1.663   5.667   6.469  1.6858 -1.5774  1.2704
  541MOL0     H73010   1.783   5.697   6.336  2.2652  0.3233  0.6404
  541MOL0     H73011   1.743   5.925   6.529  1.4569  1.9255 -1.3361
  541MOL0     H73012   1.801   5.931   6.359 -2.1969  2.1486 -0.1349
  541MOL0     H73013   1.524   5.958   6.443  0.3802 -0.7670  2.2434
  541MOL0     H73014   1.551   5.819   6.326  0.1679 -0.5413  1.1990
  541MOL0     H73015   1.645   6.119   6.295 -0.3383 -0.4767  2.8135
  541MOL0     H73016   1.511   6.064   6.221 -0.8735 -1.0487 -0.3524
  541MOL0     H73017   2.490   5.451   6.684 -2.8952  2.2641  1.0087
  541MOL0     H73018   2.659   5.527   6.525 -1.3186  3.0204 -0.8608
  541MOL0     H73019   2.742   5.622   6.068  1.4154  1.7378  4.3386
  541MOL0     H73020   2.919   5.683   5.903 -1.8177  0.6659  0.6463
  541MOL0     H73021   2.538   4.809   5.008  0.5430  2.9550 -1.6319
  541MOL0     H73022   2.695   4.652   5.149  1.5661 -0.5556  1.3907
  541MOL0     H73023   2.860   4.708   5.729 -0.4679  0.8242 -0.5347
  541MOL0     H73024   3.038   4.572   5.864 -2.9944 -2.0308 -0.8193
  541MOL0     H73025   3.186   4.299   5.809  1.1230 -2.6165 -1.6111
  541MOL0     H73026   3.281   4.294   5.668  4.6481  0.8191  0.6594
  541MOL0     H73027   3.404   4.195   5.817 -1.2858 -0.7762  0.9346
  541MOL0     H73028   3.404   4.322   5.934 -0.2197  1.6385 -1.0160
  541MOL0     H73029   3.604   4.377   5.832 -1.9223  1.8023  2.0635
  541MOL0     H73030   3.494   4.477   5.742  1.2366 -0.2235  0.0186
  541MOL0     H73031   3.629   4.395   5.591 -0.8566  2.9975  2.2652
  541MOL0     H73032   3.495   4.276   5.567 -1.2496 -0.5473  2.8832
  541MOL0     H73033   3.814   4.070   5.758  1.9437  0.9251 -1.9516
  541MOL0     H73034   3.268   4.500   5.522 -0.3321 -0.7490  0.2974
  541MOL0     H73035   3.078   4.596   5.372 -0.2608 -0.1844  0.6742
  542MOL0     O73036   0.544   0.499   3.908 -0.0174 -0.2640  0.1809
  542MOL0     C73037   0.455   0.418   3.898 -0.5201  0.0060  0.2509
  542MOL0     O73038   0.336   0.432   3.828 -0.1457  0.1494 -0.2105
  542MOL0     C73039   0.260   0.542   3.857 -0.2664  0.4821  0.1661
  542MOL0     C73040   0.155   0.566   3.772 -0.0216  0.4038 -0.4080
  542MOL0     C73041   0.059   0.672   3.798 -0.4864 -0.1029 -0.1366
  542MOL0     C73042   0.076   0.750   3.912  0.4373 -0.3261 -1.4441
  542MOL0     O73043  -0.011   0.844   3.954  0.0979  0.2987 -0.1667
  542MOL0     C73044  -0.095   0.915   3.866 -0.1090  0.9127 -0.1983
  542MOL0     C73045  -0.247   0.908   3.902  0.4509 -0.3187  0.4455
  542MOL0     C73046  -0.284   0.974   4.037 -0.1565  0.7406 -0.9166
  542MOL0     C73047  -0.250   1.125   4.055  0.5416 -0.0705  0.3226
  542MOL0     C73048  -0.311   1.202   4.166 -0.4875  0.5036  0.4069
  542MOL0     C73049  -0.252   1.166   4.314  0.2605 -0.0742  0.5816
  542MOL0     C73050  -0.280   1.275   4.422 -0.7089  0.7149  0.7885
  542MOL0     C73051  -0.196   1.403   4.417  0.0599  0.6546 -0.3379
  542MOL0     N73052  -0.255   1.510   4.503  0.9096  0.5209 -0.3389
  542MOL0     C73053  -0.258   1.517   4.640 -0.7209  0.9388  1.3101
  542MOL0     C73054  -0.308   1.636   4.671  0.2006 -0.0946  0.6255
  542MOL0     C73055  -0.328   1.699   4.803 -0.3867  0.2862 -0.0413
  542MOL0     C73056  -0.478   1.733   4.809  0.3906  0.4086  0.2649
  542MOL0     C73057  -0.524   1.809   4.933 -0.1702  0.2804 -0.3795
  542MOL0     C73058  -0.496   1.729   5.057  0.5785 -0.3337  0.3831
  542MOL0     O73059  -0.617   1.639   5.078 -0.9828 -0.8020 -0.0929
  542MOL0     C73060  -0.633   1.569   5.196  0.1802 -0.7733 -0.2926
  542MOL0     C73061  -0.753   1.498   5.209 -0.3109  0.2632  0.2632
  542MOL0     C73062  -0.787   1.440   5.325 -0.4314  0.3087 -0.6619
  542MOL0     C73063  -0.927   1.383   5.332  0.2441  0.4747 -0.4571
  542MOL0     C73064  -0.699   1.435   5.440  0.0097 -1.0688 -0.2933
  542MOL0     C73065  -0.736   1.370   5.570 -0.1577 -0.4908  1.0021
  542MOL0     O73066  -0.668   1.416   5.676 -0.5323 -0.1013  0.2668
  542MOL0     C73067  -0.717   1.388   5.804 -1.2504  0.1294 -0.4299
  542MOL0     C73068  -0.646   1.316   5.903  0.1527  0.5595 -0.9997
  542MOL0     C73069  -0.706   1.301   6.035 -0.0001 -0.0433  0.5033
  542MOL0     C73070  -0.833   1.355   6.065 -0.2650  0.5284 -0.3415
  542MOL0     O73071  -0.892   1.316   6.183  0.3864  0.5453 -0.9218
  542MOL0     C73072  -1.032   1.342   6.206 -0.4250 -0.0562 -0.4690
  542MOL0     C73073  -1.056   1.470   6.291  0.0051  0.0652  0.4502
  542MOL0     C73074  -0.988   1.480   6.437 -0.3502  1.0930 -0.3434
  542MOL0     C73075  -1.070   1.376   6.531  0.2939 -0.4731  0.1118
  542MOL0     C73076  -1.038   1.380   6.682 -0.0416 -0.4551 -0.0546
  542MOL0     C73077  -0.887   1.358   6.728 -0.4180  0.5522 -0.0131
  542MOL0     C73078  -0.880   1.347   6.885 -0.0654 -0.9472  0.6979
  542MOL0     C73079  -0.898   1.492   6.946  0.3434  0.4643  0.0383
  542MOL0    Cl73080  -0.849   1.508   7.117  0.2345  0.8077  0.3060
  542MOL0     C73081  -0.894   1.434   5.959  0.0564 -0.5350 -0.0006
  542MOL0     C73082  -0.838   1.449   5.830 -0.1728  0.0441 -1.1903
  542MOL0     O73083  -0.799   1.271   5.565  0.8529  0.1742 -0.1374
  542MOL0     C73084  -0.578   1.507   5.432 -0.6103 -0.0183 -0.3261
  542MOL0     C73085  -0.544   1.566   5.305  0.2478  0.8473  1.0020
  542MOL0     N73086  -0.352   1.698   4.552 -0.4451  0.5722 -0.5584
  542MOL0     N73087  -0.313   1.628   4.460 -0.1115  0.2802  0.3235
  542MOL0     C73088   0.182   0.726   4.003  0.1339  0.1538  1.1353
  542MOL0     C73089   0.278   0.619   3.969 -0.5273 -0.1023  0.0848
  542MOL0     C73090   0.490   0.275   3.928 -0.6261  0.0553  0.4683
  542MOL0     C73091   0.622   0.240   3.965  0.3942 -0.4598  0.4588
  542MOL0     C73092   0.656   0.111   4.006 -0.1851 -0.2991 -0.2575
  542MOL0     C73093   0.569   0.011   4.013 -0.2599  0.6696  0.3167
  542MOL0     O73094   0.588  -0.112   4.076  0.0586 -1.1043  1.0182
  542MOL0     C73095   0.712  -0.153   4.124  0.1150  0.1992 -0.5381
  542MOL0     C73096   0.739  -0.091   4.265 -0.3723 -0.4517  0.6899
  542MOL0     C73097   0.849  -0.155   4.351  0.4281 -0.3360 -0.0660
  542MOL0     C73098   0.978  -0.108   4.284 -0.0565  0.3467  0.3135
  542MOL0     C73099   1.074  -0.220   4.307  0.1779  0.3684 -0.3967
  542MOL0     C73100   1.156  -0.307   4.333  0.0688 -1.3821 -1.2143
  542MOL0     C73101   0.431   0.039   3.974  0.4450 -0.4942  0.6834
  542MOL0     C73102   0.392   0.173   3.936 -0.7427 -0.2314  0.2166
  542MOL0     H73103   0.149   0.501   3.686 -0.2188  0.4716 -0.4467
  542MOL0     H73104  -0.030   0.694   3.740 -0.1179  0.2861 -0.5584
  542MOL0     H73105  -0.072   1.020   3.886  1.4611  0.5792 -0.1003
  542MOL0     H73106  -0.094   0.892   3.759  0.0836 -1.1095  0.1954
  542MOL0     H73107  -0.307   0.967   3.832  1.8032 -1.2860 -1.6345
  542MOL0     H73108  -0.295   0.810   3.912 -1.6648  0.7462  1.4274
  542MOL0     H73109  -0.390   0.963   4.063 -0.1381  2.1982 -0.1683
  542MOL0     H73110  -0.232   0.915   4.113  2.8561 -0.1852 -3.4952
  542MOL0     H73111  -0.143   1.146   4.061  0.2996  3.0762 -3.0339
  542MOL0     H73112  -0.287   1.180   3.968 -0.5311 -1.5370 -0.1781
  542MOL0     H73113  -0.284   1.307   4.153  0.6908  0.6057  3.0396
  542MOL0     H73114  -0.418   1.184   4.177 -0.9447  0.8770 -2.5676
  542MOL0     H73115  -0.280   1.065   4.345  2.4956 -1.0613 -0.3757
  542MOL0     H73116  -0.143   1.165   4.311  0.3223  0.3895  2.0668
  542MOL0     H73117  -0.385   1.307   4.424 -1.0740  0.0657 -2.2138
  542MOL0     H73118  -0.256   1.217   4.511  1.0218 -2.5202 -1.5620
  542MOL0     H73119  -0.213   1.443   4.316  0.5768 -1.3630 -1.2729
  542MOL0     H73120  -0.090   1.395   4.441  0.2780  0.7555 -1.2214
  542MOL0     H73121  -0.227   1.434   4.704  3.6577  1.9676  0.8718
  542MOL0     H73122  -0.293   1.629   4.879 -0.0320 -1.8721 -2.0751
  542MOL0     H73123  -0.263   1.787   4.800  0.8634 -0.6160 -1.5685
  542MOL0     H73124  -0.551   1.653   4.790  2.7728 -2.2358  1.4407
  542MOL0     H73125  -0.496   1.795   4.721  0.0382 -3.0432 -2.3279
  542MOL0     H73126  -0.631   1.835   4.928  0.6159  3.8010 -1.7814
  542MOL0     H73127  -0.473   1.905   4.935 -2.8790  1.8407  1.1884
  542MOL0     H73128  -0.470   1.795   5.140 -0.6193 -0.9650  1.2945
  542MOL0     H73129  -0.411   1.661   5.049  0.5925 -0.5074  1.7272
  542MOL0     H73130  -0.821   1.488   5.125 -0.3936 -0.4556  0.4034
  542MOL0     H73131  -0.956   1.422   5.430  0.3353  1.6101 -0.8760
  542MOL0     H73132  -1.002   1.419   5.261 -3.3330 -2.9588  1.1912
  542MOL0     H73133  -0.935   1.274   5.321  1.2544  0.2517  0.8080
  542MOL0     H73134  -0.546   1.286   5.874  0.0022  0.4220 -1.3864
  542MOL0     H73135  -0.660   1.235   6.107  1.5977  2.6668  2.1704
  542MOL0     H73136  -1.089   1.342   6.112 -0.1844 -1.6967 -0.6480
  542MOL0     H73137  -1.075   1.262   6.267 -2.1528  0.5283 -0.8755
  542MOL0     H73138  -1.020   1.555   6.233 -1.3427 -1.1310 -2.2924
  542MOL0     H73139  -1.159   1.482   6.327 -0.6713 -1.4204 -0.9060
  542MOL0     H73140  -0.996   1.580   6.481 -0.9401  0.7225  0.4132
  542MOL0     H73141  -0.882   1.452   6.435 -1.0174 -1.7061 -0.0158
  542MOL0     H73142  -1.175   1.401   6.514 -0.2357 -0.7362  2.6018
  542MOL0     H73143  -1.041   1.274   6.506  2.2044  0.3155 -1.1049
  542MOL0     H73144  -1.107   1.311   6.731  1.8023 -2.7239 -0.4680
  542MOL0     H73145  -1.062   1.482   6.715 -1.1482 -1.1999  1.5884
  542MOL0     H73146  -0.856   1.262   6.685 -0.4158 -0.5447  2.2587
  542MOL0     H73147  -0.830   1.444   6.692 -0.4021  2.2130  3.5126
  542MOL0     H73148  -0.781   1.305   6.903  0.7358  1.0106  1.1244
  542MOL0     H73149  -0.961   1.293   6.936 -1.5768  1.9911  1.6277
  542MOL0     H73150  -1.003   1.522   6.944 -0.7107 -2.8554 -0.4351
  542MOL0     H73151  -0.845   1.570   6.889 -0.2623  1.5799  0.9470
  542MOL0     H73152  -0.992   1.478   5.975  0.7093 -0.0091  3.3222
  542MOL0     H73153  -0.894   1.513   5.762 -0.9355  1.1594  0.4011
  542MOL0     H73154  -0.510   1.495   5.515  0.2339 -0.5987 -1.0834
  542MOL0     H73155  -0.447   1.609   5.282  0.3017  0.4924  0.5668
  542MOL0     H73156   0.178   0.785   4.094 -0.4679  1.3365  0.3605
  542MOL0     H73157   0.357   0.598   4.040 -0.0754 -1.4509 -0.7729
  542MOL0     H73158   0.690   0.325   3.961  0.4412 -0.4985  0.4253
  542MOL0     H73159   0.752   0.096   4.054 -1.3933 -0.8496  2.1384
  542MOL0     H73160   0.711  -0.262   4.135 -3.4136  0.2928  1.6515
  542MOL0     H73161   0.789  -0.127   4.050 -1.0516 -1.8718 -2.6487
  542MOL0     H73162   0.652  -0.104   4.330 -1.0843  1.7528  0.2632
  542MOL0     H73163   0.763   0.013   4.244 -0.1177 -1.0652 -2.6160
  542MOL0     H73164   0.831  -0.263   4.355 -0.0862 -0.2109  2.8995
  542MOL0     H73165   0.845  -0.124   4.456  1.2178 -0.0715 -0.1109
  542MOL0     H73166   1.009  -0.015   4.333 -3.1604  1.0682  1.1025
  542MOL0     H73167   0.972  -0.098   4.175  2.3907  0.2122  0.0930
  542MOL0     H73168   1.224  -0.388   4.349 -1.9726 -2.8761  0.4975
  542MOL0     H73169   0.350  -0.033   3.967 -0.5690  0.6918 -0.3876
  542MOL0     H73170   0.293   0.191   3.895  0.0501  0.0942 -1.6595
  543MOL0     O73171  10.708   8.530   8.599  0.2412 -0.2668 -0.2810
  543MOL0     C73172  10.702   8.425   8.533  0.0844 -0.7431 -0.2866
  543MOL0     O73173  10.611   8.329   8.550  0.8364 -0.9279  0.2533
  543MOL0     C73174  10.487   8.352   8.612 -0.0862 -0.1418 -0.2011
  543MOL0     C73175  10.413   8.250   8.652 -0.1043  1.1686  0.4152
  543MOL0     C73176  10.287   8.260   8.719  0.1085 -0.5759  0.1431
  543MOL0     C73177  10.238   8.386   8.744  0.8615  0.6858 -0.5571
  543MOL0     O73178  10.126   8.390   8.829  0.2238 -0.0461 -0.0041
  543MOL0     C73179  10.065   8.520   8.866 -0.2683  0.2101  0.6073
  543MOL0     C73180   9.919   8.508   8.923 -0.3104  0.3971 -0.0974
  543MOL0     C73181   9.849   8.375   8.887  0.4187  0.4186  1.0409
  543MOL0     C73182   9.861   8.279   8.997 -0.0680  0.5635  0.0381
  543MOL0     C73183   9.788   8.141   8.974 -0.2514  0.2063 -0.0705
  543MOL0     C73184   9.857   8.045   8.868 -1.6042  0.1571 -0.2937
  543MOL0     C73185   9.784   7.914   8.870 -0.8329 -0.4341  1.1459
  543MOL0     C73186   9.827   7.826   8.745  0.5126  1.0720  0.3828
  543MOL0     N73187   9.810   7.679   8.765  0.1089 -0.7507 -0.0525
  543MOL0     C73188   9.907   7.596   8.814  0.4005  0.5963  1.3107
  543MOL0     C73189   9.847   7.478   8.825  0.6102 -2.2984  0.6123
  543MOL0     C73190   9.900   7.348   8.877 -0.2237  0.0027  1.0106
  543MOL0     C73191   9.894   7.257   8.763  0.2031  0.2892 -0.1250
  543MOL0     C73192   9.961   7.121   8.782  0.2057  0.3645 -1.5288
  543MOL0     C73193   9.944   7.021   8.673 -0.3578 -0.1658 -0.3643
  543MOL0     O73194   9.962   7.072   8.539 -0.0556 -0.4151 -0.6338
  543MOL0     C73195   9.952   6.990   8.432  0.2494 -0.2942  0.3844
  543MOL0     C73196   9.979   7.041   8.309  1.0584 -0.0632  0.8357
  543MOL0     C73197   9.960   6.956   8.190 -0.1200  0.1080  0.3069
  543MOL0     C73198  10.000   7.028   8.062 -1.0394 -0.3903 -0.1301
  543MOL0     C73199   9.922   6.818   8.205 -0.0326  0.3723 -0.7146
  543MOL0     C73200   9.891   6.730   8.086 -0.2857  0.0475 -0.3010
  543MOL0     O73201   9.843   6.790   7.971 -0.4886 -0.1541 -0.1042
  543MOL0     C73202   9.814   6.715   7.859  0.8192 -0.4215 -1.0509
  543MOL0     C73203   9.920   6.685   7.781  0.0458 -0.8123  0.3174
  543MOL0     C73204   9.909   6.608   7.662  0.5541 -1.1130 -0.4078
  543MOL0     C73205   9.778   6.574   7.622 -0.3965  0.6862  0.6854
  543MOL0     O73206   9.750   6.520   7.501  0.2461  0.4412 -0.5507
  543MOL0     C73207   9.854   6.442   7.439 -0.7821 -0.2809 -0.0180
  543MOL0     C73208   9.814   6.387   7.304 -0.0446  0.8774  0.1785
  543MOL0     C73209   9.690   6.287   7.311 -0.9920  0.1419 -0.0098
  543MOL0     C73210   9.624   6.285   7.170 -0.7547 -0.1252 -0.0618
  543MOL0     C73211   9.532   6.406   7.148  0.2425  0.2729  0.0332
  543MOL0     C73212   9.436   6.385   7.030 -0.1176  1.3137 -0.3689
  543MOL0     C73213   9.341   6.267   7.044 -0.9441 -0.4588 -0.3431
  543MOL0     C73214   9.247   6.262   6.914 -0.2917 -0.6020  0.1432
  543MOL0    Cl73215   9.111   6.365   6.943 -0.0923 -0.0629  0.3388
  543MOL0     C73216   9.671   6.607   7.700 -0.4180  0.2929  0.8363
  543MOL0     C73217   9.687   6.677   7.818 -0.5503 -0.3154  0.2240
  543MOL0     O73218   9.914   6.613   8.107 -0.2833 -0.2824  1.1758
  543MOL0     C73219   9.908   6.772   8.333  0.2632  0.3836  1.1716
  543MOL0     C73220   9.925   6.857   8.439 -0.4501 -0.1220 -0.0708
  543MOL0     N73221   9.718   7.491   8.771 -0.1691 -0.4427  0.0048
  543MOL0     N73222   9.699   7.610   8.730  0.3836 -0.9169  0.7708
  543MOL0     C73223  10.300   8.498   8.684  0.4089 -0.8327  0.4499
  543MOL0     C73224  10.422   8.481   8.620  0.0021  0.0174 -1.2926
  543MOL0     C73225  10.807   8.417   8.427 -0.1892  0.0914  0.5324
  543MOL0     C73226  10.848   8.297   8.364 -0.4994  0.2538 -0.4854
  543MOL0     C73227  10.951   8.299   8.261  0.1282  0.3794  0.4810
  543MOL0     C73228  10.988   8.420   8.210 -0.2233  0.1613  0.0737
  543MOL0     O73229  11.082   8.425   8.106  0.9966  0.3500  0.3173
  543MOL0     C73230  11.164   8.315   8.046 -0.0856  0.3426 -1.0093
  543MOL0     C73231  11.096   8.249   7.938 -0.9876 -0.2302 -0.4973
  543MOL0     C73232  11.187   8.185   7.841 -0.1725  0.5139  0.1874
  543MOL0     C73233  11.116   8.110   7.728 -0.5397 -0.0008  0.1918
  543MOL0     C73234  11.202   8.056   7.620 -0.1850  0.0483  0.9975
  543MOL0     C73235  11.253   8.025   7.518  0.3767  0.0540 -0.1590
  543MOL0     C73236  10.941   8.535   8.270  0.6844  0.0368  0.6830
  543MOL0     C73237  10.849   8.533   8.372 -0.4691 -1.1676  0.1117
  543MOL0     H73238  10.446   8.146   8.651 -1.8715  0.5587  1.5888
  543MOL0     H73239  10.238   8.170   8.754 -1.2455 -1.3346 -3.3124
  543MOL0     H73240  10.123   8.575   8.941  1.7045 -0.4698 -0.3399
  543MOL0     H73241  10.064   8.594   8.785  0.5414 -2.0882 -1.6356
  543MOL0     H73242   9.913   8.524   9.031  1.5668 -1.1604  0.2928
  543MOL0     H73243   9.868   8.586   8.866 -0.7344 -0.6506 -1.1998
  543MOL0     H73244   9.742   8.389   8.870  0.4037 -0.4681  0.3285
  543MOL0     H73245   9.891   8.327   8.798  1.6102 -3.3698  3.4063
  543MOL0     H73246   9.968   8.262   9.011 -0.1000 -0.9160 -1.1341
  543MOL0     H73247   9.837   8.325   9.093 -1.2214 -0.8963  0.4947
  543MOL0     H73248   9.789   8.086   9.068 -1.3496  0.7779  0.2883
  543MOL0     H73249   9.688   8.160   8.936 -1.9578 -2.7586  2.4969
  543MOL0     H73250   9.851   8.095   8.770 -2.8453 -0.4267 -0.5336
  543MOL0     H73251   9.963   8.028   8.888 -1.0414 -0.2292 -3.1799
  543MOL0     H73252   9.810   7.861   8.962  0.6653  1.7782  2.0980
  543MOL0     H73253   9.675   7.918   8.878 -0.7471 -0.1609  2.4574
  543MOL0     H73254   9.930   7.843   8.712  0.1489  0.1086 -1.3914
  543MOL0     H73255   9.773   7.866   8.659  0.0145 -0.7274 -0.1858
  543MOL0     H73256  10.001   7.645   8.836  1.2229 -0.1842 -0.2887
  543MOL0     H73257  10.003   7.368   8.908 -0.3544  2.0467  0.2749
  543MOL0     H73258   9.836   7.312   8.958  0.9608  1.3309  2.6152
  543MOL0     H73259   9.939   7.302   8.674  0.3950 -1.9777 -1.2593
  543MOL0     H73260   9.790   7.233   8.737  1.3710 -3.4377 -2.0595
  543MOL0     H73261   9.921   7.067   8.868  1.4743 -0.2690 -1.3149
  543MOL0     H73262  10.064   7.154   8.794 -0.0784  0.9596 -0.6644
  543MOL0     H73263   9.846   6.973   8.684 -0.1852 -0.6133 -0.7563
  543MOL0     H73264  10.014   6.938   8.688 -0.8549 -0.6021 -0.4388
  543MOL0     H73265  10.017   7.141   8.296  0.0685  0.5440  2.2715
  543MOL0     H73266   9.905   7.063   8.021 -1.4701 -1.2258  0.1340
  543MOL0     H73267  10.073   7.109   8.073 -0.8474 -0.7047  1.0385
  543MOL0     H73268  10.044   6.954   7.995 -2.3636  1.4701 -3.3149
  543MOL0     H73269  10.015   6.723   7.818  0.7241 -2.1564  0.0256
  543MOL0     H73270  10.001   6.591   7.606 -0.3117  2.4678 -3.2982
  543MOL0     H73271   9.946   6.494   7.408 -0.8003  0.1241  0.5970
  543MOL0     H73272   9.900   6.371   7.508  1.6786 -1.6003 -2.7901
  543MOL0     H73273   9.800   6.464   7.227 -0.3064 -0.3278 -1.0190
  543MOL0     H73274   9.905   6.337   7.269  1.8146  2.3138  2.6024
  543MOL0     H73275   9.616   6.319   7.384 -3.4886 -0.7357 -2.0121
  543MOL0     H73276   9.730   6.189   7.339 -1.4692 -1.1243 -3.3155
  543MOL0     H73277   9.701   6.299   7.092  1.8718  3.1235  2.7848
  543MOL0     H73278   9.581   6.187   7.149  0.2365 -0.0664 -2.9653
  543MOL0     H73279   9.589   6.499   7.148 -0.4904  0.7305  0.0905
  543MOL0     H73280   9.474   6.422   7.240  1.4025 -2.4067  1.3543
  543MOL0     H73281   9.375   6.475   7.018 -2.4476 -0.1017  0.3781
  543MOL0     H73282   9.506   6.369   6.947 -0.4385 -0.6682 -0.3050
  543MOL0     H73283   9.277   6.271   7.133  0.0186  1.2924  0.3165
  543MOL0     H73284   9.389   6.169   7.051 -0.0879  0.0817  2.2765
  543MOL0     H73285   9.207   6.161   6.907 -0.2039 -0.5880 -0.5641
  543MOL0     H73286   9.305   6.295   6.828  0.9483  2.8779  2.0968
  543MOL0     H73287   9.569   6.588   7.666 -0.3085  1.7994 -0.4276
  543MOL0     H73288   9.601   6.711   7.874 -0.1595  1.9874 -0.4864
  543MOL0     H73289   9.875   6.669   8.345 -2.1216  0.9781  0.2515
  543MOL0     H73290   9.909   6.812   8.537 -2.8024  0.3218 -0.2007
  543MOL0     H73291  10.265   8.601   8.689  0.1185 -0.7853 -1.7169
  543MOL0     H73292  10.467   8.571   8.580  3.4281 -0.6075  0.7736
  543MOL0     H73293  10.813   8.198   8.393  1.0731  0.4044  2.2753
  543MOL0     H73294  10.991   8.208   8.216 -3.1462 -0.9666 -0.0372
  543MOL0     H73295  11.262   8.350   8.012  0.9045 -1.6301 -0.3775
  543MOL0     H73296  11.180   8.233   8.116  0.7372  1.2109 -0.1504
  543MOL0     H73297  11.042   8.322   7.877  2.3041  1.4530 -1.6313
  543MOL0     H73298  11.038   8.166   7.979 -0.7939 -0.1839 -0.1256
  543MOL0     H73299  11.248   8.114   7.898 -3.2456 -1.9014  0.7473
  543MOL0     H73300  11.247   8.262   7.792  0.6051 -2.2325 -3.5212
  543MOL0     H73301  11.028   8.158   7.685  0.4688  1.9972  0.2637
  543MOL0     H73302  11.071   8.026   7.782 -0.0906 -0.8965 -0.7894
  543MOL0     H73303  11.308   7.994   7.432 -0.8112 -1.6688 -0.3559
  543MOL0     H73304  10.990   8.620   8.224  2.1735 -2.5137 -2.9151
  543MOL0     H73305  10.808   8.625   8.413 -1.9238 -2.0746  0.8051
  544MOL0     O73306   7.681   8.573   5.619 -0.5702 -0.3222  0.2189
  544MOL0     C73307   7.787   8.625   5.662  0.6283  0.0180  0.0819
  544MOL0     O73308   7.873   8.717   5.601  0.4306  0.3874 -0.5900
  544MOL0     C73309   7.881   8.735   5.467 -0.7764 -0.3716 -0.6176
  544MOL0     C73310   7.987   8.816   5.426  0.5155 -0.0332 -0.2264
  544MOL0     C73311   8.006   8.876   5.307 -0.0712  0.9349  0.4743
  544MOL0     C73312   7.920   8.848   5.204 -0.2005  0.8621 -0.5131
  544MOL0     O73313   7.936   8.890   5.081 -0.2312 -0.0298  0.3661
  544MOL0     C73314   7.970   9.025   5.056 -0.1526  0.6357  0.4973
  544MOL0     C73315   7.926   9.055   4.913  0.0958  0.9058  1.6430
  544MOL0     C73316   7.784   9.073   4.922  0.9611 -0.1073 -0.2096
  544MOL0     C73317   7.719   9.100   4.789  0.1778  0.6584 -0.1905
  544MOL0     C73318   7.719   8.989   4.689  0.2419  0.5235  0.4856
  544MOL0     C73319   7.680   9.019   4.542 -0.1165 -0.5793 -0.0767
  544MOL0     C73320   7.620   8.896   4.476  0.2678 -0.3799  1.3184
  544MOL0     C73321   7.464   8.871   4.519  0.2277 -1.1259 -0.6096
  544MOL0     N73322   7.391   8.760   4.453 -0.1170 -0.9141  0.0627
  544MOL0     C73323   7.369   8.634   4.495 -0.2195 -0.3102  1.0347
  544MOL0     C73324   7.326   8.569   4.386 -0.0252  0.4035 -0.1312
  544MOL0     C73325   7.299   8.420   4.397 -0.2117 -0.0237  0.1561
  544MOL0     C73326   7.226   8.371   4.522  0.2007  1.0897 -1.0515
  544MOL0     C73327   7.209   8.214   4.523 -0.4570 -0.5563 -0.2234
  544MOL0     C73328   7.331   8.127   4.524 -0.2714 -1.0032  0.1394
  544MOL0     O73329   7.403   8.143   4.646  0.1961  0.0311 -0.0686
  544MOL0     C73330   7.368   8.075   4.758 -0.3968 -0.4875 -0.2135
  544MOL0     C73331   7.271   7.961   4.765  0.2140 -0.3248 -0.8469
  544MOL0     C73332   7.227   7.896   4.877 -0.3337  0.7013 -0.4531
  544MOL0     C73333   7.134   7.777   4.855 -0.3686 -0.9264 -0.0254
  544MOL0     C73334   7.287   7.934   5.002  0.3257  0.7348 -0.0365
  544MOL0     C73335   7.261   7.876   5.136  0.7735  0.4138 -0.6978
  544MOL0     O73336   7.318   7.944   5.242 -0.1538 -0.0968 -0.3303
  544MOL0     C73337   7.316   7.891   5.371 -0.3173 -0.9394  0.5546
  544MOL0     C73338   7.311   7.977   5.480 -0.2803 -0.0048 -0.5744
  544MOL0     C73339   7.323   7.919   5.608 -0.0681 -0.6793  0.1559
  544MOL0     C73340   7.333   7.775   5.627  0.5208 -0.7873  0.7143
  544MOL0     O73341   7.360   7.725   5.745  0.3017  0.0705  0.3983
  544MOL0     C73342   7.243   7.726   5.839 -0.3135  0.8910  0.0681
  544MOL0     C73343   7.269   7.638   5.965  0.1613 -0.1815  0.0355
  544MOL0     C73344   7.219   7.703   6.086 -0.1661  0.7482 -0.1131
  544MOL0     C73345   7.074   7.670   6.109  0.0664 -0.4216 -0.2068
  544MOL0     C73346   7.032   7.685   6.254  0.0678  0.1802 -0.1531
  544MOL0     C73347   6.886   7.645   6.268  0.3077  0.8082 -1.5356
  544MOL0     C73348   6.835   7.637   6.414  0.6195 -0.0179  1.8523
  544MOL0     C73349   6.692   7.586   6.413  0.8277 -0.6557  0.2714
  544MOL0    Cl73350   6.584   7.684   6.308 -0.4514  0.0817  0.1581
  544MOL0     C73351   7.328   7.690   5.518 -0.3519 -1.6338 -0.2352
  544MOL0     C73352   7.323   7.749   5.397 -0.5231 -0.4393  0.1162
  544MOL0     O73353   7.192   7.773   5.151  0.8553  0.0042 -0.1802
  544MOL0     C73354   7.389   8.030   4.994  0.2100  0.5393  0.0185
  544MOL0     C73355   7.421   8.108   4.884  0.0162  0.0660  0.4569
  544MOL0     N73356   7.316   8.651   4.272 -0.5428  0.4671  0.3659
  544MOL0     N73357   7.346   8.772   4.316 -0.8195 -0.2004 -0.0197
  544MOL0     C73358   7.809   8.752   5.235 -0.0335 -1.2547 -0.1425
  544MOL0     C73359   7.786   8.703   5.366 -0.1677  0.3234  0.5688
  544MOL0     C73360   7.850   8.569   5.792 -0.3184 -0.4087 -0.9240
  544MOL0     C73361   7.817   8.445   5.854 -0.4619  0.5110 -0.3463
  544MOL0     C73362   7.885   8.396   5.969  0.0587 -0.0142  1.2423
  544MOL0     C73363   7.989   8.482   6.025  1.0205  0.9515 -0.4714
  544MOL0     O73364   8.052   8.464   6.153  1.0031 -0.4311 -0.3839
  544MOL0     C73365   7.953   8.446   6.261 -0.1446  0.8971 -0.1546
  544MOL0     C73366   7.927   8.297   6.293  0.7377  0.1823  0.3844
  544MOL0     C73367   8.048   8.222   6.347  0.0495 -0.8949  1.3281
  544MOL0     C73368   8.089   8.263   6.485  0.5818  0.0338  0.4073
  544MOL0     C73369   8.168   8.154   6.541 -0.6837 -0.2426 -0.8164
  544MOL0     C73370   8.227   8.086   6.620 -0.2856 -0.0671 -0.3094
  544MOL0     C73371   8.023   8.608   5.966  0.1487  0.1918  0.2347
  544MOL0     C73372   7.955   8.652   5.850  0.1135  0.9794 -0.1043
  544MOL0     H73373   8.059   8.820   5.507  0.3545 -0.3892 -0.0650
  544MOL0     H73374   8.090   8.943   5.291  1.2979 -0.9951 -0.8294
  544MOL0     H73375   7.919   9.096   5.122  0.3806  0.8391  0.7029
  544MOL0     H73376   8.077   9.039   5.073  0.6689  0.0230 -3.3080
  544MOL0     H73377   7.968   9.145   4.867  0.4159 -0.0110  0.0741
  544MOL0     H73378   7.954   8.973   4.846 -0.3519  2.5275 -0.6619
  544MOL0     H73379   7.737   8.997   4.985  1.1261 -0.4288 -0.4778
  544MOL0     H73380   7.766   9.165   4.979  2.5596 -0.1867  0.4742
  544MOL0     H73381   7.615   9.133   4.797 -0.8397 -1.9363 -1.4986
  544MOL0     H73382   7.785   9.179   4.752  1.4011 -1.0129 -1.7229
  544MOL0     H73383   7.817   8.940   4.692  0.6436  1.0891 -1.6292
  544MOL0     H73384   7.656   8.906   4.720  2.8440 -1.8074 -0.0460
  544MOL0     H73385   7.602   9.094   4.529  1.2166  0.6358 -1.6126
  544MOL0     H73386   7.768   9.041   4.480 -1.5095 -3.0275 -3.2529
  544MOL0     H73387   7.625   8.918   4.369 -1.3448 -0.4136  1.2059
  544MOL0     H73388   7.670   8.802   4.503 -3.6570 -4.4879 -3.5145
  544MOL0     H73389   7.407   8.964   4.502 -2.9652 -2.7517  0.4295
  544MOL0     H73390   7.461   8.861   4.627 -3.1592  1.7297 -0.2148
  544MOL0     H73391   7.390   8.592   4.592  0.2376 -0.3079  0.9363
  544MOL0     H73392   7.240   8.400   4.307 -2.6748 -1.7192  2.0242
  544MOL0     H73393   7.392   8.362   4.396 -0.8737 -1.1227  0.4048
  544MOL0     H73394   7.120   8.399   4.524  0.6628  2.9183  0.0269
  544MOL0     H73395   7.255   8.415   4.617 -0.7155 -0.4441 -0.0052
  544MOL0     H73396   7.141   8.189   4.441 -2.5119  2.8615  0.2413
  544MOL0     H73397   7.150   8.184   4.609  2.0694 -2.1583  1.0874
  544MOL0     H73398   7.404   8.156   4.448  0.3501 -0.6629  0.8556
  544MOL0     H73399   7.297   8.025   4.503  0.3669 -1.1017 -0.4634
  544MOL0     H73400   7.226   7.920   4.675 -0.6579 -0.3338 -0.4136
  544MOL0     H73401   7.155   7.700   4.930  0.3760 -0.2936  0.4253
  544MOL0     H73402   7.029   7.806   4.856 -0.1190  0.0408 -0.7156
  544MOL0     H73403   7.145   7.735   4.754  1.0915  0.9979 -0.7387
  544MOL0     H73404   7.300   8.085   5.467  1.6490  0.4784  1.2281
  544MOL0     H73405   7.333   7.981   5.696  1.5613  0.0507 -0.4987
  544MOL0     H73406   7.232   7.830   5.873 -2.9546  1.2429 -1.5395
  544MOL0     H73407   7.150   7.692   5.792  0.6087 -1.9152  0.0882
  544MOL0     H73408   7.228   7.536   5.962  0.1899 -0.2380  1.1279
  544MOL0     H73409   7.378   7.637   5.973  0.1669 -1.5500  0.0649
  544MOL0     H73410   7.235   7.810   6.075 -0.9298  0.6024 -4.2481
  544MOL0     H73411   7.274   7.654   6.167  2.8782 -1.1540 -3.0440
  544MOL0     H73412   7.019   7.728   6.034  1.6668  0.8528 -0.4533
  544MOL0     H73413   7.049   7.568   6.076 -0.5942 -0.0163 -1.0081
  544MOL0     H73414   7.054   7.787   6.287  3.0297 -0.9091  1.5937
  544MOL0     H73415   7.093   7.625   6.323  2.6547  1.1862 -1.4194
  544MOL0     H73416   6.815   7.708   6.213 -1.8811  0.9990  1.3155
  544MOL0     H73417   6.885   7.543   6.229  1.9976  0.2895 -0.3574
  544MOL0     H73418   6.827   7.735   6.462  0.0966  0.7357  0.2864
  544MOL0     H73419   6.915   7.579   6.461  0.0875 -4.0617 -1.6454
  544MOL0     H73420   6.648   7.597   6.513 -0.2345 -0.7159 -0.1788
  544MOL0     H73421   6.671   7.482   6.387  2.7720 -0.9499 -0.2837
  544MOL0     H73422   7.333   7.586   5.548 -3.6481 -1.2727  2.1039
  544MOL0     H73423   7.348   7.676   5.321  1.9926  1.3264 -0.8697
  544MOL0     H73424   7.446   8.053   5.084  2.2282 -3.3972 -0.0532
  544MOL0     H73425   7.486   8.196   4.880 -1.1100  0.8979 -0.1627
  544MOL0     H73426   7.745   8.719   5.154 -0.3021  0.8939 -0.8659
  544MOL0     H73427   7.691   8.652   5.375 -0.3963 -0.0235 -2.6289
  544MOL0     H73428   7.738   8.380   5.817  0.0569 -0.4393  0.1591
  544MOL0     H73429   7.850   8.304   6.015  1.5137 -3.8806 -4.2317
  544MOL0     H73430   7.993   8.506   6.342 -0.0258 -2.8322  2.8356
  544MOL0     H73431   7.855   8.488   6.235 -0.6798  0.7225  1.4420
  544MOL0     H73432   7.891   8.249   6.202  2.4847 -1.8008  0.6540
  544MOL0     H73433   7.844   8.290   6.364 -1.6221  0.5062 -2.1700
  544MOL0     H73434   8.134   8.225   6.280  1.3103 -0.1526  2.8963
  544MOL0     H73435   8.023   8.116   6.343  0.6523 -1.0103 -1.5483
  544MOL0     H73436   8.002   8.265   6.551  0.6994 -1.6523  0.6428
  544MOL0     H73437   8.147   8.355   6.475  0.8378 -0.2946 -1.3962
  544MOL0     H73438   8.281   8.022   6.687 -0.6005  0.8498  0.8745
  544MOL0     H73439   8.108   8.659   6.009  3.1385 -2.2612 -2.2736
  544MOL0     H73440   7.991   8.737   5.792 -0.6903  1.0053 -0.5784
  545MOL0     O73441   8.355   6.421  10.184  0.6494 -0.6899  0.0200
  545MOL0     C73442   8.293   6.344  10.257  0.8231  0.4934  0.8822
  545MOL0     O73443   8.191   6.269  10.205  0.0502  0.2655 -0.9080
  545MOL0     C73444   8.181   6.239  10.076 -0.2065 -0.5095  1.4742
  545MOL0     C73445   8.058   6.246  10.025 -0.0561  0.4696  0.2941
  545MOL0     C73446   8.034   6.218   9.887  0.3676 -0.0289  0.9485
  545MOL0     C73447   8.136   6.204   9.800  0.6752  0.8529  0.0222
  545MOL0     O73448   8.109   6.186   9.669  0.5183 -0.0121 -0.3086
  545MOL0     C73449   8.098   6.047   9.635 -0.3104 -0.0950 -0.6218
  545MOL0     C73450   8.066   6.040   9.484 -0.1981  0.3263  1.3934
  545MOL0     C73451   8.025   5.909   9.419  0.9239  0.5172  0.7313
  545MOL0     C73452   7.887   5.858   9.468  0.0221  0.1607  0.3651
  545MOL0     C73453   7.854   5.725   9.386 -0.2448 -0.6914 -0.3554
  545MOL0     C73454   7.725   5.657   9.436  0.1758 -0.3781  0.7101
  545MOL0     C73455   7.692   5.531   9.354 -0.1086  0.0985 -0.9725
  545MOL0     C73456   7.567   5.450   9.409  0.5879 -0.7806  0.1493
  545MOL0     N73457   7.568   5.440   9.555  0.2654  0.6923  0.3169
  545MOL0     C73458   7.467   5.493   9.638 -0.7019  0.2535 -0.8295
  545MOL0     C73459   7.488   5.434   9.762  0.6121  0.4843  0.2506
  545MOL0     C73460   7.407   5.471   9.884  0.7210 -0.0263  0.1777
  545MOL0     C73461   7.371   5.329   9.947  0.2095 -0.7822 -0.4095
  545MOL0     C73462   7.279   5.248   9.861 -0.7753 -0.1309 -0.3102
  545MOL0     C73463   7.236   5.117   9.929 -0.3067  0.4565 -0.4463
  545MOL0     O73464   7.137   5.057   9.836 -0.7617 -0.3765  0.1157
  545MOL0     C73465   7.003   5.067   9.858  0.3988 -0.9131 -0.2424
  545MOL0     C73466   6.909   5.005   9.775  0.6302 -0.5606  0.0075
  545MOL0     C73467   6.774   5.031   9.789  0.6890  0.5923  0.0890
  545MOL0     C73468   6.683   4.956   9.690 -0.8489  0.6801  0.6163
  545MOL0     C73469   6.728   5.122   9.889 -0.3141 -0.7294 -0.0655
  545MOL0     C73470   6.588   5.161   9.908  0.7333  0.0691 -0.4186
  545MOL0     O73471   6.533   5.143  10.040  0.3470  0.7687  0.3403
  545MOL0     C73472   6.399   5.162  10.072 -0.1028 -0.7533  0.2899
  545MOL0     C73473   6.335   5.285  10.053  0.3823 -0.0846 -0.1596
  545MOL0     C73474   6.205   5.312  10.100  0.3571 -0.0103  0.8493
  545MOL0     C73475   6.132   5.212  10.164 -0.0562 -0.8882 -0.5239
  545MOL0     O73476   5.996   5.231  10.199 -0.3612 -0.7463  0.1415
  545MOL0     C73477   5.934   5.132  10.283  0.0376 -0.1733  0.2339
  545MOL0     C73478   5.794   5.178  10.335 -0.5165 -0.3460  0.4108
  545MOL0     C73479   5.709   5.224  10.215  0.0821 -0.5165  0.7541
  545MOL0     C73480   5.557   5.250  10.251 -0.4491  0.4395  0.8607
  545MOL0     C73481   5.476   5.310  10.143  0.1772  0.8476 -0.0154
  545MOL0     C73482   5.354   5.396  10.209 -0.5313 -0.3699  0.5581
  545MOL0     C73483   5.267   5.454  10.096  0.6135  0.1389  0.2749
  545MOL0     C73484   5.145   5.534  10.142 -0.3423  0.9178  0.7413
  545MOL0    Cl73485   5.061   5.437  10.267  0.2551  0.3128 -0.3515
  545MOL0     C73486   6.193   5.092  10.187 -0.3927  0.9289 -0.1027
  545MOL0     C73487   6.333   5.073  10.157  0.5588  0.7276 -0.4180
  545MOL0     O73488   6.528   5.224   9.817 -0.4668  0.7538 -0.0226
  545MOL0     C73489   6.817   5.175   9.981 -0.2669 -0.5936  0.5379
  545MOL0     C73490   6.949   5.144   9.963 -0.0943  0.3275 -0.2393
  545MOL0     N73491   7.592   5.356   9.758 -0.4479  0.3408 -0.1890
  545MOL0     N73492   7.652   5.369   9.637 -0.1726 -0.7916  0.2141
  545MOL0     C73493   8.259   6.172   9.854 -0.3707 -0.2924 -0.2505
  545MOL0     C73494   8.294   6.199   9.992 -0.8664  0.6917  0.0876
  545MOL0     C73495   8.319   6.334  10.406  0.3413  0.2551  0.2788
  545MOL0     C73496   8.250   6.240  10.478  0.6931 -1.0021  0.1728
  545MOL0     C73497   8.268   6.241  10.621  0.2369 -0.5036  0.3592
  545MOL0     C73498   8.344   6.347  10.682  0.0049 -0.5628 -0.0022
  545MOL0     O73499   8.343   6.364  10.822 -0.5033  0.0864  0.3763
  545MOL0     C73500   8.282   6.262  10.909 -0.3185 -0.3051  0.2585
  545MOL0     C73501   8.368   6.134  10.903 -0.1228  0.7305 -1.6724
  545MOL0     C73502   8.326   6.034  11.012  0.3013  0.4373  1.1488
  545MOL0     C73503   8.421   6.015  11.129 -0.4004 -0.5854 -0.5564
  545MOL0     C73504   8.396   5.898  11.215 -0.1761  0.5122  0.4358
  545MOL0     C73505   8.373   5.814  11.306 -0.2177 -0.7550  0.2306
  545MOL0     C73506   8.411   6.436  10.602 -1.2023 -0.2638  0.2184
  545MOL0     C73507   8.404   6.421  10.468  0.0149 -0.1105 -0.1135
  545MOL0     H73508   7.978   6.276  10.092 -2.6095 -2.0618 -1.3966
  545MOL0     H73509   7.935   6.231   9.844 -0.8967 -1.9524  3.0509
  545MOL0     H73510   8.195   5.997   9.645 -0.7560 -0.6711  1.1174
  545MOL0     H73511   8.023   6.001   9.700  0.4844  1.9753  1.8714
  545MOL0     H73512   8.000   6.116   9.440 -0.4293 -0.0721  1.0482
  545MOL0     H73513   8.164   6.056   9.439 -0.5496  0.6562  0.7183
  545MOL0     H73514   8.026   5.923   9.310 -1.9371 -0.4344  0.4902
  545MOL0     H73515   8.102   5.838   9.450 -0.0249 -0.5798  0.6466
  545MOL0     H73516   7.884   5.849   9.577  0.7475 -0.0157  0.3750
  545MOL0     H73517   7.814   5.937   9.446  1.3868  1.0597 -1.1189
  545MOL0     H73518   7.857   5.749   9.279 -1.3675 -0.0630 -0.2561
  545MOL0     H73519   7.924   5.642   9.399 -0.3028 -0.5505  1.0562
  545MOL0     H73520   7.749   5.627   9.539  1.8650 -1.3186  0.0773
  545MOL0     H73521   7.639   5.725   9.429  1.0718  0.7828  0.6439
  545MOL0     H73522   7.675   5.555   9.248 -0.9882 -2.4768 -1.4919
  545MOL0     H73523   7.779   5.466   9.367  1.7415  2.5588 -0.5610
  545MOL0     H73524   7.557   5.353   9.360 -1.2044 -1.9486  2.5962
  545MOL0     H73525   7.477   5.504   9.376  0.5953 -0.9735 -0.1920
  545MOL0     H73526   7.390   5.562   9.608 -2.7433 -1.7168 -0.4278
  545MOL0     H73527   7.460   5.539   9.952  2.0103 -0.5136 -0.3202
  545MOL0     H73528   7.315   5.521   9.853  0.7814  0.5213  0.8467
  545MOL0     H73529   7.333   5.345  10.049  0.6115  1.1989 -0.5185
  545MOL0     H73530   7.466   5.277   9.962  0.9879 -0.7584 -4.2629
  545MOL0     H73531   7.336   5.218   9.772  1.2607 -2.0917  1.5296
  545MOL0     H73532   7.186   5.303   9.843 -1.5782 -1.2362  0.4134
  545MOL0     H73533   7.209   5.124  10.035 -0.5447  0.6063 -0.5191
  545MOL0     H73534   7.320   5.047   9.926  0.5681  1.2652  2.1996
  545MOL0     H73535   6.947   4.941   9.696 -0.7300 -0.4229 -0.7882
  545MOL0     H73536   6.747   4.873   9.656  0.2301  1.8689 -0.3440
  545MOL0     H73537   6.590   4.914   9.729 -0.2450 -1.2985  0.0509
  545MOL0     H73538   6.661   5.015   9.601  2.8469 -0.1326 -1.0039
  545MOL0     H73539   6.399   5.367  10.022  2.1700  0.2404  3.7274
  545MOL0     H73540   6.163   5.411  10.082 -0.8889  0.3881  4.9581
  545MOL0     H73541   5.913   5.035  10.236  0.1646 -0.0879 -0.0044
  545MOL0     H73542   6.000   5.099  10.364  2.3337  0.9250 -1.0689
  545MOL0     H73543   5.757   5.088  10.385 -0.3657 -1.5782 -1.5845
  545MOL0     H73544   5.804   5.258  10.408  1.8320 -0.0519 -0.1719
  545MOL0     H73545   5.714   5.158  10.127  2.2652 -1.6165  1.6393
  545MOL0     H73546   5.753   5.320  10.187 -1.2805 -0.2258 -0.5345
  545MOL0     H73547   5.511   5.159  10.290  1.1675 -0.2924  1.1706
  545MOL0     H73548   5.555   5.323  10.332 -0.3682  0.8773  0.4691
  545MOL0     H73549   5.429   5.238  10.075  2.5741  0.2335 -1.1156
  545MOL0     H73550   5.542   5.369  10.079 -1.5460  0.4893 -2.2690
  545MOL0     H73551   5.307   5.321  10.274  0.2911 -1.6557 -0.2702
  545MOL0     H73552   5.403   5.475  10.265  1.1418 -0.5671 -0.5593
  545MOL0     H73553   5.217   5.366  10.054 -2.9745  2.1753 -0.1572
  545MOL0     H73554   5.314   5.497  10.007 -2.1865  0.1115 -1.3588
  545MOL0     H73555   5.075   5.547  10.059  1.3833 -2.5047 -1.5067
  545MOL0     H73556   5.182   5.629  10.181  0.4160  2.9267 -4.1496
  545MOL0     H73557   6.149   5.011  10.245  3.4723  0.3962  2.4243
  545MOL0     H73558   6.369   4.979  10.198 -2.2026 -0.7053 -1.0322
  545MOL0     H73559   6.799   5.240  10.066  1.3675  1.6951 -0.7569
  545MOL0     H73560   7.011   5.190  10.039  0.2840 -0.4489 -0.0686
  545MOL0     H73561   8.346   6.149   9.794 -1.1916 -0.4688 -1.4055
  545MOL0     H73562   8.392   6.184  10.036 -0.6516  1.2186 -0.2085
  545MOL0     H73563   8.179   6.169  10.437 -1.6255 -0.0380  2.2285
  545MOL0     H73564   8.216   6.162  10.674 -2.0710 -0.3311 -1.5350
  545MOL0     H73565   8.272   6.300  11.011  1.1046  1.2384 -0.1435
  545MOL0     H73566   8.178   6.247  10.877 -0.6182  3.7442 -1.1250
  545MOL0     H73567   8.473   6.163  10.917 -0.3245  0.8528 -0.2255
  545MOL0     H73568   8.362   6.087  10.805  1.3731 -0.7408 -1.1073
  545MOL0     H73569   8.311   5.941  10.956  3.0237  1.3123 -1.2629
  545MOL0     H73570   8.230   6.068  11.052  1.8465  2.0132  3.8032
  545MOL0     H73571   8.418   6.105  11.192 -1.1104 -1.4520  0.6998
  545MOL0     H73572   8.525   6.010  11.097 -0.4279 -2.3825 -0.4436
  545MOL0     H73573   8.350   5.728  11.366 -1.7451  0.3091  1.2381
  545MOL0     H73574   8.462   6.520  10.648 -1.6430  0.7666 -1.1009
  545MOL0     H73575   8.465   6.497  10.420 -2.1977  2.1080  0.4256
  546MOL0     O73576   2.352  11.343   7.983  0.0152  0.4635  0.0663
  546MOL0     C73577   2.386  11.460   8.016 -1.0018  0.6889 -0.4532
  546MOL0     O73578   2.512  11.517   8.009 -0.0610  1.1445  0.6888
  546MOL0     C73579   2.628  11.445   7.996 -0.2573  0.6074 -0.1371
  546MOL0     C73580   2.644  11.301   7.971 -0.4725  0.1865  0.2042
  546MOL0     C73581   2.768  11.246   7.938 -0.0036 -0.2522 -0.5976
  546MOL0     C73582   2.878  11.327   7.926  0.7244 -0.2573 -0.5998
  546MOL0     O73583   2.997  11.272   7.904  0.8013  0.2363  0.2385
  546MOL0     C73584   3.033  11.263   7.771 -0.6387 -0.1516 -0.0167
  546MOL0     C73585   3.057  11.397   7.699  0.4513  0.5682 -0.6496
  546MOL0     C73586   3.062  11.378   7.547  0.0165  0.5011 -0.0174
  546MOL0     C73587   3.198  11.349   7.497 -0.4004 -0.6732  0.4170
  546MOL0     C73588   3.200  11.302   7.355 -0.4633 -0.1715 -0.0742
  546MOL0     C73589   3.331  11.238   7.311  0.1188  0.3395 -0.4206
  546MOL0     C73590   3.321  11.195   7.159  0.5166 -0.4891 -0.7278
  546MOL0     C73591   3.432  11.108   7.093 -0.0420 -0.4028 -0.6882
  546MOL0     N73592   3.565  11.169   7.115 -0.2538  0.3783 -0.2926
  546MOL0     C73593   3.613  11.282   7.057 -0.8199  0.8258 -0.1484
  546MOL0     C73594   3.728  11.309   7.129 -0.1848 -0.0717  0.2638
  546MOL0     C73595   3.815  11.423   7.121 -1.0021  0.0284 -0.0287
  546MOL0     C73596   3.964  11.377   7.134 -0.6938 -0.4802 -0.5529
  546MOL0     C73597   4.061  11.481   7.068 -0.4879 -0.5811 -0.9107
  546MOL0     C73598   4.194  11.427   7.059 -0.4119  0.6615  0.1451
  546MOL0     O73599   4.280  11.530   7.025  0.2402 -0.3546  0.2614
  546MOL0     C73600   4.404  11.497   6.967  0.8923  1.0744 -0.0717
  546MOL0     C73601   4.472  11.596   6.893 -0.0891 -0.3351  0.2936
  546MOL0     C73602   4.601  11.584   6.835  0.6214  0.6813  0.9354
  546MOL0     C73603   4.670  11.703   6.771  0.5777 -0.5612 -0.8384
  546MOL0     C73604   4.660  11.453   6.848 -0.8356 -0.1509 -0.5597
  546MOL0     C73605   4.793  11.427   6.785  0.2855  0.4441  0.7005
  546MOL0     O73606   4.809  11.459   6.660 -0.5061 -0.2268  0.9385
  546MOL0     C73607   4.905  11.416   6.572 -1.3267  0.5774 -0.0090
  546MOL0     C73608   4.903  11.470   6.438  0.7395 -0.2027 -0.2907
  546MOL0     C73609   5.008  11.447   6.351 -0.4905  0.0298 -0.0317
  546MOL0     C73610   5.124  11.370   6.388  0.7730 -0.4151 -0.7223
  546MOL0     O73611   5.203  11.345   6.281  0.3019 -0.4389 -0.1769
  546MOL0     C73612   5.324  11.274   6.298  0.0537 -0.4971 -0.1085
  546MOL0     C73613   5.385  11.220   6.167 -0.8524 -0.1620 -0.1184
  546MOL0     C73614   5.541  11.226   6.175  0.7408 -0.3979 -0.3232
  546MOL0     C73615   5.605  11.181   6.041  0.3252  0.5109  0.3474
  546MOL0     C73616   5.738  11.249   6.021  0.3458  0.1166 -1.2656
  546MOL0     C73617   5.725  11.379   5.948  0.4403  0.6146  0.0058
  546MOL0     C73618   5.846  11.441   5.880 -0.7724 -0.5607  0.1141
  546MOL0     C73619   5.810  11.567   5.784 -0.5115 -0.1834 -0.5005
  546MOL0    Cl73620   5.722  11.696   5.877  0.1568 -0.1392 -0.1723
  546MOL0     C73621   5.132  11.311   6.516  0.6985 -0.3949 -0.2156
  546MOL0     C73622   5.024  11.336   6.607 -0.2964  1.0017 -0.5809
  546MOL0     O73623   4.875  11.357   6.850  1.3894 -0.5514  0.1958
  546MOL0     C73624   4.590  11.352   6.916 -0.6633 -0.2449 -0.9235
  546MOL0     C73625   4.468  11.374   6.982 -0.4414 -0.1500 -0.5521
  546MOL0     N73626   3.736  11.218   7.235 -0.3725  0.3120  0.0508
  546MOL0     N73627   3.644  11.124   7.215  0.2351 -0.7022  0.5872
  546MOL0     C73628   2.871  11.464   7.949  0.0912 -1.0053  0.4034
  546MOL0     C73629   2.745  11.520   7.987  0.2918  1.0431  0.1031
  546MOL0     C73630   2.286  11.552   8.062 -0.5841 -0.4102  0.5371
  546MOL0     C73631   2.147  11.517   8.068  0.7212  0.0534  1.0213
  546MOL0     C73632   2.051  11.620   8.087 -0.3564 -0.2213  0.0263
  546MOL0     C73633   2.099  11.750   8.119  1.1562 -0.5605 -0.1003
  546MOL0     O73634   2.020  11.852   8.134  0.3354 -0.2492 -0.4885
  546MOL0     C73635   1.949  11.895   8.013 -0.4474  0.5194  1.0114
  546MOL0     C73636   2.026  11.973   7.919  0.0979  0.4122  0.9513
  546MOL0     C73637   1.950  11.998   7.785  0.6550 -0.5097  0.1877
  546MOL0     C73638   1.901  12.140   7.751 -0.6760 -0.3322 -0.2543
  546MOL0     C73639   1.836  12.210   7.861 -0.2827 -0.3995  0.1152
  546MOL0     C73640   1.781  12.268   7.952 -0.1515  0.3359  0.7088
  546MOL0     C73641   2.230  11.783   8.135  0.9241  0.8722  0.3309
  546MOL0     C73642   2.326  11.687   8.095  0.7521 -0.0206  0.3646
  546MOL0     H73643   2.563  11.229   7.982 -0.4514  0.1737  0.2742
  546MOL0     H73644   2.778  11.138   7.926  1.7189 -0.0279 -1.5250
  546MOL0     H73645   3.113  11.190   7.758 -1.9037 -1.6820  0.4665
  546MOL0     H73646   2.954  11.221   7.707 -0.1644 -1.9488  0.5180
  546MOL0     H73647   2.974  11.467   7.713 -0.9688 -1.1372 -0.0457
  546MOL0     H73648   3.147  11.439   7.744  0.1183  0.4464  0.1620
  546MOL0     H73649   2.990  11.305   7.510  0.4679 -0.0170  0.1145
  546MOL0     H73650   3.030  11.471   7.500  1.1506 -0.2139 -2.3566
  546MOL0     H73651   3.260  11.439   7.510 -0.4177 -0.3265 -1.5457
  546MOL0     H73652   3.232  11.269   7.563 -2.5313 -1.6947  0.3458
  546MOL0     H73653   3.124  11.230   7.325 -0.5509 -1.0892  2.1513
  546MOL0     H73654   3.184  11.396   7.302 -1.9905 -0.4967 -0.2327
  546MOL0     H73655   3.404  11.320   7.305  0.6109 -0.2177 -3.6778
  546MOL0     H73656   3.367  11.158   7.377  1.3527  1.2898  0.1055
  546MOL0     H73657   3.223  11.147   7.153  1.0798 -1.6899 -0.6300
  546MOL0     H73658   3.320  11.291   7.106  1.6601 -0.7412 -1.2368
  546MOL0     H73659   3.417  11.093   6.986 -1.6119  3.2130 -1.1376
  546MOL0     H73660   3.430  11.006   7.133 -0.8705 -0.8098 -1.7238
  546MOL0     H73661   3.574  11.341   6.975  0.4837  1.3911 -0.3987
  546MOL0     H73662   3.813  11.480   7.027  2.0737 -1.5337 -1.1977
  546MOL0     H73663   3.804  11.487   7.209 -1.4145 -1.9080  1.3847
  546MOL0     H73664   3.988  11.279   7.091 -0.2420 -1.4670  1.8165
  546MOL0     H73665   3.983  11.363   7.240  0.8695  1.3694 -0.5241
  546MOL0     H73666   4.084  11.565   7.134 -0.4906 -0.1487 -1.4615
  546MOL0     H73667   4.028  11.520   6.971 -0.8379 -0.6298 -0.8133
  546MOL0     H73668   4.191  11.354   6.977 -3.3137  2.3534 -1.4094
  546MOL0     H73669   4.243  11.388   7.149  1.8596 -1.2704 -1.7615
  546MOL0     H73670   4.440  11.699   6.899  2.2998  0.4556  0.4847
  546MOL0     H73671   4.643  11.789   6.833 -0.1636 -0.6449 -1.0331
  546MOL0     H73672   4.779  11.694   6.776  0.6536  0.3637 -0.7595
  546MOL0     H73673   4.648  11.717   6.665  0.0533  0.3180 -0.6217
  546MOL0     H73674   4.814  11.524   6.407 -0.9847 -1.1750  2.5825
  546MOL0     H73675   5.010  11.494   6.253  1.0971 -3.9695 -2.1459
  546MOL0     H73676   5.398  11.340   6.345  1.3428 -1.9025 -0.0844
  546MOL0     H73677   5.302  11.186   6.359 -0.3837  0.5942  1.3801
  546MOL0     H73678   5.354  11.117   6.150 -4.2495  0.6990  0.2172
  546MOL0     H73679   5.366  11.279   6.076 -0.4474  2.9239  1.6454
  546MOL0     H73680   5.567  11.154   6.253 -1.6866 -0.8577  0.1425
  546MOL0     H73681   5.576  11.323   6.211 -0.9283 -0.5815  2.0239
  546MOL0     H73682   5.612  11.072   6.042 -2.9303  0.2063 -0.7141
  546MOL0     H73683   5.533  11.201   5.961  0.1582 -2.6491 -0.4183
  546MOL0     H73684   5.807  11.180   5.971  0.5065  1.2089 -2.6072
  546MOL0     H73685   5.783  11.268   6.119 -2.7082 -1.6813  0.6328
  546MOL0     H73686   5.642  11.361   5.879 -2.2248  1.6843  2.7103
  546MOL0     H73687   5.680  11.459   6.007 -0.7213  0.0668 -0.1072
  546MOL0     H73688   5.910  11.363   5.837  3.4669  2.8005 -0.4069
  546MOL0     H73689   5.905  11.489   5.959 -2.0998  2.2101 -0.4882
  546MOL0     H73690   5.740  11.523   5.712 -2.0398 -0.6757  1.2294
  546MOL0     H73691   5.890  11.612   5.723 -1.9779  1.6021 -1.1686
  546MOL0     H73692   5.214  11.248   6.549  2.5437  1.7393 -0.5238
  546MOL0     H73693   5.033  11.271   6.694  0.3813  0.4480 -1.0510
  546MOL0     H73694   4.638  11.255   6.922 -0.2755 -0.0840 -1.3667
  546MOL0     H73695   4.422  11.289   7.031 -0.7267  0.2732 -0.0685
  546MOL0     H73696   2.957  11.527   7.931 -2.4244  2.5529 -0.1195
  546MOL0     H73697   2.733  11.627   7.994 -2.1790  0.9831 -1.8528
  546MOL0     H73698   2.121  11.414   8.045 -1.3689  0.9378 -1.0675
  546MOL0     H73699   1.944  11.601   8.079  0.1160 -2.4944 -2.0416
  546MOL0     H73700   1.914  11.800   7.973  1.0426 -1.0885  3.2533
  546MOL0     H73701   1.857  11.953   8.026 -1.9826 -0.1890 -4.4067
  546MOL0     H73702   2.113  11.916   7.887 -2.3896 -2.2293 -1.8354
  546MOL0     H73703   2.065  12.064   7.965 -0.8943 -0.4836  3.8134
  546MOL0     H73704   1.854  11.945   7.784 -0.2442  0.9350  2.1846
  546MOL0     H73705   2.009  11.948   7.708  1.9938 -3.6472  2.9847
  546MOL0     H73706   1.835  12.127   7.664 -1.0235 -3.6620  0.3464
  546MOL0     H73707   1.984  12.202   7.718  0.4295 -0.8322  1.4268
  546MOL0     H73708   1.730  12.329   8.023  4.4037  5.1679  0.4016
  546MOL0     H73709   2.264  11.881   8.167  0.0588  1.0253  0.8014
  546MOL0     H73710   2.423  11.728   8.071  1.0008 -1.3336 -1.0657
  547MOL0     O73711   7.207   1.232   4.064 -0.5874  0.5603  0.1955
  547MOL0     C73712   7.307   1.257   4.134  0.1639  1.6960  0.4967
  547MOL0     O73713   7.295   1.275   4.264 -0.0596  0.1569  0.1935
  547MOL0     C73714   7.171   1.291   4.321 -0.7227  0.4062 -0.1860
  547MOL0     C73715   7.114   1.412   4.306 -0.2861 -0.6402 -0.4065
  547MOL0     C73716   6.979   1.446   4.338 -0.1351 -0.3047  0.3513
  547MOL0     C73717   6.895   1.339   4.374  0.3728 -0.1708  0.2162
  547MOL0     O73718   6.758   1.359   4.378  1.1255  0.6189  0.4994
  547MOL0     C73719   6.716   1.424   4.502  0.2574 -0.4790 -0.0096
  547MOL0     C73720   6.598   1.523   4.482 -0.7982 -0.5279 -0.2698
  547MOL0     C73721   6.637   1.639   4.394  0.3332 -0.8276  0.2019
  547MOL0     C73722   6.527   1.753   4.380  0.3087  0.8370  0.0033
  547MOL0     C73723   6.515   1.845   4.513 -0.1012  1.1264 -0.5665
  547MOL0     C73724   6.408   1.954   4.478 -0.5330 -0.3804  0.3457
  547MOL0     C73725   6.405   2.056   4.596 -0.1607  0.2737  0.2664
  547MOL0     C73726   6.523   2.150   4.613 -0.0261 -0.7611 -0.0603
  547MOL0     N73727   6.521   2.204   4.751 -0.3101  0.2644  1.0019
  547MOL0     C73728   6.526   2.128   4.860 -0.3199  0.6578  0.0060
  547MOL0     C73729   6.469   2.194   4.967  0.1604  0.4110  1.1727
  547MOL0     C73730   6.455   2.132   5.105 -0.1887 -0.8693  0.9559
  547MOL0     C73731   6.327   2.164   5.184 -0.0719  0.0267  0.3963
  547MOL0     C73732   6.319   2.310   5.218 -1.1825  0.4409  0.9003
  547MOL0     C73733   6.196   2.321   5.299 -0.2059 -0.1614  0.1377
  547MOL0     O73734   6.201   2.248   5.431  0.3393  0.1480  0.7323
  547MOL0     C73735   6.080   2.228   5.496 -0.5821  0.2881 -0.4178
  547MOL0     C73736   6.083   2.137   5.606 -0.2618 -0.9334 -0.8655
  547MOL0     C73737   5.970   2.107   5.682 -0.4603  0.0012  0.0326
  547MOL0     C73738   5.996   2.000   5.781 -0.3878 -0.3331  0.5593
  547MOL0     C73739   5.841   2.174   5.647 -0.4137 -0.2214  1.3723
  547MOL0     C73740   5.713   2.153   5.715  0.3852  0.6672 -0.1044
  547MOL0     O73741   5.594   2.203   5.654 -0.2786 -0.1636 -0.1189
  547MOL0     C73742   5.484   2.229   5.721  0.7308  0.5765 -0.2681
  547MOL0     C73743   5.418   2.138   5.818 -0.2595 -0.3541  0.0849
  547MOL0     C73744   5.300   2.192   5.880 -0.7768  0.9795  0.3117
  547MOL0     C73745   5.248   2.321   5.852  0.0698  1.1481  0.8271
  547MOL0     O73746   5.121   2.350   5.898  0.7524  0.2940 -0.1305
  547MOL0     C73747   5.113   2.480   5.970 -0.9620  0.9135 -0.0656
  547MOL0     C73748   4.978   2.497   6.037  0.4014 -0.1304  0.0000
  547MOL0     C73749   4.939   2.390   6.143 -0.5570  0.0895 -0.8731
  547MOL0     C73750   4.798   2.399   6.184 -0.0534  0.4672 -0.1772
  547MOL0     C73751   4.759   2.277   6.269 -0.4086  0.0161  0.0739
  547MOL0     C73752   4.626   2.300   6.330 -0.2335 -0.0833  0.2553
  547MOL0     C73753   4.575   2.177   6.413 -0.4661  0.1993 -0.7089
  547MOL0     C73754   4.423   2.157   6.396 -0.0719  0.3306 -0.1640
  547MOL0    Cl73755   4.318   2.294   6.433  0.3940 -0.0245 -0.0342
  547MOL0     C73756   5.314   2.401   5.762  0.4776  0.2458 -0.4207
  547MOL0     C73757   5.423   2.352   5.692 -0.4900  0.3281 -0.0497
  547MOL0     O73758   5.715   2.085   5.822 -0.0888 -0.8904 -0.5180
  547MOL0     C73759   5.841   2.274   5.543  0.4676  0.4312  0.3406
  547MOL0     C73760   5.959   2.300   5.472 -0.0949  0.6407 -0.2658
  547MOL0     N73761   6.423   2.311   4.917  0.1319 -0.2837  0.5862
  547MOL0     N73762   6.449   2.318   4.789  0.1400  0.8154 -0.5623
  547MOL0     C73763   6.958   1.214   4.402 -1.4653  0.8718  0.1533
  547MOL0     C73764   7.096   1.189   4.374  0.5707  0.1269  1.0792
  547MOL0     C73765   7.442   1.237   4.066  0.0775  0.9329 -0.8904
  547MOL0     C73766   7.554   1.308   4.125  0.1360 -0.3239  0.0958
  547MOL0     C73767   7.670   1.309   4.056  0.0190 -0.0747 -0.3831
  547MOL0     C73768   7.682   1.237   3.934 -0.3748 -1.7889 -0.0022
  547MOL0     O73769   7.801   1.242   3.860 -0.5020  0.2311 -0.4050
  547MOL0     C73770   7.850   1.370   3.830  0.5601 -0.1539 -0.0246
  547MOL0     C73771   7.883   1.361   3.674  0.2087 -0.6306  0.5369
  547MOL0     C73772   7.754   1.362   3.591 -1.2342 -0.2612 -0.2956
  547MOL0     C73773   7.785   1.375   3.438 -0.2928  0.0596 -1.0379
  547MOL0     C73774   7.739   1.254   3.362 -0.3323 -1.1793 -0.6016
  547MOL0     C73775   7.713   1.164   3.283 -0.8481  0.0961 -0.0399
  547MOL0     C73776   7.571   1.172   3.874 -0.5953 -0.4017 -0.4514
  547MOL0     C73777   7.456   1.165   3.941  0.7088  0.3909  0.7194
  547MOL0     H73778   7.184   1.488   4.270 -0.1074  1.3433  3.5584
  547MOL0     H73779   6.950   1.550   4.333 -0.0102 -0.2164  1.2781
  547MOL0     H73780   6.676   1.355   4.577 -3.1621  1.2568 -0.0300
  547MOL0     H73781   6.800   1.485   4.538  0.7411 -0.2336 -1.4787
  547MOL0     H73782   6.510   1.469   4.447 -0.9215 -2.1747  2.2794
  547MOL0     H73783   6.556   1.567   4.573  0.2121 -3.1159  1.6013
  547MOL0     H73784   6.733   1.674   4.434  1.2139 -0.5702 -2.0421
  547MOL0     H73785   6.659   1.596   4.296  0.3777 -0.9229  0.2527
  547MOL0     H73786   6.561   1.805   4.289  0.0304 -0.5652 -0.9288
  547MOL0     H73787   6.429   1.711   4.356 -0.1260  2.1821 -0.7113
  547MOL0     H73788   6.476   1.777   4.588 -0.9944  2.1242 -0.1032
  547MOL0     H73789   6.604   1.881   4.566 -0.1492 -1.9181  1.8322
  547MOL0     H73790   6.424   1.997   4.379 -1.3224 -1.7263 -0.4013
  547MOL0     H73791   6.309   1.907   4.481 -0.9096  0.3854  0.2953
  547MOL0     H73792   6.318   2.121   4.599 -1.2195 -1.0478 -0.5720
  547MOL0     H73793   6.393   1.990   4.683  0.9217  0.6164  0.6898
  547MOL0     H73794   6.520   2.226   4.535 -0.8519  1.2170  1.7846
  547MOL0     H73795   6.614   2.089   4.608 -2.0567 -3.9050 -1.2267
  547MOL0     H73796   6.576   2.032   4.872  3.6777  2.8072  2.9830
  547MOL0     H73797   6.446   2.024   5.091 -0.6709 -0.5736 -1.4545
  547MOL0     H73798   6.551   2.145   5.157  3.0455  0.6188 -4.5154
  547MOL0     H73799   6.339   2.116   5.282 -2.2459 -1.0833  0.1802
  547MOL0     H73800   6.238   2.125   5.134 -0.5968  2.1619 -0.4226
  547MOL0     H73801   6.313   2.365   5.124  2.6015  2.1277  1.4587
  547MOL0     H73802   6.410   2.358   5.254 -0.9533 -0.3740  1.4394
  547MOL0     H73803   6.113   2.288   5.236 -0.0775 -0.6107  0.2047
  547MOL0     H73804   6.175   2.427   5.320  0.4919  0.0330 -0.1196
  547MOL0     H73805   6.177   2.084   5.614  0.7548  0.8167 -0.4984
  547MOL0     H73806   5.910   1.933   5.772 -0.7598  0.2450 -0.3230
  547MOL0     H73807   6.088   1.944   5.764  0.6111  1.2955  0.4092
  547MOL0     H73808   5.997   2.054   5.877  2.2262  0.4160  0.1927
  547MOL0     H73809   5.467   2.045   5.846  0.3337 -0.3569 -0.9396
  547MOL0     H73810   5.245   2.139   5.957 -3.9678  1.5471 -1.4103
  547MOL0     H73811   5.195   2.476   6.041  0.0308  0.7717 -1.1881
  547MOL0     H73812   5.126   2.561   5.897  0.7249  0.7927  0.0676
  547MOL0     H73813   4.980   2.589   6.095 -0.4983 -0.1366  0.0686
  547MOL0     H73814   4.901   2.510   5.960  2.6064  0.3970 -2.2635
  547MOL0     H73815   5.004   2.409   6.229 -2.7107 -0.4323  0.9352
  547MOL0     H73816   4.963   2.290   6.105 -1.9766 -0.0594 -1.4144
  547MOL0     H73817   4.776   2.494   6.232  2.0996  0.0585  1.8193
  547MOL0     H73818   4.741   2.405   6.091  0.7257 -0.6330 -0.7477
  547MOL0     H73819   4.834   2.254   6.345 -0.3836  0.3199  0.1438
  547MOL0     H73820   4.748   2.190   6.204 -1.3634  0.3207 -0.1899
  547MOL0     H73821   4.634   2.390   6.393 -1.2851 -2.4779  4.1754
  547MOL0     H73822   4.559   2.324   6.246  1.9717  0.9710 -1.2817
  547MOL0     H73823   4.582   2.187   6.522 -1.7553 -1.1112 -0.4667
  547MOL0     H73824   4.619   2.090   6.363 -0.1473  1.9007 -3.5871
  547MOL0     H73825   4.394   2.071   6.457  0.0760  1.4514  1.5659
  547MOL0     H73826   4.396   2.127   6.295  2.2659  0.6349 -0.9331
  547MOL0     H73827   5.272   2.497   5.736 -1.2809 -0.3552  0.0259
  547MOL0     H73828   5.475   2.408   5.616  2.7695 -2.8255 -0.4343
  547MOL0     H73829   5.751   2.326   5.510  2.2890  3.1097 -0.7392
  547MOL0     H73830   5.954   2.367   5.386 -1.0852  0.9897  0.0568
  547MOL0     H73831   6.908   1.122   4.432  0.5500  0.1394  1.4808
  547MOL0     H73832   7.156   1.100   4.383  3.1591  1.6001 -0.3643
  547MOL0     H73833   7.549   1.364   4.218  2.6812 -0.0444  0.1575
  547MOL0     H73834   7.760   1.354   4.097  2.9032 -3.6688 -2.2807
  547MOL0     H73835   7.773   1.448   3.834 -0.8985 -0.9486 -5.1311
  547MOL0     H73836   7.936   1.391   3.894  1.9352 -0.7809 -1.5879
  547MOL0     H73837   7.929   1.261   3.673 -4.1393 -2.8549  1.1859
  547MOL0     H73838   7.951   1.445   3.659  0.0087 -0.8608 -2.1722
  547MOL0     H73839   7.687   1.444   3.619 -0.1674  0.1295  1.3194
  547MOL0     H73840   7.698   1.271   3.612  2.4415 -2.5311  0.6916
  547MOL0     H73841   7.891   1.393   3.421 -0.1017 -0.1958 -0.1417
  547MOL0     H73842   7.742   1.464   3.391  2.2258  2.6494  1.2236
  547MOL0     H73843   7.692   1.099   3.201 -0.4713 -1.5550  1.1114
  547MOL0     H73844   7.574   1.107   3.788 -0.5883 -0.4290 -0.4305
  547MOL0     H73845   7.370   1.108   3.909  2.1668  0.0840 -3.0698
  548MOL0     O73846   2.101   3.717  11.117 -0.1889 -0.1187 -0.2865
  548MOL0     C73847   2.165   3.610  11.143  1.2369 -0.7339  0.3405
  548MOL0     O73848   2.174   3.548  11.263 -0.6801  0.6937  0.0123
  548MOL0     C73849   2.085   3.583  11.358  0.3910  0.0802 -0.3351
  548MOL0     C73850   2.135   3.625  11.480 -0.8148  0.0185  1.0445
  548MOL0     C73851   2.055   3.643  11.593 -0.2393  0.7031 -0.4344
  548MOL0     C73852   1.911   3.632  11.586 -0.3286  1.0924 -0.4556
  548MOL0     O73853   1.820   3.647  11.682  0.5080  0.0817  0.3341
  548MOL0     C73854   1.868   3.668  11.815  0.1130 -0.9635  0.1910
  548MOL0     C73855   1.754   3.694  11.915 -0.7559 -0.0533 -0.2057
  548MOL0     C73856   1.795   3.797  12.023  1.6277  0.1442  0.0298
  548MOL0     C73857   1.903   3.727  12.111 -0.2880 -0.1043  0.6123
  548MOL0     C73858   1.960   3.823  12.220  0.6324  0.5415  0.2498
  548MOL0     C73859   2.036   3.750  12.328  0.5900  0.5013  0.2731
  548MOL0     C73860   2.174   3.706  12.279  0.6595  0.0214  0.1262
  548MOL0     C73861   2.234   3.596  12.361 -1.3460  0.2189 -0.6009
  548MOL0     N73862   2.380   3.571  12.326  0.5987  0.2787 -0.6300
  548MOL0     C73863   2.421   3.542  12.205 -0.1683  0.3761  0.4036
  548MOL0     C73864   2.542   3.489  12.220 -0.0941  0.0033  0.9968
  548MOL0     C73865   2.638   3.451  12.110 -1.2178  0.2623 -0.7864
  548MOL0     C73866   2.575   3.362  12.005  0.7530 -0.3746 -0.4510
  548MOL0     C73867   2.670   3.308  11.903  0.1246 -0.0167  0.7726
  548MOL0     C73868   2.763   3.415  11.841 -0.8434 -0.3954  0.3333
  548MOL0     O73869   2.686   3.533  11.795  0.0139  0.6450  0.1040
  548MOL0     C73870   2.754   3.636  11.740  0.8162  0.4894  0.8432
  548MOL0     C73871   2.892   3.648  11.720 -0.1517 -0.1595  0.2008
  548MOL0     C73872   2.955   3.751  11.679 -0.3310  0.5893 -0.0770
  548MOL0     C73873   3.104   3.735  11.640  0.3792  0.4053 -0.2979
  548MOL0     C73874   2.883   3.871  11.659 -0.6941  0.0702 -0.1452
  548MOL0     C73875   2.945   3.999  11.615 -0.2283 -0.0400 -0.5594
  548MOL0     O73876   3.074   4.026  11.659  0.0246 -0.6698 -0.1075
  548MOL0     C73877   3.135   4.148  11.629  0.7680 -0.1480 -0.1723
  548MOL0     C73878   3.085   4.276  11.658 -1.5332 -0.1877  1.0216
  548MOL0     C73879   3.170   4.391  11.619  0.2753 -0.2391 -0.6155
  548MOL0     C73880   3.295   4.380  11.553  0.4517 -0.0752 -0.2495
  548MOL0     O73881   3.364   4.494  11.509  0.1485  0.2599 -0.1919
  548MOL0     C73882   3.374   4.606  11.606 -0.5714  0.6287  0.2838
  548MOL0     C73883   3.461   4.725  11.552 -0.2875 -0.4470 -1.2308
  548MOL0     C73884   3.604   4.679  11.551  0.1697  0.4276  0.3871
  548MOL0     C73885   3.694   4.777  11.477  0.9582  0.3821 -0.0570
  548MOL0     C73886   3.844   4.727  11.480 -0.0119 -0.2776  0.2503
  548MOL0     C73887   3.929   4.789  11.371  0.9334 -0.1612 -0.0462
  548MOL0     C73888   3.951   4.944  11.379 -0.8182  0.6541  0.0588
  548MOL0     C73889   4.029   4.995  11.504 -0.4929  0.2401 -0.6542
  548MOL0    Cl73890   4.085   5.165  11.496  0.7851  0.5573 -0.2444
  548MOL0     C73891   3.341   4.254  11.531  0.1271  0.2784 -0.4870
  548MOL0     C73892   3.266   4.140  11.572  0.2350 -0.0717  0.0417
  548MOL0     O73893   2.873   4.075  11.551 -0.7147  0.7343 -0.0443
  548MOL0     C73894   2.744   3.865  11.666 -0.2921  0.8766 -0.1811
  548MOL0     C73895   2.679   3.747  11.708 -0.3225  0.7318  0.2242
  548MOL0     N73896   2.576   3.493  12.352 -0.0318 -0.6851 -0.7471
  548MOL0     N73897   2.475   3.551  12.413  0.6346 -0.2584 -0.3140
  548MOL0     C73898   1.865   3.584  11.457  0.2283 -0.5576  0.4462
  548MOL0     C73899   1.951   3.563  11.351  0.1962  0.1203 -0.1972
  548MOL0     C73900   2.245   3.552  11.032 -1.2220 -0.6676 -0.8968
  548MOL0     C73901   2.214   3.588  10.900  0.0505  0.2038  0.0181
  548MOL0     C73902   2.297   3.550  10.794  0.0578 -0.8577 -0.1354
  548MOL0     C73903   2.406   3.467  10.821 -0.0708 -0.2372  0.1195
  548MOL0     O73904   2.478   3.405  10.721 -0.6819  0.5495  0.7210
  548MOL0     C73905   2.459   3.437  10.574  0.1990 -0.0411  0.2862
  548MOL0     C73906   2.570   3.363  10.490 -0.5092 -0.1566  0.0910
  548MOL0     C73907   2.716   3.371  10.539  0.1128 -1.1143 -0.1794
  548MOL0     C73908   2.784   3.515  10.555  0.4015  0.9516  0.0311
  548MOL0     C73909   2.762   3.573  10.685 -0.0748 -0.2244  0.2343
  548MOL0     C73910   2.733   3.618  10.794 -0.6566  0.3785  0.0671
  548MOL0     C73911   2.441   3.435  10.951  0.0196 -0.8930 -0.1229
  548MOL0     C73912   2.372   3.483  11.060  0.8062  0.5673 -0.9595
  548MOL0     H73913   2.244   3.626  11.483 -0.7695  0.2472 -0.2076
  548MOL0     H73914   2.120   3.655  11.679  1.8478 -0.0600 -1.8476
  548MOL0     H73915   1.934   3.587  11.847 -1.3814 -2.2865  0.0740
  548MOL0     H73916   1.920   3.764  11.806  0.2870 -0.6999  3.2069
  548MOL0     H73917   1.676   3.749  11.862  0.1389  0.0628 -1.4405
  548MOL0     H73918   1.734   3.599  11.966  2.0114  0.8518  3.0090
  548MOL0     H73919   1.832   3.893  11.989  1.2260  0.3101  0.0518
  548MOL0     H73920   1.715   3.819  12.094 -0.1986 -0.0366 -1.8734
  548MOL0     H73921   1.863   3.640  12.163 -0.4234  1.2483  2.8953
  548MOL0     H73922   1.983   3.684  12.050  0.3453 -0.5136  1.7125
  548MOL0     H73923   2.016   3.907  12.178 -0.5599 -0.5945 -4.1417
  548MOL0     H73924   1.879   3.879  12.267 -1.5832 -1.0293 -1.4576
  548MOL0     H73925   2.041   3.830  12.402  0.6017 -0.2120  1.0648
  548MOL0     H73926   1.978   3.664  12.363 -0.3558 -0.4350 -3.2568
  548MOL0     H73927   2.163   3.675  12.175  1.1610  3.8770 -1.2019
  548MOL0     H73928   2.228   3.801  12.278 -3.9296  2.9264 -0.9918
  548MOL0     H73929   2.173   3.505  12.348  0.4745 -1.5600  2.2410
  548MOL0     H73930   2.233   3.618  12.468  2.1813 -3.0565  0.3085
  548MOL0     H73931   2.368   3.562  12.112  0.7788 -0.7777 -0.4128
  548MOL0     H73932   2.687   3.537  12.063 -1.3661  1.0848  0.5113
  548MOL0     H73933   2.724   3.400  12.156 -1.0746  2.7898  2.0744
  548MOL0     H73934   2.510   3.432  11.950  4.1171  2.6504 -0.9880
  548MOL0     H73935   2.514   3.283  12.049 -1.6220  2.4595  1.8561
  548MOL0     H73936   2.614   3.261  11.822  0.2848 -0.1014  0.7076
  548MOL0     H73937   2.713   3.216  11.943 -5.1987 -3.2606 -0.0441
  548MOL0     H73938   2.809   3.358  11.761  1.1997 -2.3787  2.7375
  548MOL0     H73939   2.836   3.460  11.910 -2.3360 -0.0136  1.7366
  548MOL0     H73940   2.941   3.554  11.741 -0.0271  0.1722  1.4728
  548MOL0     H73941   3.120   3.805  11.557 -0.3984  1.0945  0.1106
  548MOL0     H73942   3.166   3.767  11.724 -1.6250  1.6424  0.8083
  548MOL0     H73943   3.123   3.632  11.609 -0.2754 -1.2710  4.1277
  548MOL0     H73944   2.997   4.300  11.717 -1.0006  2.3935  0.8603
  548MOL0     H73945   3.130   4.490  11.638 -3.4023 -1.5638 -0.5581
  548MOL0     H73946   3.272   4.644  11.624 -0.7387  0.6285 -0.6103
  548MOL0     H73947   3.413   4.562  11.698  2.0142  0.1142 -0.9839
  548MOL0     H73948   3.429   4.762  11.454  0.9163  0.9571 -1.1299
  548MOL0     H73949   3.449   4.818  11.609 -0.7590 -0.8026 -0.7387
  548MOL0     H73950   3.611   4.588  11.490  2.6982 -1.1586  2.7855
  548MOL0     H73951   3.649   4.659  11.649 -0.9053 -0.4168  0.7224
  548MOL0     H73952   3.665   4.786  11.372  2.9511  1.5550 -0.5635
  548MOL0     H73953   3.679   4.874  11.526  4.3364  1.5536 -1.0250
  548MOL0     H73954   3.864   4.622  11.458  1.4493  0.0090  0.0952
  548MOL0     H73955   3.900   4.748  11.572 -0.9455 -0.9625  0.9910
  548MOL0     H73956   4.025   4.738  11.367  0.8441 -0.2834 -0.7027
  548MOL0     H73957   3.884   4.778  11.272  0.4677  3.1719 -0.3238
  548MOL0     H73958   3.854   4.990  11.355 -0.5401  0.9156 -0.5713
  548MOL0     H73959   4.015   4.965  11.293 -2.3117  2.3529 -0.7160
  548MOL0     H73960   4.107   4.931  11.546  1.7672  1.8940 -2.1180
  548MOL0     H73961   3.956   4.991  11.586  0.4057  0.4004  0.1732
  548MOL0     H73962   3.442   4.233  11.497  0.8851  0.9062  1.2608
  548MOL0     H73963   3.319   4.046  11.581  1.8986  0.5454 -2.3738
  548MOL0     H73964   2.675   3.946  11.644 -2.7588 -0.1483  2.9392
  548MOL0     H73965   2.571   3.745  11.716 -0.4985  1.1630 -1.7285
  548MOL0     H73966   1.760   3.564  11.438  0.4564 -1.1759 -0.1919
  548MOL0     H73967   1.903   3.530  11.259 -3.5969  0.2861  1.5084
  548MOL0     H73968   2.125   3.643  10.873  0.8318  0.8910 -1.2716
  548MOL0     H73969   2.280   3.574  10.689  2.3233 -2.1374 -0.8480
  548MOL0     H73970   2.367   3.384  10.549 -0.6255 -1.0212  4.5575
  548MOL0     H73971   2.458   3.546  10.559 -0.9462  0.1737  1.6182
  548MOL0     H73972   2.571   3.401  10.387  0.1538  2.3689  0.9656
  548MOL0     H73973   2.542   3.257  10.482 -1.2291  0.0584 -0.3634
  548MOL0     H73974   2.765   3.312  10.461  0.6553  0.5079 -1.1104
  548MOL0     H73975   2.730   3.325  10.637  1.4882 -1.4332 -0.5064
  548MOL0     H73976   2.727   3.575  10.484  2.0416 -0.4658 -2.6236
  548MOL0     H73977   2.890   3.509  10.532  0.0927 -2.4048 -1.0953
  548MOL0     H73978   2.708   3.656  10.891 -1.5863  3.8394 -1.3467
  548MOL0     H73979   2.519   3.360  10.959  2.0897  1.1174 -0.6362
  548MOL0     H73980   2.408   3.454  11.158 -1.4357 -0.6843 -0.4339
  549MOL0     O73981   7.961   3.456  10.429  0.7098  0.4786 -0.0944
  549MOL0     C73982   7.989   3.380  10.337 -0.6052 -0.4214  0.8170
  549MOL0     O73983   7.911   3.283  10.284 -0.1246 -0.8256  0.5360
  549MOL0     C73984   7.781   3.281  10.315  0.1372  0.2506 -0.0484
  549MOL0     C73985   7.713   3.178  10.364 -0.1980  0.0212  0.2742
  549MOL0     C73986   7.585   3.177  10.412  0.5512  0.2969  0.4143
  549MOL0     C73987   7.504   3.282  10.382 -0.4833 -0.7799 -0.8596
  549MOL0     O73988   7.371   3.271  10.418  0.8271 -0.6200 -0.5806
  549MOL0     C73989   7.292   3.397  10.391 -0.6805  0.1267  0.3670
  549MOL0     C73990   7.152   3.382  10.452 -1.1576  0.3702 -0.3689
  549MOL0     C73991   7.078   3.512  10.416 -0.8278  0.1803  0.3151
  549MOL0     C73992   6.975   3.547  10.531 -0.6153  0.3603  0.6470
  549MOL0     C73993   6.873   3.652  10.502  0.5415 -0.0738 -0.6846
  549MOL0     C73994   6.778   3.683  10.623  0.7575  0.4920 -0.3414
  549MOL0     C73995   6.640   3.716  10.566  0.0524 -0.3758  0.7955
  549MOL0     C73996   6.567   3.825  10.646  0.1303 -0.1055 -0.1341
  549MOL0     N73997   6.512   3.773  10.772 -0.3368 -0.5301  0.1927
  549MOL0     C73998   6.381   3.794  10.811 -0.6595 -0.4265 -0.2899
  549MOL0     C73999   6.367   3.732  10.936  0.6976  0.0409  0.2698
  549MOL0     C74000   6.248   3.715  11.033  0.2151 -0.3661  0.3672
  549MOL0     C74001   6.117   3.717  10.947 -0.3931  0.9084 -1.5890
  549MOL0     C74002   6.088   3.582  10.866  0.1786  0.2730 -0.5576
  549MOL0     C74003   5.934   3.563  10.842 -0.3224  0.2768  0.2486
  549MOL0     O74004   5.869   3.559  10.968 -0.4640  0.7704 -0.8299
  549MOL0     C74005   5.733   3.588  10.974  0.6265  1.0233 -0.9762
  549MOL0     C74006   5.655   3.512  11.060  0.2307 -0.5413 -1.1013
  549MOL0     C74007   5.513   3.539  11.070  0.2610  0.0348 -0.8011
  549MOL0     C74008   5.436   3.429  11.141  0.2362 -0.4574  0.2981
  549MOL0     C74009   5.462   3.659  11.019 -0.0073 -0.2931  0.8455
  549MOL0     C74010   5.328   3.716  11.047  0.4346 -0.2744 -0.8900
  549MOL0     O74011   5.282   3.811  10.960 -0.2994  1.0424 -0.4598
  549MOL0     C74012   5.163   3.870  10.984 -0.5078 -0.3423 -0.3956
  549MOL0     C74013   5.163   4.005  10.962 -0.0866  0.0260 -0.3859
  549MOL0     C74014   5.042   4.077  10.977 -0.2076 -0.0289 -0.2153
  549MOL0     C74015   4.931   4.005  11.011  0.2400 -0.7330  0.7204
  549MOL0     O74016   4.819   4.075  11.011  0.4437  0.1264  0.2488
  549MOL0     C74017   4.719   4.048  11.114  0.3576  0.8613 -0.6325
  549MOL0     C74018   4.766   4.097  11.258 -0.2986 -0.1494  0.1895
  549MOL0     C74019   4.664   4.061  11.370 -0.1408 -0.6502  0.2330
  549MOL0     C74020   4.713   4.117  11.502  0.0024  0.5273 -0.3667
  549MOL0     C74021   4.605   4.124  11.609  0.4557  0.5164  0.4407
  549MOL0     C74022   4.650   4.180  11.739  0.3205  0.1032 -0.3018
  549MOL0     C74023   4.546   4.228  11.839  0.6700 -0.5742  0.4336
  549MOL0     C74024   4.467   4.108  11.912  0.1737 -1.2163 -0.6568
  549MOL0    Cl74025   4.589   4.027  12.014  0.4116  0.1578 -0.0572
  549MOL0     C74026   4.926   3.871  11.030  1.0121  0.2356  0.1078
  549MOL0     C74027   5.049   3.801  11.013 -0.7757 -0.2815 -0.9563
  549MOL0     O74028   5.260   3.671  11.139  0.5166  0.0795  0.4565
  549MOL0     C74029   5.552   3.742  10.943 -1.1580 -0.7429  0.1389
  549MOL0     C74030   5.685   3.706  10.920 -0.1581  0.0354 -0.3621
  549MOL0     N74031   6.489   3.675  10.967 -0.5206  0.6011 -0.3293
  549MOL0     N74032   6.566   3.690  10.866  0.2613  0.0581  0.4605
  549MOL0     C74033   7.559   3.395  10.307 -0.4679 -0.8524  0.0932
  549MOL0     C74034   7.703   3.397  10.284  0.5574 -0.1673 -0.3806
  549MOL0     C74035   8.120   3.412  10.270 -0.1095 -0.6335  0.0016
  549MOL0     C74036   8.190   3.534  10.299  0.5873 -0.1779 -0.2321
  549MOL0     C74037   8.329   3.537  10.269 -0.4760  0.2237 -0.2397
  549MOL0     C74038   8.399   3.441  10.200  0.4557  0.1563  0.4590
  549MOL0     O74039   8.535   3.460  10.175 -1.0311  0.7145  0.7920
  549MOL0     C74040   8.614   3.368  10.101 -0.8803  0.3762  0.5212
  549MOL0     C74041   8.753   3.429  10.066 -0.3403 -0.1387  0.4599
  549MOL0     C74042   8.742   3.566   9.999 -0.0963  0.1189 -0.0688
  549MOL0     C74043   8.876   3.636   9.993 -0.9593  0.2900 -0.8389
  549MOL0     C74044   8.931   3.666  10.127  0.7802 -0.4242  1.2041
  549MOL0     C74045   8.983   3.690  10.232  0.7714 -0.3565 -0.3882
  549MOL0     C74046   8.332   3.320  10.171 -0.9585  0.7423 -0.5039
  549MOL0     C74047   8.197   3.309  10.205  0.4425  0.5870  0.8256
  549MOL0     H74048   7.760   3.080  10.367 -0.7718 -0.2458  0.8060
  549MOL0     H74049   7.551   3.089  10.466 -1.5415  1.3900  0.9659
  549MOL0     H74050   7.342   3.486  10.431 -0.1480 -1.0049  2.3907
  549MOL0     H74051   7.285   3.419  10.284 -0.6921  1.8388  0.6923
  549MOL0     H74052   7.108   3.288  10.418 -2.7730  0.6999  0.6832
  549MOL0     H74053   7.156   3.381  10.561 -1.4991 -0.5093 -0.3537
  549MOL0     H74054   7.148   3.594  10.396  0.0155 -0.4964  0.4491
  549MOL0     H74055   7.026   3.497  10.321 -1.4044 -2.9901  1.0426
  549MOL0     H74056   6.926   3.452  10.556 -2.8194  1.1810 -0.3043
  549MOL0     H74057   7.029   3.576  10.622 -0.4736 -0.1901  0.7433
  549MOL0     H74058   6.919   3.751  10.493 -0.5640  0.9330  2.8148
  549MOL0     H74059   6.830   3.623  10.406  4.1899  0.1582 -2.5822
  549MOL0     H74060   6.758   3.591  10.678  2.1930 -0.6315 -1.5780
  549MOL0     H74061   6.831   3.755  10.686 -0.1914  1.0634 -0.1745
  549MOL0     H74062   6.643   3.743  10.460  0.3663 -1.8656  0.3959
  549MOL0     H74063   6.579   3.625  10.560  0.3539 -0.5207 -0.3925
  549MOL0     H74064   6.480   3.862  10.591  0.3620  2.5327  1.1368
  549MOL0     H74065   6.631   3.912  10.663 -1.0987  1.1283 -1.6523
  549MOL0     H74066   6.296   3.844  10.766 -1.5865 -0.6397  1.1423
  549MOL0     H74067   6.256   3.611  11.066  1.9276 -1.6880 -3.5423
  549MOL0     H74068   6.239   3.804  11.096 -2.5085  1.4858 -2.3428
  549MOL0     H74069   6.117   3.811  10.891 -0.4542  1.3675 -0.8304
  549MOL0     H74070   6.037   3.734  11.019  1.8529  1.7008  0.8707
  549MOL0     H74071   6.136   3.498  10.918  0.0376  3.0286  4.7462
  549MOL0     H74072   6.141   3.602  10.773  2.0394  0.3686  0.4689
  549MOL0     H74073   5.925   3.469  10.788 -2.2338  1.8580 -2.4059
  549MOL0     H74074   5.905   3.647  10.779  0.9038 -0.1089 -0.8712
  549MOL0     H74075   5.694   3.421  11.102 -0.2569 -0.2716 -0.0276
  549MOL0     H74076   5.349   3.403  11.080  1.0037 -0.8059 -0.6654
  549MOL0     H74077   5.497   3.342  11.167 -0.2718 -0.7862  0.3999
  549MOL0     H74078   5.387   3.476  11.227 -0.2040  2.2109 -1.3077
  549MOL0     H74079   5.257   4.058  10.964  0.8657 -1.2875 -4.1129
  549MOL0     H74080   5.040   4.184  10.963 -2.1685 -0.0979 -0.7228
  549MOL0     H74081   4.622   4.084  11.079 -0.4889 -0.1277  0.6189
  549MOL0     H74082   4.695   3.941  11.124  4.4594 -0.0686  1.4921
  549MOL0     H74083   4.864   4.055  11.282  0.5187  0.4850 -1.8372
  549MOL0     H74084   4.766   4.206  11.250 -1.1522 -0.0240  1.5540
  549MOL0     H74085   4.648   3.953  11.369  1.2124 -0.8671 -0.9795
  549MOL0     H74086   4.564   4.107  11.365 -0.1227 -0.3630  1.8309
  549MOL0     H74087   4.792   4.049  11.537 -0.0783  0.4340 -0.3635
  549MOL0     H74088   4.753   4.217  11.485 -0.9210  0.8785 -0.4761
  549MOL0     H74089   4.570   4.021  11.626 -2.1310  1.1452 -0.6605
  549MOL0     H74090   4.517   4.177  11.572 -0.8566 -0.7365  1.6070
  549MOL0     H74091   4.717   4.111  11.792 -1.3453 -0.8542  0.6477
  549MOL0     H74092   4.711   4.267  11.714 -1.2110  0.8244 -1.6556
  549MOL0     H74093   4.475   4.292  11.787  0.4266 -0.5550  0.7832
  549MOL0     H74094   4.593   4.285  11.920 -0.3408 -0.7969  1.2087
  549MOL0     H74095   4.421   4.048  11.834 -1.5423 -1.4211  0.4541
  549MOL0     H74096   4.382   4.149  11.968 -0.3650 -2.4320 -0.5543
  549MOL0     H74097   4.834   3.823  11.063 -1.8641  4.5907 -0.7767
  549MOL0     H74098   5.057   3.694  11.023 -0.9487 -0.2871 -0.8698
  549MOL0     H74099   5.512   3.831  10.895  1.8135 -0.8139 -2.8228
  549MOL0     H74100   5.741   3.777  10.859 -0.6855 -0.1683 -1.1012
  549MOL0     H74101   7.498   3.477  10.271 -0.8638 -0.4184  1.6845
  549MOL0     H74102   7.757   3.486  10.253  3.7119 -1.0814  1.9032
  549MOL0     H74103   8.144   3.617  10.352  0.3953  1.7181 -3.1228
  549MOL0     H74104   8.380   3.630  10.296  1.3282 -0.6573 -0.4434
  549MOL0     H74105   8.636   3.274  10.153  1.9261  1.0192  0.6213
  549MOL0     H74106   8.565   3.347  10.005  1.4298  3.2640 -1.4520
  549MOL0     H74107   8.796   3.354   9.998 -2.0686 -0.0983 -0.7386
  549MOL0     H74108   8.805   3.443  10.161 -4.0399  0.9964  2.4989
  549MOL0     H74109   8.681   3.633  10.061  1.8262 -0.1774  2.3004
  549MOL0     H74110   8.697   3.554   9.900 -0.0944  1.5495 -0.2500
  549MOL0     H74111   8.868   3.733   9.944 -1.7446 -1.2330 -3.9384
  549MOL0     H74112   8.946   3.571   9.939  0.4283  2.0235 -1.1949
  549MOL0     H74113   9.021   3.709  10.331 -0.4769  0.4320 -0.0409
  549MOL0     H74114   8.389   3.246  10.116 -0.3007  1.3473 -0.6577
  549MOL0     H74115   8.145   3.216  10.183  1.0551  0.1135  1.3377
  550MOL0     O74116  10.388   2.797   6.733 -0.0311 -0.1343  0.4678
  550MOL0     C74117  10.405   2.681   6.761  0.5101  0.6148 -0.3692
  550MOL0     O74118  10.530   2.627   6.798  0.3136  0.4099  0.3105
  550MOL0     C74119  10.641   2.703   6.795  0.2617 -0.6201 -0.9832
  550MOL0     C74120  10.715   2.727   6.911 -0.2811  0.0647 -0.5085
  550MOL0     C74121  10.821   2.820   6.921 -0.3862 -0.3470 -0.4731
  550MOL0     C74122  10.870   2.879   6.798 -0.1801  0.5618 -0.2128
  550MOL0     O74123  10.985   2.958   6.804 -0.4617  0.6963 -0.1309
  550MOL0     C74124  11.020   3.015   6.677  0.6747  0.0039  0.6156
  550MOL0     C74125  11.139   3.109   6.703 -0.5826 -0.0701  0.1813
  550MOL0     C74126  11.184   3.181   6.569  0.4855  0.7817 -0.2896
  550MOL0     C74127  11.326   3.132   6.520  0.0953  0.8110  0.9410
  550MOL0     C74128  11.385   3.237   6.419 -0.0229  0.2369  0.6032
  550MOL0     C74129  11.505   3.182   6.340 -1.1239 -0.4497  1.3572
  550MOL0     C74130  11.622   3.121   6.412  0.2745  0.0109  0.2317
  550MOL0     C74131  11.746   3.131   6.332  0.2282  0.3768 -0.4271
  550MOL0     N74132  11.834   3.229   6.377  0.5742 -0.3673 -1.0581
  550MOL0     C74133  11.803   3.362   6.387 -0.1171 -0.0567 -0.5505
  550MOL0     C74134  11.926   3.418   6.414  0.8247  0.2247 -0.1052
  550MOL0     C74135  11.961   3.563   6.423  0.1189  0.4110  0.7178
  550MOL0     C74136  12.041   3.617   6.298 -0.3258  0.0435 -1.1331
  550MOL0     C74137  12.136   3.739   6.347  0.7274  0.2883 -0.4211
  550MOL0     C74138  12.146   3.838   6.233  0.2990  1.1241 -0.3212
  550MOL0     O74139  12.071   3.958   6.266  0.3151 -0.0541 -0.4891
  550MOL0     C74140  11.943   3.962   6.219  0.3230 -0.7173  0.4920
  550MOL0     C74141  11.824   3.905   6.280 -0.0743 -0.1532 -0.3707
  550MOL0     C74142  11.698   3.931   6.235 -0.1562  0.0702 -0.5064
  550MOL0     C74143  11.595   3.875   6.331 -0.8897  0.6358 -0.4556
  550MOL0     C74144  11.681   4.009   6.124 -0.2590 -0.6334 -0.2732
  550MOL0     C74145  11.549   4.069   6.093 -1.1401  0.7593 -0.2403
  550MOL0     O74146  11.453   4.048   6.186  0.3791  0.0116 -0.6085
  550MOL0     C74147  11.322   4.095   6.169 -0.7220 -0.4162 -0.4226
  550MOL0     C74148  11.281   4.203   6.080  0.3466  0.9214  0.8207
  550MOL0     C74149  11.137   4.231   6.073 -0.4666 -0.0056  0.5509
  550MOL0     C74150  11.051   4.170   6.157 -0.3232  0.9066  0.2717
  550MOL0     O74151  10.919   4.208   6.134  0.6421  0.6417  0.7552
  550MOL0     C74152  10.822   4.190   6.234  0.0918 -0.2056 -0.2064
  550MOL0     C74153  10.825   4.316   6.323  0.0268 -0.1673  1.0805
  550MOL0     C74154  10.844   4.457   6.255  0.1756 -0.0434 -0.1856
  550MOL0     C74155  10.986   4.491   6.215 -0.4267  0.2380  0.3872
  550MOL0     C74156  11.006   4.643   6.186  0.2592  0.8398  0.1941
  550MOL0     C74157  11.136   4.671   6.092 -0.7332  0.1164 -0.9164
  550MOL0     C74158  11.265   4.611   6.143 -0.6591 -0.6251  0.2597
  550MOL0     C74159  11.384   4.639   6.049 -0.7961  0.3861  0.6661
  550MOL0    Cl74160  11.355   4.559   5.886 -0.0484 -0.1013 -0.0659
  550MOL0     C74161  11.101   4.067   6.242  0.0015 -0.0804 -0.1390
  550MOL0     C74162  11.232   4.029   6.256 -0.1047  0.8059 -1.0326
  550MOL0     O74163  11.533   4.097   5.975 -0.2411 -1.3879 -0.0625
  550MOL0     C74164  11.794   4.039   6.048  0.1578 -0.0452  0.0702
  550MOL0     C74165  11.924   4.036   6.105  0.7080  0.1988 -0.2784
  550MOL0     N74166  12.022   3.322   6.416  0.1107  0.4989  0.0635
  550MOL0     N74167  11.965   3.208   6.402 -0.4650 -0.1712  1.4516
  550MOL0     C74168  10.795   2.845   6.679 -0.1843 -0.5805  0.1112
  550MOL0     C74169  10.679   2.768   6.676 -0.4168  0.3681 -0.2206
  550MOL0     C74170  10.285   2.593   6.774  1.3037  0.0802 -0.5062
  550MOL0     C74171  10.179   2.612   6.693  0.4015  0.5641  0.0011
  550MOL0     C74172  10.066   2.533   6.710  0.0956 -0.8501  0.0998
  550MOL0     C74173  10.050   2.433   6.800  0.1265  0.1268  0.5224
  550MOL0     O74174   9.938   2.352   6.790 -0.3333 -0.2857 -0.5986
  550MOL0     C74175   9.920   2.258   6.895 -0.9232  0.1967  0.2561
  550MOL0     C74176   9.776   2.215   6.897  0.0524  0.0645 -0.2118
  550MOL0     C74177   9.703   2.212   7.036 -0.1240  0.5762 -0.8951
  550MOL0     C74178   9.572   2.128   7.033 -0.0705 -0.3449 -0.0259
  550MOL0     C74179   9.471   2.220   6.979 -0.0222 -0.2139  0.1903
  550MOL0     C74180   9.395   2.311   6.948 -1.2387  0.1682 -0.1281
  550MOL0     C74181  10.162   2.410   6.888  0.1567 -0.3191  1.0178
  550MOL0     C74182  10.275   2.490   6.872 -0.5879  0.6905 -0.1599
  550MOL0     H74183  10.669   2.691   7.002 -1.4417  0.6271 -0.8667
  550MOL0     H74184  10.851   2.858   7.018  0.9220 -0.6438 -0.7363
  550MOL0     H74185  11.057   2.938   6.610  2.0571  2.3690 -1.5180
  550MOL0     H74186  10.946   3.080   6.629  0.3859 -0.5141  0.3584
  550MOL0     H74187  11.121   3.190   6.774 -0.3896 -0.3414  0.5463
  550MOL0     H74188  11.218   3.046   6.746 -0.7749 -1.8914 -1.9218
  550MOL0     H74189  11.120   3.168   6.481  0.1252  3.2045 -0.4579
  550MOL0     H74190  11.175   3.287   6.595 -0.3265  0.6281  0.0820
  550MOL0     H74191  11.389   3.119   6.609 -3.1419  1.7228  3.5584
  550MOL0     H74192  11.314   3.037   6.467  1.7274  0.6918  0.7273
  550MOL0     H74193  11.317   3.268   6.339 -1.1213 -0.2085  1.3546
  550MOL0     H74194  11.415   3.318   6.486  0.8298 -1.7299  2.6859
  550MOL0     H74195  11.469   3.102   6.275 -0.2673 -0.5013  0.9323
  550MOL0     H74196  11.530   3.266   6.276 -4.0472 -0.0762  0.5496
  550MOL0     H74197  11.624   3.164   6.512 -0.2721 -0.4864  0.4615
  550MOL0     H74198  11.593   3.016   6.427 -2.6762  0.9496  1.7525
  550MOL0     H74199  11.735   3.139   6.224 -1.7615 -1.0904 -0.4055
  550MOL0     H74200  11.799   3.037   6.352  2.1187  1.5817  0.4109
  550MOL0     H74201  11.702   3.395   6.368 -0.3642 -1.8596 -2.7408
  550MOL0     H74202  11.883   3.629   6.464  0.0773  0.3491  0.7382
  550MOL0     H74203  12.037   3.558   6.501  1.3098 -1.7982 -0.4955
  550MOL0     H74204  11.980   3.647   6.213 -0.2825  0.7738 -0.9146
  550MOL0     H74205  12.106   3.543   6.250 -1.7061 -0.1921 -2.7187
  550MOL0     H74206  12.231   3.688   6.359  0.8665  0.7692  0.6313
  550MOL0     H74207  12.107   3.783   6.443 -0.1645 -0.0707 -0.5126
  550MOL0     H74208  12.114   3.785   6.142  1.3078  1.4504 -0.8827
  550MOL0     H74209  12.245   3.881   6.213  0.9459 -0.2242 -0.1262
  550MOL0     H74210  11.842   3.832   6.358 -0.6028  1.4704  1.3301
  550MOL0     H74211  11.522   3.820   6.270 -0.3814 -0.2101 -0.3223
  550MOL0     H74212  11.628   3.796   6.399 -4.1018 -2.2679 -1.9691
  550MOL0     H74213  11.540   3.953   6.384 -2.0749  0.1080 -0.8871
  550MOL0     H74214  11.352   4.250   6.012  0.3412  2.8250  2.0487
  550MOL0     H74215  11.076   4.287   6.003  0.6266  0.2534 -0.2203
  550MOL0     H74216  10.724   4.181   6.185  0.4225  1.1905 -1.1812
  550MOL0     H74217  10.847   4.094   6.280 -0.4077 -0.4476 -0.4385
  550MOL0     H74218  10.725   4.329   6.365 -0.1863  4.5393 -0.2969
  550MOL0     H74219  10.900   4.308   6.401 -1.0453  1.9571  2.4108
  550MOL0     H74220  10.800   4.537   6.316 -0.0893  1.8194 -2.6607
  550MOL0     H74221  10.795   4.460   6.157  1.0049  2.4734 -0.6087
  550MOL0     H74222  11.065   4.464   6.285  0.6500  1.5014 -0.2908
  550MOL0     H74223  10.999   4.441   6.119 -0.3022 -1.5073  1.2831
  550MOL0     H74224  11.027   4.694   6.281 -2.4161 -1.5003  2.2429
  550MOL0     H74225  10.915   4.684   6.141  0.2856 -1.1580 -1.8267
  550MOL0     H74226  11.112   4.620   5.998  2.4030 -0.1205 -1.6818
  550MOL0     H74227  11.144   4.777   6.068 -0.6187  0.7857  1.8591
  550MOL0     H74228  11.253   4.503   6.144  0.9745 -0.8480 -0.9269
  550MOL0     H74229  11.299   4.655   6.237 -0.4834  1.1321 -0.5849
  550MOL0     H74230  11.478   4.600   6.089  0.5560 -0.2799 -2.8182
  550MOL0     H74231  11.390   4.747   6.035 -4.4652  0.7245  0.5857
  550MOL0     H74232  11.030   4.015   6.305 -2.5721  2.3357 -0.8522
  550MOL0     H74233  11.270   3.964   6.335 -1.5518  2.9160  1.5893
  550MOL0     H74234  11.788   4.087   5.950  3.3115  0.0051 -0.2123
  550MOL0     H74235  12.008   4.088   6.060  0.6346 -0.2663 -0.9850
  550MOL0     H74236  10.837   2.885   6.588 -0.3496  1.1266  0.7436
  550MOL0     H74237  10.613   2.758   6.590 -0.7104  1.4107 -0.1425
  550MOL0     H74238  10.178   2.704   6.636  0.5366  0.2316 -0.5472
  550MOL0     H74239   9.986   2.556   6.641  0.3949  0.1081  0.0518
  550MOL0     H74240   9.989   2.173   6.888 -2.0284 -0.6346 -1.0958
  550MOL0     H74241   9.937   2.298   6.995 -0.0553  2.7034 -0.8195
  550MOL0     H74242   9.764   2.114   6.856  1.6990 -0.0976 -0.3444
  550MOL0     H74243   9.721   2.294   6.844  1.3846  1.4233  0.3484
  550MOL0     H74244   9.696   2.314   7.075  1.7415 -0.2417  1.8573
  550MOL0     H74245   9.777   2.178   7.109  0.9298  2.2210 -1.1403
  550MOL0     H74246   9.538   2.102   7.134  2.7117  0.6033  1.2621
  550MOL0     H74247   9.577   2.038   6.972 -0.7733 -0.9763  0.8201
  550MOL0     H74248   9.323   2.390   6.934 -2.6622 -1.2225 -1.0072
  550MOL0     H74249  10.170   2.330   6.960 -3.2916 -1.5029  0.2519
  550MOL0     H74250  10.368   2.471   6.926  0.1695  1.3330 -1.1953
  551MOL0     O74251   9.203   3.489   4.317 -0.6431 -0.1760  0.4833
  551MOL0     C74252   9.243   3.443   4.423  0.2802 -0.2183 -0.8505
  551MOL0     O74253   9.159   3.421   4.540 -0.0580  0.0983  0.6358
  551MOL0     C74254   9.035   3.475   4.532 -0.8459 -0.5347 -1.1206
  551MOL0     C74255   9.008   3.578   4.624 -0.6189  0.4185  0.6345
  551MOL0     C74256   8.879   3.638   4.616 -0.3314 -0.0657 -0.1953
  551MOL0     C74257   8.786   3.600   4.521  0.2607  0.1745  0.2022
  551MOL0     O74258   8.660   3.659   4.524 -0.1039 -0.0634 -0.9818
  551MOL0     C74259   8.578   3.643   4.408  0.8605  0.4827  0.1484
  551MOL0     C74260   8.472   3.746   4.410  0.0327  0.0005  1.0492
  551MOL0     C74261   8.370   3.723   4.299  0.1838  0.3367  0.4786
  551MOL0     C74262   8.278   3.604   4.331 -0.5580 -0.2385  0.4521
  551MOL0     C74263   8.183   3.570   4.211 -0.7782  0.7650  0.7188
  551MOL0     C74264   8.133   3.431   4.205  1.4784  0.5492 -0.1739
  551MOL0     C74265   8.031   3.396   4.087  0.2794 -0.3117 -0.2554
  551MOL0     C74266   7.956   3.253   4.123 -0.1482 -0.7258  0.5087
  551MOL0     N74267   7.928   3.186   3.996  0.8586 -0.5008 -0.1393
  551MOL0     C74268   7.828   3.225   3.897 -1.2547  0.9286 -0.1514
  551MOL0     C74269   7.852   3.132   3.802  0.6920  0.7332  0.3363
  551MOL0     C74270   7.771   3.108   3.673  0.2757 -0.0991 -0.0451
  551MOL0     C74271   7.622   3.082   3.708 -1.3828 -0.8802  0.4858
  551MOL0     C74272   7.586   2.961   3.802 -0.9451 -0.0835  0.9710
  551MOL0     C74273   7.592   2.834   3.729  0.6601  0.2594  0.5680
  551MOL0     O74274   7.581   2.720   3.813 -0.4690 -0.2649  0.0445
  551MOL0     C74275   7.688   2.669   3.881 -0.8479  0.7440  0.9441
  551MOL0     C74276   7.824   2.726   3.879  0.7101  0.3918 -0.2376
  551MOL0     C74277   7.924   2.661   3.957 -0.5611 -1.1439  0.2416
  551MOL0     C74278   8.058   2.715   3.939 -0.3005  0.0406 -0.4376
  551MOL0     C74279   7.892   2.550   4.042 -0.2491 -0.6221 -0.0107
  551MOL0     C74280   7.988   2.473   4.133 -1.2812 -0.3276 -0.2693
  551MOL0     O74281   8.100   2.541   4.182  0.2200  0.6914  0.7885
  551MOL0     C74282   8.202   2.459   4.215 -0.1511  0.3026 -0.6878
  551MOL0     C74283   8.294   2.390   4.128 -0.1559  0.7531 -0.2951
  551MOL0     C74284   8.412   2.328   4.176  0.2785  0.7464 -0.1881
  551MOL0     C74285   8.448   2.338   4.307 -0.4714 -0.2887 -0.4934
  551MOL0     O74286   8.552   2.281   4.366 -0.1275  0.4797  0.4092
  551MOL0     C74287   8.666   2.271   4.283 -0.5920 -1.0439  0.5349
  551MOL0     C74288   8.785   2.224   4.375  0.4704  0.2506 -0.2476
  551MOL0     C74289   8.807   2.073   4.348  0.2958  0.0285 -0.4420
  551MOL0     C74290   8.726   1.984   4.441 -1.1743  0.0583  0.4321
  551MOL0     C74291   8.781   1.995   4.587  0.4927  0.7353  0.8581
  551MOL0     C74292   8.925   1.950   4.616  0.6855 -0.6873  0.5471
  551MOL0     C74293   8.950   1.799   4.576 -0.5159  0.3390  0.6777
  551MOL0     C74294   8.891   1.698   4.673 -0.1012 -0.1792 -0.1725
  551MOL0    Cl74295   8.728   1.682   4.618 -0.4475 -0.0797 -0.2448
  551MOL0     C74296   8.360   2.400   4.396 -0.1467 -0.3383 -0.7040
  551MOL0     C74297   8.240   2.461   4.349 -0.8537 -0.0689 -0.6547
  551MOL0     O74298   7.962   2.354   4.156  0.0513  0.0741 -0.1284
  551MOL0     C74299   7.761   2.502   4.039 -0.1222  0.1944 -0.3169
  551MOL0     C74300   7.664   2.556   3.957  0.0001  0.7930 -0.0132
  551MOL0     N74301   7.953   3.041   3.841  0.0080 -0.0446  0.1418
  551MOL0     N74302   7.992   3.073   3.960 -0.2614  0.1084  0.4083
  551MOL0     C74303   8.818   3.491   4.444 -0.2356  0.3473 -0.5391
  551MOL0     C74304   8.939   3.431   4.448  0.1660  0.2526 -0.7811
  551MOL0     C74305   9.379   3.385   4.419 -0.7866 -0.5098  0.2293
  551MOL0     C74306   9.447   3.357   4.300  0.2880  0.1345 -0.1808
  551MOL0     C74307   9.585   3.334   4.302  0.2612 -0.0172 -0.4645
  551MOL0     C74308   9.663   3.338   4.422 -0.1560  0.2624 -0.7239
  551MOL0     O74309   9.795   3.318   4.436 -0.3214  0.0239  0.3868
  551MOL0     C74310   9.870   3.227   4.357 -0.8273  0.5787 -0.2844
  551MOL0     C74311   9.932   3.117   4.454  0.5672  0.7372 -1.1620
  551MOL0     C74312   9.815   3.021   4.507  0.1920 -0.6427 -0.0305
  551MOL0     C74313   9.837   2.870   4.490 -0.2367 -0.5005 -0.3647
  551MOL0     C74314   9.743   2.782   4.567 -0.6508 -0.0870  0.9131
  551MOL0     C74315   9.667   2.706   4.621 -0.4961  0.6359  1.1189
  551MOL0     C74316   9.594   3.360   4.543  0.8887 -0.5497  0.0967
  551MOL0     C74317   9.451   3.381   4.541  0.2489 -0.7890 -0.5964
  551MOL0     H74318   9.075   3.605   4.705 -2.3752  1.5398  1.7926
  551MOL0     H74319   8.846   3.713   4.688 -1.2684  0.7488 -1.4289
  551MOL0     H74320   8.640   3.654   4.319  0.7611  3.0381  0.3030
  551MOL0     H74321   8.534   3.544   4.401  1.3528  0.2384  0.4494
  551MOL0     H74322   8.421   3.753   4.506 -0.5094  1.0672  0.6957
  551MOL0     H74323   8.518   3.845   4.400  3.8014 -1.5846  1.0318
  551MOL0     H74324   8.313   3.815   4.289  0.0665  0.1886 -0.2440
  551MOL0     H74325   8.422   3.703   4.205  2.1677 -0.2459  1.6359
  551MOL0     H74326   8.334   3.510   4.340  0.7165  0.5180  0.5687
  551MOL0     H74327   8.224   3.624   4.424 -0.9660 -2.1558  0.6789
  551MOL0     H74328   8.103   3.643   4.198 -3.6690 -2.2842  0.1953
  551MOL0     H74329   8.256   3.576   4.130 -2.0169  1.8385 -0.3692
  551MOL0     H74330   8.214   3.358   4.207  0.2418 -0.8655  0.5271
  551MOL0     H74331   8.072   3.411   4.294 -0.6439  0.0031 -1.6691
  551MOL0     H74332   7.958   3.474   4.062 -0.5846 -1.2902 -0.8556
  551MOL0     H74333   8.081   3.383   3.991 -2.4037 -0.3766 -1.7515
  551MOL0     H74334   7.865   3.258   4.185  0.3092 -1.4160  1.2559
  551MOL0     H74335   8.025   3.184   4.171 -0.9235 -2.7182 -1.1041
  551MOL0     H74336   7.764   3.311   3.913 -0.7665  1.1751  0.5209
  551MOL0     H74337   7.792   3.189   3.603 -2.5319  0.9800  0.2532
  551MOL0     H74338   7.808   3.015   3.630 -0.8597 -0.4219 -0.3463
  551MOL0     H74339   7.568   3.062   3.615 -3.5848 -1.3311  1.7698
  551MOL0     H74340   7.586   3.174   3.754  3.3291  1.6633 -0.3166
  551MOL0     H74341   7.494   2.985   3.855 -0.0579 -0.2651  2.6681
  551MOL0     H74342   7.652   2.958   3.890  0.6603  0.8460 -0.1599
  551MOL0     H74343   7.679   2.833   3.663 -0.7465  0.6287 -1.4038
  551MOL0     H74344   7.507   2.841   3.660  1.5732  1.3942 -0.4842
  551MOL0     H74345   7.847   2.803   3.806 -1.3962 -0.1437 -1.5494
  551MOL0     H74346   8.063   2.790   3.859  0.4319  0.3786 -0.0798
  551MOL0     H74347   8.093   2.776   4.022  2.9673 -1.2033 -0.7630
  551MOL0     H74348   8.127   2.632   3.920  1.1254  1.0047  0.4070
  551MOL0     H74349   8.277   2.422   4.026  0.0685 -1.0403 -0.9344
  551MOL0     H74350   8.484   2.298   4.101  2.5885 -3.4407  3.2405
  551MOL0     H74351   8.652   2.207   4.195 -5.7885 -1.5252  1.3640
  551MOL0     H74352   8.702   2.369   4.251  1.8621 -1.1688  2.5984
  551MOL0     H74353   8.877   2.277   4.346  1.5452 -0.3002  1.9526
  551MOL0     H74354   8.765   2.246   4.481  0.9207  2.5157 -0.5735
  551MOL0     H74355   8.914   2.055   4.366 -0.1193  0.1037  2.5515
  551MOL0     H74356   8.777   2.044   4.247  0.2168 -1.0341 -0.1287
  551MOL0     H74357   8.622   2.019   4.441 -2.4676 -3.3745  1.1444
  551MOL0     H74358   8.742   1.884   4.400  0.8394  0.8942 -1.0188
  551MOL0     H74359   8.698   1.941   4.634 -0.7663  2.2601  0.4750
  551MOL0     H74360   8.774   2.097   4.629 -0.4221 -0.0832  2.8501
  551MOL0     H74361   8.992   2.020   4.565 -0.1909 -0.4394 -0.3055
  551MOL0     H74362   8.924   1.958   4.725 -4.1946 -0.6527  0.7118
  551MOL0     H74363   9.057   1.777   4.587 -0.8483 -2.3821 -0.8942
  551MOL0     H74364   8.914   1.786   4.474  4.2463  2.1991 -1.5736
  551MOL0     H74365   8.900   1.736   4.775 -0.0274  1.9108 -0.9206
  551MOL0     H74366   8.939   1.600   4.664 -0.5633 -0.2694 -1.9337
  551MOL0     H74367   8.397   2.413   4.497  2.9114 -0.6991 -1.6787
  551MOL0     H74368   8.178   2.507   4.426  1.8517  1.6425  0.6475
  551MOL0     H74369   7.736   2.421   4.107  0.3525  0.8379  0.6449
  551MOL0     H74370   7.571   2.502   3.946 -0.5408  0.5618  4.3354
  551MOL0     H74371   8.757   3.445   4.367 -0.9136 -0.2091  0.3188
  551MOL0     H74372   8.954   3.349   4.379 -0.9001 -0.3316 -0.3295
  551MOL0     H74373   9.401   3.336   4.203 -0.2027 -0.4445  0.1709
  551MOL0     H74374   9.640   3.309   4.211  0.5811 -0.1885 -0.2270
  551MOL0     H74375   9.802   3.183   4.283 -0.2129 -4.5206  1.7709
  551MOL0     H74376   9.954   3.275   4.306 -0.6788  0.5013 -0.1183
  551MOL0     H74377   9.989   3.157   4.539 -2.3764  2.4536  0.1616
  551MOL0     H74378   9.992   3.057   4.385  1.6132  1.4489 -0.8973
  551MOL0     H74379   9.733   3.054   4.442 -0.1130  1.9628  1.5584
  551MOL0     H74380   9.784   3.044   4.609 -0.0765 -1.9950  0.2114
  551MOL0     H74381   9.934   2.858   4.539  0.3102  1.9898 -0.6987
  551MOL0     H74382   9.835   2.836   4.386 -0.6968 -0.3459 -0.4107
  551MOL0     H74383   9.599   2.643   4.676  1.7171 -2.2610  0.7715
  551MOL0     H74384   9.653   3.345   4.633  1.3895  0.1070 -0.1103
  551MOL0     H74385   9.395   3.410   4.629  1.7215  2.3095 -0.5241
  552MOL0     O74386   0.665   3.712   3.395  0.4794  0.5937 -0.6584
  552MOL0     C74387   0.644   3.618   3.479  0.5459  0.3029  0.3833
  552MOL0     O74388   0.520   3.588   3.536 -0.4753  0.0125  0.4247
  552MOL0     C74389   0.401   3.629   3.483  0.5528  0.6190  0.0643
  552MOL0     C74390   0.376   3.659   3.345 -0.3323  0.3427 -0.0635
  552MOL0     C74391   0.249   3.707   3.305  0.1107  0.2205 -0.1483
  552MOL0     C74392   0.148   3.736   3.395 -0.2603  0.1694 -0.8074
  552MOL0     O74393   0.026   3.793   3.365 -0.4338  0.0310 -0.3926
  552MOL0     C74394  -0.033   3.769   3.238 -0.1212 -0.0671 -1.0389
  552MOL0     C74395  -0.062   3.619   3.221  0.3636 -0.8349  0.3420
  552MOL0     C74396  -0.173   3.568   3.321  0.1150 -0.4231  0.4153
  552MOL0     C74397  -0.223   3.426   3.283 -0.9743 -0.3153  0.2991
  552MOL0     C74398  -0.303   3.354   3.398 -0.0784  1.1421  0.5400
  552MOL0     C74399  -0.322   3.205   3.363 -0.4846  0.6468  0.2579
  552MOL0     C74400  -0.367   3.134   3.497  0.1883  0.0034  0.6457
  552MOL0     C74401  -0.370   2.978   3.498 -0.0908  0.1192  0.0604
  552MOL0     N74402  -0.411   2.911   3.625  0.3249 -0.4611 -0.4753
  552MOL0     C74403  -0.461   2.975   3.735  0.1259 -0.7407  0.7579
  552MOL0     C74404  -0.450   2.882   3.834 -0.3202 -0.8314 -0.2407
  552MOL0     C74405  -0.490   2.917   3.974 -0.0789  0.2061 -0.0998
  552MOL0     C74406  -0.537   2.801   4.059  0.3984  0.0060 -0.9936
  552MOL0     C74407  -0.630   2.816   4.181 -0.5414 -0.1163  0.2220
  552MOL0     C74408  -0.580   2.895   4.298  0.3441  0.0682  0.1855
  552MOL0     O74409  -0.443   2.936   4.303 -0.6877  0.2840  0.1006
  552MOL0     C74410  -0.408   3.038   4.393  0.9089  0.2167 -0.0465
  552MOL0     C74411  -0.308   3.125   4.351  0.2250 -0.2010 -0.4115
  552MOL0     C74412  -0.274   3.234   4.434  0.5349 -0.1232 -1.0040
  552MOL0     C74413  -0.175   3.327   4.377  0.5283 -0.9368  0.7019
  552MOL0     C74414  -0.332   3.254   4.558  0.5357  0.1443 -1.0521
  552MOL0     C74415  -0.285   3.356   4.661 -0.2893 -0.1929 -0.2084
  552MOL0     O74416  -0.324   3.330   4.792 -0.0323  0.0477 -0.0486
  552MOL0     C74417  -0.321   3.443   4.875  0.1886 -0.1497  0.7650
  552MOL0     C74418  -0.439   3.506   4.893  0.5420 -0.4144  0.2189
  552MOL0     C74419  -0.453   3.614   4.983 -1.1764 -0.4230 -0.3424
  552MOL0     C74420  -0.342   3.682   5.035  0.4025  0.4060 -0.0184
  552MOL0     O74421  -0.346   3.791   5.124  0.2016  0.2034  0.7783
  552MOL0     C74422  -0.219   3.865   5.141 -0.1058  0.8529  0.2729
  552MOL0     C74423  -0.243   4.006   5.201 -0.3103 -0.1001 -0.6578
  552MOL0     C74424  -0.129   4.098   5.241 -0.2383 -0.2521  1.0523
  552MOL0     C74425  -0.043   4.144   5.124 -0.1611 -0.0020  0.6823
  552MOL0     C74426   0.045   4.262   5.181  0.3880  0.5173 -0.1682
  552MOL0     C74427   0.168   4.301   5.089  0.7238  0.2313 -0.2365
  552MOL0     C74428   0.245   4.431   5.146 -0.7440 -1.2964  0.3500
  552MOL0     C74429   0.288   4.510   5.017  0.9471  0.0941  0.6499
  552MOL0    Cl74430   0.324   4.679   5.064 -0.0642 -0.0740  0.3360
  552MOL0     C74431  -0.215   3.616   5.006 -0.0334  1.0482  0.0268
  552MOL0     C74432  -0.209   3.488   4.937  0.5778 -0.9654  0.2896
  552MOL0     O74433  -0.219   3.447   4.626 -0.2010 -0.3652 -0.7582
  552MOL0     C74434  -0.430   3.164   4.597  0.9470 -0.8649  0.0690
  552MOL0     C74435  -0.477   3.071   4.508  0.3542  0.1038 -0.6096
  552MOL0     N74436  -0.400   2.767   3.778 -0.3571 -0.1994  0.8011
  552MOL0     N74437  -0.368   2.790   3.652 -0.5826  0.2909 -1.1011
  552MOL0     C74438   0.167   3.707   3.526 -0.5403 -0.2221 -0.3483
  552MOL0     C74439   0.290   3.655   3.571  0.2164  0.8403  0.1489
  552MOL0     C74440   0.759   3.530   3.520 -0.3223  0.2694  0.3493
  552MOL0     C74441   0.888   3.565   3.475  0.4348  0.1117  0.3791
  552MOL0     C74442   0.999   3.482   3.506 -0.0930  0.2546  0.9510
  552MOL0     C74443   0.982   3.361   3.581  0.1708  0.9780 -0.3748
  552MOL0     O74444   1.066   3.255   3.593 -0.0857 -0.3431  0.3384
  552MOL0     C74445   1.195   3.278   3.538  0.7856  0.0142 -0.0096
  552MOL0     C74446   1.308   3.224   3.626  0.0393 -0.1452 -0.4329
  552MOL0     C74447   1.317   3.266   3.767  0.6194 -0.0768 -0.6202
  552MOL0     C74448   1.394   3.403   3.788  0.8339  0.1353  0.1698
  552MOL0     C74449   1.537   3.392   3.766  0.1597  0.9185  0.1738
  552MOL0     C74450   1.656   3.380   3.757  0.1204 -0.2585 -0.5606
  552MOL0     C74451   0.857   3.347   3.637  0.0055  0.2263 -0.1576
  552MOL0     C74452   0.746   3.421   3.598 -0.4780 -0.5395  0.0106
  552MOL0     H74453   0.459   3.654   3.276  2.0525  1.0751  2.5977
  552MOL0     H74454   0.229   3.729   3.201  0.4004 -1.7933 -0.6790
  552MOL0     H74455  -0.131   3.818   3.240  1.6499  3.8740  1.2549
  552MOL0     H74456   0.027   3.810   3.156  1.6953 -2.4931 -1.0427
  552MOL0     H74457  -0.096   3.616   3.117  3.2569  0.3139 -0.7350
  552MOL0     H74458   0.034   3.568   3.229  0.9597  0.4218  1.5061
  552MOL0     H74459  -0.126   3.565   3.419  3.8327 -1.4530 -1.2107
  552MOL0     H74460  -0.248   3.648   3.319 -2.6287 -2.8154 -2.5769
  552MOL0     H74461  -0.295   3.435   3.201  0.7044  0.4822 -1.1695
  552MOL0     H74462  -0.137   3.366   3.254  1.5455  3.1357 -0.0633
  552MOL0     H74463  -0.236   3.351   3.485  0.1514  1.6485  0.3809
  552MOL0     H74464  -0.404   3.389   3.424  0.1212 -0.4586  4.0594
  552MOL0     H74465  -0.396   3.189   3.284  1.3967 -1.4543 -1.2090
  552MOL0     H74466  -0.233   3.153   3.325 -1.5920 -1.5262  0.5203
  552MOL0     H74467  -0.307   3.163   3.584 -0.7132  1.7294  0.7351
  552MOL0     H74468  -0.463   3.168   3.537 -0.5782  1.2791 -2.0646
  552MOL0     H74469  -0.270   2.939   3.481  0.2803  0.2767  1.6840
  552MOL0     H74470  -0.440   2.954   3.418  1.3042  1.9887 -1.7969
  552MOL0     H74471  -0.514   3.070   3.736  0.1639 -0.6845 -0.8311
  552MOL0     H74472  -0.405   2.966   4.022 -1.7191  2.8842  0.2517
  552MOL0     H74473  -0.577   2.981   3.956 -0.5554 -0.4526 -0.1823
  552MOL0     H74474  -0.455   2.733   4.083  1.6693  2.0992  1.1301
  552MOL0     H74475  -0.590   2.742   3.984 -2.5152  1.0032  0.1514
  552MOL0     H74476  -0.653   2.711   4.203  0.5788 -0.3728  0.2027
  552MOL0     H74477  -0.724   2.859   4.144 -0.4357  0.7256  0.9055
  552MOL0     H74478  -0.591   2.834   4.388  2.9674  1.7036  1.7551
  552MOL0     H74479  -0.641   2.985   4.298  1.6867  1.0805  2.3281
  552MOL0     H74480  -0.269   3.110   4.251 -2.6921 -3.1397 -1.2661
  552MOL0     H74481  -0.087   3.342   4.440  2.6652 -2.9252 -1.6011
  552MOL0     H74482  -0.134   3.297   4.281 -3.8825 -0.4723 -1.5744
  552MOL0     H74483  -0.225   3.424   4.372 -2.0141 -2.2269 -1.7749
  552MOL0     H74484  -0.530   3.463   4.853  1.5227 -0.0038 -2.6738
  552MOL0     H74485  -0.550   3.658   5.003 -2.0955 -0.7161 -3.5082
  552MOL0     H74486  -0.151   3.803   5.200 -1.9952 -1.6335  0.0089
  552MOL0     H74487  -0.173   3.890   5.044  2.7477  2.9744  2.0202
  552MOL0     H74488  -0.299   4.070   5.132 -1.9741 -1.8211 -0.9958
  552MOL0     H74489  -0.309   3.996   5.288  1.0037  1.2187  0.5352
  552MOL0     H74490  -0.068   4.058   5.322 -0.3258 -0.7084  0.9023
  552MOL0     H74491  -0.173   4.185   5.290 -3.6593 -0.5740 -1.0498
  552MOL0     H74492   0.009   4.069   5.065  1.4006  1.9873 -0.5771
  552MOL0     H74493  -0.112   4.178   5.047  1.2363  1.9234  0.2068
  552MOL0     H74494   0.068   4.225   5.282  3.1365 -0.6620 -1.1291
  552MOL0     H74495  -0.011   4.355   5.195 -1.7335 -0.6459 -0.4012
  552MOL0     H74496   0.230   4.211   5.088 -1.5138 -1.5029  2.1194
  552MOL0     H74497   0.128   4.322   4.990 -0.0764  0.6517  0.1658
  552MOL0     H74498   0.327   4.387   5.203 -1.7229 -3.8539 -0.0720
  552MOL0     H74499   0.179   4.493   5.207  1.4265  0.9705  0.5492
  552MOL0     H74500   0.200   4.516   4.952 -3.6810 -1.8199  5.9860
  552MOL0     H74501   0.375   4.456   4.979  0.1377 -4.0697  3.9946
  552MOL0     H74502  -0.131   3.649   5.067 -1.7008  0.1426  3.0273
  552MOL0     H74503  -0.112   3.441   4.929  1.2198  0.2841  0.4288
  552MOL0     H74504  -0.487   3.185   4.687  0.4040  1.0868 -0.6691
  552MOL0     H74505  -0.552   3.004   4.547 -0.1207  0.0757 -1.5398
  552MOL0     H74506   0.086   3.713   3.597 -1.2777  0.7169 -1.2507
  552MOL0     H74507   0.299   3.646   3.679  2.1798 -1.8763 -0.1294
  552MOL0     H74508   0.899   3.644   3.402  0.2799 -0.9835 -0.8580
  552MOL0     H74509   1.092   3.522   3.467 -0.8907 -0.3885 -1.8085
  552MOL0     H74510   1.205   3.232   3.439  2.7479 -1.3688  0.7693
  552MOL0     H74511   1.238   3.378   3.525  4.3453 -1.3575  0.0591
  552MOL0     H74512   1.402   3.241   3.573  0.9430  3.5259  1.9713
  552MOL0     H74513   1.287   3.116   3.633 -1.1815  0.0830 -0.2913
  552MOL0     H74514   1.366   3.179   3.813 -2.2830  0.1931  3.5029
  552MOL0     H74515   1.215   3.273   3.805  0.3645  0.7234 -1.4164
  552MOL0     H74516   1.374   3.439   3.889 -0.0665  2.3394 -0.7300
  552MOL0     H74517   1.354   3.475   3.716 -2.4542 -0.1360  1.5213
  552MOL0     H74518   1.759   3.390   3.786  0.2237  0.2392 -1.0779
  552MOL0     H74519   0.829   3.274   3.712 -3.3616 -0.6905 -2.0913
  552MOL0     H74520   0.658   3.392   3.655  0.4751 -1.3910  1.1094
  553MOL0     O74521   2.207   5.446   5.579  0.2536 -0.3679 -0.1243
  553MOL0     C74522   2.253   5.401   5.476 -0.2473 -0.4076  0.2574
  553MOL0     O74523   2.276   5.474   5.362 -0.1182  0.2379  0.3868
  553MOL0     C74524   2.229   5.599   5.381  0.5843 -1.3949 -0.9750
  553MOL0     C74525   2.314   5.708   5.391 -0.0168 -0.5988  0.3293
  553MOL0     C74526   2.271   5.845   5.389 -0.0901  0.0669 -0.6148
  553MOL0     C74527   2.136   5.872   5.389  0.3306  0.5882 -0.4099
  553MOL0     O74528   2.102   6.002   5.391  0.6573 -1.5542  0.2334
  553MOL0     C74529   1.974   6.041   5.447 -0.0834 -1.4151  0.6055
  553MOL0     C74530   1.972   6.038   5.599  0.7273 -0.2536  0.9803
  553MOL0     C74531   1.846   6.103   5.652  0.5709  0.1494  0.7421
  553MOL0     C74532   1.727   6.004   5.686 -0.5854 -0.9920 -0.0310
  553MOL0     C74533   1.606   6.080   5.757  0.1708  1.0723 -0.7614
  553MOL0     C74534   1.482   5.977   5.777  0.5295 -0.8841 -0.3851
  553MOL0     C74535   1.376   6.031   5.873  0.7258 -0.0406 -0.4057
  553MOL0     C74536   1.281   5.913   5.932 -0.0732 -0.3906  0.7448
  553MOL0     N74537   1.228   5.951   6.070  0.2951  0.3780  0.7387
  553MOL0     C74538   1.158   6.064   6.099 -0.5256  0.1039 -0.1018
  553MOL0     C74539   1.106   6.047   6.226 -0.5647  1.8990  0.3486
  553MOL0     C74540   1.032   6.152   6.311 -0.9239  0.0524  0.1530
  553MOL0     C74541   1.121   6.206   6.427 -0.7434  0.4737  0.0958
  553MOL0     C74542   1.158   6.116   6.545  0.3556 -0.2565 -0.1030
  553MOL0     C74543   1.189   6.184   6.683 -0.2140  0.6321 -0.3403
  553MOL0     O74544   1.282   6.294   6.671  0.4428 -0.6735  0.3876
  553MOL0     C74545   1.349   6.328   6.789  0.3903  0.2678  0.4901
  553MOL0     C74546   1.271   6.318   6.904 -0.2365 -0.8159 -0.6401
  553MOL0     C74547   1.315   6.352   7.038  0.2786  0.1669  0.0618
  553MOL0     C74548   1.200   6.328   7.140  0.3132 -0.2273  0.0253
  553MOL0     C74549   1.445   6.402   7.051 -0.9888  0.5358 -0.3425
  553MOL0     C74550   1.514   6.421   7.186 -0.1996 -0.2082 -0.2903
  553MOL0     O74551   1.446   6.416   7.304  0.2230  0.8811 -0.3030
  553MOL0     C74552   1.501   6.431   7.422  0.4946  0.2358 -1.2300
  553MOL0     C74553   1.570   6.324   7.482  0.0374  0.1866 -0.1620
  553MOL0     C74554   1.643   6.334   7.602  1.7413  0.4179 -0.6240
  553MOL0     C74555   1.656   6.460   7.665  0.2821  0.1779 -0.5656
  553MOL0     O74556   1.718   6.481   7.790 -0.8254  0.6437 -0.1249
  553MOL0     C74557   1.814   6.394   7.851  0.1226 -0.1175  1.3759
  553MOL0     C74558   1.865   6.463   7.976 -0.1129  0.0190 -0.3385
  553MOL0     C74559   2.013   6.431   7.999 -0.0176 -0.1410  0.0853
  553MOL0     C74560   2.058   6.507   8.127  0.1157  0.0689  0.1823
  553MOL0     C74561   2.206   6.484   8.161  0.0071  0.1799  0.5117
  553MOL0     C74562   2.252   6.523   8.305  0.0878  0.8158  0.9832
  553MOL0     C74563   2.220   6.663   8.362  1.0653 -0.0869 -0.1511
  553MOL0     C74564   2.283   6.689   8.507 -0.1630  0.0307  0.5853
  553MOL0    Cl74565   2.453   6.625   8.518 -0.4561 -0.1203 -0.2878
  553MOL0     C74566   1.589   6.566   7.607  0.9442  0.4064  0.2213
  553MOL0     C74567   1.515   6.554   7.485 -0.1256 -0.0152  0.2990
  553MOL0     O74568   1.629   6.450   7.183  0.2674  0.3337  0.6033
  553MOL0     C74569   1.520   6.415   6.928 -0.4744  0.4371 -0.2504
  553MOL0     C74570   1.466   6.392   6.803  0.5738 -0.2677  0.5727
  553MOL0     N74571   1.162   5.923   6.274  1.3555 -0.3355  0.2951
  553MOL0     N74572   1.219   5.872   6.175 -0.1020 -0.1100  0.1627
  553MOL0     C74573   2.044   5.767   5.381  0.2555  0.4965  0.9776
  553MOL0     C74574   2.090   5.630   5.372  0.0170 -0.2454  0.4936
  553MOL0     C74575   2.298   5.258   5.474  0.2619  0.6037  0.0700
  553MOL0     C74576   2.234   5.161   5.569  0.3314  0.2006  0.1337
  553MOL0     C74577   2.274   5.032   5.566  0.4271 -0.2410 -0.5671
  553MOL0     C74578   2.358   4.988   5.468 -0.4919 -0.3220 -0.5399
  553MOL0     O74579   2.380   4.859   5.466 -0.0780 -0.0713 -0.7230
  553MOL0     C74580   2.474   4.798   5.371  0.1660  0.9061  0.3083
  553MOL0     C74581   2.495   4.644   5.405  0.4969  0.0927  0.3613
  553MOL0     C74582   2.356   4.576   5.370  0.0517  0.4600  0.7221
  553MOL0     C74583   2.368   4.427   5.350  0.3728  0.8018 -0.5020
  553MOL0     C74584   2.237   4.367   5.315  0.2621 -0.4626 -0.6054
  553MOL0     C74585   2.127   4.316   5.302  0.2698 -0.0142  0.4029
  553MOL0     C74586   2.427   5.073   5.383  0.3589  0.4724 -0.0552
  553MOL0     C74587   2.397   5.207   5.389  0.0231  0.0025  0.4087
  553MOL0     H74588   2.421   5.692   5.402  0.0370 -1.0543 -0.7653
  553MOL0     H74589   2.344   5.925   5.382  0.7514 -0.7350 -1.4324
  553MOL0     H74590   1.956   6.142   5.410  3.5723 -1.1106 -0.7420
  553MOL0     H74591   1.891   5.982   5.404 -0.5366 -0.1967 -0.2386
  553MOL0     H74592   1.995   5.936   5.631  1.9056  0.0674  1.2066
  553MOL0     H74593   2.054   6.094   5.645 -0.4891  1.1387  1.5278
  553MOL0     H74594   1.866   6.157   5.745 -2.5005  0.8683  1.1155
  553MOL0     H74595   1.803   6.173   5.580  0.6999  1.6361  2.0733
  553MOL0     H74596   1.702   5.955   5.592 -0.2224  3.0189 -2.4743
  553MOL0     H74597   1.756   5.925   5.755 -0.6078  0.3886  1.6500
  553MOL0     H74598   1.629   6.108   5.860 -1.1779 -1.9286  0.4588
  553MOL0     H74599   1.575   6.165   5.695 -2.2787  0.3957 -0.5579
  553MOL0     H74600   1.426   5.963   5.684 -0.8576 -0.0596  0.2948
  553MOL0     H74601   1.517   5.890   5.834 -3.1162 -1.6544  0.9691
  553MOL0     H74602   1.421   6.088   5.954  2.5813 -2.2119  0.2174
  553MOL0     H74603   1.310   6.101   5.822 -2.6669 -3.7401 -1.6474
  553MOL0     H74604   1.336   5.818   5.942 -2.2450 -1.7575  0.2912
  553MOL0     H74605   1.201   5.904   5.859  0.3045  1.4814  0.0605
  553MOL0     H74606   1.139   6.154   6.042 -0.0391 -0.9510 -2.0042
  553MOL0     H74607   1.014   6.240   6.248  2.4760  3.1755  3.0596
  553MOL0     H74608   0.938   6.109   6.346 -0.4963 -1.5477 -0.5711
  553MOL0     H74609   1.076   6.300   6.462 -0.7327  0.1921  0.8632
  553MOL0     H74610   1.215   6.235   6.379  1.2043  0.7608  3.7570
  553MOL0     H74611   1.237   6.043   6.527  1.1285 -0.6449  3.9296
  553MOL0     H74612   1.076   6.045   6.562 -1.2213  1.1186 -1.6448
  553MOL0     H74613   1.217   6.103   6.751  0.9246  1.8446  0.6890
  553MOL0     H74614   1.093   6.226   6.715 -0.6885  2.2916 -3.4962
  553MOL0     H74615   1.164   6.299   6.899 -0.0431 -1.8465 -1.2193
  553MOL0     H74616   1.137   6.417   7.149  2.1670  1.2895 -1.1436
  553MOL0     H74617   1.138   6.249   7.096  0.5597  0.6634 -2.0740
  553MOL0     H74618   1.231   6.296   7.240 -0.9190  1.2112  0.9174
  553MOL0     H74619   1.571   6.235   7.419  0.4153  1.8703 -2.6625
  553MOL0     H74620   1.694   6.251   7.649 -1.1861 -0.5416  1.1019
  553MOL0     H74621   1.768   6.301   7.884 -0.7075  0.5994  2.3065
  553MOL0     H74622   1.894   6.378   7.778 -1.7113 -0.2096 -0.7369
  553MOL0     H74623   1.863   6.571   7.965  3.4479  0.2290 -0.0533
  553MOL0     H74624   1.808   6.430   8.062  0.6348  0.5137  0.3598
  553MOL0     H74625   2.066   6.487   7.921  1.3283 -0.4222  0.7605
  553MOL0     H74626   2.038   6.324   8.003  1.0291  0.1278  2.8331
  553MOL0     H74627   2.050   6.611   8.092 -1.9953 -0.8373 -2.3185
  553MOL0     H74628   1.990   6.486   8.210  0.4049 -5.9746 -0.7029
  553MOL0     H74629   2.273   6.543   8.098 -0.2806 -0.6349 -0.6039
  553MOL0     H74630   2.239   6.380   8.153  2.0564  0.3239  4.7151
  553MOL0     H74631   2.213   6.442   8.368 -0.7537 -0.2219 -0.8211
  553MOL0     H74632   2.361   6.512   8.304 -0.0441 -1.1791 -1.8351
  553MOL0     H74633   2.114   6.687   8.376  1.4793  0.6149  2.3668
  553MOL0     H74634   2.263   6.726   8.283  2.8022 -0.3172  0.5544
  553MOL0     H74635   2.226   6.652   8.593 -0.5454 -1.9791 -0.4924
  553MOL0     H74636   2.293   6.797   8.521  0.5887 -0.1240  1.2642
  553MOL0     H74637   1.598   6.657   7.664  2.0726  0.4484  0.0020
  553MOL0     H74638   1.457   6.636   7.443  0.0626 -0.3420 -0.6217
  553MOL0     H74639   1.625   6.441   6.924 -0.4722  0.2709 -2.1472
  553MOL0     H74640   1.525   6.416   6.714 -0.6050  3.8954  0.6726
  553MOL0     H74641   1.936   5.769   5.370  0.2892  1.3082  0.7460
  553MOL0     H74642   2.023   5.548   5.351  0.4903 -0.5742  0.2312
  553MOL0     H74643   2.163   5.204   5.639 -1.0854  0.0047 -1.1350
  553MOL0     H74644   2.247   4.964   5.647  0.4871 -3.6749 -3.1909
  553MOL0     H74645   2.427   4.801   5.272  2.1760 -1.5941 -0.8218
  553MOL0     H74646   2.567   4.856   5.373  2.0694 -1.9099 -0.7192
  553MOL0     H74647   2.520   4.628   5.511  1.8081 -2.6944 -0.2652
  553MOL0     H74648   2.574   4.611   5.338 -0.1893 -0.9042  0.0016
  553MOL0     H74649   2.324   4.609   5.271 -1.7649 -0.4444  0.9788
  553MOL0     H74650   2.285   4.598   5.450 -0.2313 -2.2332  1.2946
  553MOL0     H74651   2.399   4.384   5.446  1.6902  2.4707 -0.1266
  553MOL0     H74652   2.444   4.416   5.272 -0.5912 -1.8191 -1.1601
  553MOL0     H74653   2.029   4.274   5.308  0.5015 -0.3728  3.0336
  553MOL0     H74654   2.504   5.041   5.314  0.9247 -1.4943  1.3840
  553MOL0     H74655   2.446   5.269   5.314  1.4492 -0.6830  0.7281
  554MOL0     O74656   3.951  10.847  11.444  0.0091  0.2428  0.1553
  554MOL0     C74657   3.951  10.729  11.466  0.4203 -0.6901  0.2984
  554MOL0     O74658   3.840  10.659  11.526 -0.6643  0.4990  0.0701
  554MOL0     C74659   3.719  10.704  11.567  0.7294  0.7978 -0.1515
  554MOL0     C74660   3.648  10.809  11.508  0.5027 -1.0276 -0.1572
  554MOL0     C74661   3.525  10.854  11.551  0.8272 -1.0724  0.0010
  554MOL0     C74662   3.456  10.793  11.653 -0.8091  0.1809  0.6346
  554MOL0     O74663   3.334  10.837  11.708 -0.1010 -0.0359  0.9406
  554MOL0     C74664   3.308  10.972  11.713 -0.2171 -0.3978  0.1068
  554MOL0     C74665   3.252  11.018  11.849  0.3483  0.2633 -0.2528
  554MOL0     C74666   3.149  10.923  11.906 -1.0612 -0.0373 -0.0471
  554MOL0     C74667   3.092  11.008  12.027  0.2130  0.3029 -0.2573
  554MOL0     C74668   3.016  10.928  12.140 -0.0261  0.7304 -0.5329
  554MOL0     C74669   2.917  10.830  12.085 -0.3748 -0.0155  0.5560
  554MOL0     C74670   2.798  10.804  12.177 -0.7306  0.9190  0.6572
  554MOL0     C74671   2.672  10.786  12.093  0.3563 -0.3618  0.3049
  554MOL0     N74672   2.575  10.704  12.168 -0.5077 -0.1725 -0.1567
  554MOL0     C74673   2.480  10.753  12.256 -0.3758 -0.3103 -0.0310
  554MOL0     C74674   2.396  10.650  12.285  0.4257  0.5538 -0.2636
  554MOL0     C74675   2.277  10.648  12.382  0.3511 -1.1379 -0.9461
  554MOL0     C74676   2.175  10.741  12.321  0.2129 -0.2503 -1.1502
  554MOL0     C74677   2.057  10.746  12.431  0.1003  0.0166  0.4985
  554MOL0     C74678   1.945  10.832  12.361 -0.8565 -0.7962 -0.5810
  554MOL0     O74679   1.885  10.909  12.468  0.1478  0.9386 -0.0521
  554MOL0     C74680   1.751  10.928  12.451  0.3252  0.0492  0.4567
  554MOL0     C74681   1.695  11.045  12.402  0.2781  0.2625 -0.2988
  554MOL0     C74682   1.558  11.066  12.387  0.3097 -0.1502  0.7945
  554MOL0     C74683   1.530  11.213  12.342  0.5088  0.0995  0.1258
  554MOL0     C74684   1.467  10.960  12.415  0.2468  0.4090  0.5392
  554MOL0     C74685   1.322  10.978  12.392  0.2865  0.5197  0.5767
  554MOL0     O74686   1.254  10.862  12.416  0.7188 -0.4209  0.2548
  554MOL0     C74687   1.123  10.836  12.400  0.5467 -0.4387  0.9589
  554MOL0     C74688   1.023  10.927  12.374 -0.5247 -0.6769 -0.2815
  554MOL0     C74689   0.895  10.875  12.356  0.5334  0.5797 -0.3817
  554MOL0     C74690   0.851  10.737  12.373 -0.3680  0.5365  0.0813
  554MOL0     O74691   0.725  10.675  12.371 -0.9435  0.1752 -0.5971
  554MOL0     C74692   0.626  10.724  12.279 -0.1454  0.6735  0.9425
  554MOL0     C74693   0.478  10.702  12.304  0.0707 -0.1672 -0.4217
  554MOL0     C74694   0.443  10.550  12.308  0.5216 -0.9421 -0.1355
  554MOL0     C74695   0.302  10.526  12.357 -0.2076 -0.7621  0.0561
  554MOL0     C74696   0.223  10.422  12.286 -0.4820 -0.6596 -0.0486
  554MOL0     C74697   0.165  10.473  12.151  0.5551 -0.2412 -0.2350
  554MOL0     C74698   0.052  10.376  12.104  0.4208 -0.0249  0.4855
  554MOL0     C74699   0.002  10.408  11.957 -1.0609  0.3475  0.8276
  554MOL0    Cl74700   0.101  10.320  11.832  0.3218 -0.0687  0.1071
  554MOL0     C74701   0.962  10.654  12.388 -0.2347 -0.2084  0.1870
  554MOL0     C74702   1.091  10.705  12.399  0.0589 -0.1659 -0.5945
  554MOL0     O74703   1.270  11.088  12.365 -1.0356  0.9713 -0.9762
  554MOL0     C74704   1.525  10.833  12.455  0.5428 -0.3327 -0.4102
  554MOL0     C74705   1.662  10.820  12.476 -0.4960  1.3032  0.3347
  554MOL0     N74706   2.447  10.535  12.223 -0.1632  0.3222 -0.0876
  554MOL0     N74707   2.539  10.575  12.141  0.7961  0.7889 -0.6328
  554MOL0     C74708   3.525  10.698  11.715  0.4723  0.0985 -0.5008
  554MOL0     C74709   3.652  10.645  11.689  0.2296 -0.4593  0.7736
  554MOL0     C74710   4.060  10.636  11.430 -1.1451 -0.8557  0.4783
  554MOL0     C74711   4.183  10.694  11.397  0.1067 -0.2806  0.1629
  554MOL0     C74712   4.301  10.616  11.373  0.0091 -0.1143  0.3632
  554MOL0     C74713   4.291  10.477  11.377 -0.4915  0.1633  0.2865
  554MOL0     O74714   4.397  10.390  11.366  0.7748 -0.4447  0.6247
  554MOL0     C74715   4.535  10.436  11.385  1.0070 -0.1627  0.7932
  554MOL0     C74716   4.614  10.321  11.434 -0.4638 -0.1969  0.0876
  554MOL0     C74717   4.756  10.354  11.419 -0.3842  0.5590 -0.5113
  554MOL0     C74718   4.846  10.245  11.468 -0.0634  0.3904  0.5916
  554MOL0     C74719   4.992  10.277  11.493 -0.3543 -0.0605  1.0375
  554MOL0     C74720   5.106  10.309  11.522 -1.0377 -0.8220  1.2190
  554MOL0     C74721   4.164  10.415  11.395 -0.1809 -0.0063  0.1016
  554MOL0     C74722   4.057  10.493  11.425  0.0954  1.2070 -0.3130
  554MOL0     H74723   3.695  10.859  11.423 -0.7582  0.1549 -0.1962
  554MOL0     H74724   3.470  10.938  11.509  1.1177 -1.0774 -0.3900
  554MOL0     H74725   3.395  11.031  11.683 -0.4828 -0.6762 -1.2760
  554MOL0     H74726   3.227  10.989  11.641 -1.1955 -0.1985  1.2061
  554MOL0     H74727   3.338  11.033  11.915  0.3936  0.4400 -0.3502
  554MOL0     H74728   3.220  11.122  11.836  1.0740  0.6099  0.6178
  554MOL0     H74729   3.073  10.884  11.837 -0.1791 -1.6398 -0.1507
  554MOL0     H74730   3.186  10.835  11.958 -0.2720  0.2886 -0.0474
  554MOL0     H74731   3.167  11.053  12.093 -1.5855 -1.2868  3.1408
  554MOL0     H74732   3.029  11.084  11.980 -1.1435 -1.4092 -1.3295
  554MOL0     H74733   3.090  10.873  12.199 -3.2215  0.3860  3.6525
  554MOL0     H74734   2.981  11.000  12.215 -0.9330  0.2362 -0.4602
  554MOL0     H74735   2.875  10.863  11.990 -1.7884 -4.2293 -0.4965
  554MOL0     H74736   2.960  10.735  12.051  0.6116  1.0645 -1.4363
  554MOL0     H74737   2.820  10.706  12.220  3.2473  1.6498  0.6858
  554MOL0     H74738   2.796  10.890  12.244  1.0894 -0.0133  2.0105
  554MOL0     H74739   2.698  10.734  12.001 -1.1178 -1.3887  0.4319
  554MOL0     H74740   2.628  10.881  12.060  0.7404 -1.5184 -4.0248
  554MOL0     H74741   2.475  10.856  12.289 -0.1848 -0.9817  2.2504
  554MOL0     H74742   2.242  10.544  12.387  0.9878 -1.4153 -1.9778
  554MOL0     H74743   2.308  10.675  12.483  2.1643  0.5986 -1.8830
  554MOL0     H74744   2.142  10.697  12.227 -0.3751  1.9771 -2.0675
  554MOL0     H74745   2.211  10.844  12.311  0.1730 -0.2353 -1.1338
  554MOL0     H74746   2.085  10.791  12.527 -0.7709  3.4340 -0.7273
  554MOL0     H74747   2.038  10.639  12.448  0.0869  0.3817  3.1824
  554MOL0     H74748   1.875  10.762  12.314 -0.3932 -2.0677  0.5596
  554MOL0     H74749   1.981  10.904  12.287  2.1734  0.0939  1.5339
  554MOL0     H74750   1.768  11.123  12.382  1.1430  0.6136  3.4912
  554MOL0     H74751   1.449  11.251  12.406 -0.4463 -3.0435  0.9572
  554MOL0     H74752   1.612  11.285  12.331 -0.4289  0.7705 -4.6163
  554MOL0     H74753   1.493  11.214  12.239  3.1416  1.2047 -0.8905
  554MOL0     H74754   1.043  11.033  12.366  1.0785 -0.9962 -0.7592
  554MOL0     H74755   0.816  10.946  12.334 -0.0746  0.3307  0.8888
  554MOL0     H74756   0.634  10.831  12.258 -1.3217  1.0075  2.0916
  554MOL0     H74757   0.635  10.672  12.183 -1.1524  0.8285  0.7524
  554MOL0     H74758   0.449  10.737  12.404  2.5634 -0.8337  0.6350
  554MOL0     H74759   0.410  10.753  12.235 -0.3155  1.2991  0.9765
  554MOL0     H74760   0.515  10.511  12.380  2.9775  1.2870 -1.1894
  554MOL0     H74761   0.465  10.500  12.213 -0.4393  0.0847 -0.9196
  554MOL0     H74762   0.300  10.491  12.460 -4.1904 -3.0974 -0.5877
  554MOL0     H74763   0.248  10.620  12.342  0.8391 -0.6334 -4.1542
  554MOL0     H74764   0.142  10.394  12.355  0.1417  0.5928  1.2293
  554MOL0     H74765   0.296  10.342  12.272  1.0640  0.8331 -0.7646
  554MOL0     H74766   0.130  10.577  12.156  3.6421  0.8835  1.2715
  554MOL0     H74767   0.247  10.476  12.078  0.5342  2.1566 -0.2597
  554MOL0     H74768  -0.024  10.385  12.183  1.7149 -0.0636  1.7755
  554MOL0     H74769   0.100  10.278  12.101 -3.4938 -2.1497 -1.2288
  554MOL0     H74770   0.013  10.517  11.949  0.5270  0.1636  0.2820
  554MOL0     H74771  -0.101  10.372  11.948 -0.6957 -0.2414 -1.8449
  554MOL0     H74772   0.941  10.547  12.391 -2.6115  0.2243  0.4325
  554MOL0     H74773   1.169  10.631  12.414 -1.5780 -2.1553 -1.4530
  554MOL0     H74774   1.464  10.749  12.486  0.3889 -0.0215  0.1515
  554MOL0     H74775   1.697  10.724  12.512  1.5145  1.6542 -0.5399
  554MOL0     H74776   3.478  10.649  11.799  3.3801 -0.8289  0.7329
  554MOL0     H74777   3.706  10.574  11.750  1.1780 -0.4146  0.0267
  554MOL0     H74778   4.192  10.803  11.400 -0.8682 -0.1883  0.3982
  554MOL0     H74779   4.393  10.671  11.354  0.3091 -0.8623 -0.4111
  554MOL0     H74780   4.567  10.479  11.290 -2.1601 -0.9319 -0.7830
  554MOL0     H74781   4.535  10.512  11.464  1.3235  1.8926 -1.0922
  554MOL0     H74782   4.587  10.238  11.369 -1.2439  0.4256 -0.3894
  554MOL0     H74783   4.597  10.294  11.539 -0.4184 -1.0842 -0.1245
  554MOL0     H74784   4.784  10.440  11.481 -0.4565 -0.1462  0.5239
  554MOL0     H74785   4.788  10.370  11.316  3.5074 -0.1466  0.4321
  554MOL0     H74786   4.851  10.158  11.402  2.2655  0.2524  0.8752
  554MOL0     H74787   4.814  10.219  11.569  2.3204  3.5511  2.3544
  554MOL0     H74788   5.198  10.354  11.554  0.0804 -2.6778  0.7795
  554MOL0     H74789   4.144  10.309  11.384 -1.4025  0.3778 -1.8332
  554MOL0     H74790   3.957  10.451  11.427  0.7871 -0.7686 -2.5572
  555MOL0     O74791   2.910   5.461   1.672  0.2471  0.0718  0.4128
  555MOL0     C74792   2.916   5.461   1.795  0.7240 -0.2193 -1.0733
  555MOL0     O74793   2.812   5.461   1.883 -0.1056 -0.4659 -0.1590
  555MOL0     C74794   2.681   5.450   1.854 -0.4973 -0.0019 -0.1032
  555MOL0     C74795   2.618   5.475   1.731 -0.0236  0.6717 -0.2099
  555MOL0     C74796   2.482   5.502   1.716  0.3332 -0.8470  0.7062
  555MOL0     C74797   2.392   5.479   1.821 -0.3011 -0.5051  0.8271
  555MOL0     O74798   2.267   5.505   1.794  0.3614 -0.1309  0.0576
  555MOL0     C74799   2.167   5.535   1.894 -0.9640 -0.1152  0.4946
  555MOL0     C74800   2.016   5.533   1.839  0.1530  0.1272  0.4913
  555MOL0     C74801   2.000   5.631   1.719  0.6188  0.1469 -0.0719
  555MOL0     C74802   1.850   5.669   1.692 -0.5102  0.0643  0.1040
  555MOL0     C74803   1.846   5.781   1.585  0.1969  0.0636 -1.7378
  555MOL0     C74804   1.903   5.746   1.451  0.4301  0.2537  1.0053
  555MOL0     C74805   1.997   5.849   1.392  0.5609 -1.0218 -0.1087
  555MOL0     C74806   1.931   5.982   1.342 -0.1068 -0.9001 -0.3688
  555MOL0     N74807   1.804   5.958   1.251  1.1612  0.6026 -0.4601
  555MOL0     C74808   1.786   5.966   1.118  0.9142 -0.0163 -1.0286
  555MOL0     C74809   1.655   5.972   1.097 -0.3733 -1.1761 -0.4731
  555MOL0     C74810   1.593   5.992   0.962  0.5115  0.4343 -0.7935
  555MOL0     C74811   1.465   6.083   0.962  0.1947 -0.8000  0.0148
  555MOL0     C74812   1.342   6.018   1.007  0.0478  1.6478 -0.0761
  555MOL0     C74813   1.220   6.112   0.981 -0.3605  0.5451  0.0432
  555MOL0     O74814   1.092   6.044   1.003 -0.8233  0.4297  0.0574
  555MOL0     C74815   1.030   5.986   0.893 -0.2027 -0.0929 -0.2935
  555MOL0     C74816   0.902   5.941   0.910  1.5589  1.8205 -0.9733
  555MOL0     C74817   0.826   5.883   0.806 -0.4958  0.4354 -0.0245
  555MOL0     C74818   0.680   5.855   0.824 -0.0753 -0.1524 -0.4157
  555MOL0     C74819   0.893   5.860   0.680  0.3147  0.4405  0.0053
  555MOL0     C74820   0.829   5.808   0.554  0.4586  0.0921 -0.6989
  555MOL0     O74821   0.895   5.822   0.440 -0.2214 -0.3888  0.0585
  555MOL0     C74822   0.857   5.757   0.324  0.3173  0.4105 -0.7588
  555MOL0     C74823   0.787   5.837   0.229 -0.1629 -0.2395  1.1179
  555MOL0     C74824   0.753   5.778   0.104  0.2800  0.3845 -0.0806
  555MOL0     C74825   0.765   5.642   0.079 -0.2087  0.6361  0.6772
  555MOL0     O74826   0.714   5.601  -0.037  0.5141 -0.2454 -0.3537
  555MOL0     C74827   0.758   5.472  -0.090 -0.1907 -0.4470  0.5975
  555MOL0     C74828   0.903   5.475  -0.138  0.7030  0.1147 -1.0794
  555MOL0     C74829   0.940   5.345  -0.212  0.8249 -0.2296  0.3297
  555MOL0     C74830   1.090   5.326  -0.209  0.0261 -0.4191 -0.0368
  555MOL0     C74831   1.122   5.192  -0.271 -0.2659  0.2608  0.2267
  555MOL0     C74832   1.280   5.177  -0.272 -0.1200  0.3440  0.2775
  555MOL0     C74833   1.324   5.072  -0.369 -0.4159  0.0517  0.0032
  555MOL0     C74834   1.440   4.993  -0.317  0.6499  0.3639  0.5532
  555MOL0    Cl74835   1.590   5.097  -0.305 -0.1647 -0.1698  0.6633
  555MOL0     C74836   0.837   5.570   0.179  0.8451 -0.3411 -0.2713
  555MOL0     C74837   0.880   5.626   0.300 -0.4096  0.7326 -0.4329
  555MOL0     O74838   0.727   5.739   0.553  0.1486 -0.1097 -0.2155
  555MOL0     C74839   1.027   5.908   0.667 -0.1015 -0.3018  0.7168
  555MOL0     C74840   1.091   5.961   0.772 -0.7931 -0.6338  0.4889
  555MOL0     N74841   1.590   5.966   1.220 -0.8181  0.0958 -0.7059
  555MOL0     N74842   1.684   5.944   1.311  0.2722  0.7602 -0.0181
  555MOL0     C74843   2.444   5.437   1.942  0.1009 -0.0753 -0.0567
  555MOL0     C74844   2.588   5.417   1.959  0.2918  0.3656  0.0174
  555MOL0     C74845   3.045   5.444   1.852  0.0104 -0.6668 -0.4111
  555MOL0     C74846   3.154   5.385   1.787  0.5938 -0.7631  0.1804
  555MOL0     C74847   3.273   5.370   1.862  0.4675 -0.3689  0.3526
  555MOL0     C74848   3.285   5.414   1.987  0.3977  0.1400 -0.7171
  555MOL0     O74849   3.415   5.399   2.046 -0.2134  0.5675  0.0639
  555MOL0     C74850   3.462   5.465   2.171 -0.0550  0.1971  0.1353
  555MOL0     C74851   3.598   5.439   2.220  0.4764 -0.9148 -0.3126
  555MOL0     C74852   3.650   5.295   2.195  0.9852 -0.2184 -0.7365
  555MOL0     C74853   3.576   5.179   2.257  0.3815 -0.4426  0.5472
  555MOL0     C74854   3.532   5.215   2.393 -0.5461  0.2491  0.7798
  555MOL0     C74855   3.498   5.242   2.505  0.3884  0.3615  0.3340
  555MOL0     C74856   3.178   5.479   2.052  0.1794  0.2468 -0.1742
  555MOL0     C74857   3.055   5.496   1.979 -0.0019 -0.6171 -1.2950
  555MOL0     H74858   2.694   5.496   1.656  0.9259 -0.8832  0.2712
  555MOL0     H74859   2.434   5.522   1.621  0.7753  1.6165  0.9359
  555MOL0     H74860   2.175   5.462   1.976  1.6760  0.1805  0.5738
  555MOL0     H74861   2.189   5.631   1.941  1.3701 -0.8723  1.0691
  555MOL0     H74862   1.998   5.427   1.818  2.4897 -0.8825  3.0138
  555MOL0     H74863   1.946   5.552   1.921 -0.6695 -1.9991  0.3732
  555MOL0     H74864   2.062   5.717   1.746  0.4769  0.7549 -1.5861
  555MOL0     H74865   2.052   5.596   1.629  2.7487  5.2980 -1.2237
  555MOL0     H74866   1.799   5.586   1.642 -0.0126  1.4882 -3.0378
  555MOL0     H74867   1.806   5.708   1.784  3.3902  0.5592  1.9835
  555MOL0     H74868   1.743   5.817   1.579  0.1561  1.1035  2.3130
  555MOL0     H74869   1.901   5.870   1.617 -0.0107  0.3827 -2.2502
  555MOL0     H74870   1.948   5.647   1.446  1.1980  0.5368  2.0443
  555MOL0     H74871   1.811   5.746   1.392  1.4518  2.7346 -0.7954
  555MOL0     H74872   2.054   5.862   1.484 -2.3560 -2.8321  2.1325
  555MOL0     H74873   2.063   5.797   1.321  2.2530 -1.5559  1.7488
  555MOL0     H74874   2.008   6.044   1.296 -1.5127  2.1011  1.0609
  555MOL0     H74875   1.901   6.047   1.425  4.0499 -0.4352  0.9866
  555MOL0     H74876   1.854   5.987   1.037 -0.2105  1.0699 -1.7270
  555MOL0     H74877   1.672   6.045   0.908 -0.0967  1.6288 -0.5656
  555MOL0     H74878   1.568   5.898   0.914 -0.4028  0.5342 -0.5368
  555MOL0     H74879   1.458   6.104   0.855  0.5353 -0.5111  0.0471
  555MOL0     H74880   1.477   6.171   1.027 -1.2289 -0.6999  0.1830
  555MOL0     H74881   1.350   5.992   1.113  1.1093 -6.0691 -1.4582
  555MOL0     H74882   1.328   5.922   0.958 -0.9494  1.0027  1.3846
  555MOL0     H74883   1.229   6.156   0.881 -1.9471 -0.3946 -0.5601
  555MOL0     H74884   1.223   6.206   1.037 -0.5940  0.6921 -0.1872
  555MOL0     H74885   0.852   5.961   1.005 -0.3450  2.7592 -2.0961
  555MOL0     H74886   0.662   5.748   0.838  1.4690 -0.3022  0.7258
  555MOL0     H74887   0.643   5.916   0.908  0.4202 -0.2630 -0.1129
  555MOL0     H74888   0.635   5.883   0.729  1.1191  0.7543 -0.7278
  555MOL0     H74889   0.769   5.944   0.241 -0.5557  0.0987 -1.7298
  555MOL0     H74890   0.711   5.845   0.030 -1.1809  0.3015  0.6423
  555MOL0     H74891   0.757   5.392  -0.015  2.2334 -1.3738 -0.2746
  555MOL0     H74892   0.692   5.432  -0.168  0.4381  1.0231 -0.7412
  555MOL0     H74893   0.907   5.553  -0.216 -0.1814  0.4142 -0.8412
  555MOL0     H74894   0.969   5.505  -0.056 -2.3355  1.8166  0.9371
  555MOL0     H74895   0.896   5.347  -0.312  2.3867 -2.3558 -0.4682
  555MOL0     H74896   0.898   5.266  -0.150  1.7039 -1.6343 -0.7931
  555MOL0     H74897   1.140   5.409  -0.260  1.4730 -0.3141  1.4611
  555MOL0     H74898   1.139   5.334  -0.111 -0.5498  2.7191  0.0928
  555MOL0     H74899   1.091   5.195  -0.376  1.6548 -2.7526 -0.5649
  555MOL0     H74900   1.081   5.104  -0.221  1.5914 -1.0964 -0.4953
  555MOL0     H74901   1.335   5.268  -0.300  0.2327 -0.3423 -1.4305
  555MOL0     H74902   1.302   5.148  -0.169  1.2016  1.3761  0.3194
  555MOL0     H74903   1.357   5.105  -0.468  3.7137  0.1873  1.2497
  555MOL0     H74904   1.245   4.998  -0.384  0.3074 -0.6782 -0.2592
  555MOL0     H74905   1.462   4.916  -0.392  0.9688 -0.7892  1.7956
  555MOL0     H74906   1.414   4.950  -0.220 -1.4571  2.9557  1.2405
  555MOL0     H74907   0.851   5.463   0.165 -0.0955 -0.8248  2.0620
  555MOL0     H74908   0.923   5.565   0.379  0.3653  1.5461 -0.2144
  555MOL0     H74909   1.077   5.885   0.573 -2.9598 -1.8293 -0.5773
  555MOL0     H74910   1.195   5.993   0.763 -1.0967  0.2784  0.0886
  555MOL0     H74911   2.387   5.421   2.033 -2.1505 -3.2933 -1.8224
  555MOL0     H74912   2.626   5.379   2.054  1.4930 -0.4996 -0.7853
  555MOL0     H74913   3.148   5.359   1.682 -0.0360  1.7054 -0.4692
  555MOL0     H74914   3.347   5.312   1.808  0.0409 -0.0873 -0.5577
  555MOL0     H74915   3.454   5.574   2.158  0.8464  0.2391 -0.1526
  555MOL0     H74916   3.398   5.447   2.258 -1.3560  2.5009 -0.2425
  555MOL0     H74917   3.605   5.473   2.323 -0.6386  1.5953 -1.0051
  555MOL0     H74918   3.665   5.505   2.165 -0.9099  0.6834 -0.1409
  555MOL0     H74919   3.754   5.282   2.224  1.3279 -0.5623 -2.0719
  555MOL0     H74920   3.655   5.286   2.086  0.9437  0.6646 -0.8163
  555MOL0     H74921   3.653   5.101   2.259  2.0723  1.0988 -0.3341
  555MOL0     H74922   3.490   5.143   2.200  0.9298 -1.4634  0.3403
  555MOL0     H74923   3.468   5.275   2.603 -0.0207  3.4791 -0.7196
  555MOL0     H74924   3.178   5.514   2.155  2.0873 -2.0404  0.7045
  555MOL0     H74925   2.972   5.552   2.021 -0.0118 -0.3261 -1.6973
  556MOL0     O74926   1.648   9.902   7.678 -0.4493 -0.0751 -0.8045
  556MOL0     C74927   1.733   9.978   7.638  0.0115 -0.1398  0.8968
  556MOL0     O74928   1.725  10.114   7.657  0.1355  0.1518 -0.8133
  556MOL0     C74929   1.628  10.163   7.741  0.5720 -1.0887  0.0820
  556MOL0     C74930   1.666  10.181   7.875  0.3588  0.1597  0.0735
  556MOL0     C74931   1.557  10.209   7.968 -0.2767 -0.6151 -0.1185
  556MOL0     C74932   1.426  10.234   7.920 -0.2932  0.5816  0.2238
  556MOL0     O74933   1.317  10.275   7.985 -0.5039  0.1237 -0.2987
  556MOL0     C74934   1.264  10.404   7.941 -0.1094 -0.4725  0.1398
  556MOL0     C74935   1.279  10.502   8.053  0.0218 -0.0926 -0.4405
  556MOL0     C74936   1.422  10.539   8.091 -0.6615  0.0981 -0.1181
  556MOL0     C74937   1.423  10.633   8.212 -0.0601 -0.0827  0.0698
  556MOL0     C74938   1.566  10.667   8.248 -0.4713 -0.0641  0.3170
  556MOL0     C74939   1.573  10.754   8.376 -0.0020  0.4148 -0.3913
  556MOL0     C74940   1.713  10.792   8.398  0.8442  0.3428  0.6190
  556MOL0     C74941   1.719  10.875   8.527 -0.1326 -0.0517  1.0366
  556MOL0     N74942   1.693  10.798   8.642 -0.1145  0.1503  0.0684
  556MOL0     C74943   1.800  10.744   8.717  0.1977 -0.3333  0.0560
  556MOL0     C74944   1.747  10.702   8.834  0.5756  0.2802 -0.8748
  556MOL0     C74945   1.815  10.645   8.948  0.3821  0.5519  0.2493
  556MOL0     C74946   1.786  10.487   8.956  1.0914  0.6508  0.7089
  556MOL0     C74947   1.867  10.398   9.034 -0.2901 -0.5601 -0.3917
  556MOL0     C74948   2.004  10.378   8.974 -0.0568  0.6953  0.3758
  556MOL0     O74949   1.996  10.308   8.850  1.1391  0.2460  0.9037
  556MOL0     C74950   2.039  10.170   8.849  0.0526 -0.2406 -0.3738
  556MOL0     C74951   2.071  10.093   8.969 -0.7567 -0.0489 -0.7405
  556MOL0     C74952   2.110   9.968   8.976 -0.4559 -0.0056 -0.2855
  556MOL0     C74953   2.151   9.911   9.109 -0.1324 -0.2957 -0.0749
  556MOL0     C74954   2.100   9.902   8.856  0.8715  0.2167  0.4708
  556MOL0     C74955   2.107   9.746   8.859 -0.6735 -0.0967 -0.2234
  556MOL0     O74956   2.163   9.692   8.741  0.7111 -0.1949 -0.0168
  556MOL0     C74957   2.130   9.554   8.722 -0.3395 -0.7535 -0.0444
  556MOL0     C74958   2.150   9.459   8.819 -0.4391  0.4190 -0.3228
  556MOL0     C74959   2.141   9.318   8.781  0.3296  0.3002  0.0858
  556MOL0     C74960   2.085   9.288   8.658 -0.5510 -0.1657 -0.0209
  556MOL0     O74961   2.076   9.157   8.611  0.5491 -0.3870 -0.2444
  556MOL0     C74962   2.066   9.060   8.709 -0.4389 -0.5914 -0.0091
  556MOL0     C74963   2.025   8.927   8.651  0.1139 -0.1661 -0.6158
  556MOL0     C74964   2.114   8.899   8.532 -1.2945  0.5165 -0.2994
  556MOL0     C74965   2.106   8.758   8.481  0.3044  0.5636  0.8244
  556MOL0     C74966   2.198   8.736   8.362 -0.4178  0.5651 -0.7389
  556MOL0     C74967   2.349   8.784   8.369  0.2061  1.0355  1.3236
  556MOL0     C74968   2.423   8.730   8.248 -0.6886 -0.3261  0.5316
  556MOL0     C74969   2.550   8.811   8.213 -0.2536  0.7338 -0.7959
  556MOL0    Cl74970   2.657   8.789   8.355  0.0743 -0.4231 -0.0262
  556MOL0     C74971   2.047   9.387   8.566  0.5182 -0.3690 -0.8178
  556MOL0     C74972   2.091   9.518   8.595  0.4159  0.5100  0.0943
  556MOL0     O74973   2.057   9.684   8.948 -0.1643  0.2365 -0.3247
  556MOL0     C74974   2.076   9.976   8.732 -0.4000 -0.0684  0.6504
  556MOL0     C74975   2.037  10.109   8.728  0.3047 -0.8684  0.0179
  556MOL0     N74976   1.607  10.711   8.821 -0.6719  0.1147 -0.4199
  556MOL0     N74977   1.584  10.776   8.712 -0.0534 -0.7471 -0.7044
  556MOL0     C74978   1.391  10.197   7.787  0.4094  0.2695 -0.4380
  556MOL0     C74979   1.494  10.162   7.705 -0.7017  0.0570  0.2057
  556MOL0     C74980   1.855   9.920   7.592  0.5095 -0.1570  0.0145
  556MOL0     C74981   1.878   9.777   7.585  0.0212 -0.1572  0.3227
  556MOL0     C74982   1.997   9.716   7.558  0.0958 -0.2878  0.3652
  556MOL0     C74983   2.106   9.796   7.519  0.1849  0.6525 -0.6483
  556MOL0     O74984   2.222   9.749   7.486 -0.5426  0.2771  0.6637
  556MOL0     C74985   2.256   9.608   7.500  0.4618  0.0788  0.1058
  556MOL0     C74986   2.203   9.512   7.395  0.3587 -0.3033  0.8027
  556MOL0     C74987   2.249   9.541   7.249  0.8244 -0.0123  0.5934
  556MOL0     C74988   2.269   9.422   7.161  0.0502 -0.2448  0.7339
  556MOL0     C74989   2.317   9.458   7.031 -0.2854  0.4638  0.9204
  556MOL0     C74990   2.359   9.487   6.923  0.3500  0.5003 -0.0676
  556MOL0     C74991   2.079   9.940   7.518 -0.8326 -0.0848 -0.7451
  556MOL0     C74992   1.958   9.996   7.559 -0.2442 -0.7035 -0.9833
  556MOL0     H74993   1.760  10.162   7.926  2.2823  0.9033 -2.9580
  556MOL0     H74994   1.567  10.205   8.076  2.0865  0.2350 -0.2280
  556MOL0     H74995   1.311  10.437   7.848 -5.7341  3.1639 -1.9353
  556MOL0     H74996   1.160  10.384   7.916 -0.4535  1.4081 -0.1043
  556MOL0     H74997   1.222  10.593   8.034 -0.3147 -0.5204 -1.5885
  556MOL0     H74998   1.241  10.445   8.138  1.2636 -3.1637 -1.7792
  556MOL0     H74999   1.484  10.451   8.113  2.5551  2.1310 -0.3220
  556MOL0     H75000   1.465  10.594   8.007 -2.1642 -1.7116 -2.1872
  556MOL0     H75001   1.361  10.721   8.197  1.0606  0.5884 -0.8316
  556MOL0     H75002   1.374  10.586   8.297 -4.3633  4.3426  0.4402
  556MOL0     H75003   1.617  10.575   8.277 -2.6798 -1.0778  1.2721
  556MOL0     H75004   1.615  10.709   8.160  1.4972  0.1102  1.4325
  556MOL0     H75005   1.502  10.837   8.370 -0.2880  0.3650  1.5926
  556MOL0     H75006   1.534  10.693   8.458  1.4128  1.0617  0.8307
  556MOL0     H75007   1.773  10.701   8.409 -1.1775 -0.9954  1.3997
  556MOL0     H75008   1.753  10.855   8.319 -1.0437  0.5876 -0.2013
  556MOL0     H75009   1.664  10.969   8.520  1.2020  0.8134  1.7195
  556MOL0     H75010   1.824  10.905   8.519  0.4261 -2.3940 -4.0979
  556MOL0     H75011   1.900  10.732   8.676 -0.2746 -3.9831 -0.3650
  556MOL0     H75012   1.923  10.654   8.935  0.8573 -0.4559  2.8571
  556MOL0     H75013   1.774  10.682   9.043  0.6863  1.7912 -0.0826
  556MOL0     H75014   1.786  10.442   8.856 -0.7058  0.5048  0.7324
  556MOL0     H75015   1.678  10.471   8.971  0.6961  0.5858 -1.7687
  556MOL0     H75016   1.818  10.301   9.047 -1.7136 -0.1162 -1.9977
  556MOL0     H75017   1.870  10.441   9.135  1.7710 -0.3018 -0.5282
  556MOL0     H75018   2.077  10.335   9.043 -0.7287  0.7154  1.1118
  556MOL0     H75019   2.051  10.475   8.953  1.4894 -0.2289 -0.6648
  556MOL0     H75020   2.057  10.134   9.069  2.8336  2.5149 -1.0479
  556MOL0     H75021   2.054   9.880   9.150 -0.2788 -3.5038 -2.4510
  556MOL0     H75022   2.207   9.818   9.100  0.1637  0.0280 -2.2273
  556MOL0     H75023   2.186   9.987   9.180 -0.2806  0.2507 -0.5767
  556MOL0     H75024   2.180   9.471   8.922 -2.6348  0.2767  0.3691
  556MOL0     H75025   2.162   9.244   8.857 -2.5762 -1.3522 -0.5688
  556MOL0     H75026   2.173   9.041   8.724 -0.4989  0.0938  1.4468
  556MOL0     H75027   2.016   9.085   8.803  0.4431  1.0188  0.0543
  556MOL0     H75028   2.022   8.854   8.733  1.6282  1.3708  0.8987
  556MOL0     H75029   1.921   8.936   8.618  0.3604  0.2012 -1.3150
  556MOL0     H75030   2.219   8.920   8.554 -1.2403  1.2959 -1.2407
  556MOL0     H75031   2.087   8.964   8.449  1.5452  2.3097  0.0553
  556MOL0     H75032   2.137   8.693   8.564 -3.3901 -2.8064 -0.1145
  556MOL0     H75033   2.003   8.734   8.452 -0.1584  0.3013  2.5759
  556MOL0     H75034   2.156   8.784   8.274  2.2000 -0.5128 -2.7290
  556MOL0     H75035   2.199   8.632   8.330 -0.3908  1.0137 -2.2414
  556MOL0     H75036   2.359   8.893   8.376 -0.1416  0.9721  3.5587
  556MOL0     H75037   2.392   8.744   8.462 -0.9065  0.1500  1.4726
  556MOL0     H75038   2.362   8.733   8.157 -0.8026  0.9276  0.6400
  556MOL0     H75039   2.456   8.627   8.266  1.6201  0.1631 -0.4866
  556MOL0     H75040   2.531   8.918   8.198 -2.6898  0.6543  0.9902
  556MOL0     H75041   2.591   8.766   8.122  1.2920  0.8614 -0.1951
  556MOL0     H75042   2.004   9.354   8.472  0.6106 -3.6911  0.1748
  556MOL0     H75043   2.056   9.591   8.523 -0.5751 -0.0241  0.0147
  556MOL0     H75044   2.083   9.929   8.634  0.1950 -0.9236  1.0984
  556MOL0     H75045   2.006  10.151   8.633 -2.9148  0.7046  1.5807
  556MOL0     H75046   1.291  10.196   7.746  0.2581  1.1975 -0.1058
  556MOL0     H75047   1.477  10.130   7.602  0.2028 -0.3201  0.1620
  556MOL0     H75048   1.803   9.715   7.633  0.1478  0.7748  1.8158
  556MOL0     H75049   2.008   9.609   7.570 -4.0647 -1.0151 -1.0476
  556MOL0     H75050   2.365   9.601   7.500  0.6269  1.7123 -1.9131
  556MOL0     H75051   2.222   9.575   7.599 -1.4240  0.3752 -0.4039
  556MOL0     H75052   2.094   9.521   7.392  0.4979  1.6125 -1.8836
  556MOL0     H75053   2.231   9.413   7.431  2.9299 -0.7497 -2.0895
  556MOL0     H75054   2.341   9.601   7.246  0.1652  1.0521  1.0609
  556MOL0     H75055   2.172   9.605   7.206  0.4524  0.1532  1.4925
  556MOL0     H75056   2.182   9.357   7.150  0.1847 -0.5165  1.2780
  556MOL0     H75057   2.348   9.358   7.200 -0.3177 -0.8013  0.5716
  556MOL0     H75058   2.381   9.518   6.823 -1.9204  2.1057 -0.1563
  556MOL0     H75059   2.155  10.005   7.478  0.3329  0.6315  2.3373
  556MOL0     H75060   1.947  10.104   7.560 -3.0672 -0.8034 -4.1042
  557MOL0     O75061   1.500   8.829   9.187 -0.3076  0.5768  0.1882
  557MOL0     C75062   1.536   8.715   9.210 -0.0398  0.1714 -0.0333
  557MOL0     O75063   1.492   8.630   9.307  0.7283 -0.8254 -0.0833
  557MOL0     C75064   1.402   8.673   9.407 -0.3283  0.7932  0.8775
  557MOL0     C75065   1.330   8.792   9.411  0.2563 -0.3527  0.3540
  557MOL0     C75066   1.247   8.822   9.527 -0.1535  0.4631  0.9208
  557MOL0     C75067   1.250   8.743   9.639 -0.1353 -0.6423 -0.3026
  557MOL0     O75068   1.164   8.794   9.735 -0.0084  0.4967  0.1936
  557MOL0     C75069   1.207   8.776   9.867 -0.6345  0.3305  1.1658
  557MOL0     C75070   1.115   8.687   9.949  0.8327 -0.2113  0.5769
  557MOL0     C75071   1.087   8.724  10.094  0.3429 -0.8748  0.4631
  557MOL0     C75072   1.042   8.873  10.104 -0.0698 -0.5529 -0.4953
  557MOL0     C75073   1.022   8.913  10.250  0.2707 -0.5813  0.0089
  557MOL0     C75074   0.936   9.039  10.250 -0.1689  0.9151 -0.9736
  557MOL0     C75075   0.919   9.098  10.387 -1.3988 -0.5940 -0.5685
  557MOL0     C75076   0.826   9.020  10.482 -0.0842  0.4652  0.6444
  557MOL0     N75077   0.682   9.020  10.422 -0.4265 -0.1121  0.1545
  557MOL0     C75078   0.634   8.932  10.329  0.7320  0.9238  0.1831
  557MOL0     C75079   0.501   8.960  10.319 -0.8971  0.4432 -0.8532
  557MOL0     C75080   0.397   8.890  10.237 -0.4213 -0.3166 -0.6874
  557MOL0     C75081   0.356   8.770  10.317 -0.2506  0.3665  0.0610
  557MOL0     C75082   0.248   8.812  10.414  0.0670  1.1118  0.6203
  557MOL0     C75083   0.196   8.693  10.498 -0.6136  0.6541 -0.6174
  557MOL0     O75084   0.216   8.560  10.440  0.1832 -1.0960 -0.3483
  557MOL0     C75085   0.130   8.460  10.467  0.4917  0.3872 -0.0168
  557MOL0     C75086   0.075   8.446  10.594  0.3645 -0.2453  0.4208
  557MOL0     C75087   0.006   8.328  10.621  0.1884 -0.1659  0.5303
  557MOL0     C75088  -0.046   8.306  10.759 -0.1692  0.3729 -0.6936
  557MOL0     C75089  -0.008   8.229  10.520 -0.4758  0.0614  0.0041
  557MOL0     C75090  -0.094   8.107  10.529 -0.7834  0.3886 -0.0174
  557MOL0     O75091  -0.093   8.020  10.428  0.2594 -0.3672 -0.2179
  557MOL0     C75092  -0.185   7.915  10.430 -1.3058  0.3225 -0.4778
  557MOL0     C75093  -0.143   7.783  10.475  0.4027 -0.0393  0.4296
  557MOL0     C75094  -0.220   7.667  10.460  0.3721 -0.1619  0.5283
  557MOL0     C75095  -0.359   7.684  10.440 -0.2505 -0.1710 -0.3388
  557MOL0     O75096  -0.438   7.574  10.449 -0.2971 -0.0229  0.4122
  557MOL0     C75097  -0.577   7.592  10.411 -0.8252 -0.6722  0.3303
  557MOL0     C75098  -0.660   7.463  10.421  0.1365  0.4113 -0.2317
  557MOL0     C75099  -0.695   7.411  10.554  0.6704  1.4256  0.4564
  557MOL0     C75100  -0.772   7.271  10.544 -0.8212 -0.4459  1.5698
  557MOL0     C75101  -0.802   7.212  10.690  0.4445  0.2817 -0.3671
  557MOL0     C75102  -0.924   7.121  10.685  0.0785 -0.2764  0.6805
  557MOL0     C75103  -0.959   7.075  10.831 -0.1723 -0.2857  0.2290
  557MOL0     C75104  -1.064   6.961  10.830 -0.2532  0.2971  0.1183
  557MOL0    Cl75105  -1.211   7.005  10.729 -0.2915 -0.3043 -0.3419
  557MOL0     C75106  -0.404   7.816  10.405 -0.1888  0.0349 -0.2055
  557MOL0     C75107  -0.313   7.921  10.390  0.0394  0.1506 -0.4308
  557MOL0     O75108  -0.179   8.099  10.612  0.2945 -0.1339  0.3337
  557MOL0     C75109   0.049   8.257  10.392  0.6135  0.2535 -0.4184
  557MOL0     C75110   0.113   8.373  10.365  0.1244  0.6441  0.2210
  557MOL0     N75111   0.467   9.072  10.402 -0.0888 -0.4310  0.2147
  557MOL0     N75112   0.576   9.103  10.469 -0.0294 -0.4137 -0.4540
  557MOL0     C75113   1.335   8.624   9.633  0.6603  0.0675 -0.8635
  557MOL0     C75114   1.412   8.591   9.523  0.0085  0.2824  0.0537
  557MOL0     C75115   1.625   8.670   9.102  0.4333  0.0358  0.1325
  557MOL0     C75116   1.642   8.537   9.069  0.1163  0.8557  0.0991
  557MOL0     C75117   1.728   8.490   8.971 -0.0557  0.5007 -0.1525
  557MOL0     C75118   1.806   8.583   8.896  0.6243 -0.1852  0.0367
  557MOL0     O75119   1.874   8.550   8.784  0.6688  0.2957  0.5083
  557MOL0     C75120   1.902   8.413   8.749 -0.0783 -0.2409 -0.4563
  557MOL0     C75121   2.010   8.410   8.633  0.1712  0.6360  0.6385
  557MOL0     C75122   2.075   8.278   8.627  0.7908 -0.0604  0.2172
  557MOL0     C75123   2.207   8.256   8.543  0.1559  1.0025  0.1632
  557MOL0     C75124   2.308   8.361   8.554  0.8711 -1.5069  0.3685
  557MOL0     C75125   2.401   8.433   8.560 -0.4685  0.4285  0.5778
  557MOL0     C75126   1.778   8.717   8.921 -0.2704 -0.8586 -0.1440
  557MOL0     C75127   1.692   8.765   9.023 -0.0863 -1.0425  0.5387
  557MOL0     H75128   1.307   8.852   9.323  2.6727 -0.0795 -0.1685
  557MOL0     H75129   1.185   8.912   9.531 -1.1607 -0.1921  0.3807
  557MOL0     H75130   1.313   8.754   9.881 -0.2745  0.3358 -1.2615
  557MOL0     H75131   1.188   8.877   9.905 -2.8997  0.8959 -1.2094
  557MOL0     H75132   1.022   8.680   9.892  0.2465 -0.9950  1.6017
  557MOL0     H75133   1.150   8.584   9.954  0.3928 -0.4274 -0.3973
  557MOL0     H75134   1.005   8.670  10.143  0.5971  1.0145  3.1178
  557MOL0     H75135   1.175   8.715  10.158  0.0023  1.2755  1.2840
  557MOL0     H75136   1.109   8.949  10.063 -0.4417 -0.4360 -0.8943
  557MOL0     H75137   0.949   8.900  10.054 -1.4822  0.0217  2.2430
  557MOL0     H75138   0.994   8.836  10.323 -0.3180  0.3782  0.8045
  557MOL0     H75139   1.120   8.943  10.286  0.3333  0.4785 -0.9934
  557MOL0     H75140   0.979   9.119  10.189  0.5227  1.3100 -0.0089
  557MOL0     H75141   0.837   9.014  10.212 -1.5081  1.1388  2.0626
  557MOL0     H75142   1.017   9.113  10.433 -1.5686 -2.2301  0.3907
  557MOL0     H75143   0.875   9.197  10.373 -0.1458  0.1486  0.5411
  557MOL0     H75144   0.849   9.068  10.577  4.4940  1.5810 -0.7889
  557MOL0     H75145   0.862   8.917  10.492  0.0195 -0.0298 -3.1935
  557MOL0     H75146   0.699   8.855  10.288 -0.8419 -1.8429  2.5198
  557MOL0     H75147   0.313   8.959  10.222  2.5051  3.5244 -0.7617
  557MOL0     H75148   0.440   8.878  10.137  0.2522 -1.7429 -0.2535
  557MOL0     H75149   0.449   8.736  10.363 -0.6754 -2.5670 -1.0595
  557MOL0     H75150   0.320   8.687  10.256  0.1646 -2.2482  3.1582
  557MOL0     H75151   0.163   8.845  10.353 -0.3086 -2.9222 -1.4011
  557MOL0     H75152   0.283   8.889  10.483  1.8560 -0.4088  1.4901
  557MOL0     H75153   0.090   8.708  10.522 -1.2125 -1.4079 -1.7237
  557MOL0     H75154   0.257   8.682  10.589 -3.6443  2.2265  1.8184
  557MOL0     H75155   0.083   8.521  10.672  0.6853 -0.5413  0.6721
  557MOL0     H75156  -0.150   8.341  10.759  0.0569  1.1060  0.5320
  557MOL0     H75157  -0.044   8.199  10.782  1.5238 -0.4466 -4.0475
  557MOL0     H75158   0.018   8.351  10.836 -1.7731  0.1696  0.8236
  557MOL0     H75159  -0.038   7.763  10.498  0.3911 -1.6599 -0.7682
  557MOL0     H75160  -0.185   7.571  10.497 -0.9402 -0.9551 -0.2000
  557MOL0     H75161  -0.625   7.664  10.480  0.9306  0.1872  0.7109
  557MOL0     H75162  -0.587   7.618  10.305 -2.5638  1.9961  1.0261
  557MOL0     H75163  -0.747   7.487  10.359  1.4117 -4.1259 -4.4481
  557MOL0     H75164  -0.599   7.392  10.363  0.5388  0.8293 -0.3270
  557MOL0     H75165  -0.759   7.484  10.606 -2.0519 -1.1726  1.1030
  557MOL0     H75166  -0.601   7.385  10.602  0.1333 -5.7259 -1.1755
  557MOL0     H75167  -0.866   7.300  10.496 -0.4369 -2.7415 -0.8540
  557MOL0     H75168  -0.716   7.204  10.477  0.9098 -0.0315  2.5305
  557MOL0     H75169  -0.829   7.292  10.760 -1.8536 -1.3622  0.7378
  557MOL0     H75170  -0.718   7.152  10.726  1.6446  2.2356  0.2643
  557MOL0     H75171  -1.005   7.167  10.628  1.4268 -1.4461 -2.4577
  557MOL0     H75172  -0.888   7.042  10.618  1.0591 -1.6074  2.6938
  557MOL0     H75173  -1.000   7.166  10.874  1.0282  1.3287 -1.8186
  557MOL0     H75174  -0.868   7.047  10.886 -0.9614  0.9249  2.2165
  557MOL0     H75175  -1.108   6.952  10.930 -2.5490 -1.6298 -0.9544
  557MOL0     H75176  -1.017   6.870  10.791  2.0351  1.4533  0.0110
  557MOL0     H75177  -0.498   7.841  10.356  1.1417  3.5927 -1.2951
  557MOL0     H75178  -0.345   8.017  10.352 -0.7789 -0.1098 -0.4058
  557MOL0     H75179   0.044   8.180  10.316 -0.8347 -2.3303  2.1275
  557MOL0     H75180   0.166   8.389  10.271 -0.4471  0.7289 -0.0891
  557MOL0     H75181   1.350   8.569   9.725  3.4783 -0.2208 -1.3908
  557MOL0     H75182   1.477   8.504   9.521  0.3465  0.5089  0.9304
  557MOL0     H75183   1.596   8.456   9.127  1.3968  1.9399  2.8177
  557MOL0     H75184   1.723   8.384   8.952 -2.8480  0.4382  0.4814
  557MOL0     H75185   1.952   8.364   8.834 -1.1932 -0.0113  0.3525
  557MOL0     H75186   1.815   8.350   8.724  0.0577 -0.3152 -0.7460
  557MOL0     H75187   2.083   8.486   8.663 -1.6570  1.8478  2.3134
  557MOL0     H75188   1.963   8.443   8.540 -3.2237  3.6617  3.1624
  557MOL0     H75189   2.010   8.190   8.629 -0.4484  0.6838  4.6107
  557MOL0     H75190   2.104   8.257   8.730  0.3050 -0.4424  0.2806
  557MOL0     H75191   2.186   8.236   8.438  1.7894 -1.9689  0.2898
  557MOL0     H75192   2.262   8.171   8.584  0.4645 -0.2088 -2.5506
  557MOL0     H75193   2.483   8.502   8.559  1.2230 -1.4976  0.0323
  557MOL0     H75194   1.835   8.768   8.845 -1.7917 -0.1971 -0.8938
  557MOL0     H75195   1.677   8.872   9.032 -2.0570 -1.2215 -0.0347
  558MOL0     O75196   5.293   2.247   1.922  0.9195 -0.2827  0.3288
  558MOL0     C75197   5.220   2.150   1.938 -0.2876 -0.4893 -0.3828
  558MOL0     O75198   5.145   2.142   2.045 -1.0238  0.4741  0.1372
  558MOL0     C75199   5.151   2.221   2.157 -0.0308 -0.7040 -0.3951
  558MOL0     C75200   5.237   2.332   2.190 -0.1181 -0.0588 -0.2612
  558MOL0     C75201   5.229   2.402   2.319  0.0721 -0.3314 -0.1477
  558MOL0     C75202   5.131   2.360   2.415  0.2662 -0.3929  0.1295
  558MOL0     O75203   5.117   2.433   2.526  0.3567  0.2558 -0.4850
  558MOL0     C75204   5.088   2.358   2.642  0.2133  0.0540 -0.1251
  558MOL0     C75205   5.221   2.326   2.711  0.4233 -0.5124  1.1330
  558MOL0     C75206   5.209   2.252   2.836  0.0154  0.0053 -0.6695
  558MOL0     C75207   5.176   2.339   2.949  0.3173  0.3127 -0.9039
  558MOL0     C75208   5.154   2.256   3.083  0.4964 -0.1649 -0.3478
  558MOL0     C75209   5.093   2.350   3.188  1.1992  0.1662 -0.7642
  558MOL0     C75210   5.049   2.257   3.313 -0.2723  0.0206 -0.4461
  558MOL0     C75211   5.019   2.335   3.438 -0.0521 -0.0686 -0.9084
  558MOL0     N75212   4.883   2.391   3.447  0.2501  0.5192  0.2094
  558MOL0     C75213   4.765   2.329   3.497 -0.8128 -0.2327  0.3493
  558MOL0     C75214   4.671   2.419   3.455 -0.5516 -0.7269  1.0316
  558MOL0     C75215   4.527   2.375   3.451  0.2966  0.2164  0.0936
  558MOL0     C75216   4.503   2.262   3.352 -0.0869 -0.5313 -0.1782
  558MOL0     C75217   4.360   2.213   3.350  0.1931  0.4644  0.7141
  558MOL0     C75218   4.328   2.110   3.245  0.0037  0.1954 -0.2466
  558MOL0     O75219   4.196   2.059   3.257  0.0783  0.2508 -0.0362
  558MOL0     C75220   4.106   2.100   3.156 -0.2703 -0.0109  0.3153
  558MOL0     C75221   4.099   2.225   3.095 -0.7223  0.4224  0.3267
  558MOL0     C75222   4.013   2.245   2.987 -0.3276  0.2488 -0.2929
  558MOL0     C75223   4.037   2.366   2.906 -0.4583 -0.1851  0.3733
  558MOL0     C75224   3.921   2.148   2.946  0.3539 -0.3270  0.3766
  558MOL0     C75225   3.817   2.168   2.840 -0.1150 -0.3379  0.4318
  558MOL0     O75226   3.783   2.050   2.794  0.1340 -0.0834 -0.4724
  558MOL0     C75227   3.690   2.027   2.698  0.4257 -0.1063  0.7861
  558MOL0     C75228   3.643   2.121   2.603 -0.3196 -0.5648 -0.2488
  558MOL0     C75229   3.547   2.092   2.505  0.8848  0.9823  0.5830
  558MOL0     C75230   3.508   1.958   2.481 -0.3920  0.1040 -0.6664
  558MOL0     O75231   3.422   1.937   2.382 -0.0509  0.6586 -0.1206
  558MOL0     C75232   3.319   1.848   2.418 -0.6644 -0.2074  0.1817
  558MOL0     C75233   3.198   1.889   2.343  1.1383 -0.1655 -0.0250
  558MOL0     C75234   3.095   1.971   2.421  0.5629  1.1336  0.7186
  558MOL0     C75235   2.982   2.004   2.316  0.2015  0.1611  0.3221
  558MOL0     C75236   2.836   2.012   2.376 -0.4120  0.9414 -0.1189
  558MOL0     C75237   2.802   2.132   2.460 -0.9899  0.2502  0.2596
  558MOL0     C75238   2.773   2.259   2.384  0.4108  1.1360 -0.9375
  558MOL0     C75239   2.819   2.377   2.470 -0.0361 -0.4845 -0.4944
  558MOL0    Cl75240   2.763   2.361   2.655  0.0892  0.2885  0.2110
  558MOL0     C75241   3.564   1.854   2.570  1.0472 -1.0436 -0.5028
  558MOL0     C75242   3.648   1.889   2.676  0.0036  0.3052 -1.0986
  558MOL0     O75243   3.762   2.277   2.827 -0.0136 -0.2418  0.0846
  558MOL0     C75244   3.927   2.028   3.015  0.3070 -0.7673 -0.9180
  558MOL0     C75245   4.013   2.008   3.122  0.0861  0.1721 -0.3036
  558MOL0     N75246   4.726   2.526   3.390  0.1627 -0.7123  0.3602
  558MOL0     N75247   4.851   2.515   3.398 -0.1073  0.4967  1.1613
  558MOL0     C75248   5.057   2.242   2.381 -0.2860  0.1334 -0.4918
  558MOL0     C75249   5.072   2.174   2.263  1.0661  0.5435 -0.0171
  558MOL0     C75250   5.221   2.029   1.857  0.5012  0.1393 -0.6201
  558MOL0     C75251   5.336   1.977   1.801  0.7207  0.2290 -0.2969
  558MOL0     C75252   5.341   1.859   1.731  0.3535 -0.2656  0.9266
  558MOL0     C75253   5.226   1.783   1.718  0.4871  0.3965  0.5155
  558MOL0     O75254   5.223   1.660   1.648  0.5656 -0.4156  0.1914
  558MOL0     C75255   5.344   1.592   1.605 -0.0921  0.1882  0.5070
  558MOL0     C75256   5.290   1.480   1.518  0.2286  0.1420 -0.7953
  558MOL0     C75257   5.223   1.358   1.584 -0.4838 -0.4676  0.6275
  558MOL0     C75258   5.071   1.364   1.578  1.2184  0.4459  0.5424
  558MOL0     C75259   5.019   1.345   1.439 -0.1493 -0.2806 -0.2906
  558MOL0     C75260   4.971   1.336   1.327 -0.3344  0.1858  0.7677
  558MOL0     C75261   5.098   1.840   1.757  0.1694 -0.4819 -0.0248
  558MOL0     C75262   5.099   1.959   1.826 -0.3417 -0.2127 -0.2435
  558MOL0     H75263   5.301   2.376   2.114  1.3987 -0.5782  0.6791
  558MOL0     H75264   5.300   2.478   2.351  1.7465 -2.7972  2.5143
  558MOL0     H75265   5.024   2.426   2.700  2.3978  1.7594  0.3930
  558MOL0     H75266   5.027   2.267   2.639  1.0203 -0.5026  0.0599
  558MOL0     H75267   5.271   2.271   2.630  1.5874  1.5100  0.4244
  558MOL0     H75268   5.278   2.417   2.729  1.4484 -0.4768 -1.8214
  558MOL0     H75269   5.135   2.172   2.823  1.2594 -1.5670  1.2868
  558MOL0     H75270   5.293   2.190   2.867  1.5792  2.2772 -0.1486
  558MOL0     H75271   5.251   2.418   2.960  0.7563 -0.0449 -1.2671
  558MOL0     H75272   5.082   2.388   2.922 -2.4070 -3.4601  0.7178
  558MOL0     H75273   5.092   2.168   3.062  0.1571  0.5901 -2.8041
  558MOL0     H75274   5.249   2.213   3.115 -0.2328 -2.9216 -1.5870
  558MOL0     H75275   5.174   2.418   3.218  3.7486 -2.5459 -1.0268
  558MOL0     H75276   5.007   2.405   3.148  0.1120 -0.9188  0.0168
  558MOL0     H75277   4.955   2.205   3.291 -1.6481  2.8988 -1.9596
  558MOL0     H75278   5.134   2.194   3.339 -0.2891 -0.0744 -0.6167
  558MOL0     H75279   5.103   2.406   3.444 -1.0707  1.1308 -0.5370
  558MOL0     H75280   5.029   2.267   3.523  0.3551 -0.2659 -1.1083
  558MOL0     H75281   4.748   2.232   3.543 -0.8559  0.1196  1.0884
  558MOL0     H75282   4.499   2.331   3.547  0.4651  2.4142  1.2188
  558MOL0     H75283   4.453   2.456   3.448  1.9311  1.7648 -0.2678
  558MOL0     H75284   4.578   2.183   3.343 -0.8894 -1.0751 -3.7938
  558MOL0     H75285   4.513   2.314   3.256  0.3012 -1.2241 -0.5249
  558MOL0     H75286   4.296   2.301   3.351  1.1326  1.1659  0.4859
  558MOL0     H75287   4.344   2.162   3.445 -1.2291  2.9275  1.8938
  558MOL0     H75288   4.396   2.025   3.257  0.2746  0.4552  0.0578
  558MOL0     H75289   4.353   2.136   3.142 -1.9214  0.4073 -0.7011
  558MOL0     H75290   4.180   2.293   3.122 -1.2243  0.8641  0.7464
  558MOL0     H75291   3.959   2.442   2.908 -0.6405 -0.3273 -0.5800
  558MOL0     H75292   4.130   2.422   2.923 -1.0463  2.2733 -3.3497
  558MOL0     H75293   4.043   2.329   2.803 -1.2698 -1.6504  0.8133
  558MOL0     H75294   3.672   2.225   2.613  1.6804 -1.1978  1.2170
  558MOL0     H75295   3.501   2.171   2.446 -1.3419  0.7187  1.8506
  558MOL0     H75296   3.345   1.743   2.402 -2.3989 -0.4855 -1.1720
  558MOL0     H75297   3.290   1.850   2.523 -2.1972  1.8349 -0.2092
  558MOL0     H75298   3.220   1.944   2.251  0.5401 -0.0505 -0.1070
  558MOL0     H75299   3.146   1.800   2.305  0.2740  1.1347 -2.0747
  558MOL0     H75300   3.144   2.060   2.463  2.0415  1.8940 -2.3665
  558MOL0     H75301   3.046   1.916   2.502 -0.7255  1.3541  0.1307
  558MOL0     H75302   3.002   2.101   2.271  2.9262  0.2669  1.5518
  558MOL0     H75303   2.971   1.927   2.239 -1.7461  0.0645  0.6436
  558MOL0     H75304   2.805   1.920   2.427 -0.2909 -0.0762 -1.7942
  558MOL0     H75305   2.770   2.013   2.289 -1.7981  0.3451  0.8860
  558MOL0     H75306   2.719   2.108   2.527 -0.8732 -4.3754 -0.9359
  558MOL0     H75307   2.882   2.139   2.534  3.0862 -3.6491 -3.2088
  558MOL0     H75308   2.664   2.258   2.368  0.1531 -0.7255  0.5344
  558MOL0     H75309   2.812   2.265   2.282 -0.7437 -1.5609 -1.6116
  558MOL0     H75310   2.781   2.465   2.416  1.0686  0.2354 -0.1363
  558MOL0     H75311   2.927   2.389   2.460  0.5603 -5.3114 -2.9618
  558MOL0     H75312   3.536   1.753   2.543 -0.0468 -0.6047 -1.0641
  558MOL0     H75313   3.694   1.809   2.733 -0.5253  0.1936 -0.8195
  558MOL0     H75314   3.856   1.946   3.003  1.3187 -1.7073 -0.6151
  558MOL0     H75315   4.018   1.914   3.175 -2.1424  0.2401  0.1350
  558MOL0     H75316   4.978   2.204   2.446  0.5649  3.8562  3.1532
  558MOL0     H75317   5.016   2.086   2.237  4.5523 -1.8689 -0.0939
  558MOL0     H75318   5.421   2.045   1.805  1.6376 -0.8127 -1.3864
  558MOL0     H75319   5.437   1.828   1.691  0.0901 -0.0246  0.1088
  558MOL0     H75320   5.403   1.676   1.566 -1.0485  1.0611  0.8864
  558MOL0     H75321   5.393   1.545   1.691 -3.6641 -2.7126  1.1593
  558MOL0     H75322   5.386   1.442   1.480  1.2641  1.9990 -0.1711
  558MOL0     H75323   5.227   1.521   1.438 -1.2059  0.1693  0.3217
  558MOL0     H75324   5.246   1.334   1.689 -2.7358 -1.6649  0.9254
  558MOL0     H75325   5.250   1.273   1.521  2.0579  1.6526 -1.3219
  558MOL0     H75326   5.036   1.456   1.625  3.3836  0.5089  2.1745
  558MOL0     H75327   5.040   1.283   1.644 -0.8544  1.3521  0.7292
  558MOL0     H75328   4.932   1.344   1.228  1.5475  2.1689  0.0922
  558MOL0     H75329   5.002   1.795   1.734 -0.8086  1.9872 -1.1511
  558MOL0     H75330   4.998   1.985   1.854 -0.4912 -0.0118 -0.9399
  559MOL0     O75331   2.201   7.547   3.958  0.9320 -1.1371 -0.5592
  559MOL0     C75332   2.261   7.545   3.851  0.8304  0.2823 -0.6168
  559MOL0     O75333   2.208   7.553   3.730 -0.0873 -1.1139  0.1312
  559MOL0     C75334   2.074   7.544   3.733  0.4050  0.2501 -0.4171
  559MOL0     C75335   2.013   7.419   3.720 -0.2196  0.0943  0.0812
  559MOL0     C75336   1.878   7.418   3.723 -0.0830 -0.2772  0.1884
  559MOL0     C75337   1.797   7.534   3.723 -1.1574 -0.5082 -0.4066
  559MOL0     O75338   1.657   7.515   3.735  0.1224 -1.1924  0.1788
  559MOL0     C75339   1.556   7.619   3.717 -0.4723  0.1527 -0.6137
  559MOL0     C75340   1.418   7.576   3.758 -1.1221 -0.0509 -0.4961
  559MOL0     C75341   1.315   7.689   3.750  0.6363 -1.0852 -0.2148
  559MOL0     C75342   1.179   7.645   3.802  0.4864  0.0673  0.3493
  559MOL0     C75343   1.094   7.578   3.699 -0.1098  0.1862 -0.9441
  559MOL0     C75344   0.940   7.582   3.729 -0.8071 -0.2326 -0.4473
  559MOL0     C75345   0.864   7.538   3.602  0.2683  0.6154  0.9203
  559MOL0     C75346   0.714   7.557   3.619  0.8856 -0.1878  0.7915
  559MOL0     N75347   0.643   7.519   3.496 -0.2907  0.0961  0.3194
  559MOL0     C75348   0.585   7.398   3.473 -0.7598  1.2216  0.2563
  559MOL0     C75349   0.557   7.395   3.345  0.7435 -0.0759 -0.2906
  559MOL0     C75350   0.485   7.284   3.269  0.9255  0.9454 -1.0245
  559MOL0     C75351   0.443   7.334   3.130  0.1816 -0.1671 -0.3941
  559MOL0     C75352   0.338   7.248   3.063  1.9718 -1.3501 -0.7635
  559MOL0     C75353   0.292   7.311   2.936  0.2315 -0.6106  0.3910
  559MOL0     O75354   0.208   7.219   2.869 -0.1446 -0.4584 -0.0476
  559MOL0     C75355   0.133   7.263   2.765 -0.1477 -0.1315 -0.9088
  559MOL0     C75356   0.024   7.193   2.731 -0.7791  0.8078 -0.4729
  559MOL0     C75357  -0.065   7.231   2.629 -0.1217  0.6031  0.5040
  559MOL0     C75358  -0.182   7.134   2.594  0.6544  0.0014  0.0886
  559MOL0     C75359  -0.049   7.347   2.556  0.8491 -1.2736  0.7280
  559MOL0     C75360  -0.129   7.392   2.448  0.6391  0.1536 -0.2140
  559MOL0     O75361  -0.129   7.325   2.335 -0.0955  0.4494 -0.6904
  559MOL0     C75362  -0.247   7.325   2.261  0.1011 -0.0168  0.2998
  559MOL0     C75363  -0.235   7.303   2.127 -0.3734  0.2209  0.0878
  559MOL0     C75364  -0.340   7.314   2.039  0.4444 -0.1802  0.1265
  559MOL0     C75365  -0.472   7.316   2.089 -0.1455  0.8916 -0.5018
  559MOL0     O75366  -0.592   7.296   2.025 -0.2400 -0.8488 -0.9533
  559MOL0     C75367  -0.600   7.251   1.892  0.2036  0.8450 -0.8292
  559MOL0     C75368  -0.592   7.101   1.865  0.1324  0.3663  0.2370
  559MOL0     C75369  -0.447   7.030   1.867 -0.4840 -0.2713 -0.4245
  559MOL0     C75370  -0.469   6.882   1.813 -0.6240 -0.0196  0.1491
  559MOL0     C75371  -0.347   6.792   1.819  0.0279  1.0273  0.1212
  559MOL0     C75372  -0.259   6.815   1.701 -1.6817  0.2233 -0.2287
  559MOL0     C75373  -0.110   6.772   1.742  0.4007 -1.5021 -0.0678
  559MOL0     C75374  -0.014   6.796   1.626 -0.0995  0.1928  0.5541
  559MOL0    Cl75375  -0.010   6.685   1.493  0.0968  0.3552  0.2474
  559MOL0     C75376  -0.490   7.332   2.225  0.7861 -0.1788 -0.9660
  559MOL0     C75377  -0.379   7.350   2.315  0.8896  1.1176 -0.1517
  559MOL0     O75378  -0.182   7.504   2.456  0.1630 -0.6399  0.7555
  559MOL0     C75379   0.063   7.423   2.593 -0.0415  0.6013 -0.3836
  559MOL0     C75380   0.153   7.376   2.686 -0.8720 -0.6677  0.5524
  559MOL0     N75381   0.580   7.526   3.300  0.4094 -0.2265  0.5324
  559MOL0     N75382   0.620   7.602   3.392  0.2266  0.0245 -0.1806
  559MOL0     C75383   1.864   7.658   3.716 -0.3254  0.0317 -0.1975
  559MOL0     C75384   2.002   7.660   3.720 -0.6375 -0.1231  0.6987
  559MOL0     C75385   2.409   7.545   3.864 -0.5524  0.3470  0.0405
  559MOL0     C75386   2.460   7.503   3.987 -0.0088 -0.2263 -0.3351
  559MOL0     C75387   2.600   7.505   3.992 -0.1294 -0.1823 -0.4457
  559MOL0     C75388   2.690   7.545   3.892  0.9083 -1.0854  0.3818
  559MOL0     O75389   2.813   7.565   3.905  0.2356 -0.1844 -0.5199
  559MOL0     C75390   2.902   7.486   3.986 -0.1444  0.8901  0.1109
  559MOL0     C75391   3.024   7.436   3.904  0.1314 -1.0166  0.1183
  559MOL0     C75392   3.093   7.325   3.979  0.6705  0.2726  0.2021
  559MOL0     C75393   3.247   7.316   3.942  0.9707  0.6394  0.2334
  559MOL0     C75394   3.274   7.280   3.803 -0.1412 -0.6419 -0.5583
  559MOL0     C75395   3.285   7.271   3.687 -1.2922  0.4034 -0.0907
  559MOL0     C75396   2.624   7.581   3.774  0.3930 -0.4282 -0.0372
  559MOL0     C75397   2.484   7.598   3.754  0.5260  0.2242  0.3078
  559MOL0     H75398   2.072   7.328   3.727  0.6098  0.6692  0.7036
  559MOL0     H75399   1.814   7.331   3.715 -0.9930  0.5096 -1.9621
  559MOL0     H75400   1.583   7.695   3.791  1.7942 -2.2830  1.2362
  559MOL0     H75401   1.550   7.648   3.612  1.3725  1.1308 -0.4903
  559MOL0     H75402   1.378   7.490   3.703 -0.7870 -0.5463  0.0103
  559MOL0     H75403   1.434   7.544   3.862  1.2972  1.0011 -0.4783
  559MOL0     H75404   1.342   7.783   3.800 -0.1638 -0.9408 -0.0288
  559MOL0     H75405   1.305   7.730   3.649  0.5221  1.6816  0.8401
  559MOL0     H75406   1.212   7.581   3.884  1.0850 -0.0078  0.0598
  559MOL0     H75407   1.128   7.728   3.850 -1.7096 -1.6053  1.0542
  559MOL0     H75408   1.125   7.604   3.598  1.0406 -1.1888 -0.9763
  559MOL0     H75409   1.115   7.471   3.710 -0.8580  0.2859  3.9428
  559MOL0     H75410   0.916   7.518   3.814 -2.5930 -1.1525 -1.5895
  559MOL0     H75411   0.906   7.684   3.751  1.6219  0.4508  0.5027
  559MOL0     H75412   0.897   7.590   3.511 -3.2779  2.2355  0.3824
  559MOL0     H75413   0.892   7.433   3.600 -1.1574  0.2031  1.2672
  559MOL0     H75414   0.692   7.664   3.621 -4.1070 -0.9255 -0.5156
  559MOL0     H75415   0.666   7.517   3.709  0.0618 -0.1995  0.3591
  559MOL0     H75416   0.568   7.323   3.550  0.6168 -0.3375 -0.8943
  559MOL0     H75417   0.559   7.207   3.244  3.1584  3.5306 -3.1269
  559MOL0     H75418   0.398   7.239   3.317  2.7613 -2.3024 -0.4316
  559MOL0     H75419   0.532   7.342   3.067 -0.9674  0.5634 -1.9966
  559MOL0     H75420   0.396   7.433   3.135  0.4852  0.0680 -1.8558
  559MOL0     H75421   0.251   7.229   3.127 -0.2344 -0.0784 -3.1554
  559MOL0     H75422   0.387   7.158   3.026  4.1821 -0.7177  0.4545
  559MOL0     H75423   0.387   7.324   2.884 -0.6350 -1.0710 -1.3868
  559MOL0     H75424   0.238   7.405   2.949  0.0149  0.0449 -3.8137
  559MOL0     H75425   0.004   7.109   2.797 -0.1396  0.1203 -1.1248
  559MOL0     H75426  -0.260   7.194   2.545  1.8656  0.1132 -1.7833
  559MOL0     H75427  -0.152   7.063   2.517 -1.2240  1.5046 -2.1709
  559MOL0     H75428  -0.217   7.085   2.686  0.9739 -1.5777 -0.6000
  559MOL0     H75429  -0.135   7.300   2.085 -0.6834  0.9186 -0.7231
  559MOL0     H75430  -0.319   7.311   1.933  0.6382  2.3065  0.0209
  559MOL0     H75431  -0.696   7.278   1.849 -1.1419 -1.1838  0.7160
  559MOL0     H75432  -0.528   7.305   1.829  2.5878 -2.0693 -0.8428
  559MOL0     H75433  -0.641   7.043   1.944  1.4868 -3.4031 -1.4120
  559MOL0     H75434  -0.629   7.084   1.763  1.5818 -2.8802  0.1224
  559MOL0     H75435  -0.401   7.026   1.966 -1.4048 -4.7810  0.0495
  559MOL0     H75436  -0.385   7.094   1.803 -0.2783  0.9265  0.9298
  559MOL0     H75437  -0.539   6.851   1.891 -1.8417  2.8584  0.3398
  559MOL0     H75438  -0.515   6.886   1.713 -0.8849 -1.4078  0.1932
  559MOL0     H75439  -0.388   6.691   1.812  1.5164  0.0837  3.0741
  559MOL0     H75440  -0.282   6.797   1.907  0.1662 -2.0056  0.2944
  559MOL0     H75441  -0.294   6.752   1.619 -1.3866 -2.1571  1.3781
  559MOL0     H75442  -0.252   6.922   1.677 -2.3524  0.1226 -0.9214
  559MOL0     H75443  -0.109   6.664   1.764  1.5941 -1.3061  0.9185
  559MOL0     H75444  -0.072   6.845   1.813 -0.3839  1.6787 -2.6727
  559MOL0     H75445   0.082   6.805   1.678  0.0337  1.6264  0.1070
  559MOL0     H75446  -0.031   6.895   1.582  0.4232 -0.3417 -0.9032
  559MOL0     H75447  -0.588   7.338   2.270  0.0274 -2.1441 -2.2667
  559MOL0     H75448  -0.387   7.373   2.421 -0.2551  0.8353 -0.1630
  559MOL0     H75449   0.080   7.518   2.545  1.8304  0.2565 -0.4702
  559MOL0     H75450   0.243   7.437   2.684 -2.1828  1.3028 -0.9677
  559MOL0     H75451   1.805   7.748   3.704 -2.2563 -1.2469 -0.7885
  559MOL0     H75452   2.059   7.751   3.707  1.2393 -1.4293 -0.6720
  559MOL0     H75453   2.405   7.472   4.075  1.3910  1.1286  1.0778
  559MOL0     H75454   2.631   7.465   4.088 -0.7417  0.9380  0.2349
  559MOL0     H75455   2.938   7.530   4.079  0.4099 -3.9821  2.5242
  559MOL0     H75456   2.845   7.406   4.035  2.1699  0.2337  1.9103
  559MOL0     H75457   3.088   7.524   3.892 -2.1873  0.6399 -0.6956
  559MOL0     H75458   2.982   7.401   3.810 -0.8409  0.2542  0.0577
  559MOL0     H75459   3.055   7.228   3.946  1.4298  0.2974 -0.8025
  559MOL0     H75460   3.090   7.342   4.087  0.4830 -0.3544  0.2992
  559MOL0     H75461   3.296   7.242   4.005  2.9450  1.1172 -0.6586
  559MOL0     H75462   3.291   7.413   3.968 -0.1457  0.9628  0.9692
  559MOL0     H75463   3.286   7.252   3.582  1.4709 -1.4141  0.1554
  559MOL0     H75464   2.680   7.625   3.691  2.3271 -0.2196  1.3145
  559MOL0     H75465   2.439   7.627   3.660  0.0662 -0.6813  0.2310
  560MOL0     O75466   1.546   7.111   9.322 -0.0297  0.5051  0.1273
  560MOL0     C75467   1.441   7.174   9.333 -0.0269 -0.6232  0.9190
  560MOL0     O75468   1.431   7.304   9.358 -0.0583 -0.0696 -0.0102
  560MOL0     C75469   1.545   7.374   9.373  0.6003 -0.4844 -0.6233
  560MOL0     C75470   1.551   7.462   9.489 -0.5567  0.8256 -0.0977
  560MOL0     C75471   1.666   7.535   9.510 -0.6029 -0.3280  0.5866
  560MOL0     C75472   1.771   7.535   9.419 -1.9426  0.6349 -0.4618
  560MOL0     O75473   1.900   7.594   9.434  0.4089  0.0091 -0.4803
  560MOL0     C75474   1.924   7.666   9.557 -0.3530  0.0373 -0.4286
  560MOL0     C75475   2.069   7.731   9.572 -0.3324  0.3878  0.1270
  560MOL0     C75476   2.089   7.853   9.474 -0.4995  0.2348  0.7607
  560MOL0     C75477   2.236   7.893   9.436  0.4526 -0.8468  0.0092
  560MOL0     C75478   2.241   7.984   9.314 -0.0828  0.3820  0.1619
  560MOL0     C75479   2.388   8.035   9.303 -0.0592  0.0814 -0.6651
  560MOL0     C75480   2.446   8.105   9.175  0.5124  1.6734 -0.2303
  560MOL0     C75481   2.602   8.115   9.183  0.1044  0.0341 -0.8007
  560MOL0     N75482   2.669   7.988   9.156 -0.2780  0.0745  0.0582
  560MOL0     C75483   2.691   7.942   9.033 -0.6744 -0.1285  0.6580
  560MOL0     C75484   2.764   7.829   9.056 -0.6770  0.7552 -0.5426
  560MOL0     C75485   2.815   7.742   8.946 -0.2826  0.5652  0.0282
  560MOL0     C75486   2.856   7.613   9.009  0.6849  0.2086  0.0260
  560MOL0     C75487   2.990   7.632   9.082 -0.4260  0.9613  0.7479
  560MOL0     C75488   3.050   7.510   9.145 -0.4385 -0.2590  0.2546
  560MOL0     O75489   3.050   7.401   9.049  0.8097  0.1486  0.0466
  560MOL0     C75490   3.132   7.299   9.073  0.7727  0.4733 -0.0441
  560MOL0     C75491   3.195   7.268   9.196  0.2783  0.6046 -0.2235
  560MOL0     C75492   3.286   7.159   9.203 -0.2004 -0.3181 -0.5725
  560MOL0     C75493   3.348   7.124   9.338  0.2772 -0.1097 -0.9534
  560MOL0     C75494   3.315   7.085   9.090  0.0529 -0.0621 -0.2870
  560MOL0     C75495   3.416   6.972   9.087  0.4396  0.1110  0.2659
  560MOL0     O75496   3.525   6.988   9.013  0.6959 -0.5280 -0.0996
  560MOL0     C75497   3.618   6.881   9.018 -0.2745 -0.3569 -0.8072
  560MOL0     C75498   3.623   6.789   8.916  0.2515 -0.3284 -0.1019
  560MOL0     C75499   3.717   6.692   8.919  0.6225 -0.4286 -0.5022
  560MOL0     C75500   3.795   6.675   9.031  0.1071 -0.0610 -0.8389
  560MOL0     O75501   3.884   6.560   9.049  0.1089 -0.2673 -0.3178
  560MOL0     C75502   3.896   6.463   8.935 -0.3564 -1.1849 -1.5677
  560MOL0     C75503   3.979   6.336   8.983  0.7520 -0.2417 -0.5592
  560MOL0     C75504   4.115   6.376   9.024 -0.5427  0.0870  0.3379
  560MOL0     C75505   4.162   6.296   9.145  1.1779 -0.4803 -0.3962
  560MOL0     C75506   4.314   6.319   9.146 -0.2223  0.2024 -0.6960
  560MOL0     C75507   4.370   6.250   9.273 -0.3859  0.5970 -0.2898
  560MOL0     C75508   4.522   6.276   9.297 -0.1311  0.0869 -0.3042
  560MOL0     C75509   4.590   6.176   9.391  0.2506  0.5676 -0.4470
  560MOL0    Cl75510   4.508   6.207   9.542  0.6428  0.3191 -0.2868
  560MOL0     C75511   3.791   6.767   9.143 -0.3091 -0.1799  0.4026
  560MOL0     C75512   3.702   6.878   9.128 -0.7654  0.1660  0.0484
  560MOL0     O75513   3.390   6.871   9.150  0.5982 -0.1602  0.1415
  560MOL0     C75514   3.240   7.104   8.970  0.6917  0.3297 -0.3843
  560MOL0     C75515   3.146   7.205   8.966  0.4251  0.2181 -0.3647
  560MOL0     N75516   2.787   7.821   9.191 -0.1090 -0.2350 -0.3913
  560MOL0     N75517   2.729   7.918   9.252 -0.1081  0.0603 -0.0333
  560MOL0     C75518   1.758   7.457   9.301  0.1462 -0.4996 -0.3414
  560MOL0     C75519   1.646   7.377   9.280 -0.4851 -0.4397 -1.1784
  560MOL0     C75520   1.313   7.094   9.332  0.4353 -0.6636 -0.1425
  560MOL0     C75521   1.328   6.955   9.316 -0.6599  0.6091  0.6402
  560MOL0     C75522   1.217   6.878   9.313  0.2988 -0.0506 -0.4541
  560MOL0     C75523   1.084   6.924   9.336 -0.0436 -1.3627  0.5886
  560MOL0     O75524   0.966   6.853   9.313 -0.0012  0.4639  0.0263
  560MOL0     C75525   0.963   6.771   9.196  0.5359  0.1499  0.3540
  560MOL0     C75526   0.964   6.858   9.066  0.9883 -0.7234  0.6877
  560MOL0     C75527   0.846   6.824   8.969 -0.5076 -0.5101  0.2966
  560MOL0     C75528   0.713   6.895   8.993 -0.6889 -0.2681 -0.9993
  560MOL0     C75529   0.616   6.834   8.910 -0.4809  0.3913 -0.2727
  560MOL0     C75530   0.528   6.792   8.829 -0.1576  0.0509 -0.2158
  560MOL0     C75531   1.074   7.059   9.371 -0.4792  0.0274  0.0081
  560MOL0     C75532   1.185   7.140   9.371  0.2092 -1.1199  0.6639
  560MOL0     H75533   1.463   7.474   9.551 -0.2413 -0.4958  0.6348
  560MOL0     H75534   1.659   7.595   9.601 -0.1620 -1.3176  1.2897
  560MOL0     H75535   1.848   7.743   9.573  1.6850  1.5098  3.2912
  560MOL0     H75536   1.900   7.603   9.644 -2.2021  0.3456 -0.6693
  560MOL0     H75537   2.101   7.762   9.672 -0.0864  0.5448 -0.0013
  560MOL0     H75538   2.123   7.642   9.539 -1.2105 -0.7699  1.6540
  560MOL0     H75539   2.030   7.820   9.388 -0.2027  0.9239  0.2907
  560MOL0     H75540   2.046   7.941   9.523  0.3803  1.3161 -0.3473
  560MOL0     H75541   2.280   7.950   9.518 -0.5095 -1.9462  1.3305
  560MOL0     H75542   2.291   7.801   9.418 -0.3403 -0.8857 -2.6300
  560MOL0     H75543   2.211   7.936   9.221 -0.5432  1.0194 -0.0291
  560MOL0     H75544   2.183   8.077   9.326  1.4160  1.5363 -1.1022
  560MOL0     H75545   2.401   8.110   9.382  0.4756  0.2495 -0.9126
  560MOL0     H75546   2.454   7.950   9.321  2.4797  2.5939  3.8490
  560MOL0     H75547   2.397   8.046   9.097 -0.1841  0.2364  1.2026
  560MOL0     H75548   2.410   8.208   9.176  2.3251  2.3244  0.7720
  560MOL0     H75549   2.623   8.152   9.284 -1.1379 -0.3044 -0.3943
  560MOL0     H75550   2.637   8.199   9.122  0.8599  2.4225  2.6270
  560MOL0     H75551   2.688   7.984   8.932  0.3079 -0.4632  0.4767
  560MOL0     H75552   2.738   7.723   8.872 -1.4779  0.4633  1.2561
  560MOL0     H75553   2.900   7.793   8.900 -0.4669  2.3028  1.5091
  560MOL0     H75554   2.878   7.538   8.932 -1.0995 -0.1542 -0.1542
  560MOL0     H75555   2.784   7.569   9.078 -1.4445  0.9458 -1.5993
  560MOL0     H75556   2.989   7.711   9.157  2.6670 -0.0213  2.0081
  560MOL0     H75557   3.052   7.660   8.997 -2.6416  1.5003 -0.7651
  560MOL0     H75558   3.008   7.488   9.244 -3.8955  0.5576 -0.9036
  560MOL0     H75559   3.152   7.545   9.165  0.0648 -1.6035  0.1933
  560MOL0     H75560   3.177   7.326   9.286 -0.1110  1.0355 -0.5685
  560MOL0     H75561   3.339   7.209   9.406 -1.4232  0.4334 -1.7983
  560MOL0     H75562   3.297   7.039   9.383  0.3215 -0.6780 -1.9503
  560MOL0     H75563   3.455   7.099   9.336  0.8280  1.3035  2.9413
  560MOL0     H75564   3.551   6.805   8.836 -0.9239 -0.4267  0.9209
  560MOL0     H75565   3.729   6.619   8.840  0.6433 -0.7942 -0.1622
  560MOL0     H75566   3.795   6.425   8.919  0.1852 -2.9279 -1.1705
  560MOL0     H75567   3.950   6.494   8.846 -0.8161 -2.1361 -2.2032
  560MOL0     H75568   3.922   6.279   9.056  0.8531 -0.1243 -0.3868
  560MOL0     H75569   3.987   6.266   8.899 -1.3929 -1.1837 -0.0392
  560MOL0     H75570   4.135   6.479   9.054 -0.6606 -0.8973  4.3277
  560MOL0     H75571   4.174   6.353   8.934 -2.4721  0.9725 -1.2330
  560MOL0     H75572   4.113   6.335   9.234  1.7131 -1.1679  0.2181
  560MOL0     H75573   4.141   6.188   9.146 -3.9284  0.2201  2.0633
  560MOL0     H75574   4.337   6.426   9.154  0.3140  0.1582 -1.5660
  560MOL0     H75575   4.363   6.280   9.057  0.7630  2.5387 -1.2444
  560MOL0     H75576   4.311   6.280   9.361 -1.3115 -0.8358 -0.3753
  560MOL0     H75577   4.362   6.141   9.265  0.4972  0.6365 -1.9969
  560MOL0     H75578   4.532   6.377   9.338 -0.4603 -1.3156  3.6610
  560MOL0     H75579   4.562   6.276   9.195  2.0221  0.2599  0.4974
  560MOL0     H75580   4.697   6.197   9.398  0.9216 -2.2147 -1.1831
  560MOL0     H75581   4.582   6.069   9.368 -1.6136 -0.5840  4.3835
  560MOL0     H75582   3.875   6.760   9.211  1.4266 -0.1118 -1.6261
  560MOL0     H75583   3.687   6.964   9.191  1.9877  2.1177 -1.7234
  560MOL0     H75584   3.246   7.043   8.880 -3.1345  1.2033 -1.4287
  560MOL0     H75585   3.080   7.215   8.880 -3.1613  0.4231  2.1885
  560MOL0     H75586   1.849   7.444   9.243 -0.7595  0.3518 -2.0500
  560MOL0     H75587   1.650   7.297   9.207 -1.4698 -0.5326 -1.1479
  560MOL0     H75588   1.430   6.919   9.299 -0.7066  0.3552  0.8837
  560MOL0     H75589   1.228   6.775   9.281 -0.8217 -0.0311 -0.9264
  560MOL0     H75590   1.040   6.694   9.187 -0.2414 -0.8502  1.8449
  560MOL0     H75591   0.866   6.722   9.206  2.3530 -4.9576 -3.0832
  560MOL0     H75592   1.066   6.862   9.027  0.3133  2.3414 -1.1399
  560MOL0     H75593   0.929   6.959   9.089 -6.4540 -1.8709 -2.7666
  560MOL0     H75594   0.832   6.716   8.983 -1.4334 -0.3987  0.2923
  560MOL0     H75595   0.877   6.831   8.864 -0.2918  0.4626  0.4152
  560MOL0     H75596   0.719   6.999   8.959 -0.1231  0.2181  0.4892
  560MOL0     H75597   0.675   6.904   9.096  1.3241  0.5321 -0.2695
  560MOL0     H75598   0.440   6.768   8.772 -2.7304  3.5857  1.8568
  560MOL0     H75599   0.970   7.090   9.378 -0.8029 -0.4033 -2.2740
  560MOL0     H75600   1.170   7.245   9.395 -1.4308 -1.8093  2.9466
  561MOL0     O75601   0.880   2.814   2.137 -0.2691 -0.9065  0.3072
  561MOL0     C75602   0.833   2.816   2.023 -0.1087 -0.3872  0.4884
  561MOL0     O75603   0.825   2.708   1.933 -0.3334 -0.0603 -0.3454
  561MOL0     C75604   0.874   2.583   1.961 -0.5661 -0.3906  0.0510
  561MOL0     C75605   0.994   2.557   2.025  0.3095 -0.7272  1.0264
  561MOL0     C75606   1.037   2.431   2.045  0.0893 -0.0841  0.2994
  561MOL0     C75607   0.966   2.318   2.003 -0.8372 -0.0170 -0.5151
  561MOL0     O75608   1.000   2.189   2.016  0.2427  0.0773 -0.3418
  561MOL0     C75609   1.052   2.158   2.144 -0.2198 -1.2491 -0.6441
  561MOL0     C75610   1.056   2.012   2.174 -0.4164 -0.0900 -0.1422
  561MOL0     C75611   1.082   1.987   2.322 -0.0005 -0.3567  0.3209
  561MOL0     C75612   1.087   1.838   2.357 -0.4253  0.9293 -0.2765
  561MOL0     C75613   1.082   1.814   2.508 -0.0525 -1.5241 -0.7575
  561MOL0     C75614   1.156   1.691   2.554  0.0672  0.1049 -0.1891
  561MOL0     C75615   1.178   1.672   2.709 -0.1805 -0.2325 -0.0176
  561MOL0     C75616   1.056   1.668   2.813 -0.0742 -0.4612  1.1161
  561MOL0     N75617   0.949   1.592   2.757  0.7126  0.2334  0.8944
  561MOL0     C75618   0.933   1.455   2.783  0.4037  0.5741  0.5795
  561MOL0     C75619   0.830   1.425   2.697  0.1296  0.5191 -0.0874
  561MOL0     C75620   0.761   1.283   2.693 -0.3643 -0.5973 -1.1333
  561MOL0     C75621   0.618   1.290   2.649 -0.4284 -0.7398  0.6002
  561MOL0     C75622   0.533   1.373   2.762 -0.2762 -0.2000  0.0771
  561MOL0     C75623   0.394   1.385   2.706 -0.5725  0.4250  0.0776
  561MOL0     O75624   0.327   1.257   2.726 -0.3037  0.1174 -0.1346
  561MOL0     C75625   0.194   1.257   2.702  0.8938  0.1068 -0.3205
  561MOL0     C75626   0.108   1.361   2.664 -0.1521 -0.6147  0.6247
  561MOL0     C75627  -0.026   1.338   2.627  0.0860 -1.0089 -0.1003
  561MOL0     C75628  -0.094   1.458   2.569  1.5320  0.4218 -0.6503
  561MOL0     C75629  -0.085   1.205   2.641  0.2675  0.1049 -0.3317
  561MOL0     C75630  -0.232   1.185   2.632 -0.0646  0.4232  0.5274
  561MOL0     O75631  -0.320   1.288   2.633 -0.0994 -0.1243  0.5068
  561MOL0     C75632  -0.453   1.266   2.634  0.1932  0.5930 -0.8793
  561MOL0     C75633  -0.524   1.251   2.751  0.4219 -0.1178  0.5168
  561MOL0     C75634  -0.663   1.243   2.753  0.3132  0.4945 -0.4064
  561MOL0     C75635  -0.736   1.263   2.634 -0.6783 -0.9737  0.5568
  561MOL0     O75636  -0.874   1.276   2.640 -0.5859  0.2207  0.0224
  561MOL0     C75637  -0.933   1.172   2.717 -0.7350  0.6505  0.3990
  561MOL0     C75638  -1.081   1.217   2.707  0.2553  0.0243 -0.7157
  561MOL0     C75639  -1.164   1.149   2.824 -0.3043 -0.4842  0.4287
  561MOL0     C75640  -1.305   1.120   2.775  0.9136  0.2160 -0.1154
  561MOL0     C75641  -1.392   1.098   2.899  0.0050  0.4863 -0.0880
  561MOL0     C75642  -1.540   1.126   2.872  1.1096 -0.3839 -0.2747
  561MOL0     C75643  -1.623   1.087   2.998 -0.2374  0.7477 -1.2514
  561MOL0     C75644  -1.770   1.060   2.966 -0.0727 -0.2830 -0.2490
  561MOL0    Cl75645  -1.861   1.194   2.887  0.0447  0.0127 -0.1169
  561MOL0     C75646  -0.665   1.272   2.511 -0.5540  0.9462 -0.0288
  561MOL0     C75647  -0.525   1.273   2.511 -0.5769 -1.1948 -0.2607
  561MOL0     O75648  -0.270   1.066   2.618  0.1557 -0.5675 -0.0312
  561MOL0     C75649  -0.003   1.101   2.677 -0.6867 -0.3363 -0.2427
  561MOL0     C75650   0.138   1.123   2.709  0.5872  0.1379  0.8265
  561MOL0     N75651   0.784   1.541   2.630  0.6020  0.3609  0.7194
  561MOL0     N75652   0.856   1.638   2.670  0.9713 -0.0188  0.1650
  561MOL0     C75653   0.858   2.343   1.924 -0.3433  0.1042  0.7518
  561MOL0     C75654   0.809   2.471   1.904 -0.9093  0.0422  0.5499
  561MOL0     C75655   0.773   2.946   1.984 -1.1129 -0.0177 -0.2224
  561MOL0     C75656   0.817   3.080   2.010 -0.0787 -0.3864 -0.5802
  561MOL0     C75657   0.757   3.196   1.949 -0.2518 -0.3222  0.1206
  561MOL0     C75658   0.635   3.181   1.890 -0.8800 -1.1125 -0.3931
  561MOL0     O75659   0.569   3.281   1.831  0.1086 -0.4691 -0.1544
  561MOL0     C75660   0.621   3.412   1.824  0.3850  0.1787 -0.2978
  561MOL0     C75661   0.557   3.465   1.690 -0.8754  0.7581  0.4288
  561MOL0     C75662   0.402   3.458   1.690  0.7171  0.8538  0.6957
  561MOL0     C75663   0.322   3.497   1.809 -0.3180 -0.3424  0.0245
  561MOL0     C75664   0.182   3.461   1.808 -0.2627  0.9962  0.3328
  561MOL0     C75665   0.073   3.415   1.795  0.1439 -0.3825 -0.0197
  561MOL0     C75666   0.583   3.055   1.863 -0.6132  0.1112  0.4978
  561MOL0     C75667   0.651   2.943   1.911 -1.1664 -0.5285  0.8266
  561MOL0     H75668   1.053   2.646   2.045 -1.7743  1.3685 -1.3293
  561MOL0     H75669   1.124   2.417   2.108 -1.1184  0.7718  2.2658
  561MOL0     H75670   1.151   2.204   2.155 -1.0362 -0.0647  3.0213
  561MOL0     H75671   0.991   2.203   2.223  0.3949  0.6806 -1.1920
  561MOL0     H75672   0.959   1.974   2.142  1.5574 -2.7062 -3.7205
  561MOL0     H75673   1.128   1.954   2.116 -0.1166  1.7338 -1.6872
  561MOL0     H75674   1.178   2.035   2.344  0.1362  0.7708 -2.3566
  561MOL0     H75675   1.004   2.027   2.388  0.7715 -3.7056  3.5742
  561MOL0     H75676   1.015   1.774   2.306  0.9562 -1.5956  0.7836
  561MOL0     H75677   1.188   1.814   2.322  0.3189  1.4667  1.4010
  561MOL0     H75678   1.129   1.901   2.555  1.6690 -1.9297 -1.6178
  561MOL0     H75679   0.979   1.801   2.541 -0.0468  2.6552  1.6048
  561MOL0     H75680   1.098   1.607   2.514  0.2607  1.2136 -3.0434
  561MOL0     H75681   1.256   1.688   2.510  0.9763  1.7306  1.6423
  561MOL0     H75682   1.224   1.573   2.718 -0.2161 -0.3399 -0.8915
  561MOL0     H75683   1.256   1.743   2.735 -2.4785  3.2082 -1.7960
  561MOL0     H75684   1.021   1.768   2.841 -1.3818 -0.7399  0.5601
  561MOL0     H75685   1.091   1.622   2.905  1.5238  0.9994  1.2889
  561MOL0     H75686   0.982   1.403   2.865  1.6328  2.4276  1.0706
  561MOL0     H75687   0.814   1.220   2.621 -2.8857 -1.9397 -1.8949
  561MOL0     H75688   0.755   1.234   2.790 -0.9843 -0.1708 -0.9527
  561MOL0     H75689   0.583   1.189   2.628  4.7035 -2.6412 -0.2852
  561MOL0     H75690   0.623   1.339   2.551 -1.8215 -2.2762 -0.2872
  561MOL0     H75691   0.567   1.469   2.801 -0.0182  0.3984 -1.5615
  561MOL0     H75692   0.543   1.313   2.854  0.5061 -0.6934 -0.3207
  561MOL0     H75693   0.393   1.405   2.598 -2.0582 -0.3518 -0.0904
  561MOL0     H75694   0.349   1.469   2.759  0.5189  0.1755  1.4337
  561MOL0     H75695   0.143   1.458   2.632 -1.6466 -0.8510 -2.0589
  561MOL0     H75696  -0.166   1.415   2.497  0.3232  1.4699 -0.1108
  561MOL0     H75697  -0.156   1.504   2.646  1.0049 -2.9714  1.1746
  561MOL0     H75698  -0.026   1.527   2.519  1.7527  0.2621 -0.5707
  561MOL0     H75699  -0.471   1.256   2.846  1.2336  0.2903  0.0544
  561MOL0     H75700  -0.714   1.232   2.848 -0.0134 -0.3428 -0.6726
  561MOL0     H75701  -0.915   1.074   2.672  0.3950  1.5770 -1.2301
  561MOL0     H75702  -0.907   1.160   2.823  0.0893 -2.4314 -0.0490
  561MOL0     H75703  -1.080   1.324   2.726  1.1241  0.0381 -0.8041
  561MOL0     H75704  -1.121   1.199   2.607 -2.5064 -1.0696  0.4813
  561MOL0     H75705  -1.166   1.229   2.898 -0.5269  0.0808 -0.1725
  561MOL0     H75706  -1.127   1.056   2.867 -4.3477 -2.9216 -0.8287
  561MOL0     H75707  -1.365   1.201   2.733 -2.9508 -1.2212  2.1732
  561MOL0     H75708  -1.300   1.038   2.702  0.9374  0.9186 -0.9205
  561MOL0     H75709  -1.359   1.156   2.985  0.3377  0.0803  0.0648
  561MOL0     H75710  -1.378   0.994   2.932  1.0814  1.1917  1.8669
  561MOL0     H75711  -1.552   1.234   2.863 -0.6099 -0.4868  0.4262
  561MOL0     H75712  -1.593   1.076   2.789 -0.5146  1.4605 -0.4083
  561MOL0     H75713  -1.615   1.171   3.068 -0.0971 -0.9753  0.9038
  561MOL0     H75714  -1.586   0.999   3.051 -2.5958  1.3196  1.5825
  561MOL0     H75715  -1.827   1.039   3.058 -0.5851 -2.7766 -1.0582
  561MOL0     H75716  -1.773   0.972   2.902  1.0724 -0.2845 -0.3160
  561MOL0     H75717  -0.717   1.284   2.417 -1.4918  1.3817  0.5247
  561MOL0     H75718  -0.472   1.299   2.420  0.0162 -1.0641  0.1220
  561MOL0     H75719  -0.028   0.998   2.699  2.1815 -0.5529  2.7692
  561MOL0     H75720   0.214   1.053   2.741  1.0142 -0.7583 -1.9073
  561MOL0     H75721   0.799   2.263   1.883  0.5430  1.1502 -2.8922
  561MOL0     H75722   0.718   2.481   1.846 -0.3116 -0.9873 -0.6362
  561MOL0     H75723   0.897   3.101   2.080  0.1151  0.5508 -1.0672
  561MOL0     H75724   0.807   3.291   1.956  1.6031 -0.8138 -4.1025
  561MOL0     H75725   0.586   3.478   1.904  1.2984 -0.1684  0.4008
  561MOL0     H75726   0.728   3.423   1.806 -0.2569  3.4880 -3.0854
  561MOL0     H75727   0.588   3.412   1.600  0.3434  2.2839 -0.1055
  561MOL0     H75728   0.583   3.568   1.662 -1.3008  0.2875 -1.9331
  561MOL0     H75729   0.363   3.358   1.671 -0.4997  1.6055 -1.1011
  561MOL0     H75730   0.369   3.509   1.598  0.1952  1.1892  1.0627
  561MOL0     H75731   0.334   3.602   1.838  0.7636 -0.3898 -0.1982
  561MOL0     H75732   0.367   3.440   1.890  0.4725  2.5598  1.8099
  561MOL0     H75733  -0.017   3.363   1.769  0.3682 -0.0569 -1.5564
  561MOL0     H75734   0.488   3.034   1.815 -2.0868  0.9185  2.8940
  561MOL0     H75735   0.609   2.842   1.906  0.2176 -1.1311  1.0102
  562MOL0     O75736   2.495  10.827   6.990 -0.0039 -0.2057  0.7186
  562MOL0     C75737   2.540  10.845   7.104 -0.6070  0.3849  0.5835
  562MOL0     O75738   2.620  10.754   7.176  0.2001 -0.1154  0.6560
  562MOL0     C75739   2.661  10.631   7.122 -0.5610 -0.5970  0.7773
  562MOL0     C75740   2.616  10.521   7.190 -0.2015  0.6771 -0.9177
  562MOL0     C75741   2.633  10.388   7.130 -0.0492 -0.0047 -1.5128
  562MOL0     C75742   2.703  10.371   7.011 -0.3212 -0.9859 -0.5647
  562MOL0     O75743   2.732  10.251   6.963 -0.5464  0.6914  0.4000
  562MOL0     C75744   2.870  10.210   6.949  0.5864 -0.3345  0.3170
  562MOL0     C75745   2.893  10.099   6.839  0.0639 -0.2604 -0.5476
  562MOL0     C75746   2.860  10.154   6.694 -0.2514 -0.0568  1.2134
  562MOL0     C75747   2.964  10.261   6.630 -0.4952 -0.4057 -1.1645
  562MOL0     C75748   2.895  10.326   6.508  0.6401 -0.4611 -0.8716
  562MOL0     C75749   2.993  10.353   6.401  0.0558  0.3790 -0.7699
  562MOL0     C75750   2.923  10.406   6.272 -0.7501 -0.2827 -0.8049
  562MOL0     C75751   3.027  10.430   6.165 -0.0292  0.0973 -0.3895
  562MOL0     N75752   2.964  10.468   6.032  0.9083 -0.1007 -0.1519
  562MOL0     C75753   2.863  10.557   6.014  0.0442  0.1166 -0.5974
  562MOL0     C75754   2.839  10.561   5.883  0.4089  0.3739 -0.1830
  562MOL0     C75755   2.742  10.653   5.807 -0.4294  0.7060  0.2042
  562MOL0     C75756   2.771  10.798   5.856  0.3647  0.1632  0.0568
  562MOL0     C75757   2.658  10.839   5.958 -0.1816 -0.0949  0.6869
  562MOL0     C75758   2.673  10.978   6.015  0.1145 -0.3700 -0.1059
  562MOL0     O75759   2.579  10.999   6.125  0.6222  0.1694 -0.4703
  562MOL0     C75760   2.442  11.030   6.106 -0.1113  0.0226  0.1935
  562MOL0     C75761   2.354  11.019   6.208  0.6880  0.5847  0.0367
  562MOL0     C75762   2.220  11.075   6.203 -0.6146  0.8404 -0.8182
  562MOL0     C75763   2.129  11.076   6.324  0.9737 -0.1466 -0.7016
  562MOL0     C75764   2.176  11.127   6.076 -0.7081  0.2722 -0.4729
  562MOL0     C75765   2.038  11.172   6.059  0.4353 -0.5966  0.6309
  562MOL0     O75766   1.931  11.107   6.110  0.2966 -1.1597  0.3204
  562MOL0     C75767   1.802  11.159   6.111 -0.8969 -0.6986  0.2454
  562MOL0     C75768   1.699  11.072   6.063  0.0985  0.0825 -0.3163
  562MOL0     C75769   1.564  11.124   6.049  0.3205 -0.7930 -0.7464
  562MOL0     C75770   1.535  11.250   6.102 -0.3819  0.1345  0.5757
  562MOL0     O75771   1.403  11.288   6.068 -0.7745 -0.1283  0.5152
  562MOL0     C75772   1.328  11.378   6.157 -0.0359 -0.5736 -0.6105
  562MOL0     C75773   1.253  11.308   6.266  0.1241  0.0530  0.0673
  562MOL0     C75774   1.128  11.215   6.225 -0.2845 -0.0932  0.1265
  562MOL0     C75775   1.030  11.285   6.125 -0.7278 -0.1768  1.2687
  562MOL0     C75776   0.902  11.200   6.089 -0.0428 -0.2124 -0.1341
  562MOL0     C75777   0.921  11.089   5.982 -1.2112  0.3912  0.5786
  562MOL0     C75778   0.975  11.125   5.851 -0.1608 -0.6384  0.0238
  562MOL0     C75779   0.979  10.993   5.765  0.2102  0.0738 -0.2812
  562MOL0    Cl75780   0.820  10.923   5.739  0.2752 -0.1560  0.3662
  562MOL0     C75781   1.631  11.336   6.147  0.3486 -0.0067  0.6745
  562MOL0     C75782   1.762  11.293   6.152 -0.5093  0.6556  0.0359
  562MOL0     O75783   2.026  11.275   5.989  0.2873 -0.1241  0.9189
  562MOL0     C75784   2.266  11.131   5.967 -0.4925 -0.6867 -0.3308
  562MOL0     C75785   2.394  11.088   5.988 -0.5147 -0.7882  0.3014
  562MOL0     N75786   2.918  10.468   5.824 -0.2422  0.2594 -0.1628
  562MOL0     N75787   2.990  10.408   5.914 -0.1607 -0.7412 -0.1358
  562MOL0     C75788   2.762  10.490   6.958  0.7872  0.6275  0.2942
  562MOL0     C75789   2.741  10.612   7.009  0.6438 -0.3017  0.2885
  562MOL0     C75790   2.501  10.971   7.176 -0.3734 -0.2579 -0.1453
  562MOL0     C75791   2.402  11.055   7.117  0.2144  0.1882  0.2746
  562MOL0     C75792   2.360  11.173   7.182  1.1873  0.0862  0.6597
  562MOL0     C75793   2.400  11.215   7.306 -0.5913  1.1959  0.3401
  562MOL0     O75794   2.343  11.329   7.357  0.8554  0.1729  0.1517
  562MOL0     C75795   2.351  11.351   7.493  1.0848  0.6695  0.0558
  562MOL0     C75796   2.271  11.250   7.586 -0.3289  0.0134  0.6458
  562MOL0     C75797   2.195  11.326   7.700  0.7850 -0.1896  0.8958
  562MOL0     C75798   2.110  11.228   7.767 -0.6671 -0.3312 -0.1717
  562MOL0     C75799   1.980  11.220   7.701  0.1006  0.2331 -0.1995
  562MOL0     C75800   1.866  11.195   7.654  0.1205  0.7280 -0.3793
  562MOL0     C75801   2.489  11.123   7.371  0.2509 -0.0756 -0.3450
  562MOL0     C75802   2.533  11.003   7.306 -0.3036 -0.0351  0.8304
  562MOL0     H75803   2.554  10.529   7.279  1.7169 -1.2111  0.7045
  562MOL0     H75804   2.582  10.304   7.176  0.7284  0.1982 -0.2404
  562MOL0     H75805   2.936  10.293   6.922  2.2801 -0.9692  2.2422
  562MOL0     H75806   2.902  10.183   7.050 -1.1042  0.4780  1.1117
  562MOL0     H75807   2.993  10.055   6.842 -0.8785 -2.4638 -0.1994
  562MOL0     H75808   2.829  10.013   6.860  0.5467 -1.5754 -3.8510
  562MOL0     H75809   2.836  10.076   6.622 -3.1146  4.2014 -3.1119
  562MOL0     H75810   2.768  10.211   6.712  0.1492  0.8543  0.4785
  562MOL0     H75811   2.991  10.337   6.704 -2.9916  0.3371 -0.9277
  562MOL0     H75812   3.062  10.217   6.611  1.7729  3.6146  0.0627
  562MOL0     H75813   2.816  10.264   6.465 -1.5494  2.4177 -1.2844
  562MOL0     H75814   2.860  10.425   6.538  1.1065  0.0590 -1.9922
  562MOL0     H75815   3.056  10.435   6.437 -0.2549  0.9278 -1.4467
  562MOL0     H75816   3.039  10.259   6.371 -1.5159 -0.5165 -0.4437
  562MOL0     H75817   2.855  10.327   6.238 -0.7078  0.2149 -2.0938
  562MOL0     H75818   2.862  10.496   6.288 -0.4413 -0.2512  0.2464
  562MOL0     H75819   3.068  10.330   6.144  1.5057  0.6578 -0.2009
  562MOL0     H75820   3.107  10.497   6.196 -1.5761  2.5239 -1.3459
  562MOL0     H75821   2.822  10.624   6.088 -2.0192 -0.3451 -1.2587
  562MOL0     H75822   2.770  10.643   5.702  0.5505 -4.1474  0.6918
  562MOL0     H75823   2.638  10.620   5.811 -0.2569 -0.2576 -2.0815
  562MOL0     H75824   2.762  10.869   5.773 -0.9367 -1.1898 -1.0140
  562MOL0     H75825   2.873  10.801   5.896  0.5448  0.8431 -0.4350
  562MOL0     H75826   2.666  10.770   6.042  0.0287  0.3836  1.0656
  562MOL0     H75827   2.562  10.815   5.911  0.6660 -0.2808 -1.0480
  562MOL0     H75828   2.655  11.041   5.928 -0.2903  0.5658  0.6356
  562MOL0     H75829   2.771  10.988   6.064  0.3339 -2.8093  0.0422
  562MOL0     H75830   2.383  10.960   6.295 -2.8060 -3.3917 -1.1525
  562MOL0     H75831   2.060  10.992   6.337  0.5969  0.5110  1.9290
  562MOL0     H75832   2.175  11.082   6.423 -1.8508  1.5058  0.6169
  562MOL0     H75833   2.058  11.159   6.323  3.4519  2.1208 -1.6600
  562MOL0     H75834   1.728  10.978   6.018 -0.8878  0.4667 -1.8579
  562MOL0     H75835   1.475  11.071   6.016 -0.2431 -0.5672  0.3479
  562MOL0     H75836   1.397  11.448   6.205 -0.4966 -0.0341 -0.7208
  562MOL0     H75837   1.270  11.444   6.091 -1.6443  1.0709  2.2453
  562MOL0     H75838   1.322  11.241   6.318 -1.4429 -0.8300  1.0701
  562MOL0     H75839   1.227  11.380   6.344  1.0845  0.1326  0.3227
  562MOL0     H75840   1.070  11.187   6.313  0.6690 -1.1902  0.4270
  562MOL0     H75841   1.162  11.121   6.181  0.1678 -0.7492  1.8100
  562MOL0     H75842   1.024  11.393   6.143  1.2277  0.7808 -2.6457
  562MOL0     H75843   1.088  11.284   6.032 -0.0553 -1.2444  1.6756
  562MOL0     H75844   0.832  11.274   6.048 -0.2855 -0.0114  0.6367
  562MOL0     H75845   0.873  11.162   6.187  0.6859 -4.4212 -1.3490
  562MOL0     H75846   0.991  11.017   6.026 -2.5186 -1.0047  0.4422
  562MOL0     H75847   0.832  11.030   5.963  1.5085 -5.6400  3.7365
  562MOL0     H75848   1.075  11.169   5.846  0.0066 -0.6389  2.2123
  562MOL0     H75849   0.903  11.199   5.814 -0.8663 -1.2777  0.0946
  562MOL0     H75850   1.047  10.923   5.816 -3.6765 -3.0924  1.1600
  562MOL0     H75851   1.016  11.018   5.665 -0.2308  0.9311 -0.2335
  562MOL0     H75852   1.595  11.436   6.172 -0.8669  0.2803 -1.8673
  562MOL0     H75853   1.839  11.368   6.169  0.1715  0.1458 -0.7131
  562MOL0     H75854   2.234  11.161   5.868 -0.9355  0.0974  0.0419
  562MOL0     H75855   2.466  11.117   5.911  0.6327  2.0613  2.2734
  562MOL0     H75856   2.819  10.468   6.868  0.4712 -3.3123  0.8680
  562MOL0     H75857   2.790  10.696   6.959 -0.3012  0.2499  0.2759
  562MOL0     H75858   2.374  11.030   7.015  2.7440  0.0747 -0.4524
  562MOL0     H75859   2.282  11.239   7.145 -0.6974 -0.3072  3.5514
  562MOL0     H75860   2.455  11.339   7.525  0.8674 -1.3869  0.1527
  562MOL0     H75861   2.315  11.454   7.501 -1.3752 -0.0211 -1.2431
  562MOL0     H75862   2.341  11.175   7.626 -0.1121  0.1795  0.5824
  562MOL0     H75863   2.193  11.195   7.532 -0.6895  0.2274  0.9462
  562MOL0     H75864   2.138  11.410   7.661  0.1366 -1.5222 -1.2062
  562MOL0     H75865   2.265  11.373   7.769 -2.1205  3.5220  1.6190
  562MOL0     H75866   2.078  11.269   7.862 -4.9350 -0.9174 -1.1434
  562MOL0     H75867   2.168  11.135   7.776  0.3251 -0.0018 -2.4569
  562MOL0     H75868   1.770  11.181   7.608  0.7684  1.4597 -2.0426
  562MOL0     H75869   2.515  11.142   7.474 -4.3434 -0.2300  1.0792
  562MOL0     H75870   2.588  10.926   7.358  3.8909 -0.9157 -4.0852
  563MOL0     O75871   1.453   8.228   5.738  0.0340 -0.2167 -0.3966
  563MOL0     C75872   1.421   8.233   5.619 -0.2898  0.5148  0.6504
  563MOL0     O75873   1.505   8.240   5.511  0.3991 -0.0587  1.0035
  563MOL0     C75874   1.638   8.233   5.539 -0.4289  0.2917 -0.3859
  563MOL0     C75875   1.682   8.125   5.615  0.2035  0.8097  0.3895
  563MOL0     C75876   1.815   8.096   5.630 -0.7126 -0.4676 -0.1566
  563MOL0     C75877   1.914   8.180   5.576 -0.6024 -0.1152  0.3510
  563MOL0     O75878   2.045   8.169   5.599 -0.5435  0.3954 -0.7131
  563MOL0     C75879   2.093   8.070   5.694  0.2644 -0.1989 -0.1065
  563MOL0     C75880   2.248   8.092   5.694 -1.1806  0.7504 -0.3848
  563MOL0     C75881   2.323   8.025   5.589  1.5750  0.6148 -0.0533
  563MOL0     C75882   2.469   8.068   5.586 -0.0580 -0.7938  0.1031
  563MOL0     C75883   2.559   8.014   5.466 -0.4180 -0.7787  0.2069
  563MOL0     C75884   2.705   8.065   5.479 -0.2285  0.0779  0.6268
  563MOL0     C75885   2.774   8.039   5.349 -0.0926 -0.3389 -0.0228
  563MOL0     C75886   2.926   8.066   5.358 -0.2169  0.8334  0.3510
  563MOL0     N75887   2.989   8.061   5.229 -0.0101  0.4357  0.7701
  563MOL0     C75888   3.127   8.045   5.203  0.0670 -1.0025  0.1864
  563MOL0     C75889   3.144   8.059   5.066 -0.0371 -0.0855 -0.2071
  563MOL0     C75890   3.274   8.050   4.990 -0.0196  0.0847  0.9494
  563MOL0     C75891   3.340   8.189   4.963 -0.6840  0.5095 -0.4314
  563MOL0     C75892   3.480   8.182   4.885  0.2120 -0.3445  0.2051
  563MOL0     C75893   3.530   8.318   4.831  0.2187 -0.7948 -0.1364
  563MOL0     O75894   3.654   8.282   4.775  0.6057  0.3915 -0.8401
  563MOL0     C75895   3.766   8.300   4.848  0.5378  0.1924 -0.3013
  563MOL0     C75896   3.887   8.271   4.780  0.2191  0.3091 -0.3588
  563MOL0     C75897   4.011   8.291   4.838 -0.4062  0.1376 -0.4135
  563MOL0     C75898   4.134   8.257   4.763  0.3529 -0.6752  0.5160
  563MOL0     C75899   4.019   8.329   4.973 -0.3946 -0.5202  0.6405
  563MOL0     C75900   4.155   8.350   5.050  0.4138 -0.2770  0.8656
  563MOL0     O75901   4.148   8.336   5.181  0.6899  0.1078 -0.3934
  563MOL0     C75902   4.267   8.324   5.240  0.0519 -0.2611 -0.4983
  563MOL0     C75903   4.361   8.431   5.253  0.7593  0.0687  0.7508
  563MOL0     C75904   4.482   8.411   5.315  0.1673 -0.6507 -0.8851
  563MOL0     C75905   4.519   8.286   5.364 -0.4348 -1.1201 -0.2839
  563MOL0     O75906   4.644   8.269   5.421 -0.6115  0.2869  0.3366
  563MOL0     C75907   4.673   8.155   5.501 -0.5409  0.7166  0.5853
  563MOL0     C75908   4.829   8.151   5.520 -0.8347  0.2935 -0.8590
  563MOL0     C75909   4.871   8.015   5.561 -1.7211  0.1167  0.0649
  563MOL0     C75910   5.022   8.008   5.579 -0.1192  0.2536  0.4223
  563MOL0     C75911   5.072   7.894   5.672 -0.6780  1.5698 -0.2307
  563MOL0     C75912   5.230   7.883   5.653 -0.9359  0.7461 -0.4958
  563MOL0     C75913   5.278   7.780   5.759 -0.1364  0.0920 -0.5402
  563MOL0     C75914   5.429   7.802   5.781  0.3446 -0.0154  0.7244
  563MOL0    Cl75915   5.536   7.701   5.679 -0.1522  0.1507 -0.4117
  563MOL0     C75916   4.432   8.179   5.345  0.4976  0.1315 -0.3530
  563MOL0     C75917   4.306   8.203   5.287  0.0324  0.7293 -0.7259
  563MOL0     O75918   4.247   8.396   4.988 -0.3626 -0.4583 -0.3256
  563MOL0     C75919   3.898   8.352   5.041  0.9509  0.3797 -0.2475
  563MOL0     C75920   3.774   8.318   4.984  0.7582 -0.9908  0.5348
  563MOL0     N75921   3.018   8.093   5.015  0.4484 -0.1484  0.0445
  563MOL0     N75922   2.929   8.087   5.107 -0.2351 -0.2683 -0.2605
  563MOL0     C75923   1.875   8.285   5.498  0.9062  0.4183 -0.8015
  563MOL0     C75924   1.735   8.313   5.485 -0.9512 -0.7189  0.4551
  563MOL0     C75925   1.275   8.246   5.586  0.6146 -0.4337 -0.2613
  563MOL0     C75926   1.225   8.259   5.453  0.3221 -0.7370  0.7518
  563MOL0     C75927   1.090   8.255   5.429 -0.8140 -0.9680  0.0014
  563MOL0     C75928   0.992   8.231   5.521 -0.3493 -0.9986  0.8258
  563MOL0     O75929   0.864   8.210   5.489 -0.3757  0.2741 -0.4280
  563MOL0     C75930   0.806   8.275   5.378 -0.0731  0.1720 -0.5920
  563MOL0     C75931   0.658   8.232   5.370 -0.5810 -1.2562 -0.2690
  563MOL0     C75932   0.649   8.083   5.337 -0.0180 -0.1899  0.0422
  563MOL0     C75933   0.508   8.023   5.344  0.2952  0.1202  0.1313
  563MOL0     C75934   0.450   8.040   5.481 -0.1956  0.6485 -0.4350
  563MOL0     C75935   0.379   8.028   5.579  0.7906 -0.1945 -0.9136
  563MOL0     C75936   1.039   8.220   5.658 -0.7586 -0.3442 -0.4342
  563MOL0     C75937   1.178   8.228   5.686  0.9454 -0.0481 -0.0125
  563MOL0     H75938   1.614   8.053   5.659 -0.1042  1.7658  1.5415
  563MOL0     H75939   1.832   8.009   5.693  0.3472  2.1401  3.5421
  563MOL0     H75940   2.039   8.091   5.787 -1.1224 -0.9761 -0.7023
  563MOL0     H75941   2.082   7.969   5.655  1.1834 -1.0522  1.7111
  563MOL0     H75942   2.268   8.199   5.705 -1.8502  0.6442  3.3323
  563MOL0     H75943   2.283   8.038   5.783 -1.3656 -0.4842 -1.0403
  563MOL0     H75944   2.323   7.916   5.594  2.0345  0.6142  0.0085
  563MOL0     H75945   2.272   8.055   5.496  0.5338 -0.6811  0.0784
  563MOL0     H75946   2.474   8.178   5.587 -3.7333 -0.4898 -0.5634
  563MOL0     H75947   2.516   8.035   5.679  0.9410  2.5626  0.9390
  563MOL0     H75948   2.553   7.905   5.457  0.3872 -0.6843 -1.9625
  563MOL0     H75949   2.517   8.046   5.371 -0.9156 -1.2824  0.2498
  563MOL0     H75950   2.713   8.173   5.493 -1.5830  0.5447 -1.6530
  563MOL0     H75951   2.752   8.011   5.562 -1.8853 -0.6364  1.1512
  563MOL0     H75952   2.761   7.934   5.319  1.5500 -1.2503  2.1518
  563MOL0     H75953   2.733   8.089   5.261  0.7504 -0.1048 -0.2903
  563MOL0     H75954   2.979   7.997   5.425 -2.0125  2.0413  3.2104
  563MOL0     H75955   2.937   8.162   5.408  0.5407  0.4238  0.9861
  563MOL0     H75956   3.209   8.034   5.272 -0.4063  1.0286  1.1420
  563MOL0     H75957   3.345   7.981   5.037 -0.0478  0.1099  1.0280
  563MOL0     H75958   3.255   8.021   4.886  2.1311  1.1731  0.2172
  563MOL0     H75959   3.345   8.227   5.066 -1.7271 -0.3596 -0.0370
  563MOL0     H75960   3.268   8.256   4.915  0.5159  2.0551 -0.1709
  563MOL0     H75961   3.464   8.111   4.803 -0.3499 -2.0121  1.7023
  563MOL0     H75962   3.555   8.137   4.951  0.9608  0.0329 -0.3736
  563MOL0     H75963   3.523   8.393   4.910  1.2703  0.8402 -1.5394
  563MOL0     H75964   3.472   8.346   4.743  1.8556 -1.9794 -1.6615
  563MOL0     H75965   3.874   8.249   4.675 -3.0301 -2.5295  0.4251
  563MOL0     H75966   4.107   8.190   4.681  3.3546 -1.0758 -0.2398
  563MOL0     H75967   4.176   8.349   4.722  0.0046 -0.9564 -0.4963
  563MOL0     H75968   4.206   8.198   4.820  1.9112  0.2682 -0.4069
  563MOL0     H75969   4.338   8.527   5.208 -2.2742 -0.8145  0.1763
  563MOL0     H75970   4.562   8.483   5.328  0.5693 -1.3841  1.2007
  563MOL0     H75971   4.610   8.166   5.590 -0.7835  1.5215  0.3205
  563MOL0     H75972   4.642   8.059   5.458 -2.3645  1.1059  0.9302
  563MOL0     H75973   4.861   8.172   5.418  2.1755 -0.4747 -0.1528
  563MOL0     H75974   4.873   8.222   5.590  2.4096 -1.2446 -1.1633
  563MOL0     H75975   4.841   7.949   5.479  2.2276  0.4534 -1.8701
  563MOL0     H75976   4.825   7.992   5.658 -1.2090  1.9013  0.7589
  563MOL0     H75977   5.075   7.988   5.485 -3.1998  0.4688 -1.4804
  563MOL0     H75978   5.064   8.101   5.619  3.1803 -0.7638 -0.3766
  563MOL0     H75979   5.025   7.799   5.648  0.4666  1.4969 -2.3851
  563MOL0     H75980   5.033   7.915   5.773 -2.9145 -0.3449 -0.6050
  563MOL0     H75981   5.255   7.860   5.549  1.2085  3.3188 -0.6528
  563MOL0     H75982   5.263   7.981   5.688  0.4671  0.2544 -0.3993
  563MOL0     H75983   5.248   7.679   5.729  1.4737 -0.4936 -0.2841
  563MOL0     H75984   5.231   7.795   5.857 -1.6598 -1.3381 -0.9991
  563MOL0     H75985   5.443   7.771   5.885  0.8869  1.5195  1.1282
  563MOL0     H75986   5.461   7.906   5.775  0.2476  0.1941  3.0208
  563MOL0     H75987   4.447   8.073   5.362 -0.9132 -0.1469 -0.6600
  563MOL0     H75988   4.234   8.125   5.267  0.5660  0.2974 -0.9922
  563MOL0     H75989   3.906   8.390   5.143 -0.3309  0.1951 -0.0659
  563MOL0     H75990   3.681   8.328   5.039  0.1449  0.7618 -0.7268
  563MOL0     H75991   1.956   8.335   5.446  3.3462 -0.8276  1.5387
  563MOL0     H75992   1.689   8.389   5.423 -1.5841  1.3698  3.2393
  563MOL0     H75993   1.288   8.268   5.365 -2.2658 -0.6616 -1.2115
  563MOL0     H75994   1.066   8.256   5.323 -2.9030 -0.0929  0.4218
  563MOL0     H75995   0.825   8.381   5.395 -1.2663  0.3171 -0.0927
  563MOL0     H75996   0.853   8.249   5.282 -2.2616  2.4371 -2.4146
  563MOL0     H75997   0.599   8.288   5.297 -1.5964 -3.1691 -1.0075
  563MOL0     H75998   0.608   8.256   5.464 -0.5738 -0.6460 -0.4209
  563MOL0     H75999   0.697   8.017   5.410  0.7168 -0.3182 -0.5412
  563MOL0     H76000   0.691   8.057   5.239  4.1644  0.3242  1.5099
  563MOL0     H76001   0.512   7.918   5.314  1.5793  0.6990 -1.9463
  563MOL0     H76002   0.456   8.084   5.269 -1.8726  1.6107  2.6470
  563MOL0     H76003   0.313   8.015   5.663  2.8757 -0.7283  0.7137
  563MOL0     H76004   0.976   8.204   5.745 -2.2815 -2.1163 -1.7694
  563MOL0     H76005   1.200   8.222   5.792 -3.1372 -0.3979  0.9819
  564MOL0     O76006   9.414  11.403   3.202  0.4078  1.1357 -0.5561
  564MOL0     C76007   9.521  11.346   3.183 -0.3343 -0.6667 -0.2481
  564MOL0     O76008   9.542  11.218   3.173  0.1979 -0.5161 -0.6140
  564MOL0     C76009   9.433  11.134   3.195 -0.0321  0.4105 -0.7210
  564MOL0     C76010   9.347  11.100   3.082 -0.1966 -0.4538 -0.8798
  564MOL0     C76011   9.222  11.033   3.109  0.7651  0.4966  0.0219
  564MOL0     C76012   9.187  10.997   3.245  0.2286  0.9636  0.7460
  564MOL0     O76013   9.063  10.935   3.263 -0.8215 -0.9965 -0.2122
  564MOL0     C76014   8.967  11.036   3.259 -0.3718  0.4192  0.4260
  564MOL0     C76015   8.830  10.973   3.292 -0.9141 -0.0121 -0.0360
  564MOL0     C76016   8.727  11.073   3.348 -0.2528 -0.3007 -1.1159
  564MOL0     C76017   8.595  10.992   3.353 -0.0906  1.5184 -0.0721
  564MOL0     C76018   8.465  11.071   3.350 -0.4840  0.5765 -1.0557
  564MOL0     C76019   8.345  10.987   3.307 -0.3587 -0.7556 -0.6669
  564MOL0     C76020   8.362  10.927   3.173 -0.8969  0.1019  0.4554
  564MOL0     C76021   8.233  10.886   3.110  0.2607  0.2939 -0.3110
  564MOL0     N76022   8.168  11.002   3.054  0.1888  0.6606 -0.1168
  564MOL0     C76023   8.070  11.071   3.111  0.1959  0.6845  0.3158
  564MOL0     C76024   8.052  11.167   3.017 -0.9380 -0.4930  0.6072
  564MOL0     C76025   7.960  11.287   3.020 -0.0003 -0.6831  1.4489
  564MOL0     C76026   7.829  11.248   2.959  0.4490  0.2047  0.2978
  564MOL0     C76027   7.849  11.229   2.805  0.5689  0.8831  0.8567
  564MOL0     C76028   7.719  11.174   2.735  0.4869  0.6914 -0.7571
  564MOL0     O76029   7.601  11.236   2.764  0.1320  0.0788  0.3701
  564MOL0     C76030   7.487  11.184   2.708  0.6836 -0.0294 -0.5532
  564MOL0     C76031   7.375  11.268   2.699 -0.0917 -1.0040 -0.0073
  564MOL0     C76032   7.252  11.221   2.654 -0.5013 -0.1184 -0.4218
  564MOL0     C76033   7.147  11.322   2.625  0.9422 -0.5856 -0.4144
  564MOL0     C76034   7.239  11.086   2.602 -0.1576  0.0362 -1.1095
  564MOL0     C76035   7.112  11.031   2.550 -0.7493 -0.0373  0.3859
  564MOL0     O76036   7.113  10.895   2.518  0.1121 -0.0525 -0.7760
  564MOL0     C76037   7.009  10.857   2.442  0.1601 -0.1511 -0.8822
  564MOL0     C76038   6.986  10.900   2.310  0.1258 -0.4161  0.5350
  564MOL0     C76039   6.883  10.842   2.238  0.6005 -0.9866 -0.1594
  564MOL0     C76040   6.784  10.757   2.287  0.1425 -0.4884  0.0981
  564MOL0     O76041   6.688  10.680   2.222 -0.4421 -0.0645  0.9188
  564MOL0     C76042   6.645  10.726   2.090 -0.7587 -0.4689  0.0320
  564MOL0     C76043   6.506  10.686   2.077  0.0266 -0.4818 -0.7075
  564MOL0     C76044   6.488  10.536   2.029 -0.4247  0.3079 -0.1645
  564MOL0     C76045   6.344  10.488   2.044 -0.4028 -0.6233  0.3663
  564MOL0     C76046   6.314  10.347   2.017 -0.0427  0.4382  0.7958
  564MOL0     C76047   6.389  10.250   2.119 -0.9650 -0.4931  0.1765
  564MOL0     C76048   6.337  10.107   2.088  0.5394  0.1261  0.7178
  564MOL0     C76049   6.399  10.051   1.957  0.1515  0.3481 -0.5107
  564MOL0    Cl76050   6.260   9.947   1.883  0.0174 -0.1296  0.1005
  564MOL0     C76051   6.799  10.724   2.431  0.3711  0.7743  0.3069
  564MOL0     C76052   6.919  10.766   2.498  0.0077 -0.1087  0.5422
  564MOL0     O76053   7.010  11.101   2.558  0.0018 -0.2571  0.2780
  564MOL0     C76054   7.351  11.001   2.614  0.3238  0.4345 -0.3414
  564MOL0     C76055   7.473  11.045   2.665 -0.1706 -0.6649 -0.2735
  564MOL0     N76056   8.142  11.158   2.918 -0.6936  0.3953 -0.0817
  564MOL0     N76057   8.209  11.055   2.941 -0.9147  0.0036  0.6937
  564MOL0     C76058   9.281  11.030   3.343 -0.1799  0.4392 -0.0266
  564MOL0     C76059   9.398  11.097   3.319  0.4064  0.9595  0.8158
  564MOL0     C76060   9.636  11.427   3.156  0.4089  0.3858 -0.0382
  564MOL0     C76061   9.761  11.385   3.112 -0.5928  0.0255  0.7306
  564MOL0     C76062   9.867  11.472   3.098 -0.9804 -0.7892 -0.4632
  564MOL0     C76063   9.851  11.605   3.136  0.6625 -0.0463 -0.3776
  564MOL0     O76064   9.957  11.684   3.131  0.3855 -0.6465 -0.5700
  564MOL0     C76065  10.069  11.657   3.225 -0.6338 -0.3171 -1.0300
  564MOL0     C76066  10.204  11.729   3.180  0.2722 -0.0154  0.3639
  564MOL0     C76067  10.168  11.879   3.178 -1.0587  0.3548 -0.2438
  564MOL0     C76068  10.180  11.942   3.322 -0.1592 -0.0734  0.2677
  564MOL0     C76069  10.174  12.089   3.321 -0.0186 -0.1265  0.1344
  564MOL0     C76070  10.159  12.208   3.326 -0.7010 -0.2231 -0.8604
  564MOL0     C76071   9.725  11.651   3.169 -0.2246 -0.7267  0.0411
  564MOL0     C76072   9.617  11.562   3.179 -0.4029 -0.3466 -0.6439
  564MOL0     H76073   9.382  11.119   2.981 -2.5367 -1.4393 -1.9666
  564MOL0     H76074   9.156  11.011   3.026 -3.6923  1.9163  2.8146
  564MOL0     H76075   8.984  11.107   3.341  0.2012  0.0634  0.6144
  564MOL0     H76076   8.963  11.091   3.164  1.5986  2.7400  1.5657
  564MOL0     H76077   8.798  10.931   3.196  2.1645  3.1368 -2.7009
  564MOL0     H76078   8.852  10.898   3.368  3.6190  1.1055  0.0158
  564MOL0     H76079   8.748  11.086   3.455  1.5966 -0.3986 -1.4444
  564MOL0     H76080   8.706  11.158   3.283 -3.7858 -0.6321 -0.6046
  564MOL0     H76081   8.602  10.924   3.268  1.8574  3.1578 -1.3250
  564MOL0     H76082   8.591  10.930   3.443  2.1375  0.6203 -0.5391
  564MOL0     H76083   8.453  11.110   3.452  2.7956  2.4756 -1.2759
  564MOL0     H76084   8.476  11.147   3.272  3.4983 -2.1169 -3.5262
  564MOL0     H76085   8.330  10.903   3.375  1.9950 -1.0329 -0.3996
  564MOL0     H76086   8.253  11.045   3.314 -0.1476 -0.5462  0.6369
  564MOL0     H76087   8.427  10.997   3.119  4.1426 -2.8582  1.9805
  564MOL0     H76088   8.427  10.843   3.199  1.4407  1.9928  1.1567
  564MOL0     H76089   8.177  10.838   3.191  1.1217 -0.5111 -0.1855
  564MOL0     H76090   8.254  10.810   3.034  1.2168  0.3906 -0.1487
  564MOL0     H76091   7.999  11.057   3.192 -3.1966  3.6405 -1.8508
  564MOL0     H76092   7.943  11.307   3.126 -2.1618 -3.7022  1.8187
  564MOL0     H76093   8.004  11.374   2.972  1.0435 -0.5587  2.5836
  564MOL0     H76094   7.746  11.315   2.984 -1.4021 -2.2213  0.9921
  564MOL0     H76095   7.790  11.155   3.000  0.5398  0.2276  0.4375
  564MOL0     H76096   7.929  11.158   2.786 -2.3601 -2.6139  0.4131
  564MOL0     H76097   7.878  11.329   2.772  0.2395  1.0400  1.0428
  564MOL0     H76098   7.715  11.070   2.769 -2.0066  0.3276 -1.9309
  564MOL0     H76099   7.742  11.171   2.628  2.4366  0.1661 -0.3749
  564MOL0     H76100   7.383  11.369   2.738 -2.5442 -1.0243  0.7201
  564MOL0     H76101   7.082  11.328   2.712  3.3655  1.5064  1.4215
  564MOL0     H76102   7.198  11.419   2.626  2.9079 -1.5632  0.6016
  564MOL0     H76103   7.092  11.322   2.530 -0.4462  2.6141  0.2780
  564MOL0     H76104   7.053  10.975   2.269  0.3357 -0.3117  1.0626
  564MOL0     H76105   6.879  10.869   2.133 -1.2227  1.5677  0.4677
  564MOL0     H76106   6.655  10.834   2.075  1.8737 -0.6829 -0.3451
  564MOL0     H76107   6.710  10.677   2.017 -2.1919  0.7464 -2.1572
  564MOL0     H76108   6.450  10.705   2.169  0.1405 -1.8038 -0.3550
  564MOL0     H76109   6.469  10.754   2.000  1.1424  0.1805 -0.6898
  564MOL0     H76110   6.551  10.477   2.095 -3.2956 -2.1711  0.5547
  564MOL0     H76111   6.528  10.533   1.927  1.2571  1.5344  0.4084
  564MOL0     H76112   6.324  10.503   2.150 -1.8382 -1.5692  0.2602
  564MOL0     H76113   6.270  10.540   1.982  0.9454  0.9224 -0.0115
  564MOL0     H76114   6.369  10.327   1.925  2.4057 -0.9188  2.4455
  564MOL0     H76115   6.207  10.324   2.022 -0.3915  1.6148 -0.4666
  564MOL0     H76116   6.498  10.255   2.118 -0.8223 -2.6436 -1.1656
  564MOL0     H76117   6.348  10.264   2.220 -0.9111  3.2419 -0.1869
  564MOL0     H76118   6.228  10.098   2.085  0.6468 -1.3505  0.5065
  564MOL0     H76119   6.373  10.045   2.171 -1.0696 -2.1371 -0.1787
  564MOL0     H76120   6.496  10.003   1.975  1.8008  4.2149  2.3735
  564MOL0     H76121   6.425  10.132   1.888  1.4305  0.4545  0.0586
  564MOL0     H76122   6.725  10.662   2.480  1.4879  1.1136  2.6201
  564MOL0     H76123   6.929  10.722   2.597 -4.9191  1.3447  1.9575
  564MOL0     H76124   7.331  10.897   2.588 -2.2194  0.2036  1.9728
  564MOL0     H76125   7.556  10.976   2.663 -2.3131 -3.4131 -2.6842
  564MOL0     H76126   9.250  11.007   3.444  0.6718 -0.1489  0.1216
  564MOL0     H76127   9.462  11.134   3.399  0.0978  1.5037  0.8194
  564MOL0     H76128   9.761  11.281   3.081  0.3724  0.0413  0.6490
  564MOL0     H76129   9.957  11.423   3.062 -1.1753 -0.8761 -0.8435
  564MOL0     H76130  10.039  11.692   3.325  1.7407 -1.1738  0.0493
  564MOL0     H76131  10.084  11.550   3.241 -0.1143  0.0828  1.7158
  564MOL0     H76132  10.228  11.701   3.077 -0.0881 -0.5281  0.4106
  564MOL0     H76133  10.294  11.709   3.239  1.8096 -0.6420 -2.0375
  564MOL0     H76134  10.072  11.900   3.131 -0.6118  1.2603 -0.7910
  564MOL0     H76135  10.250  11.912   3.113  0.0973 -1.0270  0.4444
  564MOL0     H76136  10.260  11.900   3.383  0.3776 -1.6790 -1.4571
  564MOL0     H76137  10.089  11.911   3.374  0.0703 -1.5287 -0.1674
  564MOL0     H76138  10.155  12.315   3.334  2.1024 -0.1242  0.5664
  564MOL0     H76139   9.719  11.758   3.191 -1.2387 -0.5885 -0.7951
  564MOL0     H76140   9.522  11.610   3.203 -0.2837 -0.2084 -0.4415
  565MOL0     O76141   3.971   1.039   6.060 -0.4861 -0.0409 -0.1816
  565MOL0     C76142   3.945   0.930   6.022  0.1541  1.4920 -0.7031
  565MOL0     O76143   3.873   0.838   6.098 -0.3470 -0.0296  0.0065
  565MOL0     C76144   3.821   0.880   6.212  0.8238 -1.5258  0.0764
  565MOL0     C76145   3.873   0.865   6.341  0.1992 -0.0874 -0.4076
  565MOL0     C76146   3.809   0.926   6.453  0.1922  0.4291 -0.1592
  565MOL0     C76147   3.689   0.998   6.432 -1.1827 -0.0246 -0.0916
  565MOL0     O76148   3.615   1.032   6.547 -0.2105 -0.1257 -0.9117
  565MOL0     C76149   3.678   1.140   6.613 -0.5520 -0.5461 -0.3248
  565MOL0     C76150   3.727   1.111   6.747 -0.9547  0.0506 -0.2899
  565MOL0     C76151   3.621   1.061   6.836 -0.5654 -0.2680  0.3008
  565MOL0     C76152   3.520   1.169   6.892  0.2799 -0.3308  0.1419
  565MOL0     C76153   3.383   1.109   6.943 -0.4808 -0.8849  1.0992
  565MOL0     C76154   3.411   1.041   7.075  0.2148 -1.0685 -0.2115
  565MOL0     C76155   3.410   1.143   7.182  0.3277  0.0361 -0.7092
  565MOL0     C76156   3.414   1.076   7.320 -0.6038  1.5302 -0.8565
  565MOL0     N76157   3.467   1.163   7.429 -0.0149 -0.2102  0.2436
  565MOL0     C76158   3.594   1.220   7.437  0.0887  0.8596 -0.4975
  565MOL0     C76159   3.609   1.261   7.570  0.4006  0.2224  0.3425
  565MOL0     C76160   3.740   1.329   7.618  0.3655  0.2694  0.1921
  565MOL0     C76161   3.731   1.468   7.560  0.1685  0.0270  0.4962
  565MOL0     C76162   3.860   1.546   7.593  0.2710  0.6140  0.0488
  565MOL0     C76163   3.848   1.627   7.722  0.2504 -0.0538  0.6369
  565MOL0     O76164   3.879   1.542   7.835 -0.1305 -0.6403 -0.5601
  565MOL0     C76165   3.940   1.601   7.946 -0.4242 -0.4510  0.0339
  565MOL0     C76166   4.081   1.613   7.941 -0.8140  0.4558  0.5714
  565MOL0     C76167   4.160   1.675   8.047  0.3378 -0.3777  0.1248
  565MOL0     C76168   4.315   1.673   8.022 -0.1247 -0.8876 -0.4740
  565MOL0     C76169   4.094   1.737   8.149 -0.3191  0.5889 -0.0879
  565MOL0     C76170   4.161   1.812   8.264  0.5453  1.1488  0.3054
  565MOL0     O76171   4.093   1.818   8.381 -0.4863 -0.2084  0.0251
  565MOL0     C76172   4.116   1.923   8.469  1.1452 -0.1588  0.8769
  565MOL0     C76173   4.036   2.041   8.460  0.5480  0.4510 -0.2851
  565MOL0     C76174   4.065   2.152   8.544 -0.0244  0.0656 -0.3967
  565MOL0     C76175   4.161   2.131   8.647  0.1430 -0.1627  0.7334
  565MOL0     O76176   4.184   2.225   8.746 -0.1454  0.0833  0.2713
  565MOL0     C76177   4.111   2.204   8.862  0.0959  0.6700 -0.9949
  565MOL0     C76178   4.115   2.313   8.971 -0.4093  0.4600 -0.6860
  565MOL0     C76179   4.046   2.247   9.087  0.3140  0.8593  0.0938
  565MOL0     C76180   4.133   2.191   9.203  0.6879  0.1954 -0.2958
  565MOL0     C76181   4.040   2.142   9.314 -0.4066  0.6147 -0.4539
  565MOL0     C76182   3.953   2.235   9.398  0.4639  0.3028 -0.2995
  565MOL0     C76183   3.913   2.153   9.523 -0.0485  0.3871  0.8367
  565MOL0     C76184   3.808   2.231   9.609 -0.1928 -0.0463 -0.4004
  565MOL0    Cl76185   3.851   2.405   9.632  0.4580  0.4031 -0.1195
  565MOL0     C76186   4.232   2.009   8.655  0.0507 -0.8548 -0.8481
  565MOL0     C76187   4.202   1.900   8.577 -0.2003 -0.3698  0.4322
  565MOL0     O76188   4.269   1.867   8.247  0.2772  0.1391  0.0792
  565MOL0     C76189   3.953   1.730   8.150 -0.0257 -0.2968  0.0577
  565MOL0     C76190   3.875   1.660   8.049 -0.4434  0.2499 -0.6478
  565MOL0     N76191   3.504   1.216   7.638  0.4860 -0.0130 -0.9971
  565MOL0     N76192   3.413   1.169   7.559 -0.3218 -0.2340  0.0581
  565MOL0     C76193   3.630   0.992   6.312  0.1982  0.2465 -0.0836
  565MOL0     C76194   3.696   0.936   6.200 -0.7177  0.1168 -0.0049
  565MOL0     C76195   3.991   0.886   5.884 -0.4835  1.0256 -0.0898
  565MOL0     C76196   3.930   0.780   5.806  0.5849  0.6140  0.5183
  565MOL0     C76197   3.970   0.750   5.677 -0.5080 -0.3765  0.7882
  565MOL0     C76198   4.058   0.827   5.606 -0.9794  0.4253  0.0090
  565MOL0     O76199   4.087   0.816   5.473 -0.0220  0.1259  0.0496
  565MOL0     C76200   3.987   0.746   5.394 -0.7702  0.1376 -0.0851
  565MOL0     C76201   4.006   0.765   5.237  0.1513  0.4823 -1.0116
  565MOL0     C76202   3.927   0.657   5.164 -0.2214  0.1882  0.8323
  565MOL0     C76203   3.934   0.666   5.010 -0.4246  0.8796 -0.3097
  565MOL0     C76204   4.071   0.625   4.959  0.2231 -0.9300  0.0853
  565MOL0     C76205   4.177   0.573   4.937 -0.1124 -0.4092  0.5740
  565MOL0     C76206   4.125   0.931   5.675 -0.2655  0.2901  0.6056
  565MOL0     C76207   4.090   0.958   5.810 -0.7127 -0.0866 -2.0022
  565MOL0     H76208   3.966   0.811   6.353 -0.9627 -1.9942  0.5902
  565MOL0     H76209   3.840   0.910   6.555 -0.3340  1.6540  0.2134
  565MOL0     H76210   3.763   1.173   6.552 -0.6837 -1.5681 -1.0691
  565MOL0     H76211   3.606   1.223   6.613 -1.5486 -1.3512  1.4373
  565MOL0     H76212   3.800   1.030   6.745  0.0261  0.8331  1.9830
  565MOL0     H76213   3.783   1.200   6.777 -0.4518 -1.8575  5.7769
  565MOL0     H76214   3.567   0.980   6.787 -1.8936  0.1639  0.9990
  565MOL0     H76215   3.675   1.021   6.923 -1.4512  0.3959  1.1858
  565MOL0     H76216   3.569   1.229   6.969  0.3440  0.0706 -0.2067
  565MOL0     H76217   3.497   1.238   6.810 -0.8203 -0.6536  0.1661
  565MOL0     H76218   3.311   1.190   6.942  3.5711  3.1241  1.0257
  565MOL0     H76219   3.350   1.036   6.869  2.8338 -2.3048  0.7982
  565MOL0     H76220   3.333   0.967   7.095  0.5574 -2.5627 -3.7103
  565MOL0     H76221   3.507   0.990   7.079  0.9856  0.3699  0.5027
  565MOL0     H76222   3.490   1.217   7.176  0.1717  0.1630 -1.2682
  565MOL0     H76223   3.320   1.204   7.170  1.5566  2.1811  0.2514
  565MOL0     H76224   3.482   0.991   7.311 -1.2449  1.2276 -4.4058
  565MOL0     H76225   3.318   1.035   7.354  0.8528 -2.0650 -0.6910
  565MOL0     H76226   3.653   1.239   7.348  0.3540  2.4489 -0.0172
  565MOL0     H76227   3.753   1.333   7.727  1.6942  0.8338  0.0280
  565MOL0     H76228   3.824   1.270   7.580 -0.5788 -0.6084 -0.6039
  565MOL0     H76229   3.634   1.516   7.580  0.4908  1.7626 -1.6640
  565MOL0     H76230   3.719   1.460   7.451 -1.5373  1.3396  0.5388
  565MOL0     H76231   3.869   1.609   7.504  4.3920  1.4001  0.8059
  565MOL0     H76232   3.945   1.477   7.586  0.2479  0.5661  0.2395
  565MOL0     H76233   3.744   1.661   7.723 -0.4524 -2.0540  0.2636
  565MOL0     H76234   3.916   1.713   7.722  1.8473 -1.2481 -0.9268
  565MOL0     H76235   4.131   1.549   7.869 -3.7523 -2.9178  1.1981
  565MOL0     H76236   4.340   1.569   7.997 -2.2140 -1.4552 -0.4020
  565MOL0     H76237   4.338   1.731   7.932 -0.4142  0.3762  0.2391
  565MOL0     H76238   4.375   1.711   8.106  2.8071 -0.0295 -2.7910
  565MOL0     H76239   3.954   2.038   8.389 -0.0471 -3.5091  0.3667
  565MOL0     H76240   4.022   2.251   8.532  0.5080  0.5360  1.2696
  565MOL0     H76241   4.006   2.195   8.834  0.2907 -1.7493 -1.0847
  565MOL0     H76242   4.151   2.115   8.911 -3.8593 -0.4652  0.5287
  565MOL0     H76243   4.217   2.343   8.994 -0.7588  0.7854  0.5325
  565MOL0     H76244   4.063   2.402   8.935  0.2292 -0.1584 -3.3720
  565MOL0     H76245   3.973   2.170   9.060  2.1880 -0.6280 -1.0018
  565MOL0     H76246   3.994   2.333   9.130  1.2492  0.8865  1.2443
  565MOL0     H76247   4.188   2.106   9.163 -0.0345 -0.0084 -0.8781
  565MOL0     H76248   4.196   2.263   9.256 -0.5983  2.0866 -1.2027
  565MOL0     H76249   4.106   2.089   9.384 -3.3647  0.6234  2.6041
  565MOL0     H76250   3.972   2.062   9.282  0.2323  0.0514 -0.4347
  565MOL0     H76251   4.027   2.310   9.427  1.4313 -1.4982  2.2529
  565MOL0     H76252   3.869   2.272   9.338  2.8890  4.8250 -1.3929
  565MOL0     H76253   4.000   2.123   9.582  1.3861 -1.5287 -2.0097
  565MOL0     H76254   3.872   2.057   9.491 -1.8104  0.6398  2.1945
  565MOL0     H76255   3.793   2.172   9.700  1.0750 -1.5195 -1.0924
  565MOL0     H76256   3.713   2.225   9.555 -0.5395  3.4845 -0.3721
  565MOL0     H76257   4.295   1.983   8.739 -2.9853 -2.3753  1.1151
  565MOL0     H76258   4.247   1.802   8.591 -2.3994 -1.1940  2.4429
  565MOL0     H76259   3.906   1.776   8.237 -0.7723 -2.2256  0.7440
  565MOL0     H76260   3.768   1.669   8.041 -0.7291  0.2836  2.3002
  565MOL0     H76261   3.535   1.044   6.299  0.2104  0.1877 -0.4108
  565MOL0     H76262   3.646   0.956   6.106 -1.8258 -0.9933  0.3213
  565MOL0     H76263   3.844   0.720   5.834 -0.9451  2.1307 -0.6990
  565MOL0     H76264   3.922   0.672   5.618  1.2221  0.2330 -1.5824
  565MOL0     H76265   3.989   0.643   5.430  0.3001  0.5237  1.0320
  565MOL0     H76266   3.883   0.778   5.404 -1.7688 -1.9589 -2.5032
  565MOL0     H76267   4.112   0.759   5.210  0.4828 -0.7661  0.4361
  565MOL0     H76268   3.971   0.862   5.200  0.1769  0.2142 -1.7605
  565MOL0     H76269   3.823   0.663   5.198  0.0859 -0.5120  1.9598
  565MOL0     H76270   3.945   0.556   5.203 -3.4195 -0.7844  0.0834
  565MOL0     H76271   3.920   0.766   4.969  0.0662  0.6167 -1.1576
  565MOL0     H76272   3.860   0.594   4.972  0.2794 -0.3044  0.4794
  565MOL0     H76273   4.267   0.516   4.933 -1.3353 -2.4061  0.1441
  565MOL0     H76274   4.193   0.992   5.617 -1.0184 -1.6098 -2.5370
  565MOL0     H76275   4.149   1.026   5.870  2.0036 -0.8790 -3.6091
  566MOL0     O76276   4.362  10.764   0.370 -0.3297 -0.2935  0.2135
  566MOL0     C76277   4.271  10.790   0.446 -0.2396 -0.2635 -1.4371
  566MOL0     O76278   4.271  10.890   0.550 -0.1859  0.3594  1.1021
  566MOL0     C76279   4.359  10.998   0.528  0.4958 -0.2986  0.3950
  566MOL0     C76280   4.427  11.054   0.634  0.5344 -0.6062  0.2138
  566MOL0     C76281   4.522  11.155   0.616  0.6937 -0.1486  0.0640
  566MOL0     C76282   4.519  11.233   0.501 -0.9219 -0.1070  0.8202
  566MOL0     O76283   4.603  11.344   0.487  0.4309  0.6531 -0.1277
  566MOL0     C76284   4.664  11.391   0.364  0.6815 -0.6209 -0.1187
  566MOL0     C76285   4.688  11.539   0.369  0.1983  0.2016  0.5160
  566MOL0     C76286   4.562  11.622   0.401 -0.2400 -0.4051 -1.3010
  566MOL0     C76287   4.474  11.627   0.280 -0.2318 -0.3713  0.2838
  566MOL0     C76288   4.347  11.705   0.320  0.8027  0.1301 -0.1295
  566MOL0     C76289   4.239  11.681   0.210 -0.2940 -2.0564 -0.7112
  566MOL0     C76290   4.118  11.775   0.211 -0.2894 -0.3586  0.4201
  566MOL0     C76291   4.067  11.804   0.354  0.0325  0.1194 -0.6949
  566MOL0     N76292   3.951  11.881   0.347  0.0498 -0.0302 -0.8510
  566MOL0     C76293   3.940  12.013   0.311  1.2260 -0.2225  0.9198
  566MOL0     C76294   3.807  12.045   0.322 -1.0235 -0.3465  0.4849
  566MOL0     C76295   3.767  12.191   0.301 -0.8876  0.9449 -0.7957
  566MOL0     C76296   3.705  12.209   0.167  0.4030  0.1401  0.2282
  566MOL0     C76297   3.571  12.148   0.154 -0.1759 -0.1786 -0.0446
  566MOL0     C76298   3.530  12.155   0.005 -0.9273  0.7111  0.5987
  566MOL0     O76299   3.416  12.067  -0.011 -0.3260 -0.3618  0.0614
  566MOL0     C76300   3.285  12.103   0.021  0.5250 -0.4512 -0.3647
  566MOL0     C76301   3.178  12.022  -0.027  0.1531  0.4299  0.1081
  566MOL0     C76302   3.042  12.057   0.005  0.1460  0.0192  0.4832
  566MOL0     C76303   2.947  11.955  -0.033 -0.2278 -0.5780  0.5189
  566MOL0     C76304   3.007  12.178   0.071 -0.0575 -0.1422  0.7332
  566MOL0     C76305   2.867  12.231   0.084 -0.1189 -0.0605 -0.1077
  566MOL0     O76306   2.754  12.149   0.073 -0.2690  0.3581  0.3355
  566MOL0     C76307   2.635  12.200   0.079 -0.4795  0.3578 -0.0916
  566MOL0     C76308   2.600  12.285   0.183  0.7431  0.6613 -0.9913
  566MOL0     C76309   2.472  12.344   0.171  0.2990 -0.4665 -0.5579
  566MOL0     C76310   2.390  12.326   0.054  0.0203  0.1990 -0.0261
  566MOL0     O76311   2.270  12.398   0.052  0.1040 -0.2237 -0.7041
  566MOL0     C76312   2.172  12.370  -0.050  0.2312  0.3097 -0.4687
  566MOL0     C76313   2.047  12.455  -0.034  0.3092 -0.0205 -0.1494
  566MOL0     C76314   1.920  12.380  -0.044 -0.7258 -1.2552  0.7072
  566MOL0     C76315   1.798  12.471  -0.057 -0.3318  0.2011 -0.1328
  566MOL0     C76316   1.765  12.556   0.075  0.1456  0.2269 -0.3925
  566MOL0     C76317   1.616  12.610   0.076 -0.2981  0.2446 -0.4837
  566MOL0     C76318   1.583  12.696  -0.043  0.3189 -0.6019 -0.3227
  566MOL0     C76319   1.439  12.746  -0.021  0.4768 -0.5569 -1.4463
  566MOL0    Cl76320   1.316  12.611   0.009 -0.2348  0.3183  0.2447
  566MOL0     C76321   2.437  12.237  -0.049  0.7120  0.1056  0.5744
  566MOL0     C76322   2.563  12.177  -0.042  1.6239 -1.1045 -0.7503
  566MOL0     O76323   2.871  12.352   0.086  0.7057 -0.1137 -0.1540
  566MOL0     C76324   3.112  12.251   0.118 -0.5370 -0.4869  0.5922
  566MOL0     C76325   3.247  12.213   0.101  0.1340 -0.2878 -1.0026
  566MOL0     N76326   3.737  11.940   0.368 -0.0118  0.4411 -0.3133
  566MOL0     N76327   3.822  11.837   0.377  0.4850  0.2816  0.2716
  566MOL0     C76328   4.440  11.187   0.399 -0.3612 -0.5151  0.2349
  566MOL0     C76329   4.362  11.070   0.401  0.2566 -0.7281 -0.1817
  566MOL0     C76330   4.156  10.691   0.441  0.2291 -0.5232 -0.6906
  566MOL0     C76331   4.057  10.707   0.533  0.0427 -0.2940 -0.0553
  566MOL0     C76332   3.946  10.625   0.533  0.5548  0.6835 -0.7780
  566MOL0     C76333   3.938  10.513   0.442  0.2669 -0.1892 -0.4872
  566MOL0     O76334   3.837  10.423   0.436  0.3963 -0.5696  0.0113
  566MOL0     C76335   3.745  10.419   0.551 -0.4635  0.1506 -0.1286
  566MOL0     C76336   3.650  10.303   0.530 -0.1193  0.5319 -0.2580
  566MOL0     C76337   3.531  10.298   0.626  0.3740 -0.5738 -0.0849
  566MOL0     C76338   3.426  10.206   0.567 -0.5286  0.0813  0.6285
  566MOL0     C76339   3.334  10.167   0.680 -0.0480  0.7965 -0.2963
  566MOL0     C76340   3.273  10.131   0.779 -0.0169 -0.5715 -1.1804
  566MOL0     C76341   4.041  10.504   0.348  0.0771  0.3553  0.4884
  566MOL0     C76342   4.152  10.588   0.347 -0.8250 -0.4622  0.0162
  566MOL0     H76343   4.419  11.008   0.732 -2.5619  0.1102  0.3827
  566MOL0     H76344   4.583  11.198   0.695 -1.7959  0.6663  1.6636
  566MOL0     H76345   4.762  11.344   0.358  0.7233 -0.5683  0.1579
  566MOL0     H76346   4.621  11.356   0.270  1.8764 -2.3618 -0.0541
  566MOL0     H76347   4.756  11.558   0.452  0.5225  1.0066  0.0793
  566MOL0     H76348   4.738  11.575   0.278 -1.2348 -0.8977 -0.7709
  566MOL0     H76349   4.513  11.589   0.493 -0.2739  2.8789  0.0267
  566MOL0     H76350   4.579  11.726   0.430  0.6499 -0.0188 -3.0731
  566MOL0     H76351   4.520  11.669   0.190 -2.4870  0.4542 -0.5464
  566MOL0     H76352   4.445  11.528   0.245 -0.5438 -0.4153  0.6596
  566MOL0     H76353   4.303  11.667   0.413 -0.7488 -1.5530 -1.4727
  566MOL0     H76354   4.380  11.808   0.334 -1.3950  0.7687  0.6978
  566MOL0     H76355   4.280  11.689   0.109  1.3474 -1.0700 -0.0084
  566MOL0     H76356   4.212  11.578   0.234  0.0165 -1.2856  3.9330
  566MOL0     H76357   4.145  11.873   0.170  0.7904  0.7603  3.4675
  566MOL0     H76358   4.050  11.734   0.137 -0.8283  0.8116  0.2456
  566MOL0     H76359   4.138  11.836   0.430 -0.6110  0.6803 -0.3228
  566MOL0     H76360   4.033  11.708   0.396  0.0637  0.6693  0.6239
  566MOL0     H76361   4.017  12.080   0.274  0.0216  0.5447 -0.2945
  566MOL0     H76362   3.707  12.219   0.388  0.0292  3.4531 -0.8866
  566MOL0     H76363   3.857  12.252   0.313 -0.3828  0.1458 -0.4090
  566MOL0     H76364   3.767  12.152   0.097 -0.9810  0.0329 -0.9309
  566MOL0     H76365   3.711  12.312   0.130 -2.0455  1.0514  2.1364
  566MOL0     H76366   3.511  12.224   0.204  0.8263  1.4990 -1.2915
  566MOL0     H76367   3.562  12.047   0.195  2.0362  0.2102  1.5663
  566MOL0     H76368   3.611  12.115  -0.058  1.5393  1.2776  3.1837
  566MOL0     H76369   3.516  12.258  -0.031 -0.2218 -0.3212 -3.1330
  566MOL0     H76370   3.204  11.930  -0.078  0.5817  2.0779 -2.8972
  566MOL0     H76371   2.866  12.002  -0.090 -0.4343  1.4745  2.3511
  566MOL0     H76372   2.996  11.880  -0.095 -1.9114  0.2445 -1.9681
  566MOL0     H76373   2.903  11.911   0.057  0.1884 -0.2092  0.9118
  566MOL0     H76374   2.665  12.313   0.265  0.0539  0.1149 -0.2379
  566MOL0     H76375   2.436  12.415   0.244 -0.4461 -1.1999 -0.2024
  566MOL0     H76376   2.208  12.403  -0.148  0.4503  1.0624 -0.1416
  566MOL0     H76377   2.151  12.263  -0.057  1.7476 -0.1263  1.0049
  566MOL0     H76378   2.053  12.495   0.068  0.8089 -0.8709  0.1699
  566MOL0     H76379   2.045  12.531  -0.113 -0.3503 -0.7867 -0.8899
  566MOL0     H76380   1.906  12.329   0.052 -1.1030 -0.3628  1.1414
  566MOL0     H76381   1.921  12.313  -0.130  2.1725 -3.0767  2.0297
  566MOL0     H76382   1.818  12.529  -0.148  1.0820 -0.4557 -0.2711
  566MOL0     H76383   1.711  12.408  -0.075 -0.4691  0.0354  1.0473
  566MOL0     H76384   1.839  12.637   0.074  3.1332 -2.3445 -0.6645
  566MOL0     H76385   1.767  12.496   0.166 -2.6786  0.5654 -0.0099
  566MOL0     H76386   1.557  12.518   0.081  2.2848 -1.7521 -2.9203
  566MOL0     H76387   1.609  12.660   0.173 -2.6102 -2.1617  0.7208
  566MOL0     H76388   1.595  12.664  -0.147  2.1560  0.1102 -0.3738
  566MOL0     H76389   1.647  12.784  -0.031  0.5781 -1.1598  3.5672
  566MOL0     H76390   1.418  12.807  -0.109  2.1424  2.2569 -0.0729
  566MOL0     H76391   1.444  12.825   0.056  0.7584  0.7670 -2.7756
  566MOL0     H76392   2.374  12.217  -0.135 -1.7991  1.4553  1.9913
  566MOL0     H76393   2.594  12.125  -0.132 -0.9962 -0.2215 -2.2610
  566MOL0     H76394   3.106  12.343   0.175  1.7068 -0.4728  0.8835
  566MOL0     H76395   3.325  12.274   0.145  2.1191 -0.1062 -4.4305
  566MOL0     H76396   4.427  11.246   0.309 -0.2513 -1.0338 -0.1229
  566MOL0     H76397   4.283  11.047   0.331  1.5265 -1.5007 -1.4348
  566MOL0     H76398   4.066  10.787   0.606 -1.5992  1.1099 -1.2907
  566MOL0     H76399   3.858  10.640   0.595 -0.1422 -0.1153 -1.5429
  566MOL0     H76400   3.803  10.413   0.644  1.6717  2.6170 -1.1628
  566MOL0     H76401   3.684  10.510   0.550 -1.2952 -0.3808  0.8761
  566MOL0     H76402   3.698  10.204   0.531 -3.3857 -1.1946  0.3457
  566MOL0     H76403   3.598  10.318   0.435 -0.1208  1.1915 -0.1566
  566MOL0     H76404   3.491  10.400   0.619  2.1699  0.1455 -0.5364
  566MOL0     H76405   3.553  10.260   0.726  3.8556 -1.7715 -1.1687
  566MOL0     H76406   3.473  10.112   0.536  1.1735  1.1543 -0.2176
  566MOL0     H76407   3.367  10.244   0.484  0.8136  0.6005 -0.1236
  566MOL0     H76408   3.223  10.076   0.856 -0.5092  1.2352 -0.1402
  566MOL0     H76409   4.028  10.425   0.275  0.3376  1.1316 -0.4058
  566MOL0     H76410   4.230  10.582   0.272 -0.2264  0.0666  0.5918
  567MOL0     O76411   7.013   5.498  10.689  0.2050  0.6124 -0.4296
  567MOL0     C76412   7.073   5.600  10.678 -0.1362 -0.7836  0.2989
  567MOL0     O76413   7.200   5.633  10.747 -0.4330 -0.1893  0.1781
  567MOL0     C76414   7.284   5.528  10.797  0.4011  0.3775 -0.2690
  567MOL0     C76415   7.255   5.390  10.813  0.0424 -0.6345 -0.0088
  567MOL0     C76416   7.354   5.306  10.863 -0.5349  0.6641  0.1787
  567MOL0     C76417   7.489   5.342  10.879  0.4669  0.8350 -0.2124
  567MOL0     O76418   7.588   5.262  10.927 -0.0690 -0.4359  0.8310
  567MOL0     C76419   7.582   5.120  10.911  0.3253  0.9993 -0.2057
  567MOL0     C76420   7.709   5.050  10.954 -0.5715  0.8414 -0.3701
  567MOL0     C76421   7.743   5.093  11.096  0.0014 -0.2109 -0.0387
  567MOL0     C76422   7.887   5.042  11.129  0.3659 -0.8943 -0.6191
  567MOL0     C76423   7.927   5.086  11.270 -0.0837 -0.3806  0.2206
  567MOL0     C76424   7.864   5.015  11.393 -0.5791 -0.3619 -0.3661
  567MOL0     C76425   7.910   5.071  11.528 -0.5601  0.5487 -0.0566
  567MOL0     C76426   7.836   5.009  11.642  0.4550  0.2223  0.4603
  567MOL0     N76427   7.890   5.067  11.766  0.0419 -0.4483 -0.2629
  567MOL0     C76428   8.017   5.035  11.819 -0.2024 -0.8784  0.2540
  567MOL0     C76429   8.038   5.119  11.927  0.4406  0.4291  1.4040
  567MOL0     C76430   8.142   5.123  12.030  0.2941 -0.8241  0.3316
  567MOL0     C76431   8.262   5.210  11.980 -0.1168  0.6698  0.6403
  567MOL0     C76432   8.238   5.359  12.030 -0.9104  0.4174  0.6504
  567MOL0     C76433   8.359   5.437  12.004 -0.0874 -0.1769 -0.0110
  567MOL0     O76434   8.384   5.440  11.861  0.6136  0.0210  0.3078
  567MOL0     C76435   8.516   5.451  11.826 -0.8519 -0.4115  0.3971
  567MOL0     C76436   8.624   5.505  11.910 -0.1240  0.6740  0.4420
  567MOL0     C76437   8.753   5.520  11.859 -0.2030 -0.0029  0.5184
  567MOL0     C76438   8.869   5.543  11.951  0.8048 -0.4953  0.1216
  567MOL0     C76439   8.772   5.485  11.721 -0.0490  0.0700 -0.0967
  567MOL0     C76440   8.906   5.493  11.664  0.5870  0.3087 -0.2731
  567MOL0     O76441   8.928   5.583  11.563  0.3784 -0.1405 -0.0020
  567MOL0     C76442   9.045   5.570  11.492  0.1431  0.2686 -0.4377
  567MOL0     C76443   9.066   5.505  11.367  0.1222  0.3736  0.6938
  567MOL0     C76444   9.185   5.515  11.300 -0.7984  0.7432 -0.4314
  567MOL0     C76445   9.296   5.585  11.354 -0.1474  0.4031 -0.1007
  567MOL0     O76446   9.408   5.599  11.276  0.0736 -0.5843 -0.3932
  567MOL0     C76447   9.535   5.639  11.332 -0.6441  0.5708  1.0641
  567MOL0     C76448   9.621   5.690  11.214  0.3852  0.4372 -0.3977
  567MOL0     C76449   9.765   5.704  11.266 -0.0908 -0.9361 -0.3936
  567MOL0     C76450   9.843   5.787  11.170 -0.4929  0.5586  0.0778
  567MOL0     C76451   9.991   5.763  11.201  0.2567 -0.0263 -1.1331
  567MOL0     C76452  10.076   5.774  11.075 -0.1037 -0.3644  0.0633
  567MOL0     C76453  10.220   5.734  11.081 -0.1556  0.1025 -0.9045
  567MOL0     C76454  10.301   5.850  11.135  0.4489 -0.0253  0.3131
  567MOL0    Cl76455  10.257   5.887  11.301  0.2511  0.2190 -0.2974
  567MOL0     C76456   9.286   5.631  11.490  0.1693 -0.0264 -0.0360
  567MOL0     C76457   9.156   5.629  11.554  0.9781  0.5302 -0.9666
  567MOL0     O76458   8.993   5.417  11.705  0.2132  0.6837 -0.3383
  567MOL0     C76459   8.671   5.419  11.643  0.3412  0.3207  0.0273
  567MOL0     C76460   8.543   5.408  11.698  0.3119 -0.7313  0.5872
  567MOL0     N76461   7.918   5.196  11.931 -0.5853 -0.6254  0.0284
  567MOL0     N76462   7.834   5.161  11.843 -0.5317  0.4222  0.0746
  567MOL0     C76463   7.525   5.476  10.858  0.2078  0.6485  0.3301
  567MOL0     C76464   7.414   5.566  10.821  1.1285 -0.4072  0.6517
  567MOL0     C76465   6.997   5.706  10.603 -0.3759 -0.4880 -0.3440
  567MOL0     C76466   6.874   5.670  10.536  0.2233  0.6850  0.8977
  567MOL0     C76467   6.789   5.782  10.500  0.0800  0.0915  0.0498
  567MOL0     C76468   6.829   5.914  10.495 -0.4398 -0.3595  0.7543
  567MOL0     O76469   6.758   5.998  10.413 -1.0620 -0.3473  0.3034
  567MOL0     C76470   6.769   6.138  10.443 -0.8167 -0.5292  0.4519
  567MOL0     C76471   6.659   6.229  10.387  1.2917 -0.8091  0.6382
  567MOL0     C76472   6.514   6.206  10.448  0.0356 -0.1757 -0.4739
  567MOL0     C76473   6.408   6.289  10.370 -0.4698  0.0672  0.6695
  567MOL0     C76474   6.442   6.433  10.379  1.0316  0.3841 -0.0177
  567MOL0     C76475   6.468   6.552  10.398 -0.2598 -0.5878  0.4531
  567MOL0     C76476   6.955   5.945  10.555  0.0830  0.9157  0.3794
  567MOL0     C76477   7.040   5.843  10.604  0.6455  0.6664  0.1778
  567MOL0     H76478   7.154   5.349  10.814  1.0989 -3.8199  4.3890
  567MOL0     H76479   7.317   5.205  10.879  1.2479  0.0257  0.4455
  567MOL0     H76480   7.502   5.082  10.976  0.6008  1.2365  0.2763
  567MOL0     H76481   7.563   5.080  10.810 -0.0844 -0.8831  0.5667
  567MOL0     H76482   7.701   4.941  10.954  0.7430  0.7242  0.4658
  567MOL0     H76483   7.793   5.074  10.887 -0.2151  0.0903 -0.1967
  567MOL0     H76484   7.729   5.201  11.105 -0.5507 -0.2732 -0.1733
  567MOL0     H76485   7.670   5.055  11.167 -1.5146 -0.5306 -1.7179
  567MOL0     H76486   7.885   4.933  11.116 -2.2016 -0.9008 -0.7463
  567MOL0     H76487   7.959   5.094  11.065 -0.6169  0.0802 -0.9680
  567MOL0     H76488   8.033   5.064  11.289 -0.6939 -1.3827  2.8712
  567MOL0     H76489   7.925   5.196  11.272 -0.2144 -0.3938  0.7434
  567MOL0     H76490   7.756   5.028  11.400 -0.5454 -0.8347  2.2921
  567MOL0     H76491   7.883   4.907  11.395 -0.4084 -0.3378 -0.6121
  567MOL0     H76492   8.017   5.047  11.538 -1.1452 -2.8599 -0.8052
  567MOL0     H76493   7.893   5.180  11.528 -0.8653  0.5479 -2.2572
  567MOL0     H76494   7.853   4.902  11.654 -0.8929  0.1820  2.5076
  567MOL0     H76495   7.727   5.025  11.642 -0.0340 -2.5778  0.9513
  567MOL0     H76496   8.097   4.970  11.786  1.1065  1.6713 -1.8516
  567MOL0     H76497   8.121   5.170  12.126  2.3851  1.5801 -0.2848
  567MOL0     H76498   8.178   5.023  12.054  2.1460 -0.9588 -2.5817
  567MOL0     H76499   8.279   5.210  11.872  0.7205  0.0628  0.7541
  567MOL0     H76500   8.356   5.172  12.022 -0.8127 -2.0764 -0.1109
  567MOL0     H76501   8.214   5.370  12.137 -2.7545  2.0483  0.1347
  567MOL0     H76502   8.151   5.402  11.979 -1.1189 -0.9887 -0.2250
  567MOL0     H76503   8.438   5.380  12.054 -0.9423  0.9166  2.7471
  567MOL0     H76504   8.349   5.541  12.035  0.5904 -0.3782  0.9334
  567MOL0     H76505   8.600   5.532  12.013  2.4547 -2.9684  2.2366
  567MOL0     H76506   8.828   5.581  12.045 -1.9687 -0.2335 -1.0944
  567MOL0     H76507   8.910   5.446  11.981  0.8514  0.4721  3.7680
  567MOL0     H76508   8.945   5.617  11.927 -1.0211  1.7327  0.7953
  567MOL0     H76509   8.985   5.453  11.316 -0.6236  2.2003 -0.0646
  567MOL0     H76510   9.192   5.480  11.198 -0.7520 -1.1227  0.1670
  567MOL0     H76511   9.533   5.722  11.402 -1.4667 -0.9507  2.9346
  567MOL0     H76512   9.582   5.553  11.380  0.2807  1.0571  1.0471
  567MOL0     H76513   9.616   5.619  11.130 -0.6001  0.4329 -0.3403
  567MOL0     H76514   9.585   5.787  11.181  1.9199  1.3475  0.4751
  567MOL0     H76515   9.804   5.603  11.283  3.7567  0.1464 -1.7174
  567MOL0     H76516   9.755   5.760  11.359  1.7492 -1.5658  0.2233
  567MOL0     H76517   9.815   5.753  11.070 -1.1690  0.1055  0.4179
  567MOL0     H76518   9.823   5.891  11.197  0.2914  0.4342  1.2127
  567MOL0     H76519  10.002   5.670  11.258 -0.8148  0.1500 -0.6015
  567MOL0     H76520  10.018   5.847  11.265 -0.9010 -0.3677 -0.1720
  567MOL0     H76521  10.018   5.719  11.001 -0.5631  1.6967 -1.1975
  567MOL0     H76522  10.069   5.880  11.049 -2.4022 -0.5283 -0.1485
  567MOL0     H76523  10.278   5.721  10.990  1.0258  1.6989 -0.4328
  567MOL0     H76524  10.229   5.642  11.139  1.4660  0.0697 -1.1777
  567MOL0     H76525  10.277   5.939  11.075  2.0837  1.5671  1.8755
  567MOL0     H76526  10.409   5.835  11.139  0.4465  0.2129  1.4681
  567MOL0     H76527   9.369   5.677  11.542  1.9837 -1.1449 -1.7870
  567MOL0     H76528   9.142   5.676  11.650  2.0227 -0.3368 -0.3662
  567MOL0     H76529   8.698   5.381  11.544 -1.9040 -4.8052  1.0784
  567MOL0     H76530   8.469   5.379  11.625 -0.3295  3.2016 -0.5661
  567MOL0     H76531   7.627   5.507  10.880  1.7895 -1.9029 -2.5887
  567MOL0     H76532   7.454   5.667  10.820  3.4698 -1.2567  1.3956
  567MOL0     H76533   6.835   5.569  10.541 -0.6690  0.9849  0.3281
  567MOL0     H76534   6.694   5.748  10.461  0.9645 -0.8689 -1.3732
  567MOL0     H76535   6.762   6.158  10.550 -0.7691 -1.6065  0.6729
  567MOL0     H76536   6.864   6.172  10.401 -0.9234  1.2701  1.5701
  567MOL0     H76537   6.651   6.222  10.278  3.1371  0.1545  0.4022
  567MOL0     H76538   6.688   6.332  10.409 -0.2539 -0.6222  1.9834
  567MOL0     H76539   6.500   6.234  10.553  2.7347  4.9025 -1.1714
  567MOL0     H76540   6.493   6.099  10.444  0.8080 -0.2969 -2.7299
  567MOL0     H76541   6.311   6.267  10.415  0.0193 -5.4249 -0.3175
  567MOL0     H76542   6.394   6.265  10.264  2.0242  2.1207 -0.2529
  567MOL0     H76543   6.482   6.653  10.429 -0.0972 -0.5374  0.2221
  567MOL0     H76544   6.991   6.046  10.539  0.3213  0.6467 -0.8198
  567MOL0     H76545   7.127   5.886  10.652  1.3374  0.0082 -0.4578
  568MOL0     O76546   1.989   9.119   6.731  0.0793 -0.0227 -0.9397
  568MOL0     C76547   2.066   9.147   6.823  0.7673 -0.3592  0.4003
  568MOL0     O76548   2.042   9.228   6.931  0.0546 -0.4802 -0.0698
  568MOL0     C76549   1.940   9.323   6.927  0.3308  0.3393 -0.5792
  568MOL0     C76550   1.811   9.279   6.910 -0.6018 -0.1517 -0.1910
  568MOL0     C76551   1.708   9.361   6.915 -0.3511 -0.1135 -0.6241
  568MOL0     C76552   1.730   9.499   6.959  0.1757 -0.6020 -0.1250
  568MOL0     O76553   1.625   9.579   6.970 -0.2466  0.3004 -0.2100
  568MOL0     C76554   1.592   9.660   6.850  0.7956 -0.7082 -0.0428
  568MOL0     C76555   1.439   9.688   6.828 -0.1707 -0.4649  0.8810
  568MOL0     C76556   1.410   9.807   6.731  0.5952 -0.1587  0.1075
  568MOL0     C76557   1.260   9.840   6.715 -0.6875  1.0734  0.1605
  568MOL0     C76558   1.232   9.954   6.620 -0.1381 -0.2141  0.7110
  568MOL0     C76559   1.079   9.976   6.587 -0.7435  0.4132 -0.2770
  568MOL0     C76560   1.014   9.884   6.483 -0.7195 -0.0860  0.1456
  568MOL0     C76561   1.052   9.928   6.335  0.2782 -0.9587  0.3294
  568MOL0     N76562   1.018   9.821   6.242 -0.2625  0.4216 -0.1662
  568MOL0     C76563   0.906   9.747   6.231 -0.0344  0.6382 -0.0713
  568MOL0     C76564   0.912   9.675   6.107 -0.4144 -0.1658 -0.0408
  568MOL0     C76565   0.821   9.585   6.042 -1.2421  0.3593 -0.1923
  568MOL0     C76566   0.680   9.559   6.112  0.4589  0.1461  0.5339
  568MOL0     C76567   0.684   9.507   6.257 -0.7487  0.1659  0.4351
  568MOL0     C76568   0.559   9.428   6.294 -0.2356  0.5101 -0.0032
  568MOL0     O76569   0.440   9.502   6.263 -0.1487 -0.4656  0.4861
  568MOL0     C76570   0.317   9.437   6.269  0.2383 -0.2705 -0.5930
  568MOL0     C76571   0.246   9.453   6.391  0.4109 -0.5466  0.2513
  568MOL0     C76572   0.124   9.381   6.406  0.5699  0.5343  0.3816
  568MOL0     C76573   0.059   9.397   6.542  0.3122 -0.9991 -0.3167
  568MOL0     C76574   0.069   9.313   6.294 -0.1391 -0.6333 -0.2230
  568MOL0     C76575  -0.058   9.247   6.291  0.1916  0.9252  0.3087
  568MOL0     O76576  -0.117   9.218   6.164  0.4279  0.0341 -0.0397
  568MOL0     C76577  -0.220   9.127   6.172 -0.8411  0.6248  0.1756
  568MOL0     C76578  -0.192   8.996   6.123 -0.3794 -0.6570 -0.4298
  568MOL0     C76579  -0.296   8.891   6.112 -0.2368 -0.8352 -0.2420
  568MOL0     C76580  -0.417   8.918   6.189  0.2731  0.2163  1.1421
  568MOL0     O76581  -0.525   8.830   6.186 -0.0953  0.0143  0.4951
  568MOL0     C76582  -0.520   8.710   6.104 -0.4470 -0.1677 -0.0179
  568MOL0     C76583  -0.650   8.641   6.128 -0.3754  0.6239  0.0290
  568MOL0     C76584  -0.678   8.607   6.277  0.0133 -0.1420  0.4475
  568MOL0     C76585  -0.822   8.553   6.278 -0.0772  0.1977  0.5049
  568MOL0     C76586  -0.880   8.526   6.421  0.3134 -0.6910  0.3268
  568MOL0     C76587  -1.017   8.479   6.426 -0.3001 -0.1436 -0.6165
  568MOL0     C76588  -1.066   8.435   6.569  0.1837  0.0415  0.5365
  568MOL0     C76589  -1.202   8.354   6.562  0.4754 -0.5310 -0.4197
  568MOL0    Cl76590  -1.152   8.196   6.511  0.0275  0.4671  0.2359
  568MOL0     C76591  -0.432   9.037   6.250  0.4191 -0.6390  1.1529
  568MOL0     C76592  -0.334   9.139   6.248  0.0230 -0.3708  0.1877
  568MOL0     O76593  -0.086   9.200   6.401  0.1142  0.1097  0.0581
  568MOL0     C76594   0.141   9.305   6.173 -0.4545 -1.1576 -0.8434
  568MOL0     C76595   0.269   9.356   6.169  0.1227  0.8680  0.8800
  568MOL0     N76596   1.034   9.711   6.056  0.1077 -0.0044  0.6238
  568MOL0     N76597   1.099   9.799   6.132  0.2652 -0.6786  0.1943
  568MOL0     C76598   1.855   9.551   6.962  0.3573 -0.9929  0.8270
  568MOL0     C76599   1.964   9.461   6.955 -0.4408  0.7949  0.3675
  568MOL0     C76600   2.189   9.073   6.828  0.0002 -0.5071 -1.0899
  568MOL0     C76601   2.220   8.988   6.725 -1.3967  0.6118  0.0440
  568MOL0     C76602   2.329   8.905   6.745  0.0993  0.2813  0.4763
  568MOL0     C76603   2.414   8.914   6.854  0.7572 -0.7510 -1.1293
  568MOL0     O76604   2.530   8.843   6.868 -0.4420 -0.1789 -0.5395
  568MOL0     C76605   2.548   8.719   6.793 -0.8437  0.9336  0.1933
  568MOL0     C76606   2.655   8.641   6.864  0.6631  0.3020  0.2360
  568MOL0     C76607   2.635   8.622   7.014  0.0113  0.0203  0.6797
  568MOL0     C76608   2.524   8.526   7.049  0.3175  0.2066 -1.0393
  568MOL0     C76609   2.550   8.389   7.006  0.0637 -0.0165 -0.2542
  568MOL0     C76610   2.604   8.289   6.966  0.5090  0.4188  0.2028
  568MOL0     C76611   2.383   9.009   6.955  0.7966  0.6527  0.1708
  568MOL0     C76612   2.277   9.092   6.937 -0.1620 -0.0346 -0.7638
  568MOL0     H76613   1.797   9.174   6.885  3.6119 -0.8664 -0.1531
  568MOL0     H76614   1.602   9.346   6.900 -0.6281  1.5169 -0.4871
  568MOL0     H76615   1.626   9.760   6.878  2.6222 -1.5016  0.7132
  568MOL0     H76616   1.628   9.611   6.759  0.6488 -1.3373  0.2281
  568MOL0     H76617   1.388   9.595   6.801 -1.0623  0.5037 -0.9112
  568MOL0     H76618   1.395   9.706   6.926 -3.4187 -4.7124  0.4708
  568MOL0     H76619   1.470   9.893   6.761 -0.9161  1.1053 -0.3673
  568MOL0     H76620   1.447   9.768   6.635  1.1715 -2.2143  1.1110
  568MOL0     H76621   1.205   9.750   6.687 -0.4338  0.5262  1.3540
  568MOL0     H76622   1.219   9.887   6.805 -1.2859 -0.0817  0.5055
  568MOL0     H76623   1.269  10.048   6.662 -1.7681 -0.1229  2.0834
  568MOL0     H76624   1.288   9.942   6.527  1.8341 -1.3710  1.9696
  568MOL0     H76625   1.027   9.965   6.683 -0.8445 -0.2611 -0.4052
  568MOL0     H76626   1.068  10.079   6.551 -1.1084  2.1856  4.2661
  568MOL0     H76627   1.040   9.779   6.499  1.5745  0.2741 -0.8769
  568MOL0     H76628   0.905   9.883   6.491 -0.8707  2.5031 -0.6016
  568MOL0     H76629   1.157   9.954   6.326 -0.0674  0.5556  0.4067
  568MOL0     H76630   0.993  10.016   6.310  1.2277 -0.3170  0.3159
  568MOL0     H76631   0.821   9.742   6.298 -0.4211  0.8095 -0.5433
  568MOL0     H76632   0.799   9.622   5.942 -1.3778  2.4690  0.5654
  568MOL0     H76633   0.871   9.488   6.038 -2.2362 -0.2026  0.4963
  568MOL0     H76634   0.624   9.486   6.052 -1.0580  0.2583  1.7497
  568MOL0     H76635   0.617   9.648   6.114  2.4267  1.7368 -1.7186
  568MOL0     H76636   0.699   9.586   6.332  0.1975  2.4218 -1.9776
  568MOL0     H76637   0.776   9.448   6.261  0.4413  1.8901 -0.2256
  568MOL0     H76638   0.559   9.407   6.401  0.0269  2.0115  0.3093
  568MOL0     H76639   0.564   9.328   6.248  0.1461 -0.2991  1.7273
  568MOL0     H76640   0.291   9.510   6.472 -1.4149 -0.1612  1.0425
  568MOL0     H76641  -0.051   9.393   6.542  0.0592  1.8180  2.5937
  568MOL0     H76642   0.096   9.328   6.618 -0.8453  0.4093  1.6364
  568MOL0     H76643   0.085   9.493   6.586  1.0417 -0.6591 -1.4601
  568MOL0     H76644  -0.103   8.975   6.064 -0.4062  0.3551 -0.8511
  568MOL0     H76645  -0.265   8.805   6.054  1.7187 -1.0186  1.0065
  568MOL0     H76646  -0.501   8.743   6.002  1.4881 -0.5175  0.1881
  568MOL0     H76647  -0.447   8.635   6.136  1.2662  1.7914  0.8960
  568MOL0     H76648  -0.723   8.705   6.078  1.2398  1.6117 -1.1706
  568MOL0     H76649  -0.662   8.546   6.075 -1.2617 -1.8912  4.2476
  568MOL0     H76650  -0.670   8.699   6.336  1.1207  0.6929 -0.9534
  568MOL0     H76651  -0.613   8.532   6.324  0.1559  0.0171  0.5056
  568MOL0     H76652  -0.879   8.635   6.233  1.2346  2.2548  2.3985
  568MOL0     H76653  -0.821   8.457   6.226 -0.5019  2.3711 -4.0497
  568MOL0     H76654  -0.872   8.607   6.493 -1.3661  0.4347 -0.6923
  568MOL0     H76655  -0.831   8.432   6.447 -0.0883 -1.3222 -1.0654
  568MOL0     H76656  -1.077   8.556   6.376  0.9056 -0.0427 -1.9891
  568MOL0     H76657  -1.023   8.397   6.353  3.1757 -1.4427  0.3699
  568MOL0     H76658  -1.088   8.528   6.622 -2.8371  1.1206 -2.2611
  568MOL0     H76659  -0.994   8.369   6.619  1.0014 -1.7521 -2.6910
  568MOL0     H76660  -1.280   8.395   6.497 -1.0212 -0.3717  1.3927
  568MOL0     H76661  -1.235   8.349   6.667  1.5200 -0.1042 -0.0569
  568MOL0     H76662  -0.526   9.070   6.294  0.0254  0.7011 -0.5907
  568MOL0     H76663  -0.352   9.236   6.293  2.2545  0.8974 -1.4325
  568MOL0     H76664   0.089   9.260   6.090 -1.8343  0.5475 -0.9714
  568MOL0     H76665   0.332   9.359   6.081 -1.5336  1.1444 -0.3380
  568MOL0     H76666   1.864   9.654   6.995  0.1213 -1.2499  1.7332
  568MOL0     H76667   2.062   9.497   6.983 -0.9036  2.6236 -0.1884
  568MOL0     H76668   2.172   8.979   6.628 -0.6336 -1.4035 -0.1992
  568MOL0     H76669   2.358   8.825   6.678 -1.1694 -0.8865  1.2711
  568MOL0     H76670   2.457   8.657   6.792  0.1806 -0.7548 -2.8336
  568MOL0     H76671   2.576   8.735   6.688  2.5314 -0.7997  0.6908
  568MOL0     H76672   2.749   8.694   6.843  1.4151 -0.8077  0.6936
  568MOL0     H76673   2.657   8.546   6.809  0.8488 -0.1828  1.0674
  568MOL0     H76674   2.617   8.720   7.059  0.5309  0.6769 -0.4787
  568MOL0     H76675   2.728   8.589   7.062  2.7578  1.2444 -3.2870
  568MOL0     H76676   2.428   8.558   7.007 -0.7962 -0.0915  1.1060
  568MOL0     H76677   2.501   8.526   7.156 -1.2052  1.2593 -1.3427
  568MOL0     H76678   2.643   8.199   6.922  1.5749  0.0860  1.7625
  568MOL0     H76679   2.433   9.013   7.051 -1.4590  1.2892  1.4136
  568MOL0     H76680   2.260   9.163   7.018 -1.1006  0.3184 -1.2492
  569MOL0     O76681   2.066   5.858   3.555 -0.0216 -0.6784 -0.0834
  569MOL0     C76682   2.188   5.837   3.582 -0.1565 -0.6526 -0.0600
  569MOL0     O76683   2.233   5.816   3.712  0.8518  0.2123  0.5629
  569MOL0     C76684   2.159   5.805   3.828  0.5066 -0.6647  0.8235
  569MOL0     C76685   2.238   5.799   3.942 -0.2596 -0.7288 -0.2515
  569MOL0     C76686   2.174   5.801   4.068 -0.1480  0.2055 -0.2466
  569MOL0     C76687   2.029   5.794   4.067  0.2016 -0.8958  0.0174
  569MOL0     O76688   1.952   5.826   4.180 -0.2230  0.1067 -0.5381
  569MOL0     C76689   1.963   5.736   4.284 -0.2351 -0.8664 -0.3872
  569MOL0     C76690   2.022   5.800   4.400  0.1597 -0.1357  1.1633
  569MOL0     C76691   2.070   5.706   4.504 -0.1148 -0.7185  0.5727
  569MOL0     C76692   1.968   5.631   4.594  0.4132  0.0255 -0.6737
  569MOL0     C76693   1.899   5.725   4.699  0.5981 -0.2862 -0.0194
  569MOL0     C76694   1.805   5.657   4.797 -0.1225  1.0854 -1.6486
  569MOL0     C76695   1.771   5.748   4.909  0.3095 -0.3881 -0.8855
  569MOL0     C76696   1.878   5.743   5.020 -0.5728  0.8853 -0.2463
  569MOL0     N76697   1.878   5.609   5.091 -0.3008 -0.3087  0.3172
  569MOL0     C76698   1.981   5.523   5.080  1.0177  0.3648  0.0687
  569MOL0     C76699   1.936   5.410   5.140 -0.2116  0.3447  0.0589
  569MOL0     C76700   2.025   5.293   5.177  0.5542 -0.6989  0.1312
  569MOL0     C76701   2.076   5.232   5.055  0.1135 -0.2493  0.8093
  569MOL0     C76702   2.205   5.148   5.073 -0.4396  0.0816 -1.3406
  569MOL0     C76703   2.169   5.020   5.157 -0.2652  0.3421 -0.4048
  569MOL0     O76704   2.083   4.936   5.079  0.7758  0.2611 -0.4357
  569MOL0     C76705   2.001   4.840   5.143 -0.5496 -0.0844 -0.4012
  569MOL0     C76706   2.011   4.808   5.281 -0.2552  0.0055 -0.6747
  569MOL0     C76707   1.945   4.692   5.333  0.0294 -0.3790  0.1049
  569MOL0     C76708   1.964   4.645   5.473 -0.3335  0.2013 -0.0778
  569MOL0     C76709   1.862   4.614   5.253  0.0714  0.8240 -0.4083
  569MOL0     C76710   1.774   4.500   5.304 -0.2232 -0.3296  0.5234
  569MOL0     O76711   1.775   4.401   5.217  0.2310  0.4246  0.2556
  569MOL0     C76712   1.674   4.313   5.228  0.2859 -0.7267 -0.1936
  569MOL0     C76713   1.548   4.338   5.173 -1.1249 -0.4602  0.1725
  569MOL0     C76714   1.442   4.252   5.210 -1.2668  0.7613  0.2082
  569MOL0     C76715   1.458   4.136   5.281 -0.0298  0.0032  0.6239
  569MOL0     O76716   1.363   4.062   5.338 -0.6680 -0.3097 -0.4071
  569MOL0     C76717   1.225   4.109   5.334 -1.4212  0.4068 -0.4672
  569MOL0     C76718   1.126   4.031   5.421 -0.3648 -0.0405 -0.2738
  569MOL0     C76719   0.980   4.071   5.402 -0.1280 -0.4398 -0.4073
  569MOL0     C76720   0.950   4.225   5.427  0.2829 -0.0397  0.0356
  569MOL0     C76721   0.800   4.228   5.399 -0.3505  0.6620  0.8023
  569MOL0     C76722   0.755   4.375   5.398 -0.3021  0.4017 -0.0358
  569MOL0     C76723   0.597   4.403   5.422 -0.6285  0.3568  1.2410
  569MOL0     C76724   0.568   4.548   5.405  0.6227 -0.0280 -0.2133
  569MOL0    Cl76725   0.652   4.634   5.533 -0.2242 -0.4580 -0.1115
  569MOL0     C76726   1.588   4.113   5.315  0.2650  0.0826  0.5497
  569MOL0     C76727   1.700   4.200   5.299 -0.5550  1.2255  0.4342
  569MOL0     O76728   1.705   4.506   5.402  0.0579 -0.3757 -0.2755
  569MOL0     C76729   1.864   4.642   5.116 -0.5734 -0.3155  1.2041
  569MOL0     C76730   1.940   4.743   5.064  0.5038  0.0732  0.1577
  569MOL0     N76731   1.804   5.431   5.180 -0.3035  0.1540 -0.0059
  569MOL0     N76732   1.774   5.555   5.154 -0.2994  0.3564  0.0633
  569MOL0     C76733   1.954   5.791   3.951  0.1687 -0.7043  0.3420
  569MOL0     C76734   2.025   5.788   3.829 -0.1135 -0.0479  0.0739
  569MOL0     C76735   2.298   5.839   3.478 -0.3188  0.0757  0.7820
  569MOL0     C76736   2.399   5.742   3.488 -0.2825  0.6764  0.1060
  569MOL0     C76737   2.487   5.719   3.375 -0.1467  0.0860 -0.2938
  569MOL0     C76738   2.455   5.785   3.252  0.2534 -0.1667  0.2232
  569MOL0     O76739   2.538   5.754   3.144 -0.8013  0.0395 -0.1758
  569MOL0     C76740   2.678   5.785   3.151 -0.5161 -0.1085 -1.4003
  569MOL0     C76741   2.761   5.706   3.049 -0.0539 -0.8359 -0.6399
  569MOL0     C76742   2.712   5.736   2.907 -0.0976  0.1583 -1.1385
  569MOL0     C76743   2.800   5.660   2.811  0.0400 -0.3986  0.1925
  569MOL0     C76744   2.727   5.623   2.672 -0.4652 -0.2101 -0.4243
  569MOL0     C76745   2.674   5.585   2.575 -0.3124  0.4381 -0.0125
  569MOL0     C76746   2.352   5.879   3.235  1.6551 -0.1259 -0.8397
  569MOL0     C76747   2.275   5.906   3.352 -0.3704 -0.9388 -0.3343
  569MOL0     H76748   2.345   5.803   3.927 -0.4781  4.2578 -2.2332
  569MOL0     H76749   2.227   5.831   4.158  0.8942  1.9533 -1.3975
  569MOL0     H76750   1.861   5.705   4.309 -0.5341  1.5842  1.7987
  569MOL0     H76751   2.005   5.638   4.258 -3.6442 -2.5091 -0.4010
  569MOL0     H76752   2.099   5.867   4.360 -2.5250  2.3018 -0.2951
  569MOL0     H76753   1.949   5.862   4.452 -1.5505  0.6563 -1.9273
  569MOL0     H76754   2.130   5.637   4.444  0.7024  0.9222 -0.5903
  569MOL0     H76755   2.146   5.766   4.555  1.3530 -0.9764 -1.2049
  569MOL0     H76756   1.887   5.578   4.543 -0.0942  1.1732 -1.1110
  569MOL0     H76757   2.025   5.570   4.664 -2.3150  3.4694  5.3203
  569MOL0     H76758   1.977   5.780   4.752 -0.4505  1.3863 -0.1397
  569MOL0     H76759   1.831   5.793   4.648  0.9243  0.1752  0.1506
  569MOL0     H76760   1.716   5.632   4.739  2.8018 -2.3560 -5.2724
  569MOL0     H76761   1.851   5.562   4.826  0.2189  1.8470  0.4454
  569MOL0     H76762   1.749   5.850   4.878  0.9382  0.3472  0.9282
  569MOL0     H76763   1.676   5.724   4.958  0.8176  0.1396  0.4019
  569MOL0     H76764   1.849   5.818   5.094  2.1847  2.1569 -0.3553
  569MOL0     H76765   1.973   5.779   4.979 -1.1339  0.4154 -2.0832
  569MOL0     H76766   2.085   5.529   5.050  0.8090  0.3289 -0.6775
  569MOL0     H76767   2.106   5.336   5.237  0.1709 -1.0845  0.9426
  569MOL0     H76768   1.983   5.211   5.237  1.6057 -0.4191  1.2902
  569MOL0     H76769   2.117   5.303   4.983 -0.0532 -1.5973 -0.6584
  569MOL0     H76770   1.991   5.184   5.006 -0.0565  0.1480  0.7120
  569MOL0     H76771   2.273   5.205   5.136 -1.4185 -0.3974  0.2097
  569MOL0     H76772   2.242   5.118   4.974 -0.2916 -2.0774 -0.6830
  569MOL0     H76773   2.117   5.043   5.251 -1.4249  2.1028 -1.4208
  569MOL0     H76774   2.261   4.966   5.180 -1.3686 -2.0463 -1.2434
  569MOL0     H76775   2.057   4.872   5.355  0.3935 -0.0611 -1.0082
  569MOL0     H76776   2.017   4.550   5.478 -1.4843 -0.7284 -3.1880
  569MOL0     H76777   2.027   4.712   5.532 -0.4578  0.5450 -0.3323
  569MOL0     H76778   1.873   4.641   5.534 -0.3237  1.2185  0.0279
  569MOL0     H76779   1.537   4.428   5.113  2.1426  0.5260  0.8267
  569MOL0     H76780   1.341   4.288   5.192 -1.4371  1.6006  2.5758
  569MOL0     H76781   1.216   4.213   5.367 -0.3039  0.4452 -0.2498
  569MOL0     H76782   1.195   4.112   5.229  4.3287 -0.8870 -2.5009
  569MOL0     H76783   1.140   3.929   5.383  2.3314 -0.0316  0.4308
  569MOL0     H76784   1.155   4.029   5.526 -0.6794 -0.2127 -0.1929
  569MOL0     H76785   0.924   4.006   5.469  0.1147  3.5098  4.2217
  569MOL0     H76786   0.948   4.043   5.301  0.1988 -5.4785  0.6567
  569MOL0     H76787   0.972   4.245   5.532 -2.7687  2.6570  0.3099
  569MOL0     H76788   1.001   4.291   5.356  0.5203  1.5692  1.6317
  569MOL0     H76789   0.745   4.178   5.480 -0.7526  0.4352  0.3927
  569MOL0     H76790   0.768   4.178   5.307  0.8723  1.7833 -0.2582
  569MOL0     H76791   0.817   4.433   5.466 -0.0236 -0.5148  0.5098
  569MOL0     H76792   0.789   4.407   5.299 -1.9451 -0.4198 -0.9138
  569MOL0     H76793   0.556   4.369   5.517 -2.8824  2.3872  1.0845
  569MOL0     H76794   0.545   4.347   5.343  3.4462 -2.6485  0.2991
  569MOL0     H76795   0.462   4.569   5.424  0.2266 -1.0275 -1.2684
  569MOL0     H76796   0.596   4.576   5.303 -0.5083 -1.3337 -0.9108
  569MOL0     H76797   1.610   4.031   5.384 -0.2822  0.9975  1.8650
  569MOL0     H76798   1.790   4.163   5.348 -0.8146 -0.7792 -0.5028
  569MOL0     H76799   1.794   4.589   5.053  1.4470 -0.3193 -1.1471
  569MOL0     H76800   1.948   4.758   4.956  0.8331  0.8496  0.2771
  569MOL0     H76801   1.845   5.794   3.952  0.1430  0.8326 -1.5023
  569MOL0     H76802   1.960   5.803   3.743 -2.4181 -0.5289  1.6094
  569MOL0     H76803   2.411   5.689   3.582 -0.4708 -0.2484 -0.3784
  569MOL0     H76804   2.575   5.655   3.377  1.1122  1.7881  1.2148
  569MOL0     H76805   2.694   5.892   3.137  1.0825  0.3557  2.6402
  569MOL0     H76806   2.714   5.766   3.252 -0.7747 -0.4870 -1.3776
  569MOL0     H76807   2.748   5.601   3.074 -2.8629 -0.7625 -1.5244
  569MOL0     H76808   2.863   5.731   3.080 -1.3251  0.5313  2.9092
  569MOL0     H76809   2.719   5.842   2.885 -0.2553 -0.6621 -6.1263
  569MOL0     H76810   2.607   5.711   2.891 -0.0103 -0.4459 -0.8406
  569MOL0     H76811   2.834   5.571   2.864 -0.3204 -0.1894  0.7832
  569MOL0     H76812   2.887   5.720   2.784 -0.7994 -1.0798 -5.3593
  569MOL0     H76813   2.630   5.538   2.490  2.0592 -0.8299 -0.6424
  569MOL0     H76814   2.339   5.934   3.142 -0.9143 -0.1742 -0.5756
  569MOL0     H76815   2.198   5.981   3.359  1.2727  0.8164 -0.3289
  570MOL0     O76816   1.049   1.135   9.728 -0.0130  0.2118 -0.3750
  570MOL0     C76817   1.068   1.232   9.801 -0.6799 -0.4057 -0.4809
  570MOL0     O76818   1.194   1.283   9.821 -0.2961  0.1950 -0.1315
  570MOL0     C76819   1.303   1.243   9.754  0.7400 -0.2357 -0.7413
  570MOL0     C76820   1.338   1.109   9.753 -0.1835  0.2333 -0.0319
  570MOL0     C76821   1.459   1.056   9.706  0.2466  0.7373 -0.1831
  570MOL0     C76822   1.549   1.145   9.642  0.2972 -0.2962  1.0117
  570MOL0     O76823   1.665   1.104   9.579  0.9377  0.7165 -0.1473
  570MOL0     C76824   1.694   0.960   9.579  0.5070 -0.2631 -0.0552
  570MOL0     C76825   1.823   0.925   9.507 -0.2254 -0.4430  0.7928
  570MOL0     C76826   1.935   1.011   9.543 -1.1665 -0.0673  1.0183
  570MOL0     C76827   2.052   1.001   9.440  0.3522  1.2473 -0.9122
  570MOL0     C76828   2.152   1.106   9.472 -0.4491 -0.0869  0.3803
  570MOL0     C76829   2.268   1.100   9.370 -0.1204  0.1259 -0.3443
  570MOL0     C76830   2.362   1.216   9.399 -0.7444 -0.3975  0.6084
  570MOL0     C76831   2.475   1.215   9.299  0.0364  0.8028  0.4134
  570MOL0     N76832   2.555   1.337   9.334 -1.2037 -0.9526 -0.3877
  570MOL0     C76833   2.525   1.458   9.288 -0.3149 -0.0574  0.5940
  570MOL0     C76834   2.616   1.539   9.352  1.4031 -0.0987  0.0539
  570MOL0     C76835   2.653   1.683   9.317  0.0842  0.5717 -0.4459
  570MOL0     C76836   2.637   1.721   9.168  0.1727  0.7082 -0.6708
  570MOL0     C76837   2.736   1.659   9.071 -0.5587  0.6756 -0.3035
  570MOL0     C76838   2.745   1.725   8.933  0.1538  0.3992 -0.2939
  570MOL0     O76839   2.613   1.733   8.891  0.3069 -0.0595 -0.0443
  570MOL0     C76840   2.587   1.816   8.782 -0.9825  0.5932 -0.6231
  570MOL0     C76841   2.664   1.933   8.741 -0.1270 -0.0642 -0.8440
  570MOL0     C76842   2.623   2.013   8.631 -0.1111  0.2114  0.0246
  570MOL0     C76843   2.705   2.134   8.591  0.5861  0.5305 -0.4575
  570MOL0     C76844   2.499   1.975   8.570 -0.9587 -0.3893  0.2052
  570MOL0     C76845   2.434   2.060   8.471 -0.1051 -0.0141  0.0409
  570MOL0     O76846   2.362   1.992   8.370 -0.3669 -0.1519 -0.5042
  570MOL0     C76847   2.257   2.058   8.318  0.8620 -0.2052  0.3806
  570MOL0     C76848   2.272   2.176   8.238  0.5080 -0.3918 -0.6896
  570MOL0     C76849   2.156   2.254   8.192 -0.6386  0.4232  0.1533
  570MOL0     C76850   2.025   2.202   8.214 -0.4001 -0.2482 -0.8702
  570MOL0     O76851   1.906   2.259   8.181 -0.6705 -0.5663  0.9313
  570MOL0     C76852   1.901   2.381   8.122  0.4301 -0.1178  1.0190
  570MOL0     C76853   1.958   2.380   7.972  0.0270  0.0080  0.1181
  570MOL0     C76854   2.007   2.512   7.920 -0.8468 -0.3557  0.2744
  570MOL0     C76855   2.132   2.506   7.824  0.4342 -0.8448  0.0179
  570MOL0     C76856   2.179   2.654   7.795  0.1881  0.6620  0.3326
  570MOL0     C76857   2.203   2.668   7.644 -0.4171 -0.3034  0.3366
  570MOL0     C76858   2.244   2.810   7.617  1.4529 -0.9429  0.8211
  570MOL0     C76859   2.372   2.866   7.673  0.1092  0.1207  0.4400
  570MOL0    Cl76860   2.336   2.941   7.836  0.0877 -0.7897  0.2073
  570MOL0     C76861   2.010   2.078   8.290  0.2050 -0.4179 -0.0860
  570MOL0     C76862   2.122   2.005   8.332 -0.6217  0.3562 -0.5379
  570MOL0     O76863   2.428   2.186   8.485 -0.1681  0.4737  0.2909
  570MOL0     C76864   2.423   1.873   8.625 -0.1813 -0.0573 -0.0704
  570MOL0     C76865   2.474   1.779   8.717 -0.5290  0.1954 -0.1848
  570MOL0     N76866   2.681   1.465   9.453 -0.3308 -0.7848  0.1614
  570MOL0     N76867   2.642   1.340   9.432  0.1040  0.0521 -0.1783
  570MOL0     C76868   1.512   1.278   9.628 -0.5715 -0.3918 -0.0148
  570MOL0     C76869   1.397   1.330   9.692 -0.2975 -1.1137  0.2754
  570MOL0     C76870   0.963   1.285   9.885 -0.2623  0.2624  0.5865
  570MOL0     C76871   0.972   1.410   9.941  0.1556 -0.7837 -0.6327
  570MOL0     C76872   0.884   1.449  10.039  0.3895 -0.3337  0.0832
  570MOL0     C76873   0.776   1.366  10.060  0.3119  1.3867 -0.5369
  570MOL0     O76874   0.689   1.404  10.152 -0.2518  0.4735  0.5299
  570MOL0     C76875   0.572   1.461  10.083  0.5156 -0.0487  0.2690
  570MOL0     C76876   0.481   1.532  10.170 -0.0834 -0.2447 -0.7463
  570MOL0     C76877   0.429   1.447  10.287 -0.5243 -0.6355 -0.9214
  570MOL0     C76878   0.342   1.526  10.387 -0.0395  0.3091  0.8680
  570MOL0     C76879   0.283   1.426  10.481 -0.5587 -0.2586 -0.8017
  570MOL0     C76880   0.250   1.355  10.575  0.0220  0.0663 -0.1529
  570MOL0     C76881   0.759   1.237  10.000 -0.2018 -1.0348  0.4229
  570MOL0     C76882   0.851   1.198   9.908  0.6862  0.1437  0.2405
  570MOL0     H76883   1.276   1.039   9.809  2.2019 -2.3143 -0.3833
  570MOL0     H76884   1.464   0.948   9.717 -0.6428  0.4051 -2.5112
  570MOL0     H76885   1.705   0.916   9.678  0.7527  0.2102  0.1361
  570MOL0     H76886   1.621   0.911   9.515 -2.0787  3.9591 -0.7247
  570MOL0     H76887   1.858   0.822   9.518  1.3032 -0.0990 -0.4335
  570MOL0     H76888   1.801   0.949   9.402  1.2095  1.7749  0.9271
  570MOL0     H76889   1.900   1.114   9.537 -6.6168 -1.6786  0.3775
  570MOL0     H76890   1.978   0.986   9.641  0.2154  1.3594  0.8165
  570MOL0     H76891   2.098   0.903   9.427 -0.8005  0.8550 -2.2526
  570MOL0     H76892   2.012   1.033   9.344  3.2004  3.0676 -1.6293
  570MOL0     H76893   2.110   1.207   9.466  0.2558  0.3618  2.2597
  570MOL0     H76894   2.183   1.100   9.577  0.0964 -0.3776  0.2064
  570MOL0     H76895   2.325   1.007   9.369 -1.0862 -0.4704 -1.7200
  570MOL0     H76896   2.228   1.113   9.269 -0.6203 -1.2836 -0.3435
  570MOL0     H76897   2.316   1.314   9.385 -1.2681 -0.7402 -0.1001
  570MOL0     H76898   2.391   1.205   9.504  0.2945 -0.4810  0.3319
  570MOL0     H76899   2.433   1.207   9.198  0.9173 -1.8492  0.1762
  570MOL0     H76900   2.531   1.121   9.296  1.5615  1.6734  0.2395
  570MOL0     H76901   2.448   1.471   9.213  0.7923 -0.3517 -0.6407
  570MOL0     H76902   2.612   1.757   9.387  0.6074 -0.9590  1.5509
  570MOL0     H76903   2.758   1.685   9.347 -0.0838 -3.1563  0.8260
  570MOL0     H76904   2.662   1.828   9.166  0.4464  0.6956  0.9051
  570MOL0     H76905   2.536   1.704   9.130 -0.5193 -0.6943  1.6399
  570MOL0     H76906   2.715   1.556   9.041 -0.4174  1.0692 -1.8358
  570MOL0     H76907   2.836   1.669   9.115 -0.7786 -0.0775  0.3827
  570MOL0     H76908   2.802   1.659   8.868 -1.4989 -2.6802  1.1940
  570MOL0     H76909   2.795   1.821   8.950 -0.1264 -0.0475  4.4020
  570MOL0     H76910   2.754   1.961   8.796  0.2266  3.0688 -2.8323
  570MOL0     H76911   2.810   2.122   8.620  0.4840 -1.6503 -0.7892
  570MOL0     H76912   2.708   2.137   8.481 -0.6891 -4.2712 -0.8790
  570MOL0     H76913   2.661   2.229   8.622  0.2023  0.2162 -0.0269
  570MOL0     H76914   2.372   2.210   8.215  1.0336 -1.5546 -0.1979
  570MOL0     H76915   2.174   2.343   8.133 -0.0608  0.7152  0.7607
  570MOL0     H76916   1.802   2.423   8.103 -0.4133 -1.4003  2.3737
  570MOL0     H76917   1.965   2.440   8.188  0.4805  0.8837  0.1026
  570MOL0     H76918   2.033   2.302   7.962  0.5125  0.4341  0.4067
  570MOL0     H76919   1.870   2.357   7.911  1.3061  2.2467 -2.8447
  570MOL0     H76920   2.030   2.578   8.005 -2.5573  0.8806 -0.1574
  570MOL0     H76921   1.923   2.560   7.869  0.2965 -0.4738 -1.8197
  570MOL0     H76922   2.212   2.446   7.869  0.2331 -0.6488  0.6532
  570MOL0     H76923   2.108   2.452   7.733 -1.6016  0.8399 -0.5172
  570MOL0     H76924   2.278   2.669   7.839  0.0887 -0.8153  1.1138
  570MOL0     H76925   2.101   2.725   7.822 -1.4986  0.1403 -2.6787
  570MOL0     H76926   2.270   2.593   7.601 -0.3251 -0.3509  0.5580
  570MOL0     H76927   2.109   2.646   7.593 -0.0034  0.2131 -0.6786
  570MOL0     H76928   2.164   2.877   7.647 -0.5892 -1.0887 -3.5661
  570MOL0     H76929   2.248   2.821   7.508  0.8404 -2.0434  0.6652
  570MOL0     H76930   2.410   2.940   7.601 -1.9792  0.2491 -0.6106
  570MOL0     H76931   2.439   2.782   7.690 -0.8012 -0.5328  0.8350
  570MOL0     H76932   1.916   2.032   8.317  0.4512 -2.2787 -2.1627
  570MOL0     H76933   2.089   1.913   8.379 -1.0931  0.5640 -0.4548
  570MOL0     H76934   2.328   1.844   8.582 -0.8445 -1.5510  2.1991
  570MOL0     H76935   2.419   1.688   8.740  0.1099 -0.4303 -1.0660
  570MOL0     H76936   1.570   1.351   9.573 -1.0312  0.9694  1.2483
  570MOL0     H76937   1.362   1.433   9.685  0.3989 -0.9023 -0.2400
  570MOL0     H76938   1.055   1.471   9.906 -0.7267  0.6522 -0.3214
  570MOL0     H76939   0.894   1.547  10.086 -1.8141  0.2447 -0.5141
  570MOL0     H76940   0.607   1.530  10.006  2.0779 -0.2503  0.7716
  570MOL0     H76941   0.520   1.382  10.027  0.3661  1.7336 -2.2373
  570MOL0     H76942   0.392   1.563  10.113 -2.6263 -1.5520  2.2003
  570MOL0     H76943   0.546   1.614  10.202  0.1714 -0.7520  0.0743
  570MOL0     H76944   0.514   1.397  10.335 -0.2865  0.9461  0.3907
  570MOL0     H76945   0.367   1.364  10.253 -0.8477 -1.3443  1.2173
  570MOL0     H76946   0.257   1.571  10.334 -1.0771  2.1865  3.8955
  570MOL0     H76947   0.396   1.606  10.439  0.4100  2.0365 -1.9894
  570MOL0     H76948   0.252   1.290  10.660  2.2847 -1.2326 -1.1230
  570MOL0     H76949   0.674   1.173  10.019 -1.2388  0.8142  2.4059
  570MOL0     H76950   0.845   1.094   9.879  2.0602  0.4262 -1.1931
  571MOL0     O76951   4.765   8.390   7.964  0.2187  0.4605  0.1380
  571MOL0     C76952   4.675   8.344   8.034  0.4536 -0.5490  0.4477
  571MOL0     O76953   4.631   8.207   8.036  0.3724 -0.5188  0.3179
  571MOL0     C76954   4.702   8.110   7.966  0.7368 -0.3976  0.9242
  571MOL0     C76955   4.826   8.059   8.004 -0.1253  0.2526  0.4680
  571MOL0     C76956   4.892   7.959   7.932  0.1470 -0.1385 -0.3403
  571MOL0     C76957   4.823   7.905   7.814 -0.1942 -0.3756  0.0988
  571MOL0     O76958   4.888   7.820   7.722  0.1498 -0.1851  0.7513
  571MOL0     C76959   4.982   7.718   7.766 -0.3736  0.8484  0.7560
  571MOL0     C76960   4.994   7.614   7.658  0.0767 -0.0029 -0.3448
  571MOL0     C76961   5.114   7.517   7.677  0.0693  0.2586 -0.1174
  571MOL0     C76962   5.250   7.585   7.646 -0.2658 -0.7241  0.5897
  571MOL0     C76963   5.364   7.484   7.651  0.1121  1.0136 -0.2225
  571MOL0     C76964   5.373   7.386   7.775 -0.5901  0.1814 -0.1212
  571MOL0     C76965   5.500   7.298   7.762 -1.0609 -0.4053  0.0359
  571MOL0     C76966   5.486   7.177   7.657 -0.4117  0.5329 -0.5644
  571MOL0     N76967   5.596   7.087   7.665  0.4674 -0.8999 -0.0747
  571MOL0     C76968   5.613   7.002   7.771 -0.1899  0.4967 -0.0623
  571MOL0     C76969   5.737   6.943   7.754  0.4801  1.1199 -0.0430
  571MOL0     C76970   5.793   6.842   7.847  0.6152 -0.5512  0.3110
  571MOL0     C76971   5.713   6.707   7.839  0.5597  0.4436 -0.4073
  571MOL0     C76972   5.768   6.597   7.744  0.5837  0.7172  0.4553
  571MOL0     C76973   5.917   6.579   7.732 -0.3689  0.7043 -0.1681
  571MOL0     O76974   5.972   6.591   7.867 -0.3824 -0.0208  0.1003
  571MOL0     C76975   6.101   6.539   7.889  0.0251 -0.0082 -0.1324
  571MOL0     C76976   6.124   6.486   8.020  0.0497  0.4678  0.5687
  571MOL0     C76977   6.246   6.412   8.049  1.1627  0.6119  0.0725
  571MOL0     C76978   6.263   6.371   8.197 -0.0596  1.8420  0.3073
  571MOL0     C76979   6.344   6.401   7.945 -0.0002 -0.0726  0.1604
  571MOL0     C76980   6.482   6.345   7.966  0.5526  0.9145  0.1130
  571MOL0     O76981   6.548   6.299   7.847  0.1082  0.6851  0.6139
  571MOL0     C76982   6.696   6.283   7.854  1.3602 -1.0978 -0.3745
  571MOL0     C76983   6.791   6.350   7.931  0.2503  0.4484  0.0346
  571MOL0     C76984   6.921   6.312   7.931 -0.7945 -0.2834  0.3821
  571MOL0     C76985   6.959   6.192   7.877 -0.0578 -0.3667 -0.2025
  571MOL0     O76986   7.084   6.148   7.899  0.0005  0.0205 -0.6351
  571MOL0     C76987   7.097   6.009   7.928 -0.4549 -0.2164 -0.3993
  571MOL0     C76988   7.231   5.985   7.989  0.0788  0.7602 -0.3981
  571MOL0     C76989   7.355   6.070   7.945 -0.3435 -0.2853  0.1282
  571MOL0     C76990   7.479   5.980   7.968 -0.1769 -0.5526  0.7563
  571MOL0     C76991   7.614   6.048   7.953  0.8123  0.5276  0.7762
  571MOL0     C76992   7.630   6.159   8.053 -0.4556 -0.4338 -0.7158
  571MOL0     C76993   7.774   6.223   8.051  0.5305  1.3393  1.0785
  571MOL0     C76994   7.803   6.305   8.175 -0.7152 -0.1306 -0.1662
  571MOL0    Cl76995   7.698   6.435   8.194  0.1228  0.5036 -0.0053
  571MOL0     C76996   6.863   6.124   7.801  0.7976  0.0385 -0.2206
  571MOL0     C76997   6.739   6.175   7.788  1.4366 -0.4115  1.2925
  571MOL0     O76998   6.522   6.340   8.083 -0.8020 -0.3252  0.0619
  571MOL0     C76999   6.319   6.467   7.821  0.7005 -0.0657 -0.9177
  571MOL0     C77000   6.194   6.526   7.783  0.1212  0.9432 -0.1240
  571MOL0     N77001   5.796   7.005   7.650  0.3209  0.2062  0.0221
  571MOL0     N77002   5.713   7.094   7.600 -1.0773 -0.5120 -0.1736
  571MOL0     C77003   4.699   7.955   7.777  0.0553  0.2055  0.3823
  571MOL0     C77004   4.637   8.064   7.848 -1.0784 -0.9602 -0.3528
  571MOL0     C77005   4.600   8.444   8.124  1.2525 -1.1433  1.2427
  571MOL0     C77006   4.625   8.588   8.108  0.6544  0.9778 -0.5651
  571MOL0     C77007   4.557   8.679   8.193  0.0015 -0.7094 -0.9820
  571MOL0     C77008   4.473   8.638   8.296 -0.2928 -0.2926 -0.6765
  571MOL0     O77009   4.407   8.712   8.392 -0.1673 -0.3471  0.5289
  571MOL0     C77010   4.473   8.831   8.420  0.3769  0.0528  0.3928
  571MOL0     C77011   4.417   8.895   8.551  0.1593  0.1160 -0.4462
  571MOL0     C77012   4.408   8.789   8.675  0.0881 -0.4614  0.2661
  571MOL0     C77013   4.329   8.835   8.800  0.5030  0.5284  0.4905
  571MOL0     C77014   4.381   8.963   8.852  0.0612 -0.3406 -0.0926
  571MOL0     C77015   4.418   9.064   8.914  0.2439  0.2906 -0.3874
  571MOL0     C77016   4.460   8.499   8.314 -0.8393 -0.4913  0.2676
  571MOL0     C77017   4.521   8.409   8.227 -0.4061  0.5905 -0.1653
  571MOL0     H77018   4.869   8.100   8.094 -0.4069  0.6808  0.4130
  571MOL0     H77019   4.989   7.922   7.963  0.2425  1.9521  2.2468
  571MOL0     H77020   5.085   7.754   7.756  0.3514 -1.5745 -2.0060
  571MOL0     H77021   4.955   7.688   7.868 -2.3674 -1.4984 -0.3479
  571MOL0     H77022   4.906   7.551   7.671  0.9168 -0.6100  3.2943
  571MOL0     H77023   4.992   7.664   7.560  1.7593  0.4858 -0.1610
  571MOL0     H77024   5.110   7.476   7.779  3.8418 -0.8346 -0.2628
  571MOL0     H77025   5.093   7.432   7.611  1.3406  1.5162 -2.2289
  571MOL0     H77026   5.248   7.642   7.553  0.8752  0.6421  1.3683
  571MOL0     H77027   5.289   7.660   7.716 -1.4451  3.2957 -2.6822
  571MOL0     H77028   5.373   7.416   7.566  0.4409  1.5323 -0.6069
  571MOL0     H77029   5.455   7.544   7.658  0.6734  0.2491 -0.7251
  571MOL0     H77030   5.368   7.445   7.867 -0.5201  0.1910 -0.1237
  571MOL0     H77031   5.283   7.325   7.784  0.0683 -1.0398 -1.4381
  571MOL0     H77032   5.582   7.355   7.718 -0.2650 -1.4098  0.1978
  571MOL0     H77033   5.526   7.252   7.858 -2.6406 -2.6863 -0.5377
  571MOL0     H77034   5.491   7.211   7.553  0.3860 -0.3969 -0.8407
  571MOL0     H77035   5.385   7.138   7.668  0.0588 -0.3613  0.7723
  571MOL0     H77036   5.550   6.980   7.856  0.4368  0.6448  0.4461
  571MOL0     H77037   5.901   6.826   7.836  1.0763  0.4830  2.6238
  571MOL0     H77038   5.788   6.885   7.948  3.5126  3.2262 -0.9082
  571MOL0     H77039   5.612   6.728   7.803  0.4183  0.3329 -0.0822
  571MOL0     H77040   5.691   6.672   7.941 -0.2972  0.7284 -0.4801
  571MOL0     H77041   5.721   6.622   7.649  1.5847 -0.4252 -0.3661
  571MOL0     H77042   5.731   6.500   7.780  2.0073 -0.3283 -0.7974
  571MOL0     H77043   5.964   6.658   7.673 -0.4781  1.0698  0.2246
  571MOL0     H77044   5.934   6.485   7.680 -0.2005 -0.6052  2.1290
  571MOL0     H77045   6.047   6.490   8.097  0.8556 -2.0995  1.6421
  571MOL0     H77046   6.341   6.426   8.251  0.5811  0.6677  0.6022
  571MOL0     H77047   6.171   6.397   8.250 -1.6484 -0.0255 -1.3843
  571MOL0     H77048   6.281   6.264   8.202 -0.8872  1.6855  0.0362
  571MOL0     H77049   6.765   6.440   7.988  0.7592  0.1776  0.7111
  571MOL0     H77050   7.001   6.362   7.985 -0.6471 -0.1623  0.0527
  571MOL0     H77051   7.024   5.978   8.003  0.2096 -1.0317 -0.0716
  571MOL0     H77052   7.081   5.951   7.836  0.7721  1.4117 -1.7007
  571MOL0     H77053   7.215   5.991   8.097 -2.4812  1.0136 -0.7375
  571MOL0     H77054   7.256   5.879   7.973 -0.1047  0.6493  0.0265
  571MOL0     H77055   7.362   6.164   8.000  3.9265 -0.9080  0.9653
  571MOL0     H77056   7.330   6.089   7.840 -2.8890 -0.5184  0.6146
  571MOL0     H77057   7.459   5.956   8.073 -5.4111 -2.1005 -0.3083
  571MOL0     H77058   7.476   5.886   7.912 -0.7879 -1.1691  1.7866
  571MOL0     H77059   7.627   6.087   7.852  2.4316 -0.1043  0.7143
  571MOL0     H77060   7.697   5.980   7.974 -0.1840 -0.2336  2.4369
  571MOL0     H77061   7.554   6.237   8.040 -0.8778  0.0373  3.3081
  571MOL0     H77062   7.609   6.125   8.155 -0.3324  1.3086 -0.0613
  571MOL0     H77063   7.786   6.289   7.964 -0.9996 -1.3488 -1.3136
  571MOL0     H77064   7.850   6.147   8.036 -1.1716 -0.2857  0.3914
  571MOL0     H77065   7.907   6.339   8.171 -0.5413 -0.3679  1.7018
  571MOL0     H77066   7.794   6.245   8.265 -2.2151  1.7331  0.9946
  571MOL0     H77067   6.888   6.029   7.754 -0.4853  0.2917 -1.4963
  571MOL0     H77068   6.666   6.120   7.729  1.4617  3.5894 -3.0412
  571MOL0     H77069   6.393   6.487   7.744 -0.1795 -2.0944 -2.3831
  571MOL0     H77070   6.176   6.551   7.679 -1.8793  0.1840 -0.0039
  571MOL0     H77071   4.638   7.918   7.695 -1.4686  1.7494  0.7565
  571MOL0     H77072   4.538   8.101   7.821 -0.8562 -1.4130 -1.8879
  571MOL0     H77073   4.700   8.624   8.038  1.6257  0.9829  0.4486
  571MOL0     H77074   4.585   8.780   8.165  0.7945 -0.6694 -0.1019
  571MOL0     H77075   4.582   8.817   8.424  0.4005 -1.6959 -2.9801
  571MOL0     H77076   4.459   8.904   8.339  1.1117 -0.8274 -0.5566
  571MOL0     H77077   4.316   8.930   8.530  0.0944  1.1876  1.4078
  571MOL0     H77078   4.475   8.985   8.572 -2.1496  1.2688  1.3958
  571MOL0     H77079   4.510   8.765   8.707 -0.8808 -1.6015  2.7122
  571MOL0     H77080   4.356   8.703   8.633  0.5475 -0.2830 -0.6888
  571MOL0     H77081   4.346   8.765   8.882  1.7887  0.6643  0.3614
  571MOL0     H77082   4.224   8.836   8.769  0.8040 -0.9751 -0.7168
  571MOL0     H77083   4.447   9.159   8.952  1.4705 -0.3332  0.3034
  571MOL0     H77084   4.397   8.457   8.391 -0.9938 -0.6823  0.0357
  571MOL0     H77085   4.493   8.306   8.244 -0.3855 -0.0515 -3.4808
  572MOL0     O77086  10.024   3.675   1.957  0.3712 -0.7022  0.4257
  572MOL0     C77087  10.123   3.617   1.929  0.8270 -0.0153 -0.0716
  572MOL0     O77088  10.213   3.559   2.013 -0.0734 -0.3917 -0.3527
  572MOL0     C77089  10.175   3.572   2.142 -0.8129 -0.1272 -0.2190
  572MOL0     C77090  10.079   3.487   2.199  0.0539  0.7782  0.0299
  572MOL0     C77091  10.060   3.491   2.343  0.0191 -0.3155  0.1720
  572MOL0     C77092  10.136   3.585   2.413  0.2077 -0.1013  0.4401
  572MOL0     O77093  10.108   3.584   2.547 -0.6238 -0.4199 -0.0466
  572MOL0     C77094  10.148   3.705   2.621  1.7343 -0.4498  0.4519
  572MOL0     C77095  10.052   3.693   2.750 -0.5434 -0.2193  0.2383
  572MOL0     C77096  10.130   3.737   2.876 -0.1659  0.3548 -0.0712
  572MOL0     C77097  10.043   3.710   3.001 -0.1483 -0.2574 -0.5015
  572MOL0     C77098  10.106   3.747   3.132 -0.4826  0.0332 -0.2645
  572MOL0     C77099  10.000   3.737   3.249  0.8920 -0.2462 -0.9249
  572MOL0     C77100  10.063   3.738   3.385  1.2577 -0.4951  0.3365
  572MOL0     C77101   9.960   3.701   3.489 -0.1270  0.6085 -0.5598
  572MOL0     N77102  10.023   3.674   3.622 -0.1115  0.7790  0.2353
  572MOL0     C77103  10.027   3.545   3.675 -0.1068 -0.3310 -0.5293
  572MOL0     C77104  10.084   3.570   3.799  1.9479  0.0231  0.2820
  572MOL0     C77105  10.135   3.477   3.901  0.2855 -0.2589 -0.5232
  572MOL0     C77106  10.022   3.454   4.003  0.8331 -0.4568 -0.2990
  572MOL0     C77107  10.012   3.563   4.122  0.4313  0.2528  0.1061
  572MOL0     C77108   9.871   3.591   4.182  0.5118 -0.0435 -0.3081
  572MOL0     O77109   9.828   3.711   4.121 -0.5944  0.2587 -0.4176
  572MOL0     C77110   9.708   3.762   4.164 -0.2939 -0.0895 -0.8273
  572MOL0     C77111   9.660   3.860   4.083 -0.5466  0.6171  0.4030
  572MOL0     C77112   9.535   3.924   4.093 -0.7272 -0.9250 -0.1406
  572MOL0     C77113   9.510   4.043   4.003 -0.9058 -0.3588  0.9234
  572MOL0     C77114   9.445   3.872   4.197  0.2324 -0.2127  0.1486
  572MOL0     C77115   9.314   3.935   4.224  0.2355  0.1002 -0.8671
  572MOL0     O77116   9.262   3.899   4.344 -0.2231  0.8211  0.4274
  572MOL0     C77117   9.144   3.958   4.376 -0.4225  0.8407  0.1645
  572MOL0     C77118   9.128   4.091   4.385 -0.1220 -0.0582  0.1992
  572MOL0     C77119   9.006   4.140   4.434 -0.0895 -0.2720 -0.5281
  572MOL0     C77120   8.896   4.053   4.470  0.1191 -0.0738 -0.4323
  572MOL0     O77121   8.774   4.093   4.508  0.0646  0.0147  0.2761
  572MOL0     C77122   8.741   4.226   4.481 -0.4230 -0.9210  0.5389
  572MOL0     C77123   8.597   4.279   4.532 -0.0537 -0.2316 -0.4311
  572MOL0     C77124   8.504   4.166   4.604 -0.7940  0.2861  0.3283
  572MOL0     C77125   8.366   4.230   4.641  0.9339  0.5772  0.6786
  572MOL0     C77126   8.277   4.206   4.520 -0.0298 -0.7373 -0.1474
  572MOL0     C77127   8.145   4.278   4.524  0.3721  0.4138 -0.1896
  572MOL0     C77128   8.155   4.417   4.465 -0.5636  0.0432 -0.1078
  572MOL0     C77129   8.033   4.505   4.506 -0.4678  0.2609 -0.4580
  572MOL0    Cl77130   8.037   4.527   4.687  0.3381 -0.1081  0.2927
  572MOL0     C77131   8.910   3.913   4.452  0.3785 -0.0206 -0.4003
  572MOL0     C77132   9.043   3.866   4.424 -0.2221 -1.4609  0.6535
  572MOL0     O77133   9.249   3.995   4.143 -0.6480  0.1075  0.2825
  572MOL0     C77134   9.489   3.770   4.286  0.3601  0.4647 -1.1114
  572MOL0     C77135   9.618   3.726   4.264 -0.6104 -0.5374 -0.0449
  572MOL0     N77136  10.110   3.699   3.809 -0.0050 -0.2011 -0.5274
  572MOL0     N77137  10.065   3.768   3.710  0.0404  0.9897 -0.0774
  572MOL0     C77138  10.236   3.663   2.361 -0.0185  0.1576  0.3005
  572MOL0     C77139  10.246   3.664   2.217  0.7514 -0.3526 -0.3128
  572MOL0     C77140  10.139   3.578   1.787 -0.3857  0.1771 -0.5667
  572MOL0     C77141  10.265   3.520   1.743 -0.0655  0.2674 -0.2724
  572MOL0     C77142  10.273   3.469   1.610  0.8157  0.5412 -0.1129
  572MOL0     C77143  10.162   3.472   1.526 -0.1494  0.4176  0.0974
  572MOL0     O77144  10.196   3.445   1.393  0.0867  0.7180 -0.2979
  572MOL0     C77145  10.102   3.448   1.290  0.5134 -0.3123 -0.0428
  572MOL0     C77146  10.180   3.429   1.162 -0.4850  0.4349 -0.1595
  572MOL0     C77147  10.095   3.425   1.035 -0.7488  0.1116 -0.1413
  572MOL0     C77148  10.187   3.378   0.922 -0.1050  1.1350 -0.3851
  572MOL0     C77149  10.309   3.461   0.892  0.1307 -0.4487  0.8212
  572MOL0     C77150  10.411   3.529   0.881  0.2675  0.1572  0.1426
  572MOL0     C77151  10.041   3.524   1.568 -0.5002  0.5219  0.5305
  572MOL0     C77152  10.029   3.582   1.698 -0.0161  0.4093  1.1535
  572MOL0     H77153  10.030   3.409   2.141  0.6169  1.9665 -2.1368
  572MOL0     H77154   9.985   3.437   2.400 -1.8199  0.1757 -1.6569
  572MOL0     H77155  10.249   3.682   2.656  1.3142 -1.2880  1.1657
  572MOL0     H77156  10.129   3.793   2.560 -0.7330 -0.8948  0.4685
  572MOL0     H77157   9.969   3.758   2.723 -1.1022 -0.4645  1.3003
  572MOL0     H77158  10.016   3.590   2.757  1.0257 -0.8960 -0.8664
  572MOL0     H77159  10.232   3.697   2.877 -0.1341  0.3896 -0.8692
  572MOL0     H77160  10.145   3.845   2.865 -0.7142  0.7612  2.6559
  572MOL0     H77161   9.953   3.771   2.988 -0.7199 -1.2247 -1.1978
  572MOL0     H77162  10.012   3.605   2.998 -1.2396  0.0738 -2.7995
  572MOL0     H77163  10.194   3.682   3.142  1.1397  1.9294 -1.5005
  572MOL0     H77164  10.145   3.849   3.124 -0.5570 -0.0835 -2.7195
  572MOL0     H77165   9.935   3.826   3.253 -0.8011 -1.4690  2.2760
  572MOL0     H77166   9.940   3.646   3.250  0.1625  0.1421  2.4645
  572MOL0     H77167  10.144   3.665   3.378  0.4909 -1.2915 -0.6699
  572MOL0     H77168  10.094   3.838   3.418 -1.6826  0.1951  1.2958
  572MOL0     H77169   9.885   3.627   3.460  0.6094 -0.8354  1.0170
  572MOL0     H77170   9.892   3.785   3.507 -1.3596 -0.3543 -0.5721
  572MOL0     H77171  10.004   3.455   3.618 -2.5808  0.3553 -0.7122
  572MOL0     H77172  10.156   3.379   3.858  1.9645 -0.2725  0.2447
  572MOL0     H77173  10.233   3.506   3.941  1.6303 -1.6799 -2.5674
  572MOL0     H77174  10.037   3.360   4.057 -0.2265 -0.1718  0.5343
  572MOL0     H77175   9.927   3.440   3.952  1.1318  1.0657 -1.3400
  572MOL0     H77176  10.050   3.653   4.073  1.5109 -0.2206  0.0433
  572MOL0     H77177  10.077   3.518   4.198  1.0747  3.3684  1.5612
  572MOL0     H77178   9.864   3.582   4.291  0.8629 -1.1230 -0.3600
  572MOL0     H77179   9.810   3.507   4.149 -1.2175  0.8549  0.4958
  572MOL0     H77180   9.726   3.889   4.002  2.7455 -3.8562  1.1281
  572MOL0     H77181   9.608   4.083   3.974 -1.6440  1.9275  1.4088
  572MOL0     H77182   9.441   4.014   3.923 -2.1006 -0.5224  1.9879
  572MOL0     H77183   9.470   4.122   4.067 -1.8103 -0.0572  0.0112
  572MOL0     H77184   9.196   4.156   4.330  0.3964  0.4302  1.3941
  572MOL0     H77185   8.985   4.247   4.435 -0.9668 -0.3815 -2.8254
  572MOL0     H77186   8.820   4.291   4.520  1.0925 -2.5508  0.3001
  572MOL0     H77187   8.737   4.226   4.372 -0.4150  1.1506  0.5131
  572MOL0     H77188   8.611   4.364   4.599 -1.3749  0.4158 -0.9526
  572MOL0     H77189   8.539   4.318   4.448 -2.3838 -1.1153  0.6843
  572MOL0     H77190   8.551   4.134   4.697 -0.0929 -1.6707 -0.6329
  572MOL0     H77191   8.490   4.080   4.538 -1.1593  2.3887 -2.5626
  572MOL0     H77192   8.327   4.179   4.729 -2.2263 -1.5367 -1.6965
  572MOL0     H77193   8.363   4.338   4.659 -2.8648  0.4905  1.4010
  572MOL0     H77194   8.254   4.099   4.512  2.0837 -1.4017  1.6756
  572MOL0     H77195   8.329   4.240   4.430  2.9570 -0.1153  1.6859
  572MOL0     H77196   8.069   4.223   4.468  2.0067 -1.0827 -1.0344
  572MOL0     H77197   8.117   4.284   4.630  0.5298  2.9488 -0.2405
  572MOL0     H77198   8.165   4.410   4.357  2.0146 -0.6557  0.1115
  572MOL0     H77199   8.249   4.464   4.497  1.4380 -0.4737 -4.4856
  572MOL0     H77200   7.945   4.458   4.460  1.6879 -0.9542 -3.6922
  572MOL0     H77201   8.046   4.602   4.458  0.9021  0.9709  1.2615
  572MOL0     H77202   8.831   3.840   4.468 -0.4101  0.6952 -0.9346
  572MOL0     H77203   9.055   3.759   4.413  0.3226 -1.3690  0.2652
  572MOL0     H77204   9.433   3.743   4.375  2.1280  3.9922  1.3331
  572MOL0     H77205   9.657   3.651   4.332 -1.5888  0.8087  2.1193
  572MOL0     H77206  10.278   3.755   2.401 -1.9329  2.2641 -2.1684
  572MOL0     H77207  10.313   3.731   2.164  2.5309 -0.0543  2.1146
  572MOL0     H77208  10.347   3.498   1.810 -0.2299 -0.0703 -0.1761
  572MOL0     H77209  10.361   3.423   1.565  0.8810 -0.4318  0.9504
  572MOL0     H77210  10.028   3.371   1.316  0.6045  0.1493  1.7193
  572MOL0     H77211  10.050   3.541   1.267  2.0029  0.7288  0.6085
  572MOL0     H77212  10.233   3.333   1.172  1.2156  1.3812  0.3589
  572MOL0     H77213  10.262   3.500   1.149  1.4000 -2.0169 -2.8694
  572MOL0     H77214  10.058   3.527   1.021  0.5535  0.3046 -2.7108
  572MOL0     H77215  10.020   3.347   1.050  0.1250 -0.8941 -0.8815
  572MOL0     H77216  10.122   3.388   0.834  0.1522  0.7704 -0.6222
  572MOL0     H77217  10.209   3.272   0.938 -0.1367  0.8650 -1.9473
  572MOL0     H77218  10.503   3.581   0.868  0.4189 -0.7588 -3.4520
  572MOL0     H77219   9.968   3.511   1.488 -1.5800 -0.1755  1.6038
  572MOL0     H77220   9.929   3.618   1.718 -1.9819 -2.7325 -1.8834
  573MOL0     O77221  10.123   3.238   5.386 -0.7727  0.8289 -0.4386
  573MOL0     C77222  10.234   3.242   5.434 -0.1654  0.5021 -0.3689
  573MOL0     O77223  10.290   3.350   5.493  0.3064 -0.6594 -0.0935
  573MOL0     C77224  10.220   3.471   5.492  0.1144  0.8733  0.1273
  573MOL0     C77225  10.203   3.546   5.604 -0.5021 -0.3439 -0.4234
  573MOL0     C77226  10.142   3.673   5.591 -0.0713 -0.5713 -0.7493
  573MOL0     C77227  10.116   3.733   5.462  0.0331  1.0449  0.4809
  573MOL0     O77228  10.075   3.864   5.466  0.5203  0.6607  0.2475
  573MOL0     C77229   9.968   3.900   5.386  0.3118  0.5508  0.9490
  573MOL0     C77230   9.843   3.826   5.431 -0.1089  0.6558  0.0984
  573MOL0     C77231   9.723   3.884   5.362 -0.1201 -0.0645  0.1217
  573MOL0     C77232   9.612   3.922   5.464 -0.2279 -0.1014 -0.0969
  573MOL0     C77233   9.506   3.812   5.468  0.2146 -0.4484 -0.1802
  573MOL0     C77234   9.400   3.845   5.568  1.0421 -0.6197 -1.1015
  573MOL0     C77235   9.291   3.915   5.485  0.2682 -0.4497 -0.4994
  573MOL0     C77236   9.166   3.931   5.562 -0.4488 -0.5080  0.3613
  573MOL0     N77237   9.051   3.990   5.484  0.3618 -0.8485 -0.6154
  573MOL0     C77238   9.016   3.957   5.353  0.4077 -0.2454 -0.3420
  573MOL0     C77239   8.897   4.022   5.322  0.5549 -0.1779 -0.5033
  573MOL0     C77240   8.820   4.041   5.194 -1.1821 -0.8102  0.4357
  573MOL0     C77241   8.677   3.997   5.218  0.3135  0.3217  0.2603
  573MOL0     C77242   8.576   4.090   5.160  0.1710 -0.5704  0.2115
  573MOL0     C77243   8.575   4.227   5.226  0.9011 -0.3808 -0.5940
  573MOL0     O77244   8.456   4.218   5.312  0.1626  0.2090  0.1272
  573MOL0     C77245   8.342   4.272   5.268  0.0163 -0.7719  0.3638
  573MOL0     C77246   8.309   4.313   5.140 -0.3699  0.3507 -0.1619
  573MOL0     C77247   8.177   4.353   5.095 -0.4463 -0.0351  0.0872
  573MOL0     C77248   8.154   4.381   4.953  0.1078  0.3542 -0.4737
  573MOL0     C77249   8.078   4.367   5.194  0.7647  0.2748 -0.1791
  573MOL0     C77250   7.943   4.427   5.162  0.1291  0.3936  0.0136
  573MOL0     O77251   7.919   4.492   5.047 -0.1575 -0.3278 -0.1549
  573MOL0     C77252   7.797   4.553   5.031  0.4270 -1.4017 -0.2618
  573MOL0     C77253   7.762   4.564   4.896 -1.2387 -0.6117  1.1108
  573MOL0     C77254   7.655   4.646   4.853  0.0708  0.4530  0.4095
  573MOL0     C77255   7.577   4.715   4.937  0.5297  0.2139 -0.4935
  573MOL0     O77256   7.482   4.796   4.867 -0.0754 -0.1090  0.4804
  573MOL0     C77257   7.399   4.888   4.946  0.3806  1.7180  0.4279
  573MOL0     C77258   7.323   4.973   4.854  1.5102 -0.7246  0.0039
  573MOL0     C77259   7.226   5.061   4.943 -0.4992  0.1074  0.4817
  573MOL0     C77260   7.108   5.106   4.856  0.4346 -0.7109 -0.8272
  573MOL0     C77261   6.993   5.193   4.915 -0.0950  1.0265 -0.8113
  573MOL0     C77262   6.909   5.246   4.801 -0.3321 -0.5744  0.7583
  573MOL0     C77263   6.807   5.358   4.841 -0.2454  0.1658 -0.1085
  573MOL0     C77264   6.716   5.423   4.731  0.0826 -0.1232 -0.1139
  573MOL0    Cl77265   6.627   5.544   4.836  0.1876  0.2452 -0.2545
  573MOL0     C77266   7.609   4.718   5.076  0.6432 -0.0985 -0.0864
  573MOL0     C77267   7.718   4.636   5.123 -0.2260 -0.0605 -0.3794
  573MOL0     O77268   7.853   4.401   5.243  1.0381  0.0637  0.2144
  573MOL0     C77269   8.111   4.347   5.331  0.4521 -0.1784 -0.3782
  573MOL0     C77270   8.243   4.294   5.366  0.2318 -0.1405 -0.0372
  573MOL0     N77271   8.866   4.093   5.441  0.0129 -0.3232  1.3321
  573MOL0     N77272   8.947   4.067   5.537  0.0476  0.2526  0.3728
  573MOL0     C77273  10.138   3.653   5.348  0.6500  0.1191 -1.1473
  573MOL0     C77274  10.182   3.515   5.368  0.1663  0.0397  0.4436
  573MOL0     C77275  10.325   3.122   5.420  0.4397 -0.6579 -0.0055
  573MOL0     C77276  10.466   3.125   5.463 -0.1139 -0.3461  0.5080
  573MOL0     C77277  10.548   3.020   5.427 -0.8629 -1.2040 -0.5096
  573MOL0     C77278  10.504   2.919   5.345 -0.3492  0.3269 -0.7046
  573MOL0     O77279  10.586   2.815   5.298 -0.1057 -0.2581 -0.3020
  573MOL0     C77280  10.714   2.796   5.360  0.0974 -0.6016  0.8067
  573MOL0     C77281  10.782   2.662   5.316 -0.5381  0.9174 -0.1189
  573MOL0     C77282  10.822   2.648   5.164 -0.6706 -0.5389 -0.3280
  573MOL0     C77283  10.881   2.512   5.134 -0.3047  0.5362 -0.6539
  573MOL0     C77284  10.795   2.390   5.162 -0.7040  0.5558 -0.0013
  573MOL0     C77285  10.735   2.290   5.197 -0.2838  0.6520  0.6052
  573MOL0     C77286  10.370   2.911   5.303 -0.4045  0.9062 -0.1621
  573MOL0     C77287  10.288   3.014   5.346  0.8658  0.7885 -0.3916
  573MOL0     H77288  10.242   3.522   5.703  0.7719  2.2362 -0.2337
  573MOL0     H77289  10.114   3.733   5.677  1.2353 -1.2133  0.1475
  573MOL0     H77290   9.948   4.006   5.402  2.1082  1.0251  0.3434
  573MOL0     H77291   9.991   3.887   5.280 -2.9584  2.6429 -0.1495
  573MOL0     H77292   9.855   3.720   5.407 -0.0725  0.8705 -0.8637
  573MOL0     H77293   9.826   3.840   5.538  0.7571  0.6296  0.2495
  573MOL0     H77294   9.758   3.978   5.319  0.6709 -0.5159 -0.2375
  573MOL0     H77295   9.700   3.812   5.283  1.6041  1.0395 -1.4716
  573MOL0     H77296   9.658   3.943   5.561  0.6810  0.5445 -0.6474
  573MOL0     H77297   9.558   4.015   5.442  0.9384  1.2480  2.3338
  573MOL0     H77298   9.479   3.787   5.365 -0.1272 -0.4865 -0.0839
  573MOL0     H77299   9.564   3.729   5.510 -0.1641  0.0455  1.4218
  573MOL0     H77300   9.368   3.748   5.609  1.6877 -1.6300 -2.8685
  573MOL0     H77301   9.430   3.909   5.651 -1.5676 -0.8136  0.1135
  573MOL0     H77302   9.330   4.007   5.441  2.5339 -0.5896  1.0242
  573MOL0     H77303   9.265   3.846   5.404  1.7549 -0.2575 -1.1818
  573MOL0     H77304   9.181   4.006   5.640 -0.2496  1.7176 -1.6872
  573MOL0     H77305   9.133   3.840   5.613  3.6326 -1.2240  2.0798
  573MOL0     H77306   9.089   3.899   5.297  0.0674  2.1056 -3.4664
  573MOL0     H77307   8.823   4.144   5.158  1.5079 -0.8846  0.2548
  573MOL0     H77308   8.854   3.982   5.108 -0.1645  1.0993 -0.5342
  573MOL0     H77309   8.644   3.988   5.322 -4.2255  2.1035 -0.7613
  573MOL0     H77310   8.678   3.900   5.167  1.3250 -0.0290  0.9325
  573MOL0     H77311   8.476   4.047   5.150 -0.0020 -0.9047  2.7542
  573MOL0     H77312   8.603   4.104   5.055 -1.5611  2.4512  0.0403
  573MOL0     H77313   8.570   4.301   5.146 -3.3809 -0.2361 -0.4294
  573MOL0     H77314   8.668   4.244   5.280  0.0447  2.8640  0.0709
  573MOL0     H77315   8.382   4.304   5.061 -0.4393  0.6814 -0.2646
  573MOL0     H77316   8.239   4.345   4.894 -0.0742  1.6081 -1.5538
  573MOL0     H77317   8.069   4.330   4.907  1.7077 -1.8815 -1.0876
  573MOL0     H77318   8.149   4.489   4.933  1.1614  0.0862 -2.3687
  573MOL0     H77319   7.816   4.503   4.824 -2.4528  2.1944 -2.4766
  573MOL0     H77320   7.619   4.650   4.751  1.0528  0.1874  0.0377
  573MOL0     H77321   7.339   4.831   5.017 -2.0409 -0.1303 -2.8635
  573MOL0     H77322   7.465   4.953   5.006  1.8227  2.1609 -1.5288
  573MOL0     H77323   7.387   5.047   4.805  0.2634  0.3130 -0.0987
  573MOL0     H77324   7.269   4.920   4.776  0.9450  0.6262 -0.5510
  573MOL0     H77325   7.280   5.145   4.988 -2.4084  0.3424  2.4849
  573MOL0     H77326   7.183   5.002   5.024  1.3736  0.1562  1.5673
  573MOL0     H77327   7.151   5.164   4.774 -0.5447 -0.8751 -1.4599
  573MOL0     H77328   7.054   5.018   4.823  1.6952 -1.7864 -0.1311
  573MOL0     H77329   7.042   5.260   4.986 -1.4235 -1.0055  2.2157
  573MOL0     H77330   6.926   5.141   4.984  0.4470 -2.0274 -2.4074
  573MOL0     H77331   6.963   5.291   4.717  0.6915 -2.4816  0.3564
  573MOL0     H77332   6.854   5.162   4.757 -1.6208  1.6478 -2.2830
  573MOL0     H77333   6.871   5.445   4.860 -0.9151  1.1578 -2.1602
  573MOL0     H77334   6.755   5.320   4.929  1.0883 -2.7048 -0.4536
  573MOL0     H77335   6.649   5.344   4.694  1.7814 -1.4668 -0.4272
  573MOL0     H77336   6.777   5.470   4.653  0.3867  2.7776  1.7004
  573MOL0     H77337   7.554   4.789   5.137 -2.9959  0.2195 -3.3235
  573MOL0     H77338   7.752   4.640   5.226  0.7202  1.1840 -0.7120
  573MOL0     H77339   8.039   4.365   5.410  1.0169 -3.2405  0.9806
  573MOL0     H77340   8.268   4.292   5.472 -0.5779  0.2003  0.1725
  573MOL0     H77341  10.117   3.688   5.247  0.2034  2.0708 -0.4390
  573MOL0     H77342  10.208   3.468   5.274  3.2540 -4.1994  3.0440
  573MOL0     H77343  10.502   3.220   5.501 -1.1164  0.5285 -0.6291
  573MOL0     H77344  10.655   3.031   5.445 -0.4274 -1.1334 -2.7555
  573MOL0     H77345  10.768   2.886   5.329 -3.5080  1.0187 -1.4740
  573MOL0     H77346  10.708   2.815   5.467  1.0665  0.5431  0.6873
  573MOL0     H77347  10.730   2.575   5.357  1.5903  0.4279  1.7549
  573MOL0     H77348  10.869   2.660   5.382 -0.1022  0.5103 -0.6963
  573MOL0     H77349  10.906   2.716   5.147 -0.3445 -0.6611  0.6832
  573MOL0     H77350  10.741   2.667   5.094 -2.0957 -0.0458  1.3747
  573MOL0     H77351  10.970   2.500   5.195 -3.4020  1.1702  4.6195
  573MOL0     H77352  10.910   2.520   5.029 -2.0555  1.9813 -1.0905
  573MOL0     H77353  10.668   2.209   5.218 -0.3377  0.3291 -0.7077
  573MOL0     H77354  10.341   2.824   5.244 -2.7446 -0.7388  3.0552
  573MOL0     H77355  10.181   3.005   5.329  0.4482 -3.0600  2.8468
  574MOL0     O77356   9.960   8.439   2.859 -0.0116  0.4445  0.3679
  574MOL0     C77357  10.030   8.366   2.934 -0.8437 -0.2979  0.0188
  574MOL0     O77358  10.023   8.233   2.946  1.0341  0.1803  0.1976
  574MOL0     C77359   9.942   8.181   2.857  0.2002 -0.0382 -0.5007
  574MOL0     C77360   9.803   8.158   2.885 -0.1491 -0.2092  0.8764
  574MOL0     C77361   9.719   8.107   2.792  0.0451  0.3441  1.7853
  574MOL0     C77362   9.765   8.061   2.665 -1.0561  0.2152 -1.2766
  574MOL0     O77363   9.700   8.002   2.561  0.0922  0.5096  1.0181
  574MOL0     C77364   9.560   7.993   2.572  0.9348 -0.0118  0.4270
  574MOL0     C77365   9.506   7.890   2.486 -0.3534  0.0422  0.0574
  574MOL0     C77366   9.355   7.875   2.480 -0.2609 -0.2435 -0.2120
  574MOL0     C77367   9.332   7.743   2.394 -0.1743  0.5469 -0.2747
  574MOL0     C77368   9.181   7.708   2.402 -0.0542  0.2650 -0.4297
  574MOL0     C77369   9.131   7.583   2.334  0.3504  0.0851  0.6075
  574MOL0     C77370   8.976   7.582   2.325 -0.6528  0.4878  1.4014
  574MOL0     C77371   8.905   7.496   2.427 -0.7161  0.8128 -0.6454
  574MOL0     N77372   8.756   7.498   2.411  0.2054  0.5078 -0.1461
  574MOL0     C77373   8.682   7.615   2.413  0.7316  1.1227  0.2722
  574MOL0     C77374   8.556   7.564   2.393 -0.3685  0.9701 -0.0015
  574MOL0     C77375   8.429   7.635   2.342  0.7670 -0.0348  0.5918
  574MOL0     C77376   8.401   7.759   2.426 -0.2713 -1.2263 -0.2808
  574MOL0     C77377   8.284   7.849   2.379 -0.0282 -0.4515 -0.1697
  574MOL0     C77378   8.301   7.934   2.254 -0.3691 -0.3225  1.1430
  574MOL0     O77379   8.333   7.859   2.136  0.1193 -0.4773  0.0457
  574MOL0     C77380   8.297   7.923   2.015  0.0178 -0.8646 -0.3911
  574MOL0     C77381   8.257   7.838   1.922 -1.1011 -0.0124  0.3753
  574MOL0     C77382   8.231   7.876   1.793 -0.7905  0.6367 -0.4560
  574MOL0     C77383   8.233   7.758   1.689  0.8119  0.6155 -0.4361
  574MOL0     C77384   8.222   8.017   1.757  0.7148  0.5394 -0.1020
  574MOL0     C77385   8.165   8.063   1.623 -0.2053 -0.1205 -0.6973
  574MOL0     O77386   8.069   7.978   1.570  0.1251  0.4376 -0.5278
  574MOL0     C77387   8.020   8.012   1.451  0.1450 -0.5383  0.2039
  574MOL0     C77388   7.889   8.039   1.438  0.6959  1.1388  0.2444
  574MOL0     C77389   7.820   8.078   1.327 -0.3576  0.3756 -0.7455
  574MOL0     C77390   7.895   8.095   1.210 -0.3940  0.8809  0.2222
  574MOL0     O77391   7.834   8.160   1.103  0.2544  0.5817 -0.3709
  574MOL0     C77392   7.878   8.148   0.965 -0.5836 -0.3073  0.4123
  574MOL0     C77393   7.790   8.046   0.888  0.4101 -1.0086  0.2129
  574MOL0     C77394   7.749   8.083   0.738  0.3440  0.4521 -0.9617
  574MOL0     C77395   7.861   8.069   0.632 -1.0385  0.6613 -0.4971
  574MOL0     C77396   7.822   8.056   0.483  0.2378  0.5129 -0.1015
  574MOL0     C77397   7.800   8.182   0.411  0.6187 -1.1714  0.2742
  574MOL0     C77398   7.721   8.305   0.479  0.4130 -0.8218 -0.0415
  574MOL0     C77399   7.693   8.419   0.369 -0.1000 -0.0957  0.0078
  574MOL0    Cl77400   7.595   8.347   0.243 -0.1650  0.5007  0.0877
  574MOL0     C77401   8.034   8.066   1.211  0.0034 -0.6478 -0.6832
  574MOL0     C77402   8.089   8.015   1.331  0.2240 -0.0618 -0.1750
  574MOL0     O77403   8.211   8.166   1.582  0.1324 -0.7083  0.6467
  574MOL0     C77404   8.247   8.107   1.866  0.4509  0.7560  0.3596
  574MOL0     C77405   8.284   8.058   1.992  0.0138 -0.1412 -0.9052
  574MOL0     N77406   8.566   7.422   2.363 -0.6911  0.6550  0.1768
  574MOL0     N77407   8.684   7.383   2.385 -0.4423 -0.1659 -0.3577
  574MOL0     C77408   9.906   8.078   2.639  0.2547  0.1185  0.6007
  574MOL0     C77409   9.987   8.134   2.729  0.3628 -0.8888 -0.4993
  574MOL0     C77410  10.130   8.446   3.016  0.0153 -0.7955 -0.4269
  574MOL0     C77411  10.176   8.574   2.980  0.1731  1.2361 -0.4301
  574MOL0     C77412  10.257   8.648   3.063 -0.1023  0.0161  0.2414
  574MOL0     C77413  10.302   8.586   3.185  0.5845 -0.1729  0.5811
  574MOL0     O77414  10.392   8.640   3.267 -0.3856  0.2149  0.1717
  574MOL0     C77415  10.464   8.752   3.236 -1.1340 -0.6956  1.1692
  574MOL0     C77416  10.566   8.788   3.343 -0.0841  0.0562  0.3314
  574MOL0     C77417  10.516   8.778   3.488  0.0720 -0.2039 -0.3643
  574MOL0     C77418  10.635   8.807   3.581 -0.2268 -0.2042  0.5866
  574MOL0     C77419  10.600   8.749   3.714 -1.3916  0.5874 -0.1117
  574MOL0     C77420  10.558   8.718   3.823 -0.9484 -1.3306 -0.3432
  574MOL0     C77421  10.257   8.453   3.217 -0.1764 -0.8629  0.0825
  574MOL0     C77422  10.174   8.388   3.134  0.1452  0.0721  0.6409
  574MOL0     H77423   9.769   8.188   2.984 -0.0477 -0.3097  0.9416
  574MOL0     H77424   9.618   8.105   2.830 -0.0710 -2.5562  1.5806
  574MOL0     H77425   9.535   7.966   2.675 -0.6751 -0.7838 -0.1252
  574MOL0     H77426   9.515   8.088   2.542 -0.2236 -0.7042 -0.0706
  574MOL0     H77427   9.541   7.917   2.387  1.4464  4.0523  1.5681
  574MOL0     H77428   9.549   7.791   2.507 -0.1788 -0.5289 -2.7190
  574MOL0     H77429   9.318   7.873   2.582 -1.1906 -0.3727 -0.5465
  574MOL0     H77430   9.318   7.963   2.426 -0.4374 -0.1457  0.0648
  574MOL0     H77431   9.364   7.759   2.291 -2.5029 -1.1673 -1.3739
  574MOL0     H77432   9.376   7.652   2.435  2.2874  0.8553 -2.0404
  574MOL0     H77433   9.145   7.705   2.505 -2.1287  0.3442 -1.1088
  574MOL0     H77434   9.137   7.797   2.356  1.1935  1.3385  0.3593
  574MOL0     H77435   9.166   7.601   2.232 -3.0872  2.5175 -0.3454
  574MOL0     H77436   9.167   7.488   2.374 -0.5658  0.5423  2.6724
  574MOL0     H77437   8.960   7.690   2.335  2.7096  1.6116 -2.5723
  574MOL0     H77438   8.941   7.549   2.226  3.0751 -1.0415  0.4359
  574MOL0     H77439   8.945   7.540   2.519  2.9147 -0.1888 -1.5644
  574MOL0     H77440   8.943   7.393   2.418  2.2352  1.5651  1.6259
  574MOL0     H77441   8.725   7.714   2.425 -0.8965  2.4024 -3.0444
  574MOL0     H77442   8.445   7.663   2.238  2.6560 -1.2752  0.5093
  574MOL0     H77443   8.344   7.566   2.345 -1.4662  2.5330  3.8853
  574MOL0     H77444   8.494   7.816   2.429 -0.1117 -1.4940 -0.0872
  574MOL0     H77445   8.386   7.715   2.525  1.1773 -0.3615  0.3511
  574MOL0     H77446   8.259   7.934   2.444  2.7720  0.3547 -0.0194
  574MOL0     H77447   8.194   7.788   2.371 -0.7904  0.8108 -1.7401
  574MOL0     H77448   8.386   7.996   2.284 -1.3515  1.6644  0.0828
  574MOL0     H77449   8.205   7.986   2.240 -1.1396 -1.2352  2.7069
  574MOL0     H77450   8.257   7.733   1.949 -1.5224  0.6685  3.3631
  574MOL0     H77451   8.278   7.667   1.730 -1.8204 -0.5587  0.0008
  574MOL0     H77452   8.128   7.738   1.667  0.3891 -0.6619  2.3382
  574MOL0     H77453   8.282   7.776   1.592 -0.6848 -2.8214 -1.9803
  574MOL0     H77454   7.831   8.027   1.529 -1.4030 -0.8689 -1.2419
  574MOL0     H77455   7.718   8.115   1.327  0.1203  1.7591 -0.3052
  574MOL0     H77456   7.849   8.247   0.928 -2.5177 -0.0599  2.4040
  574MOL0     H77457   7.986   8.135   0.949 -0.4619  2.7794 -2.5820
  574MOL0     H77458   7.851   7.955   0.885 -1.1603 -2.1706  1.5815
  574MOL0     H77459   7.710   8.020   0.958  1.6352  1.3958  2.7064
  574MOL0     H77460   7.704   8.182   0.738 -1.3820 -0.2910 -0.8522
  574MOL0     H77461   7.670   8.013   0.709  0.0857  1.3151 -2.3943
  574MOL0     H77462   7.925   8.157   0.634 -0.4729  0.2536 -0.5127
  574MOL0     H77463   7.922   7.984   0.663 -3.1724 -0.1762  1.6609
  574MOL0     H77464   7.736   7.988   0.483 -0.3864  1.2800 -0.1850
  574MOL0     H77465   7.903   8.007   0.429 -0.0640 -3.9527  2.9898
  574MOL0     H77466   7.896   8.229   0.386  1.0702  0.8326  4.7764
  574MOL0     H77467   7.748   8.163   0.317  0.1625  1.4698 -0.0950
  574MOL0     H77468   7.778   8.351   0.560 -0.2751 -0.7877  0.4294
  574MOL0     H77469   7.628   8.259   0.514  0.2054  2.0998  3.8302
  574MOL0     H77470   7.780   8.461   0.318  0.5401  3.6999  3.6371
  574MOL0     H77471   7.637   8.500   0.418 -0.9727  0.5121 -1.8743
  574MOL0     H77472   8.105   8.091   1.133 -1.9220  0.4099 -2.2209
  574MOL0     H77473   8.194   7.993   1.342  0.2358  0.3836  0.6227
  574MOL0     H77474   8.244   8.214   1.851  0.4963  0.8794  1.1719
  574MOL0     H77475   8.304   8.133   2.068  2.5598  0.6056 -2.1774
  574MOL0     H77476   9.939   8.042   2.542 -1.5144 -2.3569  0.8067
  574MOL0     H77477  10.091   8.147   2.697  0.1694  3.0357 -0.0375
  574MOL0     H77478  10.144   8.628   2.891 -0.7576  1.3124 -0.0640
  574MOL0     H77479  10.273   8.752   3.037 -1.2834  0.3327  0.7026
  574MOL0     H77480  10.517   8.738   3.141 -2.4654  3.8799 -0.5642
  574MOL0     H77481  10.398   8.839   3.223  0.0430 -0.0879 -1.3603
  574MOL0     H77482  10.586   8.896   3.340  0.5364 -0.0324  0.9680
  574MOL0     H77483  10.660   8.739   3.317  1.6883  1.8387  2.8911
  574MOL0     H77484  10.468   8.682   3.508  2.8472 -1.3910  1.0284
  574MOL0     H77485  10.441   8.857   3.500 -0.4795 -0.4363 -2.0284
  574MOL0     H77486  10.654   8.915   3.574  1.8245 -0.5723 -0.2968
  574MOL0     H77487  10.721   8.747   3.550 -0.9549 -0.7228 -0.4889
  574MOL0     H77488  10.512   8.696   3.917  0.7833  0.5907  1.0382
  574MOL0     H77489  10.293   8.417   3.312 -1.5548  0.1429  1.0228
  574MOL0     H77490  10.149   8.286   3.163 -1.1825  0.4670  0.9613
  575MOL0     O77491   3.920   5.194   4.015  0.3060 -0.6968 -0.3137
  575MOL0     C77492   3.880   5.255   3.917  0.1531  0.5238 -0.2485
  575MOL0     O77493   3.752   5.300   3.901  0.2436 -0.4244 -0.1620
  575MOL0     C77494   3.664   5.271   4.004 -0.1051 -0.2323  0.7285
  575MOL0     C77495   3.639   5.142   4.049  0.4482 -0.4388 -0.3124
  575MOL0     C77496   3.558   5.118   4.161 -0.1938  0.4820 -0.1356
  575MOL0     C77497   3.495   5.221   4.223  0.3088  0.7168  0.3978
  575MOL0     O77498   3.401   5.198   4.323  0.0768 -0.3399 -0.3734
  575MOL0     C77499   3.314   5.087   4.313 -0.1380 -0.5884  0.0909
  575MOL0     C77500   3.198   5.102   4.414 -0.1003  0.9927  0.8987
  575MOL0     C77501   3.103   4.974   4.419 -0.6347  0.6411 -0.2880
  575MOL0     C77502   2.991   4.983   4.325  0.5694 -0.2708  0.0274
  575MOL0     C77503   2.887   4.879   4.358  0.5320  0.0098 -0.4691
  575MOL0     C77504   2.752   4.927   4.302 -0.1936 -0.8000  0.3592
  575MOL0     C77505   2.638   4.842   4.344  0.1142 -0.1067  0.1232
  575MOL0     C77506   2.617   4.851   4.490 -0.3397  0.4898 -0.4345
  575MOL0     N77507   2.499   4.781   4.525  0.2200  1.0918  0.2691
  575MOL0     C77508   2.466   4.698   4.629 -0.3866 -0.0193 -0.5631
  575MOL0     C77509   2.330   4.670   4.627  0.4721 -1.0388 -0.0948
  575MOL0     C77510   2.250   4.598   4.731  0.3126  0.7521 -0.3457
  575MOL0     C77511   2.113   4.549   4.697 -0.6608 -0.4156  0.3192
  575MOL0     C77512   2.083   4.405   4.750 -0.8795  0.1507 -0.0701
  575MOL0     C77513   2.051   4.395   4.898  0.8666 -0.5425 -0.4959
  575MOL0     O77514   2.079   4.261   4.943  0.1700 -0.4159  0.6252
  575MOL0     C77515   1.987   4.165   4.916 -0.6318  0.3473  1.0512
  575MOL0     C77516   2.036   4.072   4.821  0.1392  0.3701  0.0123
  575MOL0     C77517   1.962   3.964   4.774  0.0942 -0.1457  0.2810
  575MOL0     C77518   2.025   3.880   4.660  0.8662 -0.5928  0.7858
  575MOL0     C77519   1.843   3.937   4.839  0.4993  0.2848 -0.1044
  575MOL0     C77520   1.773   3.808   4.813  0.0368 -0.5884  0.1599
  575MOL0     O77521   1.640   3.808   4.863 -0.4186  0.3882 -0.1416
  575MOL0     C77522   1.549   3.705   4.844  0.5933 -0.5268  0.2114
  575MOL0     C77523   1.422   3.749   4.812  0.6994  0.2397 -0.3673
  575MOL0     C77524   1.318   3.662   4.798 -0.5645 -0.0325 -0.0214
  575MOL0     C77525   1.337   3.530   4.832  0.0395 -0.3911 -0.5599
  575MOL0     O77526   1.227   3.448   4.823 -0.3053 -0.0983  0.1207
  575MOL0     C77527   1.216   3.340   4.915  1.2441 -0.2684 -0.3480
  575MOL0     C77528   1.057   3.318   4.929  0.1100  0.2191 -0.2070
  575MOL0     C77529   1.030   3.207   5.023 -0.2811 -0.4881  0.1368
  575MOL0     C77530   0.875   3.214   5.053 -0.7013  0.4763 -0.3584
  575MOL0     C77531   0.843   3.091   5.137  0.1540  0.3691 -0.3650
  575MOL0     C77532   0.809   2.978   5.050  0.2292  0.7042  0.4551
  575MOL0     C77533   0.727   2.876   5.131 -0.1742 -0.2045 -0.2973
  575MOL0     C77534   0.587   2.876   5.090  0.1553 -0.4461 -0.2981
  575MOL0    Cl77535   0.484   2.768   5.185 -0.7095  0.1751 -0.2938
  575MOL0     C77536   1.459   3.492   4.889  0.5055 -0.8068  0.3290
  575MOL0     C77537   1.567   3.583   4.890  0.2288  0.2523 -0.8619
  575MOL0     O77538   1.832   3.702   4.774 -0.3020  0.7842 -0.1924
  575MOL0     C77539   1.784   4.043   4.917 -0.8407 -0.0801 -0.6450
  575MOL0     C77540   1.859   4.156   4.959  0.1524  0.2891 -0.3030
  575MOL0     N77541   2.281   4.753   4.528  0.1347  0.3792  0.5143
  575MOL0     N77542   2.378   4.818   4.478 -0.4687  0.2832  0.0742
  575MOL0     C77543   3.507   5.344   4.177  0.2071  0.6631  0.3477
  575MOL0     C77544   3.594   5.375   4.068  0.3558 -0.1840 -0.1714
  575MOL0     C77545   3.972   5.263   3.799 -0.8892  0.6912 -0.0068
  575MOL0     C77546   4.094   5.198   3.809  0.0119  0.1633 -0.1390
  575MOL0     C77547   4.190   5.211   3.713 -0.7618 -0.8449  0.6653
  575MOL0     C77548   4.163   5.285   3.600  0.4432 -0.2615 -0.5589
  575MOL0     O77549   4.271   5.298   3.519 -0.9276 -0.1313 -0.3055
  575MOL0     C77550   4.287   5.414   3.431 -0.4422 -0.2207  0.5947
  575MOL0     C77551   4.310   5.543   3.512  0.0301 -0.2952 -0.2052
  575MOL0     C77552   4.422   5.529   3.616  0.3970  0.6410 -0.1587
  575MOL0     C77553   4.557   5.527   3.549 -0.6199  0.3038 -0.2847
  575MOL0     C77554   4.600   5.662   3.503 -0.0037  0.2739 -0.4790
  575MOL0     C77555   4.632   5.771   3.465  0.4930 -0.2415 -0.0908
  575MOL0     C77556   4.036   5.349   3.583  0.0892  0.1422  0.0337
  575MOL0     C77557   3.933   5.338   3.684  0.1415  0.4341 -0.3755
  575MOL0     H77558   3.674   5.054   3.996  0.6568 -1.3958  1.3561
  575MOL0     H77559   3.546   5.013   4.186  0.1458 -0.0622 -2.0729
  575MOL0     H77560   3.269   5.083   4.213 -0.2240  0.2323  0.0897
  575MOL0     H77561   3.365   4.993   4.336  3.6888  1.5200  0.9006
  575MOL0     H77562   3.235   5.119   4.516  0.5375 -1.5573  1.1620
  575MOL0     H77563   3.147   5.195   4.389 -0.2000  0.6837 -0.0752
  575MOL0     H77564   3.161   4.885   4.393  1.2523  1.5525  0.5444
  575MOL0     H77565   3.072   4.965   4.524 -0.2763 -2.3108 -0.3650
  575MOL0     H77566   2.953   5.082   4.349  0.0195  0.0042 -1.8711
  575MOL0     H77567   3.022   4.983   4.220  1.1681  0.9585  0.1835
  575MOL0     H77568   2.919   4.791   4.301 -1.6380 -2.8083  2.3327
  575MOL0     H77569   2.885   4.853   4.464  0.9784 -1.7320 -0.8635
  575MOL0     H77570   2.734   5.032   4.327 -1.1601 -0.4539 -1.5620
  575MOL0     H77571   2.764   4.918   4.193 -0.3027 -3.0302  0.4908
  575MOL0     H77572   2.548   4.868   4.289  1.0334 -1.1534 -2.0199
  575MOL0     H77573   2.664   4.740   4.313  0.3112  0.8482 -3.3365
  575MOL0     H77574   2.607   4.955   4.522 -0.7695  0.9609 -2.0362
  575MOL0     H77575   2.703   4.800   4.535 -0.6760 -0.9067 -1.2967
  575MOL0     H77576   2.535   4.650   4.697  1.8077  0.7807 -2.1033
  575MOL0     H77577   2.307   4.515   4.775 -0.4847 -0.8689 -2.1972
  575MOL0     H77578   2.234   4.671   4.811  2.9481  0.2650  0.7386
  575MOL0     H77579   2.104   4.556   4.588  1.9137 -1.0958 -0.0163
  575MOL0     H77580   2.040   4.622   4.731 -0.1436 -0.2693  1.1520
  575MOL0     H77581   2.166   4.338   4.728  0.5503  2.3476 -1.8364
  575MOL0     H77582   1.992   4.375   4.697 -1.0315  0.8208 -0.2014
  575MOL0     H77583   1.945   4.413   4.914  1.1374 -0.9642  2.0759
  575MOL0     H77584   2.108   4.456   4.968  1.7365 -1.6290 -0.2327
  575MOL0     H77585   2.132   4.090   4.774  0.5498  0.1626  0.7649
  575MOL0     H77586   2.063   3.787   4.705 -1.2929 -3.3359 -2.5020
  575MOL0     H77587   1.945   3.854   4.590  3.3551 -0.1462 -2.5111
  575MOL0     H77588   2.107   3.932   4.610 -0.4412  0.7004 -0.0817
  575MOL0     H77589   1.397   3.852   4.787 -2.6087 -0.8006 -1.9754
  575MOL0     H77590   1.215   3.680   4.766 -0.3771 -0.5914 -0.9908
  575MOL0     H77591   1.267   3.256   4.867 -1.2854 -2.1444  0.0143
  575MOL0     H77592   1.244   3.346   5.020  0.9523  2.8581 -0.3622
  575MOL0     H77593   1.015   3.412   4.965  0.6855  0.2103  0.5166
  575MOL0     H77594   1.004   3.296   4.836  2.9701  1.4079 -2.2633
  575MOL0     H77595   1.086   3.217   5.117 -1.3830  3.2941  0.5501
  575MOL0     H77596   1.062   3.115   4.973  0.3677  0.9078 -2.1535
  575MOL0     H77597   0.844   3.304   5.106 -0.0622  0.0029  0.8535
  575MOL0     H77598   0.821   3.216   4.957 -1.8337 -2.3990  0.1008
  575MOL0     H77599   0.765   3.119   5.209  1.4900 -0.5806  1.5325
  575MOL0     H77600   0.934   3.071   5.194  0.2147  0.2726 -0.4965
  575MOL0     H77601   0.758   3.002   4.957  0.2887 -3.2426 -0.7969
  575MOL0     H77602   0.907   2.944   5.015  0.1108  0.5762  0.2476
  575MOL0     H77603   0.730   2.890   5.239  2.5288  0.3349 -0.3886
  575MOL0     H77604   0.770   2.780   5.102  1.5303  0.7517 -1.0719
  575MOL0     H77605   0.586   2.846   4.984  0.1507  1.9896 -1.0517
  575MOL0     H77606   0.561   2.979   5.116  1.1467 -0.4837  0.9262
  575MOL0     H77607   1.482   3.393   4.927 -0.3478 -1.5760 -1.0519
  575MOL0     H77608   1.664   3.558   4.932  0.8924  0.7056 -2.0932
  575MOL0     H77609   1.680   4.035   4.945 -0.4172 -1.0697  0.7281
  575MOL0     H77610   1.822   4.228   5.032 -1.3333 -0.1815 -0.5621
  575MOL0     H77611   3.455   5.421   4.232 -2.5985 -0.7869 -0.1127
  575MOL0     H77612   3.597   5.472   4.018 -0.2564  0.4821  1.0296
  575MOL0     H77613   4.123   5.153   3.903  0.6955 -0.8160 -0.8111
  575MOL0     H77614   4.288   5.170   3.738  0.6895  2.3554  0.7770
  575MOL0     H77615   4.369   5.398   3.359  0.3195  0.9578  1.1678
  575MOL0     H77616   4.197   5.423   3.370 -0.2089  1.4851  0.4677
  575MOL0     H77617   4.218   5.577   3.560 -1.9423 -1.9964 -2.5384
  575MOL0     H77618   4.352   5.613   3.440  2.3443 -3.3897 -2.1272
  575MOL0     H77619   4.400   5.446   3.684  0.7559  1.9363  1.6160
  575MOL0     H77620   4.418   5.618   3.680  3.3155 -0.0110  1.0588
  575MOL0     H77621   4.567   5.453   3.469  1.1205  0.2299 -0.0312
  575MOL0     H77622   4.633   5.495   3.620 -3.1082  1.1360  3.0236
  575MOL0     H77623   4.671   5.868   3.443  3.6700 -1.4228 -0.3167
  575MOL0     H77624   4.022   5.394   3.485  1.4258  1.0645  0.2374
  575MOL0     H77625   3.835   5.384   3.681  0.7856  1.9534  0.8092
  576MOL0     O77626   1.714   4.823   7.030 -0.7643  0.2097 -0.5799
  576MOL0     C77627   1.703   4.893   6.933 -0.5014 -0.9600  0.2601
  576MOL0     O77628   1.795   4.990   6.892  0.2105  0.1352 -0.0800
  576MOL0     C77629   1.917   5.012   6.945  0.8028 -0.2946  0.0191
  576MOL0     C77630   2.024   5.051   6.863 -0.2426 -0.6531 -0.3187
  576MOL0     C77631   2.143   5.105   6.916 -0.1926 -0.3492  0.5862
  576MOL0     C77632   2.173   5.106   7.057  0.6814  0.6172 -0.5295
  576MOL0     O77633   2.291   5.151   7.116  0.8840 -0.0900 -0.0158
  576MOL0     C77634   2.280   5.260   7.214  1.1146  0.7777 -0.5813
  576MOL0     C77635   2.399   5.262   7.304  0.3161  0.2185  0.6555
  576MOL0     C77636   2.532   5.320   7.242 -0.8562  0.5748  0.9754
  576MOL0     C77637   2.655   5.321   7.346 -0.7434 -0.2677 -0.1794
  576MOL0     C77638   2.763   5.410   7.283 -0.3678 -0.0082 -0.0898
  576MOL0     C77639   2.858   5.326   7.193 -0.3873  0.8230  0.3303
  576MOL0     C77640   2.983   5.408   7.155 -0.0656 -0.4684 -0.0189
  576MOL0     C77641   2.962   5.521   7.048 -0.5408  0.0161 -0.4835
  576MOL0     N77642   3.088   5.599   7.022  0.3055  0.2758  0.8044
  576MOL0     C77643   3.215   5.548   6.992  0.0097  0.0560 -0.6393
  576MOL0     C77644   3.292   5.654   7.014  0.8216 -0.4651 -0.7746
  576MOL0     C77645   3.435   5.663   6.987 -0.8019 -0.4936  0.0323
  576MOL0     C77646   3.455   5.720   6.844 -1.0939 -0.0806 -0.0752
  576MOL0     C77647   3.429   5.868   6.840  0.5375  0.2103 -0.0886
  576MOL0     C77648   3.409   5.928   6.702 -0.4226 -0.5601 -0.8526
  576MOL0     O77649   3.512   5.885   6.617  0.5614  1.0873  0.3074
  576MOL0     C77650   3.512   5.921   6.482  0.0254 -1.1837 -0.0534
  576MOL0     C77651   3.618   5.885   6.404  0.0202  0.5570  0.0522
  576MOL0     C77652   3.619   5.914   6.264 -0.3169 -0.3797 -0.0213
  576MOL0     C77653   3.740   5.866   6.188  0.1274 -0.5388  0.3376
  576MOL0     C77654   3.510   5.975   6.204  0.4931 -1.0229 -0.5254
  576MOL0     C77655   3.490   6.007   6.063 -0.8934  0.6568  0.0149
  576MOL0     O77656   3.359   6.022   6.016  0.1268  0.0197 -0.1533
  576MOL0     C77657   3.335   6.042   5.878  0.2923 -0.4878  0.5788
  576MOL0     C77658   3.256   5.965   5.801  0.2784 -0.3367  1.2532
  576MOL0     C77659   3.244   5.975   5.663  0.0985 -0.3840  0.0437
  576MOL0     C77660   3.301   6.088   5.604 -0.4407 -0.2286  0.5915
  576MOL0     O77661   3.302   6.103   5.469 -0.4943  0.4099  0.0006
  576MOL0     C77662   3.305   5.990   5.372  1.1321  0.6357  0.0446
  576MOL0     C77663   3.362   6.025   5.241 -0.2923  0.3440 -0.1201
  576MOL0     C77664   3.516   6.065   5.262  0.8120 -0.8386  0.4831
  576MOL0     C77665   3.574   6.093   5.121  0.8967  0.0236 -0.7433
  576MOL0     C77666   3.720   6.149   5.118  0.1715 -0.6130  0.4947
  576MOL0     C77667   3.753   6.278   5.211  0.1477  0.7095 -0.4634
  576MOL0     C77668   3.902   6.312   5.181  0.3541  0.3555 -0.0474
  576MOL0     C77669   3.968   6.408   5.277  1.0159 -0.2769  0.1214
  576MOL0    Cl77670   3.907   6.565   5.234 -0.2357 -0.1490 -0.1628
  576MOL0     C77671   3.365   6.187   5.683 -0.1954 -0.0781 -1.1925
  576MOL0     C77672   3.384   6.157   5.823  0.4349 -0.0083  0.4797
  576MOL0     O77673   3.593   6.028   5.996  0.6195  0.1339 -0.2612
  576MOL0     C77674   3.399   6.009   6.288  0.0907  0.2469 -0.1804
  576MOL0     C77675   3.402   5.988   6.423  0.3402 -0.1670 -0.0313
  576MOL0     N77676   3.213   5.769   7.053 -0.0350  0.1148  0.3322
  576MOL0     N77677   3.094   5.733   7.053 -0.1755 -0.2694 -0.1567
  576MOL0     C77678   2.066   5.060   7.138  0.3138 -0.1157 -0.6207
  576MOL0     C77679   1.943   5.015   7.087 -0.3626 -0.5621  0.9705
  576MOL0     C77680   1.580   4.894   6.851  0.7453  0.3262  0.0786
  576MOL0     C77681   1.581   4.968   6.733 -1.4247  0.1892 -0.4404
  576MOL0     C77682   1.466   4.999   6.659  0.0118  0.4910 -0.0239
  576MOL0     C77683   1.349   4.929   6.696 -0.4905 -0.6979  0.3998
  576MOL0     O77684   1.242   4.950   6.614 -0.2182  0.2080 -0.0069
  576MOL0     C77685   1.116   4.910   6.663 -0.4867 -0.6404  0.0827
  576MOL0     C77686   1.036   4.909   6.531  0.6724 -0.2723 -0.1562
  576MOL0     C77687   0.888   4.849   6.548  0.1690 -0.3985  0.0086
  576MOL0     C77688   0.790   4.940   6.623  0.6471  0.1384  0.2432
  576MOL0     C77689   0.666   4.872   6.650 -0.8343  0.0380  1.1620
  576MOL0     C77690   0.564   4.811   6.652  0.8200 -0.0252 -0.5478
  576MOL0     C77691   1.351   4.842   6.816 -0.3731  0.6211  0.7378
  576MOL0     C77692   1.467   4.823   6.887  0.1268 -0.1802  1.1390
  576MOL0     H77693   2.002   5.051   6.757 -1.5211  1.5980 -0.1193
  576MOL0     H77694   2.221   5.142   6.852 -1.5354  0.5451 -0.6000
  576MOL0     H77695   2.250   5.355   7.170 -1.8493  0.2212  0.0131
  576MOL0     H77696   2.191   5.234   7.273  0.2967  2.6668 -0.9068
  576MOL0     H77697   2.368   5.326   7.387  0.1959  2.6127 -1.1403
  576MOL0     H77698   2.430   5.166   7.347  2.7610  0.5602 -0.1614
  576MOL0     H77699   2.563   5.250   7.163 -2.1430 -0.4876  1.3786
  576MOL0     H77700   2.510   5.420   7.203  2.0863  0.6998 -0.7274
  576MOL0     H77701   2.625   5.347   7.448 -1.4035 -0.5267 -0.2991
  576MOL0     H77702   2.691   5.219   7.365 -2.1931 -0.7320  0.2520
  576MOL0     H77703   2.714   5.494   7.234 -2.1813 -1.7098 -1.3587
  576MOL0     H77704   2.825   5.452   7.363  1.1281 -0.8870 -0.7507
  576MOL0     H77705   2.897   5.237   7.243 -1.7345 -1.4008 -2.2497
  576MOL0     H77706   2.810   5.292   7.100 -1.0277 -1.8917  1.5516
  576MOL0     H77707   3.014   5.450   7.251  2.2568  0.1630 -0.9689
  576MOL0     H77708   3.049   5.335   7.107 -0.9121 -0.6231 -0.9654
  576MOL0     H77709   2.879   5.584   7.082  0.8855  0.5804  2.1623
  576MOL0     H77710   2.936   5.460   6.960  0.4175 -0.8035 -0.2227
  576MOL0     H77711   3.224   5.443   6.966 -1.1580  0.3926 -2.6232
  576MOL0     H77712   3.484   5.719   7.067  0.6542 -1.7426  0.0585
  576MOL0     H77713   3.478   5.562   6.989 -1.8404 -1.0165 -1.6259
  576MOL0     H77714   3.408   5.677   6.755  2.9584  0.7657 -2.9055
  576MOL0     H77715   3.559   5.708   6.812 -1.2795 -0.3341 -0.5870
  576MOL0     H77716   3.516   5.923   6.879  1.0113 -0.5997  0.0106
  576MOL0     H77717   3.342   5.902   6.896 -0.9032 -0.7710 -1.6371
  576MOL0     H77718   3.407   6.036   6.716  1.2158 -0.8854  2.9320
  576MOL0     H77719   3.311   5.887   6.675 -1.0404  0.7809 -0.6928
  576MOL0     H77720   3.693   5.822   6.450  0.4067  0.9050 -0.0928
  576MOL0     H77721   3.805   5.953   6.174 -0.4854 -0.4410 -2.5402
  576MOL0     H77722   3.779   5.771   6.225 -0.3042 -2.9215 -4.5482
  576MOL0     H77723   3.711   5.840   6.085 -0.1154  0.4448  0.1504
  576MOL0     H77724   3.210   5.876   5.843 -1.7042 -0.5465 -1.1351
  576MOL0     H77725   3.199   5.900   5.599 -0.2679  0.1468 -0.3314
  576MOL0     H77726   3.361   5.910   5.421  0.6939 -1.0012 -1.9519
  576MOL0     H77727   3.201   5.965   5.347  1.1025  0.0511  0.7281
  576MOL0     H77728   3.347   5.940   5.174 -0.0148  1.7454 -2.0387
  576MOL0     H77729   3.316   6.116   5.204  2.5124  1.7842 -0.3682
  576MOL0     H77730   3.577   5.986   5.308  1.0882 -0.3943  0.8898
  576MOL0     H77731   3.527   6.150   5.329  0.0070  1.4531 -2.1364
  576MOL0     H77732   3.555   6.009   5.054  1.0822  0.6114 -1.5535
  576MOL0     H77733   3.514   6.179   5.090  1.0882  1.2406  2.0453
  576MOL0     H77734   3.729   6.177   5.013 -0.1047 -0.4333  0.5197
  576MOL0     H77735   3.800   6.075   5.132  1.6371  0.9194  0.4317
  576MOL0     H77736   3.687   6.363   5.190  1.9755  2.3133  0.0317
  576MOL0     H77737   3.734   6.245   5.314  1.2547 -0.4829 -0.6130
  576MOL0     H77738   3.915   6.353   5.080 -0.0151  0.4849 -0.0425
  576MOL0     H77739   3.956   6.217   5.192 -1.8930 -0.7371  3.1385
  576MOL0     H77740   4.075   6.416   5.259  1.1130 -2.8351 -0.8123
  576MOL0     H77741   3.953   6.390   5.384 -0.5006  3.4405  0.6965
  576MOL0     H77742   3.408   6.279   5.647  1.0723 -0.0429  0.3022
  576MOL0     H77743   3.438   6.232   5.880  1.2548 -0.1743 -0.0601
  576MOL0     H77744   3.312   6.061   6.250  0.0215  1.2697  1.2512
  576MOL0     H77745   3.310   6.005   6.478 -0.1306  1.7847 -1.3349
  576MOL0     H77746   2.082   5.060   7.245  1.3889 -2.3834 -0.7278
  576MOL0     H77747   1.861   4.989   7.153 -0.0075 -0.5666  1.4132
  576MOL0     H77748   1.668   5.027   6.703 -1.6835  0.4608 -0.6565
  576MOL0     H77749   1.480   5.070   6.578  0.2725  1.6753  1.0304
  576MOL0     H77750   1.136   4.808   6.698 -0.7724 -0.2481  1.4229
  576MOL0     H77751   1.077   4.974   6.742  2.3661  1.8610 -0.3278
  576MOL0     H77752   1.086   4.850   6.454 -0.4081 -0.7507 -0.5195
  576MOL0     H77753   1.027   5.008   6.486 -2.6127 -0.2099  0.3991
  576MOL0     H77754   0.897   4.746   6.585  1.0225 -0.1114  0.6384
  576MOL0     H77755   0.853   4.850   6.444 -1.2638  0.3056  0.4829
  576MOL0     H77756   0.772   5.028   6.560  2.4986  1.8827  2.0003
  576MOL0     H77757   0.831   4.971   6.719  1.6562 -1.7452  0.4681
  576MOL0     H77758   0.473   4.754   6.645  1.3151 -0.6871 -2.2161
  576MOL0     H77759   1.263   4.789   6.849  0.2464  0.3108  1.9729
  576MOL0     H77760   1.479   4.749   6.966  2.1398 -3.0326 -1.5867
  577MOL0     O77761  10.039   5.291   4.675 -0.1999 -0.3786  0.3715
  577MOL0     C77762  10.153   5.338   4.661 -0.4249  0.1882 -0.1128
  577MOL0     O77763  10.206   5.403   4.549  0.2308  0.0789 -0.1613
  577MOL0     C77764  10.120   5.413   4.435  0.3147  0.1791  0.5433
  577MOL0     C77765  10.056   5.531   4.390 -0.3108  0.7440 -0.1882
  577MOL0     C77766   9.965   5.524   4.288  0.1637 -0.5715 -0.9148
  577MOL0     C77767   9.931   5.401   4.225 -0.2925  0.6843 -0.2347
  577MOL0     O77768   9.852   5.402   4.120 -0.1073  0.8617  0.6622
  577MOL0     C77769   9.866   5.305   4.015  0.2875 -0.3086 -0.8256
  577MOL0     C77770   9.784   5.372   3.900  0.2730 -0.4846 -0.5159
  577MOL0     C77771   9.788   5.295   3.767  0.3939 -0.2235 -0.2346
  577MOL0     C77772   9.691   5.334   3.655  0.2417  0.1859 -0.3804
  577MOL0     C77773   9.764   5.421   3.551 -0.2613 -0.0874 -0.2353
  577MOL0     C77774   9.665   5.424   3.426 -1.3575 -0.6051 -0.7148
  577MOL0     C77775   9.708   5.529   3.324 -0.6081 -0.6704  0.2351
  577MOL0     C77776   9.588   5.615   3.275 -0.7442  0.4838  0.1928
  577MOL0     N77777   9.522   5.702   3.370 -0.0815  0.0905  0.4875
  577MOL0     C77778   9.504   5.684   3.505  0.6639  0.3970  0.2513
  577MOL0     C77779   9.428   5.789   3.557 -0.2253  0.3581  0.2175
  577MOL0     C77780   9.378   5.811   3.697  0.9110 -0.4877 -0.0272
  577MOL0     C77781   9.492   5.851   3.789  0.1348  0.0223  0.5536
  577MOL0     C77782   9.577   5.735   3.845  0.8300 -0.4158  0.2144
  577MOL0     C77783   9.676   5.803   3.939 -0.2868  0.0991  0.7657
  577MOL0     O77784   9.690   5.724   4.058  0.6469 -0.0419 -0.1682
  577MOL0     C77785   9.609   5.759   4.167  0.3162 -0.9541  0.2354
  577MOL0     C77786   9.616   5.661   4.267 -0.3918  0.1364  0.5980
  577MOL0     C77787   9.568   5.683   4.393 -0.0876  0.1629  0.2833
  577MOL0     C77788   9.584   5.576   4.499 -0.0160  0.4596 -0.6350
  577MOL0     C77789   9.512   5.805   4.421 -0.4754 -0.2923  1.1095
  577MOL0     C77790   9.480   5.855   4.556  0.1837  0.0356  0.0672
  577MOL0     O77791   9.494   5.996   4.582  0.3447 -0.4727  0.0553
  577MOL0     C77792   9.430   6.032   4.697 -0.4679 -0.5283  0.1418
  577MOL0     C77793   9.480   5.986   4.815  1.0513 -0.4568 -0.7536
  577MOL0     C77794   9.413   5.995   4.941  0.5240 -0.4850  0.5015
  577MOL0     C77795   9.282   6.054   4.940 -0.2428 -0.3172 -0.4806
  577MOL0     O77796   9.211   6.062   5.063 -0.0756 -0.2176 -0.0231
  577MOL0     C77797   9.097   6.159   5.071  0.8174  0.2574  0.9531
  577MOL0     C77798   9.066   6.146   5.217 -0.7387 -0.8354 -0.4239
  577MOL0     C77799   9.011   6.009   5.255 -0.4659 -0.4311  0.1333
  577MOL0     C77800   8.953   5.993   5.397  0.6896 -0.0141  0.4530
  577MOL0     C77801   8.919   5.843   5.439  0.6643 -0.4213 -0.0180
  577MOL0     C77802   8.823   5.842   5.563 -0.3430  0.1559  0.0212
  577MOL0     C77803   8.782   5.706   5.604 -0.2205 -1.0384  0.3281
  577MOL0     C77804   8.758   5.717   5.757  0.1255 -0.5758  0.2361
  577MOL0    Cl77805   8.652   5.581   5.808 -0.4824  0.2085 -0.1587
  577MOL0     C77806   9.227   6.109   4.823 -0.4492  0.3375  0.3062
  577MOL0     C77807   9.307   6.101   4.702  0.6205  0.1679 -0.2504
  577MOL0     O77808   9.437   5.774   4.640  0.0917  0.3155 -0.1615
  577MOL0     C77809   9.501   5.909   4.317  0.3393  0.5434 -0.7157
  577MOL0     C77810   9.545   5.881   4.194 -1.2490 -0.2252  0.1031
  577MOL0     N77811   9.395   5.863   3.443  0.4604 -0.0574  0.0250
  577MOL0     N77812   9.438   5.811   3.334 -0.3630  0.0590  0.4291
  577MOL0     C77813   9.983   5.282   4.285  0.0840  0.4878  0.5130
  577MOL0     C77814  10.080   5.285   4.386 -0.7075  0.2736  0.2315
  577MOL0     C77815  10.253   5.309   4.757 -0.0011 -0.1792 -0.3257
  577MOL0     C77816  10.225   5.292   4.894 -0.2975  0.4274  0.0684
  577MOL0     C77817  10.325   5.277   4.988  0.0883  0.2245  0.3185
  577MOL0     C77818  10.460   5.267   4.947 -0.6556 -0.8225 -0.9023
  577MOL0     O77819  10.560   5.250   5.044  0.2602 -0.0930 -0.0668
  577MOL0     C77820  10.692   5.295   5.024  0.7595 -0.3228 -1.6162
  577MOL0     C77821  10.794   5.235   5.136 -0.7042 -0.2996 -0.0385
  577MOL0     C77822  10.936   5.303   5.121 -0.2939  0.2447 -0.5260
  577MOL0     C77823  10.948   5.455   5.156  0.2149 -0.2441 -0.1035
  577MOL0     C77824  10.963   5.482   5.301  0.2096  0.6103  0.0583
  577MOL0     C77825  10.984   5.511   5.416 -0.4420 -0.9912  0.6579
  577MOL0     C77826  10.492   5.274   4.810 -0.6938 -0.3824  0.2919
  577MOL0     C77827  10.391   5.298   4.716  1.0225 -1.0195  0.6552
  577MOL0     H77828  10.058   5.621   4.449 -1.5747 -0.0404  1.1112
  577MOL0     H77829   9.913   5.617   4.268  1.0228  0.6378  1.8567
  577MOL0     H77830   9.971   5.287   3.991  0.3518 -1.4352  0.1825
  577MOL0     H77831   9.821   5.210   4.044  0.3574  0.2769  1.4041
  577MOL0     H77832   9.680   5.383   3.930  1.0104 -0.6502  2.3426
  577MOL0     H77833   9.826   5.472   3.884  1.1779 -0.3394  2.2476
  577MOL0     H77834   9.893   5.295   3.737  0.4306 -0.2413 -0.1076
  577MOL0     H77835   9.753   5.195   3.794  0.9659  0.0255  1.5635
  577MOL0     H77836   9.655   5.241   3.611  1.8694 -0.3194 -0.7275
  577MOL0     H77837   9.600   5.381   3.693 -0.2011 -0.5512 -0.5145
  577MOL0     H77838   9.782   5.522   3.591  0.2819 -0.5727  0.7820
  577MOL0     H77839   9.859   5.372   3.529 -0.5363 -0.8628  0.2992
  577MOL0     H77840   9.676   5.327   3.377  1.4578 -1.1532  0.7762
  577MOL0     H77841   9.565   5.434   3.468 -0.4270 -0.5025  1.6166
  577MOL0     H77842   9.776   5.602   3.368  2.4382 -2.0923 -1.8177
  577MOL0     H77843   9.757   5.481   3.239 -1.0400 -1.4699  0.4297
  577MOL0     H77844   9.515   5.536   3.253 -0.2797 -0.1142  0.7438
  577MOL0     H77845   9.618   5.663   3.181  0.1230 -0.3294  0.0312
  577MOL0     H77846   9.523   5.597   3.567  4.2878  1.4909  0.8733
  577MOL0     H77847   9.297   5.885   3.691  1.8320  0.5993  0.5296
  577MOL0     H77848   9.331   5.721   3.738  2.7599 -0.5033  2.2857
  577MOL0     H77849   9.446   5.898   3.877  1.2804 -0.0566  1.2173
  577MOL0     H77850   9.560   5.924   3.745 -0.2996  0.0359 -0.1036
  577MOL0     H77851   9.628   5.668   3.775 -1.4447 -3.0753  0.9081
  577MOL0     H77852   9.509   5.668   3.899  0.1212 -2.2565 -2.7150
  577MOL0     H77853   9.650   5.906   3.962  1.7894  0.8485 -0.0205
  577MOL0     H77854   9.772   5.818   3.889 -0.8475  3.1561  0.4456
  577MOL0     H77855   9.676   5.572   4.252  0.2638  0.6557  0.0913
  577MOL0     H77856   9.643   5.494   4.457 -1.0067 -0.6520  0.0533
  577MOL0     H77857   9.636   5.617   4.586 -2.4234 -0.0049  1.1571
  577MOL0     H77858   9.487   5.543   4.540  0.7554  0.4229  1.2938
  577MOL0     H77859   9.569   5.924   4.820  1.2721 -0.3180 -2.4325
  577MOL0     H77860   9.455   5.962   5.036  2.4857 -1.7685 -0.7397
  577MOL0     H77861   9.123   6.265   5.055  0.1718  0.7992  3.1938
  577MOL0     H77862   9.015   6.130   5.004  0.7547 -1.3999  1.7065
  577MOL0     H77863   9.149   6.168   5.285 -2.7835  1.0841  1.6457
  577MOL0     H77864   8.994   6.222   5.249 -2.2198 -3.1628  2.2313
  577MOL0     H77865   9.099   5.945   5.265  0.3160  0.9044  2.8746
  577MOL0     H77866   8.937   5.971   5.184 -2.3239  2.4699  0.3404
  577MOL0     H77867   9.023   6.037   5.469  3.1601  0.9568 -2.2988
  577MOL0     H77868   8.862   6.054   5.404  1.2920  0.7721  2.1574
  577MOL0     H77869   9.012   5.796   5.471  0.4847  0.1105  1.3510
  577MOL0     H77870   8.884   5.801   5.344 -0.3111 -3.9887  1.7387
  577MOL0     H77871   8.866   5.898   5.646 -0.8841  3.9326 -2.0025
  577MOL0     H77872   8.733   5.901   5.544 -1.1392 -0.7218  0.9336
  577MOL0     H77873   8.848   5.628   5.563 -0.1726 -1.7405  1.6783
  577MOL0     H77874   8.686   5.675   5.562 -0.8479  0.2016  0.8248
  577MOL0     H77875   8.692   5.802   5.776  1.2373  0.3857 -0.0786
  577MOL0     H77876   8.851   5.742   5.809  0.5810 -0.3450 -0.6769
  577MOL0     H77877   9.129   6.153   4.811  0.3293  1.7622 -1.3037
  577MOL0     H77878   9.272   6.150   4.612 -1.2909 -0.4368  0.1186
  577MOL0     H77879   9.469   6.006   4.352 -1.0735 -0.7113  1.7576
  577MOL0     H77880   9.533   5.965   4.126 -2.1584  0.2040  0.7758
  577MOL0     H77881   9.953   5.186   4.243 -0.2586 -0.4787  2.7834
  577MOL0     H77882  10.127   5.196   4.427  0.1770 -0.3721 -1.9902
  577MOL0     H77883  10.119   5.294   4.918 -1.5946 -0.9359 -4.5479
  577MOL0     H77884  10.302   5.270   5.094  1.4625 -1.8175  0.5155
  577MOL0     H77885  10.721   5.256   4.926 -1.6117  1.1823 -3.0200
  577MOL0     H77886  10.699   5.404   5.025  1.7138 -0.3685  0.0009
  577MOL0     H77887  10.797   5.126   5.131 -0.5130 -0.5318  3.2161
  577MOL0     H77888  10.749   5.253   5.234  0.0742 -1.1214  0.4812
  577MOL0     H77889  10.979   5.294   5.021 -0.5623  1.4473 -0.7710
  577MOL0     H77890  11.013   5.252   5.179 -0.2154 -0.1594 -0.9799
  577MOL0     H77891  10.852   5.502   5.132 -1.4364 -2.5145  1.5801
  577MOL0     H77892  11.029   5.503   5.102  0.2881 -2.9202 -2.6506
  577MOL0     H77893  11.000   5.546   5.516 -1.6178 -1.2405  0.9498
  577MOL0     H77894  10.594   5.275   4.773 -1.3627  0.4573 -1.6840
  577MOL0     H77895  10.419   5.304   4.611 -0.4196  2.1053  0.3340
  578MOL0     O77896  10.451   0.892   8.453  0.4967  0.3827 -0.9813
  578MOL0     C77897  10.351   0.829   8.500  0.8088 -0.6333  0.6606
  578MOL0     O77898  10.346   0.710   8.558  0.2128  0.1203 -0.7331
  578MOL0     C77899  10.467   0.646   8.579 -0.5433  1.2754  0.0083
  578MOL0     C77900  10.488   0.524   8.525 -0.5525  0.7325 -0.8088
  578MOL0     C77901  10.601   0.445   8.562 -0.4354 -0.4039  0.7189
  578MOL0     C77902  10.697   0.495   8.658 -0.1645 -0.6404  0.1915
  578MOL0     O77903  10.785   0.405   8.704  0.0097  0.3830 -0.3381
  578MOL0     C77904  10.868   0.465   8.805  1.2284 -0.4157  0.1700
  578MOL0     C77905  10.960   0.369   8.870  0.1780  0.3745  0.3435
  578MOL0     C77906  11.107   0.417   8.852 -0.3536 -0.5266 -0.5641
  578MOL0     C77907  11.208   0.326   8.913  0.1201 -0.0894  0.7579
  578MOL0     C77908  11.296   0.248   8.813 -0.5388  0.0272  0.1591
  578MOL0     C77909  11.403   0.166   8.891  0.9198 -0.1866  0.1868
  578MOL0     C77910  11.485   0.085   8.784  0.0205 -0.4125 -0.2049
  578MOL0     C77911  11.601   0.000   8.848  0.6606 -0.0678 -0.2566
  578MOL0     N77912  11.659  -0.101   8.759  0.2707 -0.0461 -1.3254
  578MOL0     C77913  11.778  -0.079   8.685  0.9825 -0.6960 -0.8133
  578MOL0     C77914  11.779  -0.188   8.600  0.7746  0.0546  0.6451
  578MOL0     C77915  11.880  -0.222   8.484  0.1160 -0.5066  0.8000
  578MOL0     C77916  11.986  -0.316   8.547 -0.6940 -0.5852  0.1882
  578MOL0     C77917  12.075  -0.373   8.441 -0.5070 -1.0376  0.6623
  578MOL0     C77918  12.206  -0.304   8.415  1.0095  0.3046 -0.3431
  578MOL0     O77919  12.264  -0.368   8.303  0.1420 -0.1174  0.3966
  578MOL0     C77920  12.377  -0.307   8.264  0.0580 -0.1375  0.1091
  578MOL0     C77921  12.502  -0.335   8.322  0.1545 -0.4964 -0.3355
  578MOL0     C77922  12.624  -0.280   8.274 -0.1901  1.0409  0.2315
  578MOL0     C77923  12.747  -0.317   8.356  0.5898 -0.7560  0.0158
  578MOL0     C77924  12.624  -0.203   8.152  0.7343 -0.8832 -0.3678
  578MOL0     C77925  12.748  -0.154   8.088  1.3696 -0.1066  0.3146
  578MOL0     O77926  12.726  -0.060   7.984 -0.1943  0.0112  0.3581
  578MOL0     C77927  12.827  -0.034   7.900 -0.3405 -0.0989 -0.0585
  578MOL0     C77928  12.948   0.010   7.952  0.1148 -0.1412  1.1838
  578MOL0     C77929  13.062   0.027   7.872  0.0423  0.0504 -0.6694
  578MOL0     C77930  13.053   0.011   7.730 -0.3014  0.1470 -0.0335
  578MOL0     O77931  13.156   0.014   7.639 -0.0445 -0.3359  0.5668
  578MOL0     C77932  13.287   0.059   7.679  0.7274  0.0727 -0.5118
  578MOL0     C77933  13.377   0.088   7.551  1.1363 -0.3933  0.5890
  578MOL0     C77934  13.485   0.198   7.561 -0.9339  0.4125 -0.6172
  578MOL0     C77935  13.565   0.226   7.430  0.2424 -0.3253  0.8721
  578MOL0     C77936  13.646   0.353   7.457  0.6471 -0.4744  0.1172
  578MOL0     C77937  13.709   0.400   7.314 -0.0980  1.3407 -1.1263
  578MOL0     C77938  13.743   0.547   7.327 -0.3563  0.3153 -0.3776
  578MOL0     C77939  13.811   0.605   7.203 -0.0235  0.1457  0.4213
  578MOL0    Cl77940  13.957   0.511   7.175  0.4576  0.2731  0.3030
  578MOL0     C77941  12.921  -0.025   7.682 -0.2152 -0.2051  0.3079
  578MOL0     C77942  12.810  -0.052   7.760 -0.5208  0.9857  0.2968
  578MOL0     O77943  12.854  -0.212   8.109  0.4605 -0.2654 -0.2552
  578MOL0     C77944  12.494  -0.178   8.092 -0.1195  0.6012  0.1755
  578MOL0     C77945  12.372  -0.224   8.148  0.1268 -0.4729 -1.0744
  578MOL0     N77946  11.670  -0.271   8.639 -0.0254 -0.5524  0.6823
  578MOL0     N77947  11.603  -0.220   8.735  0.0324 -1.1875 -0.0685
  578MOL0     C77948  10.676   0.632   8.706 -0.9661 -0.5242 -0.4315
  578MOL0     C77949  10.562   0.698   8.664 -0.4714  0.0391 -0.2674
  578MOL0     C77950  10.224   0.905   8.495 -0.1902  0.2081 -0.7628
  578MOL0     C77951  10.103   0.852   8.538  0.9929  0.7339  0.4589
  578MOL0     C77952   9.984   0.933   8.546  0.1825 -0.8999  0.1182
  578MOL0     C77953   9.976   1.063   8.492  0.3897  0.8028  0.3375
  578MOL0     O77954   9.873   1.152   8.501 -0.1310 -0.5227  0.3395
  578MOL0     C77955   9.737   1.105   8.522  0.1353  0.4667  0.3282
  578MOL0     C77956   9.635   1.215   8.502  0.1156  0.6023 -0.3728
  578MOL0     C77957   9.614   1.292   8.629 -1.2482  0.0927 -0.4417
  578MOL0     C77958   9.708   1.414   8.629 -0.2772  0.2299 -0.5178
  578MOL0     C77959   9.689   1.485   8.761 -0.0878 -0.2982 -0.9217
  578MOL0     C77960   9.670   1.525   8.876  0.1817 -0.6318 -0.0364
  578MOL0     C77961  10.096   1.112   8.442 -0.1718 -0.3521 -0.7578
  578MOL0     C77962  10.214   1.035   8.443  0.2505 -0.3704  0.3536
  578MOL0     H77963  10.412   0.485   8.458 -1.1272 -0.5319  0.5277
  578MOL0     H77964  10.613   0.339   8.540 -0.6401 -0.2768 -0.0446
  578MOL0     H77965  10.928   0.532   8.743 -0.6957  0.3227 -0.9917
  578MOL0     H77966  10.806   0.500   8.888  1.2586 -0.7376  0.3308
  578MOL0     H77967  10.932   0.370   8.976 -2.5001 -1.1208 -0.2509
  578MOL0     H77968  10.948   0.266   8.836  1.5207 -0.9576  3.4675
  578MOL0     H77969  11.133   0.421   8.745  3.6258  0.2483  0.2801
  578MOL0     H77970  11.113   0.515   8.899 -2.2145 -1.7332  2.4707
  578MOL0     H77971  11.271   0.387   8.978  1.5553 -1.8495  1.0991
  578MOL0     H77972  11.163   0.252   8.981  3.6114 -3.7816 -0.5244
  578MOL0     H77973  11.242   0.184   8.743 -0.2863  1.5692 -1.5103
  578MOL0     H77974  11.351   0.315   8.746 -1.1958 -0.9827 -1.4350
  578MOL0     H77975  11.480   0.225   8.942  0.9067 -1.0291  1.2284
  578MOL0     H77976  11.341   0.099   8.951  1.3285 -0.2760  0.5160
  578MOL0     H77977  11.414   0.029   8.722  1.2389 -2.0466 -0.1968
  578MOL0     H77978  11.547   0.150   8.722  2.6594 -1.6564  0.9570
  578MOL0     H77979  11.556  -0.047   8.936 -1.4331  0.1714 -1.1521
  578MOL0     H77980  11.681   0.066   8.883 -0.7636  0.8615  1.4664
  578MOL0     H77981  11.839   0.010   8.671  0.3961 -0.0798  0.3704
  578MOL0     H77982  11.832  -0.273   8.400 -1.9805  0.0777  1.5747
  578MOL0     H77983  11.932  -0.133   8.448 -1.0413 -0.7978 -1.8393
  578MOL0     H77984  11.933  -0.400   8.594 -1.2179  0.7274  2.0161
  578MOL0     H77985  12.045  -0.272   8.627  0.5984 -1.9304  0.0242
  578MOL0     H77986  12.017  -0.382   8.348 -1.4805 -1.7899  1.3237
  578MOL0     H77987  12.094  -0.479   8.457  2.1141 -0.5543  1.2222
  578MOL0     H77988  12.278  -0.306   8.498  2.4105  1.2690 -1.4955
  578MOL0     H77989  12.188  -0.197   8.397 -0.8411 -0.0544 -0.8062
  578MOL0     H77990  12.501  -0.398   8.410 -2.1893  2.1762  1.7306
  578MOL0     H77991  12.709  -0.325   8.458 -1.1788  3.6086 -0.0814
  578MOL0     H77992  12.785  -0.412   8.317  1.7973  0.2730 -1.4363
  578MOL0     H77993  12.833  -0.250   8.364  1.8915 -2.4895  1.4806
  578MOL0     H77994  12.931   0.029   8.058 -0.2134  2.9034  0.6765
  578MOL0     H77995  13.155   0.053   7.922 -0.4073 -0.4885  0.4770
  578MOL0     H77996  13.262   0.152   7.731  0.3864 -0.0806 -0.3967
  578MOL0     H77997  13.339  -0.005   7.750 -0.4369 -1.2480 -0.8025
  578MOL0     H77998  13.425  -0.000   7.509 -0.0850 -0.6657 -0.2901
  578MOL0     H77999  13.308   0.116   7.471  0.8007  0.7789  1.2563
  578MOL0     H78000  13.550   0.176   7.645  2.7187  2.2546 -2.7142
  578MOL0     H78001  13.418   0.281   7.588  0.7266  1.2860  1.0518
  578MOL0     H78002  13.628   0.140   7.407 -0.6250 -1.8655  3.7403
  578MOL0     H78003  13.495   0.248   7.349 -1.4877  0.0416  2.4051
  578MOL0     H78004  13.726   0.339   7.531  0.1623 -0.5723  0.6344
  578MOL0     H78005  13.581   0.427   7.505 -0.1611 -1.0951 -0.0156
  578MOL0     H78006  13.794   0.332   7.301  0.6712  2.0224  0.0781
  578MOL0     H78007  13.643   0.385   7.229 -0.7793  3.1937 -0.9726
  578MOL0     H78008  13.807   0.554   7.415 -0.8280  1.0952 -0.0803
  578MOL0     H78009  13.648   0.597   7.350 -0.9832 -0.5745 -0.9621
  578MOL0     H78010  13.832   0.710   7.228 -0.9762 -0.2103  3.0139
  578MOL0     H78011  13.751   0.603   7.111 -0.4933  0.8335  0.7003
  578MOL0     H78012  12.897  -0.031   7.576 -2.8731 -0.8420  0.8774
  578MOL0     H78013  12.722  -0.088   7.707  1.4274 -3.9535 -0.1320
  578MOL0     H78014  12.499  -0.118   8.002  0.8877  0.2825  0.0005
  578MOL0     H78015  12.275  -0.197   8.107  0.5262  1.2412 -0.9707
  578MOL0     H78016  10.757   0.671   8.767  2.3669 -5.0777 -1.3370
  578MOL0     H78017  10.536   0.796   8.705  0.1733 -0.3300  1.0729
  578MOL0     H78018  10.077   0.757   8.584 -1.6023  0.7775 -0.7152
  578MOL0     H78019   9.900   0.897   8.604 -0.5496  2.3651  1.3065
  578MOL0     H78020   9.709   1.033   8.445 -1.9442 -0.2369  1.6514
  578MOL0     H78021   9.726   1.056   8.619  1.7532 -0.9739 -0.1636
  578MOL0     H78022   9.540   1.163   8.485 -0.0575 -0.5304  3.2608
  578MOL0     H78023   9.665   1.284   8.422 -0.7426 -0.3302 -1.5414
  578MOL0     H78024   9.648   1.231   8.713  2.7145  0.4391 -1.5984
  578MOL0     H78025   9.509   1.325   8.633 -1.2814 -0.0104 -0.4565
  578MOL0     H78026   9.679   1.484   8.551 -2.7652 -0.3955 -0.2540
  578MOL0     H78027   9.815   1.394   8.629 -0.1292  0.8965 -2.1373
  578MOL0     H78028   9.665   1.577   8.970 -0.8728  3.5642 -2.1824
  578MOL0     H78029  10.105   1.216   8.410  0.2792 -1.0160 -2.9828
  578MOL0     H78030  10.297   1.095   8.407 -0.9590  0.8732 -0.4770
  579MOL0     O78031   3.549   1.044   4.981  0.5421  0.4182  0.2369
  579MOL0     C78032   3.586   1.092   5.087  0.6459  0.2149 -0.6134
  579MOL0     O78033   3.509   1.117   5.188  0.3365 -0.2446 -0.5761
  579MOL0     C78034   3.374   1.081   5.183  0.4926 -0.4213 -0.2390
  579MOL0     C78035   3.324   1.004   5.288 -0.6081  0.0660  0.4403
  579MOL0     C78036   3.189   0.970   5.297 -0.3430 -0.0700  0.3470
  579MOL0     C78037   3.100   1.029   5.217 -0.7706 -0.3294 -0.9285
  579MOL0     O78038   2.965   1.009   5.227  0.1809  0.1697  0.1554
  579MOL0     C78039   2.908   0.953   5.350 -0.8997  0.1635 -0.0519
  579MOL0     C78040   2.755   0.967   5.340 -0.4523  0.2070 -0.2115
  579MOL0     C78041   2.723   1.108   5.349 -0.7684  0.6664  1.1131
  579MOL0     C78042   2.575   1.145   5.353  0.9132 -0.7660  0.5660
  579MOL0     C78043   2.485   1.111   5.234 -0.5755 -0.6888  0.0311
  579MOL0     C78044   2.524   1.179   5.102 -0.6949 -0.0033  0.1788
  579MOL0     C78045   2.410   1.183   5.000 -0.5781 -0.5040  0.6936
  579MOL0     C78046   2.485   1.207   4.866  0.8655 -0.6705  0.1331
  579MOL0     N78047   2.402   1.261   4.753  0.0076  0.0239 -0.1538
  579MOL0     C78048   2.340   1.193   4.660  1.3244  0.1456 -0.0199
  579MOL0     C78049   2.299   1.277   4.561 -0.4942  1.2086  0.2106
  579MOL0     C78050   2.217   1.228   4.445 -0.8826 -0.4849 -0.0595
  579MOL0     C78051   2.287   1.263   4.309  0.2354  0.1035 -0.6113
  579MOL0     C78052   2.333   1.402   4.298 -0.1317  0.2550  0.2467
  579MOL0     C78053   2.225   1.507   4.301 -0.3435  0.2623  0.3802
  579MOL0     O78054   2.114   1.480   4.207 -0.9986 -0.0249 -0.1782
  579MOL0     C78055   2.127   1.509   4.070 -0.9096  1.3719 -0.9156
  579MOL0     C78056   2.007   1.476   3.997 -0.2092 -0.4061 -0.5417
  579MOL0     C78057   1.992   1.500   3.856  0.6822 -1.5913 -1.0636
  579MOL0     C78058   1.862   1.445   3.796 -0.1278  0.4236  0.1912
  579MOL0     C78059   2.099   1.567   3.794  0.1171 -0.1481 -0.2305
  579MOL0     C78060   2.097   1.587   3.652  0.5534  0.1463 -0.4366
  579MOL0     O78061   2.036   1.496   3.575  0.7746 -0.3548  0.2142
  579MOL0     C78062   2.035   1.517   3.443 -0.5591  0.1197  0.1368
  579MOL0     C78063   1.912   1.543   3.385  0.5881  0.3703  0.1967
  579MOL0     C78064   1.890   1.523   3.252 -0.0676  0.4448 -0.2318
  579MOL0     C78065   1.986   1.463   3.168 -0.3204 -0.0667 -0.2883
  579MOL0     O78066   1.948   1.435   3.041  0.4057 -0.0903  0.3051
  579MOL0     C78067   1.952   1.298   3.009  0.5971  0.1286 -0.0322
  579MOL0     C78068   1.818   1.248   2.971 -0.4167 -0.0116  0.6634
  579MOL0     C78069   1.783   1.103   2.931 -1.0103  0.0474  0.0227
  579MOL0     C78070   1.633   1.095   2.885  0.4345  0.1017 -0.1650
  579MOL0     C78071   1.605   0.958   2.832 -0.5501 -0.6111  0.4912
  579MOL0     C78072   1.570   0.855   2.940 -0.4831 -0.7157 -0.1016
  579MOL0     C78073   1.502   0.729   2.882  0.5922  0.2437 -0.4742
  579MOL0     C78074   1.449   0.640   2.997 -0.4009 -0.7168  0.9473
  579MOL0    Cl78075   1.376   0.504   2.923  0.1840 -0.2224 -0.0071
  579MOL0     C78076   2.109   1.439   3.225 -0.4037 -0.0326 -0.3518
  579MOL0     C78077   2.128   1.469   3.362 -0.8099  0.3952  0.4270
  579MOL0     O78078   2.162   1.686   3.609  0.3131 -0.4931  0.1000
  579MOL0     C78079   2.219   1.593   3.867 -0.0711  0.0927 -0.7541
  579MOL0     C78080   2.237   1.568   4.005 -0.4790 -0.5994  0.2506
  579MOL0     N78081   2.334   1.406   4.611  0.3022  0.4390 -0.7662
  579MOL0     N78082   2.382   1.390   4.729 -0.0457  0.2865  0.0368
  579MOL0     C78083   3.139   1.126   5.127 -0.1149 -0.5637 -0.2982
  579MOL0     C78084   3.274   1.152   5.108 -0.2106  1.1133 -0.1472
  579MOL0     C78085   3.732   1.108   5.098  0.0343  0.1939  0.3677
  579MOL0     C78086   3.819   1.070   4.989  0.6981 -0.2887 -1.5711
  579MOL0     C78087   3.959   1.095   5.005 -1.1413  0.4790  0.1824
  579MOL0     C78088   4.012   1.158   5.118 -0.0618 -1.0141  0.1004
  579MOL0     O78089   4.147   1.189   5.114  0.2088 -0.5574  0.4699
  579MOL0     C78090   4.221   1.196   5.236  0.2506  0.2163  0.3103
  579MOL0     C78091   4.271   1.059   5.288  0.0735 -0.1199 -0.4759
  579MOL0     C78092   4.321   0.954   5.180 -0.1995  0.6901 -0.8955
  579MOL0     C78093   4.420   1.012   5.078 -0.7158  0.0385  0.5589
  579MOL0     C78094   4.444   0.906   4.983  0.5609 -0.1875  0.0070
  579MOL0     C78095   4.455   0.818   4.898  0.9582 -0.0835 -0.3974
  579MOL0     C78096   3.926   1.193   5.223  0.9967  0.0539 -0.1519
  579MOL0     C78097   3.785   1.170   5.220 -0.6724 -0.4304  0.0729
  579MOL0     H78098   3.397   0.966   5.359  0.2006 -0.8074 -0.8363
  579MOL0     H78099   3.154   0.898   5.370  0.0766 -1.0104 -0.3600
  579MOL0     H78100   2.946   0.851   5.364  0.3311  0.4420 -1.2152
  579MOL0     H78101   2.949   1.004   5.438 -1.2109 -0.3950  0.4293
  579MOL0     H78102   2.722   0.928   5.244  1.2153 -0.1842 -0.6621
  579MOL0     H78103   2.719   0.901   5.419  0.5630 -0.8343 -0.5946
  579MOL0     H78104   2.765   1.162   5.434  2.3231 -0.6327  0.5184
  579MOL0     H78105   2.756   1.158   5.258 -1.4506  2.8428  2.0111
  579MOL0     H78106   2.525   1.092   5.435 -2.6149  0.9635 -0.2844
  579MOL0     H78107   2.562   1.251   5.377 -0.5142 -1.1301  1.4854
  579MOL0     H78108   2.477   1.002   5.228 -1.0316 -0.5915 -2.1658
  579MOL0     H78109   2.386   1.155   5.248  0.0453  1.3045 -1.2914
  579MOL0     H78110   2.548   1.286   5.103  0.0104  0.0835 -4.3044
  579MOL0     H78111   2.605   1.123   5.055 -1.3601 -0.4315 -0.4698
  579MOL0     H78112   2.359   1.087   4.986 -1.8778  0.5288 -2.5483
  579MOL0     H78113   2.345   1.266   5.029  0.9786  0.1699  2.4279
  579MOL0     H78114   2.527   1.115   4.823  1.3718 -0.1158 -0.5949
  579MOL0     H78115   2.551   1.294   4.877 -3.1318  2.5666  0.6995
  579MOL0     H78116   2.315   1.088   4.669 -1.7190  0.7067 -1.0079
  579MOL0     H78117   2.197   1.121   4.461  1.5791 -0.9804  0.0686
  579MOL0     H78118   2.124   1.286   4.443 -0.4490  0.2074 -1.2801
  579MOL0     H78119   2.219   1.242   4.226  1.7810 -2.4315 -1.3509
  579MOL0     H78120   2.369   1.193   4.293  1.9511  2.0061 -0.5049
  579MOL0     H78121   2.386   1.409   4.202 -3.9705 -0.4246 -2.1475
  579MOL0     H78122   2.410   1.423   4.373  0.9565 -1.5590 -0.2941
  579MOL0     H78123   2.267   1.604   4.272 -0.2586 -0.6799 -3.0898
  579MOL0     H78124   2.191   1.521   4.404 -0.1910 -0.0541  0.4760
  579MOL0     H78125   1.925   1.427   4.049 -2.2399  0.0466 -3.0990
  579MOL0     H78126   1.808   1.511   3.727 -2.0844  0.3945  1.5982
  579MOL0     H78127   1.884   1.359   3.733  1.2565  0.3012  0.8228
  579MOL0     H78128   1.791   1.438   3.879  0.1786  0.2619  0.4421
  579MOL0     H78129   1.827   1.580   3.441 -0.7198 -2.6444  0.4325
  579MOL0     H78130   1.797   1.563   3.212 -0.5955  0.6613  1.1652
  579MOL0     H78131   2.020   1.269   2.928  0.5496  0.7266 -0.2848
  579MOL0     H78132   1.964   1.241   3.101  1.0560  0.8155  0.3419
  579MOL0     H78133   1.762   1.266   3.063  0.6665 -0.8811  1.5128
  579MOL0     H78134   1.784   1.308   2.886 -0.1858 -0.6233  0.1295
  579MOL0     H78135   1.806   1.031   3.011 -2.8072  1.3087  1.7942
  579MOL0     H78136   1.845   1.079   2.845 -2.2833 -3.3489 -0.0902
  579MOL0     H78137   1.568   1.122   2.968 -0.2712  2.5966 -1.4206
  579MOL0     H78138   1.614   1.169   2.806 -0.6443 -0.0738 -0.0759
  579MOL0     H78139   1.673   0.911   2.761  0.0413 -1.6925  1.7119
  579MOL0     H78140   1.520   0.969   2.764  0.7862  0.2549 -1.0988
  579MOL0     H78141   1.652   0.839   3.010 -1.2711  0.5290  1.1786
  579MOL0     H78142   1.493   0.899   3.005 -1.3377 -0.8307 -1.0094
  579MOL0     H78143   1.573   0.677   2.817  1.2572  1.8144 -1.0550
  579MOL0     H78144   1.425   0.741   2.805  0.3616 -1.8079 -0.6178
  579MOL0     H78145   1.383   0.695   3.064 -0.5943  2.8063 -1.8352
  579MOL0     H78146   1.535   0.603   3.053 -0.2810  0.2949  1.4584
  579MOL0     H78147   2.194   1.419   3.160 -3.5375 -0.2806 -4.8442
  579MOL0     H78148   2.230   1.449   3.394 -0.1273  0.6659 -1.4489
  579MOL0     H78149   2.306   1.633   3.815 -0.5402 -0.1890 -1.7925
  579MOL0     H78150   2.336   1.586   4.048 -0.5573  4.0823 -0.8940
  579MOL0     H78151   3.069   1.172   5.058  1.6751  1.8744 -0.6130
  579MOL0     H78152   3.303   1.224   5.032 -4.2770  0.8103 -2.2518
  579MOL0     H78153   3.783   1.019   4.900  1.4615  0.6669 -2.4697
  579MOL0     H78154   4.029   1.064   4.928 -2.0312 -1.9824  0.3014
  579MOL0     H78155   4.313   1.250   5.215  1.3194 -1.6810 -0.0676
  579MOL0     H78156   4.177   1.251   5.320  3.5876  2.3376  0.8830
  579MOL0     H78157   4.190   1.010   5.344 -0.2949  0.7455 -0.2366
  579MOL0     H78158   4.350   1.081   5.360  1.7247  2.7941 -2.9710
  579MOL0     H78159   4.237   0.917   5.120  1.5128  0.5043 -3.3504
  579MOL0     H78160   4.377   0.876   5.231 -0.3622  3.2295  3.6619
  579MOL0     H78161   4.515   1.041   5.124  0.4310 -3.6134  0.8330
  579MOL0     H78162   4.369   1.092   5.022 -0.6564 -0.8201 -0.7741
  579MOL0     H78163   4.475   0.739   4.830  0.5737 -1.3950  0.9507
  579MOL0     H78164   3.957   1.250   5.310 -1.4254 -2.1700  2.3576
  579MOL0     H78165   3.716   1.211   5.293 -3.1182 -2.0783 -1.1582
  580MOL0     O78166   0.481   2.492   0.281  0.9564 -0.4455 -0.2581
  580MOL0     C78167   0.547   2.436   0.367  0.1556  0.3902 -0.5644
  580MOL0     O78168   0.534   2.436   0.499 -0.4840 -0.1426 -0.1513
  580MOL0     C78169   0.443   2.511   0.563 -0.3974 -0.4266 -1.2032
  580MOL0     C78170   0.502   2.615   0.633 -0.2537  0.7134 -0.1511
  580MOL0     C78171   0.421   2.700   0.707  0.3232 -0.1411  0.0696
  580MOL0     C78172   0.277   2.691   0.688 -0.9866 -0.8938 -0.1602
  580MOL0     O78173   0.199   2.773   0.751  0.5790  0.3372 -0.6272
  580MOL0     C78174   0.143   2.729   0.872 -0.0575 -1.2261  0.0459
  580MOL0     C78175   0.240   2.718   0.985 -0.3096 -1.1496  0.5557
  580MOL0     C78176   0.174   2.674   1.108  0.1222  0.1938 -0.1631
  580MOL0     C78177   0.094   2.784   1.175 -0.3175  0.6272  0.3333
  580MOL0     C78178   0.177   2.899   1.229  0.1194 -0.1163  0.2546
  580MOL0     C78179   0.077   3.003   1.279 -0.3503  0.0148  0.7946
  580MOL0     C78180   0.143   3.141   1.317 -0.0253 -0.9671 -0.1044
  580MOL0     C78181   0.256   3.134   1.422 -0.5407 -0.7854 -0.0291
  580MOL0     N78182   0.199   3.052   1.536  0.6554  0.3689  0.1535
  580MOL0     C78183   0.080   3.068   1.593  0.1663 -0.1005 -0.7136
  580MOL0     C78184   0.061   2.954   1.670  0.0490  0.2506  0.3060
  580MOL0     C78185  -0.062   2.930   1.763 -1.5592  0.4573  0.4024
  580MOL0     C78186  -0.167   2.864   1.678  0.8612 -0.0889  0.3698
  580MOL0     C78187  -0.121   2.733   1.610  0.3204 -0.4972 -0.2628
  580MOL0     C78188  -0.220   2.686   1.506  1.2333 -0.7083 -1.1433
  580MOL0     O78189  -0.220   2.785   1.401  0.2194  0.8345 -0.4262
  580MOL0     C78190  -0.318   2.798   1.304  0.1730 -0.3347  0.6256
  580MOL0     C78191  -0.439   2.727   1.305 -0.0121 -0.3302 -0.0498
  580MOL0     C78192  -0.545   2.751   1.213  0.3500 -0.3894 -0.4494
  580MOL0     C78193  -0.680   2.684   1.228  0.3915  0.9841  0.6807
  580MOL0     C78194  -0.515   2.827   1.093 -0.9341 -0.3440  0.1667
  580MOL0     C78195  -0.588   2.832   0.964 -0.4212  0.2010  0.6992
  580MOL0     O78196  -0.647   2.713   0.935 -0.0553  0.0498  0.8995
  580MOL0     C78197  -0.742   2.691   0.842 -0.6381  0.3448  1.1338
  580MOL0     C78198  -0.845   2.783   0.823 -0.1270  0.1911 -0.1406
  580MOL0     C78199  -0.943   2.764   0.726 -0.0530  0.1899 -0.1413
  580MOL0     C78200  -0.939   2.648   0.648 -0.6060  0.4067 -0.0499
  580MOL0     O78201  -1.025   2.612   0.553  0.0406 -0.1066 -0.3235
  580MOL0     C78202  -1.125   2.708   0.507 -1.0734  0.1517  0.0452
  580MOL0     C78203  -1.208   2.644   0.392  1.0767  0.0121  0.1242
  580MOL0     C78204  -1.290   2.534   0.447  0.6042  1.1044 -0.9443
  580MOL0     C78205  -1.387   2.476   0.346  0.5185 -0.2071 -0.6809
  580MOL0     C78206  -1.502   2.404   0.422 -0.2075 -0.1883  0.4005
  580MOL0     C78207  -1.610   2.333   0.341 -0.1034 -0.1094  0.6285
  580MOL0     C78208  -1.687   2.429   0.240  0.3804 -0.7028 -0.2565
  580MOL0     C78209  -1.828   2.378   0.216  0.0203  0.1587  0.8235
  580MOL0    Cl78210  -1.816   2.260   0.082 -0.1987 -0.5959 -0.0586
  580MOL0     C78211  -0.843   2.555   0.674 -0.6951 -0.1425  0.0382
  580MOL0     C78212  -0.739   2.578   0.771 -0.3521 -0.0702 -0.1675
  580MOL0     O78213  -0.585   2.931   0.896 -0.9316  0.2983  0.4635
  580MOL0     C78214  -0.390   2.903   1.105 -0.1152  0.6096  0.3142
  580MOL0     C78215  -0.301   2.901   1.214  0.3436  0.1516  0.9306
  580MOL0     N78216   0.180   2.886   1.670  0.0266  0.8583  0.2835
  580MOL0     N78217   0.256   2.945   1.593  0.0884 -0.4153  0.3494
  580MOL0     C78218   0.217   2.590   0.609 -0.4512  0.1275  0.1264
  580MOL0     C78219   0.303   2.499   0.543  0.1622  0.0518  0.0379
  580MOL0     C78220   0.673   2.370   0.330  0.0074 -0.1139 -0.0143
  580MOL0     C78221   0.780   2.348   0.422  0.4474  0.1063 -0.0557
  580MOL0     C78222   0.894   2.287   0.371 -0.2969  0.5606  0.4211
  580MOL0     C78223   0.904   2.249   0.239 -0.0430  0.5607  0.4930
  580MOL0     O78224   1.013   2.194   0.188  0.0634 -0.7281  0.3322
  580MOL0     C78225   1.154   2.206   0.241  0.8974  0.1601 -0.3458
  580MOL0     C78226   1.207   2.353   0.202 -0.7133  0.2679  0.5447
  580MOL0     C78227   1.222   2.364   0.051 -0.5933  0.5999 -0.8476
  580MOL0     C78228   1.311   2.258  -0.027  0.5379 -0.1935  0.0591
  580MOL0     C78229   1.441   2.264   0.036 -0.5423  0.0073  0.3412
  580MOL0     C78230   1.553   2.249   0.086  0.6375  0.1548  0.4654
  580MOL0     C78231   0.794   2.266   0.152  0.1069 -0.0822 -0.4844
  580MOL0     C78232   0.678   2.323   0.200 -0.7183 -0.1292  0.8706
  580MOL0     H78233   0.608   2.631   0.617 -0.5372  1.1171 -1.8303
  580MOL0     H78234   0.470   2.778   0.764 -1.8918 -0.5841  2.7914
  580MOL0     H78235   0.054   2.787   0.897 -0.1747 -0.6969 -1.5148
  580MOL0     H78236   0.099   2.629   0.862  0.3591 -1.5431  1.2555
  580MOL0     H78237   0.313   2.637   0.970  0.3406 -1.2252  3.5601
  580MOL0     H78238   0.306   2.804   0.999 -0.3198 -1.0002 -0.2795
  580MOL0     H78239   0.118   2.582   1.090 -1.0714  1.1466 -1.5968
  580MOL0     H78240   0.250   2.641   1.179  0.4774 -1.7104 -1.3488
  580MOL0     H78241   0.018   2.822   1.106 -1.8977 -1.6465  0.7021
  580MOL0     H78242   0.034   2.739   1.255  1.5423 -2.6865  0.0318
  580MOL0     H78243   0.241   2.869   1.312 -1.4291 -1.1018  1.1427
  580MOL0     H78244   0.240   2.941   1.150  1.0522  0.8493  1.4903
  580MOL0     H78245   0.002   3.014   1.200  1.2883  0.0810 -0.7994
  580MOL0     H78246   0.020   2.961   1.362  1.6693 -1.3454  1.5555
  580MOL0     H78247   0.191   3.195   1.235  0.9989  0.8908  1.6062
  580MOL0     H78248   0.072   3.215   1.355  2.4944  1.3782  0.3392
  580MOL0     H78249   0.280   3.234   1.458 -0.3774 -0.9325  0.2806
  580MOL0     H78250   0.346   3.083   1.387 -0.6305  0.4528 -2.1943
  580MOL0     H78251   0.016   3.154   1.573  2.5198  2.1880  0.9531
  580MOL0     H78252  -0.035   2.861   1.844  3.0081  3.3890  1.7255
  580MOL0     H78253  -0.089   3.024   1.812  2.5050  2.5241 -0.8535
  580MOL0     H78254  -0.195   2.938   1.602 -0.1880  0.4850  1.2858
  580MOL0     H78255  -0.260   2.848   1.733  0.1160 -3.2528 -1.5739
  580MOL0     H78256  -0.106   2.662   1.692 -5.0122 -0.4278  1.1165
  580MOL0     H78257  -0.030   2.745   1.550  0.4104  0.5606  0.0703
  580MOL0     H78258  -0.322   2.688   1.547  0.3883  0.3244 -3.1245
  580MOL0     H78259  -0.214   2.587   1.460  1.4027 -0.5843 -1.3917
  580MOL0     H78260  -0.470   2.652   1.377 -1.0521 -1.5301 -1.6709
  580MOL0     H78261  -0.690   2.590   1.172 -2.0595  1.4496  0.2422
  580MOL0     H78262  -0.704   2.661   1.332 -1.3578  3.4250  0.8921
  580MOL0     H78263  -0.765   2.745   1.197  1.3667  2.3065  0.4960
  580MOL0     H78264  -0.861   2.871   0.883 -2.5609  0.9962 -1.8114
  580MOL0     H78265  -1.026   2.833   0.714 -0.1985 -0.1071 -0.8751
  580MOL0     H78266  -1.190   2.742   0.588  0.8775  4.4168  0.1043
  580MOL0     H78267  -1.080   2.801   0.469 -1.6571 -0.1427 -1.4265
  580MOL0     H78268  -1.277   2.718   0.351 -0.7468 -1.8111 -0.2664
  580MOL0     H78269  -1.140   2.612   0.313  0.9866  1.0953 -0.4168
  580MOL0     H78270  -1.348   2.576   0.530  3.0813 -0.2420  1.6908
  580MOL0     H78271  -1.243   2.450   0.500 -2.9520 -1.0841 -0.9386
  580MOL0     H78272  -1.437   2.546   0.278  1.4227  0.7512 -0.3956
  580MOL0     H78273  -1.334   2.401   0.286  0.4086  1.4540 -2.9974
  580MOL0     H78274  -1.549   2.482   0.483 -1.7017 -1.1125  0.4669
  580MOL0     H78275  -1.463   2.328   0.491 -0.7409 -0.2287  0.6611
  580MOL0     H78276  -1.565   2.248   0.290  0.9263 -0.1376  1.5430
  580MOL0     H78277  -1.679   2.288   0.412 -1.0145 -3.0192 -1.9154
  580MOL0     H78278  -1.647   2.427   0.138  0.9560  0.5238 -0.0678
  580MOL0     H78279  -1.686   2.530   0.281  1.8526 -0.8549  0.1390
  580MOL0     H78280  -1.880   2.470   0.189 -0.4546 -0.0418  1.0462
  580MOL0     H78281  -1.883   2.342   0.303 -0.5747 -2.0249 -0.3761
  580MOL0     H78282  -0.853   2.471   0.605 -1.2771 -1.0799  1.2206
  580MOL0     H78283  -0.659   2.506   0.787 -1.4590 -1.1007  0.9273
  580MOL0     H78284  -0.360   2.949   1.012  0.3460 -0.5218 -0.1011
  580MOL0     H78285  -0.215   2.967   1.213 -1.1256  2.1517 -0.6231
  580MOL0     H78286   0.109   2.587   0.593 -0.5442 -0.2494  0.7693
  580MOL0     H78287   0.265   2.425   0.474 -0.4250 -0.5125  0.9609
  580MOL0     H78288   0.764   2.375   0.526  0.6924 -0.2399  0.0717
  580MOL0     H78289   0.981   2.266   0.432  0.5466 -1.9343 -1.4507
  580MOL0     H78290   1.163   2.193   0.349  3.0907  1.9515 -0.2393
  580MOL0     H78291   1.210   2.124   0.194  0.0382 -0.1872 -0.7940
  580MOL0     H78292   1.310   2.367   0.239  1.1551 -2.9425 -2.8402
  580MOL0     H78293   1.141   2.431   0.241 -1.7443 -0.5790  0.5451
  580MOL0     H78294   1.272   2.460   0.034  1.2597 -0.3062 -0.7268
  580MOL0     H78295   1.122   2.375   0.008 -1.5410  2.2443  1.5669
  580MOL0     H78296   1.312   2.279  -0.134  1.2018 -3.2111 -0.6335
  580MOL0     H78297   1.261   2.162  -0.042 -0.8250  0.6428 -0.8659
  580MOL0     H78298   1.654   2.250   0.119  1.1202 -0.5190 -0.8862
  580MOL0     H78299   0.810   2.225   0.053  0.8190 -4.3002  1.1911
  580MOL0     H78300   0.590   2.341   0.138 -2.0498  0.6128  2.8597
  581MOL0     O78301   0.348   6.850   9.477 -0.4822  1.3341  0.8158
  581MOL0     C78302   0.468   6.820   9.460  0.7181  0.5635 -0.3250
  581MOL0     O78303   0.524   6.724   9.380  0.5414 -1.5172 -0.2833
  581MOL0     C78304   0.451   6.655   9.291 -0.1411 -0.0002  0.8148
  581MOL0     C78305   0.519   6.625   9.176 -0.1990 -0.2058  0.6018
  581MOL0     C78306   0.460   6.549   9.072 -0.2582  0.7959  0.0605
  581MOL0     C78307   0.331   6.509   9.089 -0.2235 -0.1170 -0.6595
  581MOL0     O78308   0.265   6.436   8.992 -0.6064 -0.1574 -0.5706
  581MOL0     C78309   0.242   6.303   9.032 -0.4693  0.0049 -0.1387
  581MOL0     C78310   0.154   6.236   8.922 -0.1395  0.0212  0.1896
  581MOL0     C78311   0.023   6.299   8.910  0.8166 -0.1343  1.2349
  581MOL0     C78312  -0.090   6.206   8.841 -0.0369 -0.5105  0.2752
  581MOL0     C78313  -0.227   6.261   8.833  0.1141  0.5992  1.1130
  581MOL0     C78314  -0.273   6.330   8.965 -0.3386 -0.3758  0.5455
  581MOL0     C78315  -0.422   6.371   8.977 -0.7474  0.3205  0.2053
  581MOL0     C78316  -0.472   6.457   8.867 -0.2455  0.9086  1.4316
  581MOL0     N78317  -0.619   6.447   8.862 -0.5634 -0.2060  1.1511
  581MOL0     C78318  -0.696   6.560   8.882 -0.6676  1.6534 -0.5173
  581MOL0     C78319  -0.821   6.514   8.856  1.0464  0.8131 -0.8454
  581MOL0     C78320  -0.954   6.591   8.878 -0.1696  0.0388 -0.2307
  581MOL0     C78321  -0.993   6.667   8.754  0.5243 -0.9840  0.5444
  581MOL0     C78322  -1.142   6.691   8.746 -0.6720  0.9691 -0.0128
  581MOL0     C78323  -1.178   6.792   8.635  0.0527 -0.0158  0.0589
  581MOL0     O78324  -1.150   6.921   8.670  0.6169  0.4333 -0.0073
  581MOL0     C78325  -1.048   6.991   8.618  0.4345  1.1757  0.3366
  581MOL0     C78326  -0.951   6.958   8.511  0.6040 -0.3734  0.8146
  581MOL0     C78327  -0.870   7.058   8.457 -0.0316  0.8071  1.3780
  581MOL0     C78328  -0.769   7.024   8.344  0.0152 -0.0426 -0.0344
  581MOL0     C78329  -0.869   7.186   8.511  1.1682 -0.0022 -0.3980
  581MOL0     C78330  -0.798   7.307   8.454  0.1831 -0.1676  0.6532
  581MOL0     O78331  -0.784   7.325   8.318 -0.4847  0.3464 -0.8037
  581MOL0     C78332  -0.720   7.436   8.275  0.4270  0.1009 -0.3341
  581MOL0     C78333  -0.589   7.416   8.228  0.8954  0.0614  0.4998
  581MOL0     C78334  -0.518   7.529   8.183 -1.1297  0.1239 -0.0782
  581MOL0     C78335  -0.582   7.665   8.176  0.5222 -0.2758  0.3636
  581MOL0     O78336  -0.523   7.787   8.138 -0.1472  0.0814  0.0033
  581MOL0     C78337  -0.381   7.793   8.125  0.4803  0.3503 -0.0891
  581MOL0     C78338  -0.346   7.780   7.972 -0.4526  0.4116 -0.7597
  581MOL0     C78339  -0.193   7.753   7.962 -0.3902 -0.1201 -0.2792
  581MOL0     C78340  -0.137   7.775   7.813 -0.0796 -0.1659  1.1806
  581MOL0     C78341  -0.003   7.704   7.794 -0.6292 -0.6085  0.7938
  581MOL0     C78342   0.111   7.748   7.877  0.4330  0.4108  0.2877
  581MOL0     C78343   0.244   7.666   7.852  0.1047  0.2012 -0.6747
  581MOL0     C78344   0.369   7.739   7.909 -0.1678 -0.0751 -0.1488
  581MOL0    Cl78345   0.518   7.647   7.870  0.0087 -0.5661  0.5786
  581MOL0     C78346  -0.718   7.673   8.211  0.9732 -0.1934  0.6096
  581MOL0     C78347  -0.783   7.566   8.272 -0.3977 -0.7855  0.8497
  581MOL0     O78348  -0.746   7.386   8.532  0.6921  0.5622  0.0150
  581MOL0     C78349  -0.952   7.214   8.622  0.1314  0.0345 -0.6865
  581MOL0     C78350  -1.044   7.118   8.678 -1.0932 -0.7983 -0.4132
  581MOL0     N78351  -0.813   6.386   8.812 -0.4496 -0.1363 -0.2407
  581MOL0     N78352  -0.691   6.344   8.822  0.1636  0.7126 -0.3678
  581MOL0     C78353   0.258   6.538   9.208  0.5850 -0.5826 -0.2075
  581MOL0     C78354   0.321   6.615   9.310  0.9560  0.1290  1.0031
  581MOL0     C78355   0.568   6.890   9.541  0.2209  0.2334 -0.0629
  581MOL0     C78356   0.703   6.887   9.525  0.5152  0.1616 -0.1557
  581MOL0     C78357   0.799   6.942   9.608 -0.4427  0.5267 -1.2931
  581MOL0     C78358   0.762   7.001   9.723  0.8362 -0.4667  0.0725
  581MOL0     O78359   0.829   7.074   9.815  1.0678  0.7167 -0.3397
  581MOL0     C78360   0.949   7.018   9.864 -0.5111 -0.4738 -0.9898
  581MOL0     C78361   1.065   7.081   9.799 -0.5027 -0.3281  0.7285
  581MOL0     C78362   1.099   7.230   9.832  0.3294 -0.7772  0.1159
  581MOL0     C78363   1.192   7.294   9.728 -0.6713 -0.0500  0.2432
  581MOL0     C78364   1.330   7.234   9.724  0.2192 -0.2626  0.1423
  581MOL0     C78365   1.442   7.207   9.715  0.1097  0.4558 -0.0143
  581MOL0     C78366   0.624   7.029   9.738  0.3854  0.5323  0.4898
  581MOL0     C78367   0.529   6.963   9.655 -0.1063 -0.3869  0.1106
  581MOL0     H78368   0.625   6.648   9.165 -0.1882  0.0431  1.1790
  581MOL0     H78369   0.522   6.523   8.986 -0.7249  1.9184 -0.6426
  581MOL0     H78370   0.337   6.248   9.038 -0.9630 -0.9448 -0.7406
  581MOL0     H78371   0.184   6.303   9.124  2.7310  1.1406  2.0601
  581MOL0     H78372   0.205   6.219   8.826  0.1104 -0.4486  0.3989
  581MOL0     H78373   0.131   6.136   8.959 -0.0422 -0.1195 -0.1217
  581MOL0     H78374  -0.016   6.344   9.002 -2.6176  1.4716 -0.7927
  581MOL0     H78375   0.050   6.390   8.857  2.1419 -1.5539 -0.6407
  581MOL0     H78376  -0.047   6.195   8.741  2.2070 -1.9785  1.3169
  581MOL0     H78377  -0.100   6.105   8.880  1.1528 -0.6529  0.2472
  581MOL0     H78378  -0.225   6.322   8.742  1.7484 -0.9046  0.0793
  581MOL0     H78379  -0.298   6.180   8.818 -0.4748  0.8154  2.5657
  581MOL0     H78380  -0.247   6.264   9.049  0.6828 -0.7054 -0.0140
  581MOL0     H78381  -0.214   6.420   8.984 -0.4585  0.5857 -2.9236
  581MOL0     H78382  -0.489   6.286   8.994 -2.3485  1.0099 -2.1837
  581MOL0     H78383  -0.439   6.420   9.074 -0.6217 -0.0056  0.3916
  581MOL0     H78384  -0.424   6.414   8.779 -1.1127  2.8039 -0.0667
  581MOL0     H78385  -0.437   6.561   8.878 -1.2190  1.3556  0.4932
  581MOL0     H78386  -0.667   6.654   8.928  0.6516  1.2096 -0.3953
  581MOL0     H78387  -1.032   6.521   8.911  0.7716 -0.2051  1.5899
  581MOL0     H78388  -0.953   6.672   8.951 -2.7074  2.0747 -2.2724
  581MOL0     H78389  -0.966   6.606   8.667  0.5271 -0.5073  0.2079
  581MOL0     H78390  -0.938   6.761   8.751 -0.0841 -0.5971 -2.8790
  581MOL0     H78391  -1.171   6.727   8.845  0.0197 -3.6876  2.1574
  581MOL0     H78392  -1.192   6.594   8.732  0.6788  0.2768 -0.1978
  581MOL0     H78393  -1.284   6.785   8.608  0.6817  1.0443 -3.0867
  581MOL0     H78394  -1.118   6.764   8.547  0.2549 -0.2452  0.2702
  581MOL0     H78395  -0.935   6.853   8.488  0.2536 -0.9410  2.9568
  581MOL0     H78396  -0.808   7.076   8.256 -0.1913  1.7485  1.0655
  581MOL0     H78397  -0.677   7.079   8.362  0.7283 -0.6976 -1.4938
  581MOL0     H78398  -0.748   6.917   8.341  1.3718  0.1912  0.6310
  581MOL0     H78399  -0.538   7.321   8.222  1.3854  0.2646  1.3449
  581MOL0     H78400  -0.419   7.512   8.143 -1.8972 -0.6235 -1.7637
  581MOL0     H78401  -0.346   7.883   8.176 -1.1645  0.1482  1.4845
  581MOL0     H78402  -0.336   7.711   8.182  1.1938  1.5752  1.1496
  581MOL0     H78403  -0.400   7.696   7.928  1.9061 -1.1179 -0.8725
  581MOL0     H78404  -0.373   7.880   7.935  0.4997  0.6274 -0.8936
  581MOL0     H78405  -0.186   7.654   8.008 -0.7818 -1.3554 -2.6754
  581MOL0     H78406  -0.143   7.824   8.028 -1.2256  0.2470 -0.0310
  581MOL0     H78407  -0.202   7.748   7.728  0.5326 -0.5505  0.8268
  581MOL0     H78408  -0.117   7.882   7.801 -3.2306  0.4895  0.8940
  581MOL0     H78409   0.032   7.715   7.691  0.7243 -3.5493  0.8264
  581MOL0     H78410  -0.017   7.596   7.801  0.3961 -1.1087 -2.8760
  581MOL0     H78411   0.137   7.854   7.870  1.1429  0.6033  3.7006
  581MOL0     H78412   0.078   7.759   7.981 -1.3518 -1.5233 -0.0075
  581MOL0     H78413   0.272   7.660   7.746  4.0378  0.8700  0.1611
  581MOL0     H78414   0.237   7.562   7.885 -0.2900 -0.5488 -2.9254
  581MOL0     H78415   0.375   7.747   8.017  1.1041 -1.0782 -0.1210
  581MOL0     H78416   0.378   7.843   7.878  1.7584 -0.1506  0.0651
  581MOL0     H78417  -0.762   7.772   8.203  0.4639 -0.4821 -0.3225
  581MOL0     H78418  -0.882   7.568   8.317 -1.9144 -2.7134 -2.1266
  581MOL0     H78419  -0.948   7.313   8.669 -3.6357  0.8669 -1.7909
  581MOL0     H78420  -1.104   7.142   8.765  1.6011 -2.6360  2.1283
  581MOL0     H78421   0.160   6.493   9.219  1.3910 -2.0459  1.5248
  581MOL0     H78422   0.270   6.641   9.401  0.6450 -0.1020  0.8969
  581MOL0     H78423   0.733   6.817   9.448 -0.8356  1.0920 -1.5584
  581MOL0     H78424   0.903   6.912   9.594 -0.7769 -2.9530  1.8471
  581MOL0     H78425   0.953   7.047   9.970  0.5641 -0.3280 -1.0539
  581MOL0     H78426   0.955   6.909   9.861 -2.0316 -0.5682 -1.2946
  581MOL0     H78427   1.054   7.065   9.691  0.3780 -0.7399  0.6891
  581MOL0     H78428   1.150   7.024   9.837 -1.0264  1.0769  4.4031
  581MOL0     H78429   1.155   7.229   9.926  1.3932 -0.1472 -0.4861
  581MOL0     H78430   1.010   7.291   9.849  1.1140  1.3303 -2.6626
  581MOL0     H78431   1.187   7.403   9.738 -2.1342  0.1636 -2.0025
  581MOL0     H78432   1.152   7.273   9.628 -0.0711  3.8286 -1.0022
  581MOL0     H78433   1.546   7.182   9.707 -0.2790 -0.7998 -2.1207
  581MOL0     H78434   0.595   7.104   9.810 -0.3863  1.6174 -0.8980
  581MOL0     H78435   0.422   6.979   9.666  0.3014  2.2507  0.9997
  582MOL0     O78436  10.554  10.415   3.531 -0.4672 -0.3357  0.0916
  582MOL0     C78437  10.636  10.481   3.465  0.0542  0.9250  0.3628
  582MOL0     O78438  10.643  10.616   3.471 -0.2387 -0.3445  0.5342
  582MOL0     C78439  10.578  10.674   3.570 -0.1954  0.7791 -1.2981
  582MOL0     C78440  10.609  10.661   3.706  0.2646  0.2984  0.1155
  582MOL0     C78441  10.530  10.719   3.808 -0.3210  0.2606  0.0756
  582MOL0     C78442  10.415  10.792   3.775  0.5373  0.5474 -1.3071
  582MOL0     O78443  10.361  10.855   3.885  0.5724  0.7499 -0.4457
  582MOL0     C78444  10.211  10.854   3.885  0.1577 -0.2537 -1.0972
  582MOL0     C78445  10.147  10.879   4.026 -0.1658  0.0378 -0.0691
  582MOL0     C78446  10.171  11.025   4.072  0.1383  0.0265  0.5186
  582MOL0     C78447  10.165  11.043   4.225 -0.4916  0.2907  0.6015
  582MOL0     C78448  10.289  10.997   4.290 -0.3466  0.1593  0.1877
  582MOL0     C78449  10.316  11.060   4.429  0.4258  0.1921 -0.1761
  582MOL0     C78450  10.375  11.193   4.431 -0.1135 -0.3607 -0.3796
  582MOL0     C78451  10.503  11.209   4.350 -0.5887  0.5515  0.2030
  582MOL0     N78452  10.542  11.347   4.330  0.0417  0.9153  0.1124
  582MOL0     C78453  10.575  11.435   4.435  0.3489  0.7464  0.3726
  582MOL0     C78454  10.580  11.548   4.375  0.5011  0.0088  0.1188
  582MOL0     C78455  10.611  11.676   4.457 -0.2297 -0.7474  0.3706
  582MOL0     C78456  10.754  11.674   4.508 -0.0212  0.3000  0.2078
  582MOL0     C78457  10.849  11.707   4.389 -0.7003 -0.6437  0.4243
  582MOL0     C78458  10.988  11.764   4.443  0.2342 -0.1928  0.7042
  582MOL0     O78459  11.071  11.667   4.507  0.1417 -0.6628  0.0093
  582MOL0     C78460  11.202  11.695   4.542 -0.4139 -0.7934 -0.2783
  582MOL0     C78461  11.260  11.827   4.521  0.1822 -0.2821  0.0568
  582MOL0     C78462  11.392  11.857   4.557  0.7775 -0.5926 -0.1444
  582MOL0     C78463  11.452  11.991   4.534  0.4365 -0.5728 -0.4597
  582MOL0     C78464  11.473  11.756   4.624 -0.2196  0.8340 -0.8393
  582MOL0     C78465  11.621  11.767   4.683 -0.0048 -0.3034 -0.3025
  582MOL0     O78466  11.699  11.655   4.676 -0.2515 -0.0575 -0.5811
  582MOL0     C78467  11.790  11.634   4.781  0.2812  0.9236  0.8924
  582MOL0     C78468  11.883  11.543   4.747  0.3090  0.5191 -0.2059
  582MOL0     C78469  11.985  11.508   4.837  1.0034 -0.1613 -0.3584
  582MOL0     C78470  11.983  11.559   4.973 -0.2708 -0.3365 -0.6696
  582MOL0     O78471  12.071  11.498   5.053 -0.6498 -0.0373 -0.3955
  582MOL0     C78472  12.073  11.513   5.190 -0.5713  0.3445 -0.8795
  582MOL0     C78473  11.942  11.459   5.267 -0.6882 -0.7634  0.4194
  582MOL0     C78474  11.951  11.539   5.406 -0.1156  0.1007 -0.0572
  582MOL0     C78475  11.879  11.453   5.511  0.5481  0.1517  0.1824
  582MOL0     C78476  11.830  11.530   5.633 -0.0489  0.0501  0.2645
  582MOL0     C78477  11.705  11.626   5.633 -0.7201  0.3474 -0.0220
  582MOL0     C78478  11.577  11.548   5.587  0.0991  0.6376  0.2671
  582MOL0     C78479  11.523  11.453   5.703  1.0008  0.1578  0.1289
  582MOL0    Cl78480  11.437  11.565   5.817  0.6317 -0.0128 -0.5268
  582MOL0     C78481  11.882  11.656   5.010 -0.0341 -0.3806 -0.2371
  582MOL0     C78482  11.793  11.695   4.911  0.2976 -0.3540  0.0446
  582MOL0     O78483  11.660  11.875   4.737 -0.5130 -0.3310  0.2012
  582MOL0     C78484  11.416  11.633   4.650 -0.1382 -0.1365 -1.3864
  582MOL0     C78485  11.284  11.606   4.611 -0.1702 -0.5703  0.8985
  582MOL0     N78486  10.569  11.536   4.237  0.3072 -0.1488  0.2370
  582MOL0     N78487  10.549  11.416   4.212 -0.4895 -0.2016 -0.0876
  582MOL0     C78488  10.373  10.800   3.641 -0.1965  0.0178 -0.3430
  582MOL0     C78489  10.455  10.738   3.540 -0.4860  0.2951 -0.2153
  582MOL0     C78490  10.711  10.410   3.367  1.0880  1.2413  0.2331
  582MOL0     C78491  10.823  10.470   3.310 -0.2620  0.5167  0.2129
  582MOL0     C78492  10.895  10.394   3.202  0.4587  0.4299  0.2757
  582MOL0     C78493  10.859  10.266   3.174 -0.2565 -0.3137  0.4008
  582MOL0     O78494  10.913  10.187   3.078 -0.1830 -0.1094  1.2334
  582MOL0     C78495  11.036  10.130   3.116 -0.0202 -0.0615  0.2213
  582MOL0     C78496  11.106  10.036   3.018 -0.1238 -0.1223  0.1709
  582MOL0     C78497  11.209   9.948   3.094  1.4116 -0.0559 -0.2376
  582MOL0     C78498  11.333   9.924   3.018 -0.7792  0.3225 -0.0444
  582MOL0     C78499  11.439   9.869   3.100  0.6021 -0.0851 -0.2593
  582MOL0     C78500  11.525   9.827   3.180  0.6122  1.0775 -0.8612
  582MOL0     C78501  10.752  10.212   3.240  1.1006  0.2399 -0.4320
  582MOL0     C78502  10.685  10.276   3.339 -0.1890  0.3582 -1.1932
  582MOL0     H78503  10.696  10.603   3.737  2.5098  3.2109 -0.2519
  582MOL0     H78504  10.557  10.697   3.911 -3.0246 -0.6973  0.6597
  582MOL0     H78505  10.175  10.932   3.817  3.3633  1.3322 -1.1945
  582MOL0     H78506  10.177  10.752   3.868 -1.4681 -0.3405  1.9463
  582MOL0     H78507  10.042  10.849   4.021  0.3916 -1.9909 -0.4019
  582MOL0     H78508  10.192  10.802   4.089 -0.0194  0.2324  0.0682
  582MOL0     H78509  10.273  11.052   4.044 -0.1658 -1.1842 -2.1297
  582MOL0     H78510  10.092  11.079   4.020 -0.4938 -1.7523 -0.4765
  582MOL0     H78511  10.139  11.146   4.250  0.5363  0.8687 -0.6049
  582MOL0     H78512  10.082  10.984   4.266 -0.9329  0.9335  0.6507
  582MOL0     H78513  10.272  10.891   4.309  0.6075  0.4067  2.6734
  582MOL0     H78514  10.372  10.995   4.218 -0.8208 -1.0326 -0.3555
  582MOL0     H78515  10.235  11.051   4.502 -0.3754 -3.6777 -1.2619
  582MOL0     H78516  10.391  10.992   4.470 -0.3037 -0.8046 -0.4540
  582MOL0     H78517  10.300  11.267   4.402  1.4063  1.6905  0.6864
  582MOL0     H78518  10.404  11.223   4.532  0.6030 -1.0123 -0.3799
  582MOL0     H78519  10.475  11.163   4.254 -3.0744 -3.0951  2.4262
  582MOL0     H78520  10.579  11.149   4.401 -2.6007 -1.6819  0.7961
  582MOL0     H78521  10.589  11.409   4.539  0.2772  3.1626  1.0313
  582MOL0     H78522  10.583  11.762   4.395  1.0446  0.2529  1.1250
  582MOL0     H78523  10.544  11.681   4.543  0.9475  0.1319  1.2577
  582MOL0     H78524  10.783  11.585   4.565 -2.0951  0.0491  0.9940
  582MOL0     H78525  10.758  11.759   4.576  1.1361  0.5912 -0.2126
  582MOL0     H78526  10.812  11.780   4.316 -0.8810 -3.0860 -2.1064
  582MOL0     H78527  10.872  11.612   4.340  0.8990 -0.3739  0.6021
  582MOL0     H78528  10.967  11.837   4.522 -0.7011 -2.3247  2.5529
  582MOL0     H78529  11.042  11.814   4.362  1.9021 -0.1522  1.8032
  582MOL0     H78530  11.219  11.919   4.481  3.8206  1.7515  0.5326
  582MOL0     H78531  11.539  12.010   4.597 -0.2715  0.2825  0.2847
  582MOL0     H78532  11.479  11.993   4.428 -1.7161 -2.8261 -1.1317
  582MOL0     H78533  11.395  12.081   4.558  2.0901  0.2714  0.4554
  582MOL0     H78534  11.877  11.507   4.645  3.4196  1.1832 -0.7164
  582MOL0     H78535  12.059  11.433   4.812 -0.0484 -2.5258  2.9493
  582MOL0     H78536  12.164  11.469   5.231  0.2771  2.9962  0.3277
  582MOL0     H78537  12.088  11.619   5.215 -0.4274 -0.3408  2.4446
  582MOL0     H78538  11.850  11.483   5.213  0.1792  2.2358  0.1081
  582MOL0     H78539  11.953  11.352   5.286  2.3484 -0.4729  0.8465
  582MOL0     H78540  11.898  11.633   5.389 -0.8529 -0.3132 -0.0653
  582MOL0     H78541  12.053  11.557   5.442 -0.1821 -1.9273  1.2749
  582MOL0     H78542  11.799  11.382   5.486 -1.3948  1.7264  1.6200
  582MOL0     H78543  11.963  11.387   5.535  0.9271  1.0039  1.2228
  582MOL0     H78544  11.907  11.604   5.658 -3.2754  4.3087 -1.1961
  582MOL0     H78545  11.826  11.471   5.725 -2.0788  0.2730  0.3808
  582MOL0     H78546  11.702  11.653   5.739  0.3263 -2.7660  0.8928
  582MOL0     H78547  11.723  11.710   5.565 -3.3203 -1.0647 -2.6469
  582MOL0     H78548  11.603  11.486   5.501  1.4586  1.2126  0.2428
  582MOL0     H78549  11.495  11.617   5.566  0.9613  1.4263 -0.5755
  582MOL0     H78550  11.601  11.402   5.760  2.4516 -0.0216 -1.9046
  582MOL0     H78551  11.459  11.371   5.670  2.9051 -2.2772  2.0559
  582MOL0     H78552  11.877  11.702   5.108 -0.9319  3.6870 -1.9903
  582MOL0     H78553  11.727  11.779   4.933  1.2603  1.1732 -2.4782
  582MOL0     H78554  11.468  11.559   4.710  3.3264  0.8251 -2.9482
  582MOL0     H78555  11.238  11.511   4.634  1.4289 -1.3251  1.1596
  582MOL0     H78556  10.272  10.836   3.626 -0.1433  0.5261  0.4680
  582MOL0     H78557  10.430  10.749   3.435 -1.7204  0.5785  0.0950
  582MOL0     H78558  10.860  10.569   3.335  0.8395  0.4678 -1.1023
  582MOL0     H78559  10.982  10.443   3.161  0.5077  0.6686  0.6614
  582MOL0     H78560  11.113  10.201   3.148 -1.4813  2.0386 -0.7039
  582MOL0     H78561  11.002  10.070   3.201 -1.5776  5.0351  3.7205
  582MOL0     H78562  11.150  10.100   2.941 -1.8083 -2.5183 -3.0198
  582MOL0     H78563  11.027   9.985   2.962  2.5457 -2.5182 -1.6871
  582MOL0     H78564  11.166   9.848   3.107 -0.9695  0.8740 -0.3692
  582MOL0     H78565  11.223   9.993   3.193 -1.2970 -1.7618  1.0611
  582MOL0     H78566  11.378  10.009   2.966  1.6701 -1.7866 -1.6569
  582MOL0     H78567  11.314   9.837   2.954  0.1377 -1.4129  1.8929
  582MOL0     H78568  11.595   9.771   3.239  0.6600  3.1548  1.2128
  582MOL0     H78569  10.734  10.110   3.210 -0.9831  1.1096 -2.5240
  582MOL0     H78570  10.594  10.223   3.365  1.5418 -2.6946 -0.9034
  583MOL0     O78571   9.573   1.401   3.325  0.1423 -0.6342 -0.3435
  583MOL0     C78572   9.603   1.313   3.412 -0.1381 -0.1453  0.4683
  583MOL0     O78573   9.508   1.237   3.483 -0.0802  0.1304  0.5600
  583MOL0     C78574   9.381   1.270   3.455  0.8983  0.5055  0.4649
  583MOL0     C78575   9.313   1.213   3.341  0.2180 -0.0317 -0.6031
  583MOL0     C78576   9.173   1.233   3.332  0.0481 -0.5154 -0.1082
  583MOL0     C78577   9.098   1.301   3.423  0.4419 -0.0490 -0.1148
  583MOL0     O78578   8.961   1.309   3.400  0.4719  0.1859 -0.0406
  583MOL0     C78579   8.873   1.291   3.517 -0.4668 -0.4438 -0.3654
  583MOL0     C78580   8.720   1.305   3.493 -0.3894 -0.5140 -0.6878
  583MOL0     C78581   8.631   1.347   3.623  0.1101 -0.7656  0.3243
  583MOL0     C78582   8.491   1.393   3.576  0.6709 -0.1743  0.1543
  583MOL0     C78583   8.413   1.269   3.542 -0.3128  0.7356  0.9542
  583MOL0     C78584   8.267   1.316   3.505 -0.7091 -0.1273  0.4178
  583MOL0     C78585   8.178   1.212   3.442  0.2513  0.3125  0.8119
  583MOL0     C78586   8.173   1.079   3.521 -0.4389  0.7324 -0.5160
  583MOL0     N78587   8.068   0.993   3.476 -0.4561  0.8046  0.1415
  583MOL0     C78588   7.944   0.985   3.547 -0.5650 -0.1521 -0.3431
  583MOL0     C78589   7.878   0.901   3.471 -0.1139  0.5567 -0.6242
  583MOL0     C78590   7.739   0.844   3.509  0.0609  0.5278  0.1445
  583MOL0     C78591   7.748   0.737   3.610 -0.0848 -0.2640 -0.8240
  583MOL0     C78592   7.711   0.778   3.755 -0.2919 -1.0479 -0.4498
  583MOL0     C78593   7.716   0.673   3.868  0.3537  0.2391  0.1257
  583MOL0     O78594   7.850   0.619   3.896  0.1153  0.3356 -0.2676
  583MOL0     C78595   7.864   0.546   4.017  0.0840 -0.0189  0.2496
  583MOL0     C78596   7.964   0.445   4.020  0.7037 -0.4708 -0.1535
  583MOL0     C78597   8.013   0.391   4.142  0.8482  1.0443  0.6857
  583MOL0     C78598   8.135   0.311   4.133 -0.0439  0.6700 -0.3210
  583MOL0     C78599   7.932   0.395   4.254  0.1369 -0.7874  0.6886
  583MOL0     C78600   7.944   0.320   4.376 -0.4702 -0.1392 -1.0095
  583MOL0     O78601   7.844   0.312   4.460 -1.2452  0.0940 -0.0775
  583MOL0     C78602   7.862   0.241   4.574  0.6926 -0.1175 -0.5556
  583MOL0     C78603   7.889   0.103   4.572  0.4669  0.1095 -0.3581
  583MOL0     C78604   7.902   0.035   4.705 -0.3605  0.2386 -0.0926
  583MOL0     C78605   7.901   0.112   4.820  0.1672  0.5471  0.1032
  583MOL0     O78606   7.938   0.052   4.929  0.4271  0.6138  0.5855
  583MOL0     C78607   7.975   0.123   5.049  0.2363  0.5722  0.8362
  583MOL0     C78608   8.078   0.043   5.131 -0.4025 -0.0067  0.1129
  583MOL0     C78609   8.006  -0.081   5.181 -1.0052  0.1935 -0.0443
  583MOL0     C78610   8.093  -0.163   5.277 -0.0212  0.1483 -0.5649
  583MOL0     C78611   8.031  -0.293   5.313 -0.4664  0.1913  0.0466
  583MOL0     C78612   8.120  -0.402   5.402 -0.4204  0.3462  0.7446
  583MOL0     C78613   8.198  -0.483   5.305  0.2358  0.8941  0.2402
  583MOL0     C78614   8.224  -0.618   5.363 -0.6758  0.0212 -0.1948
  583MOL0    Cl78615   8.088  -0.733   5.377  0.1995  0.1118 -0.1105
  583MOL0     C78616   7.871   0.250   4.820 -0.6902 -0.2678  0.1493
  583MOL0     C78617   7.849   0.312   4.697  0.7833 -0.3466 -0.3218
  583MOL0     O78618   8.056   0.280   4.403 -0.7355  1.2131  0.6950
  583MOL0     C78619   7.815   0.480   4.244  0.4273 -0.2704 -0.3084
  583MOL0     C78620   7.775   0.545   4.124 -0.0702  0.1674  0.3662
  583MOL0     N78621   7.956   0.852   3.370  0.0273  0.2336  0.2274
  583MOL0     N78622   8.061   0.918   3.365 -0.0977  0.7084  0.6041
  583MOL0     C78623   9.164   1.367   3.529 -0.0118  0.1796 -0.3946
  583MOL0     C78624   9.300   1.352   3.547  0.0725  0.4474  0.0758
  583MOL0     C78625   9.739   1.282   3.434 -0.2953 -0.3018 -0.3601
  583MOL0     C78626   9.791   1.203   3.537  0.4431 -0.3414  0.7840
  583MOL0     C78627   9.924   1.166   3.545 -0.6745 -0.5286  0.0866
  583MOL0     C78628  10.015   1.199   3.452  0.4210 -0.5367 -0.2571
  583MOL0     O78629  10.147   1.165   3.436  1.0323  0.2470 -0.1053
  583MOL0     C78630  10.202   1.080   3.538  0.0316 -0.3789 -0.1314
  583MOL0     C78631  10.353   1.055   3.514  1.6365  0.3369 -0.0204
  583MOL0     C78632  10.424   1.180   3.551  0.1137  0.0241 -0.4591
  583MOL0     C78633  10.570   1.176   3.535  0.6605  0.2768  0.3545
  583MOL0     C78634  10.628   1.067   3.607  0.0137  0.9485 -0.5318
  583MOL0     C78635  10.676   0.961   3.662 -0.2682  0.5307  1.1312
  583MOL0     C78636   9.967   1.280   3.352 -0.0664 -0.5518  0.7361
  583MOL0     C78637   9.829   1.318   3.336 -0.0630 -0.1226 -0.1981
  583MOL0     H78638   9.361   1.139   3.278  0.5379 -1.1486  0.9007
  583MOL0     H78639   9.107   1.185   3.261 -1.3912 -2.0296  2.1254
  583MOL0     H78640   8.895   1.196   3.567 -1.2589  0.7386  2.4362
  583MOL0     H78641   8.893   1.376   3.583 -0.3218 -0.6069 -0.1986
  583MOL0     H78642   8.704   1.387   3.422 -2.4913 -2.3672 -2.5079
  583MOL0     H78643   8.686   1.208   3.457 -0.2325 -2.3106  3.4654
  583MOL0     H78644   8.639   1.271   3.701  4.8477 -0.9498 -0.0279
  583MOL0     H78645   8.661   1.440   3.673  0.0611 -1.7181  2.2039
  583MOL0     H78646   8.447   1.437   3.666  0.3738 -1.6898  0.7867
  583MOL0     H78647   8.497   1.462   3.491  0.7037 -1.7464 -1.1778
  583MOL0     H78648   8.463   1.201   3.471 -1.9724 -1.3769  1.6929
  583MOL0     H78649   8.411   1.209   3.634  1.5882 -1.2598 -0.1889
  583MOL0     H78650   8.219   1.342   3.601 -0.4634 -0.6378  0.6814
  583MOL0     H78651   8.257   1.411   3.453 -0.1301  1.4214  2.9340
  583MOL0     H78652   8.076   1.249   3.431  1.3474  3.8735  1.2339
  583MOL0     H78653   8.219   1.185   3.344  0.0229  0.1797  0.7537
  583MOL0     H78654   8.158   1.090   3.628  1.1125 -0.3437 -0.1687
  583MOL0     H78655   8.270   1.032   3.501  1.4353  3.4695  1.4748
  583MOL0     H78656   7.906   1.028   3.639 -0.1140  0.6434 -0.5146
  583MOL0     H78657   7.681   0.926   3.552 -0.4164  0.0451  0.4339
  583MOL0     H78658   7.691   0.821   3.413 -0.2551 -0.1546  0.4597
  583MOL0     H78659   7.852   0.704   3.620 -0.5127 -1.0405  1.6330
  583MOL0     H78660   7.692   0.656   3.564  3.4447 -2.4022 -1.7547
  583MOL0     H78661   7.611   0.822   3.763  1.8899  4.2762  2.5297
  583MOL0     H78662   7.777   0.863   3.774 -0.6651 -0.6764 -0.7958
  583MOL0     H78663   7.649   0.591   3.841 -2.1319  2.3612 -0.5920
  583MOL0     H78664   7.686   0.719   3.962 -3.2315  1.6215 -1.5322
  583MOL0     H78665   8.025   0.439   3.930  0.5423  0.7086 -0.3565
  583MOL0     H78666   8.216   0.345   4.197 -1.7783  2.1127  1.2150
  583MOL0     H78667   8.097   0.212   4.159  1.7957 -0.5684 -2.0404
  583MOL0     H78668   8.169   0.289   4.031  0.1370 -2.0551  0.2327
  583MOL0     H78669   7.887   0.048   4.479  0.7265 -0.5048 -0.0131
  583MOL0     H78670   7.924  -0.071   4.708  0.2428  0.3913  1.4764
  583MOL0     H78671   8.025   0.218   5.028 -5.5246  3.7884 -0.4892
  583MOL0     H78672   7.884   0.136   5.108  0.0660  0.5575  0.5778
  583MOL0     H78673   8.162   0.018   5.066  1.0533 -0.0693  1.9423
  583MOL0     H78674   8.119   0.113   5.204 -0.2893  3.2445 -2.8029
  583MOL0     H78675   7.991  -0.143   5.092 -0.6708  0.7206 -0.4762
  583MOL0     H78676   7.909  -0.056   5.225 -2.1672 -3.1046 -0.4867
  583MOL0     H78677   8.196  -0.187   5.250  0.2491 -3.1443  2.6675
  583MOL0     H78678   8.106  -0.098   5.364 -0.2119 -0.2246 -0.2532
  583MOL0     H78679   7.986  -0.337   5.223  0.7868 -1.0958  0.0182
  583MOL0     H78680   7.947  -0.257   5.374 -0.0518  1.5815 -0.1691
  583MOL0     H78681   8.190  -0.347   5.467 -1.1330  1.1969  0.8040
  583MOL0     H78682   8.051  -0.451   5.471 -2.6398  2.8942  0.5181
  583MOL0     H78683   8.291  -0.428   5.287  1.0129 -0.5318 -0.3502
  583MOL0     H78684   8.149  -0.503   5.209  1.0668  4.0254 -0.9526
  583MOL0     H78685   8.260  -0.603   5.466  0.1004  2.2494 -0.7417
  583MOL0     H78686   8.293  -0.667   5.293  0.6207  1.2103  0.2065
  583MOL0     H78687   7.854   0.303   4.914 -0.6376 -1.8619  1.0892
  583MOL0     H78688   7.817   0.415   4.707 -0.2278 -0.3867 -2.5122
  583MOL0     H78689   7.737   0.486   4.320  0.7371  1.7925 -0.0846
  583MOL0     H78690   7.683   0.602   4.132 -0.3671 -0.4718  1.9048
  583MOL0     H78691   9.112   1.440   3.590  0.4095  0.0778  0.1003
  583MOL0     H78692   9.337   1.418   3.625 -2.3291  3.2165 -0.9534
  583MOL0     H78693   9.721   1.166   3.611 -0.0119 -0.1860  0.4439
  583MOL0     H78694   9.956   1.100   3.625  1.2958 -1.3981 -1.3387
  583MOL0     H78695  10.186   1.108   3.643 -1.6855 -3.5264  0.5405
  583MOL0     H78696  10.142   0.990   3.525 -0.1287 -0.1216 -1.2647
  583MOL0     H78697  10.377   1.026   3.411  0.8114 -1.8466  0.3299
  583MOL0     H78698  10.377   0.978   3.589 -2.3092 -0.6057  0.4940
  583MOL0     H78699  10.415   1.203   3.658  0.6122 -1.1767 -0.1437
  583MOL0     H78700  10.383   1.257   3.485  2.5590  2.7465  0.9504
  583MOL0     H78701  10.618   1.262   3.583 -0.2870  2.0833 -1.7565
  583MOL0     H78702  10.596   1.180   3.429  1.1914 -0.5507  0.4491
  583MOL0     H78703  10.729   0.877   3.703 -0.6384 -1.2097 -1.7115
  583MOL0     H78704  10.028   1.322   3.272  1.0634 -1.3280  1.1540
  583MOL0     H78705   9.812   1.376   3.246  2.7620 -1.8849 -2.0609
  584MOL0     O78706   0.531   1.281   3.211 -0.0448  0.0356  0.2260
  584MOL0     C78707   0.531   1.228   3.324 -1.2564 -0.2511  0.7804
  584MOL0     O78708   0.641   1.178   3.400 -0.2911  0.3257  0.2570
  584MOL0     C78709   0.771   1.181   3.352  1.0918  0.1152  0.2183
  584MOL0     C78710   0.825   1.245   3.240 -0.3197 -0.1315  0.4075
  584MOL0     C78711   0.968   1.243   3.217 -0.4129 -0.3903 -0.1569
  584MOL0     C78712   1.052   1.159   3.295  0.1654  0.9148 -0.0624
  584MOL0     O78713   1.181   1.166   3.269 -0.1483  0.6905  0.2637
  584MOL0     C78714   1.265   1.062   3.295 -0.1293  0.1773  0.1673
  584MOL0     C78715   1.411   1.090   3.245  0.5851 -0.9889 -0.3160
  584MOL0     C78716   1.512   1.014   3.329 -1.0025  0.3918  0.7295
  584MOL0     C78717   1.487   0.864   3.351 -0.0606  0.3624  0.4925
  584MOL0     C78718   1.607   0.805   3.408  0.0091  0.2044 -1.4054
  584MOL0     C78719   1.594   0.642   3.419  0.6736 -0.4579 -0.6047
  584MOL0     C78720   1.719   0.578   3.476 -0.0951 -0.0145 -0.1067
  584MOL0     C78721   1.838   0.567   3.384 -0.4643  0.1446  0.2708
  584MOL0     N78722   1.946   0.477   3.426 -0.2476  0.4938 -0.0489
  584MOL0     C78723   1.975   0.446   3.562 -0.2951  0.6666 -0.1171
  584MOL0     C78724   2.082   0.369   3.551  0.3743  0.3741 -0.4566
  584MOL0     C78725   2.152   0.299   3.665 -0.8233 -0.0930  0.8394
  584MOL0     C78726   2.221   0.165   3.620 -0.5972 -0.7388  0.0338
  584MOL0     C78727   2.358   0.185   3.556 -0.4469 -1.1692 -0.1907
  584MOL0     C78728   2.454   0.276   3.640  0.3507 -0.0059  0.4245
  584MOL0     O78729   2.582   0.255   3.584 -0.8648 -0.5027  0.0057
  584MOL0     C78730   2.658   0.138   3.616  0.2558 -0.2617  0.3175
  584MOL0     C78731   2.713   0.062   3.520  0.0146  0.5809  0.4940
  584MOL0     C78732   2.792  -0.060   3.551 -0.0586 -0.9092  0.6724
  584MOL0     C78733   2.854  -0.125   3.423 -0.4529  0.5894 -0.3026
  584MOL0     C78734   2.805  -0.105   3.681 -0.2067  0.1271 -0.3786
  584MOL0     C78735   2.846  -0.243   3.720 -0.9938  0.2096 -1.8957
  584MOL0     O78736   2.842  -0.276   3.854 -0.0513  0.2457 -0.4003
  584MOL0     C78737   2.915  -0.382   3.895 -0.2301  0.2455  0.2628
  584MOL0     C78738   2.858  -0.510   3.911 -0.2236  0.2728 -0.3416
  584MOL0     C78739   2.933  -0.624   3.951  0.5964  1.0058  0.3488
  584MOL0     C78740   3.063  -0.612   3.993  0.0189 -0.7763  0.1274
  584MOL0     O78741   3.137  -0.712   4.041  0.4085 -0.8434  0.4392
  584MOL0     C78742   3.152  -0.824   3.948 -0.5918 -0.1752  0.4905
  584MOL0     C78743   3.249  -0.925   4.010  1.2167 -0.6677  0.0828
  584MOL0     C78744   3.206  -1.000   4.142  0.2217  0.1454  0.5989
  584MOL0     C78745   3.258  -0.923   4.258 -0.0456  0.5414  0.1458
  584MOL0     C78746   3.239  -0.997   4.392 -0.9635  0.5591  0.2758
  584MOL0     C78747   3.101  -1.018   4.437  0.8640  0.0221 -0.2060
  584MOL0     C78748   3.070  -1.119   4.552  0.2116 -0.1108 -0.2366
  584MOL0     C78749   2.934  -1.092   4.601  0.1099 -0.2441 -0.5410
  584MOL0    Cl78750   2.888  -1.193   4.743 -0.0494  0.4254  0.0115
  584MOL0     C78751   3.128  -0.480   3.965  0.7591  0.2800  0.4443
  584MOL0     C78752   3.056  -0.375   3.920 -0.2451 -0.3800 -0.7368
  584MOL0     O78753   2.853  -0.324   3.632 -0.0866  0.1802  0.2774
  584MOL0     C78754   2.761  -0.022   3.778 -0.4696 -0.2429 -0.4993
  584MOL0     C78755   2.685   0.098   3.746 -1.0079  0.2964  0.2566
  584MOL0     N78756   2.121   0.356   3.421 -0.2030 -0.0626  0.0502
  584MOL0     N78757   2.045   0.423   3.344  0.0498  0.3183 -0.5630
  584MOL0     C78758   0.990   1.089   3.401 -1.5003  0.0962 -0.3620
  584MOL0     C78759   0.853   1.097   3.424  0.0446 -0.1482 -0.6558
  584MOL0     C78760   0.407   1.214   3.390  0.4913  0.0868 -0.1037
  584MOL0     C78761   0.379   1.123   3.493 -0.3491 -0.0231 -0.3539
  584MOL0     C78762   0.255   1.126   3.559 -0.0526  0.8737  0.5876
  584MOL0     C78763   0.147   1.209   3.516  0.5506  0.3596  0.4752
  584MOL0     O78764   0.023   1.209   3.577 -0.3012  0.7720  0.1647
  584MOL0     C78765  -0.069   1.305   3.549  0.2775  0.0014  0.6929
  584MOL0     C78766  -0.205   1.289   3.616  0.0448  0.8087  0.1148
  584MOL0     C78767  -0.275   1.421   3.630 -1.0649  0.4196  0.5528
  584MOL0     C78768  -0.414   1.422   3.668 -0.0391  0.0453  0.1197
  584MOL0     C78769  -0.494   1.336   3.575 -0.4506 -0.0478 -0.6100
  584MOL0     C78770  -0.570   1.265   3.508 -0.5791 -0.5113 -0.0682
  584MOL0     C78771   0.172   1.289   3.407 -0.2090 -0.9713 -0.0054
  584MOL0     C78772   0.297   1.298   3.347  0.3091 -0.0321  0.8850
  584MOL0     H78773   0.770   1.317   3.181  1.1274 -1.4822 -2.8748
  584MOL0     H78774   1.006   1.300   3.133 -3.0971 -0.7450 -1.7132
  584MOL0     H78775   1.261   1.039   3.402 -0.8820  0.9343  0.3109
  584MOL0     H78776   1.231   0.973   3.242  1.8566  0.2437 -1.3622
  584MOL0     H78777   1.424   1.085   3.137  2.1049 -0.5200 -0.1796
  584MOL0     H78778   1.431   1.197   3.256 -1.2964 -0.5578 -0.6906
  584MOL0     H78779   1.603   1.016   3.268  0.5076 -1.6596  2.7298
  584MOL0     H78780   1.546   1.063   3.421 -0.1264  0.5276  0.3491
  584MOL0     H78781   1.411   0.838   3.425  3.0019  0.6721  3.9733
  584MOL0     H78782   1.459   0.814   3.257  1.0388 -0.5142  0.6187
  584MOL0     H78783   1.699   0.830   3.355  0.9588 -3.8659 -2.0082
  584MOL0     H78784   1.620   0.844   3.509  1.4529  0.0771 -1.5285
  584MOL0     H78785   1.509   0.612   3.480  3.1082 -2.2706  2.1170
  584MOL0     H78786   1.559   0.598   3.325 -0.3176 -1.6845  0.3007
  584MOL0     H78787   1.750   0.634   3.564  0.4325 -2.4068  1.3248
  584MOL0     H78788   1.695   0.474   3.503  2.5986 -1.9461 -4.1857
  584MOL0     H78789   1.879   0.667   3.366  2.4146 -0.6141  1.9614
  584MOL0     H78790   1.804   0.523   3.290  1.8243 -0.5798 -0.2906
  584MOL0     H78791   1.929   0.488   3.651 -1.3221 -0.3911 -0.1304
  584MOL0     H78792   2.219   0.367   3.719  0.3483 -2.3371  2.3421
  584MOL0     H78793   2.075   0.264   3.734 -0.8552 -2.0917 -0.1286
  584MOL0     H78794   2.163   0.104   3.550 -1.0431  1.5839 -1.7322
  584MOL0     H78795   2.228   0.091   3.700 -4.1589 -0.7138  0.5348
  584MOL0     H78796   2.354   0.221   3.452  1.2261 -2.0487 -0.5992
  584MOL0     H78797   2.403   0.086   3.558  2.4921  0.0211 -1.2336
  584MOL0     H78798   2.444   0.256   3.747 -0.5298 -1.4357  0.1029
  584MOL0     H78799   2.429   0.382   3.629  1.4012  0.0257 -3.1134
  584MOL0     H78800   2.700   0.110   3.424 -1.1567  0.5582  0.6173
  584MOL0     H78801   2.835  -0.078   3.326 -1.0533 -0.9419 -0.9721
  584MOL0     H78802   2.959  -0.152   3.439 -0.5261  0.2747 -0.3388
  584MOL0     H78803   2.807  -0.222   3.404  1.8484 -0.5593 -0.5753
  584MOL0     H78804   2.753  -0.519   3.886 -0.2482  0.8755 -0.4690
  584MOL0     H78805   2.875  -0.716   3.961  1.5409  0.5970  2.7961
  584MOL0     H78806   3.056  -0.863   3.913  0.6233 -2.1919 -0.7796
  584MOL0     H78807   3.196  -0.788   3.855  0.4531 -2.4913  0.0124
  584MOL0     H78808   3.275  -0.995   3.930 -1.6932 -1.1083 -0.6060
  584MOL0     H78809   3.338  -0.864   4.029  1.1381 -0.7152  0.6031
  584MOL0     H78810   3.257  -1.096   4.148  1.9393  1.0191  0.6361
  584MOL0     H78811   3.098  -1.013   4.136  0.4749 -1.5892 -1.9947
  584MOL0     H78812   3.366  -0.910   4.247  0.0878 -1.5476 -1.7784
  584MOL0     H78813   3.211  -0.824   4.263  1.0107  1.0159  1.0002
  584MOL0     H78814   3.303  -0.948   4.466  1.9634  2.9008 -3.4246
  584MOL0     H78815   3.276  -1.097   4.369 -1.7978  0.6372 -1.6652
  584MOL0     H78816   3.066  -0.921   4.472 -2.3795 -1.5750  1.4624
  584MOL0     H78817   3.048  -1.051   4.347  2.6496 -0.1266 -1.2366
  584MOL0     H78818   3.131  -1.114   4.642  0.8530  1.8991 -0.7275
  584MOL0     H78819   3.076  -1.225   4.524  0.2471 -0.8389  2.2990
  584MOL0     H78820   2.857  -1.111   4.526 -1.0569 -0.2352  0.6295
  584MOL0     H78821   2.926  -0.986   4.626 -0.3028 -0.1634 -1.0062
  584MOL0     H78822   3.234  -0.464   3.981  0.4299  0.7149  2.5196
  584MOL0     H78823   3.095  -0.277   3.895 -3.3952  1.4551  0.8699
  584MOL0     H78824   2.778  -0.051   3.881 -0.3604  2.1262  0.2035
  584MOL0     H78825   2.653   0.165   3.824 -0.0283  0.1346  0.8186
  584MOL0     H78826   1.044   1.027   3.473 -2.1514 -0.4647 -0.3428
  584MOL0     H78827   0.812   1.043   3.508  0.7718 -0.5689 -0.5648
  584MOL0     H78828   0.462   1.062   3.526  0.4213  1.3847  0.4204
  584MOL0     H78829   0.232   1.048   3.630  2.3202 -1.3851 -0.9779
  584MOL0     H78830  -0.030   1.398   3.590 -0.2624 -0.5662  2.5997
  584MOL0     H78831  -0.090   1.308   3.441 -0.6658  0.5265  0.8854
  584MOL0     H78832  -0.200   1.233   3.710 -1.8787  1.3455  0.5805
  584MOL0     H78833  -0.254   1.228   3.540 -0.9214 -0.5214  1.7279
  584MOL0     H78834  -0.276   1.469   3.532 -2.4157 -0.9132 -0.1456
  584MOL0     H78835  -0.224   1.476   3.709 -1.0591 -0.9547  1.5614
  584MOL0     H78836  -0.458   1.520   3.647  1.5960  0.6558 -0.6785
  584MOL0     H78837  -0.429   1.374   3.765  1.4787  0.1947  0.4591
  584MOL0     H78838  -0.618   1.189   3.450  1.5828 -1.8528 -0.2256
  584MOL0     H78839   0.111   1.373   3.378  0.8106  0.2597  1.3056
  584MOL0     H78840   0.315   1.363   3.262 -2.2687 -1.7564 -1.1344
  585MOL0     O78841   7.366  10.612   7.956 -0.2586  0.2174  0.2862
  585MOL0     C78842   7.251  10.581   7.981  0.1293 -0.8182 -0.0082
  585MOL0     O78843   7.157  10.562   7.886  1.2761  0.0362 -0.4012
  585MOL0     C78844   7.183  10.574   7.758 -0.6963 -0.0329 -0.9476
  585MOL0     C78845   7.289  10.515   7.686 -0.1186  0.1190 -0.0763
  585MOL0     C78846   7.322  10.564   7.560  0.5976  0.5517  0.0936
  585MOL0     C78847   7.255  10.666   7.499 -0.6380 -1.2953  0.0041
  585MOL0     O78848   7.304  10.720   7.378 -0.3905 -0.0251  0.5543
  585MOL0     C78849   7.212  10.754   7.279  0.8701  0.2847  0.2834
  585MOL0     C78850   7.270  10.846   7.177  0.9388  0.3295  0.3142
  585MOL0     C78851   7.414  10.800   7.142  1.5139 -0.7268  0.0866
  585MOL0     C78852   7.460  10.896   7.033 -0.8839 -0.5436  0.4444
  585MOL0     C78853   7.605  10.872   6.993 -0.0351 -0.1856 -1.0869
  585MOL0     C78854   7.678  10.972   6.907  0.3908  0.0165 -0.4575
  585MOL0     C78855   7.837  10.969   6.921 -0.5681 -0.1958 -0.0394
  585MOL0     C78856   7.903  10.852   6.846  0.1902  0.2657 -0.6380
  585MOL0     N78857   7.901  10.725   6.919 -0.1185  0.1524 -0.8265
  585MOL0     C78858   7.890  10.698   7.057  0.0576 -0.0377  1.5507
  585MOL0     C78859   7.874  10.563   7.061 -0.1743  0.2862 -0.0827
  585MOL0     C78860   7.860  10.474   7.185 -0.2128 -0.1053 -0.7803
  585MOL0     C78861   7.711  10.428   7.219  0.2427 -0.9928  0.7857
  585MOL0     C78862   7.655  10.324   7.125  0.1169 -0.1417 -0.2575
  585MOL0     C78863   7.525  10.272   7.189 -0.3790 -0.5384 -0.8968
  585MOL0     O78864   7.473  10.164   7.106  0.4211 -0.0298  0.2049
  585MOL0     C78865   7.395  10.197   6.993  0.0840  0.5190 -0.4154
  585MOL0     C78866   7.360  10.324   6.951 -0.7984  0.4634  0.6350
  585MOL0     C78867   7.275  10.352   6.839 -0.2935  0.3060  0.2234
  585MOL0     C78868   7.237  10.497   6.810  0.2841 -0.8203  0.4141
  585MOL0     C78869   7.238  10.238   6.757  0.7112 -0.1457  0.0953
  585MOL0     C78870   7.164  10.264   6.630 -0.6035 -0.1367 -0.6059
  585MOL0     O78871   7.090  10.155   6.585  0.0052 -0.3434 -0.3705
  585MOL0     C78872   7.067  10.146   6.450 -1.7209 -0.2591  0.1865
  585MOL0     C78873   7.179  10.154   6.354  1.2792 -0.9073  0.2672
  585MOL0     C78874   7.155  10.126   6.214 -0.3381  0.7006 -0.2173
  585MOL0     C78875   7.023  10.098   6.169 -0.4630  0.7499 -0.3940
  585MOL0     O78876   6.996  10.060   6.036  0.6028 -0.4094  0.2912
  585MOL0     C78877   7.051  10.143   5.936 -0.1781 -0.9150 -0.2001
  585MOL0     C78878   7.171  10.066   5.856 -0.0187  0.0235 -0.4545
  585MOL0     C78879   7.210  10.124   5.713 -0.6846  0.9270 -0.0173
  585MOL0     C78880   7.136  10.078   5.588 -0.5157  0.7407  0.4706
  585MOL0     C78881   7.191  10.142   5.461 -0.3974  0.1232  0.6351
  585MOL0     C78882   7.155  10.059   5.330 -0.0510 -0.6368  1.0927
  585MOL0     C78883   7.155  10.155   5.209  0.7057 -0.3788 -0.0775
  585MOL0     C78884   7.284  10.230   5.169 -0.3383  0.2643  0.7490
  585MOL0    Cl78885   7.251  10.342   5.034  0.6647 -0.0720 -0.2061
  585MOL0     C78886   6.921  10.086   6.271  0.1020  0.1925 -0.1110
  585MOL0     C78887   6.938  10.109   6.408  0.8089 -0.0521  0.1247
  585MOL0     O78888   7.193  10.359   6.561 -0.0599  0.1524 -0.5144
  585MOL0     C78889   7.270  10.107   6.788  0.3475 -0.1272 -0.6806
  585MOL0     C78890   7.346  10.089   6.912  0.1865  0.6145 -0.4425
  585MOL0     N78891   7.876  10.516   6.935 -0.1931  0.8649 -0.8847
  585MOL0     N78892   7.890  10.607   6.848  0.0513  0.3864  0.0331
  585MOL0     C78893   7.141  10.720   7.563 -0.7587  0.4577 -0.3321
  585MOL0     C78894   7.113  10.670   7.697  0.2543 -0.9536  1.2021
  585MOL0     C78895   7.214  10.567   8.123  0.5267 -0.2834  0.0431
  585MOL0     C78896   7.081  10.584   8.158 -0.0258 -0.4873  0.1815
  585MOL0     C78897   7.033  10.560   8.285 -0.0252  0.2280  1.9275
  585MOL0     C78898   7.117  10.515   8.383  0.1436  0.8043 -0.6798
  585MOL0     O78899   7.076  10.479   8.515  0.2361  0.1378 -0.0055
  585MOL0     C78900   6.937  10.475   8.548  0.1913  0.6750  0.0469
  585MOL0     C78901   6.915  10.386   8.666 -0.9416  0.1622 -0.1165
  585MOL0     C78902   6.964  10.240   8.631  0.1385 -0.8335  0.7464
  585MOL0     C78903   6.975  10.158   8.759  1.1119  0.5536 -0.4208
  585MOL0     C78904   7.049  10.028   8.757 -0.1469 -0.6356 -0.3512
  585MOL0     C78905   7.108   9.925   8.749 -0.4761  0.0134  0.1963
  585MOL0     C78906   7.253  10.499   8.351 -1.5348 -0.3726 -0.1396
  585MOL0     C78907   7.306  10.531   8.224 -0.3731  0.0702  0.2762
  585MOL0     H78908   7.342  10.436   7.738 -2.0040 -1.9572 -1.1547
  585MOL0     H78909   7.417  10.525   7.523  2.7974  3.5351  2.0748
  585MOL0     H78910   7.160  10.670   7.232 -1.1332  1.4965  0.2269
  585MOL0     H78911   7.130  10.813   7.321  2.7900  2.2157  1.5328
  585MOL0     H78912   7.208  10.843   7.087  5.5874  1.1744 -3.3257
  585MOL0     H78913   7.263  10.949   7.214 -0.0502 -0.4247  2.3834
  585MOL0     H78914   7.480  10.806   7.230  2.4540  1.6983 -0.6946
  585MOL0     H78915   7.401  10.700   7.101  0.4886 -0.1309 -1.0663
  585MOL0     H78916   7.397  10.896   6.944 -0.7794  2.4241  0.2635
  585MOL0     H78917   7.453  11.003   7.055  1.8758 -0.2660  0.3480
  585MOL0     H78918   7.655  10.881   7.090  0.0078  3.2146 -1.2913
  585MOL0     H78919   7.610  10.771   6.952 -1.4492  0.9870 -4.4775
  585MOL0     H78920   7.653  10.965   6.801  0.7396 -0.6315 -0.4985
  585MOL0     H78921   7.647  11.075   6.929  0.1850 -0.4731  1.7528
  585MOL0     H78922   7.877  11.062   6.880 -1.6944  1.1671  1.7768
  585MOL0     H78923   7.856  10.970   7.029  2.0070 -0.9446 -0.4364
  585MOL0     H78924   8.010  10.868   6.831  0.1259 -0.3306 -1.9216
  585MOL0     H78925   7.845  10.844   6.753 -0.9695 -1.0910  0.1602
  585MOL0     H78926   7.906  10.767   7.139  2.2043 -1.4769  2.4474
  585MOL0     H78927   7.923  10.385   7.169 -1.2979 -0.8433 -1.0343
  585MOL0     H78928   7.878  10.529   7.278 -0.6078  1.1389 -1.4254
  585MOL0     H78929   7.647  10.516   7.209  3.1064  1.4345  2.0778
  585MOL0     H78930   7.711  10.389   7.321  0.4550  3.2259  2.5874
  585MOL0     H78931   7.715  10.233   7.118 -1.6795 -1.2401 -3.5691
  585MOL0     H78932   7.638  10.364   7.025  1.8552  1.3931  0.0110
  585MOL0     H78933   7.447  10.346   7.208 -0.6677 -1.7777  4.2285
  585MOL0     H78934   7.553  10.227   7.285 -2.5061  1.8701  1.0119
  585MOL0     H78935   7.399  10.406   7.010  2.2932 -0.3544 -0.0685
  585MOL0     H78936   7.292  10.526   6.721 -0.0374 -1.6491 -0.0614
  585MOL0     H78937   7.132  10.510   6.782  0.9811  2.1568 -1.2575
  585MOL0     H78938   7.261  10.562   6.895 -4.1929  0.7205  0.7910
  585MOL0     H78939   7.269  10.198   6.396  0.2733  0.4455  1.1045
  585MOL0     H78940   7.222  10.130   6.129 -1.3041 -2.2042 -1.2462
  585MOL0     H78941   6.973  10.182   5.871  0.3443  0.0183 -0.2833
  585MOL0     H78942   7.086  10.236   5.981 -2.9326  2.2185 -3.8894
  585MOL0     H78943   7.259  10.095   5.915 -0.1118  2.4506 -1.4027
  585MOL0     H78944   7.152   9.958   5.854 -2.2001  0.3671 -0.4864
  585MOL0     H78945   7.318  10.116   5.702 -0.7953 -1.6790  0.0567
  585MOL0     H78946   7.191  10.229   5.735 -3.9015  0.4130  0.2135
  585MOL0     H78947   7.161   9.971   5.580  0.4100  0.8783  1.3093
  585MOL0     H78948   7.029  10.087   5.606 -0.4313  1.1891  0.7396
  585MOL0     H78949   7.301  10.141   5.462 -0.3738 -2.2198  1.1124
  585MOL0     H78950   7.156  10.246   5.464  0.9597  0.5790  2.3828
  585MOL0     H78951   7.218   9.972   5.310 -0.5396 -0.2529 -3.0296
  585MOL0     H78952   7.049  10.035   5.341 -0.6995  1.2643 -0.4980
  585MOL0     H78953   7.071  10.223   5.226 -0.8515 -2.7452  2.5629
  585MOL0     H78954   7.129  10.102   5.116 -4.5893  0.7787  0.4011
  585MOL0     H78955   7.362  10.162   5.131 -2.4404 -0.5485 -2.5021
  585MOL0     H78956   7.325  10.286   5.253 -1.0825 -0.3391  1.5307
  585MOL0     H78957   6.824  10.045   6.244 -0.7395  0.9763  1.6150
  585MOL0     H78958   6.854  10.087   6.474  1.1161 -1.7139  0.0023
  585MOL0     H78959   7.242  10.018   6.732 -1.0610  0.7303 -1.4104
  585MOL0     H78960   7.350   9.983   6.935  1.8199  0.4621 -1.2672
  585MOL0     H78961   7.084  10.800   7.517  0.2850  0.3098 -1.9696
  585MOL0     H78962   7.042  10.736   7.746  1.3389  0.6923  0.6486
  585MOL0     H78963   7.009  10.623   8.086 -0.8390  1.6787  2.0366
  585MOL0     H78964   6.928  10.584   8.304 -0.6600 -1.7707  1.1741
  585MOL0     H78965   6.913  10.580   8.563  2.0022  2.0310 -4.6953
  585MOL0     H78966   6.887  10.428   8.463  1.0392 -0.1899  0.0084
  585MOL0     H78967   6.808  10.389   8.688 -0.2819  1.2885  3.6754
  585MOL0     H78968   6.963  10.427   8.755 -1.2395 -2.9575  1.6031
  585MOL0     H78969   7.062  10.231   8.583  0.6041 -0.6862  1.6492
  585MOL0     H78970   6.891  10.202   8.559  0.2540  3.8681 -2.3458
  585MOL0     H78971   6.870  10.130   8.772  1.1225 -0.1744 -1.6838
  585MOL0     H78972   6.996  10.206   8.855  2.1584 -2.5304  1.0246
  585MOL0     H78973   7.174   9.843   8.725  0.1923  1.0629 -1.8410
  585MOL0     H78974   7.314  10.461   8.431 -2.8564  0.7592  1.4806
  585MOL0     H78975   7.413  10.525   8.205  0.2599  2.7820  2.3902
  586MOL0     O78976   5.281   9.066   4.005  0.2702 -0.2184 -0.2512
  586MOL0     C78977   5.205   9.166   4.006  0.2176  0.3404  0.2013
  586MOL0     O78978   5.150   9.214   3.901  0.1388 -0.0573 -0.4199
  586MOL0     C78979   5.159   9.160   3.779 -0.4191  0.2890 -0.5554
  586MOL0     C78980   5.044   9.154   3.700 -0.0852  0.1144 -0.2804
  586MOL0     C78981   5.050   9.104   3.574 -0.0619 -0.2195 -0.3316
  586MOL0     C78982   5.170   9.065   3.510 -0.4843 -0.0819 -0.2163
  586MOL0     O78983   5.194   9.022   3.380  0.6246 -0.8761 -0.1877
  586MOL0     C78984   5.078   9.005   3.301  1.1557 -0.0386 -0.2109
  586MOL0     C78985   5.044   9.124   3.210 -0.5979 -0.0786  0.1679
  586MOL0     C78986   5.160   9.161   3.110 -0.2263  0.0516  0.2174
  586MOL0     C78987   5.108   9.136   2.963 -0.6373 -0.3963 -0.0148
  586MOL0     C78988   5.200   9.195   2.857 -0.3524 -0.2220 -0.3861
  586MOL0     C78989   5.137   9.175   2.718  1.0660 -0.7666  0.3891
  586MOL0     C78990   5.187   9.269   2.612 -0.2303 -0.2623  0.0482
  586MOL0     C78991   5.191   9.225   2.465  0.5213  0.5908  0.9418
  586MOL0     N78992   5.258   9.324   2.379 -0.6808 -0.1935  0.8789
  586MOL0     C78993   5.383   9.366   2.392  0.1393 -0.1892  0.2607
  586MOL0     C78994   5.399   9.465   2.300  0.6835  0.7665 -0.1645
  586MOL0     C78995   5.525   9.541   2.265  0.1465  0.9478  1.0139
  586MOL0     C78996   5.602   9.467   2.147  0.6089 -0.1321  0.1066
  586MOL0     C78997   5.647   9.542   2.028  0.3736 -0.6484  0.9153
  586MOL0     C78998   5.776   9.468   1.967  0.5473 -0.2068  0.1316
  586MOL0     O78999   5.876   9.434   2.061  0.1741  0.2924  0.2506
  586MOL0     C79000   6.003   9.455   2.017  0.2168  1.2092  0.0105
  586MOL0     C79001   6.097   9.457   2.127 -0.9162 -0.8690 -0.4769
  586MOL0     C79002   6.243   9.476   2.113 -0.4617 -0.2667  0.2151
  586MOL0     C79003   6.321   9.478   2.238  0.4469  0.8534  0.5695
  586MOL0     C79004   6.290   9.494   1.983 -0.5782  0.2280  0.4494
  586MOL0     C79005   6.434   9.539   1.956  0.6759 -0.1396  0.6110
  586MOL0     O79006   6.475   9.527   1.821 -0.3530 -0.3996  0.2974
  586MOL0     C79007   6.591   9.595   1.781  0.1005  0.4774  0.9349
  586MOL0     C79008   6.708   9.524   1.770 -0.0464 -0.5417 -0.9999
  586MOL0     C79009   6.824   9.596   1.727  0.4074  0.0374  0.0541
  586MOL0     C79010   6.811   9.727   1.694  0.0068  0.1655  0.2970
  586MOL0     O79011   6.915   9.768   1.618 -0.7510  0.6467  0.3699
  586MOL0     C79012   6.894   9.811   1.479 -0.7403  0.9309  0.6832
  586MOL0     C79013   7.015   9.879   1.419 -0.2045 -0.0020  0.6847
  586MOL0     C79014   7.001   9.870   1.269  0.8875  0.6106 -0.2651
  586MOL0     C79015   7.109   9.952   1.205 -0.2412 -0.5997 -0.2298
  586MOL0     C79016   7.100   9.961   1.052 -0.6360 -0.2025 -0.3832
  586MOL0     C79017   7.233  10.004   1.000 -0.2735  0.6014 -0.1835
  586MOL0     C79018   7.243  10.011   0.842 -0.5111  0.5228 -0.6505
  586MOL0     C79019   7.382  10.060   0.789 -0.5085 -0.0163 -0.3716
  586MOL0    Cl79020   7.341  10.138   0.629  0.8060  0.0015  0.3353
  586MOL0     C79021   6.695   9.793   1.696 -0.4440 -0.2332 -0.3084
  586MOL0     C79022   6.586   9.732   1.754  0.1987 -0.1690  0.3475
  586MOL0     O79023   6.496   9.590   2.049 -0.3594 -0.0975 -0.3092
  586MOL0     C79024   6.203   9.490   1.874  0.7730  0.5311 -0.2967
  586MOL0     C79025   6.062   9.457   1.893 -0.5980  0.0874 -0.3023
  586MOL0     N79026   5.280   9.474   2.230 -0.7559 -0.6463  1.3272
  586MOL0     N79027   5.194   9.394   2.280  0.2433 -0.1905 -0.5411
  586MOL0     C79028   5.286   9.073   3.595  1.1835 -0.1814  0.2157
  586MOL0     C79029   5.282   9.121   3.728  0.3622 -0.0512  0.5221
  586MOL0     C79030   5.199   9.240   4.137 -0.4512 -0.0123  0.7265
  586MOL0     C79031   5.250   9.183   4.255 -0.1010  0.0659 -0.1521
  586MOL0     C79032   5.225   9.240   4.380 -0.2104  0.1030 -0.1769
  586MOL0     C79033   5.169   9.372   4.392  0.4326 -0.3334  0.8641
  586MOL0     O79034   5.129   9.420   4.512 -0.0130  0.1714  0.3813
  586MOL0     C79035   5.024   9.334   4.569  0.3062 -0.3298  0.2602
  586MOL0     C79036   4.968   9.407   4.693 -0.7784  0.2426  0.7067
  586MOL0     C79037   4.832   9.356   4.739  0.1142 -0.4404  0.6673
  586MOL0     C79038   4.772   9.446   4.848  0.2474 -0.5994 -0.5339
  586MOL0     C79039   4.647   9.389   4.894  0.0800 -0.5393 -0.0757
  586MOL0     C79040   4.544   9.347   4.933  0.3226  0.9981 -0.7885
  586MOL0     C79041   5.139   9.427   4.272  0.0432 -1.0110 -0.2581
  586MOL0     C79042   5.155   9.372   4.144 -0.1338  0.2261  1.0038
  586MOL0     H79043   4.953   9.194   3.743  0.0555  2.1160 -1.7008
  586MOL0     H79044   4.955   9.100   3.522 -0.9990  1.9151  1.0721
  586MOL0     H79045   5.096   8.919   3.236  1.5792 -0.8850  0.9804
  586MOL0     H79046   4.991   8.980   3.361  0.7089 -1.2025 -1.3009
  586MOL0     H79047   4.957   9.091   3.152 -0.4149 -2.5678  1.2098
  586MOL0     H79048   5.032   9.217   3.267  2.0358  1.7499 -2.0000
  586MOL0     H79049   5.198   9.261   3.132  3.9696 -1.9972  3.9455
  586MOL0     H79050   5.242   9.093   3.133 -0.8691 -0.7209  0.2717
  586MOL0     H79051   5.096   9.028   2.955 -0.3025 -0.7217  2.8048
  586MOL0     H79052   5.009   9.183   2.969  0.4494  1.8530  4.1322
  586MOL0     H79053   5.204   9.302   2.878 -1.6185 -0.4625  1.2750
  586MOL0     H79054   5.301   9.153   2.859  1.0359  2.8499  1.8742
  586MOL0     H79055   5.152   9.069   2.696 -1.4432 -1.8930  3.2941
  586MOL0     H79056   5.029   9.184   2.730  0.9746 -1.5949  0.2440
  586MOL0     H79057   5.117   9.352   2.611  0.5951  0.4496  0.4654
  586MOL0     H79058   5.288   9.301   2.640 -0.0823  0.8859 -1.6370
  586MOL0     H79059   5.087   9.220   2.432  0.6429  1.4732  0.3966
  586MOL0     H79060   5.235   9.125   2.451  0.0257  0.6148 -1.1312
  586MOL0     H79061   5.454   9.340   2.471 -0.2415  1.3280  1.1416
  586MOL0     H79062   5.492   9.643   2.240 -0.3062  0.3664 -0.9682
  586MOL0     H79063   5.599   9.526   2.344 -1.0100 -2.6130  1.5853
  586MOL0     H79064   5.532   9.392   2.109  0.2927 -0.0751  0.5618
  586MOL0     H79065   5.676   9.409   2.202  0.2245  1.8574  2.9727
  586MOL0     H79066   5.668   9.648   2.041  1.4411 -0.1893 -3.1330
  586MOL0     H79067   5.565   9.531   1.956 -1.3949  0.2866  2.7013
  586MOL0     H79068   5.819   9.540   1.897  0.6022  0.0950  0.4687
  586MOL0     H79069   5.758   9.370   1.923 -1.0431  0.6633 -1.2863
  586MOL0     H79070   6.055   9.451   2.227 -3.4391  1.2498 -1.2957
  586MOL0     H79071   6.261   9.425   2.313 -0.5431  0.8597 -0.1969
  586MOL0     H79072   6.411   9.416   2.225 -1.6664 -2.4484  0.5542
  586MOL0     H79073   6.341   9.582   2.265  1.4171  0.4202  1.6294
  586MOL0     H79074   6.710   9.417   1.781  2.1170 -0.6546 -1.9607
  586MOL0     H79075   6.917   9.542   1.714  0.6749  0.1195  1.4800
  586MOL0     H79076   6.856   9.725   1.424  0.4290 -0.4169  1.8879
  586MOL0     H79077   6.816   9.887   1.480  1.5609  3.4300  1.5813
  586MOL0     H79078   7.016   9.983   1.453 -3.8237  0.5753 -0.4829
  586MOL0     H79079   7.109   9.833   1.451 -0.8667 -0.6685  1.7456
  586MOL0     H79080   6.908   9.916   1.235  0.4616  0.2851  0.4180
  586MOL0     H79081   7.013   9.766   1.239  0.6295  0.7284 -0.7943
  586MOL0     H79082   7.111  10.057   1.235  2.3199 -0.3083 -1.2062
  586MOL0     H79083   7.205   9.904   1.228  0.8901  0.7355 -1.9663
  586MOL0     H79084   7.018  10.029   1.026 -0.7656 -0.3410 -0.3420
  586MOL0     H79085   7.077   9.858   1.024  1.9321 -1.0114  0.2148
  586MOL0     H79086   7.272  10.098   1.041  1.1138  0.2875 -0.6976
  586MOL0     H79087   7.300   9.928   1.043  0.5293  2.4994  2.1506
  586MOL0     H79088   7.160  10.079   0.818 -0.5702  1.7183  2.4674
  586MOL0     H79089   7.209   9.919   0.794 -1.8288  0.4797  0.2993
  586MOL0     H79090   7.459   9.985   0.769  0.1307 -0.5203  3.1970
  586MOL0     H79091   7.425  10.127   0.864  0.9721 -3.8102  2.5037
  586MOL0     H79092   6.690   9.895   1.659 -3.9632  0.5306  1.7498
  586MOL0     H79093   6.495   9.788   1.773  0.3468  0.1171  0.2262
  586MOL0     H79094   6.235   9.493   1.770 -2.4118  2.1908 -1.3684
  586MOL0     H79095   5.995   9.461   1.807 -1.7661  4.1563  0.5789
  586MOL0     H79096   5.371   9.030   3.541  0.5286 -3.2576  1.4414
  586MOL0     H79097   5.369   9.112   3.792 -0.8022 -1.4788  1.9945
  586MOL0     H79098   5.297   9.086   4.244  1.2953  0.7852 -0.8041
  586MOL0     H79099   5.240   9.178   4.468 -0.5591 -0.9497 -0.8515
  586MOL0     H79100   4.953   9.312   4.490  0.9080 -2.1711  0.1923
  586MOL0     H79101   5.051   9.232   4.597 -2.6003 -1.1477  0.3834
  586MOL0     H79102   4.955   9.515   4.679  0.8281  0.3230 -0.5970
  586MOL0     H79103   5.037   9.401   4.778 -0.7674  1.7350  0.8271
  586MOL0     H79104   4.847   9.253   4.773  2.5681 -1.0083 -1.8027
  586MOL0     H79105   4.765   9.373   4.655  1.1238  3.9862  0.4892
  586MOL0     H79106   4.751   9.546   4.811 -0.8368 -0.3690  0.6085
  586MOL0     H79107   4.842   9.474   4.927 -2.5175  2.1899  1.1774
  586MOL0     H79108   4.450   9.311   4.969 -0.1396  1.0242 -1.9466
  586MOL0     H79109   5.095   9.526   4.269 -0.7060 -1.3669 -2.3002
  586MOL0     H79110   5.115   9.428   4.059  1.0551 -2.6835 -1.6490
  587MOL0     O79111   6.062   5.322   6.171  0.7429 -0.0480 -0.1008
  587MOL0     C79112   5.962   5.244   6.184 -0.9468  0.3142 -0.3281
  587MOL0     O79113   5.954   5.137   6.270 -0.1293  0.5426  0.0563
  587MOL0     C79114   6.035   5.118   6.377 -0.3684 -0.4875  0.2004
  587MOL0     C79115   5.983   5.017   6.465 -0.5106  1.0012  0.2913
  587MOL0     C79116   6.038   4.988   6.594 -0.1205 -0.1361 -0.2836
  587MOL0     C79117   6.157   5.058   6.629  0.8859 -0.9249 -0.8264
  587MOL0     O79118   6.214   5.029   6.755  0.2471  0.8201  0.4207
  587MOL0     C79119   6.351   5.070   6.780 -0.6098 -0.0063  0.2928
  587MOL0     C79120   6.395   5.025   6.917  0.5125  0.3722 -0.5999
  587MOL0     C79121   6.543   5.018   6.946  0.5000 -0.6566 -0.6601
  587MOL0     C79122   6.588   5.016   7.100  1.2501  0.1130  0.2666
  587MOL0     C79123   6.735   4.989   7.107  0.1791  0.0987 -0.6432
  587MOL0     C79124   6.786   4.977   7.252  0.1612 -1.0751 -0.3837
  587MOL0     C79125   6.943   4.984   7.248  0.3028  0.1478 -0.8502
  587MOL0     C79126   7.008   5.008   7.381 -0.4364  0.9493 -0.1103
  587MOL0     N79127   7.035   5.148   7.417 -0.8320 -0.5692  0.0265
  587MOL0     C79128   7.129   5.221   7.342  0.1762  0.4136  0.9660
  587MOL0     C79129   7.093   5.346   7.361  0.6596  0.8277 -0.0581
  587MOL0     C79130   7.138   5.464   7.276 -0.2157  0.2455 -0.1289
  587MOL0     C79131   7.017   5.538   7.223 -0.0395 -0.5147  0.0974
  587MOL0     C79132   6.904   5.464   7.147  0.6060 -0.9212  0.2463
  587MOL0     C79133   6.763   5.477   7.207  0.2069  0.3425 -0.1475
  587MOL0     O79134   6.732   5.619   7.221 -0.1319 -0.3700  0.2050
  587MOL0     C79135   6.688   5.697   7.113 -0.6209  0.1895 -0.0603
  587MOL0     C79136   6.673   5.646   6.978 -0.2137  0.1271  0.4655
  587MOL0     C79137   6.625   5.725   6.877 -0.4874 -1.1969  0.1170
  587MOL0     C79138   6.614   5.675   6.741 -0.1916  0.1564 -0.1949
  587MOL0     C79139   6.597   5.859   6.909  0.1990  0.2804 -0.2836
  587MOL0     C79140   6.514   5.940   6.830  0.0313 -1.7057  0.1924
  587MOL0     O79141   6.420   5.870   6.757  0.4237  1.0560 -0.2836
  587MOL0     C79142   6.339   5.940   6.670 -0.3403  0.4150  0.6896
  587MOL0     C79143   6.204   5.915   6.667  1.1377 -0.2476 -0.9992
  587MOL0     C79144   6.131   5.970   6.568  0.4186 -0.1058 -0.4583
  587MOL0     C79145   6.178   6.058   6.473 -0.1256  0.5870  0.5972
  587MOL0     O79146   6.114   6.136   6.373 -0.0039  0.2002 -0.1566
  587MOL0     C79147   5.973   6.094   6.359 -0.0090  0.0509  0.3613
  587MOL0     C79148   5.900   6.177   6.255  0.1468 -0.3870  1.5695
  587MOL0     C79149   5.944   6.174   6.105  0.6710 -0.3649 -0.1453
  587MOL0     C79150   5.934   6.037   6.040 -0.1901 -0.5566  0.5329
  587MOL0     C79151   5.925   6.046   5.887  0.2751  0.5993 -0.0889
  587MOL0     C79152   5.796   6.113   5.841 -0.1472 -0.3936 -0.5850
  587MOL0     C79153   5.782   6.115   5.692 -0.7256  0.3761  0.0968
  587MOL0     C79154   5.649   6.152   5.647  0.2386  0.9934  0.3631
  587MOL0    Cl79155   5.589   6.315   5.697 -0.4513 -0.3554 -0.2259
  587MOL0     C79156   6.313   6.084   6.475  0.2581  0.6967  0.0322
  587MOL0     C79157   6.390   6.026   6.570  0.2668 -0.6906 -0.6869
  587MOL0     O79158   6.514   6.062   6.841 -0.2270  0.0375  0.5859
  587MOL0     C79159   6.627   5.907   7.033  0.7610 -0.9680  0.4182
  587MOL0     C79160   6.677   5.829   7.137  0.4969  0.2187  0.2189
  587MOL0     N79161   6.998   5.346   7.463 -0.1700 -0.1200 -0.2472
  587MOL0     N79162   6.963   5.228   7.491  0.6631 -0.4390 -1.1845
  587MOL0     C79163   6.216   5.155   6.542 -0.4022  0.6476 -0.2934
  587MOL0     C79164   6.161   5.180   6.413  0.4639  0.2696 -0.2063
  587MOL0     C79165   5.853   5.260   6.093  0.5289 -0.3360  0.7792
  587MOL0     C79166   5.724   5.201   6.104 -0.7496 -0.0794  0.0570
  587MOL0     C79167   5.623   5.218   6.021  0.4190 -0.3628 -0.3352
  587MOL0     C79168   5.650   5.300   5.913  0.4906 -0.1169  0.9838
  587MOL0     O79169   5.534   5.302   5.836  0.9576 -0.2296 -0.3318
  587MOL0     C79170   5.542   5.376   5.716  0.2634 -0.4474 -0.4923
  587MOL0     C79171   5.416   5.347   5.624  0.4297  0.5164 -0.2018
  587MOL0     C79172   5.286   5.390   5.695  0.5099  0.3003 -0.0830
  587MOL0     C79173   5.157   5.345   5.627  0.0127 -0.3398  0.0113
  587MOL0     C79174   5.044   5.444   5.644 -0.1563  1.3741  0.9215
  587MOL0     C79175   4.959   5.529   5.658 -0.4714 -0.5979 -0.1180
  587MOL0     C79176   5.780   5.361   5.885  0.5858 -0.6216 -0.5416
  587MOL0     C79177   5.871   5.349   5.986 -0.6790 -0.5768 -0.0763
  587MOL0     H79178   5.886   4.974   6.439  0.8249 -3.9032  2.2983
  587MOL0     H79179   5.991   4.916   6.660 -1.8195  1.5573  0.4555
  587MOL0     H79180   6.411   5.026   6.700 -2.4332  1.1449 -1.8110
  587MOL0     H79181   6.362   5.178   6.771  1.0357 -0.1525  0.3790
  587MOL0     H79182   6.355   5.102   6.983 -0.7411  0.1091 -1.0345
  587MOL0     H79183   6.351   4.930   6.949  0.4033  1.0974  1.6205
  587MOL0     H79184   6.580   4.931   6.891 -0.5907 -1.4211 -0.2252
  587MOL0     H79185   6.586   5.107   6.899 -0.6008  1.0591  1.4502
  587MOL0     H79186   6.567   5.118   7.132  1.5142 -0.4676  2.4229
  587MOL0     H79187   6.527   4.945   7.157 -0.9584  1.0198 -0.8089
  587MOL0     H79188   6.760   4.896   7.056 -3.2068 -0.9772 -0.6360
  587MOL0     H79189   6.792   5.064   7.051  1.3301 -2.0653 -2.5111
  587MOL0     H79190   6.746   5.060   7.309  0.3404 -1.6963  0.6734
  587MOL0     H79191   6.758   4.882   7.298 -1.7971 -1.3537 -1.9960
  587MOL0     H79192   6.977   4.886   7.214 -0.8061 -0.3087 -0.6983
  587MOL0     H79193   6.969   5.064   7.178 -0.1583  4.1321  2.9991
  587MOL0     H79194   7.103   4.954   7.390 -0.9534 -0.0734 -0.6404
  587MOL0     H79195   6.949   4.962   7.460  0.4045  2.6651  1.5786
  587MOL0     H79196   7.212   5.185   7.282 -0.7517 -0.3879  0.1455
  587MOL0     H79197   7.200   5.530   7.338  1.3547 -1.7561  0.5568
  587MOL0     H79198   7.194   5.432   7.188 -1.7883 -1.6695 -0.5136
  587MOL0     H79199   7.055   5.613   7.153  0.8327 -0.5562  0.5180
  587MOL0     H79200   6.974   5.603   7.300 -0.2170  2.8053 -2.5851
  587MOL0     H79201   6.924   5.357   7.146 -1.2809 -1.3056  0.1819
  587MOL0     H79202   6.911   5.501   7.045  0.5093 -1.1349  0.1615
  587MOL0     H79203   6.766   5.427   7.304 -0.2290  1.1080  0.2634
  587MOL0     H79204   6.693   5.413   7.151  1.0032 -1.5965  0.9901
  587MOL0     H79205   6.693   5.543   6.952 -1.4697 -0.4819  1.7616
  587MOL0     H79206   6.511   5.647   6.714  0.8238 -3.7961 -0.6906
  587MOL0     H79207   6.658   5.752   6.678  4.4887 -1.9687  0.0685
  587MOL0     H79208   6.676   5.585   6.728 -3.1561 -2.2497  0.9784
  587MOL0     H79209   6.153   5.845   6.733 -0.0945 -0.0730 -1.7357
  587MOL0     H79210   6.024   5.962   6.581  0.6907 -0.3055  2.1770
  587MOL0     H79211   5.977   5.988   6.333 -0.3298  0.2725 -0.6187
  587MOL0     H79212   5.917   6.122   6.449 -2.1605  2.1453 -1.5056
  587MOL0     H79213   5.797   6.140   6.250 -1.3811  3.4710 -0.1180
  587MOL0     H79214   5.888   6.277   6.300  0.5947  0.5595 -0.3330
  587MOL0     H79215   6.047   6.209   6.097  0.5102 -0.0137 -0.7485
  587MOL0     H79216   5.877   6.246   6.057 -1.5174 -2.9059 -1.1893
  587MOL0     H79217   6.028   5.998   6.081  0.2688  1.5608  1.6922
  587MOL0     H79218   5.852   5.983   6.087 -2.3540  2.3865  0.4545
  587MOL0     H79219   5.930   5.945   5.846 -1.5226  0.0823  0.8805
  587MOL0     H79220   5.997   6.122   5.855  1.4190 -1.1134 -1.7276
  587MOL0     H79221   5.713   6.057   5.885  0.4862 -0.1354  1.0287
  587MOL0     H79222   5.784   6.215   5.878  0.2521 -0.6837  0.3981
  587MOL0     H79223   5.796   6.012   5.659 -1.2941  0.3970 -0.2248
  587MOL0     H79224   5.856   6.183   5.650 -0.0844  0.1851  0.8905
  587MOL0     H79225   5.583   6.074   5.685  1.1604 -1.0001 -1.8461
  587MOL0     H79226   5.651   6.149   5.537  3.0771  1.3105  0.3347
  587MOL0     H79227   6.358   6.149   6.401  1.0117 -1.2749 -1.3455
  587MOL0     H79228   6.497   6.042   6.561  0.2279 -0.8706 -1.5498
  587MOL0     H79229   6.614   6.011   7.062  0.2275 -0.6569 -0.8750
  587MOL0     H79230   6.701   5.869   7.235  1.7208  1.9953 -0.7429
  587MOL0     H79231   6.307   5.209   6.566  0.3554 -0.2222 -1.1292
  587MOL0     H79232   6.206   5.246   6.340  0.2959 -1.0522 -1.5613
  587MOL0     H79233   5.704   5.150   6.198 -0.0842 -0.9510 -0.2640
  587MOL0     H79234   5.530   5.167   6.042  1.8340 -2.6928  0.7667
  587MOL0     H79235   5.559   5.481   5.739  1.0806 -0.4365 -1.0835
  587MOL0     H79236   5.627   5.333   5.662  1.7631  1.0720  0.5599
  587MOL0     H79237   5.405   5.239   5.607 -1.1634  0.6291 -0.0245
  587MOL0     H79238   5.429   5.400   5.529 -2.1618  1.2102 -0.2558
  587MOL0     H79239   5.293   5.499   5.689  4.0868  0.1248 -2.1631
  587MOL0     H79240   5.277   5.357   5.799 -2.7226  0.2667 -0.2915
  587MOL0     H79241   5.124   5.252   5.673 -0.9353  0.4800  1.0475
  587MOL0     H79242   5.174   5.330   5.520  1.0592  0.7064  0.0088
  587MOL0     H79243   4.885   5.607   5.663  1.5870  1.5738 -1.5880
  587MOL0     H79244   5.805   5.427   5.803  2.0893 -0.6877 -0.1734
  587MOL0     H79245   5.965   5.403   5.972 -1.4405  0.7152 -0.3729
  588MOL0     O79246   5.110   2.412   8.339 -0.1848  0.5877 -0.4644
  588MOL0     C79247   5.203   2.424   8.421  0.2027 -0.2871 -0.1584
  588MOL0     O79248   5.189   2.479   8.551 -0.0636 -0.0167  0.7154
  588MOL0     C79249   5.077   2.542   8.606 -0.1043 -0.6408  0.5933
  588MOL0     C79250   5.089   2.587   8.736  0.5932 -0.5691  0.4712
  588MOL0     C79251   4.996   2.646   8.804 -0.0947 -0.2849 -0.1889
  588MOL0     C79252   4.876   2.668   8.742  0.5958 -0.0110 -0.3784
  588MOL0     O79253   4.766   2.736   8.799  0.0524  0.2296  0.7137
  588MOL0     C79254   4.809   2.835   8.893 -0.3391 -0.0744  0.3276
  588MOL0     C79255   4.699   2.932   8.938 -0.4204  0.3136 -0.1386
  588MOL0     C79256   4.680   3.036   8.829 -0.6132 -0.1367 -0.2721
  588MOL0     C79257   4.579   3.139   8.882 -0.1026 -0.1144  1.0531
  588MOL0     C79258   4.573   3.265   8.790 -0.1753 -0.3076 -0.7355
  588MOL0     C79259   4.496   3.368   8.873  0.4733 -0.2490  0.0253
  588MOL0     C79260   4.506   3.502   8.811 -0.2941 -0.9056 -0.4319
  588MOL0     C79261   4.418   3.599   8.896 -0.5383 -0.8054  0.1566
  588MOL0     N79262   4.444   3.737   8.864 -0.1396 -0.1807 -0.3282
  588MOL0     C79263   4.553   3.815   8.900  0.0353  0.3956 -0.3725
  588MOL0     C79264   4.518   3.938   8.857  0.5920  0.3353 -0.1331
  588MOL0     C79265   4.587   4.071   8.882  0.7695  0.3116  0.1932
  588MOL0     C79266   4.730   4.073   8.831  0.0407  1.0378  0.3545
  588MOL0     C79267   4.807   4.217   8.844  0.6296 -0.4979  0.5228
  588MOL0     C79268   4.842   4.247   8.993  0.8992  0.2995 -0.4727
  588MOL0     O79269   4.958   4.178   9.049 -0.0647  0.1528 -0.3223
  588MOL0     C79270   5.073   4.222   8.995  0.3966  0.9326  0.5004
  588MOL0     C79271   5.122   4.351   9.024  0.1746  0.2743  0.9245
  588MOL0     C79272   5.232   4.408   8.954  0.9116  0.3131 -0.3514
  588MOL0     C79273   5.266   4.556   8.980 -0.8649  0.8657 -0.2481
  588MOL0     C79274   5.309   4.312   8.878  0.2781 -0.8174  0.6326
  588MOL0     C79275   5.437   4.353   8.815  0.0621 -0.4081 -0.5377
  588MOL0     O79276   5.507   4.251   8.748  0.4831  1.0478 -0.5049
  588MOL0     C79277   5.612   4.287   8.668 -1.0617  0.3132  0.1205
  588MOL0     C79278   5.744   4.261   8.720  0.1091 -0.3882 -1.1344
  588MOL0     C79279   5.849   4.274   8.638  0.1509 -0.1076  0.9012
  588MOL0     C79280   5.841   4.317   8.505 -0.1162  1.5022  0.0139
  588MOL0     O79281   5.946   4.344   8.425  0.3279 -0.8093 -0.2556
  588MOL0     C79282   6.034   4.235   8.388  0.6151  0.5676 -0.2771
  588MOL0     C79283   5.971   4.163   8.267  0.0151  0.0533  0.3559
  588MOL0     C79284   6.060   4.042   8.235  0.1926  0.1508 -0.0624
  588MOL0     C79285   6.019   3.980   8.103 -0.5553  0.4142  0.4007
  588MOL0     C79286   6.107   3.856   8.065 -0.4505 -0.7690 -0.4776
  588MOL0     C79287   6.029   3.770   7.976 -0.6387 -0.1727 -0.5652
  588MOL0     C79288   6.120   3.661   7.908  0.0276  0.0263  0.4460
  588MOL0     C79289   6.209   3.707   7.793  1.1056  0.1294 -0.9066
  588MOL0    Cl79290   6.380   3.701   7.852 -0.3519 -0.3277  0.0813
  588MOL0     C79291   5.713   4.351   8.465 -0.3283 -0.1267  0.4269
  588MOL0     C79292   5.596   4.335   8.538  0.0755  0.5858  0.0029
  588MOL0     O79293   5.470   4.473   8.804 -0.1068 -0.6600 -0.0191
  588MOL0     C79294   5.270   4.178   8.875 -0.5415 -0.4642 -0.1088
  588MOL0     C79295   5.152   4.135   8.923 -0.0343  0.1672 -0.5602
  588MOL0     N79296   4.389   3.935   8.799  0.8559  0.2970  0.3299
  588MOL0     N79297   4.349   3.816   8.801  0.4008  0.7599  0.1402
  588MOL0     C79298   4.856   2.631   8.605 -0.6709  0.3620  0.4943
  588MOL0     C79299   4.960   2.581   8.535 -0.2254  0.1851 -0.6520
  588MOL0     C79300   5.332   2.373   8.380 -0.1483  0.0989 -0.2784
  588MOL0     C79301   5.439   2.418   8.458 -0.0419 -0.0213 -1.3512
  588MOL0     C79302   5.572   2.376   8.431  0.1773 -0.2817  1.3167
  588MOL0     C79303   5.597   2.284   8.328  0.3366 -0.6442  0.2200
  588MOL0     O79304   5.723   2.259   8.307 -0.0090  0.5437  0.2075
  588MOL0     C79305   5.767   2.157   8.207  0.2759 -0.4365 -0.5853
  588MOL0     C79306   5.792   2.229   8.086  0.0439 -1.1003  0.5765
  588MOL0     C79307   5.861   2.137   7.991 -0.2069  0.3706  0.0694
  588MOL0     C79308   6.009   2.167   7.986 -0.1028 -0.2096  0.2235
  588MOL0     C79309   6.084   2.070   7.908  1.2318 -0.9406  0.6853
  588MOL0     C79310   6.153   1.988   7.845  0.1965  0.0862  0.1755
  588MOL0     C79311   5.484   2.239   8.250 -0.3594  0.0673  0.1812
  588MOL0     C79312   5.349   2.278   8.282  0.3082  0.4866  0.1936
  588MOL0     H79313   5.183   2.559   8.784  0.6470 -2.3285 -0.5719
  588MOL0     H79314   4.998   2.672   8.910 -1.6920  2.7122 -0.7741
  588MOL0     H79315   4.841   2.775   8.979  2.3374  0.3697 -0.2715
  588MOL0     H79316   4.900   2.886   8.862  1.3006 -1.3318  2.7247
  588MOL0     H79317   4.605   2.878   8.946 -1.0112  0.8519 -2.4763
  588MOL0     H79318   4.719   2.980   9.034  1.2863 -3.3054  1.5184
  588MOL0     H79319   4.777   3.082   8.807 -0.1558 -0.7254  0.4581
  588MOL0     H79320   4.652   2.984   8.737  0.7735 -0.6600 -0.4335
  588MOL0     H79321   4.474   3.109   8.892 -1.5825  3.8763 -0.5502
  588MOL0     H79322   4.614   3.168   8.982 -0.8645 -2.7708  2.1897
  588MOL0     H79323   4.676   3.301   8.793  0.0762 -1.0817  1.0612
  588MOL0     H79324   4.539   3.240   8.689 -3.5253 -2.8048  0.8178
  588MOL0     H79325   4.394   3.335   8.893  1.3424 -2.2056  1.5023
  588MOL0     H79326   4.546   3.378   8.969 -1.4603 -0.4654  1.1091
  588MOL0     H79327   4.607   3.544   8.822 -1.1423  0.4441  3.8887
  588MOL0     H79328   4.487   3.514   8.704 -0.5191 -0.4262 -0.3406
  588MOL0     H79329   4.442   3.579   9.001 -0.5990 -4.0968 -0.3541
  588MOL0     H79330   4.312   3.573   8.888 -0.6330 -0.0491 -1.2870
  588MOL0     H79331   4.644   3.784   8.949  0.3665 -0.1135 -1.3013
  588MOL0     H79332   4.534   4.161   8.853  0.4591  0.0061 -0.1916
  588MOL0     H79333   4.593   4.071   8.992 -0.1833  0.0805  0.2499
  588MOL0     H79334   4.725   4.037   8.727  1.7140  1.6993  0.0103
  588MOL0     H79335   4.791   3.998   8.882  0.6242 -0.1319 -1.8997
  588MOL0     H79336   4.750   4.295   8.793  0.2916 -0.1819  1.3702
  588MOL0     H79337   4.898   4.206   8.783 -0.0051 -1.6516 -0.2436
  588MOL0     H79338   4.754   4.229   9.056  0.8670  0.8706 -0.3469
  588MOL0     H79339   4.863   4.351   9.018 -0.7026  0.8497 -1.2282
  588MOL0     H79340   5.068   4.424   9.083  0.8574 -1.0738  3.3721
  588MOL0     H79341   5.206   4.603   9.059 -1.4741 -2.0284  1.1428
  588MOL0     H79342   5.364   4.561   9.028 -0.3178 -3.0632 -0.6354
  588MOL0     H79343   5.253   4.612   8.887 -3.0075  0.1605 -0.4429
  588MOL0     H79344   5.757   4.231   8.823  2.0002 -1.0705 -1.5326
  588MOL0     H79345   5.949   4.263   8.678  1.4741  0.2092 -2.0101
  588MOL0     H79346   6.129   4.283   8.365  0.3154  3.2275  3.1788
  588MOL0     H79347   6.052   4.168   8.473 -0.1337 -1.2978 -1.5083
  588MOL0     H79348   5.872   4.131   8.303  0.0801  0.4773  0.9173
  588MOL0     H79349   5.962   4.232   8.183 -0.6156  0.2155  0.5460
  588MOL0     H79350   6.049   3.968   8.315 -0.6555  0.3959  0.0649
  588MOL0     H79351   6.167   4.064   8.231 -0.1345  2.2008  1.2192
  588MOL0     H79352   5.912   3.958   8.114 -0.4860 -0.7052 -0.8379
  588MOL0     H79353   6.030   4.054   8.023 -1.6051  2.4538  2.0522
  588MOL0     H79354   6.135   3.799   8.154  0.4683 -1.0553 -0.9448
  588MOL0     H79355   6.200   3.890   8.019 -0.0648  0.8437  1.3060
  588MOL0     H79356   5.945   3.726   8.031 -0.8967  2.4206  1.3106
  588MOL0     H79357   5.981   3.833   7.899  0.9527 -1.3100 -2.5907
  588MOL0     H79358   6.060   3.575   7.878  1.9117 -1.1568 -0.1274
  588MOL0     H79359   6.184   3.620   7.987 -2.2402  1.0391  3.0045
  588MOL0     H79360   6.180   3.802   7.748  1.5723  0.0130 -1.4770
  588MOL0     H79361   6.195   3.632   7.714  2.6704 -1.0228 -0.1548
  588MOL0     H79362   5.698   4.381   8.362 -1.9548  2.1521  1.2387
  588MOL0     H79363   5.499   4.354   8.494  0.0423 -0.0128 -0.1997
  588MOL0     H79364   5.335   4.104   8.828  2.0517  0.2873  2.0120
  588MOL0     H79365   5.128   4.032   8.898  0.2574  0.4327 -2.0263
  588MOL0     H79366   4.755   2.633   8.566  0.0558  0.1398 -1.5012
  588MOL0     H79367   4.957   2.538   8.435  1.0841 -4.7148  1.1538
  588MOL0     H79368   5.428   2.480   8.546  2.0576  0.6071 -1.4889
  588MOL0     H79369   5.655   2.430   8.475 -0.5529  2.5320 -0.5282
  588MOL0     H79370   5.863   2.114   8.237  0.9166  0.5073 -1.2388
  588MOL0     H79371   5.690   2.080   8.200 -0.9228  0.5632  0.8213
  588MOL0     H79372   5.843   2.324   8.104 -2.3913  0.5105 -0.4057
  588MOL0     H79373   5.697   2.265   8.046  0.7936  0.2793 -0.0277
  588MOL0     H79374   5.823   2.165   7.892  0.3083  1.0516  0.0596
  588MOL0     H79375   5.849   2.031   8.015  0.1431  0.6786  1.7719
  588MOL0     H79376   6.043   2.164   8.089 -2.4111  0.2439  1.0655
  588MOL0     H79377   6.029   2.265   7.942 -2.4127 -0.4645 -1.6884
  588MOL0     H79378   6.204   1.910   7.793  0.4995  1.9218 -2.4710
  588MOL0     H79379   5.496   2.167   8.170 -0.7963  0.3734 -0.1595
  588MOL0     H79380   5.272   2.256   8.209 -1.3312 -2.4980  2.6181
  589MOL0     O79381   8.291   7.280   0.973 -0.5359  0.0095  0.2212
  589MOL0     C79382   8.348   7.199   0.894 -0.1880 -0.5907 -1.1150
  589MOL0     O79383   8.305   7.065   0.865 -0.2070 -0.0223 -0.8212
  589MOL0     C79384   8.175   7.040   0.883  0.4311  0.3263 -0.9167
  589MOL0     C79385   8.078   7.036   0.780 -0.7036  0.1109 -0.1922
  589MOL0     C79386   7.938   7.024   0.809 -0.3096  0.3988  0.6654
  589MOL0     C79387   7.889   7.008   0.938  0.0045  0.3512  0.2421
  589MOL0     O79388   7.762   6.978   0.981 -0.5387  0.5468 -0.0154
  589MOL0     C79389   7.689   6.931   0.870 -0.4506  1.0440 -0.3333
  589MOL0     C79390   7.548   6.889   0.921 -0.1636 -0.2714 -0.3750
  589MOL0     C79391   7.554   6.777   1.033 -0.1013 -0.7449  0.0899
  589MOL0     C79392   7.548   6.831   1.180 -0.0706  1.2408  0.2556
  589MOL0     C79393   7.574   6.724   1.285  0.1583  0.0962 -1.0887
  589MOL0     C79394   7.479   6.604   1.302  1.1847  0.3861 -1.0901
  589MOL0     C79395   7.497   6.525   1.434  0.4656  0.0873  0.4592
  589MOL0     C79396   7.431   6.601   1.560  0.1740 -0.8922  0.0260
  589MOL0     N79397   7.282   6.580   1.570 -0.0066  0.0435  0.3863
  589MOL0     C79398   7.221   6.456   1.609  0.1037 -0.3203  0.3630
  589MOL0     C79399   7.098   6.486   1.663 -0.6780 -0.0085  0.7054
  589MOL0     C79400   6.998   6.402   1.734 -0.2483  0.1142  0.1038
  589MOL0     C79401   6.953   6.295   1.635 -0.0014 -0.7923  0.0327
  589MOL0     C79402   6.895   6.351   1.502  0.3369  0.6155 -0.9842
  589MOL0     C79403   6.782   6.451   1.525  1.0268  0.1652  0.1356
  589MOL0     O79404   6.668   6.375   1.518 -0.0678  0.1292 -0.3170
  589MOL0     C79405   6.548   6.443   1.508  0.2726  0.1057 -0.1592
  589MOL0     C79406   6.441   6.380   1.442 -0.6168  0.2888  0.1588
  589MOL0     C79407   6.320   6.434   1.432  0.3924  0.3617  0.1102
  589MOL0     C79408   6.231   6.368   1.323 -0.4187  0.4548  0.1872
  589MOL0     C79409   6.292   6.552   1.492  0.5972  0.4712  0.8356
  589MOL0     C79410   6.164   6.621   1.490 -0.3086  0.1158  0.5846
  589MOL0     O79411   6.151   6.754   1.521  0.2331  0.2445  0.0304
  589MOL0     C79412   6.031   6.806   1.540  0.4401 -0.9261  0.6119
  589MOL0     C79413   6.009   6.895   1.647 -0.0919 -0.7207  0.5691
  589MOL0     C79414   5.888   6.957   1.674 -0.0365 -0.0158 -0.6811
  589MOL0     C79415   5.779   6.925   1.592  0.0656  0.3958 -0.4554
  589MOL0     O79416   5.647   6.970   1.608 -0.3185  0.4549  0.7446
  589MOL0     C79417   5.617   7.057   1.712 -0.0490 -0.8352 -0.4799
  589MOL0     C79418   5.480   7.127   1.706 -0.7442  0.9811  0.2751
  589MOL0     C79419   5.479   7.218   1.590 -0.9298 -0.6003  0.7703
  589MOL0     C79420   5.340   7.260   1.551 -0.7214  0.1086  0.3734
  589MOL0     C79421   5.293   7.362   1.655 -0.3906  0.7661 -0.2630
  589MOL0     C79422   5.186   7.462   1.613 -0.4068 -0.2135 -0.8323
  589MOL0     C79423   5.045   7.405   1.639 -0.1816  0.4822  0.5863
  589MOL0     C79424   4.941   7.488   1.570 -0.0311  0.5346 -0.5386
  589MOL0    Cl79425   4.954   7.668   1.605  0.4626 -0.4082  0.0575
  589MOL0     C79426   5.800   6.843   1.483 -0.5285  0.1735  0.4476
  589MOL0     C79427   5.924   6.787   1.455 -0.3333 -0.1935  0.0498
  589MOL0     O79428   6.066   6.549   1.466  0.2333  0.0704 -0.1114
  589MOL0     C79429   6.397   6.623   1.564 -0.1258  0.6245  0.2351
  589MOL0     C79430   6.526   6.566   1.581  0.6583  0.0881  0.6159
  589MOL0     N79431   7.085   6.625   1.632 -0.8367  0.4745 -0.3153
  589MOL0     N79432   7.192   6.676   1.582 -0.2935 -0.5588 -0.3576
  589MOL0     C79433   7.984   7.004   1.040 -0.2755 -0.1030 -0.4673
  589MOL0     C79434   8.120   7.009   1.013  0.1938  0.0062 -0.0942
  589MOL0     C79435   8.469   7.243   0.830  0.2533  0.3173  0.4857
  589MOL0     C79436   8.543   7.353   0.883 -0.2154 -0.8460 -0.8584
  589MOL0     C79437   8.669   7.385   0.839  0.1456 -0.6568 -0.8166
  589MOL0     C79438   8.723   7.332   0.725  0.7067 -0.9483 -0.1357
  589MOL0     O79439   8.848   7.378   0.679 -0.5120  0.5337 -0.1469
  589MOL0     C79440   8.847   7.484   0.589  0.3811 -0.7004  0.4417
  589MOL0     C79441   8.863   7.443   0.438 -0.0377  0.7216  0.8571
  589MOL0     C79442   8.821   7.545   0.334  0.3776  0.3960  0.4788
  589MOL0     C79443   8.840   7.480   0.187  0.4134 -0.6931  0.3540
  589MOL0     C79444   8.776   7.355   0.150 -0.4628  0.1787  1.6179
  589MOL0     C79445   8.718   7.248   0.147  0.2749 -0.6666  0.6859
  589MOL0     C79446   8.653   7.233   0.660  0.4022  1.0363 -0.2243
  589MOL0     C79447   8.535   7.180   0.722 -0.2056 -0.7804 -0.2595
  589MOL0     H79448   8.109   7.055   0.678 -0.8566  1.0223 -0.0806
  589MOL0     H79449   7.864   7.024   0.729  0.1587  0.1443  0.2305
  589MOL0     H79450   7.669   7.001   0.788 -2.9361  0.2385 -0.5127
  589MOL0     H79451   7.734   6.842   0.826  1.0737  2.1676 -1.1251
  589MOL0     H79452   7.504   6.982   0.960  0.3068 -1.0007  2.0958
  589MOL0     H79453   7.488   6.852   0.837  1.3093  0.3322 -1.7406
  589MOL0     H79454   7.470   6.712   1.006 -0.4399  0.5466 -2.2182
  589MOL0     H79455   7.650   6.725   1.030  0.1431 -0.4691  1.8399
  589MOL0     H79456   7.632   6.901   1.183  1.5099 -0.1334 -3.9648
  589MOL0     H79457   7.450   6.880   1.184 -2.3434 -2.8414  0.0099
  589MOL0     H79458   7.675   6.682   1.282 -0.4852 -1.8176  0.9782
  589MOL0     H79459   7.573   6.781   1.378 -0.9133  1.9204 -2.1582
  589MOL0     H79460   7.380   6.648   1.291  0.2855 -1.3957 -0.4900
  589MOL0     H79461   7.493   6.529   1.224 -1.8334  0.4353 -1.7814
  589MOL0     H79462   7.445   6.431   1.412 -2.7802  1.7453  0.4559
  589MOL0     H79463   7.603   6.511   1.459  0.1782  0.4990  2.0430
  589MOL0     H79464   7.455   6.708   1.555 -0.9257 -0.6605 -0.7062
  589MOL0     H79465   7.482   6.565   1.650  0.5978 -2.2931 -0.7442
  589MOL0     H79466   7.264   6.356   1.608 -1.9801 -1.2874  0.9709
  589MOL0     H79467   7.036   6.350   1.822 -0.3248 -2.2060 -1.1398
  589MOL0     H79468   6.924   6.468   1.780  1.4333  2.5722 -0.4945
  589MOL0     H79469   6.868   6.245   1.684  0.2568 -0.3169  0.9896
  589MOL0     H79470   7.014   6.208   1.608 -1.4728 -1.6803 -0.5526
  589MOL0     H79471   6.860   6.271   1.436 -1.5092 -0.1809  0.8329
  589MOL0     H79472   6.975   6.396   1.443  0.3362  1.1112 -0.6145
  589MOL0     H79473   6.775   6.524   1.443  2.6260  1.6770  1.2866
  589MOL0     H79474   6.789   6.508   1.618  3.5508 -1.6546  1.1530
  589MOL0     H79475   6.459   6.279   1.409  1.9245 -0.3209  2.9673
  589MOL0     H79476   6.139   6.323   1.362 -0.5830  0.7199  0.1109
  589MOL0     H79477   6.207   6.458   1.265  2.2603 -0.0145 -1.8224
  589MOL0     H79478   6.284   6.294   1.263  2.7451  1.7734  1.1656
  589MOL0     H79479   6.090   6.919   1.715  0.0927 -1.4878  0.6209
  589MOL0     H79480   5.879   7.027   1.757 -1.9924  1.4824 -2.0665
  589MOL0     H79481   5.625   7.007   1.809  0.7322  2.2485  1.1987
  589MOL0     H79482   5.696   7.133   1.720 -0.4253 -0.4608 -0.2753
  589MOL0     H79483   5.408   7.045   1.702  2.0253 -1.5635 -0.5696
  589MOL0     H79484   5.473   7.182   1.800  0.2553 -1.3680  1.8148
  589MOL0     H79485   5.518   7.167   1.502 -0.5556  1.2433 -0.1778
  589MOL0     H79486   5.551   7.298   1.611 -0.8546  0.3770 -2.6491
  589MOL0     H79487   5.338   7.300   1.449  1.3949 -2.6997 -0.9113
  589MOL0     H79488   5.275   7.172   1.559 -0.2446 -0.0895  2.6611
  589MOL0     H79489   5.377   7.428   1.680  0.4442  0.0357 -1.0410
  589MOL0     H79490   5.255   7.298   1.735 -3.7661 -0.1688 -2.3756
  589MOL0     H79491   5.193   7.559   1.663 -0.0410 -0.3448 -0.6295
  589MOL0     H79492   5.200   7.490   1.508  1.3524  0.1625 -0.5335
  589MOL0     H79493   5.027   7.407   1.747 -1.3211  1.9038  0.3991
  589MOL0     H79494   5.045   7.303   1.599  0.2268  1.3877 -1.8999
  589MOL0     H79495   4.839   7.461   1.597 -0.3860  0.2929 -2.0306
  589MOL0     H79496   4.959   7.490   1.462 -0.2625  0.0081 -0.5875
  589MOL0     H79497   5.713   6.823   1.421 -0.1336  3.0317 -1.2201
  589MOL0     H79498   5.923   6.719   1.371 -1.3648 -2.2737  1.6406
  589MOL0     H79499   6.386   6.722   1.607  1.1116  1.1943 -0.7065
  589MOL0     H79500   6.601   6.609   1.646  2.0319  0.8000 -1.3683
  589MOL0     H79501   7.960   6.985   1.144 -2.2672  2.7099 -0.2916
  589MOL0     H79502   8.188   7.014   1.098 -1.3630  0.6596  1.1658
  589MOL0     H79503   8.503   7.409   0.968  0.0150 -0.7640 -0.8048
  589MOL0     H79504   8.721   7.466   0.890 -0.5591 -0.6043 -0.1574
  589MOL0     H79505   8.758   7.545   0.604  1.4369  0.8374  0.7015
  589MOL0     H79506   8.933   7.549   0.608 -1.0108  1.7653 -1.1276
  589MOL0     H79507   8.795   7.358   0.428 -0.1405  0.9081 -0.1368
  589MOL0     H79508   8.968   7.420   0.421  0.9270  3.2023  2.8920
  589MOL0     H79509   8.891   7.629   0.340  2.3403 -1.1348  0.2560
  589MOL0     H79510   8.716   7.575   0.341 -0.4524 -1.9465 -0.7394
  589MOL0     H79511   8.948   7.462   0.178  0.3266 -1.6035  1.0411
  589MOL0     H79512   8.812   7.562   0.121  0.1916  0.0940  1.4028
  589MOL0     H79513   8.660   7.158   0.153 -0.6327 -0.2106 -0.5689
  589MOL0     H79514   8.707   7.190   0.576  1.4823 -1.9110  1.8283
  589MOL0     H79515   8.487   7.089   0.689  0.9323 -1.8336  0.8843
  590MOL0     O79516   2.665   0.261   7.398  0.0041  0.8374 -0.4554
  590MOL0     C79517   2.685   0.148   7.449 -0.5781  0.1223 -0.7838
  590MOL0     O79518   2.636   0.103   7.576 -0.4737 -0.5349  0.3625
  590MOL0     C79519   2.580   0.201   7.651 -0.4195  0.0379  1.1461
  590MOL0     C79520   2.658   0.306   7.695 -0.1901 -0.7068  0.4595
  590MOL0     C79521   2.609   0.399   7.777  0.1295 -0.7764 -0.1399
  590MOL0     C79522   2.471   0.412   7.813  0.4247 -0.0122 -0.1064
  590MOL0     O79523   2.409   0.509   7.894  0.1483 -0.8032 -0.2184
  590MOL0     C79524   2.490   0.630   7.914  1.1286 -0.3458 -0.6330
  590MOL0     C79525   2.582   0.606   8.041 -0.6708 -0.6679 -0.2792
  590MOL0     C79526   2.505   0.640   8.170 -0.0552 -0.3343 -0.2796
  590MOL0     C79527   2.615   0.607   8.281  0.0942 -0.2675 -0.2873
  590MOL0     C79528   2.582   0.644   8.426  0.4152 -0.3097  0.1245
  590MOL0     C79529   2.685   0.590   8.523  0.0821 -0.6793 -0.5658
  590MOL0     C79530   2.649   0.625   8.677  0.4348  0.6726  0.4825
  590MOL0     C79531   2.569   0.504   8.748 -0.1944  0.1603  0.0226
  590MOL0     N79532   2.430   0.508   8.707 -0.5195 -0.6437 -0.0147
  590MOL0     C79533   2.374   0.418   8.624  1.0898 -0.1197  0.4311
  590MOL0     C79534   2.246   0.457   8.598 -0.6232 -0.1806 -0.8245
  590MOL0     C79535   2.141   0.408   8.505  0.1773  0.1888  0.1610
  590MOL0     C79536   2.033   0.313   8.574  0.0200  0.2294  0.1595
  590MOL0     C79537   1.922   0.389   8.648  0.3887 -0.0139  0.9386
  590MOL0     C79538   1.783   0.369   8.582  0.4725  0.4610 -0.9702
  590MOL0     O79539   1.785   0.429   8.450 -0.6748  0.0763 -0.4386
  590MOL0     C79540   1.658   0.443   8.385  0.8890 -0.5306 -0.4362
  590MOL0     C79541   1.647   0.428   8.241 -0.4211 -0.0709  0.5162
  590MOL0     C79542   1.530   0.432   8.172  0.1296 -0.8779  0.3058
  590MOL0     C79543   1.536   0.420   8.028  0.5511  0.0706  0.4524
  590MOL0     C79544   1.407   0.451   8.249 -0.0163  0.3738  0.8877
  590MOL0     C79545   1.271   0.485   8.191  0.4749 -0.8760 -0.3820
  590MOL0     O79546   1.171   0.548   8.265 -0.2107  0.0160 -0.8681
  590MOL0     C79547   1.040   0.553   8.225  0.1188  0.3303 -0.1126
  590MOL0     C79548   0.959   0.438   8.178 -1.3182 -0.6084 -0.3070
  590MOL0     C79549   0.822   0.443   8.160  0.3108 -0.1494 -0.3167
  590MOL0     C79550   0.750   0.562   8.168  0.1985  0.8306  0.1744
  590MOL0     O79551   0.611   0.566   8.158  0.1096  0.1973 -0.3049
  590MOL0     C79552   0.538   0.438   8.178  0.0529 -0.5580 -0.3976
  590MOL0     C79553   0.398   0.473   8.206  0.6334 -0.6101 -0.1247
  590MOL0     C79554   0.308   0.511   8.086  0.2047 -0.0600  0.2277
  590MOL0     C79555   0.186   0.582   8.130 -0.6730  0.1737 -0.3687
  590MOL0     C79556   0.078   0.569   8.027 -0.0381 -0.2874  0.1182
  590MOL0     C79557  -0.045   0.653   8.048  0.3618  1.2011 -0.3961
  590MOL0     C79558  -0.041   0.770   8.147 -0.1613  0.9744 -0.2054
  590MOL0     C79559  -0.181   0.815   8.180 -0.4378  0.3490  1.3230
  590MOL0    Cl79560  -0.149   0.964   8.295  0.0213  0.0068 -0.1498
  590MOL0     C79561   0.825   0.674   8.201 -0.0338  0.5108 -0.0856
  590MOL0     C79562   0.960   0.669   8.232 -0.4820 -0.4693 -0.3038
  590MOL0     O79563   1.260   0.455   8.069 -0.6049 -0.0581 -0.3369
  590MOL0     C79564   1.415   0.465   8.390  0.3326  0.3922  0.2350
  590MOL0     C79565   1.536   0.456   8.458 -1.1765  0.0258  1.1963
  590MOL0     N79566   2.223   0.569   8.684  0.2973  0.2018 -0.3716
  590MOL0     N79567   2.332   0.594   8.749  1.1300 -0.1100 -0.1593
  590MOL0     C79568   2.396   0.306   7.773  0.2163  0.0740  0.8331
  590MOL0     C79569   2.447   0.201   7.693  0.1213  0.3788  0.0796
  590MOL0     C79570   2.761   0.050   7.363 -0.4672 -0.2902  1.9470
  590MOL0     C79571   2.733  -0.091   7.356  0.2551 -0.1169 -0.4645
  590MOL0     C79572   2.789  -0.176   7.269 -0.5192 -0.1655  0.1857
  590MOL0     C79573   2.877  -0.121   7.174 -0.2622 -0.1956  0.0630
  590MOL0     O79574   2.954  -0.181   7.077 -0.3858 -0.6397 -0.1212
  590MOL0     C79575   2.910  -0.319   7.044 -0.6296  0.0107  0.4174
  590MOL0     C79576   2.946  -0.350   6.895 -0.2065 -0.9249  0.5011
  590MOL0     C79577   3.092  -0.377   6.887 -0.7413  0.3524 -0.3582
  590MOL0     C79578   3.135  -0.515   6.938 -0.4401  0.1964  0.1173
  590MOL0     C79579   3.096  -0.626   6.842 -0.2266 -0.0598  0.4341
  590MOL0     C79580   3.042  -0.710   6.763 -0.7042 -0.1533 -0.4556
  590MOL0     C79581   2.893   0.020   7.163  0.5947 -0.4347  0.2817
  590MOL0     C79582   2.838   0.103   7.260 -0.0794 -0.1613  0.4949
  590MOL0     H79583   2.766   0.315   7.688 -0.2316  0.5000  1.1355
  590MOL0     H79584   2.682   0.465   7.822 -1.1823  0.7699 -0.2043
  590MOL0     H79585   2.554   0.651   7.828  1.0867 -0.2934 -0.6510
  590MOL0     H79586   2.415   0.707   7.932 -2.4948 -3.3938 -1.6047
  590MOL0     H79587   2.605   0.500   8.047  0.2043 -0.4697  0.0126
  590MOL0     H79588   2.667   0.674   8.026 -1.4110  1.1673  2.8212
  590MOL0     H79589   2.462   0.740   8.174  0.8471  0.0701 -0.4441
  590MOL0     H79590   2.423   0.569   8.181  0.4229 -0.6633  1.7035
  590MOL0     H79591   2.650   0.503   8.281  0.1289 -0.3741  3.3029
  590MOL0     H79592   2.702   0.667   8.254 -1.0975  1.8391  0.3389
  590MOL0     H79593   2.565   0.751   8.442  1.6283 -0.1608  0.5092
  590MOL0     H79594   2.483   0.598   8.433  0.4899 -0.3304  1.0911
  590MOL0     H79595   2.694   0.481   8.510 -0.3849 -0.8285  0.3209
  590MOL0     H79596   2.785   0.632   8.506  0.7903 -1.3411  1.6879
  590MOL0     H79597   2.740   0.646   8.733 -0.5726  1.1128  2.0272
  590MOL0     H79598   2.580   0.710   8.671 -3.2319 -2.1105 -3.6263
  590MOL0     H79599   2.574   0.516   8.856  2.1962 -2.4708  0.3380
  590MOL0     H79600   2.607   0.404   8.725 -2.0911 -0.8273  0.9846
  590MOL0     H79601   2.434   0.335   8.590  1.1379  0.2923 -0.5340
  590MOL0     H79602   2.087   0.487   8.452 -0.9485  0.1196  1.1558
  590MOL0     H79603   2.189   0.346   8.429  2.1529  0.1678  1.3643
  590MOL0     H79604   2.086   0.252   8.648  0.5174  0.0324 -0.3450
  590MOL0     H79605   2.001   0.241   8.498  0.1438  1.7935 -1.4436
  590MOL0     H79606   1.945   0.496   8.655 -2.0832  0.5212  1.6147
  590MOL0     H79607   1.923   0.355   8.752  3.1344 -1.3549  0.5733
  590MOL0     H79608   1.702   0.409   8.644 -0.4283 -0.3511 -1.5933
  590MOL0     H79609   1.768   0.262   8.568 -0.4085  0.0089  2.3682
  590MOL0     H79610   1.744   0.430   8.193 -0.9139 -1.3280 -0.6034
  590MOL0     H79611   1.512   0.516   7.980  3.5277  0.5143 -0.3537
  590MOL0     H79612   1.638   0.395   7.996 -1.0193 -3.0003 -2.7920
  590MOL0     H79613   1.470   0.338   7.998 -0.7700  1.8142 -1.7271
  590MOL0     H79614   1.022   0.349   8.173 -0.1281  0.1751  0.1532
  590MOL0     H79615   0.761   0.354   8.145 -0.3629 -0.2038  2.2926
  590MOL0     H79616   0.557   0.382   8.086 -1.3534 -1.0895 -0.3877
  590MOL0     H79617   0.557   0.374   8.264 -5.1763 -0.2979  1.2833
  590MOL0     H79618   0.350   0.398   8.268  0.1087 -1.5193 -1.5661
  590MOL0     H79619   0.402   0.554   8.279 -0.9910 -0.7938  0.1865
  590MOL0     H79620   0.271   0.416   8.045 -1.5396  0.2110  1.0425
  590MOL0     H79621   0.360   0.574   8.013 -1.0339 -0.8804 -1.4357
  590MOL0     H79622   0.144   0.540   8.222 -1.9163  1.7353 -0.1861
  590MOL0     H79623   0.218   0.686   8.143  2.9822 -0.7428 -0.8581
  590MOL0     H79624   0.054   0.468   7.994 -2.0121 -0.2986  1.3967
  590MOL0     H79625   0.115   0.610   7.933 -2.5255  1.0081 -0.3928
  590MOL0     H79626  -0.072   0.705   7.955 -0.1229 -1.8277 -2.0927
  590MOL0     H79627  -0.128   0.587   8.073  0.2272  1.6398  0.3250
  590MOL0     H79628   0.015   0.850   8.098 -0.1188  0.2156 -1.4140
  590MOL0     H79629   0.011   0.734   8.236 -2.6877 -4.6110 -0.5747
  590MOL0     H79630  -0.230   0.735   8.236  0.8047 -0.3975  1.3880
  590MOL0     H79631  -0.232   0.839   8.086 -1.1362 -1.2140  1.2701
  590MOL0     H79632   0.774   0.768   8.217 -2.6299 -0.5489 -1.4335
  590MOL0     H79633   1.001   0.761   8.271 -0.8218 -0.2891 -0.3656
  590MOL0     H79634   1.331   0.489   8.455  0.1108 -1.8625  0.8851
  590MOL0     H79635   1.547   0.475   8.565  6.0217  4.1175  0.3502
  590MOL0     H79636   2.299   0.296   7.820 -0.8497 -1.7849 -1.5485
  590MOL0     H79637   2.376   0.122   7.673  0.8233 -0.8074  2.0056
  590MOL0     H79638   2.682  -0.138   7.440 -3.1230 -0.4068 -2.5038
  590MOL0     H79639   2.773  -0.280   7.298 -3.1763  0.6472  1.9966
  590MOL0     H79640   2.949  -0.385   7.122 -1.3124  2.2252  2.7805
  590MOL0     H79641   2.801  -0.312   7.037 -0.6074  0.0247  0.0645
  590MOL0     H79642   2.923  -0.266   6.830  0.1965 -0.7104  0.6389
  590MOL0     H79643   2.887  -0.430   6.847 -2.7329  3.2802 -4.3727
  590MOL0     H79644   3.144  -0.310   6.956  0.6116 -2.3038  1.3785
  590MOL0     H79645   3.146  -0.352   6.796  3.0678  3.0615  2.3214
  590MOL0     H79646   3.100  -0.541   7.038 -0.2593 -0.6227 -0.0180
  590MOL0     H79647   3.243  -0.507   6.956 -0.3095 -3.9287  2.3962
  590MOL0     H79648   2.998  -0.789   6.704 -0.9885 -0.6537  0.4062
  590MOL0     H79649   2.968   0.068   7.100  0.7166  0.0013  0.7516
  590MOL0     H79650   2.865   0.208   7.263  2.4895 -0.7614  2.3970
  591MOL0     O79651   3.250   4.407   5.270 -0.1557 -0.0483 -0.2837
  591MOL0     C79652   3.331   4.328   5.225 -0.2069 -0.6605 -0.2427
  591MOL0     O79653   3.307   4.216   5.155 -0.4172  0.0617  0.5098
  591MOL0     C79654   3.188   4.172   5.104  0.7584  0.2298  0.2615
  591MOL0     C79655   3.073   4.251   5.101 -0.5356  0.3183 -0.4656
  591MOL0     C79656   2.962   4.196   5.034  0.0400  0.5364 -0.4441
  591MOL0     C79657   2.960   4.064   4.980  0.5932  0.2354  0.6857
  591MOL0     O79658   2.835   4.023   4.930 -0.2125 -0.0310 -0.3621
  591MOL0     C79659   2.827   3.899   4.848 -0.2427 -0.3737  0.2505
  591MOL0     C79660   2.710   3.892   4.766 -0.6078  0.7382  0.6512
  591MOL0     C79661   2.701   3.758   4.678 -0.8805  0.6114 -0.0718
  591MOL0     C79662   2.557   3.713   4.652 -1.1127 -0.4975 -0.5005
  591MOL0     C79663   2.502   3.790   4.538 -0.3689  1.2475 -0.3805
  591MOL0     C79664   2.392   3.713   4.475 -0.0977 -0.1562 -0.7306
  591MOL0     C79665   2.356   3.793   4.347 -0.7692  1.2367 -0.7710
  591MOL0     C79666   2.269   3.712   4.246 -0.1884 -0.3176 -0.0221
  591MOL0     N79667   2.123   3.740   4.271  0.3027 -1.1658  0.2419
  591MOL0     C79668   2.036   3.663   4.350  0.0536 -0.3006  0.5422
  591MOL0     C79669   1.910   3.717   4.323  0.4989  0.3465 -0.0808
  591MOL0     C79670   1.777   3.684   4.388 -0.4110  0.4273  0.3023
  591MOL0     C79671   1.685   3.798   4.401  0.3291  0.0291 -0.3244
  591MOL0     C79672   1.572   3.777   4.499  0.2718  0.3548  0.1082
  591MOL0     C79673   1.494   3.649   4.486  0.5147  0.5751  0.6610
  591MOL0     O79674   1.452   3.620   4.354  0.4275  0.1734  0.2685
  591MOL0     C79675   1.349   3.522   4.350  0.2502  1.1332  0.6216
  591MOL0     C79676   1.288   3.504   4.225 -0.1960  0.6208 -0.0098
  591MOL0     C79677   1.187   3.406   4.196  0.1369  0.0999  0.3122
  591MOL0     C79678   1.124   3.413   4.058  0.5782 -0.3595 -0.3691
  591MOL0     C79679   1.149   3.322   4.302  0.0243  0.1682 -0.1905
  591MOL0     C79680   1.054   3.216   4.292 -0.4203  0.1414  0.4716
  591MOL0     O79681   0.985   3.198   4.176  0.1462 -0.5278  0.8516
  591MOL0     C79682   0.872   3.122   4.171 -0.8328 -0.4160 -0.3568
  591MOL0     C79683   0.760   3.172   4.230 -0.2341 -0.2073 -0.1595
  591MOL0     C79684   0.638   3.099   4.210  0.9800  0.0988  0.4205
  591MOL0     C79685   0.621   2.987   4.125 -0.2056 -0.3557 -1.5531
  591MOL0     O79686   0.503   2.926   4.106 -0.0894  0.4654 -0.4949
  591MOL0     C79687   0.490   2.802   4.033  0.6619 -0.1061 -0.1077
  591MOL0     C79688   0.355   2.735   4.081 -0.7251  0.2312 -0.4566
  591MOL0     C79689   0.358   2.589   4.050 -0.4105  0.5431 -0.3358
  591MOL0     C79690   0.328   2.571   3.899 -1.0777  0.8301 -0.5463
  591MOL0     C79691   0.326   2.423   3.868 -0.0663  0.4446 -1.3673
  591MOL0     C79692   0.455   2.347   3.890  1.3379  0.3792 -0.4258
  591MOL0     C79693   0.550   2.376   3.772  0.2422  0.3627 -0.2094
  591MOL0     C79694   0.651   2.260   3.757  0.6296 -1.1996 -0.1601
  591MOL0    Cl79695   0.750   2.256   3.907  0.5792 -0.2370  0.3610
  591MOL0     C79696   0.739   2.940   4.068  0.3689 -0.2424 -0.0871
  591MOL0     C79697   0.864   3.008   4.082 -0.2130 -0.1879  0.0255
  591MOL0     O79698   1.036   3.153   4.397 -0.5302  0.1160  0.2940
  591MOL0     C79699   1.210   3.342   4.428 -0.7513 -0.3807  0.2577
  591MOL0     C79700   1.312   3.435   4.454  0.3144  0.2804 -0.0555
  591MOL0     N79701   1.925   3.824   4.239  0.1022  0.6043  0.1616
  591MOL0     N79702   2.053   3.840   4.203 -1.7406 -0.5953  0.2086
  591MOL0     C79703   3.076   3.981   4.996  0.3968 -0.0595  1.0254
  591MOL0     C79704   3.183   4.045   5.056  0.7184  0.7204  0.2149
  591MOL0     C79705   3.473   4.358   5.244  0.3219 -0.2986  0.2469
  591MOL0     C79706   3.520   4.475   5.310 -0.4557  0.6736  0.4596
  591MOL0     C79707   3.654   4.494   5.337 -0.1305  0.2398 -0.1896
  591MOL0     C79708   3.748   4.386   5.319  0.4096 -0.6860  0.1975
  591MOL0     O79709   3.881   4.387   5.363  0.0767  0.3304 -0.1595
  591MOL0     C79710   3.941   4.514   5.406 -0.1699 -0.1752  0.4168
  591MOL0     C79711   3.912   4.547   5.553 -0.5302  0.3648 -0.0151
  591MOL0     C79712   3.910   4.702   5.574  0.3035 -0.6496 -0.6860
  591MOL0     C79713   4.054   4.756   5.550  0.2034  0.0411 -0.0178
  591MOL0     C79714   4.118   4.720   5.675  0.6263  0.1852  0.9507
  591MOL0     C79715   4.187   4.687   5.772  0.5770  0.0310 -0.0111
  591MOL0     C79716   3.702   4.271   5.269  0.3508  0.6525  0.0764
  591MOL0     C79717   3.573   4.250   5.230 -0.0986  0.0360 -0.6034
  591MOL0     H79718   3.083   4.355   5.129  3.9198 -0.2894  1.0285
  591MOL0     H79719   2.878   4.265   5.030  2.9363  4.4301  0.0424
  591MOL0     H79720   2.909   3.918   4.779 -1.6859 -2.9592 -2.4039
  591MOL0     H79721   2.846   3.815   4.915 -1.2100  1.0052  2.3784
  591MOL0     H79722   2.624   3.896   4.833 -2.4056 -0.7471 -1.4126
  591MOL0     H79723   2.710   3.986   4.710  1.7395  1.4291  1.6825
  591MOL0     H79724   2.757   3.780   4.586  0.1287 -1.0599  0.1025
  591MOL0     H79725   2.744   3.669   4.724 -0.4180  0.8170 -0.1030
  591MOL0     H79726   2.554   3.609   4.619  2.0831 -0.3431 -1.6174
  591MOL0     H79727   2.496   3.726   4.742 -0.1892 -0.8450  0.1906
  591MOL0     H79728   2.460   3.887   4.567 -0.6311  1.7634 -2.3204
  591MOL0     H79729   2.578   3.793   4.460 -1.1072  0.2057 -1.1700
  591MOL0     H79730   2.427   3.611   4.455  0.2215 -0.7953  2.5103
  591MOL0     H79731   2.305   3.705   4.540  1.2159  2.9927  1.6458
  591MOL0     H79732   2.295   3.874   4.388 -1.2184  0.5297 -0.0165
  591MOL0     H79733   2.452   3.821   4.303  0.2591 -0.0645  0.5167
  591MOL0     H79734   2.283   3.604   4.260 -1.3966 -0.5071 -0.1760
  591MOL0     H79735   2.297   3.728   4.142 -1.8932 -1.8423 -0.7594
  591MOL0     H79736   2.067   3.578   4.409  2.6989 -0.3708 -0.8377
  591MOL0     H79737   1.733   3.602   4.330  1.8432 -1.7786  1.5009
  591MOL0     H79738   1.801   3.656   4.491  2.7212  1.5237 -0.0199
  591MOL0     H79739   1.642   3.847   4.313 -2.0362 -1.1421  0.1106
  591MOL0     H79740   1.747   3.884   4.428  1.8242 -1.1266  0.0508
  591MOL0     H79741   1.511   3.868   4.505  2.3988  1.8421  0.1280
  591MOL0     H79742   1.608   3.769   4.602 -0.5157 -0.3994  0.3420
  591MOL0     H79743   1.403   3.655   4.546 -0.7985 -2.4147 -0.8413
  591MOL0     H79744   1.533   3.561   4.537 -0.3362  0.2265  0.7337
  591MOL0     H79745   1.316   3.565   4.140 -0.4821 -0.2255 -0.7242
  591MOL0     H79746   1.172   3.491   3.999 -0.6772  0.8847  0.1878
  591MOL0     H79747   1.131   3.323   3.996  0.9812 -0.9807  0.5549
  591MOL0     H79748   1.020   3.438   4.079  0.2716 -1.9756  0.1800
  591MOL0     H79749   0.772   3.264   4.287  2.0513  0.4143 -1.5483
  591MOL0     H79750   0.556   3.147   4.262  0.0918  0.2091 -1.0362
  591MOL0     H79751   0.493   2.828   3.927  0.1683  4.4580  0.7921
  591MOL0     H79752   0.574   2.736   4.054  1.6107  1.9367  3.4708
  591MOL0     H79753   0.340   2.749   4.189  2.5359  0.6329  0.0467
  591MOL0     H79754   0.265   2.782   4.041 -2.9738 -0.7821  2.9215
  591MOL0     H79755   0.275   2.539   4.101  1.2298 -0.7570  1.2081
  591MOL0     H79756   0.447   2.536   4.085 -1.4556 -0.6008  0.7013
  591MOL0     H79757   0.241   2.626   3.864 -0.3611  2.7216  0.5079
  591MOL0     H79758   0.410   2.626   3.851 -1.8418  0.5278 -2.2844
  591MOL0     H79759   0.295   2.403   3.766 -0.1229  0.9913 -1.4595
  591MOL0     H79760   0.262   2.376   3.943  2.6564  0.6857  1.3060
  591MOL0     H79761   0.509   2.367   3.983  1.4458  0.8631 -0.5836
  591MOL0     H79762   0.436   2.240   3.898 -1.0177  0.7591 -0.2857
  591MOL0     H79763   0.585   2.479   3.786 -1.7303  1.0907 -0.3941
  591MOL0     H79764   0.490   2.377   3.681 -0.6495 -2.1917  0.2682
  591MOL0     H79765   0.714   2.292   3.674  1.3418 -1.3887  0.2979
  591MOL0     H79766   0.607   2.165   3.727  2.8144 -2.7146  1.0880
  591MOL0     H79767   0.733   2.849   4.009 -0.2190  0.4463 -1.1311
  591MOL0     H79768   0.952   2.980   4.025  2.0987  1.3935  2.5414
  591MOL0     H79769   1.197   3.284   4.519  1.4292  0.9774  1.5254
  591MOL0     H79770   1.370   3.426   4.545 -0.0285 -0.5105  0.0939
  591MOL0     H79771   3.083   3.876   4.972  2.1601  1.0418 -5.1374
  591MOL0     H79772   3.272   3.982   5.057 -1.1011 -2.0292  0.4132
  591MOL0     H79773   3.464   4.566   5.327  1.4717  1.9730  0.1118
  591MOL0     H79774   3.696   4.582   5.385  2.3081 -1.6818  1.4492
  591MOL0     H79775   4.049   4.501   5.396 -0.1775  1.2097 -2.8314
  591MOL0     H79776   3.913   4.585   5.327  0.3406 -1.1886 -0.7119
  591MOL0     H79777   3.981   4.497   5.622 -0.3664  0.9941  0.2809
  591MOL0     H79778   3.817   4.500   5.581  1.8884 -4.7394  0.8208
  591MOL0     H79779   3.873   4.712   5.676  2.0550  0.8792 -0.1667
  591MOL0     H79780   3.833   4.757   5.518 -1.3465  0.8098  2.7439
  591MOL0     H79781   4.041   4.862   5.529  0.7242 -0.1160 -1.1745
  591MOL0     H79782   4.103   4.711   5.463  0.3536 -0.1141  0.1452
  591MOL0     H79783   4.247   4.667   5.858  3.8894  2.2997 -1.6210
  591MOL0     H79784   3.768   4.188   5.246  2.3538  2.5926 -1.6252
  591MOL0     H79785   3.532   4.158   5.190 -1.5216  0.2261  0.3319
  592MOL0     O79786   4.216   4.564  10.894  0.2354 -0.1793  0.1026
  592MOL0     C79787   4.245   4.654  10.815 -0.8185  0.1878  0.5314
  592MOL0     O79788   4.324   4.758  10.842 -1.2467  1.0449 -0.2723
  592MOL0     C79789   4.420   4.753  10.945 -0.2289  0.5528 -0.3720
  592MOL0     C79790   4.522   4.655  10.947 -0.1199 -0.6656 -0.9596
  592MOL0     C79791   4.601   4.641  11.065  1.0582  0.6761  1.5176
  592MOL0     C79792   4.591   4.727  11.170  0.9353 -0.0006 -0.1384
  592MOL0     O79793   4.637   4.699  11.299  0.0736  0.1950  0.2235
  592MOL0     C79794   4.746   4.611  11.316 -0.8617 -1.2466  0.4938
  592MOL0     C79795   4.794   4.627  11.462 -0.5891 -1.5698  0.3503
  592MOL0     C79796   4.709   4.545  11.552 -0.0516 -0.9475 -0.4068
  592MOL0     C79797   4.772   4.546  11.690 -0.5584 -0.5182 -0.6160
  592MOL0     C79798   4.777   4.686  11.761 -0.5037  0.9762  0.2859
  592MOL0     C79799   4.815   4.684  11.906  0.8087  0.2916 -0.1848
  592MOL0     C79800   4.721   4.621  12.005 -0.1749 -0.0092 -0.6622
  592MOL0     C79801   4.735   4.647  12.140  0.1267 -0.8847 -0.2065
  592MOL0     N79802   4.684   4.774  12.196 -0.0511  0.3761  0.0301
  592MOL0     C79803   4.567   4.838  12.150 -0.4301 -0.3952  1.2257
  592MOL0     C79804   4.561   4.953  12.223 -0.7614 -0.1360 -1.3110
  592MOL0     C79805   4.449   5.053  12.217 -0.8771 -1.0405 -0.1097
  592MOL0     C79806   4.503   5.193  12.205  0.7338 -0.1646  0.4519
  592MOL0     C79807   4.530   5.259  12.343  0.2485  0.4995  0.6035
  592MOL0     C79808   4.423   5.258  12.455 -0.2762  0.3286  0.3941
  592MOL0     O79809   4.298   5.310  12.410  0.0731 -0.1207 -0.3469
  592MOL0     C79810   4.208   5.338  12.496 -0.9325  0.4494 -0.4260
  592MOL0     C79811   4.228   5.371  12.628 -0.3516 -0.3060 -1.1580
  592MOL0     C79812   4.118   5.402  12.710  0.7244  0.1699  0.0789
  592MOL0     C79813   4.146   5.453  12.853 -0.0462  0.2951 -0.8208
  592MOL0     C79814   3.981   5.411  12.655 -0.4124 -0.3477  0.0508
  592MOL0     C79815   3.855   5.436  12.729 -0.0819  0.0686 -0.4409
  592MOL0     O79816   3.741   5.436  12.652  0.7819  0.1679 -0.1268
  592MOL0     C79817   3.625   5.485  12.711  0.4993  0.5896 -0.2372
  592MOL0     C79818   3.578   5.611  12.677  0.1169 -0.2246 -0.0870
  592MOL0     C79819   3.452   5.652  12.728 -0.4903  0.5603 -0.0342
  592MOL0     C79820   3.375   5.574  12.809 -0.5964  0.3037 -0.6178
  592MOL0     O79821   3.253   5.615  12.847  0.1369 -0.2910 -0.1868
  592MOL0     C79822   3.147   5.524  12.853 -0.0427  0.0139 -0.3885
  592MOL0     C79823   3.019   5.569  12.779 -0.6281  0.4504 -0.3158
  592MOL0     C79824   2.968   5.707  12.820  0.2885 -0.1986 -0.7044
  592MOL0     C79825   2.825   5.725  12.768  0.5753 -0.6286  0.5119
  592MOL0     C79826   2.720   5.648  12.846  0.1870  0.5100  1.2317
  592MOL0     C79827   2.578   5.716  12.839  0.0957  0.0333  0.2963
  592MOL0     C79828   2.521   5.745  12.695 -0.9366  0.5113 -0.9227
  592MOL0     C79829   2.483   5.624  12.615 -0.8383 -0.5798  1.1740
  592MOL0    Cl79830   2.620   5.523  12.579 -0.0596  0.2356 -0.0449
  592MOL0     C79831   3.424   5.441  12.847 -0.2447 -0.3551 -0.6600
  592MOL0     C79832   3.548   5.403  12.804  0.4481 -0.9852  0.1283
  592MOL0     O79833   3.866   5.469  12.850 -0.0079  0.2904 -0.1243
  592MOL0     C79834   3.965   5.385  12.516  0.4926  0.7592 -0.2899
  592MOL0     C79835   4.080   5.354  12.444 -0.4697  0.1898 -0.3104
  592MOL0     N79836   4.670   4.960  12.311 -0.2354  0.0983  1.3199
  592MOL0     N79837   4.740   4.852  12.298  0.0432  0.3038  0.2499
  592MOL0     C79838   4.494   4.830  11.165  1.0674 -0.1096 -0.3199
  592MOL0     C79839   4.405   4.834  11.057  0.6014 -0.5515 -0.0505
  592MOL0     C79840   4.188   4.648  10.682  0.1482 -0.0128  0.6769
  592MOL0     C79841   4.190   4.758  10.594  0.2467  0.4975 -0.4260
  592MOL0     C79842   4.114   4.752  10.481  0.2235 -1.2768  0.1572
  592MOL0     C79843   4.057   4.634  10.433 -0.1708 -1.1259 -0.2922
  592MOL0     O79844   3.974   4.621  10.319  0.9518  0.4172 -0.8098
  592MOL0     C79845   4.041   4.617  10.198 -0.1797  0.3963 -0.5957
  592MOL0     C79846   3.962   4.548  10.086  0.2171  0.1035 -0.2365
  592MOL0     C79847   3.953   4.395  10.116 -0.6351 -0.1964  0.1320
  592MOL0     C79848   3.835   4.334  10.038 -0.3552 -0.2903 -0.9616
  592MOL0     C79849   3.704   4.365  10.103 -0.1835 -0.0395 -0.0279
  592MOL0     C79850   3.593   4.388  10.156 -0.4047 -0.2123 -0.1359
  592MOL0     C79851   4.076   4.520  10.507  0.1908  0.4003 -0.8513
  592MOL0     C79852   4.131   4.531  10.637  0.1687  0.1558  0.3455
  592MOL0     H79853   4.545   4.590  10.863 -1.7088 -1.7408 -0.5956
  592MOL0     H79854   4.676   4.563  11.059 -1.0206 -1.3378 -2.8171
  592MOL0     H79855   4.728   4.508  11.284  2.1915 -0.5996 -4.3519
  592MOL0     H79856   4.821   4.662  11.255  0.4964  1.1642  3.8444
  592MOL0     H79857   4.899   4.594  11.467 -0.4729 -1.4086 -0.7420
  592MOL0     H79858   4.796   4.728  11.502  3.8021 -1.9723  1.7045
  592MOL0     H79859   4.608   4.587  11.542 -0.7168 -2.4391 -0.2803
  592MOL0     H79860   4.691   4.444  11.513 -2.0564 -0.1559 -1.6734
  592MOL0     H79861   4.711   4.471  11.741  1.7542 -0.1172  3.0879
  592MOL0     H79862   4.871   4.507  11.667 -0.3495  0.4116 -1.3878
  592MOL0     H79863   4.845   4.749  11.702 -1.0650 -1.6241 -3.5131
  592MOL0     H79864   4.683   4.743  11.756 -0.1710  1.5267  0.1911
  592MOL0     H79865   4.920   4.655  11.918  0.5548 -1.3902 -1.6460
  592MOL0     H79866   4.810   4.789  11.939  0.7105  0.0582  0.5602
  592MOL0     H79867   4.616   4.631  11.975 -1.5993 -3.3070  2.5779
  592MOL0     H79868   4.747   4.515  12.002  1.5709  0.4028 -2.5809
  592MOL0     H79869   4.839   4.646  12.175 -0.4645 -3.4100  1.7549
  592MOL0     H79870   4.686   4.564  12.191  0.3858 -1.1225 -0.3417
  592MOL0     H79871   4.501   4.809  12.069 -3.5719 -0.0317  3.4766
  592MOL0     H79872   4.398   5.031  12.122 -0.9614 -2.7411  0.3055
  592MOL0     H79873   4.394   5.041  12.310 -1.2390 -0.0438 -0.1826
  592MOL0     H79874   4.431   5.263  12.163 -0.9127  0.0483  3.3333
  592MOL0     H79875   4.599   5.183  12.153  2.1834  1.1483  2.7079
  592MOL0     H79876   4.563   5.363  12.334  1.1855  0.4958  3.0606
  592MOL0     H79877   4.617   5.208  12.386  0.0967 -1.2469 -1.0014
  592MOL0     H79878   4.468   5.324  12.529 -1.8976  1.8284  0.1167
  592MOL0     H79879   4.404   5.160  12.500  2.1361 -0.4507 -0.1493
  592MOL0     H79880   4.328   5.378  12.668 -1.6115 -0.2008  2.3557
  592MOL0     H79881   4.102   5.553  12.862 -2.9512 -0.7625 -2.1366
  592MOL0     H79882   4.094   5.394  12.929 -1.7555  1.3649 -1.1068
  592MOL0     H79883   4.254   5.461  12.866 -0.3037  2.4486  0.5797
  592MOL0     H79884   3.641   5.662  12.604  5.0074 -2.1645  2.3047
  592MOL0     H79885   3.413   5.752  12.708 -2.4605 -0.7792 -3.8498
  592MOL0     H79886   3.171   5.431  12.800 -0.0390 -0.3142  0.1835
  592MOL0     H79887   3.130   5.486  12.954 -1.6633 -3.4838 -1.7779
  592MOL0     H79888   3.033   5.571  12.671  0.2253  0.5214 -0.2099
  592MOL0     H79889   2.938   5.497  12.796  1.0654 -1.1897  1.3409
  592MOL0     H79890   3.034   5.791  12.795  2.6741 -2.0140 -0.7937
  592MOL0     H79891   2.965   5.715  12.929  0.0208  2.4162 -0.8463
  592MOL0     H79892   2.809   5.833  12.774  1.1611 -0.2862 -2.3622
  592MOL0     H79893   2.806   5.695  12.664 -2.8488  0.0825  0.8061
  592MOL0     H79894   2.751   5.646  12.951 -3.0637 -3.6231  2.3887
  592MOL0     H79895   2.718   5.545  12.809  1.8163  1.1603 -0.8534
  592MOL0     H79896   2.513   5.651  12.898  0.7342 -0.4166  0.5164
  592MOL0     H79897   2.596   5.813  12.887 -2.9842  0.1210  1.4725
  592MOL0     H79898   2.600   5.799  12.641  2.7362 -0.1903  3.1785
  592MOL0     H79899   2.440   5.819  12.697  0.1360  1.7570  1.8771
  592MOL0     H79900   2.437   5.661  12.523 -1.5053 -0.6957  1.4536
  592MOL0     H79901   2.412   5.566  12.676 -0.1274 -0.1221  2.4779
  592MOL0     H79902   3.368   5.369  12.906  0.8373 -0.6244  0.0765
  592MOL0     H79903   3.594   5.306  12.823  0.9568 -1.5174 -3.2837
  592MOL0     H79904   3.870   5.372  12.464 -0.2470 -1.7648  1.5082
  592MOL0     H79905   4.055   5.336  12.340  1.3100  1.6618 -1.0228
  592MOL0     H79906   4.477   4.891  11.253  2.2196 -0.9403  0.5155
  592MOL0     H79907   4.314   4.894  11.061  0.6071 -0.5939  0.8713
  592MOL0     H79908   4.244   4.846  10.628 -1.5670  1.1909  0.8928
  592MOL0     H79909   4.108   4.847  10.428  0.6024 -1.2967  0.0738
  592MOL0     H79910   4.076   4.717  10.173 -0.3961  0.8183  0.7010
  592MOL0     H79911   4.124   4.547  10.216 -0.8589  0.0737  1.6180
  592MOL0     H79912   3.997   4.561   9.983  0.3964 -1.0171 -0.3318
  592MOL0     H79913   3.861   4.591  10.089 -0.6141 -1.6167 -1.4044
  592MOL0     H79914   3.954   4.383  10.224  0.9992  1.6497  0.3763
  592MOL0     H79915   4.043   4.341  10.082  1.1301  1.6661  1.6177
  592MOL0     H79916   3.853   4.229  10.014  1.6371 -0.4189  0.7836
  592MOL0     H79917   3.835   4.377   9.938  1.0755  0.4735 -0.6485
  592MOL0     H79918   3.503   4.417  10.206 -0.2002 -1.1809  0.8182
  592MOL0     H79919   4.030   4.426  10.479  1.0701 -0.6619  1.0433
  592MOL0     H79920   4.130   4.446  10.705  1.2743 -0.1129  0.0548
  593MOL0     O79921   3.781   4.508   7.519 -0.2704  0.7065 -0.2546
  593MOL0     C79922   3.831   4.432   7.429 -0.5717  0.4615 -0.3283
  593MOL0     O79923   3.961   4.444   7.387 -1.0230  0.3817 -0.6314
  593MOL0     C79924   4.040   4.551   7.419 -0.3053  0.3770 -0.7001
  593MOL0     C79925   4.176   4.523   7.453  0.0196  0.2088  0.5823
  593MOL0     C79926   4.256   4.627   7.491 -0.4821 -1.1196  1.2758
  593MOL0     C79927   4.217   4.762   7.506 -0.5993  0.2018 -0.5398
  593MOL0     O79928   4.311   4.861   7.532  0.3541  0.6651 -0.0395
  593MOL0     C79929   4.269   4.996   7.571  0.8985 -0.3361  0.6148
  593MOL0     C79930   4.380   5.084   7.622 -1.2057  0.8886  0.3653
  593MOL0     C79931   4.317   5.212   7.679  0.3008 -1.2662  0.2619
  593MOL0     C79932   4.413   5.304   7.756  0.6193 -0.2306  0.5961
  593MOL0     C79933   4.350   5.436   7.778  0.3593 -0.2712  0.3498
  593MOL0     C79934   4.398   5.558   7.691 -0.0055  0.4039 -0.3743
  593MOL0     C79935   4.309   5.676   7.708  1.0506  0.3327 -0.1919
  593MOL0     C79936   4.335   5.750   7.842  0.9498  0.3413  0.4601
  593MOL0     N79937   4.444   5.847   7.813 -0.0677  0.5020  0.3514
  593MOL0     C79938   4.580   5.827   7.822  0.9205  0.8537  0.6120
  593MOL0     C79939   4.634   5.936   7.767  0.0590 -0.1815  0.3954
  593MOL0     C79940   4.782   5.952   7.738  0.0560  0.3067  0.5687
  593MOL0     C79941   4.840   5.844   7.642 -0.0843 -1.2376  0.2378
  593MOL0     C79942   4.798   5.864   7.492 -0.9217  0.3953 -0.1570
  593MOL0     C79943   4.661   5.822   7.449 -0.4787  0.8280 -0.5123
  593MOL0     O79944   4.653   5.679   7.474  0.7940 -0.3476 -0.4230
  593MOL0     C79945   4.692   5.586   7.386 -0.3591  0.4438 -0.3373
  593MOL0     C79946   4.703   5.457   7.440 -0.9924 -1.1715  0.2972
  593MOL0     C79947   4.739   5.349   7.360  0.2538 -0.2856 -0.8622
  593MOL0     C79948   4.746   5.208   7.432 -1.0237  1.1076  0.6201
  593MOL0     C79949   4.769   5.372   7.224 -0.2052  0.0668  0.8849
  593MOL0     C79950   4.816   5.263   7.127 -0.2168 -0.2515 -0.3180
  593MOL0     O79951   4.791   5.297   6.990  0.2755 -0.3763  0.2065
  593MOL0     C79952   4.823   5.191   6.904  0.5858 -1.1872 -0.2720
  593MOL0     C79953   4.923   5.219   6.822 -1.2404 -0.1633 -0.7331
  593MOL0     C79954   4.967   5.122   6.732  1.0708 -0.3845 -0.5796
  593MOL0     C79955   4.904   4.995   6.719  0.0066  0.2555  0.4402
  593MOL0     O79956   4.940   4.889   6.638 -0.3580 -0.3447 -0.1339
  593MOL0     C79957   5.025   4.917   6.526  0.5296 -0.8447 -0.4621
  593MOL0     C79958   5.020   4.796   6.443 -0.1354 -0.6269  0.3987
  593MOL0     C79959   4.891   4.783   6.380  0.5428  0.1352 -0.3934
  593MOL0     C79960   4.879   4.860   6.244 -0.1926  0.1700  1.0572
  593MOL0     C79961   4.876   4.753   6.130  0.5125  0.0599 -0.2319
  593MOL0     C79962   4.735   4.690   6.134  0.1596 -0.3977  0.8186
  593MOL0     C79963   4.682   4.674   5.986 -0.1217 -0.4637 -0.5045
  593MOL0     C79964   4.556   4.591   5.978  0.7799 -0.0903 -0.4822
  593MOL0    Cl79965   4.603   4.415   5.998  0.6479 -0.1267 -0.0239
  593MOL0     C79966   4.785   4.979   6.798  0.0210  0.0254 -0.3450
  593MOL0     C79967   4.741   5.075   6.895 -0.0523 -0.0150  0.5508
  593MOL0     O79968   4.871   5.167   7.171  0.1318  1.0343 -0.1303
  593MOL0     C79969   4.754   5.505   7.168  0.8093  0.5489  0.5866
  593MOL0     C79970   4.722   5.607   7.249  0.2893  0.0865 -0.1899
  593MOL0     N79971   4.532   6.021   7.728 -0.1361 -0.2085 -0.4292
  593MOL0     N79972   4.418   5.970   7.758 -0.7367 -0.6944 -0.1449
  593MOL0     C79973   4.082   4.785   7.471 -0.2292  0.3191  0.0794
  593MOL0     C79974   3.991   4.683   7.440  0.0040 -0.8851 -0.9052
  593MOL0     C79975   3.745   4.335   7.369  0.4702 -0.4644  0.0803
  593MOL0     C79976   3.798   4.233   7.293 -0.5467  0.7459 -0.5962
  593MOL0     C79977   3.712   4.130   7.242  0.6863  0.8355 -0.2013
  593MOL0     C79978   3.575   4.138   7.251  0.2031 -0.1040 -0.5017
  593MOL0     O79979   3.495   4.049   7.183 -0.4873 -0.0622 -0.0342
  593MOL0     C79980   3.477   4.085   7.048 -0.2609  0.1533 -1.1152
  593MOL0     C79981   3.335   4.118   7.027 -0.4656  0.4388 -0.4113
  593MOL0     C79982   3.307   4.178   6.884  0.3469  0.3036 -0.2710
  593MOL0     C79983   3.171   4.139   6.840  0.6363  0.1463 -0.0097
  593MOL0     C79984   3.070   4.240   6.889  0.1485  0.3475 -0.3704
  593MOL0     C79985   3.000   4.329   6.933  0.0619 -0.5338  0.8127
  593MOL0     C79986   3.518   4.240   7.328 -0.7144 -0.3928 -0.1428
  593MOL0     C79987   3.604   4.339   7.390 -0.9923 -0.7030 -0.0049
  593MOL0     H79988   4.218   4.425   7.436  0.9670  0.9267 -1.5390
  593MOL0     H79989   4.357   4.599   7.519 -0.4065  0.5814  2.8487
  593MOL0     H79990   4.227   5.052   7.487  2.3484 -1.7312 -1.1540
  593MOL0     H79991   4.188   4.980   7.643  1.7110 -0.6445  1.4773
  593MOL0     H79992   4.431   5.039   7.707 -0.0209 -1.3807 -1.4181
  593MOL0     H79993   4.460   5.097   7.548 -2.2469  3.3952 -0.4400
  593MOL0     H79994   4.286   5.271   7.591  3.9227  1.8731  0.8019
  593MOL0     H79995   4.228   5.193   7.739  0.4475 -2.5718  0.0858
  593MOL0     H79996   4.444   5.257   7.850 -0.5031 -3.9097 -0.7262
  593MOL0     H79997   4.508   5.321   7.704  0.9083  1.4663  1.5838
  593MOL0     H79998   4.244   5.424   7.755  0.2900  1.5147 -0.4576
  593MOL0     H79999   4.355   5.468   7.883  0.6731 -0.3632  0.3631
  593MOL0     H80000   4.502   5.583   7.714 -0.4801  1.2998  0.9944
  593MOL0     H80001   4.394   5.534   7.585  2.3170 -3.7946  0.2686
  593MOL0     H80002   4.309   5.740   7.620 -3.6815 -1.4028 -1.7767
  593MOL0     H80003   4.209   5.632   7.700  0.4758  1.1279  1.8616
  593MOL0     H80004   4.370   5.683   7.922  0.6353  2.9929  2.9877
  593MOL0     H80005   4.247   5.802   7.881  0.6232  0.6561 -0.6610
  593MOL0     H80006   4.645   5.744   7.847 -0.2689 -0.5026 -0.5721
  593MOL0     H80007   4.804   6.054   7.707  1.0506 -0.1414 -0.2731
  593MOL0     H80008   4.847   5.939   7.825  1.6052 -0.2906 -0.6288
  593MOL0     H80009   4.830   5.740   7.675  0.1177 -0.9210  1.3382
  593MOL0     H80010   4.944   5.878   7.654 -1.5874  4.0403  0.7445
  593MOL0     H80011   4.873   5.805   7.438  0.4569  2.5592 -0.7454
  593MOL0     H80012   4.816   5.970   7.476  0.1574  0.7387  2.8556
  593MOL0     H80013   4.644   5.844   7.343 -0.9625  1.2107 -0.3528
  593MOL0     H80014   4.585   5.863   7.515  0.9155 -1.5058  2.7972
  593MOL0     H80015   4.664   5.449   7.541 -0.1402  0.6500  0.8163
  593MOL0     H80016   4.703   5.129   7.369 -1.1674  2.4614 -1.0521
  593MOL0     H80017   4.848   5.177   7.457 -1.1546  2.3124  2.9165
  593MOL0     H80018   4.707   5.210   7.535  1.9375  1.0052  1.8454
  593MOL0     H80019   4.972   5.316   6.825  0.3428 -0.9107  2.7824
  593MOL0     H80020   5.055   5.137   6.670  0.3738  1.7553 -1.1500
  593MOL0     H80021   4.992   5.006   6.472  2.8907  0.9409  0.8358
  593MOL0     H80022   5.126   4.932   6.566  0.4407 -0.1519 -0.4841
  593MOL0     H80023   5.095   4.799   6.363 -1.1176 -0.5009 -0.5300
  593MOL0     H80024   5.035   4.711   6.509 -0.8283  0.0880  1.5065
  593MOL0     H80025   4.814   4.816   6.451 -2.3657 -1.1166 -2.7372
  593MOL0     H80026   4.859   4.678   6.375 -0.2918  0.3824 -0.3623
  593MOL0     H80027   4.790   4.923   6.241 -1.8582 -1.9254  2.8104
  593MOL0     H80028   4.967   4.925   6.229  2.0154 -1.9320  3.7340
  593MOL0     H80029   4.960   4.684   6.148  1.2579  1.1039  0.4432
  593MOL0     H80030   4.885   4.802   6.033 -1.3905 -3.6496 -2.4875
  593MOL0     H80031   4.729   4.600   6.195 -2.7071  0.1824  1.5457
  593MOL0     H80032   4.657   4.752   6.178 -1.4875 -2.6049  1.1725
  593MOL0     H80033   4.767   4.641   5.926  1.5160  2.0838  0.2012
  593MOL0     H80034   4.666   4.779   5.960 -2.1879 -1.1896 -2.4050
  593MOL0     H80035   4.517   4.592   5.875 -0.1851 -0.4948 -0.1292
  593MOL0     H80036   4.483   4.614   6.056  1.0356 -1.4315  0.1771
  593MOL0     H80037   4.713   4.902   6.770  1.1197 -1.4156  0.6285
  593MOL0     H80038   4.649   5.071   6.952 -0.7315 -2.3029 -0.5912
  593MOL0     H80039   4.756   5.535   7.064  2.1961  2.4567  1.1030
  593MOL0     H80040   4.723   5.706   7.205 -1.4216 -0.3230 -1.2538
  593MOL0     H80041   4.043   4.887   7.469 -2.6197 -0.5310 -2.4708
  593MOL0     H80042   3.891   4.718   7.417 -0.6626  0.2029  2.8859
  593MOL0     H80043   3.905   4.213   7.297 -0.2042  2.5215  2.9975
  593MOL0     H80044   3.760   4.050   7.187  0.1160  0.5293 -0.2661
  593MOL0     H80045   3.536   4.172   7.019  2.2556 -1.7541 -2.0226
  593MOL0     H80046   3.506   4.000   6.985  3.1498 -1.0612  1.7479
  593MOL0     H80047   3.295   4.186   7.102 -0.7975 -0.1816 -0.0086
  593MOL0     H80048   3.304   4.017   7.055  0.4763  0.1218 -0.4792
  593MOL0     H80049   3.381   4.163   6.805 -0.1181  1.6622 -1.0000
  593MOL0     H80050   3.302   4.286   6.901 -3.7092 -0.0292  1.8290
  593MOL0     H80051   3.140   4.041   6.876 -0.5652  1.0194  1.4891
  593MOL0     H80052   3.169   4.141   6.731 -3.8586 -1.8471 -0.1681
  593MOL0     H80053   2.942   4.413   6.967  0.1557 -1.2421  2.8558
  593MOL0     H80054   3.411   4.242   7.347 -0.6417  0.7637  0.2020
  593MOL0     H80055   3.555   4.420   7.441 -1.6717 -0.5006 -0.9555
  594MOL0     O80056   7.270   8.684   8.394  0.0096  0.2867  0.5660
  594MOL0     C80057   7.326   8.766   8.333 -0.3441 -0.8924  0.7125
  594MOL0     O80058   7.466   8.772   8.318  0.2825  0.1205 -0.1237
  594MOL0     C80059   7.542   8.681   8.383 -0.9617  1.6337 -0.3878
  594MOL0     C80060   7.625   8.594   8.306  0.8769  0.9014  0.4598
  594MOL0     C80061   7.721   8.508   8.363 -0.5276 -0.0701  0.2628
  594MOL0     C80062   7.718   8.493   8.497 -0.6575  0.3633  0.5974
  594MOL0     O80063   7.798   8.395   8.558  0.0552 -0.2724 -0.6134
  594MOL0     C80064   7.742   8.317   8.667  0.4939  0.7101 -0.4015
  594MOL0     C80065   7.803   8.182   8.670 -0.3679  0.1964  0.8040
  594MOL0     C80066   7.713   8.083   8.592 -0.6245  0.5472 -0.0423
  594MOL0     C80067   7.606   8.018   8.682  0.9047  0.1306  0.5488
  594MOL0     C80068   7.681   7.896   8.763  0.8335 -0.4368  0.3061
  594MOL0     C80069   7.762   7.786   8.698 -0.4197  0.0877  1.4637
  594MOL0     C80070   7.769   7.663   8.789 -0.8088  0.0568 -0.0929
  594MOL0     C80071   7.845   7.538   8.728 -0.2040 -0.6514  0.8642
  594MOL0     N80072   7.988   7.546   8.714 -0.3066  0.2429  0.3956
  594MOL0     C80073   8.081   7.517   8.811  0.0702  0.1949  0.3186
  594MOL0     C80074   8.202   7.521   8.740 -0.4279 -0.7499 -0.1381
  594MOL0     C80075   8.336   7.503   8.803  0.3605 -1.1690  1.2361
  594MOL0     C80076   8.382   7.364   8.790  0.0944  0.7188 -1.1521
  594MOL0     C80077   8.506   7.347   8.880  0.7957  1.0559  0.5303
  594MOL0     C80078   8.547   7.199   8.891 -0.2968 -0.0423  0.0348
  594MOL0     O80079   8.568   7.145   8.756 -0.5599  0.3956 -0.1028
  594MOL0     C80080   8.522   7.014   8.724  0.5961 -0.6617  1.4083
  594MOL0     C80081   8.432   6.937   8.798  0.0738  1.3627  0.7382
  594MOL0     C80082   8.395   6.808   8.759  0.1923  0.3406 -0.6301
  594MOL0     C80083   8.289   6.739   8.849  0.7573  0.4124 -0.7043
  594MOL0     C80084   8.450   6.749   8.645  0.3387  0.4401  0.3186
  594MOL0     C80085   8.418   6.618   8.583  0.1626 -0.4113  1.2944
  594MOL0     O80086   8.293   6.565   8.605  0.6630 -0.3684  0.1466
  594MOL0     C80087   8.238   6.456   8.551  0.5980  1.0979  0.7177
  594MOL0     C80088   8.127   6.469   8.470  0.0827 -0.4157 -0.0270
  594MOL0     C80089   8.055   6.357   8.418  0.0790 -0.5708 -0.9695
  594MOL0     C80090   8.108   6.231   8.439 -0.1701 -0.3554 -0.8323
  594MOL0     O80091   8.036   6.133   8.377 -0.7334  0.0328 -0.1461
  594MOL0     C80092   8.017   6.014   8.462 -0.9159 -0.3030  0.0541
  594MOL0     C80093   7.898   5.928   8.410 -0.2713  0.0891 -0.3103
  594MOL0     C80094   7.780   5.984   8.498 -0.5460 -0.7417 -0.4503
  594MOL0     C80095   7.656   5.922   8.436 -0.1085 -0.4162 -0.2256
  594MOL0     C80096   7.516   5.960   8.498  0.1265 -0.2956 -0.7576
  594MOL0     C80097   7.409   5.872   8.422  0.3595 -0.5644  0.0692
  594MOL0     C80098   7.266   5.930   8.412  0.4048 -0.3415  1.2205
  594MOL0     C80099   7.195   5.942   8.552 -0.7889  0.6409  0.6720
  594MOL0    Cl80100   7.166   5.791   8.640  0.1955  0.3755  0.4710
  594MOL0     C80101   8.219   6.215   8.527  0.2942 -0.3650 -0.4716
  594MOL0     C80102   8.285   6.324   8.587 -0.1759 -0.7202 -0.1787
  594MOL0     O80103   8.502   6.571   8.504 -0.2495 -0.3883  0.3980
  594MOL0     C80104   8.538   6.834   8.565  0.4019 -0.2513  0.0308
  594MOL0     C80105   8.566   6.966   8.601 -0.8016 -0.2362 -1.3995
  594MOL0     N80106   8.174   7.539   8.605 -1.0225  1.1384  0.1901
  594MOL0     N80107   8.043   7.555   8.595  0.4193  0.2097 -0.4529
  594MOL0     C80108   7.633   8.574   8.577 -0.8526  0.5350 -0.8830
  594MOL0     C80109   7.537   8.660   8.520  0.0009  0.2488 -0.0722
  594MOL0     C80110   7.244   8.870   8.256 -0.6325  0.0590 -0.5255
  594MOL0     C80111   7.109   8.869   8.251  0.2548 -0.0604  0.2628
  594MOL0     C80112   7.041   8.979   8.203  0.5405 -0.3986  0.2261
  594MOL0     C80113   7.095   9.081   8.133 -0.1421  1.3208  1.1434
  594MOL0     O80114   7.036   9.191   8.080 -0.9246  0.7201  0.4934
  594MOL0     C80115   6.916   9.237   8.141 -0.3761  0.2320 -0.0725
  594MOL0     C80116   6.902   9.386   8.110  0.1965 -0.4186 -0.7993
  594MOL0     C80117   7.034   9.469   8.137 -0.1021  0.2502  0.0125
  594MOL0     C80118   7.025   9.623   8.127 -0.1839 -0.2081  0.2633
  594MOL0     C80119   6.918   9.661   8.219  0.0362 -0.5752 -0.5025
  594MOL0     C80120   6.832   9.699   8.307 -0.3847  0.2450 -0.4574
  594MOL0     C80121   7.229   9.081   8.118  0.5401  0.2960  0.3514
  594MOL0     C80122   7.310   8.982   8.186 -0.3293 -0.4609 -0.0794
  594MOL0     H80123   7.618   8.605   8.198 -1.6465 -0.1665  0.4469
  594MOL0     H80124   7.795   8.459   8.299  0.1076 -0.0784  0.9956
  594MOL0     H80125   7.755   8.351   8.770 -1.5238  1.7948 -0.4429
  594MOL0     H80126   7.636   8.302   8.645  0.2733  1.6199  0.0059
  594MOL0     H80127   7.900   8.187   8.620 -0.0668  2.3807  1.5180
  594MOL0     H80128   7.816   8.150   8.774 -0.2773  3.2546  1.8108
  594MOL0     H80129   7.667   8.135   8.507 -2.4764  1.9777  1.7249
  594MOL0     H80130   7.765   7.995   8.554  1.7020  1.6034  0.5162
  594MOL0     H80131   7.550   8.087   8.745  0.6280 -0.1040  0.5601
  594MOL0     H80132   7.525   7.973   8.625  1.0577 -1.3623  1.4412
  594MOL0     H80133   7.740   7.947   8.839 -0.4557  1.1901  0.2816
  594MOL0     H80134   7.599   7.839   8.808  1.2775 -1.7266 -0.4804
  594MOL0     H80135   7.710   7.755   8.607 -0.2787 -0.5612  1.5942
  594MOL0     H80136   7.864   7.815   8.673  0.1039 -1.9187  1.0923
  594MOL0     H80137   7.820   7.693   8.881  0.0100 -1.9874  0.1797
  594MOL0     H80138   7.668   7.629   8.812 -1.3305  1.6418  0.0631
  594MOL0     H80139   7.805   7.528   8.627  1.4460  1.4446 -0.0831
  594MOL0     H80140   7.827   7.444   8.781 -0.0045 -2.3579 -1.8495
  594MOL0     H80141   8.067   7.484   8.913  0.5870 -1.3079 -0.0723
  594MOL0     H80142   8.421   7.564   8.769  3.0653 -3.7258  2.9347
  594MOL0     H80143   8.316   7.531   8.907 -0.3506  0.8251  0.6109
  594MOL0     H80144   8.411   7.328   8.691 -0.4557  0.4031 -1.2025
  594MOL0     H80145   8.306   7.293   8.824  2.7279 -0.7559  2.2603
  594MOL0     H80146   8.488   7.383   8.982 -1.6809 -3.6856  2.1045
  594MOL0     H80147   8.589   7.403   8.837  1.3524  0.3960  0.7179
  594MOL0     H80148   8.474   7.142   8.949  0.3619 -0.8710  0.0621
  594MOL0     H80149   8.638   7.201   8.951 -0.2351  0.8252 -0.0726
  594MOL0     H80150   8.398   6.968   8.897 -0.3422  0.6107  0.8292
  594MOL0     H80151   8.189   6.745   8.805  1.1169 -0.8316 -1.7465
  594MOL0     H80152   8.317   6.633   8.852  2.3783  0.7842 -1.7148
  594MOL0     H80153   8.292   6.768   8.955 -2.8400 -1.1547 -0.0174
  594MOL0     H80154   8.093   6.568   8.441 -0.7251 -0.8637 -0.6222
  594MOL0     H80155   7.980   6.378   8.343  1.0722  1.4359 -1.4599
  594MOL0     H80156   8.105   5.951   8.452 -0.6133  0.2254 -0.6829
  594MOL0     H80157   7.999   6.040   8.567  3.7152 -0.1114  0.9999
  594MOL0     H80158   7.886   5.933   8.301 -0.1606  1.8424 -0.2751
  594MOL0     H80159   7.911   5.822   8.434  0.7489  0.6088  1.6762
  594MOL0     H80160   7.777   6.093   8.499  1.0176 -0.5963  3.0325
  594MOL0     H80161   7.783   5.956   8.604 -0.8293  1.9812  0.3620
  594MOL0     H80162   7.650   5.943   8.329  2.2382 -0.3683 -0.3928
  594MOL0     H80163   7.662   5.813   8.443 -3.4081 -0.8176 -1.4420
  594MOL0     H80164   7.514   6.067   8.476  1.4403 -0.0745  0.1070
  594MOL0     H80165   7.495   5.953   8.605 -0.8847 -1.2074 -1.0029
  594MOL0     H80166   7.432   5.858   8.316 -2.5528  2.4268 -1.1523
  594MOL0     H80167   7.403   5.775   8.471 -2.5196 -0.4723  0.0897
  594MOL0     H80168   7.204   5.864   8.350 -1.1800  2.8119 -0.7876
  594MOL0     H80169   7.266   6.027   8.363  2.0552  0.2965  2.3993
  594MOL0     H80170   7.100   5.996   8.547 -0.7698  0.6066 -0.1064
  594MOL0     H80171   7.253   6.009   8.616 -0.9644  2.3004 -0.8391
  594MOL0     H80172   8.269   6.125   8.561  0.0624  1.2491  5.3093
  594MOL0     H80173   8.367   6.307   8.656  0.3734  0.9754 -0.3560
  594MOL0     H80174   8.588   6.798   8.475  1.3244 -1.7340  1.0821
  594MOL0     H80175   8.643   7.013   8.541  2.8438 -2.6215  0.9714
  594MOL0     H80176   7.648   8.560   8.684  2.5360 -0.4640 -1.3451
  594MOL0     H80177   7.466   8.712   8.583  1.7087  1.2037  1.1538
  594MOL0     H80178   7.044   8.800   8.304 -1.0303  0.4951 -0.5284
  594MOL0     H80179   6.932   8.978   8.203  0.4067 -2.6131 -3.1658
  594MOL0     H80180   6.836   9.174   8.102 -1.0791  1.7180 -1.1066
  594MOL0     H80181   6.928   9.232   8.250  2.3458  0.2811 -0.2979
  594MOL0     H80182   6.820   9.420   8.174 -1.8114 -4.1812 -1.0510
  594MOL0     H80183   6.873   9.386   8.005  1.1544  0.8320 -1.0844
  594MOL0     H80184   7.103   9.452   8.054 -3.2520  0.8019 -2.9463
  594MOL0     H80185   7.078   9.441   8.234  1.1479  0.9102 -0.3333
  594MOL0     H80186   7.005   9.660   8.026  4.1629 -1.7678 -1.3833
  594MOL0     H80187   7.125   9.661   8.148  1.3909 -3.3406 -0.8790
  594MOL0     H80188   6.765   9.735   8.382 -0.9892 -0.2723 -0.7352
  594MOL0     H80189   7.269   9.166   8.064  1.3485 -0.5497 -0.3952
  594MOL0     H80190   7.417   9.000   8.182 -0.8344  3.6562 -0.2858
  595MOL0     O80191   0.004  10.566   1.134 -0.7936  0.0717 -0.4414
  595MOL0     C80192  -0.019  10.627   1.241 -0.0274 -0.7115 -0.3503
  595MOL0     O80193   0.022  10.759   1.271  0.0874 -0.5968  0.2783
  595MOL0     C80194   0.063  10.847   1.176 -0.6674 -0.7741  0.3586
  595MOL0     C80195  -0.003  10.966   1.158 -0.1690 -1.7583  0.3815
  595MOL0     C80196   0.040  11.065   1.062  0.8144 -0.1495  0.0341
  595MOL0     C80197   0.145  11.039   0.988 -1.0532  0.1913 -0.6394
  595MOL0     O80198   0.173  11.134   0.890  0.0577 -0.3998 -0.0363
  595MOL0     C80199   0.312  11.156   0.867 -0.1686 -0.0118 -0.6100
  595MOL0     C80200   0.366  11.128   0.734  0.7987  0.2629 -0.3205
  595MOL0     C80201   0.507  11.176   0.722  0.4903 -0.2500  0.9679
  595MOL0     C80202   0.577  11.076   0.626  1.0808  0.1773  0.3653
  595MOL0     C80203   0.731  11.105   0.616 -0.2055  0.0176  0.1193
  595MOL0     C80204   0.787  11.251   0.610 -0.3664 -0.8606  0.0906
  595MOL0     C80205   0.762  11.317   0.467 -0.1236 -0.0688  0.6263
  595MOL0     C80206   0.880  11.280   0.371  0.0757  0.0718 -0.1579
  595MOL0     N80207   0.835  11.308   0.236 -0.5512  0.4072  0.1653
  595MOL0     C80208   0.831  11.426   0.170  0.5039 -0.1879  0.7992
  595MOL0     C80209   0.785  11.389   0.045  0.3324  0.6737 -0.0155
  595MOL0     C80210   0.743  11.480  -0.068 -0.7910  0.3996 -1.1323
  595MOL0     C80211   0.656  11.596  -0.010 -0.1337 -1.4069  0.5707
  595MOL0     C80212   0.541  11.558   0.074  0.8873 -0.0876 -0.0405
  595MOL0     C80213   0.436  11.454   0.023  0.0531 -0.1572  1.0554
  595MOL0     O80214   0.308  11.464   0.088 -0.0331  0.2068 -0.0182
  595MOL0     C80215   0.247  11.361   0.161  0.1807 -0.3667  0.1934
  595MOL0     C80216   0.122  11.398   0.209 -0.4016  0.7342 -0.6463
  595MOL0     C80217   0.037  11.313   0.278 -0.1485  0.0246 -1.0801
  595MOL0     C80218  -0.091  11.374   0.336 -0.1066  0.2142  0.2593
  595MOL0     C80219   0.087  11.179   0.298  0.5747  0.3043 -0.6910
  595MOL0     C80220   0.002  11.071   0.362 -1.1398  0.3701 -0.9765
  595MOL0     O80221   0.072  10.973   0.426 -0.3756 -0.5398 -0.3099
  595MOL0     C80222   0.004  10.881   0.517 -0.7247  0.5397 -0.3738
  595MOL0     C80223  -0.117  10.814   0.477  0.3272 -1.1891  0.3576
  595MOL0     C80224  -0.186  10.742   0.575 -0.2044  0.1244  0.0054
  595MOL0     C80225  -0.144  10.742   0.706 -0.4791 -1.2153  1.1199
  595MOL0     O80226  -0.227  10.682   0.797  0.5028 -0.3487  0.1307
  595MOL0     C80227  -0.226  10.740   0.930  0.5995 -0.2189 -0.1545
  595MOL0     C80228  -0.374  10.768   0.970  0.4193 -0.1787  0.5320
  595MOL0     C80229  -0.466  10.640   0.970  0.0094 -0.3476  0.1537
  595MOL0     C80230  -0.461  10.587   1.115  0.1496 -0.6280  0.5956
  595MOL0     C80231  -0.552  10.467   1.131 -0.8240  0.2588  0.7029
  595MOL0     C80232  -0.495  10.341   1.049 -0.0293 -0.1930  0.6529
  595MOL0     C80233  -0.356  10.291   1.099  0.0058 -0.0327  0.1861
  595MOL0     C80234  -0.331  10.146   1.046 -0.2369 -0.1486  0.1871
  595MOL0    Cl80235  -0.161  10.101   1.081  0.0788 -0.4565  0.4233
  595MOL0     C80236  -0.025  10.820   0.736  0.5506  0.4658 -0.9246
  595MOL0     C80237   0.042  10.887   0.644 -0.1902  0.2885 -0.8539
  595MOL0     O80238  -0.116  11.069   0.350  0.6145 -0.0496 -0.3194
  595MOL0     C80239   0.212  11.139   0.249  0.7468 -0.3631  0.3250
  595MOL0     C80240   0.295  11.235   0.189 -0.1254 -0.7557  0.0616
  595MOL0     N80241   0.747  11.260   0.044 -0.0325 -0.0597 -0.2895
  595MOL0     N80242   0.781  11.214   0.152  0.3363  0.9837 -0.5859
  595MOL0     C80243   0.212  10.913   0.990 -0.0977  0.9169 -0.0040
  595MOL0     C80244   0.171  10.814   1.086  0.2424  0.0125  0.2259
  595MOL0     C80245  -0.101  10.566   1.345 -0.3335  0.9285  0.2312
  595MOL0     C80246  -0.162  10.442   1.326  0.9194  0.4398 -1.5274
  595MOL0     C80247  -0.228  10.373   1.431  0.0969 -0.5408 -0.8844
  595MOL0     C80248  -0.247  10.442   1.548 -0.5897  0.2319 -0.1887
  595MOL0     O80249  -0.314  10.367   1.647 -0.1651  0.7768  0.1566
  595MOL0     C80250  -0.322  10.420   1.777 -1.8696  0.2930  0.8265
  595MOL0     C80251  -0.410  10.322   1.867 -0.3500 -0.0563  0.6066
  595MOL0     C80252  -0.345  10.181   1.882 -0.2205 -0.5882  0.2629
  595MOL0     C80253  -0.441  10.079   1.931  0.2934  1.0338 -0.2545
  595MOL0     C80254  -0.489  10.104   2.067 -0.8088  0.5444 -0.3074
  595MOL0     C80255  -0.529  10.131   2.179 -0.5414  0.3162  0.1462
  595MOL0     C80256  -0.188  10.565   1.571 -0.5717 -0.2305  0.0815
  595MOL0     C80257  -0.108  10.631   1.472  0.0504 -0.2562  0.4991
  595MOL0     H80258  -0.083  10.989   1.228 -2.8331  0.2571 -2.9787
  595MOL0     H80259  -0.009  11.160   1.046 -0.1278 -0.6852 -0.3515
  595MOL0     H80260   0.316  11.265   0.876 -3.5864  0.1063  1.3190
  595MOL0     H80261   0.380  11.119   0.944  1.2307 -0.9401 -2.2437
  595MOL0     H80262   0.359  11.019   0.729  4.5131 -0.0504 -1.4241
  595MOL0     H80263   0.298  11.171   0.660  0.8518  2.1805  0.6792
  595MOL0     H80264   0.496  11.274   0.674  0.5470 -0.1901  1.0777
  595MOL0     H80265   0.580  11.173   0.803  0.7732 -3.6706  0.7311
  595MOL0     H80266   0.548  10.974   0.654 -2.4536  0.8787 -0.2438
  595MOL0     H80267   0.530  11.080   0.528  1.9394 -1.0463 -0.1080
  595MOL0     H80268   0.782  11.056   0.700  1.0682 -2.0014 -1.7186
  595MOL0     H80269   0.759  11.048   0.527  1.1920 -0.1776  0.6597
  595MOL0     H80270   0.751  11.310   0.695  0.3618  0.4705 -0.5001
  595MOL0     H80271   0.896  11.248   0.619 -0.3117  0.1718 -0.0878
  595MOL0     H80272   0.673  11.269   0.427  0.5723  1.2829 -2.8668
  595MOL0     H80273   0.750  11.425   0.473 -1.1088 -0.1090 -0.3587
  595MOL0     H80274   0.906  11.174   0.372  2.5609  0.5660 -1.7304
  595MOL0     H80275   0.968  11.343   0.385  0.7367 -1.0829  1.0167
  595MOL0     H80276   0.856  11.525   0.207  1.7877 -0.1910 -0.0301
  595MOL0     H80277   0.839  11.516  -0.105  0.1238 -2.1980 -1.4713
  595MOL0     H80278   0.701  11.431  -0.156 -1.7250 -1.4585  0.2840
  595MOL0     H80279   0.627  11.644  -0.104 -2.9374  1.5797  2.7554
  595MOL0     H80280   0.713  11.676   0.037  0.8470 -2.3707  1.0727
  595MOL0     H80281   0.490  11.650   0.100  0.1445  0.2205 -2.3175
  595MOL0     H80282   0.569  11.506   0.166 -0.4263  2.7197  2.0816
  595MOL0     H80283   0.474  11.351   0.020  0.2357 -0.0698 -1.1940
  595MOL0     H80284   0.426  11.472  -0.084 -0.3474  2.6692  1.5114
  595MOL0     H80285   0.081  11.498   0.200  1.0080  1.4879  0.6957
  595MOL0     H80286  -0.114  11.466   0.282 -0.3849 -0.8132 -1.4774
  595MOL0     H80287  -0.179  11.309   0.332  0.7691 -1.0590  1.0109
  595MOL0     H80288  -0.068  11.399   0.440  2.3669  2.2571 -0.6808
  595MOL0     H80289  -0.155  10.807   0.375  0.8574 -1.6979  0.1831
  595MOL0     H80290  -0.274  10.684   0.551 -0.1815  0.4039 -0.8062
  595MOL0     H80291  -0.169  10.672   0.995 -0.3994 -0.4209  0.5323
  595MOL0     H80292  -0.185  10.841   0.934 -1.3895  0.9361 -3.9774
  595MOL0     H80293  -0.375  10.822   1.065  2.0627  2.5011 -0.8636
  595MOL0     H80294  -0.420  10.832   0.895 -3.1167  1.2002  3.5561
  595MOL0     H80295  -0.411  10.561   0.918  0.8867  0.0911  0.3909
  595MOL0     H80296  -0.569  10.654   0.938 -0.6298 -2.3533  1.1646
  595MOL0     H80297  -0.358  10.571   1.148  0.4381 -2.0156 -0.8656
  595MOL0     H80298  -0.504  10.660   1.185  1.6716 -0.7619  1.7157
  595MOL0     H80299  -0.655  10.494   1.108 -0.7344  0.6300  0.7302
  595MOL0     H80300  -0.552  10.431   1.234  1.2123 -1.3178  0.2219
  595MOL0     H80301  -0.569  10.262   1.065  1.7209 -2.0814 -0.0789
  595MOL0     H80302  -0.493  10.376   0.945  0.1767  0.7813  0.9770
  595MOL0     H80303  -0.359  10.276   1.207  0.1020 -1.0328  0.0585
  595MOL0     H80304  -0.274  10.358   1.071  0.0663  0.4331  1.4048
  595MOL0     H80305  -0.354  10.137   0.939 -0.2589 -3.3808  0.3761
  595MOL0     H80306  -0.397  10.079   1.101 -2.0626  3.0306  2.1959
  595MOL0     H80307   0.013  10.820   0.838 -0.3783  2.4322 -0.5144
  595MOL0     H80308   0.133  10.944   0.654 -1.4143  2.1936  0.0907
  595MOL0     H80309   0.237  11.033   0.259  1.2852 -0.3123 -0.4217
  595MOL0     H80310   0.390  11.202   0.149  0.0377 -0.9521  0.5974
  595MOL0     H80311   0.294  10.891   0.922  2.8507  1.0450  3.2417
  595MOL0     H80312   0.216  10.716   1.091 -0.2816 -0.4286 -2.2566
  595MOL0     H80313  -0.144  10.395   1.230 -1.8977 -0.0565 -1.8958
  595MOL0     H80314  -0.257  10.269   1.419  2.4896 -1.9650  3.4734
  595MOL0     H80315  -0.226  10.439   1.825  0.1524 -0.3495 -2.6472
  595MOL0     H80316  -0.375  10.515   1.764 -1.7174  0.0243 -2.6073
  595MOL0     H80317  -0.512  10.310   1.829 -0.5985  2.8685  0.1373
  595MOL0     H80318  -0.419  10.372   1.964  2.8766  1.7339  0.1225
  595MOL0     H80319  -0.260  10.183   1.951 -1.0009  1.3203  1.2509
  595MOL0     H80320  -0.310  10.148   1.784  0.6854 -2.8668  1.2875
  595MOL0     H80321  -0.377   9.991   1.945  0.2436  1.3322  2.4308
  595MOL0     H80322  -0.529  10.072   1.867  1.0049  1.9321 -1.3582
  595MOL0     H80323  -0.572  10.149   2.275  1.3538 -2.3567  1.6099
  595MOL0     H80324  -0.208  10.629   1.657  1.9460 -0.6693  1.0739
  595MOL0     H80325  -0.066  10.728   1.494  0.3086  0.3789 -2.4832
  596MOL0     O80326   0.659   0.031   8.116  1.0599  0.0530 -0.8177
  596MOL0     C80327   0.648   0.044   7.995 -0.3289 -0.3827 -0.1935
  596MOL0     O80328   0.541   0.013   7.918 -0.2615  0.8621 -0.5022
  596MOL0     C80329   0.419   0.004   7.987 -0.9463 -0.5487 -0.3520
  596MOL0     C80330   0.354   0.121   8.029 -0.5572  0.7627  0.3413
  596MOL0     C80331   0.228   0.117   8.094 -0.1377 -0.0926 -0.2046
  596MOL0     C80332   0.175  -0.006   8.119 -0.0861 -0.6537 -0.9777
  596MOL0     O80333   0.062  -0.004   8.202 -1.0626 -0.7182 -0.2961
  596MOL0     C80334   0.027  -0.120   8.287  0.2686 -0.0084  0.8198
  596MOL0     C80335  -0.088  -0.085   8.377  0.6116  0.7327 -0.7870
  596MOL0     C80336  -0.211  -0.056   8.300  0.5726  0.4049  0.7357
  596MOL0     C80337  -0.349  -0.044   8.388 -0.4150 -0.1907 -0.4675
  596MOL0     C80338  -0.472  -0.047   8.295 -0.4039  0.7208 -0.2286
  596MOL0     C80339  -0.597   0.007   8.366  0.1345  0.2341 -0.2940
  596MOL0     C80340  -0.724   0.001   8.282 -0.4299 -0.3663 -0.3604
  596MOL0     C80341  -0.827   0.112   8.312 -0.3072 -0.8641 -0.0843
  596MOL0     N80342  -0.954   0.089   8.237  0.5741 -0.6472 -0.5218
  596MOL0     C80343  -0.968   0.032   8.115  0.2228 -0.3434  0.2564
  596MOL0     C80344  -1.085   0.090   8.066  0.8109  0.1916 -0.5892
  596MOL0     C80345  -1.140   0.050   7.932  0.2138 -0.3058 -1.0273
  596MOL0     C80346  -1.251   0.138   7.865 -0.1972 -0.6280  0.0008
  596MOL0     C80347  -1.340   0.047   7.783 -0.8357  0.5061  0.5005
  596MOL0     C80348  -1.438   0.119   7.692  0.1677  0.5346 -0.2701
  596MOL0     O80349  -1.516   0.020   7.623  0.0970  0.0800 -0.2669
  596MOL0     C80350  -1.633   0.059   7.554  0.4516  0.2915  0.6166
  596MOL0     C80351  -1.661   0.191   7.514 -0.1256  0.0562  0.7585
  596MOL0     C80352  -1.782   0.221   7.448 -0.0933 -0.4513  0.2098
  596MOL0     C80353  -1.805   0.372   7.423  0.3004 -0.6464 -1.0629
  596MOL0     C80354  -1.873   0.121   7.406 -0.1201 -0.3855 -1.0260
  596MOL0     C80355  -1.995   0.136   7.328 -0.0011 -1.7369 -1.2205
  596MOL0     O80356  -2.012   0.260   7.278  0.4762  0.6915 -0.1043
  596MOL0     C80357  -2.129   0.285   7.208  0.0108 -0.0146 -0.7055
  596MOL0     C80358  -2.236   0.362   7.248 -0.3106 -0.0608  0.1371
  596MOL0     C80359  -2.338   0.398   7.165 -0.7246  0.8568  0.0215
  596MOL0     C80360  -2.344   0.344   7.031  0.1961 -0.8916  0.3773
  596MOL0     O80361  -2.449   0.378   6.941  0.0626  0.5710 -0.7710
  596MOL0     C80362  -2.562   0.447   6.997 -0.1716  0.0306 -0.4947
  596MOL0     C80363  -2.680   0.448   6.900  0.2458 -0.6181  0.3812
  596MOL0     C80364  -2.646   0.515   6.758 -0.0786  0.5192 -0.3839
  596MOL0     C80365  -2.770   0.590   6.698 -0.0774 -0.3943  0.1362
  596MOL0     C80366  -2.857   0.501   6.607 -0.1675 -0.2666 -0.0219
  596MOL0     C80367  -2.974   0.585   6.548  0.2688  0.7851  0.4169
  596MOL0     C80368  -2.995   0.552   6.399  0.6972  0.3526 -0.7252
  596MOL0     C80369  -3.101   0.625   6.334  0.7811 -0.1003  0.5997
  596MOL0    Cl80370  -3.061   0.796   6.300  0.2207 -0.0270  0.1054
  596MOL0     C80371  -2.243   0.265   6.992  0.2551  0.5640 -0.1796
  596MOL0     C80372  -2.132   0.239   7.078 -0.4004  0.4716  0.5574
  596MOL0     O80373  -2.058   0.044   7.307  0.0216  0.0011  0.1505
  596MOL0     C80374  -1.841  -0.011   7.445  0.1888  0.0693 -0.2863
  596MOL0     C80375  -1.725  -0.038   7.519 -0.1399  0.2332 -0.2327
  596MOL0     N80376  -1.130   0.188   8.154 -0.3387 -0.1616 -1.4786
  596MOL0     N80377  -1.053   0.184   8.256 -0.1689  0.4951 -0.9667
  596MOL0     C80378   0.241  -0.130   8.089 -0.6486 -0.1108  1.0150
  596MOL0     C80379   0.363  -0.117   8.019 -0.9623 -0.0874  0.0242
  596MOL0     C80380   0.766   0.090   7.916 -0.9602  0.0642 -0.0288
  596MOL0     C80381   0.888   0.111   7.985 -0.5613 -0.4357  0.2267
  596MOL0     C80382   1.003   0.170   7.928 -0.7105  0.3939  0.3665
  596MOL0     C80383   0.990   0.206   7.786 -1.2447  0.2822 -0.6157
  596MOL0     O80384   1.092   0.256   7.710  0.1748  0.1516 -0.2276
  596MOL0     C80385   1.218   0.274   7.760  0.5434  0.2862  0.2636
  596MOL0     C80386   1.293   0.337   7.652 -0.0696  1.3198  0.8758
  596MOL0     C80387   1.442   0.371   7.699  1.2614 -0.6796  0.1793
  596MOL0     C80388   1.547   0.421   7.593  1.2890 -0.7955 -1.1425
  596MOL0     C80389   1.532   0.359   7.463 -0.3610 -0.3831  0.5663
  596MOL0     C80390   1.550   0.326   7.345 -0.1408 -0.5854 -0.6397
  596MOL0     C80391   0.877   0.170   7.717 -0.4684  0.8487 -0.6967
  596MOL0     C80392   0.756   0.121   7.781 -0.1463  0.9867 -0.6218
  596MOL0     H80393   0.397   0.213   7.992  0.8877 -1.1125 -3.0989
  596MOL0     H80394   0.170   0.207   8.109 -0.4163 -0.4478  0.9243
  596MOL0     H80395   0.006  -0.201   8.217 -0.6914  0.9361 -0.0220
  596MOL0     H80396   0.119  -0.138   8.344 -0.1856  2.7138  2.5436
  596MOL0     H80397  -0.104  -0.176   8.435  1.8332  1.8213  1.3702
  596MOL0     H80398  -0.068  -0.001   8.444 -0.6878 -1.0828  2.0419
  596MOL0     H80399  -0.192   0.034   8.242 -1.3796  0.7347  0.5489
  596MOL0     H80400  -0.220  -0.138   8.228  2.4363  3.0654 -2.7823
  596MOL0     H80401  -0.353  -0.130   8.455  0.6790  1.7334  2.2428
  596MOL0     H80402  -0.347   0.050   8.444 -1.0427 -0.0365 -0.6959
  596MOL0     H80403  -0.461   0.028   8.216  0.2003  4.1205  2.8145
  596MOL0     H80404  -0.487  -0.153   8.275 -1.2434  0.8214 -0.1734
  596MOL0     H80405  -0.606  -0.054   8.456 -2.4134  1.2608  0.2486
  596MOL0     H80406  -0.580   0.103   8.417  0.0175 -0.2559  0.6819
  596MOL0     H80407  -0.701   0.003   8.175  1.5204 -0.9997  0.0052
  596MOL0     H80408  -0.776  -0.090   8.314 -1.6760  0.6058  0.4679
  596MOL0     H80409  -0.788   0.209   8.280  0.6125 -0.4888  2.0454
  596MOL0     H80410  -0.847   0.097   8.418  1.8012 -1.9417  0.2137
  596MOL0     H80411  -0.908  -0.049   8.075 -1.6738 -1.1326 -1.1223
  596MOL0     H80412  -1.058   0.030   7.862 -0.5447 -0.9165 -1.7699
  596MOL0     H80413  -1.191  -0.044   7.955  0.8383 -0.4101 -0.0408
  596MOL0     H80414  -1.198   0.213   7.804 -0.2467  3.3499  4.2488
  596MOL0     H80415  -1.315   0.184   7.941 -0.1317 -0.9923  0.2741
  596MOL0     H80416  -1.394  -0.017   7.854  1.4757 -3.0148 -0.6218
  596MOL0     H80417  -1.278  -0.029   7.734 -0.9601 -0.5100  1.8531
  596MOL0     H80418  -1.393   0.198   7.631  1.1154  1.3059  1.3391
  596MOL0     H80419  -1.505   0.176   7.757 -0.7314  0.6967 -1.3174
  596MOL0     H80420  -1.591   0.273   7.527  0.7279  0.0090 -2.5445
  596MOL0     H80421  -1.783   0.390   7.317 -2.3306  0.9378 -1.4196
  596MOL0     H80422  -1.905   0.414   7.437  1.5743  2.3641 -0.1652
  596MOL0     H80423  -1.741   0.433   7.487  1.0112 -1.2018 -1.2282
  596MOL0     H80424  -2.238   0.386   7.354 -1.6201  3.0437 -0.4555
  596MOL0     H80425  -2.423   0.449   7.209 -1.8400  0.2912 -1.4144
  596MOL0     H80426  -2.587   0.403   7.093  1.5316  0.1154  0.0154
  596MOL0     H80427  -2.523   0.548   7.012 -0.2494  0.3807 -2.3788
  596MOL0     H80428  -2.709   0.345   6.877  1.1408 -0.7159 -0.3929
  596MOL0     H80429  -2.759   0.505   6.949  1.3410  0.0353  1.4801
  596MOL0     H80430  -2.606   0.441   6.688  0.4043 -0.2628  0.7093
  596MOL0     H80431  -2.568   0.591   6.770 -0.6850  1.0104  0.5976
  596MOL0     H80432  -2.841   0.629   6.771 -1.5824 -1.5445 -0.6370
  596MOL0     H80433  -2.739   0.677   6.640  0.6541 -0.3608  0.5699
  596MOL0     H80434  -2.897   0.423   6.672 -0.2587  0.3056  0.6266
  596MOL0     H80435  -2.799   0.468   6.520 -2.1908 -0.7661 -1.2311
  596MOL0     H80436  -3.061   0.566   6.611  0.8969 -0.7555  0.8656
  596MOL0     H80437  -2.941   0.689   6.556  1.1417  1.0439 -3.9805
  596MOL0     H80438  -3.025   0.447   6.398 -1.1589  0.8488 -0.2343
  596MOL0     H80439  -2.900   0.564   6.346  2.8983 -0.3343  2.7147
  596MOL0     H80440  -3.175   0.609   6.414  1.1562 -1.3662  0.7144
  596MOL0     H80441  -3.131   0.581   6.239  1.1908 -0.5590  0.6809
  596MOL0     H80442  -2.257   0.211   6.899 -2.1243  1.1995 -0.2467
  596MOL0     H80443  -2.049   0.175   7.052  0.9462  1.9670  1.0576
  596MOL0     H80444  -1.917  -0.088   7.440  0.4264 -0.5258  2.9666
  596MOL0     H80445  -1.698  -0.139   7.550 -1.9009  0.0616  0.9392
  596MOL0     H80446   0.196  -0.224   8.119 -4.0144  1.9282  3.1320
  596MOL0     H80447   0.415  -0.203   7.976  0.8798  1.7982 -1.7535
  596MOL0     H80448   0.892   0.084   8.091  1.0287 -3.0426 -0.4115
  596MOL0     H80449   1.086   0.194   7.995 -1.1180  2.1828  0.2967
  596MOL0     H80450   1.221   0.332   7.853  0.5922 -1.0858  1.1438
  596MOL0     H80451   1.272   0.180   7.774 -1.7988 -1.0395  0.9089
  596MOL0     H80452   1.260   0.438   7.623  0.5667  1.2669 -0.0992
  596MOL0     H80453   1.292   0.271   7.565  2.0124 -1.3978  2.7623
  596MOL0     H80454   1.495   0.299   7.762  1.9377 -0.4049 -0.0699
  596MOL0     H80455   1.431   0.457   7.765  0.1029 -1.1429  0.6320
  596MOL0     H80456   1.645   0.377   7.613  1.6213 -1.7242 -4.2737
  596MOL0     H80457   1.560   0.529   7.582 -1.4261 -0.4054 -1.3736
  596MOL0     H80458   1.564   0.287   7.247 -2.3804 -0.9664 -0.8605
  596MOL0     H80459   0.878   0.187   7.610 -0.7671 -1.9211 -1.2208
  596MOL0     H80460   0.667   0.111   7.720  1.2120 -0.9632 -2.4048
  597MOL0     O80461   2.462   1.509   6.569  0.1442 -0.5114 -0.1089
  597MOL0     C80462   2.377   1.587   6.620  0.2068 -0.5423 -0.2462
  597MOL0     O80463   2.336   1.713   6.580 -0.0382  0.0210  0.1877
  597MOL0     C80464   2.402   1.760   6.464 -0.2765 -0.7661 -0.1063
  597MOL0     C80465   2.335   1.834   6.360  0.1601  0.3947  0.0157
  597MOL0     C80466   2.400   1.891   6.248 -0.0945  0.3554  0.1560
  597MOL0     C80467   2.537   1.877   6.224  0.4414  1.2563  0.4148
  597MOL0     O80468   2.598   1.934   6.123 -0.1043  0.1427  0.2205
  597MOL0     C80469   2.714   2.016   6.153 -0.2969 -0.0475 -1.1542
  597MOL0     C80470   2.756   2.057   6.024 -0.3965 -0.7409  0.0860
  597MOL0     C80471   2.897   2.121   6.039  0.9128  0.0783  0.1214
  597MOL0     C80472   2.931   2.169   5.894 -0.2414 -0.1699  0.3052
  597MOL0     C80473   3.061   2.254   5.878 -0.0678  0.7281 -0.1628
  597MOL0     C80474   3.082   2.291   5.729 -0.4429  0.1945 -0.2805
  597MOL0     C80475   3.206   2.377   5.724  0.2157 -0.2748  0.3898
  597MOL0     C80476   3.228   2.421   5.577 -0.6125  0.5597 -0.2851
  597MOL0     N80477   3.236   2.306   5.484  0.9512  0.3696  0.1943
  597MOL0     C80478   3.295   2.188   5.493 -0.3488  0.5101 -0.5869
  597MOL0     C80479   3.252   2.113   5.393  0.2842 -0.3370 -0.1913
  597MOL0     C80480   3.268   1.973   5.354  0.4841 -0.9403  0.6039
  597MOL0     C80481   3.420   1.947   5.344 -0.3800 -0.1685 -0.0158
  597MOL0     C80482   3.489   2.014   5.221 -0.8730 -0.3353 -0.6772
  597MOL0     C80483   3.648   2.018   5.218  0.3286  0.3899  0.7580
  597MOL0     O80484   3.695   2.138   5.277  0.4650 -0.2877 -0.9482
  597MOL0     C80485   3.808   2.131   5.359  1.0211 -0.2908 -0.2072
  597MOL0     C80486   3.808   2.196   5.484  0.2481  0.1982  0.2132
  597MOL0     C80487   3.918   2.189   5.566  0.0475 -0.0100 -0.1594
  597MOL0     C80488   3.891   2.256   5.692  0.1536  0.4960  0.0405
  597MOL0     C80489   4.038   2.123   5.529 -0.3657  0.0264 -0.1056
  597MOL0     C80490   4.154   2.120   5.628 -0.0750 -0.1469 -0.6037
  597MOL0     O80491   4.278   2.111   5.573 -0.0149 -0.7576  0.4650
  597MOL0     C80492   4.391   2.120   5.647  0.4716 -0.7428 -0.2216
  597MOL0     C80493   4.494   2.032   5.618  0.4497  0.3206  0.1573
  597MOL0     C80494   4.616   2.037   5.682 -0.3856 -0.2999 -0.1086
  597MOL0     C80495   4.640   2.136   5.781  0.2975 -0.5215  0.5606
  597MOL0     O80496   4.761   2.131   5.852 -0.3656  0.3199  0.1499
  597MOL0     C80497   4.839   2.009   5.868 -0.0407  0.4669  0.4737
  597MOL0     C80498   4.944   2.025   5.986 -0.1682 -0.8739 -0.4050
  597MOL0     C80499   5.007   1.883   6.013 -0.8872  0.5742 -0.0807
  597MOL0     C80500   5.116   1.845   5.908 -0.6171 -0.0860  0.2217
  597MOL0     C80501   5.145   1.696   5.922  0.0589  0.6035 -0.2187
  597MOL0     C80502   5.270   1.660   5.839 -0.1321  0.9733 -0.9170
  597MOL0     C80503   5.403   1.705   5.909  0.1475 -0.9013  0.6977
  597MOL0     C80504   5.404   1.680   6.059  0.4728  0.2352  1.0595
  597MOL0    Cl80505   5.573   1.701   6.115 -0.0155 -0.6703 -0.3889
  597MOL0     C80506   4.544   2.238   5.809  0.0537  1.1611 -0.6758
  597MOL0     C80507   4.420   2.221   5.739  0.3031  0.1218 -0.4475
  597MOL0     O80508   4.130   2.112   5.741 -0.1223  0.6628 -0.0485
  597MOL0     C80509   4.036   2.061   5.409 -0.8605  0.5246  0.5922
  597MOL0     C80510   3.926   2.066   5.325  0.3397  1.1977  0.9117
  597MOL0     N80511   3.172   2.186   5.306 -0.7600  0.7981 -1.0585
  597MOL0     N80512   3.167   2.303   5.369  0.1290  0.0738  0.7256
  597MOL0     C80513   2.606   1.805   6.329 -0.4675  0.9977  0.8425
  597MOL0     C80514   2.537   1.758   6.444 -0.0975  1.3036  0.8337
  597MOL0     C80515   2.316   1.548   6.749 -1.0473  0.6640 -0.2434
  597MOL0     C80516   2.377   1.470   6.844 -0.1882 -0.3206  0.1993
  597MOL0     C80517   2.340   1.461   6.976 -0.1644 -0.2428 -0.0246
  597MOL0     C80518   2.224   1.523   7.018 -0.5483 -1.2479 -0.0178
  597MOL0     O80519   2.175   1.530   7.147  0.6000 -0.7716  0.3566
  597MOL0     C80520   2.145   1.398   7.199  0.5799 -0.5462  0.0847
  597MOL0     C80521   2.028   1.326   7.137 -0.1989  0.0119  0.5941
  597MOL0     C80522   1.902   1.394   7.165  0.2500 -0.6916  0.2633
  597MOL0     C80523   1.798   1.282   7.172  0.4232  0.0879  1.0043
  597MOL0     C80524   1.749   1.246   7.042  0.0036 -0.0075  0.7850
  597MOL0     C80525   1.705   1.222   6.933 -0.4643  1.1237 -0.1371
  597MOL0     C80526   2.153   1.599   6.921 -0.6625  0.2127  1.0489
  597MOL0     C80527   2.199   1.610   6.793 -0.0769 -0.4064  0.0266
  597MOL0     H80528   2.227   1.830   6.368  0.2975 -2.8139  3.7663
  597MOL0     H80529   2.343   1.951   6.178 -3.1213  1.4614  3.2553
  597MOL0     H80530   2.689   2.100   6.218 -2.1345 -0.6856 -0.9633
  597MOL0     H80531   2.798   1.958   6.191 -0.6266  1.2366  1.7919
  597MOL0     H80532   2.772   1.969   5.961  0.2014 -1.1430  0.7884
  597MOL0     H80533   2.684   2.124   5.977  0.1062 -1.8434 -2.4171
  597MOL0     H80534   2.908   2.197   6.117 -0.1213 -1.9071  2.3367
  597MOL0     H80535   2.966   2.043   6.071  3.8194  1.3404 -2.5434
  597MOL0     H80536   2.939   2.070   5.847  1.0198 -0.7575  1.6902
  597MOL0     H80537   2.846   2.219   5.847  0.7011  2.3385  1.1254
  597MOL0     H80538   3.057   2.341   5.944  1.2951  0.6669  0.0121
  597MOL0     H80539   3.145   2.199   5.920 -0.0717  2.4255  2.2450
  597MOL0     H80540   3.097   2.207   5.661  1.0925 -0.4790  0.8185
  597MOL0     H80541   2.999   2.349   5.688  0.2390 -0.1005 -2.1977
  597MOL0     H80542   3.207   2.465   5.789  1.3466  0.2863 -0.3452
  597MOL0     H80543   3.286   2.313   5.762 -0.1882  0.1855  2.0711
  597MOL0     H80544   3.322   2.476   5.577  0.5254 -1.3170 -0.5003
  597MOL0     H80545   3.155   2.496   5.543  1.4948  2.5213 -0.7066
  597MOL0     H80546   3.354   2.151   5.576  2.1762  2.8712 -1.1617
  597MOL0     H80547   3.229   1.902   5.427  1.4855 -0.9858  1.1158
  597MOL0     H80548   3.214   1.957   5.260 -1.6630  4.4499  0.5731
  597MOL0     H80549   3.431   1.839   5.344  0.5214 -0.0873 -0.5744
  597MOL0     H80550   3.467   1.993   5.432  1.4614  1.2870 -1.6584
  597MOL0     H80551   3.463   2.120   5.214  1.8075  0.5380  0.8372
  597MOL0     H80552   3.462   1.969   5.125  4.0726 -1.5763 -1.8016
  597MOL0     H80553   3.662   2.023   5.110  3.0482 -0.3722  1.0082
  597MOL0     H80554   3.682   1.922   5.259 -4.4599 -2.6340 -1.4914
  597MOL0     H80555   3.719   2.251   5.515 -0.2685 -1.3898  1.7516
  597MOL0     H80556   3.801   2.317   5.689  0.5759  1.3558  2.6574
  597MOL0     H80557   3.887   2.188   5.778  2.9174  0.6609  0.3962
  597MOL0     H80558   3.960   2.337   5.717 -2.5670  2.0722  3.3242
  597MOL0     H80559   4.473   1.962   5.537  0.2080 -0.5313  0.9473
  597MOL0     H80560   4.694   1.962   5.675 -1.5247 -1.4290 -1.3237
  597MOL0     H80561   4.779   1.920   5.887  0.4833  0.2394  1.1008
  597MOL0     H80562   4.889   1.997   5.772  1.4758  5.3738  0.3523
  597MOL0     H80563   5.030   2.089   5.960  1.4117 -2.6285  0.2749
  597MOL0     H80564   4.911   2.061   6.083  1.2846 -1.4540  0.3391
  597MOL0     H80565   4.930   1.806   6.017 -0.4535  0.0257 -1.6579
  597MOL0     H80566   5.042   1.880   6.117 -1.2868 -0.6894  0.0368
  597MOL0     H80567   5.075   1.862   5.807  0.6547 -0.5031 -0.3887
  597MOL0     H80568   5.205   1.909   5.905 -1.4294  1.3855  3.4259
  597MOL0     H80569   5.063   1.654   5.863 -0.9728  3.4585 -0.9763
  597MOL0     H80570   5.137   1.663   6.026  1.3957  1.7331  0.2603
  597MOL0     H80571   5.285   1.553   5.821 -0.5887  0.9346 -1.0677
  597MOL0     H80572   5.265   1.710   5.741 -1.3146  0.4301 -1.1466
  597MOL0     H80573   5.411   1.813   5.891 -0.4592 -1.1089 -1.0763
  597MOL0     H80574   5.496   1.666   5.867  0.1514  0.0605 -0.2231
  597MOL0     H80575   5.373   1.577   6.080  1.9024 -0.4065  0.1416
  597MOL0     H80576   5.332   1.756   6.090  1.2582  2.4458 -2.1135
  597MOL0     H80577   4.573   2.324   5.868  1.3479  0.1606  0.2023
  597MOL0     H80578   4.342   2.295   5.746  0.8769  0.6255  0.9806
  597MOL0     H80579   4.126   2.012   5.374 -0.3326  1.5028  0.5592
  597MOL0     H80580   3.922   2.012   5.231 -2.6510  1.9559  0.5048
  597MOL0     H80581   2.715   1.798   6.330 -0.5216 -0.9748 -0.4917
  597MOL0     H80582   2.588   1.711   6.529 -0.4714 -3.1759 -1.1470
  597MOL0     H80583   2.469   1.418   6.819  1.1688  1.5447  1.1830
  597MOL0     H80584   2.386   1.394   7.047  1.2629  0.2221 -0.4831
  597MOL0     H80585   2.222   1.321   7.187  1.3409  0.0684  0.9073
  597MOL0     H80586   2.136   1.412   7.307  1.7322 -2.9736  0.5657
  597MOL0     H80587   2.025   1.225   7.180  1.1940  0.2493  1.2881
  597MOL0     H80588   2.034   1.327   7.028 -6.1054 -2.0170 -0.0902
  597MOL0     H80589   1.885   1.468   7.086 -0.2889 -1.8288 -0.7046
  597MOL0     H80590   1.905   1.449   7.260  0.1748 -1.1903  0.5548
  597MOL0     H80591   1.711   1.325   7.222 -0.6289 -0.3865 -0.3509
  597MOL0     H80592   1.826   1.201   7.239 -1.5760  0.3821  2.2879
  597MOL0     H80593   1.670   1.195   6.836  0.2021  0.1910 -0.1342
  597MOL0     H80594   2.061   1.646   6.954 -1.5879 -2.4974  2.7068
  597MOL0     H80595   2.138   1.667   6.725  0.2252  3.0177  2.3826
  598MOL0     O80596   4.934   8.405  10.062  0.3498 -0.1355 -0.0141
  598MOL0     C80597   4.914   8.460  10.165  0.3026  0.4657 -0.7598
  598MOL0     O80598   4.863   8.397  10.275 -0.2469 -0.0614 -0.0694
  598MOL0     C80599   4.812   8.271  10.251  0.4202 -0.2958  0.3908
  598MOL0     C80600   4.735   8.229  10.141 -0.6032  0.6425 -0.2514
  598MOL0     C80601   4.700   8.090  10.127 -0.7325 -0.7138  1.3370
  598MOL0     C80602   4.722   8.014  10.236  0.8338  0.0016 -0.9200
  598MOL0     O80603   4.674   7.886  10.226  0.0307 -0.2697  0.2897
  598MOL0     C80604   4.657   7.801  10.338  0.0843  0.3664 -0.0987
  598MOL0     C80605   4.583   7.666  10.302 -0.7864 -1.2044 -0.1990
  598MOL0     C80606   4.676   7.571  10.241 -0.1101  0.2022  0.1189
  598MOL0     C80607   4.613   7.437  10.211  0.7253 -0.3076  0.0090
  598MOL0     C80608   4.631   7.345  10.328  0.1670 -0.2284  0.5083
  598MOL0     C80609   4.547   7.216  10.323 -0.7657  0.1720 -0.2828
  598MOL0     C80610   4.545   7.149  10.458  0.1744  0.0378  0.0404
  598MOL0     C80611   4.681   7.110  10.498 -0.9014 -0.8967  0.3059
  598MOL0     N80612   4.662   7.043  10.627 -0.3198 -0.3217 -0.3481
  598MOL0     C80613   4.631   6.903  10.646  0.4009 -0.7833  0.4960
  598MOL0     C80614   4.637   6.888  10.778 -0.3237 -0.8157  0.3374
  598MOL0     C80615   4.611   6.766  10.854  0.3957  0.2033  0.4617
  598MOL0     C80616   4.681   6.767  10.987 -0.2145  0.3952  0.4792
  598MOL0     C80617   4.836   6.771  10.968 -0.0679  0.0135 -0.6638
  598MOL0     C80618   4.920   6.789  11.089  0.9203 -0.6251  0.3994
  598MOL0     O80619   5.063   6.782  11.056 -0.1400  0.0422  0.0682
  598MOL0     C80620   5.126   6.902  11.008 -1.3141  0.2845  0.3264
  598MOL0     C80621   5.073   7.024  10.984 -0.2601  0.0971 -0.2291
  598MOL0     C80622   5.145   7.135  10.925  0.2711 -0.4146 -0.0549
  598MOL0     C80623   5.077   7.271  10.902 -0.7937  0.2531 -0.4055
  598MOL0     C80624   5.286   7.107  10.881 -0.2625 -0.1961 -0.2486
  598MOL0     C80625   5.378   7.201  10.808  0.4394  0.1432 -0.5058
  598MOL0     O80626   5.336   7.305  10.738  0.8868  0.5304 -0.2797
  598MOL0     C80627   5.431   7.359  10.657 -0.6593  0.4373 -0.9718
  598MOL0     C80628   5.485   7.480  10.697 -0.5533  0.6384 -0.2609
  598MOL0     C80629   5.591   7.545  10.626 -1.0625 -0.0374 -0.0664
  598MOL0     C80630   5.645   7.487  10.514 -0.0470  0.5610 -0.1785
  598MOL0     O80631   5.731   7.561  10.442  0.1979  0.0028 -0.5373
  598MOL0     C80632   5.875   7.520  10.453  0.0815 -0.2487  1.1206
  598MOL0     C80633   5.977   7.587  10.362 -0.1477 -0.5743 -0.0919
  598MOL0     C80634   5.917   7.703  10.270 -0.4733  0.1015 -0.0625
  598MOL0     C80635   5.822   7.639  10.153  0.0740  0.6150  0.6787
  598MOL0     C80636   5.743   7.732  10.053  0.6969 -0.0802 -0.4901
  598MOL0     C80637   5.636   7.813  10.132 -0.1994 -0.7940  0.3878
  598MOL0     C80638   5.668   7.967  10.121  0.0739 -0.6252 -1.2257
  598MOL0     C80639   5.575   8.028  10.017 -0.1481 -0.4334 -0.2367
  598MOL0    Cl80640   5.621   7.987   9.850  0.3450 -0.1754 -0.4422
  598MOL0     C80641   5.590   7.365  10.468  0.2670 -0.8740  0.5902
  598MOL0     C80642   5.483   7.303  10.536 -0.2771 -0.0600  0.3677
  598MOL0     O80643   5.496   7.164  10.820 -0.1122  0.8389 -0.6303
  598MOL0     C80644   5.335   6.982  10.915 -0.1030  0.4783  0.7799
  598MOL0     C80645   5.261   6.879  10.977  0.7477 -0.0776 -0.5809
  598MOL0     N80646   4.675   7.008  10.838  0.7179 -0.0966 -0.2349
  598MOL0     N80647   4.680   7.101  10.750 -0.3675 -0.2276 -0.5100
  598MOL0     C80648   4.780   8.061  10.358 -0.7437  0.8964  0.2340
  598MOL0     C80649   4.836   8.184  10.351 -0.5842 -0.7112  0.1582
  598MOL0     C80650   4.916   8.604  10.152 -0.2255  0.2530  0.3131
  598MOL0     C80651   4.889   8.690  10.258 -0.5904  0.6495  0.5736
  598MOL0     C80652   4.880   8.830  10.245 -0.1635 -0.9976 -0.0755
  598MOL0     C80653   4.906   8.897  10.130  0.8252  0.0003  0.9169
  598MOL0     O80654   4.891   9.035  10.111  0.3909 -0.4588  0.3102
  598MOL0     C80655   4.892   9.120  10.228  0.8147 -0.4557  0.5328
  598MOL0     C80656   4.885   9.266  10.186 -0.2123 -0.0601 -0.1828
  598MOL0     C80657   4.746   9.317  10.153 -0.8857 -1.7528  0.6169
  598MOL0     C80658   4.702   9.277  10.012 -0.1866  0.4551  0.1719
  598MOL0     C80659   4.678   9.400   9.930  0.9647  0.3748  0.3333
  598MOL0     C80660   4.660   9.496   9.864  1.3788 -0.5711 -0.1174
  598MOL0     C80661   4.946   8.818  10.020 -0.0996  0.0836  0.0009
  598MOL0     C80662   4.949   8.670  10.031 -0.3377 -0.5284  0.1979
  598MOL0     H80663   4.710   8.294  10.057  1.2570  1.5486 -0.1623
  598MOL0     H80664   4.653   8.060  10.034  1.7117  0.5885 -0.4344
  598MOL0     H80665   4.757   7.780  10.377 -0.6295 -2.7563  0.3260
  598MOL0     H80666   4.590   7.853  10.407 -1.9311 -0.0111 -1.6599
  598MOL0     H80667   4.529   7.621  10.386  0.6698 -0.7435  1.0300
  598MOL0     H80668   4.509   7.695  10.226  2.0415  4.3107 -1.3425
  598MOL0     H80669   4.710   7.626  10.154 -0.4592 -1.7087 -1.2929
  598MOL0     H80670   4.764   7.555  10.304 -1.7477  0.0846  2.5357
  598MOL0     H80671   4.505   7.450  10.195  0.7798 -0.3940 -0.4414
  598MOL0     H80672   4.662   7.419  10.115 -0.1781  1.1249 -0.7531
  598MOL0     H80673   4.738   7.320  10.331 -0.0472 -1.0455  1.5153
  598MOL0     H80674   4.611   7.404  10.418  0.4144  0.6274  0.0206
  598MOL0     H80675   4.442   7.238  10.302 -1.0796 -1.7369 -0.9813
  598MOL0     H80676   4.603   7.151  10.254 -2.6101  0.1338 -1.8338
  598MOL0     H80677   4.496   7.209  10.535  0.5336  1.0499 -0.4958
  598MOL0     H80678   4.490   7.058  10.432  1.3311  0.1057 -3.0429
  598MOL0     H80679   4.743   7.199  10.511  0.1868 -1.8024  1.6615
  598MOL0     H80680   4.734   7.052  10.421 -0.3985  1.8814 -1.5813
  598MOL0     H80681   4.590   6.834  10.574 -2.5933  1.6431 -0.3663
  598MOL0     H80682   4.507   6.749  10.881  0.4511 -0.1055  0.4832
  598MOL0     H80683   4.635   6.689  10.780 -2.0559 -0.4792  0.2929
  598MOL0     H80684   4.664   6.667  11.028  2.7954 -0.3553  0.0997
  598MOL0     H80685   4.641   6.853  11.043 -0.5449  1.2814 -1.0436
  598MOL0     H80686   4.873   6.841  10.893 -2.0996 -0.9280 -2.6999
  598MOL0     H80687   4.860   6.673  10.926 -2.0863 -0.4897 -0.7681
  598MOL0     H80688   4.893   6.707  11.156  0.7273  0.5553  1.8141
  598MOL0     H80689   4.893   6.886  11.131 -1.6527 -0.4462 -1.4453
  598MOL0     H80690   4.972   7.045  11.016  0.9085  3.2409  1.8766
  598MOL0     H80691   5.115   7.345  10.973  0.1582 -2.8963  2.6197
  598MOL0     H80692   5.094   7.301  10.798  1.4244 -2.9461 -1.1238
  598MOL0     H80693   4.971   7.246  10.911 -0.3350 -3.3864 -2.8774
  598MOL0     H80694   5.451   7.518  10.793 -2.8072 -1.2070 -0.2507
  598MOL0     H80695   5.648   7.632  10.657 -0.1568  0.6737 -3.3364
  598MOL0     H80696   5.901   7.540  10.557  0.2995 -0.3532  1.0870
  598MOL0     H80697   5.880   7.414  10.426 -2.6734 -0.0274 -0.6325
  598MOL0     H80698   6.042   7.645  10.428  0.3300 -0.8527 -0.3090
  598MOL0     H80699   6.034   7.512  10.307 -2.5457 -0.8275 -2.4439
  598MOL0     H80700   6.002   7.756  10.228  1.3391 -1.8384  0.9793
  598MOL0     H80701   5.853   7.766  10.332 -2.0372 -0.3358 -1.1618
  598MOL0     H80702   5.890   7.586  10.086 -0.0847  2.7131 -1.2582
  598MOL0     H80703   5.757   7.561  10.194  2.4312 -2.0459 -0.3984
  598MOL0     H80704   5.687   7.674   9.979  1.9945  1.0020 -2.3981
  598MOL0     H80705   5.814   7.791   9.995  1.0000 -0.4914 -0.5371
  598MOL0     H80706   5.537   7.796  10.088  0.5165 -0.7333 -1.3248
  598MOL0     H80707   5.630   7.784  10.238  0.0073  0.9679  0.9210
  598MOL0     H80708   5.773   7.982  10.096 -0.0075  1.3058 -0.5438
  598MOL0     H80709   5.648   8.015  10.217  2.0035  0.0890 -1.1462
  598MOL0     H80710   5.573   8.138  10.019 -2.4750 -0.4204  0.6401
  598MOL0     H80711   5.469   8.001  10.030 -0.9578  2.5104  0.1296
  598MOL0     H80712   5.626   7.332  10.371 -2.0759  0.1147 -0.6987
  598MOL0     H80713   5.446   7.208  10.498  0.8188 -1.2707  2.1922
  598MOL0     H80714   5.435   6.944  10.901 -0.9486 -1.6765  0.1349
  598MOL0     H80715   5.310   6.786  11.003  0.2218 -0.0835  0.4220
  598MOL0     H80716   4.813   7.999  10.441  3.8235  2.1029 -0.4360
  598MOL0     H80717   4.907   8.223  10.422 -0.4053  0.9162 -0.8560
  598MOL0     H80718   4.869   8.649  10.357 -0.6384  0.5960  0.5414
  598MOL0     H80719   4.844   8.881  10.334  0.1395  0.0609 -0.5478
  598MOL0     H80720   4.804   9.090  10.286  2.3963 -2.3566  2.1208
  598MOL0     H80721   4.979   9.102  10.292  0.8226 -2.4590  0.0134
  598MOL0     H80722   4.951   9.287  10.101 -1.6982  0.2740 -1.3182
  598MOL0     H80723   4.918   9.327  10.270 -1.4780 -1.5146  1.4386
  598MOL0     H80724   4.759   9.424  10.139  0.2344 -2.1654 -2.2263
  598MOL0     H80725   4.673   9.297  10.231 -1.2193 -1.6351  0.3363
  598MOL0     H80726   4.609   9.221  10.017  1.9271 -3.8985 -2.4377
  598MOL0     H80727   4.762   9.203   9.958 -0.7888  2.0776 -2.9406
  598MOL0     H80728   4.654   9.584   9.802  1.5631  1.3895  2.4977
  598MOL0     H80729   4.963   8.865   9.924  0.3100  0.8077  0.4152
  598MOL0     H80730   4.981   8.618   9.941  1.2886 -0.6600  0.8100
  599MOL0     O80731   9.096   0.100  10.827  0.1851 -0.4639  0.0875
  599MOL0     C80732   9.088   0.130  10.948  0.0115  0.5948 -0.0380
  599MOL0     O80733   9.024   0.245  11.001  0.0695  0.6321 -0.1339
  599MOL0     C80734   8.981   0.339  10.913  0.3866  0.1412 -0.3849
  599MOL0     C80735   8.977   0.468  10.948 -0.3052 -1.1902  0.3692
  599MOL0     C80736   8.942   0.572  10.866 -0.2449 -0.1046 -1.0263
  599MOL0     C80737   8.883   0.535  10.736 -1.3995 -1.4193 -0.1578
  599MOL0     O80738   8.837   0.630  10.645  0.4780  0.1135  1.1305
  599MOL0     C80739   8.839   0.768  10.676  0.0957 -0.5066  0.1614
  599MOL0     C80740   8.830   0.838  10.540  0.3484  0.3493 -0.6805
  599MOL0     C80741   8.888   0.984  10.548  0.7439  0.2797 -0.8986
  599MOL0     C80742   8.889   1.035  10.402  0.3440 -0.1697 -0.0185
  599MOL0     C80743   8.935   1.185  10.375  0.6668  1.2518  0.0489
  599MOL0     C80744   8.840   1.289  10.436 -0.3287 -0.2489 -0.2330
  599MOL0     C80745   8.897   1.437  10.420  1.0671  0.0389 -0.0436
  599MOL0     C80746   8.836   1.535  10.518  0.4859 -0.9874  0.3895
  599MOL0     N80747   8.696   1.552  10.506 -0.1868  0.5921 -0.2451
  599MOL0     C80748   8.627   1.615  10.405 -1.0254 -0.4204 -1.5230
  599MOL0     C80749   8.502   1.595  10.436 -0.0254 -0.3077 -0.9246
  599MOL0     C80750   8.376   1.630  10.362 -0.6051  0.3499 -0.0705
  599MOL0     C80751   8.271   1.520  10.356  1.1914  1.0775 -0.6737
  599MOL0     C80752   8.180   1.531  10.233 -0.6678 -0.1337 -0.1956
  599MOL0     C80753   8.061   1.432  10.228  0.1290 -0.0204  0.6635
  599MOL0     O80754   7.998   1.447  10.094  0.0184  0.5633  0.1014
  599MOL0     C80755   8.072   1.382   9.997 -0.3978 -0.2904  0.3062
  599MOL0     C80756   8.080   1.246   9.995 -0.0264  0.1449  0.5296
  599MOL0     C80757   8.147   1.173   9.893  0.4762 -0.4752 -0.2318
  599MOL0     C80758   8.140   1.020   9.897  0.5686  0.4170 -0.0677
  599MOL0     C80759   8.210   1.252   9.787 -0.5152  0.8418  0.2619
  599MOL0     C80760   8.309   1.193   9.691 -0.3275  1.6473 -0.6984
  599MOL0     O80761   8.346   1.258   9.575  0.8098 -0.1664  0.3362
  599MOL0     C80762   8.469   1.225   9.514  0.6144 -1.5900 -0.6626
  599MOL0     C80763   8.585   1.200   9.581  0.3778 -0.1933 -0.2525
  599MOL0     C80764   8.707   1.171   9.516 -0.7796 -0.4115  0.6367
  599MOL0     C80765   8.714   1.189   9.375  0.5106 -0.1828 -0.0750
  599MOL0     O80766   8.819   1.158   9.291  0.1557 -0.9427  0.0303
  599MOL0     C80767   8.957   1.186   9.349  0.6320 -0.8681  0.2092
  599MOL0     C80768   9.038   1.076   9.297 -1.0935  1.0065 -0.1113
  599MOL0     C80769   9.189   1.086   9.334 -0.4511 -0.2653 -0.9132
  599MOL0     C80770   9.272   1.180   9.255 -0.9959 -0.3539  0.5530
  599MOL0     C80771   9.416   1.202   9.323  1.0335  1.0670 -0.3554
  599MOL0     C80772   9.481   1.059   9.333  0.0696  0.4324  0.0497
  599MOL0     C80773   9.631   1.085   9.340 -0.4364  0.3497  0.0507
  599MOL0     C80774   9.698   0.944   9.363 -0.6591  0.5661  0.3882
  599MOL0    Cl80775   9.869   0.977   9.336  0.0493 -0.1687  0.0059
  599MOL0     C80776   8.595   1.220   9.307  0.1918  0.0588 -1.0350
  599MOL0     C80777   8.475   1.231   9.378  0.2354 -0.2562 -0.4503
  599MOL0     O80778   8.370   1.109   9.750  0.3875  1.1646  0.6570
  599MOL0     C80779   8.188   1.394   9.785 -0.2935  0.0190  0.1580
  599MOL0     C80780   8.117   1.456   9.886 -0.0317 -0.0568  0.0911
  599MOL0     N80781   8.493   1.525  10.557 -0.0360 -0.4916  0.2412
  599MOL0     N80782   8.619   1.484  10.591  0.4588  1.2721 -0.7375
  599MOL0     C80783   8.854   0.405  10.703 -0.0136  0.1269  0.8849
  599MOL0     C80784   8.906   0.310  10.791  0.0073 -0.5333 -0.6545
  599MOL0     C80785   9.147   0.037  11.047 -0.2129  0.4002 -0.6143
  599MOL0     C80786   9.072  -0.004  11.158  0.6714 -0.5015  0.0405
  599MOL0     C80787   9.124  -0.098  11.254 -0.1950 -0.5529 -0.0343
  599MOL0     C80788   9.245  -0.162  11.230 -0.8653 -0.7654 -0.4570
  599MOL0     O80789   9.288  -0.253  11.316 -0.1431 -0.5306 -0.3848
  599MOL0     C80790   9.404  -0.334  11.283  0.2383 -0.1352 -0.1019
  599MOL0     C80791   9.409  -0.461  11.370  0.3706 -0.1310  0.1426
  599MOL0     C80792   9.536  -0.545  11.362 -0.2168 -0.0442 -0.1397
  599MOL0     C80793   9.536  -0.640  11.234 -0.3671  0.4347 -0.2910
  599MOL0     C80794   9.639  -0.745  11.226 -0.4222  0.1818 -0.2877
  599MOL0     C80795   9.714  -0.835  11.211  0.0031  0.4215 -0.3240
  599MOL0     C80796   9.321  -0.118  11.123  0.0315 -0.0533 -1.0317
  599MOL0     C80797   9.267  -0.025  11.028 -0.6194 -0.6628  0.9537
  599MOL0     H80798   9.007   0.489  11.050 -3.7132 -3.2947  1.9629
  599MOL0     H80799   8.956   0.674  10.901  0.3115 -0.4903 -0.0913
  599MOL0     H80800   8.743   0.798  10.718 -1.7651 -3.1415 -1.8652
  599MOL0     H80801   8.920   0.811  10.736 -0.1340 -1.0253  0.8717
  599MOL0     H80802   8.889   0.782  10.467  1.5002  2.0145 -1.0632
  599MOL0     H80803   8.729   0.837  10.498 -0.4569 -1.1095  1.1181
  599MOL0     H80804   8.827   1.045  10.615  1.5582 -1.7117  1.8533
  599MOL0     H80805   8.983   1.001  10.599 -0.4339  0.7776  1.2628
  599MOL0     H80806   8.957   0.966  10.351  0.9575  0.5121 -0.1382
  599MOL0     H80807   8.787   1.018  10.366 -0.7690  3.4220  1.0141
  599MOL0     H80808   9.033   1.196  10.422 -0.2958 -0.2112  2.5834
  599MOL0     H80809   8.930   1.220  10.271 -3.1332 -0.5189 -0.5380
  599MOL0     H80810   8.741   1.287  10.390 -0.6051  3.0198  0.0187
  599MOL0     H80811   8.828   1.266  10.543  2.5348 -0.9800  0.0180
  599MOL0     H80812   9.005   1.438  10.407  0.8257  0.9845 -2.8010
  599MOL0     H80813   8.871   1.474  10.320  4.2463  2.9576  0.0574
  599MOL0     H80814   8.875   1.635  10.499 -1.4080 -0.5748 -1.7714
  599MOL0     H80815   8.850   1.498  10.620  0.0224 -2.0659  0.0772
  599MOL0     H80816   8.666   1.666  10.318  2.6337  3.2464  1.8314
  599MOL0     H80817   8.340   1.728  10.395  2.3334  1.1950  0.9042
  599MOL0     H80818   8.408   1.652  10.260  1.1876 -2.0386 -0.1059
  599MOL0     H80819   8.214   1.517  10.449 -4.8767  0.0132 -3.9513
  599MOL0     H80820   8.318   1.421  10.344  0.6916  0.6262  0.7763
  599MOL0     H80821   8.238   1.529  10.140  1.7026 -0.0730  1.2028
  599MOL0     H80822   8.134   1.630  10.238 -2.0519 -0.8087  1.8474
  599MOL0     H80823   7.984   1.468  10.298  1.0345  2.9863  0.2479
  599MOL0     H80824   8.108   1.338  10.258 -0.3181 -0.5708 -0.3403
  599MOL0     H80825   8.027   1.187  10.068  2.2118  0.6198  2.6562
  599MOL0     H80826   8.226   0.976   9.950 -1.0638 -1.3201  1.2626
  599MOL0     H80827   8.051   1.006   9.958 -1.3806 -0.2999 -2.9331
  599MOL0     H80828   8.122   0.986   9.795  1.4674 -1.9236  0.4986
  599MOL0     H80829   8.591   1.196   9.689 -0.2513  3.0037  0.0065
  599MOL0     H80830   8.801   1.157   9.569  0.8826  0.8115 -1.8214
  599MOL0     H80831   8.990   1.282   9.308 -1.8429  0.5199  1.1922
  599MOL0     H80832   8.959   1.186   9.458  1.1284 -3.2156  0.2458
  599MOL0     H80833   9.003   0.978   9.332  2.4966 -1.2911 -2.2309
  599MOL0     H80834   9.034   1.058   9.189  0.4383 -2.3689  0.2397
  599MOL0     H80835   9.229   0.985   9.325 -0.5882 -0.5704  1.2994
  599MOL0     H80836   9.189   1.114   9.440 -1.7633 -1.5586 -0.5499
  599MOL0     H80837   9.282   1.155   9.149  4.6746  2.3962  0.0948
  599MOL0     H80838   9.219   1.276   9.254  1.0013  0.7897 -0.9637
  599MOL0     H80839   9.407   1.229   9.429 -2.0299 -1.9064  0.3273
  599MOL0     H80840   9.475   1.274   9.266  2.2520 -1.3073 -2.2843
  599MOL0     H80841   9.447   1.002   9.420  1.1624 -0.0982  0.1533
  599MOL0     H80842   9.461   1.000   9.243  1.0423  0.9144 -0.4993
  599MOL0     H80843   9.662   1.143   9.428 -1.0435 -2.4071  2.2697
  599MOL0     H80844   9.664   1.130   9.246  0.4013  2.3461  1.2355
  599MOL0     H80845   9.674   0.871   9.285  2.9499  1.2584 -1.6116
  599MOL0     H80846   9.682   0.908   9.465  1.9896  1.6123  1.2624
  599MOL0     H80847   8.610   1.220   9.200  2.7751 -1.6767 -0.7662
  599MOL0     H80848   8.390   1.269   9.321  0.7671 -1.2237 -1.9548
  599MOL0     H80849   8.228   1.457   9.706 -0.6729 -0.8977 -0.7795
  599MOL0     H80850   8.121   1.565   9.878  1.7057 -0.1877 -1.3135
  599MOL0     H80851   8.803   0.383  10.610  1.8352 -0.8733  0.0642
  599MOL0     H80852   8.894   0.211  10.749  0.2506 -0.1382 -1.6816
  599MOL0     H80853   8.980   0.046  11.186  2.2188  1.8006  1.3571
  599MOL0     H80854   9.066  -0.125  11.342 -2.6885 -0.0602 -1.4152
  599MOL0     H80855   9.396  -0.373  11.181 -0.2471 -0.0739 -0.0904
  599MOL0     H80856   9.500  -0.282  11.284 -1.1047  2.5647  2.1743
  599MOL0     H80857   9.325  -0.523  11.334  0.5730 -0.5960  0.4597
  599MOL0     H80858   9.397  -0.425  11.472  0.0307  2.7565 -0.8417
  599MOL0     H80859   9.521  -0.610  11.449  0.9313 -1.5800 -1.0530
  599MOL0     H80860   9.625  -0.483  11.377 -1.4297  1.4082  1.5949
  599MOL0     H80861   9.553  -0.578  11.146  2.7427 -1.5439 -1.2396
  599MOL0     H80862   9.436  -0.683  11.231 -0.1335 -0.0958 -0.6459
  599MOL0     H80863   9.775  -0.919  11.185 -0.8934 -0.5896  0.7321
  599MOL0     H80864   9.417  -0.168  11.111 -0.6505 -1.4956 -0.7310
  599MOL0     H80865   9.310  -0.011  10.929 -2.7849 -0.8790 -0.0784
  600MOL0     O80866   4.146   0.095   6.716  0.0782  0.5463 -0.2106
  600MOL0     C80867   4.149   0.171   6.618 -0.3391 -1.4801 -0.2467
  600MOL0     O80868   4.038   0.257   6.584 -0.6177 -0.1605  0.2960
  600MOL0     C80869   3.929   0.228   6.657  0.6700  0.7480  0.3352
  600MOL0     C80870   3.854   0.117   6.632 -0.2111  0.0476  0.7387
  600MOL0     C80871   3.728   0.084   6.682 -0.3591 -0.8209  1.1848
  600MOL0     C80872   3.688   0.167   6.795  0.0657 -0.6620 -0.9645
  600MOL0     O80873   3.577   0.121   6.868  0.3278 -0.2094 -0.2348
  600MOL0     C80874   3.444   0.111   6.806 -0.3538  0.0154  0.3819
  600MOL0     C80875   3.342   0.074   6.907  0.4968  0.4351 -0.7108
  600MOL0     C80876   3.208   0.021   6.857  0.2723 -0.1079  0.8358
  600MOL0     C80877   3.137   0.110   6.750 -0.4313 -0.4978  0.8758
  600MOL0     C80878   2.995   0.060   6.728 -1.4816  0.6294  0.7833
  600MOL0     C80879   2.940   0.090   6.592  0.1968 -0.9066  0.0295
  600MOL0     C80880   2.815   0.006   6.547  0.1711 -0.5079 -0.6384
  600MOL0     C80881   2.696   0.019   6.635 -1.1194 -0.5478  0.9291
  600MOL0     N80882   2.580  -0.034   6.562  0.5266  0.3938  0.1626
  600MOL0     C80883   2.485   0.048   6.506 -0.6615  0.7742 -0.1242
  600MOL0     C80884   2.369  -0.025   6.505  0.4601 -0.6455  0.2822
  600MOL0     C80885   2.224   0.028   6.500 -0.0989 -0.1475 -0.1079
  600MOL0     C80886   2.122  -0.042   6.589  0.8064  0.3066 -0.2693
  600MOL0     C80887   1.987   0.028   6.571 -0.5530 -0.1162  0.0594
  600MOL0     C80888   1.894  -0.021   6.679 -0.3986  0.4684  0.2413
  600MOL0     O80889   1.760   0.014   6.646  0.3625 -0.5430  0.1829
  600MOL0     C80890   1.660   0.011   6.737  0.3691  0.1649  0.7955
  600MOL0     C80891   1.554   0.110   6.725 -0.0417 -0.2691  0.2352
  600MOL0     C80892   1.447   0.106   6.818 -0.1956 -0.2438 -0.9202
  600MOL0     C80893   1.324   0.200   6.804  0.0586 -0.8031  0.6013
  600MOL0     C80894   1.434   0.009   6.923 -0.5125  0.0013  0.6552
  600MOL0     C80895   1.324   0.001   7.036  0.5273  0.5483  0.8755
  600MOL0     O80896   1.301  -0.109   7.100  0.7081 -0.3678 -0.5226
  600MOL0     C80897   1.233  -0.117   7.213  0.2362  0.9428 -1.0899
  600MOL0     C80898   1.135  -0.214   7.229 -1.0796 -0.0002  1.1797
  600MOL0     C80899   1.052  -0.219   7.338  0.3112  1.2148  0.2659
  600MOL0     C80900   1.065  -0.132   7.450 -0.0510 -0.2252  0.4433
  600MOL0     O80901   0.991  -0.144   7.564  0.1065  0.3426  0.1813
  600MOL0     C80902   0.907  -0.255   7.573  0.9254  0.2659  0.0105
  600MOL0     C80903   0.840  -0.255   7.716  0.0042  0.5706 -0.4581
  600MOL0     C80904   0.759  -0.391   7.742 -0.2540 -0.7972 -0.0522
  600MOL0     C80905   0.680  -0.390   7.875  0.0923 -0.7326  0.7110
  600MOL0     C80906   0.626  -0.522   7.920 -0.4989  0.7832 -0.1572
  600MOL0     C80907   0.549  -0.506   8.051  0.1725  0.5509 -0.7539
  600MOL0     C80908   0.445  -0.619   8.060 -0.8596  0.5323  0.3270
  600MOL0     C80909   0.348  -0.614   8.183  0.3101  0.1893  0.4282
  600MOL0    Cl80910   0.189  -0.532   8.156 -0.0285 -0.6591  0.3330
  600MOL0     C80911   1.158  -0.030   7.435  1.0347  0.2104  0.6282
  600MOL0     C80912   1.250  -0.028   7.321  0.4182 -0.1953 -0.1999
  600MOL0     O80913   1.257   0.104   7.052  0.7599 -0.2935 -0.0257
  600MOL0     C80914   1.535  -0.091   6.926 -0.2633  0.5293  0.4099
  600MOL0     C80915   1.645  -0.093   6.829 -0.1505 -0.6907 -0.3522
  600MOL0     N80916   2.405  -0.157   6.534 -0.0318 -0.3553 -0.1414
  600MOL0     N80917   2.530  -0.167   6.574 -0.0468  0.5565 -1.0647
  600MOL0     C80918   3.760   0.279   6.840  0.1342  0.4315  0.5491
  600MOL0     C80919   3.878   0.313   6.765  0.9742  0.2765 -0.1050
  600MOL0     C80920   4.267   0.172   6.530 -0.0642  0.2785 -0.7712
  600MOL0     C80921   4.272   0.252   6.416  0.2892 -0.6517  1.0923
  600MOL0     C80922   4.389   0.268   6.334 -0.2719  0.1624 -0.7964
  600MOL0     C80923   4.509   0.195   6.369 -0.3987  0.1624  0.0625
  600MOL0     O80924   4.625   0.187   6.294  0.2205 -0.4376 -0.2107
  600MOL0     C80925   4.634   0.260   6.170 -0.0177  0.7418 -0.5115
  600MOL0     C80926   4.726   0.174   6.073  0.8867  0.1782 -0.1214
  600MOL0     C80927   4.672   0.030   6.048  0.6318  0.4393 -0.5416
  600MOL0     C80928   4.764  -0.058   5.973 -0.1434 -0.1441 -0.5726
  600MOL0     C80929   4.888  -0.116   6.034 -0.2601  0.6242  0.2271
  600MOL0     C80930   4.995  -0.179   6.071  0.0939 -0.4015  0.6210
  600MOL0     C80931   4.505   0.112   6.486 -0.1010 -0.4295  0.2082
  600MOL0     C80932   4.384   0.106   6.568  0.8366  0.2907 -0.0553
  600MOL0     H80933   3.890   0.056   6.549  0.1467  1.0303  0.1450
  600MOL0     H80934   3.671  -0.004   6.654 -1.5391  0.3206 -0.1619
  600MOL0     H80935   3.430   0.201   6.746  0.0192 -0.7987 -0.9771
  600MOL0     H80936   3.444   0.024   6.740  0.8631 -1.5276  2.2989
  600MOL0     H80937   3.377   0.002   6.981 -2.7822 -1.7705 -1.0813
  600MOL0     H80938   3.335   0.169   6.960 -0.3075  0.6483 -1.1884
  600MOL0     H80939   3.227  -0.077   6.810  1.6134 -0.0445  1.2152
  600MOL0     H80940   3.141   0.015   6.943  2.3766 -1.5626  2.4898
  600MOL0     H80941   3.143   0.213   6.786  1.2287 -1.2115  2.8641
  600MOL0     H80942   3.191   0.099   6.655 -2.2807 -1.8987 -0.0732
  600MOL0     H80943   3.008  -0.049   6.733  3.2927  0.7182 -3.0225
  600MOL0     H80944   2.923   0.086   6.807 -2.3187  1.3308 -0.1869
  600MOL0     H80945   2.908   0.195   6.595 -1.1698 -1.3315  2.1081
  600MOL0     H80946   3.016   0.084   6.513 -0.7555  1.4018 -1.1784
  600MOL0     H80947   2.790   0.056   6.453  1.4013 -1.4151 -1.4660
  600MOL0     H80948   2.852  -0.095   6.525  0.4884 -0.2118 -1.4832
  600MOL0     H80949   2.684   0.124   6.661 -1.8184 -0.3928  0.0383
  600MOL0     H80950   2.730  -0.044   6.718  0.8731 -0.4427  0.2306
  600MOL0     H80951   2.504   0.149   6.471 -3.6054  0.6783 -2.3465
  600MOL0     H80952   2.230   0.131   6.537  0.0533  0.0905 -0.7780
  600MOL0     H80953   2.190   0.036   6.396  1.5167 -0.0808 -0.6462
  600MOL0     H80954   2.159  -0.028   6.691 -1.1778  0.5472  0.4545
  600MOL0     H80955   2.114  -0.150   6.575 -0.3493  0.0644  1.8691
  600MOL0     H80956   1.936  -0.006   6.480 -0.2594 -1.3645  0.3436
  600MOL0     H80957   1.997   0.135   6.590  2.1625 -0.5782  1.7143
  600MOL0     H80958   1.908   0.027   6.776  0.8661 -4.0681  2.5739
  600MOL0     H80959   1.912  -0.126   6.704 -1.3328  0.8158  2.5832
  600MOL0     H80960   1.556   0.202   6.667  0.3334 -1.0441 -0.9888
  600MOL0     H80961   1.229   0.146   6.809  0.4705 -1.6083  0.0125
  600MOL0     H80962   1.329   0.280   6.878  0.1397 -0.5052  0.2748
  600MOL0     H80963   1.338   0.262   6.715  0.8835  3.8411  3.6035
  600MOL0     H80964   1.115  -0.277   7.143  0.2575 -0.1976  1.0031
  600MOL0     H80965   0.983  -0.302   7.344 -0.8612  2.0812 -0.5788
  600MOL0     H80966   0.830  -0.235   7.497  0.2722  1.7471  1.0308
  600MOL0     H80967   0.952  -0.354   7.560  1.0345  0.0005  2.1021
  600MOL0     H80968   0.921  -0.242   7.789 -0.9135 -2.3003  1.2605
  600MOL0     H80969   0.769  -0.173   7.730  0.2156  0.2032  4.5055
  600MOL0     H80970   0.822  -0.480   7.741  0.6083 -0.1950  0.0319
  600MOL0     H80971   0.690  -0.406   7.658 -1.9982 -0.2439  1.2164
  600MOL0     H80972   0.738  -0.351   7.958  1.0206 -1.4869  0.4321
  600MOL0     H80973   0.595  -0.322   7.865  0.1034 -0.5218  1.9688
  600MOL0     H80974   0.713  -0.586   7.934 -1.5193 -0.4950  0.5304
  600MOL0     H80975   0.563  -0.555   7.837  2.0013  1.8123 -2.6337
  600MOL0     H80976   0.625  -0.502   8.129  1.3442  0.9988 -1.8759
  600MOL0     H80977   0.491  -0.413   8.046 -0.8481 -0.1015 -1.7187
  600MOL0     H80978   0.496  -0.716   8.066  1.0648  1.5768  1.8004
  600MOL0     H80979   0.401  -0.625   7.960  2.1296  0.7455 -1.1164
  600MOL0     H80980   0.404  -0.557   8.258  1.1576  2.4981 -1.7816
  600MOL0     H80981   0.338  -0.714   8.226 -1.0035  0.9357  1.9522
  600MOL0     H80982   1.164   0.049   7.509 -0.8757  0.2759  0.7599
  600MOL0     H80983   1.317   0.058   7.322 -1.1727  1.1354  2.1496
  600MOL0     H80984   1.528  -0.178   6.992 -2.5275  0.0182 -0.4261
  600MOL0     H80985   1.707  -0.183   6.834  1.4320  0.3484 -0.4814
  600MOL0     H80986   3.728   0.330   6.930 -0.9568  1.5265 -0.4234
  600MOL0     H80987   3.925   0.408   6.788  1.7991 -0.5683  1.9534
  600MOL0     H80988   4.183   0.307   6.385 -0.3235 -3.2882 -2.4799
  600MOL0     H80989   4.392   0.331   6.245  3.6122 -1.0356 -1.6665
  600MOL0     H80990   4.539   0.282   6.121 -0.4808 -1.2155 -0.5739
  600MOL0     H80991   4.692   0.351   6.189  5.2654 -1.9779 -1.6212
  600MOL0     H80992   4.832   0.175   6.101  0.1669  1.2964  2.9460
  600MOL0     H80993   4.716   0.211   5.970 -2.1021 -1.9279 -0.7121
  600MOL0     H80994   4.583   0.046   5.987 -0.0268  3.9549  1.0892
  600MOL0     H80995   4.655  -0.022   6.143 -0.4930 -0.0301 -0.9874
  600MOL0     H80996   4.789  -0.010   5.878 -0.3399 -2.1214 -1.6687
  600MOL0     H80997   4.697  -0.142   5.952 -1.9286  1.5776 -2.0791
  600MOL0     H80998   5.085  -0.236   6.085  0.3993 -0.4708 -1.3379
  600MOL0     H80999   4.592   0.059   6.525 -0.1857 -0.8561 -0.1842
  600MOL0     H81000   4.372   0.048   6.659 -3.3956 -0.3979 -0.8249
  601MOL0     O81001   3.591   3.551   9.640 -0.2047  0.2623 -0.0051
  601MOL0     C81002   3.552   3.574   9.754  0.2058 -0.5178 -1.0449
  601MOL0     O81003   3.415   3.583   9.781  0.3216  0.2917  0.1263
  601MOL0     C81004   3.325   3.508   9.711  0.0371  0.8579  0.6024
  601MOL0     C81005   3.237   3.415   9.776 -0.1841 -0.1697  0.2468
  601MOL0     C81006   3.158   3.325   9.701 -0.0805  0.1454  0.2060
  601MOL0     C81007   3.137   3.341   9.565 -0.0193  0.1790 -1.1927
  601MOL0     O81008   3.049   3.255   9.492 -0.0532  0.6423  0.5027
  601MOL0     C81009   3.045   3.113   9.534  0.5406  0.6554  0.6383
  601MOL0     C81010   3.017   3.020   9.416  0.4492 -0.8185 -0.0762
  601MOL0     C81011   3.124   3.032   9.306 -0.2820  0.1298 -0.2394
  601MOL0     C81012   3.104   2.912   9.201  0.5393 -0.4090 -0.7379
  601MOL0     C81013   3.202   2.939   9.080  0.3788 -0.0235 -0.5920
  601MOL0     C81014   3.171   2.846   8.959 -0.0072 -0.9685 -0.5815
  601MOL0     C81015   3.265   2.868   8.852 -0.0342 -0.3710 -0.4959
  601MOL0     C81016   3.258   2.756   8.750 -0.3333  0.1148 -0.0106
  601MOL0     N81017   3.370   2.788   8.656  0.3145  0.5512  1.0928
  601MOL0     C81018   3.356   2.875   8.556  0.3179  0.4851 -0.1530
  601MOL0     C81019   3.474   2.884   8.507 -0.1378 -0.4268 -0.4193
  601MOL0     C81020   3.525   2.963   8.392  0.2446  1.0721 -0.0226
  601MOL0     C81021   3.534   2.873   8.272  0.6391  0.1407 -0.3491
  601MOL0     C81022   3.618   2.948   8.161 -0.0032  0.6984  0.0001
  601MOL0     C81023   3.616   2.871   8.030  1.0246 -0.3721 -0.0808
  601MOL0     O81024   3.742   2.803   8.020  0.0295  0.3349  0.3098
  601MOL0     C81025   3.746   2.695   7.931  0.3269  0.3648 -0.1793
  601MOL0     C81026   3.679   2.572   7.957 -0.1421  0.5107 -0.3641
  601MOL0     C81027   3.684   2.466   7.861 -0.3304  0.6782 -0.8238
  601MOL0     C81028   3.618   2.333   7.896  0.0464 -1.8850 -1.1009
  601MOL0     C81029   3.778   2.476   7.753 -1.0971 -1.0847  0.6727
  601MOL0     C81030   3.812   2.362   7.664  0.5718  0.4063 -0.5093
  601MOL0     O81031   3.872   2.402   7.551  0.0903 -0.1106  0.1483
  601MOL0     C81032   3.900   2.315   7.454  0.1570 -0.1434  0.8538
  601MOL0     C81033   3.797   2.249   7.394  0.4028  0.3215 -0.3513
  601MOL0     C81034   3.820   2.169   7.277  0.4781 -0.4717 -1.1757
  601MOL0     C81035   3.955   2.159   7.230  0.0194  0.2141 -0.3050
  601MOL0     O81036   3.958   2.060   7.138 -0.6028 -0.3579 -0.1026
  601MOL0     C81037   4.045   2.081   7.035 -0.4153 -0.8477  0.3366
  601MOL0     C81038   3.989   2.184   6.933 -0.2279  0.0949 -0.1153
  601MOL0     C81039   3.840   2.145   6.880 -0.1611  0.1240  0.2541
  601MOL0     C81040   3.769   2.260   6.816 -0.4403 -0.0505  0.2816
  601MOL0     C81041   3.628   2.223   6.789  0.2100 -0.4320 -0.0373
  601MOL0     C81042   3.558   2.329   6.705  0.4436  0.1654 -0.1618
  601MOL0     C81043   3.409   2.304   6.712  0.0556  0.6497 -0.3377
  601MOL0     C81044   3.330   2.401   6.626  0.0240  0.1502  0.1047
  601MOL0    Cl81045   3.186   2.311   6.559  0.3406 -0.0168  0.7234
  601MOL0     C81046   4.057   2.216   7.307  0.8031  0.7325  1.0030
  601MOL0     C81047   4.032   2.307   7.411 -0.3556  1.5126  0.2077
  601MOL0     O81048   3.777   2.252   7.691 -0.3496 -0.4137 -0.3662
  601MOL0     C81049   3.846   2.595   7.736 -0.8029 -0.7128  0.4659
  601MOL0     C81050   3.838   2.696   7.831 -0.9447 -0.4364  0.4706
  601MOL0     N81051   3.563   2.809   8.577 -0.5089  0.6293 -0.3501
  601MOL0     N81052   3.500   2.754   8.670 -0.8819  0.6870 -0.1294
  601MOL0     C81053   3.194   3.456   9.510 -0.2513  0.2766 -0.3305
  601MOL0     C81054   3.302   3.524   9.576  0.7233 -1.1426  1.0024
  601MOL0     C81055   3.640   3.630   9.862 -0.3985  0.6436 -0.2122
  601MOL0     C81056   3.579   3.682   9.976 -0.3076 -0.2475 -0.3483
  601MOL0     C81057   3.655   3.752  10.076 -0.6867 -0.8668  0.1520
  601MOL0     C81058   3.793   3.768  10.060  0.2311  0.6324  0.6820
  601MOL0     O81059   3.873   3.844  10.142 -0.6743  0.3311 -0.1120
  601MOL0     C81060   3.823   3.944  10.220  0.3100 -0.8128 -0.0465
  601MOL0     C81061   3.937   4.040  10.270 -0.5291 -0.5756 -0.6093
  601MOL0     C81062   4.076   3.996  10.221  0.2856 -0.2004 -0.1269
  601MOL0     C81063   4.183   4.077  10.283 -0.0007 -0.7524  0.8437
  601MOL0     C81064   4.317   4.012  10.280 -0.2203 -0.4327  0.0910
  601MOL0     C81065   4.436   3.963  10.301  0.4448  0.1430 -0.2520
  601MOL0     C81066   3.856   3.721   9.947 -0.1515 -0.0466  0.2332
  601MOL0     C81067   3.781   3.653   9.844 -0.2689 -0.1414  0.1563
  601MOL0     H81068   3.249   3.412   9.884 -0.2679 -0.4354  0.2502
  601MOL0     H81069   3.109   3.246   9.758  0.7267  0.5087  1.4416
  601MOL0     H81070   3.139   3.095   9.586 -0.3622  1.8133  2.7918
  601MOL0     H81071   2.968   3.096   9.610 -1.1162  1.4596 -0.7846
  601MOL0     H81072   3.019   2.920   9.460  0.6279 -0.9031 -0.2774
  601MOL0     H81073   2.916   3.042   9.380  0.1292 -1.6463  0.2798
  601MOL0     H81074   3.110   3.131   9.263 -2.6976 -0.3995 -0.8375
  601MOL0     H81075   3.224   3.026   9.352  0.0683  3.3767 -0.3580
  601MOL0     H81076   3.140   2.821   9.249  0.7540  0.9953  1.9754
  601MOL0     H81077   2.997   2.907   9.179  0.9385  0.6293 -3.2931
  601MOL0     H81078   3.187   3.044   9.054  1.6334 -0.0380 -1.4400
  601MOL0     H81079   3.305   2.913   9.107 -0.3060 -1.7941  0.4983
  601MOL0     H81080   3.162   2.745   9.002 -4.0009  0.6838  3.2399
  601MOL0     H81081   3.075   2.862   8.910 -0.9138 -0.1833  1.3247
  601MOL0     H81082   3.234   2.966   8.812 -1.7777 -0.9929 -0.7369
  601MOL0     H81083   3.369   2.872   8.885 -0.4412  2.0537  0.6992
  601MOL0     H81084   3.171   2.762   8.683  0.5901  2.5568 -1.1070
  601MOL0     H81085   3.263   2.654   8.789 -1.7715 -0.6951 -1.8037
  601MOL0     H81086   3.272   2.941   8.536  1.4188  1.2323 -2.7318
  601MOL0     H81087   3.476   3.060   8.378 -1.7378  0.1021 -0.1570
  601MOL0     H81088   3.627   2.996   8.415  0.2894  2.7127 -2.1988
  601MOL0     H81089   3.437   2.859   8.225  0.7610 -2.0353 -0.0651
  601MOL0     H81090   3.583   2.778   8.295  2.5044  0.2700 -3.1898
  601MOL0     H81091   3.721   2.955   8.197 -0.4831  3.6587  1.0574
  601MOL0     H81092   3.571   3.046   8.161  0.0981  0.7547  0.7128
  601MOL0     H81093   3.594   2.936   7.945 -1.9345  0.5882  1.2856
  601MOL0     H81094   3.535   2.796   8.024  2.8236 -2.2896 -2.2732
  601MOL0     H81095   3.615   2.567   8.045 -0.4096  1.5493 -0.4782
  601MOL0     H81096   3.695   2.264   7.929  3.0051  2.3857  2.0993
  601MOL0     H81097   3.550   2.343   7.982 -0.4269 -0.7483 -1.5761
  601MOL0     H81098   3.562   2.306   7.807  1.3102 -0.5367 -2.3519
  601MOL0     H81099   3.699   2.267   7.438  1.2277  0.6000  1.4691
  601MOL0     H81100   3.748   2.113   7.218  0.4063 -1.3647 -0.2640
  601MOL0     H81101   4.141   2.120   7.071 -1.3671  1.5527  0.4338
  601MOL0     H81102   4.068   1.988   6.982  0.0522 -0.8851  0.6019
  601MOL0     H81103   3.992   2.277   6.989 -0.5846  0.1760 -0.2281
  601MOL0     H81104   4.051   2.205   6.845  0.5332 -0.6125  0.2307
  601MOL0     H81105   3.788   2.103   6.966  0.2330 -0.7030  0.0976
  601MOL0     H81106   3.843   2.065   6.805  1.7873  0.9017 -0.5709
  601MOL0     H81107   3.776   2.358   6.864 -2.9900  0.0185  0.6797
  601MOL0     H81108   3.821   2.284   6.723 -0.3507  1.9746  0.8185
  601MOL0     H81109   3.580   2.220   6.887  0.2617 -2.5128 -0.0407
  601MOL0     H81110   3.620   2.121   6.750 -2.1556 -1.6011  3.0634
  601MOL0     H81111   3.586   2.432   6.731 -0.3642  0.7754 -1.5825
  601MOL0     H81112   3.585   2.314   6.600 -1.4801  0.7985 -0.7885
  601MOL0     H81113   3.377   2.311   6.816 -1.0040  1.5073 -0.6968
  601MOL0     H81114   3.397   2.201   6.676  0.4376  1.0380 -1.6435
  601MOL0     H81115   3.391   2.430   6.541  1.7634  2.6457  2.0439
  601MOL0     H81116   3.312   2.489   6.688  0.9687  0.8653 -0.6143
  601MOL0     H81117   4.155   2.191   7.268  0.1238 -1.7404  0.6896
  601MOL0     H81118   4.117   2.353   7.460  1.0926 -0.6348 -0.1567
  601MOL0     H81119   3.912   2.621   7.653 -1.5302  2.1963  0.7002
  601MOL0     H81120   3.900   2.783   7.816  0.1176 -1.2375  0.1231
  601MOL0     H81121   3.184   3.483   9.405  0.9466 -2.0762 -1.1261
  601MOL0     H81122   3.355   3.602   9.521 -0.4564 -0.6547  0.5358
  601MOL0     H81123   3.472   3.681   9.991 -0.1527  0.5344  0.9196
  601MOL0     H81124   3.610   3.793  10.165  1.2084  0.2276  0.6519
  601MOL0     H81125   3.759   4.001  10.151 -1.5968 -0.3508  1.9688
  601MOL0     H81126   3.766   3.904  10.305  2.0217  0.3236  1.7105
  601MOL0     H81127   3.944   4.031  10.379 -3.9513  1.3748 -0.0635
  601MOL0     H81128   3.939   4.146  10.244  1.9578  0.1238  1.8625
  601MOL0     H81129   4.087   4.002  10.112 -1.0695  0.6044 -0.2468
  601MOL0     H81130   4.099   3.893  10.250  3.2171  0.2303 -0.5733
  601MOL0     H81131   4.142   4.099  10.383  0.0531 -0.6309  0.8390
  601MOL0     H81132   4.188   4.170  10.225  3.4775 -1.0617  0.3884
  601MOL0     H81133   4.530   3.912  10.313  1.1606  1.7986  1.7922
  601MOL0     H81134   3.964   3.726   9.940  0.1075 -1.0493  2.4876
  601MOL0     H81135   3.805   3.624   9.742  2.5984  1.9854  0.1127
  602MOL0     O81136   8.850   4.194   5.904  0.1990 -0.0961  0.0728
  602MOL0     C81137   8.857   4.074   5.922  0.5716 -0.2989  0.1781
  602MOL0     O81138   8.751   3.993   5.913  0.3535 -0.0113 -0.5533
  602MOL0     C81139   8.633   4.048   5.864 -0.1649  0.9249  0.2609
  602MOL0     C81140   8.543   4.101   5.955  0.3550 -0.5762 -0.4952
  602MOL0     C81141   8.430   4.175   5.905  0.3053 -0.5285  0.4715
  602MOL0     C81142   8.408   4.199   5.770 -0.5896 -0.2745  0.0235
  602MOL0     O81143   8.288   4.245   5.727  0.0543 -0.0303  0.0093
  602MOL0     C81144   8.205   4.336   5.808  0.3934  0.3239  1.2273
  602MOL0     C81145   8.061   4.332   5.750 -0.7828 -0.6975 -0.1078
  602MOL0     C81146   7.974   4.410   5.857  0.6879  0.3468 -0.5703
  602MOL0     C81147   7.827   4.443   5.811 -1.1011  0.1426 -0.3661
  602MOL0     C81148   7.743   4.482   5.924  0.3699 -1.1002  0.8652
  602MOL0     C81149   7.679   4.361   5.988 -0.0042 -1.0598  0.6506
  602MOL0     C81150   7.634   4.389   6.126  0.5069  1.3346  0.7227
  602MOL0     C81151   7.538   4.282   6.170 -0.4063  0.7431 -0.1674
  602MOL0     N81152   7.506   4.291   6.313 -0.0682 -0.0591  0.3288
  602MOL0     C81153   7.430   4.386   6.370  0.0073 -0.1083 -0.2878
  602MOL0     C81154   7.418   4.345   6.499 -0.3756 -0.9104  0.8198
  602MOL0     C81155   7.312   4.398   6.589 -0.2137 -0.5295 -0.5007
  602MOL0     C81156   7.362   4.461   6.726 -0.0511 -0.5662  0.0011
  602MOL0     C81157   7.443   4.605   6.704  0.5456  0.5877 -0.0636
  602MOL0     C81158   7.348   4.715   6.650  0.1589  0.4808  0.4248
  602MOL0     O81159   7.360   4.731   6.508  0.2681 -0.8678 -0.3124
  602MOL0     C81160   7.361   4.860   6.463 -0.7383  0.9388 -0.4905
  602MOL0     C81161   7.430   4.878   6.334  0.0240  0.1397 -0.0279
  602MOL0     C81162   7.430   4.998   6.265  0.4288 -0.6884 -0.4381
  602MOL0     C81163   7.496   5.012   6.132  0.5350 -0.0165  1.1875
  602MOL0     C81164   7.368   5.115   6.325  0.6234  0.0337 -0.7899
  602MOL0     C81165   7.352   5.255   6.271 -0.1108  0.2826 -0.0156
  602MOL0     O81166   7.304   5.352   6.349  0.3900 -0.1631 -0.2381
  602MOL0     C81167   7.226   5.448   6.290  1.2035 -0.2840 -0.1835
  602MOL0     C81168   7.216   5.582   6.358 -0.7219  0.2896 -0.0840
  602MOL0     C81169   7.129   5.685   6.315 -0.3597  0.7882 -0.6177
  602MOL0     C81170   7.049   5.656   6.204 -0.7293 -0.1483  0.3432
  602MOL0     O81171   6.971   5.764   6.177  0.0819  0.1518 -0.2174
  602MOL0     C81172   6.865   5.746   6.082  0.0368 -0.0407  0.0166
  602MOL0     C81173   6.770   5.868   6.075  0.4883  0.0000  0.4167
  602MOL0     C81174   6.683   5.872   5.946 -0.7158  0.3817 -0.4052
  602MOL0     C81175   6.576   5.980   5.964  0.9559  0.3702  0.6548
  602MOL0     C81176   6.510   6.005   5.822 -1.1810 -0.6502  0.5809
  602MOL0     C81177   6.390   6.102   5.833 -0.2506 -0.1527 -0.0716
  602MOL0     C81178   6.391   6.194   5.709  0.2790 -0.3794  0.7525
  602MOL0     C81179   6.248   6.254   5.689  0.5043 -0.5359  0.3099
  602MOL0    Cl81180   6.273   6.368   5.565  0.1620 -0.4509  0.2101
  602MOL0     C81181   7.057   5.538   6.137 -0.3728  1.0043  0.8489
  602MOL0     C81182   7.145   5.434   6.181  0.5647  0.1081  0.2705
  602MOL0     O81183   7.397   5.269   6.158  0.2318 -0.9064  0.0277
  602MOL0     C81184   7.300   5.094   6.449  0.5794 -0.0487  0.3485
  602MOL0     C81185   7.305   4.974   6.514 -0.3474  0.3571 -0.8112
  602MOL0     N81186   7.489   4.234   6.520 -0.0704 -0.0975 -0.4250
  602MOL0     N81187   7.558   4.211   6.409  0.0214 -0.0115 -0.1945
  602MOL0     C81188   8.501   4.150   5.680 -0.5872  0.2362 -0.4806
  602MOL0     C81189   8.618   4.085   5.729 -0.5524 -1.0155  0.2378
  602MOL0     C81190   8.983   4.004   5.931 -0.4692 -0.2124 -0.1383
  602MOL0     C81191   8.988   3.872   5.893 -0.9128 -0.0797  0.6629
  602MOL0     C81192   9.116   3.811   5.891  0.8422 -0.0635  0.7928
  602MOL0     C81193   9.225   3.874   5.935  1.3620  0.3495  0.1189
  602MOL0     O81194   9.340   3.807   5.943  0.6221  0.4574  0.6608
  602MOL0     C81195   9.460   3.881   5.986  0.0542 -0.5259  0.3289
  602MOL0     C81196   9.588   3.808   5.994 -0.5262  0.6375  0.0011
  602MOL0     C81197   9.638   3.754   5.858 -0.0452 -0.4596  0.1821
  602MOL0     C81198   9.782   3.697   5.871 -0.9974 -0.2148 -0.6323
  602MOL0     C81199   9.816   3.609   5.762 -0.1886  0.3655 -0.0882
  602MOL0     C81200   9.850   3.551   5.658  0.9032  0.2020  0.7612
  602MOL0     C81201   9.221   4.006   5.977  0.1725 -0.0775  0.5789
  602MOL0     C81202   9.096   4.069   5.964 -0.3207  0.3256  0.0982
  602MOL0     H81203   8.574   4.095   6.059  1.3173 -1.7794 -0.8373
  602MOL0     H81204   8.351   4.197   5.976 -4.0756 -0.3598 -3.9358
  602MOL0     H81205   8.194   4.307   5.913  1.1079 -0.6861  1.0358
  602MOL0     H81206   8.236   4.441   5.808 -0.1763  0.4957  0.5189
  602MOL0     H81207   8.065   4.389   5.657 -2.4982 -1.2454 -0.5488
  602MOL0     H81208   8.022   4.230   5.742  0.6473 -1.2910 -0.0065
  602MOL0     H81209   7.974   4.354   5.951  0.2377 -0.2519 -0.9283
  602MOL0     H81210   8.031   4.502   5.878  0.4593  0.3093  0.2494
  602MOL0     H81211   7.838   4.529   5.745 -0.1898 -1.6449 -2.6808
  602MOL0     H81212   7.782   4.359   5.758  0.9645 -3.0976  2.5896
  602MOL0     H81213   7.798   4.542   5.998  1.4027  0.2004 -0.8953
  602MOL0     H81214   7.661   4.549   5.894  1.1641 -0.6405 -0.3366
  602MOL0     H81215   7.607   4.333   5.910  1.5605 -1.5398 -0.6850
  602MOL0     H81216   7.739   4.269   5.991 -2.4888 -2.7426  2.0896
  602MOL0     H81217   7.714   4.404   6.199 -0.9500  0.0822  2.6577
  602MOL0     H81218   7.568   4.476   6.125 -1.2450  0.1146 -2.1880
  602MOL0     H81219   7.594   4.191   6.150 -2.7266 -1.3968  2.1455
  602MOL0     H81220   7.449   4.271   6.107 -0.2303  2.0743 -0.6923
  602MOL0     H81221   7.372   4.462   6.317 -0.1271 -0.8835 -1.2755
  602MOL0     H81222   7.266   4.480   6.532 -0.7948 -0.6148 -0.1616
  602MOL0     H81223   7.228   4.333   6.617 -1.7171  1.0828 -1.0752
  602MOL0     H81224   7.424   4.384   6.772  3.0167  1.0358 -1.0890
  602MOL0     H81225   7.275   4.481   6.789  1.3383  0.2275  1.7684
  602MOL0     H81226   7.522   4.597   6.630  0.6794  2.8569 -0.2289
  602MOL0     H81227   7.469   4.640   6.805 -4.1446  2.2581  0.8175
  602MOL0     H81228   7.399   4.801   6.694  2.9490 -2.0102  2.4328
  602MOL0     H81229   7.243   4.715   6.679 -0.2067  0.0326 -0.8502
  602MOL0     H81230   7.473   4.788   6.290  0.0556 -0.0073  0.3000
  602MOL0     H81231   7.420   5.037   6.057  2.0879  0.9808 -0.1196
  602MOL0     H81232   7.573   5.089   6.132 -1.4838  2.3614 -3.1756
  602MOL0     H81233   7.550   4.926   6.091  0.7997  1.2565 -1.3675
  602MOL0     H81234   7.285   5.595   6.440  1.4201 -1.0363 -1.5989
  602MOL0     H81235   7.128   5.789   6.348  1.4525  1.9313 -3.6874
  602MOL0     H81236   6.905   5.721   5.983  0.4885 -0.2294  0.2472
  602MOL0     H81237   6.800   5.669   6.124 -1.4640  2.2496  2.1447
  602MOL0     H81238   6.690   5.869   6.150  1.1602 -2.7814  1.2967
  602MOL0     H81239   6.835   5.955   6.086 -0.3511  1.3258 -3.5295
  602MOL0     H81240   6.635   5.775   5.929  1.2134 -0.5723 -0.6488
  602MOL0     H81241   6.742   5.897   5.858 -2.0058  1.9671 -0.8545
  602MOL0     H81242   6.507   5.931   6.034  0.3963  0.0433 -0.1105
  602MOL0     H81243   6.609   6.072   6.012 -0.1014 -0.0110  2.2089
  602MOL0     H81244   6.480   5.908   5.780 -2.5204  0.1773 -0.4853
  602MOL0     H81245   6.587   6.044   5.754 -0.8601 -1.4295  0.4876
  602MOL0     H81246   6.294   6.052   5.847 -0.1105 -1.4942 -3.0862
  602MOL0     H81247   6.410   6.166   5.920  1.5064  2.8983 -2.5060
  602MOL0     H81248   6.428   6.145   5.619  1.1948  1.5128  0.0503
  602MOL0     H81249   6.466   6.270   5.732 -1.0208  0.5075  2.2459
  602MOL0     H81250   6.213   6.305   5.780 -1.1501  0.4494 -0.8357
  602MOL0     H81251   6.177   6.174   5.671 -0.7645  0.1975  1.7915
  602MOL0     H81252   6.985   5.527   6.056 -2.2107 -1.0678  2.6327
  602MOL0     H81253   7.152   5.346   6.118  0.4098 -1.6907  2.6398
  602MOL0     H81254   7.250   5.174   6.501  0.4197  0.5472 -0.6926
  602MOL0     H81255   7.250   4.970   6.608  3.2083  1.8697  1.5820
  602MOL0     H81256   8.489   4.152   5.572  0.6773 -3.2636 -0.7874
  602MOL0     H81257   8.697   4.059   5.659 -0.2970  3.4097 -1.4260
  602MOL0     H81258   8.903   3.825   5.845 -0.3444  0.7180 -1.2450
  602MOL0     H81259   9.124   3.711   5.850 -1.7033  0.5156 -1.4334
  602MOL0     H81260   9.473   3.970   5.924  0.1958 -0.3753  0.5750
  602MOL0     H81261   9.438   3.929   6.082  0.9245  1.9451 -0.6246
  602MOL0     H81262   9.574   3.726   6.065 -1.4161 -1.3599 -2.3508
  602MOL0     H81263   9.664   3.875   6.034  1.2347 -0.2585 -1.6874
  602MOL0     H81264   9.643   3.834   5.784  1.6879 -1.4127 -0.7888
  602MOL0     H81265   9.580   3.677   5.807  1.9044 -0.8046 -1.6290
  602MOL0     H81266   9.790   3.629   5.956  3.1656 -0.4978 -1.0521
  602MOL0     H81267   9.857   3.771   5.896  0.3131 -0.9251 -2.2244
  602MOL0     H81268   9.878   3.496   5.570 -2.8098  0.8442 -1.0390
  602MOL0     H81269   9.307   4.055   6.021  1.5637 -0.1346 -1.8613
  602MOL0     H81270   9.074   4.170   5.998  1.2711 -0.0985  2.7371
  603MOL0     O81271   9.933   8.103   1.142  0.1011  0.4146 -0.4864
  603MOL0     C81272   9.975   8.207   1.095  0.2607  0.9404  1.0709
  603MOL0     O81273  10.102   8.259   1.116 -0.5320 -0.6060  0.0785
  603MOL0     C81274  10.176   8.211   1.218 -0.0723 -0.2660 -1.0575
  603MOL0     C81275  10.311   8.193   1.199 -0.3536  0.3479  0.2586
  603MOL0     C81276  10.393   8.133   1.291 -0.3191 -0.5666  0.6043
  603MOL0     C81277  10.342   8.103   1.414  0.0957  0.5285 -0.8186
  603MOL0     O81278  10.422   8.043   1.503 -0.7056  0.4312  0.1294
  603MOL0     C81279  10.561   8.068   1.509  0.2586  0.1268  0.2337
  603MOL0     C81280  10.609   7.989   1.639  0.0532  0.3013  0.0484
  603MOL0     C81281  10.763   7.966   1.648  0.8153 -0.0271  0.0456
  603MOL0     C81282  10.851   8.088   1.595 -0.0898  0.7719 -0.6131
  603MOL0     C81283  11.003   8.059   1.626  0.0660  0.4390 -0.4798
  603MOL0     C81284  11.091   8.175   1.589  0.6162 -0.5392 -0.1528
  603MOL0     C81285  11.237   8.164   1.632 -0.1697 -0.2013  0.1504
  603MOL0     C81286  11.322   8.291   1.601  0.1843  0.2052  0.5372
  603MOL0     N81287  11.315   8.402   1.695  0.4658  0.4922 -0.3616
  603MOL0     C81288  11.207   8.478   1.729  0.1065 -1.4691  0.3373
  603MOL0     C81289  11.255   8.567   1.820 -0.3264  0.8849 -1.0453
  603MOL0     C81290  11.201   8.690   1.878 -0.2269  0.4847  0.2645
  603MOL0     C81291  11.077   8.674   1.969 -0.5957  0.5336  0.5158
  603MOL0     C81292  10.989   8.799   1.974 -0.3388 -0.5881  0.0511
  603MOL0     C81293  10.851   8.752   2.003  0.1752  1.0732 -1.0002
  603MOL0     O81294  10.764   8.870   1.987  0.8110 -0.5201 -0.4232
  603MOL0     C81295  10.631   8.844   2.010  0.1857 -0.2549  0.2858
  603MOL0     C81296  10.543   8.919   1.933  0.1640 -0.2796 -0.2010
  603MOL0     C81297  10.411   8.896   1.936 -0.3363  0.0523 -0.4215
  603MOL0     C81298  10.329   8.998   1.856  0.0179  0.1552  0.2121
  603MOL0     C81299  10.348   8.793   2.003 -0.3225  0.8044 -1.1592
  603MOL0     C81300  10.200   8.765   2.008  0.2625 -0.5118  0.6423
  603MOL0     O81301  10.152   8.690   2.108 -0.4713 -0.0082 -0.3567
  603MOL0     C81302  10.017   8.685   2.122  0.5815  0.1564  0.0532
  603MOL0     C81303   9.955   8.766   2.213  1.2484 -0.8908  0.1026
  603MOL0     C81304   9.813   8.768   2.221 -0.7081  0.4135 -0.5703
  603MOL0     C81305   9.736   8.687   2.139 -0.3668  0.5279  1.3142
  603MOL0     O81306   9.601   8.705   2.157  0.2591  0.6886  0.3680
  603MOL0     C81307   9.511   8.630   2.071 -0.2661 -0.7208 -0.6681
  603MOL0     C81308   9.370   8.676   2.092 -0.1392 -0.0860  0.3279
  603MOL0     C81309   9.274   8.639   1.974  0.5345  0.7052 -0.1988
  603MOL0     C81310   9.288   8.742   1.858 -0.4402 -0.4917 -0.1859
  603MOL0     C81311   9.192   8.692   1.743 -1.1232  0.1897  0.0141
  603MOL0     C81312   9.203   8.790   1.622 -0.6579 -0.8779 -0.2547
  603MOL0     C81313   9.087   8.759   1.528 -0.8431  0.0695  0.6207
  603MOL0     C81314   8.963   8.850   1.540  0.1883 -0.1259  0.5313
  603MOL0    Cl81315   8.829   8.802   1.429  0.1873  0.6033 -0.1761
  603MOL0     C81316   9.797   8.600   2.050  0.3003  0.3126 -0.2231
  603MOL0     C81317   9.937   8.611   2.032 -0.3591 -0.2564 -0.5369
  603MOL0     O81318  10.131   8.816   1.919  0.5611 -0.6383 -0.3706
  603MOL0     C81319  10.439   8.700   2.068  0.0794 -0.6908  0.1860
  603MOL0     C81320  10.580   8.730   2.076 -0.1260  0.7548 -0.5488
  603MOL0     N81321  11.388   8.531   1.843 -0.2227 -0.0621 -0.1390
  603MOL0     N81322  11.421   8.439   1.769  0.2068  0.4281 -0.6067
  603MOL0     C81323  10.201   8.118   1.444 -0.8465 -0.0038 -0.0245
  603MOL0     C81324  10.120   8.173   1.346  0.7044  1.2981  0.6664
  603MOL0     C81325   9.885   8.269   0.999 -0.1243  0.1689  0.6399
  603MOL0     C81326   9.912   8.398   0.935 -0.7109  0.0918 -0.6787
  603MOL0     C81327   9.814   8.453   0.851  0.2607  0.4911  0.2585
  603MOL0     C81328   9.701   8.378   0.809 -0.0553 -0.1167 -1.1505
  603MOL0     O81329   9.613   8.435   0.725 -0.0102  0.5787  0.7687
  603MOL0     C81330   9.494   8.366   0.692  0.1220  0.4169 -0.1486
  603MOL0     C81331   9.383   8.380   0.807  1.0660  0.0624 -0.0631
  603MOL0     C81332   9.325   8.521   0.840  0.1590 -0.4996 -0.0217
  603MOL0     C81333   9.416   8.626   0.888  0.6261 -1.0677  0.2194
  603MOL0     C81334   9.497   8.576   1.006 -1.0776  0.1988  0.1509
  603MOL0     C81335   9.587   8.555   1.085  0.2018 -0.1151  0.2023
  603MOL0     C81336   9.678   8.249   0.867 -0.0706  0.4982  0.5620
  603MOL0     C81337   9.764   8.204   0.966 -0.5934 -0.0062 -0.7301
  603MOL0     H81338  10.363   8.215   1.107  1.1800  3.5611  1.7308
  603MOL0     H81339  10.498   8.115   1.272 -0.4406 -0.3886 -0.2403
  603MOL0     H81340  10.619   8.029   1.426 -0.0218  3.4835 -1.7268
  603MOL0     H81341  10.574   8.176   1.525 -0.7711  0.4443 -0.9693
  603MOL0     H81342  10.576   8.042   1.729  1.1969  0.0193  0.6550
  603MOL0     H81343  10.571   7.887   1.646 -0.4279  0.5225  0.8665
  603MOL0     H81344  10.789   7.948   1.753 -0.0248 -3.2607 -0.1938
  603MOL0     H81345  10.795   7.879   1.589  1.4175  1.6530 -2.2591
  603MOL0     H81346  10.844   8.098   1.486  0.2979 -2.7776 -1.1007
  603MOL0     H81347  10.808   8.175   1.644  0.5178  1.2943 -0.9883
  603MOL0     H81348  11.004   8.034   1.733  0.2846  0.0854 -0.5625
  603MOL0     H81349  11.038   7.972   1.570  1.1765  0.5642 -0.0088
  603MOL0     H81350  11.084   8.179   1.480 -0.7261  2.7615 -0.0664
  603MOL0     H81351  11.054   8.272   1.625 -0.2741 -0.4813 -1.1807
  603MOL0     H81352  11.239   8.147   1.740 -2.2082  1.8716  0.6082
  603MOL0     H81353  11.286   8.077   1.587  3.3510  2.0416 -0.7625
  603MOL0     H81354  11.297   8.326   1.500  0.5774  3.5853  1.4662
  603MOL0     H81355  11.424   8.250   1.602 -0.0775 -0.7110 -2.1602
  603MOL0     H81356  11.111   8.482   1.678  1.0062 -0.2162 -1.3508
  603MOL0     H81357  11.279   8.740   1.935 -0.8586 -0.2563  1.8425
  603MOL0     H81358  11.190   8.754   1.789 -3.0078 -1.0268 -0.6071
  603MOL0     H81359  11.113   8.649   2.070  0.5746 -0.7606 -0.1873
  603MOL0     H81360  11.029   8.579   1.944  3.5120 -2.1837  1.8581
  603MOL0     H81361  11.002   8.856   1.882  0.4350 -1.7144 -0.5666
  603MOL0     H81362  11.017   8.860   2.060 -0.9927 -0.0502 -0.1064
  603MOL0     H81363  10.852   8.712   2.106  0.5710  3.3772 -0.0518
  603MOL0     H81364  10.826   8.668   1.937  3.4265 -1.0562  0.2046
  603MOL0     H81365  10.581   9.003   1.876  1.6523  0.0764  1.2243
  603MOL0     H81366  10.308   8.943   1.763 -1.8838 -2.6427  2.1071
  603MOL0     H81367  10.240   9.035   1.907  0.5825  0.5684  0.9020
  603MOL0     H81368  10.379   9.090   1.827  3.8705 -2.0049 -0.7229
  603MOL0     H81369  10.008   8.842   2.269 -2.5443  1.3085  1.0648
  603MOL0     H81370   9.764   8.829   2.296  1.7277 -0.7799  2.1827
  603MOL0     H81371   9.532   8.663   1.969 -1.5301  3.5190  0.2352
  603MOL0     H81372   9.511   8.524   2.097  0.8722 -0.5117  0.3124
  603MOL0     H81373   9.341   8.635   2.189 -0.7269  0.8639  0.5738
  603MOL0     H81374   9.364   8.785   2.100 -2.2583 -0.1287 -0.0677
  603MOL0     H81375   9.170   8.629   2.005  0.1979  1.4210 -1.0397
  603MOL0     H81376   9.304   8.539   1.941 -2.0069 -1.7608  4.0832
  603MOL0     H81377   9.263   8.841   1.896 -0.4210 -0.0364 -1.3125
  603MOL0     H81378   9.391   8.741   1.820 -0.4504  0.0862 -0.2331
  603MOL0     H81379   9.098   8.684   1.798 -1.2715 -1.6720 -0.4336
  603MOL0     H81380   9.217   8.589   1.716  0.2403  0.1768  1.2498
  603MOL0     H81381   9.203   8.892   1.660  4.7528 -0.9470  0.7252
  603MOL0     H81382   9.299   8.765   1.574  1.7700 -0.6141  3.9187
  603MOL0     H81383   9.045   8.659   1.541 -0.2986 -0.3717 -0.7968
  603MOL0     H81384   9.117   8.773   1.424 -0.9195  0.5487  0.6611
  603MOL0     H81385   8.988   8.951   1.505 -0.9468 -0.2527 -0.7338
  603MOL0     H81386   8.929   8.847   1.644  0.3727 -0.4602  0.5848
  603MOL0     H81387   9.757   8.527   1.980 -0.6277 -0.7153  1.3084
  603MOL0     H81388   9.980   8.557   1.948  1.1502 -1.2055  0.7716
  603MOL0     H81389  10.396   8.608   2.107 -1.8674  0.7495  1.6436
  603MOL0     H81390  10.642   8.662   2.133 -2.3643 -0.3196  0.7785
  603MOL0     H81391  10.154   8.091   1.538  1.7053  0.2476  1.4088
  603MOL0     H81392  10.018   8.202   1.371 -0.3930 -1.1302 -0.5998
  603MOL0     H81393  10.007   8.448   0.949 -0.0061 -1.0668 -1.1536
  603MOL0     H81394   9.827   8.554   0.814 -1.4886  1.0436  1.0271
  603MOL0     H81395   9.453   8.414   0.603  1.1042  3.5240  0.9510
  603MOL0     H81396   9.514   8.260   0.672 -1.1669  0.3009 -0.9917
  603MOL0     H81397   9.424   8.339   0.901 -1.7896 -3.8239 -0.2875
  603MOL0     H81398   9.292   8.327   0.779  0.4030  1.9649 -1.7790
  603MOL0     H81399   9.243   8.509   0.912  1.7936  2.0211  2.5079
  603MOL0     H81400   9.266   8.566   0.759  4.1666  1.3978 -2.1866
  603MOL0     H81401   9.354   8.706   0.932  4.3479  1.0884  2.0938
  603MOL0     H81402   9.478   8.662   0.805 -1.6877  1.2506 -0.6563
  603MOL0     H81403   9.655   8.507   1.151  0.3190 -0.2637 -0.0247
  603MOL0     H81404   9.591   8.186   0.854 -0.2452  1.2369 -2.7783
  603MOL0     H81405   9.738   8.111   1.014  2.6439 -1.0936 -0.7968
  604MOL0     O81406   9.909  10.573   2.424  0.3609  0.2679 -0.0478
  604MOL0     C81407   9.919  10.656   2.512  0.2652  0.5871  0.7734
  604MOL0     O81408   9.870  10.647   2.634 -0.6544  0.7357  0.3393
  604MOL0     C81409   9.804  10.539   2.682  0.2752 -0.2443  0.1516
  604MOL0     C81410   9.856  10.404   2.681 -0.1539 -0.1620 -0.0273
  604MOL0     C81411   9.799  10.309   2.764 -0.3371 -0.3818  0.8259
  604MOL0     C81412   9.694  10.330   2.856  0.6155 -0.1245  0.7190
  604MOL0     O81413   9.639  10.231   2.934 -0.9251  0.0974  0.0469
  604MOL0     C81414   9.719  10.115   2.962  0.6535 -0.1092 -0.2965
  604MOL0     C81415   9.652  10.042   3.077 -0.2255 -0.2884  0.0046
  604MOL0     C81416   9.679  10.126   3.201  0.5365  0.1188 -0.8673
  604MOL0     C81417   9.814  10.125   3.265  0.5132  1.4680 -0.2504
  604MOL0     C81418   9.819  10.233   3.367 -0.6245 -0.3185 -0.0042
  604MOL0     C81419   9.957  10.279   3.408  0.4481 -1.2393  0.2192
  604MOL0     C81420   9.936  10.375   3.529 -0.2925  0.6538 -0.6524
  604MOL0     C81421  10.052  10.475   3.557  0.1097  0.2130 -0.1910
  604MOL0     N81422  10.088  10.502   3.700 -0.1134  0.3154 -0.9352
  604MOL0     C81423  10.220  10.480   3.737  0.4680 -0.0262  0.7040
  604MOL0     C81424  10.210  10.482   3.876  0.4850  0.6849 -0.7816
  604MOL0     C81425  10.319  10.477   3.974  0.3727  0.2068  0.0278
  604MOL0     C81426  10.429  10.387   3.934 -0.1901 -0.1667  0.1051
  604MOL0     C81427  10.475  10.299   4.048  0.0386  0.8119 -0.4577
  604MOL0     C81428  10.546  10.381   4.163 -0.1632 -0.2749  0.0986
  604MOL0     O81429  10.626  10.294   4.241  0.4747 -0.0169 -0.8117
  604MOL0     C81430  10.569  10.200   4.318  0.4723 -0.2991 -0.0584
  604MOL0     C81431  10.447  10.222   4.387 -0.1092 -0.5797  0.1540
  604MOL0     C81432  10.395  10.126   4.475 -0.1939 -1.1201  0.0381
  604MOL0     C81433  10.264  10.165   4.548 -0.0767 -0.2552  0.5879
  604MOL0     C81434  10.466  10.006   4.481 -0.9335 -0.6391  0.8063
  604MOL0     C81435  10.430   9.894   4.572  0.7133 -0.4490  0.3379
  604MOL0     O81436  10.524   9.803   4.589  0.1540 -0.4408  0.3191
  604MOL0     C81437  10.517   9.702   4.677 -0.4028 -0.1657  0.4828
  604MOL0     C81438  10.639   9.650   4.720 -0.2656 -0.3956 -0.9629
  604MOL0     C81439  10.652   9.532   4.806 -0.6754  1.1665 -0.2458
  604MOL0     C81440  10.532   9.470   4.852  0.1201 -0.3768 -0.3978
  604MOL0     O81441  10.549   9.357   4.935 -0.6162  0.0429  0.0023
  604MOL0     C81442  10.438   9.318   5.020  0.6219  0.2626 -0.4143
  604MOL0     C81443  10.481   9.193   5.102  0.4330  0.1641 -0.0623
  604MOL0     C81444  10.536   9.075   5.034  0.2657 -0.1057  0.2576
  604MOL0     C81445  10.445   9.029   4.921  0.3490 -0.5725 -0.2030
  604MOL0     C81446  10.494   8.900   4.866  0.3465 -0.2471  0.0086
  604MOL0     C81447  10.390   8.831   4.771 -0.5647  0.6113 -0.5825
  604MOL0     C81448  10.314   8.722   4.854 -0.2689  0.3728  1.3564
  604MOL0     C81449  10.226   8.647   4.755 -1.0614 -0.6233 -0.2618
  604MOL0    Cl81450  10.117   8.748   4.657 -0.4210 -0.1435 -0.2385
  604MOL0     C81451  10.412   9.523   4.807  0.0103 -0.6322  0.1845
  604MOL0     C81452  10.397   9.634   4.730 -0.7769  0.5570  1.2860
  604MOL0     O81453  10.322   9.891   4.629 -0.3034 -0.0894 -0.6481
  604MOL0     C81454  10.584   9.983   4.401 -0.0308  0.3803  0.7712
  604MOL0     C81455  10.646  10.090   4.335 -0.0171  0.8007 -0.0449
  604MOL0     N81456  10.070  10.495   3.914 -0.2414 -0.1064 -0.4005
  604MOL0     N81457  10.003  10.502   3.803  0.2430 -0.0301 -0.3606
  604MOL0     C81458   9.644  10.457   2.852 -0.9047  0.5722  0.4816
  604MOL0     C81459   9.693  10.567   2.767  0.4842 -0.0804  0.3318
  604MOL0     C81460   9.984  10.778   2.478  0.4577 -0.0523  0.2186
  604MOL0     C81461  10.001  10.873   2.578  0.8519  0.1402 -0.1391
  604MOL0     C81462  10.099  10.972   2.556 -0.5910 -0.4044  1.7001
  604MOL0     C81463  10.157  10.991   2.425 -0.2922 -0.0524  0.5334
  604MOL0     O81464  10.254  11.079   2.393  1.0284  0.0782 -0.1794
  604MOL0     C81465  10.320  11.152   2.496 -0.7043  0.2726  0.4903
  604MOL0     C81466  10.443  11.211   2.434  0.3214 -0.4049 -0.8329
  604MOL0     C81467  10.410  11.331   2.348  0.9896  0.2186  0.4327
  604MOL0     C81468  10.538  11.381   2.283 -0.1480 -0.0867 -0.1469
  604MOL0     C81469  10.605  11.483   2.370  0.4308 -0.8271 -0.3333
  604MOL0     C81470  10.646  11.569   2.444  1.0784 -0.2748 -1.4314
  604MOL0     C81471  10.122  10.906   2.323  0.5365  0.7717  0.0999
  604MOL0     C81472  10.031  10.802   2.350  0.3921 -0.1407  0.0887
  604MOL0     H81473   9.932  10.375   2.610 -0.9057  0.8235 -1.2753
  604MOL0     H81474   9.843  10.211   2.746 -1.0174 -0.1257 -2.9122
  604MOL0     H81475   9.722  10.049   2.875  1.5508 -2.1500  1.1926
  604MOL0     H81476   9.823  10.138   2.987  0.7214 -0.6371 -0.0671
  604MOL0     H81477   9.547  10.034   3.048 -0.2877 -1.7960  0.5731
  604MOL0     H81478   9.703   9.945   3.088  1.3741  0.5460  0.2975
  604MOL0     H81479   9.642  10.229   3.195 -1.0563  0.1540  4.4811
  604MOL0     H81480   9.615  10.072   3.271  1.3301 -0.9451 -0.9258
  604MOL0     H81481   9.836  10.026   3.307  1.7888  1.0850 -1.7519
  604MOL0     H81482   9.894  10.135   3.192 -0.2172 -2.6139 -1.8693
  604MOL0     H81483   9.763  10.320   3.331 -0.8260  0.0648  1.1893
  604MOL0     H81484   9.780  10.182   3.455  0.9933 -3.9569 -1.2193
  604MOL0     H81485  10.022  10.195   3.438  1.6973 -0.6263 -0.6820
  604MOL0     H81486  10.000  10.331   3.322 -1.7968  0.2528 -0.0682
  604MOL0     H81487   9.843  10.427   3.504 -0.7435  0.3157  0.2708
  604MOL0     H81488   9.923  10.311   3.617  3.4058 -2.1880 -1.9300
  604MOL0     H81489  10.046  10.566   3.498 -4.7414  0.4206  0.2749
  604MOL0     H81490  10.144  10.425   3.526 -0.7111 -0.2076 -2.0538
  604MOL0     H81491  10.314  10.476   3.683  0.8412  1.2539  1.2393
  604MOL0     H81492  10.365  10.573   4.001  1.1422 -0.2048  0.2016
  604MOL0     H81493  10.262  10.449   4.063 -0.8699  0.5568 -0.6329
  604MOL0     H81494  10.507  10.436   3.874  0.7271 -3.5138 -1.7060
  604MOL0     H81495  10.394  10.319   3.856 -1.4908 -2.5805  2.6453
  604MOL0     H81496  10.551  10.223   4.028 -0.8269 -0.2646  0.1960
  604MOL0     H81497  10.384  10.247   4.081  0.4214  1.1585  1.2624
  604MOL0     H81498  10.479  10.446   4.219 -0.1494  0.0611 -0.2682
  604MOL0     H81499  10.613  10.444   4.104 -1.1374  0.6627 -0.0467
  604MOL0     H81500  10.382  10.304   4.359  0.5533 -0.3769 -0.8697
  604MOL0     H81501  10.270  10.137   4.653 -2.6399  2.0871  1.4720
  604MOL0     H81502  10.253  10.274   4.543  1.6961  0.1176  3.0651
  604MOL0     H81503  10.185  10.105   4.502  1.5586 -2.2055  0.1438
  604MOL0     H81504  10.733   9.696   4.689  2.6615 -0.0766  6.2620
  604MOL0     H81505  10.750   9.492   4.832 -0.2885  1.6829 -0.8667
  604MOL0     H81506  10.401   9.393   5.090 -1.3066  0.3890 -1.4930
  604MOL0     H81507  10.350   9.283   4.965 -0.9663 -2.2790  3.2684
  604MOL0     H81508  10.538   9.231   5.187 -3.1383  2.4758  1.5480
  604MOL0     H81509  10.389   9.161   5.153  1.1319  1.3139  2.0337
  604MOL0     H81510  10.539   8.997   5.111  3.0702 -0.2094  0.1432
  604MOL0     H81511  10.631   9.102   4.987 -1.3037  1.9622 -1.9543
  604MOL0     H81512  10.339   9.024   4.947  0.9909  1.1353  3.3388
  604MOL0     H81513  10.447   9.101   4.839  0.9159  1.8464  1.8015
  604MOL0     H81514  10.525   8.832   4.946  1.0686  1.3254  1.0977
  604MOL0     H81515  10.587   8.918   4.812 -0.7327  2.3199 -1.1809
  604MOL0     H81516  10.317   8.902   4.733  0.3948  2.8710  1.5187
  604MOL0     H81517  10.442   8.779   4.690 -0.7958 -2.0033  0.8199
  604MOL0     H81518  10.254   8.780   4.925  2.0706  4.8730  0.0909
  604MOL0     H81519  10.386   8.650   4.896 -2.1233 -1.7366  1.0872
  604MOL0     H81520  10.164   8.570   4.802 -0.0262 -1.1168  0.3359
  604MOL0     H81521  10.291   8.599   4.682  0.2048  2.1607 -1.1080
  604MOL0     H81522  10.315   9.485   4.838  0.6803 -2.7074 -0.0491
  604MOL0     H81523  10.297   9.668   4.707 -0.6096 -0.6082 -1.5764
  604MOL0     H81524  10.620   9.881   4.396 -3.5720 -1.0591  1.8109
  604MOL0     H81525  10.732  10.073   4.271  1.6997 -0.0116  2.3217
  604MOL0     H81526   9.557  10.476   2.914 -2.7486 -1.5760 -1.2673
  604MOL0     H81527   9.676  10.674   2.773  2.4492  0.3945 -1.4296
  604MOL0     H81528   9.966  10.860   2.680  1.3074 -2.1728 -0.2212
  604MOL0     H81529  10.133  11.022   2.646  3.6529 -2.9386  1.7569
  604MOL0     H81530  10.250  11.233   2.517  0.4504  2.1514 -2.3220
  604MOL0     H81531  10.344  11.094   2.586  2.6663  1.1758  0.3152
  604MOL0     H81532  10.491  11.137   2.370  0.3190  1.7948 -3.5538
  604MOL0     H81533  10.494  11.247   2.524 -0.5130 -0.9077 -0.1328
  604MOL0     H81534  10.370  11.407   2.416  0.3491 -0.3710  0.7250
  604MOL0     H81535  10.338  11.299   2.271  2.3134 -3.0991  0.4131
  604MOL0     H81536  10.504  11.436   2.196  1.0134  0.0152 -0.5577
  604MOL0     H81537  10.606  11.297   2.264 -1.0052 -0.6302 -0.8898
  604MOL0     H81538  10.656  11.652   2.511  0.9042 -1.3371 -0.0415
  604MOL0     H81539  10.159  10.919   2.221 -3.2441 -1.1825 -1.7427
  604MOL0     H81540  10.016  10.727   2.273  0.6396 -0.9839  0.8449
  605MOL0     O81541   5.933   8.751  10.391 -0.4178 -0.6621 -0.1000
  605MOL0     C81542   5.825   8.758  10.331  0.5254 -0.4794 -0.8441
  605MOL0     O81543   5.737   8.659  10.324 -0.4969  0.7514 -0.2571
  605MOL0     C81544   5.754   8.529  10.375 -0.0581  0.1164 -1.3053
  605MOL0     C81545   5.748   8.418  10.291 -0.2231 -0.3211  0.0591
  605MOL0     C81546   5.760   8.286  10.329 -0.0860  1.1781 -0.3022
  605MOL0     C81547   5.782   8.261  10.462  0.1214  0.2871  0.0295
  605MOL0     O81548   5.811   8.138  10.510  0.0405  0.1107  0.4281
  605MOL0     C81549   5.901   8.059  10.436  0.5861 -0.1471  0.0179
  605MOL0     C81550   6.028   8.058  10.519 -0.1303  0.1940 -0.1437
  605MOL0     C81551   6.022   8.042  10.668 -0.2697 -0.5867 -0.0283
  605MOL0     C81552   6.152   7.983  10.724  0.7821 -0.0935  0.3611
  605MOL0     C81553   6.184   8.019  10.874 -0.4530  0.2421  0.2758
  605MOL0     C81554   6.329   7.966  10.891 -0.2585 -0.6459  0.0292
  605MOL0     C81555   6.440   8.073  10.852 -0.7494  0.4300  0.1020
  605MOL0     C81556   6.577   8.025  10.916  0.2461  0.0244  0.4559
  605MOL0     N81557   6.573   8.018  11.060  0.9121 -0.4383 -0.3388
  605MOL0     C81558   6.568   8.124  11.147  0.4680 -0.3381  0.8627
  605MOL0     C81559   6.567   8.076  11.278 -1.1995  0.1488  0.5568
  605MOL0     C81560   6.556   8.151  11.399  0.7363 -0.4620 -0.3535
  605MOL0     C81561   6.437   8.099  11.483 -0.5253  0.3770 -0.3087
  605MOL0     C81562   6.302   8.157  11.428 -0.9781  1.4055 -0.6820
  605MOL0     C81563   6.173   8.110  11.487 -0.4533  0.4904  0.2906
  605MOL0     O81564   6.069   8.156  11.397  0.5558  0.3190 -0.0582
  605MOL0     C81565   5.940   8.107  11.402 -0.2744  0.0224 -0.5063
  605MOL0     C81566   5.831   8.193  11.414  0.4867 -0.1691  0.7900
  605MOL0     C81567   5.703   8.138  11.413  0.2342  0.1442  0.5416
  605MOL0     C81568   5.593   8.242  11.414 -0.3920 -0.5385 -0.2369
  605MOL0     C81569   5.675   7.997  11.410  1.0014  0.5338  0.5160
  605MOL0     C81570   5.537   7.947  11.433 -0.0022  0.0509  0.5730
  605MOL0     O81571   5.526   7.875  11.548 -0.1998  0.4926  0.3131
  605MOL0     C81572   5.402   7.834  11.575  0.3543  0.2924  0.1081
  605MOL0     C81573   5.334   7.878  11.689 -0.9482  0.8243  0.1560
  605MOL0     C81574   5.208   7.842  11.723  0.2564  0.4106  0.0580
  605MOL0     C81575   5.140   7.743  11.653 -0.6968  0.6100 -0.1857
  605MOL0     O81576   5.009   7.713  11.693 -0.1901  0.7454  0.0945
  605MOL0     C81577   4.943   7.600  11.633 -0.6502 -0.7706  0.0728
  605MOL0     C81578   4.823   7.553  11.726  0.0878 -0.3762  0.2165
  605MOL0     C81579   4.747   7.431  11.676  0.6164 -0.2851 -0.2044
  605MOL0     C81580   4.607   7.436  11.745  0.5727 -0.7415 -0.0970
  605MOL0     C81581   4.517   7.319  11.698 -0.7200 -1.0069 -0.4043
  605MOL0     C81582   4.425   7.290  11.820 -0.1783  0.7473 -0.1834
  605MOL0     C81583   4.363   7.147  11.808 -0.1912 -0.5450  0.0966
  605MOL0     C81584   4.464   7.045  11.856 -0.5936  0.0772  0.1169
  605MOL0    Cl81585   4.380   6.893  11.865 -0.0197  0.7174 -0.0836
  605MOL0     C81586   5.210   7.688  11.537 -0.4947 -0.0886  0.8900
  605MOL0     C81587   5.334   7.747  11.490  0.7744  0.7038 -0.8340
  605MOL0     O81588   5.446   7.977  11.359 -0.4136 -0.5231  0.4968
  605MOL0     C81589   5.783   7.919  11.392 -0.1406  0.5373 -0.0072
  605MOL0     C81590   5.914   7.970  11.380 -0.5101  0.0339 -0.2626
  605MOL0     N81591   6.592   7.932  11.258  0.8998 -1.1032 -0.2486
  605MOL0     N81592   6.602   7.908  11.133 -0.2448 -0.2544 -0.1001
  605MOL0     C81593   5.788   8.365  10.553  1.3420  0.2617 -0.0506
  605MOL0     C81594   5.770   8.495  10.508  0.0284 -0.7202 -0.2374
  605MOL0     C81595   5.788   8.885  10.273  0.7420  0.2035  0.7088
  605MOL0     C81596   5.681   8.901  10.183 -0.6025  0.1998  0.5180
  605MOL0     C81597   5.649   9.032  10.138  0.3355  0.2219 -0.8418
  605MOL0     C81598   5.727   9.144  10.175  0.4401 -0.2011  0.0050
  605MOL0     O81599   5.683   9.265  10.133  0.1289 -0.4337 -0.1894
  605MOL0     C81600   5.657   9.355  10.241 -0.2943 -0.5802  0.0170
  605MOL0     C81601   5.582   9.479  10.187  0.2782 -0.5467  0.3152
  605MOL0     C81602   5.560   9.591  10.284  0.1827 -0.1181 -0.0169
  605MOL0     C81603   5.463   9.709  10.242 -1.4751  1.0444 -0.3391
  605MOL0     C81604   5.327   9.662  10.196 -0.0934 -1.1019 -0.2737
  605MOL0     C81605   5.218   9.611  10.163 -0.5919  0.2114 -0.0884
  605MOL0     C81606   5.827   9.130  10.260 -0.5432 -0.6045 -0.2385
  605MOL0     C81607   5.860   9.004  10.309 -0.1156  0.5802  0.5694
  605MOL0     H81608   5.747   8.442  10.185 -0.6900 -0.4117  0.0409
  605MOL0     H81609   5.752   8.206  10.257  2.0111  1.8774 -1.3946
  605MOL0     H81610   5.861   7.957  10.432 -1.5233  0.6312  0.3885
  605MOL0     H81611   5.921   8.100  10.337 -1.9589  0.0834 -0.4633
  605MOL0     H81612   6.091   7.979  10.478  0.5656  0.7641 -0.1996
  605MOL0     H81613   6.079   8.152  10.493  0.1952  0.7436  2.2632
  605MOL0     H81614   6.007   8.141  10.712 -0.9421  1.0468 -3.5855
  605MOL0     H81615   5.947   7.975  10.712 -0.1311 -0.2663  0.7067
  605MOL0     H81616   6.152   7.874  10.722  0.8835 -0.1010  0.6719
  605MOL0     H81617   6.231   8.017  10.657 -0.9208  1.0073 -1.1967
  605MOL0     H81618   6.176   8.125  10.900 -1.3363 -0.4304  3.1092
  605MOL0     H81619   6.126   7.959  10.945  3.3027 -0.1054  3.4054
  605MOL0     H81620   6.343   7.958  10.999 -0.4102  2.5442  0.3778
  605MOL0     H81621   6.352   7.875  10.835 -1.3793 -0.0447 -1.4608
  605MOL0     H81622   6.449   8.075  10.743  0.1362  1.9658  0.1577
  605MOL0     H81623   6.422   8.171  10.898  3.3538  0.3557  2.3484
  605MOL0     H81624   6.663   8.074  10.869 -0.2464  2.1228  1.6071
  605MOL0     H81625   6.594   7.919  10.898  1.7956  0.5896 -1.7482
  605MOL0     H81626   6.562   8.222  11.101 -0.1764 -1.1614 -0.8903
  605MOL0     H81627   6.649   8.137  11.453 -0.0180 -1.5348  0.7094
  605MOL0     H81628   6.541   8.258  11.381 -2.3463 -1.1331 -2.8172
  605MOL0     H81629   6.459   8.129  11.586 -0.4597  0.4921 -0.3563
  605MOL0     H81630   6.413   7.992  11.476 -1.5358  0.5757  0.0025
  605MOL0     H81631   6.309   8.122  11.325  1.3367  0.1714 -0.1704
  605MOL0     H81632   6.308   8.266  11.436 -1.4521  1.3624  0.4384
  605MOL0     H81633   6.152   8.164  11.580 -0.7200  1.6538 -0.4333
  605MOL0     H81634   6.172   8.001  11.498  0.8645  0.3397 -0.7914
  605MOL0     H81635   5.840   8.301  11.422 -1.9932  0.2104 -0.6494
  605MOL0     H81636   5.503   8.214  11.359  0.6727  0.5524 -2.6684
  605MOL0     H81637   5.555   8.260  11.515 -1.8107 -2.7794 -0.3076
  605MOL0     H81638   5.618   8.336  11.364 -2.4541  1.3066  1.9282
  605MOL0     H81639   5.386   7.950  11.752 -1.0098  0.7497  0.2925
  605MOL0     H81640   5.157   7.884  11.809  1.4296 -0.4762  1.2405
  605MOL0     H81641   4.908   7.627  11.533  0.9738 -0.5375 -0.4654
  605MOL0     H81642   5.015   7.517  11.638  0.0755 -0.4545 -3.1376
  605MOL0     H81643   4.861   7.524  11.825  1.3993 -0.7628 -0.3771
  605MOL0     H81644   4.757   7.639  11.740 -0.5973 -0.8190 -0.2403
  605MOL0     H81645   4.794   7.334  11.689  1.6252  0.0285 -1.3679
  605MOL0     H81646   4.727   7.456  11.571 -1.6158 -0.6531  0.0686
  605MOL0     H81647   4.635   7.427  11.850  2.4141 -0.8646 -0.5576
  605MOL0     H81648   4.554   7.530  11.730  1.1283 -0.9223 -4.9205
  605MOL0     H81649   4.577   7.231  11.672 -0.7988 -0.5838 -2.1126
  605MOL0     H81650   4.468   7.351  11.605  1.8008  1.2057 -1.0677
  605MOL0     H81651   4.478   7.287  11.915  2.4367  0.5998 -1.5666
  605MOL0     H81652   4.358   7.377  11.822  0.3560  1.1482  1.2070
  605MOL0     H81653   4.323   7.126  11.709 -1.9128  0.4941  0.5401
  605MOL0     H81654   4.277   7.153  11.875  0.1593  2.2140  0.4383
  605MOL0     H81655   4.493   7.076  11.957  1.8272  1.9605 -1.0620
  605MOL0     H81656   4.547   7.033  11.786  2.0530  0.7786  2.9187
  605MOL0     H81657   5.166   7.609  11.477  0.7932  0.4921 -0.9021
  605MOL0     H81658   5.378   7.716  11.395  1.1398 -0.3227 -0.3384
  605MOL0     H81659   5.776   7.812  11.377 -0.6131  0.9672 -3.7376
  605MOL0     H81660   5.997   7.910  11.342 -0.8568  1.7237 -4.1700
  605MOL0     H81661   5.805   8.336  10.657 -4.7033  0.3670  1.3300
  605MOL0     H81662   5.773   8.573  10.584  1.7005  2.4218 -3.2062
  605MOL0     H81663   5.612   8.822  10.155 -1.0734  0.1042  1.8592
  605MOL0     H81664   5.572   9.026  10.062 -0.8678 -1.2320  0.4059
  605MOL0     H81665   5.589   9.308  10.312 -1.6399 -0.6583 -1.2775
  605MOL0     H81666   5.751   9.387  10.287 -0.7765  0.5066  0.2776
  605MOL0     H81667   5.493   9.433  10.143  2.8412 -3.1211 -2.8274
  605MOL0     H81668   5.635   9.520  10.100 -1.0796 -0.6525 -0.5990
  605MOL0     H81669   5.657   9.634  10.311  0.1877 -1.5753  2.7469
  605MOL0     H81670   5.523   9.549  10.378  3.9290  2.6856  3.0731
  605MOL0     H81671   5.512   9.764  10.162  1.4297 -3.0150 -1.6892
  605MOL0     H81672   5.453   9.775  10.329  1.1666 -1.5395  2.1660
  605MOL0     H81673   5.126   9.567  10.130  0.7377  0.3124 -4.5218
  605MOL0     H81674   5.879   9.216  10.301  2.5807 -1.5448 -1.8710
  605MOL0     H81675   5.947   8.996  10.373  1.0152 -0.2029 -0.9879
  606MOL0     O81676   8.297   1.472   5.229 -0.2450  1.2309 -0.0617
  606MOL0     C81677   8.304   1.509   5.112 -0.1552 -0.8558  0.3704
  606MOL0     O81678   8.213   1.583   5.041 -0.9575 -0.6718  0.5973
  606MOL0     C81679   8.129   1.677   5.093  0.3800  0.0581 -0.0729
  606MOL0     C81680   8.079   1.784   5.016  0.7826  0.2733  1.0737
  606MOL0     C81681   7.995   1.879   5.063  0.7954  0.2006  0.0385
  606MOL0     C81682   7.960   1.884   5.198 -0.0159 -0.0317  0.3705
  606MOL0     O81683   7.864   1.974   5.228  0.2379 -0.2434  0.2765
  606MOL0     C81684   7.795   1.972   5.351  0.2480 -0.7036  0.3083
  606MOL0     C81685   7.657   1.905   5.340 -0.5968  0.6201 -0.8371
  606MOL0     C81686   7.590   1.916   5.200 -0.1193 -0.1376  0.3271
  606MOL0     C81687   7.466   1.823   5.179 -0.5544 -0.2031  0.4656
  606MOL0     C81688   7.408   1.829   5.032  0.6695 -0.2584 -0.7015
  606MOL0     C81689   7.260   1.776   5.009 -0.9710 -0.2209  0.0852
  606MOL0     C81690   7.149   1.837   5.098 -0.4376 -0.3173  0.5499
  606MOL0     C81691   7.016   1.770   5.068  0.1323  0.8723  0.8715
  606MOL0     N81692   6.904   1.822   5.145 -0.1718  0.4812 -0.8844
  606MOL0     C81693   6.833   1.779   5.257 -0.0060  0.1830  0.2056
  606MOL0     C81694   6.761   1.886   5.296 -0.6329  0.0771 -0.8173
  606MOL0     C81695   6.658   1.884   5.408 -0.1457 -0.0551  0.2882
  606MOL0     C81696   6.519   1.842   5.368  0.4496  0.0934  0.0940
  606MOL0     C81697   6.409   1.883   5.460  0.4798  0.8311  0.0369
  606MOL0     C81698   6.263   1.840   5.413  0.6904 -0.2364 -0.3166
  606MOL0     O81699   6.253   1.695   5.418  0.1806 -0.4335  0.2725
  606MOL0     C81700   6.153   1.635   5.352  0.6539 -0.1979  0.0028
  606MOL0     C81701   6.197   1.529   5.274 -0.8030  0.1341 -0.5393
  606MOL0     C81702   6.108   1.458   5.189  0.0223  0.1490  0.8229
  606MOL0     C81703   6.172   1.349   5.107  0.4762 -0.4378  1.3098
  606MOL0     C81704   5.969   1.499   5.188 -0.2326 -0.7811 -0.1504
  606MOL0     C81705   5.878   1.448   5.087  0.2088  1.1638 -0.4708
  606MOL0     O81706   5.742   1.448   5.122  0.4214  0.1431  0.7242
  606MOL0     C81707   5.669   1.373   5.029  0.7610 -0.5795  1.0209
  606MOL0     C81708   5.678   1.237   5.005 -0.2619 -0.0992  0.4232
  606MOL0     C81709   5.589   1.166   4.919 -0.4783 -0.2772 -0.2864
  606MOL0     C81710   5.486   1.229   4.859  0.3076 -0.4746  0.2539
  606MOL0     O81711   5.387   1.159   4.786  0.3789  0.2882 -0.0877
  606MOL0     C81712   5.379   1.203   4.651  0.2107 -0.4611  0.3913
  606MOL0     C81713   5.316   1.117   4.547 -0.5271 -0.3651 -0.0090
  606MOL0     C81714   5.182   1.054   4.599  0.5439  0.1467  0.3644
  606MOL0     C81715   5.134   0.932   4.514 -0.1536  0.2089 -0.7080
  606MOL0     C81716   5.087   0.962   4.372 -0.0191 -0.3313  0.1464
  606MOL0     C81717   5.056   0.834   4.292  0.1200 -0.3739 -0.9282
  606MOL0     C81718   4.979   0.850   4.154  0.4097 -0.1702 -0.6517
  606MOL0     C81719   4.965   0.704   4.104 -0.2126  0.2555  0.2417
  606MOL0    Cl81720   4.900   0.684   3.940  0.0157  0.1891  0.1796
  606MOL0     C81721   5.466   1.362   4.887  0.5391  0.4708 -0.3499
  606MOL0     C81722   5.552   1.440   4.963 -0.2862  0.1263 -0.6434
  606MOL0     O81723   5.923   1.412   4.979  0.3739 -0.1270  0.0285
  606MOL0     C81724   5.924   1.606   5.270 -0.0709 -0.1687  0.8810
  606MOL0     C81725   6.020   1.667   5.351 -0.0510 -0.6859  0.3391
  606MOL0     N81726   6.793   1.993   5.210  0.2757 -1.3882 -0.5655
  606MOL0     N81727   6.867   1.945   5.122  0.1339  0.5334  0.2104
  606MOL0     C81728   8.002   1.778   5.275  0.4376 -1.0414  0.0276
  606MOL0     C81729   8.095   1.684   5.233 -0.2777 -0.6463  0.1837
  606MOL0     C81730   8.444   1.493   5.061  0.4012  1.4426 -0.1736
  606MOL0     C81731   8.457   1.506   4.930 -0.2707  1.3913 -0.3949
  606MOL0     C81732   8.579   1.485   4.859 -0.1739  0.1705  0.8131
  606MOL0     C81733   8.688   1.437   4.940  0.5525 -0.5117 -1.5157
  606MOL0     O81734   8.813   1.435   4.877 -0.6095 -0.1584  0.3494
  606MOL0     C81735   8.933   1.382   4.941 -0.1079 -0.1706  0.0841
  606MOL0     C81736   9.056   1.384   4.841  0.4139 -0.2376  0.1440
  606MOL0     C81737   9.029   1.275   4.730  0.8676 -0.2958 -0.9538
  606MOL0     C81738   9.118   1.143   4.764  0.3307 -0.9282 -0.3439
  606MOL0     C81739   9.045   1.064   4.857  0.7089 -0.5499 -0.4513
  606MOL0     C81740   8.986   0.998   4.940  0.6386  0.0067 -0.6723
  606MOL0     C81741   8.676   1.425   5.083 -0.8346  0.4821  0.4478
  606MOL0     C81742   8.554   1.457   5.148  0.3946  0.5197  0.0725
  606MOL0     H81743   8.107   1.786   4.911 -0.8825 -0.8883  0.5625
  606MOL0     H81744   7.969   1.952   4.987  1.2009 -0.7883 -1.0887
  606MOL0     H81745   7.863   1.920   5.421 -2.4494 -3.1123  1.3399
  606MOL0     H81746   7.797   2.078   5.377 -0.2137 -0.4740 -0.5825
  606MOL0     H81747   7.662   1.798   5.364 -1.3950  0.2926 -2.0722
  606MOL0     H81748   7.585   1.942   5.413  0.3778  2.7382 -0.8700
  606MOL0     H81749   7.569   2.021   5.177 -0.4489 -0.4083 -0.6608
  606MOL0     H81750   7.655   1.886   5.118 -2.5319  0.1114 -1.8076
  606MOL0     H81751   7.489   1.720   5.207 -0.0304  0.3870  2.3400
  606MOL0     H81752   7.395   1.845   5.259 -0.6497 -0.8300  0.5567
  606MOL0     H81753   7.421   1.929   4.990 -1.7601  0.1822 -0.5558
  606MOL0     H81754   7.472   1.762   4.974  0.4910 -2.9568  1.9277
  606MOL0     H81755   7.230   1.791   4.905 -1.1855  0.2551  0.2124
  606MOL0     H81756   7.265   1.669   5.032  1.0683 -0.3105 -0.5879
  606MOL0     H81757   7.170   1.829   5.205  1.8164 -0.4891  0.1547
  606MOL0     H81758   7.140   1.945   5.086 -1.9549 -0.7349 -4.2569
  606MOL0     H81759   7.033   1.664   5.090  0.2168  1.0183  1.5169
  606MOL0     H81760   6.988   1.781   4.962 -1.1655  1.1057  1.2264
  606MOL0     H81761   6.826   1.677   5.296 -2.5716 -0.7996 -2.4643
  606MOL0     H81762   6.688   1.825   5.494  1.0021 -1.2106 -0.8632
  606MOL0     H81763   6.656   1.989   5.438 -2.3740 -0.3951  1.5260
  606MOL0     H81764   6.530   1.733   5.358  1.3349  0.2789 -1.1080
  606MOL0     H81765   6.499   1.888   5.271  3.3569  0.5564 -0.3661
  606MOL0     H81766   6.412   1.993   5.463 -1.5683  0.9875 -1.4740
  606MOL0     H81767   6.420   1.843   5.561  0.4405 -1.1744 -0.7267
  606MOL0     H81768   6.254   1.890   5.317  1.9495  1.0465  0.2004
  606MOL0     H81769   6.191   1.869   5.490  1.8444  1.8875  0.0116
  606MOL0     H81770   6.298   1.491   5.287 -0.4454  1.9439  3.5384
  606MOL0     H81771   6.227   1.394   5.023 -2.8892  4.3517  1.2730
  606MOL0     H81772   6.229   1.300   5.187 -0.6070  0.3312  2.5961
  606MOL0     H81773   6.106   1.271   5.067  0.8707 -0.6607  1.0807
  606MOL0     H81774   5.749   1.173   5.058 -1.1305 -0.7018  0.8861
  606MOL0     H81775   5.593   1.059   4.900  3.8522 -0.0373 -1.9450
  606MOL0     H81776   5.327   1.299   4.666  0.5872  0.3902 -3.0561
  606MOL0     H81777   5.482   1.224   4.622  0.8983  0.2815  3.0389
  606MOL0     H81778   5.303   1.170   4.452 -1.2684 -0.7850 -0.1534
  606MOL0     H81779   5.383   1.035   4.522 -0.5557 -0.5389  0.4831
  606MOL0     H81780   5.106   1.133   4.597 -1.5494 -1.7764  0.1413
  606MOL0     H81781   5.187   1.019   4.703 -2.3027  0.7503  0.8094
  606MOL0     H81782   5.210   0.855   4.500  1.1598  1.1139  0.9369
  606MOL0     H81783   5.058   0.872   4.564 -0.2383 -0.8604 -2.0570
  606MOL0     H81784   5.157   1.014   4.305 -0.3454 -0.6318 -0.4358
  606MOL0     H81785   4.997   1.024   4.364 -0.4658 -0.7122  1.8124
  606MOL0     H81786   5.151   0.779   4.292 -0.2954 -1.1075 -0.3063
  606MOL0     H81787   4.983   0.780   4.352  1.7047  0.7867  2.2887
  606MOL0     H81788   5.042   0.909   4.085 -0.4773  0.8923 -0.5725
  606MOL0     H81789   4.883   0.898   4.171  0.1075 -0.2303 -2.0303
  606MOL0     H81790   4.899   0.645   4.169 -0.4650  0.3296  0.0517
  606MOL0     H81791   5.064   0.659   4.117  0.4949  1.8039  0.5021
  606MOL0     H81792   5.373   1.404   4.852 -0.7129 -2.9677 -1.6442
  606MOL0     H81793   5.530   1.540   4.999  0.0435  0.2137 -0.6779
  606MOL0     H81794   5.821   1.642   5.267 -0.0635 -0.1521  0.8396
  606MOL0     H81795   5.984   1.741   5.422 -0.9852 -2.0746  1.3558
  606MOL0     H81796   7.978   1.762   5.380 -0.4828  1.1293  0.2116
  606MOL0     H81797   8.121   1.607   5.306  1.5069  0.4296  0.7296
  606MOL0     H81798   8.374   1.539   4.868 -0.1333  0.0133 -1.3477
  606MOL0     H81799   8.594   1.491   4.751 -2.1190  0.2729  0.5187
  606MOL0     H81800   8.962   1.459   5.013  0.2366  0.9475 -1.2057
  606MOL0     H81801   8.933   1.283   4.988 -0.1461  0.1901  0.8533
  606MOL0     H81802   9.148   1.354   4.892  0.7314 -4.9467 -2.6436
  606MOL0     H81803   9.057   1.484   4.798 -3.1907  0.6263  1.6427
  606MOL0     H81804   9.055   1.310   4.629  0.9985 -1.5824 -1.3848
  606MOL0     H81805   8.927   1.235   4.736  2.3040 -4.1423  2.3934
  606MOL0     H81806   9.214   1.166   4.811  0.5598 -0.6913 -0.9252
  606MOL0     H81807   9.124   1.086   4.671 -0.9867 -1.8406  0.1027
  606MOL0     H81808   8.951   0.939   5.022  0.2829  1.2866  0.1263
  606MOL0     H81809   8.752   1.394   5.154  0.0044 -2.6755 -1.6220
  606MOL0     H81810   8.541   1.469   5.255 -1.1997 -1.3678  0.1611
  607MOL0     O81811   0.492   3.953   2.388  0.9159 -0.0875 -1.0287
  607MOL0     C81812   0.553   3.850   2.383 -0.3330 -0.0112  0.9708
  607MOL0     O81813   0.503   3.723   2.360  0.0904  0.2822  0.4614
  607MOL0     C81814   0.371   3.704   2.348 -0.1493 -0.0841  0.4768
  607MOL0     C81815   0.318   3.659   2.228  0.3161  0.4393  0.2251
  607MOL0     C81816   0.179   3.635   2.219  0.4550 -0.6046  0.5326
  607MOL0     C81817   0.090   3.651   2.324 -0.7098 -1.7852  0.8286
  607MOL0     O81818  -0.042   3.620   2.313  0.6334 -0.1701  0.2341
  607MOL0     C81819  -0.087   3.539   2.207  0.6022 -0.2682  0.0627
  607MOL0     C81820  -0.220   3.484   2.248  0.4125 -0.3126 -0.3850
  607MOL0     C81821  -0.251   3.344   2.187 -0.4480 -0.7535  0.2530
  607MOL0     C81822  -0.390   3.286   2.222 -0.5316 -0.6108  0.2168
  607MOL0     C81823  -0.424   3.168   2.121 -0.4946  0.7595 -0.4761
  607MOL0     C81824  -0.566   3.163   2.082  0.1829 -0.3184 -0.4917
  607MOL0     C81825  -0.614   3.038   1.998  0.2741 -0.1315  0.2471
  607MOL0     C81826  -0.560   3.048   1.851  0.6060 -0.4410  0.7472
  607MOL0     N81827  -0.592   2.933   1.769  0.0447  0.3096 -0.3788
  607MOL0     C81828  -0.661   2.823   1.806 -0.6896  0.0001  0.8145
  607MOL0     C81829  -0.666   2.737   1.698 -0.3606  0.4564 -0.2487
  607MOL0     C81830  -0.748   2.613   1.681  0.1008 -0.5738 -0.7163
  607MOL0     C81831  -0.876   2.663   1.618 -0.7876 -0.7643  0.3096
  607MOL0     C81832  -0.986   2.549   1.626  0.2741  0.3581  0.1341
  607MOL0     C81833  -1.109   2.596   1.537  0.0964  0.0770 -0.7852
  607MOL0     O81834  -1.078   2.589   1.394  0.1948 -0.0793 -0.2160
  607MOL0     C81835  -1.125   2.689   1.318 -0.4399  0.2259 -0.0743
  607MOL0     C81836  -1.235   2.774   1.344 -0.1155  0.1919 -0.3074
  607MOL0     C81837  -1.266   2.883   1.262  1.1647  0.9562 -0.7104
  607MOL0     C81838  -1.374   2.985   1.314 -0.5668  0.7083 -0.1108
  607MOL0     C81839  -1.198   2.897   1.141  0.5510  0.5112  1.2966
  607MOL0     C81840  -1.233   3.005   1.037  0.4070  0.3239  0.1591
  607MOL0     O81841  -1.158   2.988   0.919  0.8047 -0.7398 -0.2103
  607MOL0     C81842  -1.234   2.996   0.802 -0.3575  1.0179 -0.2958
  607MOL0     C81843  -1.365   2.940   0.794  1.2937  0.3246 -0.3301
  607MOL0     C81844  -1.429   2.944   0.672 -0.2652 -0.1145 -0.6422
  607MOL0     C81845  -1.362   2.981   0.553  0.2373 -0.5466  0.3829
  607MOL0     O81846  -1.408   2.975   0.427 -0.3107 -0.1647  0.0882
  607MOL0     C81847  -1.544   2.934   0.398 -0.4904 -0.4603 -0.0498
  607MOL0     C81848  -1.535   2.926   0.245  0.4341 -0.4365 -0.3225
  607MOL0     C81849  -1.662   2.880   0.197  0.2934  0.5645 -0.2993
  607MOL0     C81850  -1.654   2.816   0.057 -0.3395  0.5979  0.8078
  607MOL0     C81851  -1.793   2.749   0.010 -0.4312 -0.8753 -0.6173
  607MOL0     C81852  -1.902   2.855   0.007  0.7567  0.7435  0.7939
  607MOL0     C81853  -2.031   2.812  -0.058 -0.3525  0.6011 -0.5638
  607MOL0     C81854  -2.096   2.677   0.009  0.2127  0.3017 -1.0299
  607MOL0    Cl81855  -2.015   2.528  -0.055 -0.2192  0.2044 -0.4234
  607MOL0     C81856  -1.233   3.024   0.564 -0.1654 -0.3262 -0.0877
  607MOL0     C81857  -1.178   3.053   0.691 -0.3186 -0.2738  0.2707
  607MOL0     O81858  -1.320   3.089   1.058 -0.2589 -0.0392 -0.3144
  607MOL0     C81859  -1.096   2.806   1.112  0.3966  0.3800  0.6722
  607MOL0     C81860  -1.062   2.701   1.197 -0.7163 -0.6326 -0.0440
  607MOL0     N81861  -0.577   2.795   1.601 -0.0984  0.4634  0.3042
  607MOL0     N81862  -0.531   2.913   1.649 -0.6728 -0.1922  0.1915
  607MOL0     C81863   0.148   3.694   2.438  0.6528 -0.3652 -0.3329
  607MOL0     C81864   0.283   3.715   2.454 -0.8837  0.2868 -0.4541
  607MOL0     C81865   0.700   3.863   2.387 -0.0187 -0.3196 -0.4368
  607MOL0     C81866   0.785   3.751   2.380  0.2291  0.1002 -0.5827
  607MOL0     C81867   0.919   3.763   2.389 -0.6149  0.3783  0.2740
  607MOL0     C81868   0.981   3.886   2.416 -0.5929 -0.0182  0.0016
  607MOL0     O81869   1.110   3.918   2.435 -0.0373  0.1629 -0.6208
  607MOL0     C81870   1.196   3.813   2.466 -0.7467  0.3913  0.0043
  607MOL0     C81871   1.319   3.885   2.513 -0.7961 -0.0572 -0.3474
  607MOL0     C81872   1.452   3.803   2.513 -1.0270  0.8280 -0.1590
  607MOL0     C81873   1.504   3.751   2.381 -0.3151  0.5445 -0.2826
  607MOL0     C81874   1.523   3.861   2.290 -0.1944 -0.7037 -0.7011
  607MOL0     C81875   1.522   3.947   2.203 -0.0286  0.3384 -0.3172
  607MOL0     C81876   0.894   3.996   2.424 -0.1455 -0.4214 -0.2587
  607MOL0     C81877   0.755   3.987   2.410 -0.7279 -0.9435 -0.5432
  607MOL0     H81878   0.373   3.644   2.136  0.4090 -0.1613  0.3752
  607MOL0     H81879   0.163   3.599   2.118  4.0547 -1.6308  0.1810
  607MOL0     H81880  -0.097   3.602   2.118 -2.0120 -0.5148  0.0844
  607MOL0     H81881  -0.026   3.450   2.188 -0.9182 -1.7671  1.7690
  607MOL0     H81882  -0.227   3.480   2.357 -1.4695 -0.8635 -0.4859
  607MOL0     H81883  -0.304   3.552   2.227  0.2247 -0.6088 -0.6062
  607MOL0     H81884  -0.242   3.371   2.081  2.3469  0.3062  0.6776
  607MOL0     H81885  -0.174   3.274   2.219  0.2494 -0.2430 -0.2767
  607MOL0     H81886  -0.392   3.252   2.326 -0.7350  1.8032  1.0606
  607MOL0     H81887  -0.463   3.365   2.200 -0.6083 -1.4827 -3.3252
  607MOL0     H81888  -0.366   3.171   2.028 -3.3703 -0.8604 -2.4604
  607MOL0     H81889  -0.401   3.077   2.177 -4.3621  1.3398  2.5021
  607MOL0     H81890  -0.619   3.169   2.178  2.3882  3.2690  0.7223
  607MOL0     H81891  -0.588   3.251   2.021  1.7606 -0.1603 -0.8780
  607MOL0     H81892  -0.575   2.946   2.045 -0.1136  0.1789  1.1858
  607MOL0     H81893  -0.723   3.034   2.000  0.0931  3.1261  1.3136
  607MOL0     H81894  -0.451   3.054   1.860  1.1649 -1.8708 -3.2179
  607MOL0     H81895  -0.600   3.136   1.801  1.6857 -0.0691  0.5336
  607MOL0     H81896  -0.699   2.800   1.905  2.4576 -0.5373  1.9991
  607MOL0     H81897  -0.697   2.534   1.625  0.3728 -0.3404 -0.8002
  607MOL0     H81898  -0.778   2.558   1.771 -1.8420  0.9510 -0.3528
  607MOL0     H81899  -0.847   2.694   1.517 -1.2028  0.2108  0.4825
  607MOL0     H81900  -0.918   2.747   1.673  3.3647  1.0952  0.9761
  607MOL0     H81901  -1.025   2.528   1.726  0.7870 -1.4583 -0.0002
  607MOL0     H81902  -0.931   2.462   1.587  2.2045  1.1839  0.9033
  607MOL0     H81903  -1.128   2.695   1.578  0.6189 -0.2794  0.3629
  607MOL0     H81904  -1.198   2.536   1.557 -0.2385  0.6358 -0.5730
  607MOL0     H81905  -1.291   2.761   1.436  1.0737 -1.5554  0.2251
  607MOL0     H81906  -1.451   2.979   1.236  1.0476 -2.3081 -1.6704
  607MOL0     H81907  -1.419   2.957   1.409 -0.5757  1.8037  0.2196
  607MOL0     H81908  -1.332   3.085   1.322  1.8960 -0.2323 -0.2174
  607MOL0     H81909  -1.422   2.908   0.881  1.6828  2.5245  0.8151
  607MOL0     H81910  -1.533   2.915   0.672 -0.4678  0.5224 -2.2010
  607MOL0     H81911  -1.579   2.838   0.436 -0.9689 -0.2390  0.0778
  607MOL0     H81912  -1.609   3.018   0.425  0.4978  0.4048 -0.2593
  607MOL0     H81913  -1.501   3.018   0.196 -1.1451  1.0000  1.1723
  607MOL0     H81914  -1.472   2.840   0.216 -0.7954 -0.8124 -2.0502
  607MOL0     H81915  -1.733   2.963   0.192 -0.2591  0.0850 -0.5458
  607MOL0     H81916  -1.704   2.799   0.258 -0.9135 -1.4574 -3.5539
  607MOL0     H81917  -1.626   2.894  -0.014  4.6532 -1.4644  0.0729
  607MOL0     H81918  -1.581   2.735   0.046  0.6212  1.7283 -2.2685
  607MOL0     H81919  -1.816   2.674   0.086 -0.9952  2.5671  2.9037
  607MOL0     H81920  -1.775   2.710  -0.091  1.8367  0.8601 -0.9662
  607MOL0     H81921  -1.928   2.879   0.110 -0.7989 -0.3738  0.7148
  607MOL0     H81922  -1.874   2.953  -0.033 -0.5354  1.7627  2.2720
  607MOL0     H81923  -2.014   2.795  -0.165 -0.4059 -0.0576 -0.4731
  607MOL0     H81924  -2.106   2.890  -0.047 -0.2324  0.7006 -0.4502
  607MOL0     H81925  -2.202   2.660  -0.014 -0.0688  0.1109  0.3073
  607MOL0     H81926  -2.091   2.698   0.116 -1.0643 -0.5074 -0.7933
  607MOL0     H81927  -1.173   3.043   0.475  1.0564 -3.7196 -0.1348
  607MOL0     H81928  -1.083   3.106   0.686  1.7215 -3.6724 -1.2276
  607MOL0     H81929  -1.055   2.804   1.012 -1.1521 -1.5075 -0.0075
  607MOL0     H81930  -0.992   2.623   1.171 -1.0972 -1.8607  2.2855
  607MOL0     H81931   0.090   3.710   2.529  2.8765  2.0635  0.7962
  607MOL0     H81932   0.314   3.743   2.554 -0.0073 -0.4266 -0.5144
  607MOL0     H81933   0.758   3.647   2.376  5.1348 -1.5006  0.7188
  607MOL0     H81934   0.976   3.672   2.374  0.7123  1.1763  0.2850
  607MOL0     H81935   1.154   3.757   2.551 -1.6424  1.8337  0.5415
  607MOL0     H81936   1.208   3.751   2.377 -3.1190  1.5981 -1.2595
  607MOL0     H81937   1.301   3.911   2.617  1.0477 -1.5317  0.4038
  607MOL0     H81938   1.330   3.979   2.457 -1.1641  0.7715  0.9373
  607MOL0     H81939   1.425   3.721   2.580 -2.2125  1.1816 -0.1722
  607MOL0     H81940   1.532   3.863   2.556  2.9423 -4.1125  0.2797
  607MOL0     H81941   1.430   3.685   2.336 -1.3224  0.2681  1.6867
  607MOL0     H81942   1.602   3.703   2.393  0.6175  2.3260 -0.4782
  607MOL0     H81943   1.497   4.006   2.117 -0.4285 -0.2443 -0.6064
  607MOL0     H81944   0.929   4.095   2.449  1.4702 -0.0131 -3.5781
  607MOL0     H81945   0.704   4.082   2.424 -3.1363 -2.3779  1.1288
  608MOL0     O81946   1.225   2.339   6.875 -0.0768 -0.0334 -1.2609
  608MOL0     C81947   1.264   2.385   6.770  0.3260 -0.5794 -0.6820
  608MOL0     O81948   1.198   2.369   6.655 -0.2015 -0.3604  0.1892
  608MOL0     C81949   1.080   2.297   6.644 -0.4168  0.1266  0.7932
  608MOL0     C81950   1.073   2.153   6.659 -0.1480 -0.5978 -1.0963
  608MOL0     C81951   0.957   2.082   6.644  0.2072  0.3622 -0.2500
  608MOL0     C81952   0.833   2.138   6.604 -0.4367 -0.7898  0.7466
  608MOL0     O81953   0.711   2.081   6.583  0.0240  0.0154  0.8405
  608MOL0     C81954   0.697   1.944   6.607 -0.4127  0.5506  0.5790
  608MOL0     C81955   0.658   1.913   6.747  0.0235  0.2290 -0.0947
  608MOL0     C81956   0.530   1.974   6.800 -0.6081 -0.1017  0.3672
  608MOL0     C81957   0.494   1.902   6.936 -0.0918 -0.1125  0.2692
  608MOL0     C81958   0.387   1.994   6.999  0.3827  0.4559 -0.0406
  608MOL0     C81959   0.272   1.937   7.070  0.5276  0.2646  0.6527
  608MOL0     C81960   0.301   1.845   7.187  0.2470  0.2648  0.6009
  608MOL0     C81961   0.374   1.922   7.296  0.2161  0.8290 -1.2978
  608MOL0     N81962   0.415   1.817   7.392 -0.8363  0.1842 -0.6634
  608MOL0     C81963   0.520   1.728   7.379 -0.2801 -0.0302  0.5752
  608MOL0     C81964   0.489   1.619   7.460  0.5034 -0.0817  0.4053
  608MOL0     C81965   0.546   1.477   7.489 -0.2272  0.4430  0.4233
  608MOL0     C81966   0.632   1.425   7.372 -0.2351  0.5417 -0.6293
  608MOL0     C81967   0.697   1.294   7.425 -0.0386  0.2446  0.4104
  608MOL0     C81968   0.793   1.244   7.314 -0.3540  0.9245 -0.7553
  608MOL0     O81969   0.720   1.201   7.197 -0.5186 -0.2662 -0.7111
  608MOL0     C81970   0.774   1.097   7.124 -0.4249 -0.0850  0.3818
  608MOL0     C81971   0.799   1.125   6.996 -0.7309 -0.7729  0.6435
  608MOL0     C81972   0.834   1.024   6.902  0.3750  0.1148 -0.8072
  608MOL0     C81973   0.856   1.057   6.753  0.0700  0.3144  1.0928
  608MOL0     C81974   0.873   0.896   6.951  1.0854 -0.3084  0.4586
  608MOL0     C81975   0.917   0.788   6.864  0.5910 -0.2237 -0.6720
  608MOL0     O81976   0.830   0.719   6.787  0.7848 -0.6202 -0.3875
  608MOL0     C81977   0.869   0.612   6.710 -0.2731 -0.0798 -1.2582
  608MOL0     C81978   0.976   0.521   6.737 -0.3897 -0.7016  0.1453
  608MOL0     C81979   0.982   0.398   6.672 -0.5306  0.6770  0.0372
  608MOL0     C81980   0.896   0.377   6.563 -0.1631  0.3075 -0.2276
  608MOL0     O81981   0.900   0.250   6.510  0.4440 -0.0206 -0.9746
  608MOL0     C81982   0.789   0.177   6.547  1.0141  0.1892 -0.2918
  608MOL0     C81983   0.751   0.092   6.418  1.0910  0.6011 -0.2844
  608MOL0     C81984   0.615   0.018   6.432 -0.7707  1.2469  0.5170
  608MOL0     C81985   0.611  -0.096   6.542  0.3292  0.0185  1.0388
  608MOL0     C81986   0.469  -0.137   6.573  0.0026  1.1983 -0.0646
  608MOL0     C81987   0.465  -0.202   6.716 -0.4277  0.2806  0.8393
  608MOL0     C81988   0.340  -0.294   6.738 -0.1009  0.7398 -0.2300
  608MOL0     C81989   0.313  -0.335   6.887 -0.7797 -0.8189  0.3759
  608MOL0    Cl81990   0.166  -0.451   6.869  0.8484  0.3253  0.1032
  608MOL0     C81991   0.804   0.479   6.518 -0.5566  0.1959  0.0649
  608MOL0     C81992   0.793   0.593   6.597  0.3701  0.8217 -0.9273
  608MOL0     O81993   1.037   0.784   6.858 -0.0415  0.3464  0.6550
  608MOL0     C81994   0.867   0.877   7.091  0.6106 -0.3717 -0.6700
  608MOL0     C81995   0.820   0.978   7.180 -0.0863 -0.3180 -0.1696
  608MOL0     N81996   0.368   1.645   7.523 -0.5491  0.8431  0.8987
  608MOL0     N81997   0.334   1.766   7.486 -1.1697 -0.4383 -0.3705
  608MOL0     C81998   0.843   2.281   6.579  0.1730  0.8151  0.6526
  608MOL0     C81999   0.965   2.353   6.597  0.1104 -1.0615 -0.7246
  608MOL0     C82000   1.389   2.471   6.768  0.3786 -0.3742  0.0395
  608MOL0     C82001   1.410   2.549   6.652  0.1650  0.1493  1.0060
  608MOL0     C82002   1.525   2.622   6.642  0.3502 -0.1216 -0.1037
  608MOL0     C82003   1.621   2.625   6.743  0.2402 -0.4515 -0.2291
  608MOL0     O82004   1.736   2.709   6.726 -0.0233  0.4027 -0.5177
  608MOL0     C82005   1.845   2.702   6.820 -0.4072 -0.1023  0.7350
  608MOL0     C82006   1.802   2.802   6.928 -0.3943  0.3165  0.6678
  608MOL0     C82007   1.756   2.942   6.884 -1.0982  0.1549  0.1939
  608MOL0     C82008   1.757   3.031   7.015  0.1873 -0.6179 -0.3489
  608MOL0     C82009   1.662   3.145   7.004  0.1772 -0.0943  0.9461
  608MOL0     C82010   1.602   3.247   6.974 -0.4652 -0.1469 -0.5361
  608MOL0     C82011   1.607   2.526   6.843 -0.3035  0.0579 -0.2508
  608MOL0     C82012   1.483   2.465   6.870  0.3403 -0.2856 -0.9202
  608MOL0     H82013   1.162   2.099   6.690  0.1184 -0.8025 -2.1608
  608MOL0     H82014   0.954   1.974   6.655 -2.2238  0.4863  1.0102
  608MOL0     H82015   0.610   1.914   6.548  0.0440  0.9202 -0.2968
  608MOL0     H82016   0.782   1.887   6.568 -1.9991 -0.9823 -0.8312
  608MOL0     H82017   0.633   1.807   6.745 -0.9179  0.4385  0.0304
  608MOL0     H82018   0.733   1.942   6.822 -2.0677  5.8935  0.3047
  608MOL0     H82019   0.552   2.080   6.813 -0.2925 -0.4291  3.1916
  608MOL0     H82020   0.449   1.961   6.728 -1.9612 -0.1735  1.8515
  608MOL0     H82021   0.442   1.808   6.913 -2.7695  0.8927  1.7205
  608MOL0     H82022   0.583   1.887   6.999  0.9267  4.0934  0.1488
  608MOL0     H82023   0.434   2.056   7.076 -0.0704 -2.0015  2.3939
  608MOL0     H82024   0.349   2.068   6.929 -4.7597 -0.2762  1.5898
  608MOL0     H82025   0.205   2.015   7.107 -2.9711 -1.6124 -1.1275
  608MOL0     H82026   0.210   1.868   7.011  0.9428  0.2113  0.2755
  608MOL0     H82027   0.210   1.796   7.222  0.1822 -1.1997 -1.4247
  608MOL0     H82028   0.362   1.763   7.148  1.1470  1.0897  0.2445
  608MOL0     H82029   0.302   1.990   7.344 -1.8918 -2.0225 -0.1443
  608MOL0     H82030   0.464   1.970   7.258  2.1688 -0.6826  1.1627
  608MOL0     H82031   0.598   1.742   7.304  0.2434 -1.0042  0.9174
  608MOL0     H82032   0.614   1.473   7.574 -0.1749 -2.7283  0.3734
  608MOL0     H82033   0.466   1.403   7.503 -1.9429  1.9683 -0.8621
  608MOL0     H82034   0.700   1.503   7.337 -0.7624  2.5287  2.3087
  608MOL0     H82035   0.566   1.406   7.287  0.3132  1.3650 -1.2543
  608MOL0     H82036   0.617   1.223   7.448  1.0336 -0.9700  0.5016
  608MOL0     H82037   0.757   1.327   7.511 -1.7653  0.3715  1.6130
  608MOL0     H82038   0.861   1.167   7.353 -1.2199  1.5122  2.2162
  608MOL0     H82039   0.873   1.313   7.289 -0.8682  1.4871 -0.8627
  608MOL0     H82040   0.776   1.226   6.964 -0.9765 -1.4774 -1.5244
  608MOL0     H82041   0.782   1.127   6.713 -1.4661 -0.7666  1.9553
  608MOL0     H82042   0.953   1.106   6.739  0.3895 -0.1229  1.6842
  608MOL0     H82043   0.849   0.971   6.685 -2.6216 -0.8537  2.7026
  608MOL0     H82044   1.049   0.532   6.817 -0.1508 -2.4654  0.2141
  608MOL0     H82045   1.055   0.328   6.712 -2.7990 -1.1029  1.3007
  608MOL0     H82046   0.819   0.109   6.627 -2.1944  0.2774  1.1284
  608MOL0     H82047   0.704   0.241   6.574  0.7721  0.3795 -1.4347
  608MOL0     H82048   0.729   0.161   6.336 -2.7616  0.1507  0.1777
  608MOL0     H82049   0.829   0.018   6.396 -2.1134 -3.3334  0.4037
  608MOL0     H82050   0.599  -0.028   6.334 -2.5181  3.3436 -0.2761
  608MOL0     H82051   0.542   0.096   6.456 -0.2321  0.6998  4.5414
  608MOL0     H82052   0.677  -0.179   6.516 -1.7619 -0.5925 -3.0935
  608MOL0     H82053   0.654  -0.056   6.634 -0.4332  1.6058  0.7403
  608MOL0     H82054   0.426  -0.206   6.500  1.5709  2.7093 -2.5598
  608MOL0     H82055   0.404  -0.049   6.575 -1.7016  0.0349 -1.6704
  608MOL0     H82056   0.556  -0.258   6.741  0.2574  1.5626  1.2581
  608MOL0     H82057   0.455  -0.119   6.785 -0.0821  1.1141 -0.0831
  608MOL0     H82058   0.360  -0.386   6.682  1.1667 -0.8208  2.5574
  608MOL0     H82059   0.257  -0.237   6.696 -1.3978 -0.7756  0.1619
  608MOL0     H82060   0.293  -0.245   6.947  0.8280 -0.0539 -0.1787
  608MOL0     H82061   0.395  -0.386   6.938  0.0887 -0.1528 -0.3233
  608MOL0     H82062   0.736   0.465   6.435  2.0126  2.9590 -2.8287
  608MOL0     H82063   0.709   0.658   6.574  0.1626  1.8988  2.4406
  608MOL0     H82064   0.912   0.788   7.135  1.2800 -0.0427 -0.6785
  608MOL0     H82065   0.816   0.966   7.288  0.2842  0.7043 -0.0366
  608MOL0     H82066   0.769   2.356   6.552  0.6174  2.1681  2.8900
  608MOL0     H82067   0.968   2.460   6.577  0.0221 -0.9224  0.0015
  608MOL0     H82068   1.345   2.555   6.566  0.9151 -0.6195  0.3561
  608MOL0     H82069   1.542   2.690   6.559 -0.1762  1.6957  1.2385
  608MOL0     H82070   1.871   2.602   6.855 -1.4182 -0.6261  0.0453
  608MOL0     H82071   1.942   2.731   6.779 -0.6556  0.9237  0.8535
  608MOL0     H82072   1.886   2.810   6.997  0.6123 -0.8178 -0.3833
  608MOL0     H82073   1.721   2.763   6.990  1.5867 -0.6414  2.7776
  608MOL0     H82074   1.650   2.944   6.855 -2.0639  1.3692  3.3029
  608MOL0     H82075   1.820   2.985   6.807 -0.7282 -2.1424 -0.8722
  608MOL0     H82076   1.855   3.073   7.039 -1.1599  1.7481  1.5308
  608MOL0     H82077   1.721   2.978   7.104 -0.9461 -1.3861 -1.2312
  608MOL0     H82078   1.571   3.341   6.932  1.6367  1.3413  1.0423
  608MOL0     H82079   1.688   2.522   6.915  0.5643  0.3303 -1.1854
  608MOL0     H82080   1.474   2.393   6.951  6.1177  0.7503  1.1120
  609MOL0     O82081   5.569   9.156   5.372 -0.2324 -0.0541  0.3306
  609MOL0     C82082   5.584   9.280   5.376  0.8533  0.6451  0.3406
  609MOL0     O82083   5.567   9.366   5.268  0.0463 -0.4211  0.0084
  609MOL0     C82084   5.581   9.332   5.134  1.4981  0.1543  0.0751
  609MOL0     C82085   5.557   9.440   5.052 -0.4567 -0.3750 -0.2151
  609MOL0     C82086   5.580   9.431   4.917 -0.5490  0.9799 -1.0561
  609MOL0     C82087   5.617   9.311   4.862  0.6582  0.0208 -0.3163
  609MOL0     O82088   5.650   9.288   4.726  0.4190  1.2220 -0.2358
  609MOL0     C82089   5.534   9.288   4.639 -1.0789  0.7535 -0.8884
  609MOL0     C82090   5.568   9.354   4.508  0.5947 -0.7390 -0.0400
  609MOL0     C82091   5.590   9.507   4.506 -0.0316  0.1283 -0.4387
  609MOL0     C82092   5.610   9.573   4.376 -0.8705  1.1545  0.8993
  609MOL0     C82093   5.484   9.564   4.285  0.5453  0.3929 -0.4910
  609MOL0     C82094   5.494   9.661   4.163 -1.1415 -0.8472 -0.0286
  609MOL0     C82095   5.363   9.681   4.087 -0.1775  0.3401 -0.6341
  609MOL0     C82096   5.358   9.796   3.981  0.8075 -0.1840  0.1002
  609MOL0     N82097   5.219   9.855   3.971 -0.2502  0.6697  0.5119
  609MOL0     C82098   5.136   9.906   4.067 -0.4257 -0.2550 -0.6221
  609MOL0     C82099   5.009   9.888   4.020  0.3071 -0.3982  0.8339
  609MOL0     C82100   4.880   9.912   4.088  0.1402  0.4906  0.6511
  609MOL0     C82101   4.812  10.049   4.056  0.1928  0.3150 -0.7932
  609MOL0     C82102   4.659  10.034   4.059 -0.1422  0.8281  0.8348
  609MOL0     C82103   4.596  10.003   4.188 -0.2271  0.1083  0.0898
  609MOL0     O82104   4.657  10.095   4.283 -0.1246  0.1257 -0.7408
  609MOL0     C82105   4.609  10.224   4.285 -0.8625 -0.2306 -0.3919
  609MOL0     C82106   4.519  10.266   4.381  0.5397  0.0643 -0.1324
  609MOL0     C82107   4.453  10.390   4.383 -0.0558  0.0832  0.3195
  609MOL0     C82108   4.338  10.410   4.481 -0.2179  0.0252 -0.4396
  609MOL0     C82109   4.493  10.480   4.283  0.2432  0.1738  0.5742
  609MOL0     C82110   4.432  10.614   4.271 -0.1371 -0.2658  0.3300
  609MOL0     O82111   4.522  10.711   4.261  0.8851  0.1333 -0.5546
  609MOL0     C82112   4.487  10.829   4.189  1.1103  0.3142 -0.3469
  609MOL0     C82113   4.516  10.851   4.060 -0.6405  0.3840  0.1108
  609MOL0     C82114   4.484  10.962   3.989  0.6714  0.2952 -0.2367
  609MOL0     C82115   4.417  11.066   4.055  0.0843 -0.0934 -0.5013
  609MOL0     O82116   4.412  11.186   3.985  0.2843  0.1214  0.3422
  609MOL0     C82117   4.280  11.240   3.965 -0.3324  0.0233  0.2220
  609MOL0     C82118   4.300  11.376   3.898 -0.0068 -0.5586  1.1042
  609MOL0     C82119   4.288  11.374   3.747 -0.3528  0.5443 -1.2530
  609MOL0     C82120   4.299  11.511   3.680 -0.3559  0.1161 -1.0230
  609MOL0     C82121   4.322  11.494   3.534 -0.1230  0.8980 -0.2585
  609MOL0     C82122   4.289  11.622   3.459 -1.1138 -0.2597 -0.1374
  609MOL0     C82123   4.137  11.638   3.438 -0.9270  0.6148  0.2423
  609MOL0     C82124   4.108  11.772   3.367  0.1561 -0.2946 -1.1367
  609MOL0    Cl82125   4.213  11.794   3.217  0.3074 -0.3421 -0.0827
  609MOL0     C82126   4.365  11.040   4.182  0.4701 -1.4012  0.4596
  609MOL0     C82127   4.412  10.925   4.254 -0.3470  0.3006  0.9188
  609MOL0     O82128   4.322  10.620   4.251  0.0421 -0.6531 -0.1346
  609MOL0     C82129   4.592  10.449   4.196  0.7044  0.3955 -0.4555
  609MOL0     C82130   4.647  10.321   4.195 -0.2172  0.3529  0.0649
  609MOL0     N82131   5.022   9.849   3.882  0.0770 -0.0055 -0.5056
  609MOL0     N82132   5.150   9.837   3.859  1.0725  0.3720  0.1163
  609MOL0     C82133   5.632   9.197   4.944 -0.8332  0.0185  0.1808
  609MOL0     C82134   5.603   9.209   5.078  0.2369  1.2660  0.7101
  609MOL0     C82135   5.640   9.334   5.499  1.5420 -0.1548 -0.4181
  609MOL0     C82136   5.686   9.471   5.515 -0.1474 -0.0953  0.3044
  609MOL0     C82137   5.734   9.518   5.636 -0.9704  0.1453 -0.2447
  609MOL0     C82138   5.738   9.433   5.746 -0.1586  0.1784  0.5680
  609MOL0     O82139   5.788   9.479   5.864  0.1227  0.7492 -0.4713
  609MOL0     C82140   5.699   9.465   5.980 -0.5263  0.9692 -0.1955
  609MOL0     C82141   5.594   9.562   5.973 -0.1226 -0.1205 -0.7835
  609MOL0     C82142   5.631   9.690   6.049  0.3643  0.4859 -0.2187
  609MOL0     C82143   5.532   9.800   6.007  0.1683 -0.3273  0.1940
  609MOL0     C82144   5.395   9.777   6.052 -0.1086  1.2478 -0.1592
  609MOL0     C82145   5.286   9.753   6.110 -0.9577  1.0347 -0.3689
  609MOL0     C82146   5.683   9.304   5.735  0.1748  0.3701  0.1130
  609MOL0     C82147   5.636   9.249   5.618 -0.0421 -0.0300 -0.0097
  609MOL0     H82148   5.536   9.539   5.090  0.3919 -0.3609  0.2439
  609MOL0     H82149   5.570   9.515   4.849 -0.9741 -0.1509 -2.4391
  609MOL0     H82150   5.513   9.181   4.624  2.8157 -0.2720 -0.0958
  609MOL0     H82151   5.450   9.338   4.686  0.8702  3.0056  0.4158
  609MOL0     H82152   5.663   9.307   4.481  0.0805 -2.8387  1.5452
  609MOL0     H82153   5.478   9.333   4.450 -2.2659  0.2109  3.6802
  609MOL0     H82154   5.496   9.535   4.554 -0.9086 -1.6507 -1.0331
  609MOL0     H82155   5.677   9.517   4.573 -2.0599 -0.2323  2.4276
  609MOL0     H82156   5.640   9.677   4.392 -0.1535  1.0131  0.5246
  609MOL0     H82157   5.696   9.524   4.328 -2.7102 -1.4770  0.0350
  609MOL0     H82158   5.474   9.462   4.246 -0.3969  0.0680  0.5862
  609MOL0     H82159   5.397   9.585   4.347  0.3770  3.6194 -1.6590
  609MOL0     H82160   5.522   9.759   4.205  3.2438 -1.2044 -1.6397
  609MOL0     H82161   5.581   9.627   4.106 -0.0060 -2.2115  2.3478
  609MOL0     H82162   5.342   9.588   4.032  0.5497 -0.4786  0.4366
  609MOL0     H82163   5.290   9.695   4.167 -0.8256 -0.9930 -0.9614
  609MOL0     H82164   5.388   9.765   3.881  0.2471 -3.0383  0.7357
  609MOL0     H82165   5.417   9.878   4.022  0.7159 -0.5165  0.9164
  609MOL0     H82166   5.168   9.940   4.165 -5.7561  3.0260  0.4015
  609MOL0     H82167   4.820   9.825   4.058  1.6105 -1.0222  1.9282
  609MOL0     H82168   4.895   9.897   4.195  1.7320 -2.4814  0.1133
  609MOL0     H82169   4.833  10.100   3.962 -3.4862 -0.4794 -2.2123
  609MOL0     H82170   4.853  10.124   4.125 -0.7905  3.0764 -2.9980
  609MOL0     H82171   4.631   9.949   3.996 -0.2007 -0.6400  2.7509
  609MOL0     H82172   4.614  10.130   4.030  1.5318  0.7753 -2.2263
  609MOL0     H82173   4.616   9.902   4.226 -1.1627  0.6237  2.0836
  609MOL0     H82174   4.488  10.017   4.173 -0.0872 -1.4926 -3.2100
  609MOL0     H82175   4.475  10.185   4.439  0.9439  0.2828  0.4807
  609MOL0     H82176   4.304  10.513   4.492  0.8210  0.4541 -1.0297
  609MOL0     H82177   4.251  10.357   4.442  0.3704 -1.6366  0.4204
  609MOL0     H82178   4.360  10.357   4.574  0.4739 -2.5458 -1.9529
  609MOL0     H82179   4.577  10.772   4.015  0.5834  0.6554  1.2395
  609MOL0     H82180   4.523  10.975   3.888 -4.9138  0.4424 -2.7302
  609MOL0     H82181   4.219  11.184   3.893  2.0391  0.6946 -2.4950
  609MOL0     H82182   4.228  11.254   4.060  1.0789  2.5199  0.7003
  609MOL0     H82183   4.224  11.447   3.929  0.0062  0.0083 -0.1095
  609MOL0     H82184   4.404  11.404   3.919  0.5638 -0.4292 -1.4941
  609MOL0     H82185   4.200  11.323   3.707  0.1747 -0.3635 -1.2823
  609MOL0     H82186   4.369  11.309   3.711 -0.8803  0.3680 -2.1437
  609MOL0     H82187   4.214  11.574   3.706  1.8019  2.1588  1.7005
  609MOL0     H82188   4.380  11.566   3.728 -2.8922 -0.1808  4.2845
  609MOL0     H82189   4.261  11.414   3.493  1.0837 -1.5437  2.3964
  609MOL0     H82190   4.425  11.459   3.523 -1.0101 -2.2791  0.7607
  609MOL0     H82191   4.332  11.709   3.511 -0.2266 -1.4468  1.1747
  609MOL0     H82192   4.335  11.618   3.359 -3.3390  1.2493 -1.2947
  609MOL0     H82193   4.091  11.619   3.535  1.6074 -1.8985  1.0992
  609MOL0     H82194   4.107  11.551   3.379  0.4988  0.0572  0.3094
  609MOL0     H82195   4.134  11.854   3.434 -0.6676  0.8759 -2.1879
  609MOL0     H82196   4.004  11.791   3.337 -0.3270  3.1989  1.9783
  609MOL0     H82197   4.297  11.110   4.231  0.5837 -2.5826  2.4377
  609MOL0     H82198   4.401  10.903   4.360  0.9824  0.7777  1.1758
  609MOL0     H82199   4.624  10.522   4.123 -0.6791 -1.1509 -2.7157
  609MOL0     H82200   4.724  10.291   4.124 -1.2241 -0.7180 -0.6040
  609MOL0     H82201   5.655   9.108   4.887 -0.7446  0.7025 -0.8916
  609MOL0     H82202   5.595   9.120   5.140 -0.5092 -1.2767 -2.7340
  609MOL0     H82203   5.678   9.530   5.424  1.6414 -1.6491 -0.9700
  609MOL0     H82204   5.769   9.618   5.660 -0.3175  0.2968 -1.7043
  609MOL0     H82205   5.651   9.366   5.978 -1.4946  1.4175  0.3247
  609MOL0     H82206   5.756   9.462   6.074  1.3069  4.4200 -1.0381
  609MOL0     H82207   5.500   9.528   6.016  0.5804  0.3879  1.3362
  609MOL0     H82208   5.566   9.593   5.872 -0.9856 -1.1717 -0.8733
  609MOL0     H82209   5.734   9.722   6.034 -0.0549  1.3534 -1.5193
  609MOL0     H82210   5.614   9.673   6.155 -0.4114  1.3723 -0.1855
  609MOL0     H82211   5.535   9.818   5.899  1.7022 -3.9346 -0.5098
  609MOL0     H82212   5.577   9.892   6.044  1.7149 -0.8214 -0.3633
  609MOL0     H82213   5.191   9.735   6.156  0.8359  1.2369  3.8976
  609MOL0     H82214   5.671   9.245   5.825  1.3422  0.9464  0.6624
  609MOL0     H82215   5.611   9.144   5.611  1.3580 -0.3784  0.0881
  610MOL0     O82216  10.210   3.104   2.817 -0.2384  1.1299  0.2912
  610MOL0     C82217  10.235   3.205   2.744 -0.8332 -0.0950  0.1693
  610MOL0     O82218  10.144   3.269   2.653  0.2035  0.0546  0.4734
  610MOL0     C82219  10.020   3.222   2.638 -0.1949 -0.3750 -0.6833
  610MOL0     C82220   9.919   3.259   2.729 -0.5532  0.3391 -0.1414
  610MOL0     C82221   9.790   3.217   2.705  0.0080  0.3539  0.0136
  610MOL0     C82222   9.757   3.156   2.588 -0.8328 -1.4718  0.0110
  610MOL0     O82223   9.629   3.126   2.562  0.1953  0.5142  0.2113
  610MOL0     C82224   9.576   3.019   2.649  0.6348  0.2866 -0.2985
  610MOL0     C82225   9.442   3.060   2.703  0.2020 -0.1988 -0.2093
  610MOL0     C82226   9.446   3.132   2.834 -1.0951  0.4132 -0.6190
  610MOL0     C82227   9.311   3.158   2.905 -0.3248 -0.2449 -0.7804
  610MOL0     C82228   9.343   3.243   3.033 -0.6573 -0.2692  0.5711
  610MOL0     C82229   9.220   3.227   3.126 -0.1887  0.4408  0.1439
  610MOL0     C82230   9.235   3.303   3.261  0.2371 -0.8874  0.0048
  610MOL0     C82231   9.186   3.446   3.265 -0.7773 -0.1323  0.7607
  610MOL0     N82232   9.050   3.478   3.310  0.3530 -0.5287 -0.4685
  610MOL0     C82233   9.015   3.522   3.442 -0.4312  0.7778  0.7589
  610MOL0     C82234   8.882   3.511   3.452 -0.5708 -0.1424  0.4055
  610MOL0     C82235   8.811   3.508   3.582  0.6158  0.7154 -0.5425
  610MOL0     C82236   8.701   3.401   3.573  0.3615  1.1054 -0.0606
  610MOL0     C82237   8.756   3.254   3.557  0.3313 -0.2043 -0.2390
  610MOL0     C82238   8.633   3.157   3.553  0.3749  0.0059  0.0237
  610MOL0     O82239   8.687   3.023   3.558  0.2356  0.7716 -0.2307
  610MOL0     C82240   8.597   2.923   3.517 -0.4815  0.0154 -1.3810
  610MOL0     C82241   8.662   2.810   3.451  0.3643  0.5933 -0.8111
  610MOL0     C82242   8.575   2.698   3.411 -0.1392  0.1725 -0.1721
  610MOL0     C82243   8.641   2.567   3.386 -0.2415  0.3096  0.5896
  610MOL0     C82244   8.435   2.710   3.410  0.0562 -0.5447  0.1069
  610MOL0     C82245   8.340   2.607   3.355 -0.7825  0.3359  0.4464
  610MOL0     O82246   8.206   2.646   3.334 -0.3592 -0.6986  0.3444
  610MOL0     C82247   8.102   2.566   3.283  0.6014 -0.0186 -0.4156
  610MOL0     C82248   7.977   2.634   3.274  0.3383  0.1722  0.1695
  610MOL0     C82249   7.858   2.570   3.244 -0.2810 -0.0773 -0.7673
  610MOL0     C82250   7.859   2.430   3.214 -0.2253 -0.0563  0.8935
  610MOL0     O82251   7.747   2.366   3.174 -0.1302  0.3023  0.0744
  610MOL0     C82252   7.635   2.432   3.118 -0.2182 -0.3946 -0.4838
  610MOL0     C82253   7.533   2.325   3.067  0.1409  0.5466 -0.7717
  610MOL0     C82254   7.404   2.396   3.016  0.8234 -0.8838  0.0070
  610MOL0     C82255   7.301   2.408   3.128 -0.1637 -0.4325  0.3960
  610MOL0     C82256   7.161   2.470   3.069 -0.8450 -0.6224 -0.9530
  610MOL0     C82257   7.057   2.477   3.177 -0.2505 -0.0172  0.1357
  610MOL0     C82258   6.956   2.586   3.149  0.4493 -0.2604  0.3305
  610MOL0     C82259   6.901   2.571   3.003  1.1347  0.2044 -0.0740
  610MOL0    Cl82260   6.733   2.649   2.978 -0.2352  0.6270  0.1190
  610MOL0     C82261   7.983   2.358   3.230 -0.0778  0.3005 -0.1331
  610MOL0     C82262   8.098   2.426   3.267  0.1613 -0.6466 -0.2930
  610MOL0     O82263   8.389   2.497   3.330  0.8604  0.1107  0.4036
  610MOL0     C82264   8.378   2.824   3.458 -0.1571 -0.0926  0.4771
  610MOL0     C82265   8.460   2.921   3.526 -0.2117 -0.6358 -0.1221
  610MOL0     N82266   8.829   3.476   3.325 -0.0144  0.7959 -0.7472
  610MOL0     N82267   8.931   3.456   3.245  0.1154 -0.7430  0.2316
  610MOL0     C82268   9.852   3.127   2.493  0.8107  0.3954 -0.8187
  610MOL0     C82269   9.983   3.163   2.521 -0.3193 -1.0457  0.0273
  610MOL0     C82270  10.373   3.253   2.750 -0.7799  0.5403  0.9897
  610MOL0     C82271  10.470   3.179   2.821 -0.4424 -0.8535 -1.1280
  610MOL0     C82272  10.605   3.231   2.809  1.1081  0.3668  0.1691
  610MOL0     C82273  10.639   3.347   2.732 -0.3173  0.7164 -0.0176
  610MOL0     O82274  10.766   3.401   2.724  0.2788 -0.3574  0.5270
  610MOL0     C82275  10.865   3.342   2.812 -0.8456  0.2959  0.2034
  610MOL0     C82276  10.924   3.217   2.743 -0.2798  0.2111  0.3872
  610MOL0     C82277  11.013   3.253   2.625 -0.6724 -0.3326  0.1695
  610MOL0     C82278  11.117   3.139   2.592  0.5458  0.7067 -0.0075
  610MOL0     C82279  11.050   3.004   2.576  0.0468  0.7273  0.6139
  610MOL0     C82280  10.982   2.906   2.554 -0.8351  0.3280 -0.0768
  610MOL0     C82281  10.533   3.408   2.666  0.4896 -0.8833 -0.3306
  610MOL0     C82282  10.401   3.366   2.672  0.3073  1.1507 -0.9105
  610MOL0     H82283   9.935   3.319   2.818  0.3042  1.6716 -1.1526
  610MOL0     H82284   9.704   3.243   2.766 -0.8953 -0.7518 -0.7355
  610MOL0     H82285   9.559   2.925   2.597 -0.1180  0.4294 -0.3258
  610MOL0     H82286   9.641   2.986   2.731  0.1450 -4.5382 -1.5662
  610MOL0     H82287   9.389   3.118   2.627  0.3254 -2.4565 -2.1429
  610MOL0     H82288   9.371   2.976   2.704  2.1525 -1.9464 -0.1445
  610MOL0     H82289   9.510   3.070   2.898 -0.3976 -1.6207 -3.0929
  610MOL0     H82290   9.497   3.227   2.814  1.0159 -0.4166  0.4555
  610MOL0     H82291   9.237   3.216   2.849 -0.9569  0.9836  1.2476
  610MOL0     H82292   9.273   3.057   2.925 -0.2704 -0.0143  0.5595
  610MOL0     H82293   9.425   3.189   3.081 -0.2649 -0.2416 -0.0559
  610MOL0     H82294   9.377   3.345   3.010 -1.4690  0.1489  1.1845
  610MOL0     H82295   9.133   3.262   3.070  0.0071  0.4886 -0.1322
  610MOL0     H82296   9.210   3.119   3.142  0.6634  0.2372 -0.6078
  610MOL0     H82297   9.202   3.236   3.341  0.8725 -3.1033 -1.4955
  610MOL0     H82298   9.343   3.315   3.275  1.0423 -4.2869 -2.0443
  610MOL0     H82299   9.187   3.472   3.158 -1.5585 -2.7009  0.0617
  610MOL0     H82300   9.266   3.503   3.313  0.9428 -0.5256 -1.4413
  610MOL0     H82301   9.077   3.550   3.527  0.5417  2.9269 -0.5550
  610MOL0     H82302   8.873   3.467   3.663 -1.9320 -2.0081  0.2157
  610MOL0     H82303   8.772   3.607   3.608 -1.3097 -0.2534  0.4799
  610MOL0     H82304   8.635   3.416   3.488 -0.6833 -0.7721  0.3653
  610MOL0     H82305   8.636   3.400   3.661  1.3002  0.7418  0.6508
  610MOL0     H82306   8.824   3.239   3.641 -1.4261 -0.8072  1.1500
  610MOL0     H82307   8.806   3.248   3.460  0.1684  1.6228 -0.4660
  610MOL0     H82308   8.586   3.161   3.454 -1.0388  0.0769  0.6736
  610MOL0     H82309   8.569   3.187   3.636  1.1537 -0.1420  0.6934
  610MOL0     H82310   8.770   2.803   3.446  0.1985 -2.1647 -2.6163
  610MOL0     H82311   8.613   2.533   3.286  0.3621  1.1480  0.1261
  610MOL0     H82312   8.750   2.571   3.392 -0.1936  0.9006 -0.4156
  610MOL0     H82313   8.601   2.487   3.449  0.0931  0.0489  0.4673
  610MOL0     H82314   7.956   2.736   3.304 -0.0509  0.4509 -1.0100
  610MOL0     H82315   7.767   2.629   3.235 -0.0225  0.3839 -0.3680
  610MOL0     H82316   7.597   2.512   3.182 -0.3090  1.8259 -3.1550
  610MOL0     H82317   7.675   2.482   3.030 -0.3804  0.5371 -0.0361
  610MOL0     H82318   7.584   2.272   2.986  0.4760 -0.8191  0.2957
  610MOL0     H82319   7.513   2.260   3.153  2.2302  0.0870 -0.5889
  610MOL0     H82320   7.353   2.333   2.942 -1.7412 -0.1772  1.0555
  610MOL0     H82321   7.417   2.494   2.969 -2.0607 -0.1927  0.4414
  610MOL0     H82322   7.292   2.313   3.182 -2.8730  0.1429  1.1302
  610MOL0     H82323   7.339   2.478   3.203 -3.5358  0.5047  1.4132
  610MOL0     H82324   7.122   2.406   2.989 -1.9229 -1.3824  0.1413
  610MOL0     H82325   7.204   2.561   3.027  5.6825 -3.0704 -0.8810
  610MOL0     H82326   7.007   2.381   3.191  0.9529 -0.7035 -0.1477
  610MOL0     H82327   7.099   2.511   3.272 -1.6947  0.2986  0.6798
  610MOL0     H82328   7.000   2.685   3.169  3.1119 -1.3933  0.4610
  610MOL0     H82329   6.871   2.594   3.217 -0.7490 -1.2416 -0.9926
  610MOL0     H82330   6.890   2.463   2.987 -2.0493  0.1304  1.7317
  610MOL0     H82331   6.970   2.607   2.926  0.0972 -2.0004 -2.1888
  610MOL0     H82332   7.999   2.252   3.217  2.3003  0.1891  2.7064
  610MOL0     H82333   8.192   2.379   3.292  0.5272  2.1597  5.2996
  610MOL0     H82334   8.272   2.838   3.476 -0.4267 -2.3023  0.8665
  610MOL0     H82335   8.417   3.009   3.573  1.0726 -0.5692  0.9758
  610MOL0     H82336   9.822   3.076   2.402 -1.2249 -1.0142  0.5372
  610MOL0     H82337  10.058   3.130   2.449 -2.9553 -0.0416 -3.4619
  610MOL0     H82338  10.448   3.101   2.893 -1.9008  0.1415 -0.4376
  610MOL0     H82339  10.679   3.172   2.862  1.9694  0.9776 -0.3209
  610MOL0     H82340  10.946   3.414   2.829  0.2460 -0.4374 -1.5457
  610MOL0     H82341  10.822   3.294   2.900 -1.9760 -3.5051 -2.1463
  610MOL0     H82342  10.848   3.153   2.698  1.9010 -1.2070 -1.5477
  610MOL0     H82343  10.975   3.159   2.820  1.0264 -1.1635 -1.4361
  610MOL0     H82344  11.055   3.348   2.659  0.5655 -0.5585 -0.6360
  610MOL0     H82345  10.951   3.268   2.536  0.6815  1.1993 -0.5623
  610MOL0     H82346  11.202   3.136   2.662  2.7795 -2.5233 -2.5624
  610MOL0     H82347  11.157   3.185   2.501 -1.5856  0.5167 -1.0889
  610MOL0     H82348  10.908   2.833   2.528 -1.4171  0.9083 -0.0948
  610MOL0     H82349  10.567   3.497   2.615 -2.1765  1.7148  2.0470
  610MOL0     H82350  10.326   3.428   2.624 -0.9735  2.3059  2.3304
  611MOL0     O82351   7.776   1.326   6.609 -0.5913 -0.3992  0.1745
  611MOL0     C82352   7.824   1.259   6.517 -0.0179 -0.7841 -0.0086
  611MOL0     O82353   7.757   1.207   6.408  0.1559  0.4983  0.2983
  611MOL0     C82354   7.623   1.225   6.414 -0.1378 -0.1933  0.2671
  611MOL0     C82355   7.556   1.284   6.304  0.1660 -0.0079 -0.4007
  611MOL0     C82356   7.421   1.274   6.290 -0.2266 -0.3980  0.4036
  611MOL0     C82357   7.340   1.199   6.378  0.0409  0.4311  0.9195
  611MOL0     O82358   7.212   1.161   6.351 -0.1779  0.3224  0.4725
  611MOL0     C82359   7.126   1.101   6.446  0.3790  0.7611 -0.5687
  611MOL0     C82360   7.000   1.062   6.370 -1.1396  0.4292  0.0965
  611MOL0     C82361   6.885   1.061   6.458  0.4424 -0.4787 -0.5915
  611MOL0     C82362   6.743   1.017   6.400 -0.0230  0.1303 -0.3653
  611MOL0     C82363   6.638   1.020   6.515 -0.5805 -0.2071 -0.5895
  611MOL0     C82364   6.515   0.928   6.494  0.1464 -0.6247  0.1294
  611MOL0     C82365   6.411   0.975   6.385  0.1050 -0.1550  0.0982
  611MOL0     C82366   6.319   1.090   6.439 -0.5631 -0.2903 -0.3121
  611MOL0     N82367   6.212   1.105   6.337  0.8625 -0.2682 -0.5620
  611MOL0     C82368   6.181   1.034   6.220 -0.5926 -0.2488 -0.1561
  611MOL0     C82369   6.064   1.087   6.172  0.0933  0.2506 -0.0275
  611MOL0     C82370   6.000   1.062   6.040  0.2092  0.7008  0.5041
  611MOL0     C82371   6.102   1.003   5.937  1.3714 -0.3388  0.2033
  611MOL0     C82372   6.058   1.038   5.794 -0.9147 -0.6916  0.4245
  611MOL0     C82373   5.917   1.005   5.762 -0.4058 -1.2307  1.0860
  611MOL0     O82374   5.906   0.860   5.760  0.7661 -0.1089 -0.1621
  611MOL0     C82375   5.790   0.807   5.711 -0.0847  0.0193 -0.2048
  611MOL0     C82376   5.695   0.858   5.633 -0.8550 -0.9345 -0.6530
  611MOL0     C82377   5.577   0.791   5.604  0.1213  0.4471 -0.2731
  611MOL0     C82378   5.482   0.880   5.537  0.5430 -0.1803  0.0098
  611MOL0     C82379   5.558   0.655   5.634 -0.0083  0.1543  0.2373
  611MOL0     C82380   5.436   0.575   5.597 -0.4050  0.5604  0.0625
  611MOL0     O82381   5.424   0.470   5.669  0.4133 -0.1716 -0.4495
  611MOL0     C82382   5.311   0.387   5.668  0.7967 -0.2187  0.1588
  611MOL0     C82383   5.335   0.273   5.741 -0.5232 -0.7076  0.3488
  611MOL0     C82384   5.240   0.171   5.759 -0.4371 -0.1118 -0.4451
  611MOL0     C82385   5.110   0.179   5.703 -0.5022 -0.2376  0.0369
  611MOL0     O82386   5.011   0.085   5.711 -0.1209  0.4238 -0.2667
  611MOL0     C82387   5.057  -0.051   5.727  0.8927  0.8805  0.1689
  611MOL0     C82388   5.107  -0.116   5.599 -0.6632 -0.1835  0.5853
  611MOL0     C82389   5.096  -0.273   5.599  0.4255  0.6963 -0.0799
  611MOL0     C82390   5.152  -0.348   5.724 -0.1677 -0.0157  0.2715
  611MOL0     C82391   5.304  -0.315   5.739  0.3815 -0.1078  0.2273
  611MOL0     C82392   5.391  -0.356   5.616 -0.4786 -0.4470  0.2932
  611MOL0     C82393   5.536  -0.335   5.653 -0.2440 -0.1519  0.1435
  611MOL0     C82394   5.632  -0.404   5.559  1.1522  0.6610  0.6291
  611MOL0    Cl82395   5.802  -0.382   5.612  0.2624  0.0900 -0.4304
  611MOL0     C82396   5.084   0.296   5.628  0.3182 -0.0753  0.0883
  611MOL0     C82397   5.185   0.390   5.604 -0.5576 -0.2971  0.8193
  611MOL0     O82398   5.368   0.604   5.503 -0.2664 -0.4268 -0.5545
  611MOL0     C82399   5.657   0.600   5.718 -0.8875 -1.7978 -0.0616
  611MOL0     C82400   5.770   0.671   5.754  1.6827 -0.3048  0.5195
  611MOL0     N82401   6.013   1.179   6.266  0.8537  0.0680 -0.2057
  611MOL0     N82402   6.099   1.179   6.360  0.1502  0.2951  0.1627
  611MOL0     C82403   7.405   1.167   6.502  0.2752 -0.6405 -0.2222
  611MOL0     C82404   7.544   1.176   6.516 -0.1221 -0.5990 -0.0647
  611MOL0     C82405   7.967   1.255   6.513 -0.3142  0.1291  0.5737
  611MOL0     C82406   8.056   1.329   6.592 -0.2455  0.0736 -0.3143
  611MOL0     C82407   8.191   1.320   6.562  0.7329 -0.4377 -0.3443
  611MOL0     C82408   8.247   1.239   6.456 -0.1044  0.2610  0.3464
  611MOL0     O82409   8.379   1.224   6.420  0.6506 -0.3420 -0.4296
  611MOL0     C82410   8.473   1.320   6.476 -0.0678 -0.4651 -0.1186
  611MOL0     C82411   8.612   1.257   6.475  0.3134  0.1488  0.0576
  611MOL0     C82412   8.614   1.135   6.561 -1.0245 -0.9966  1.4217
  611MOL0     C82413   8.690   1.020   6.490  0.7997  0.1130 -0.3398
  611MOL0     C82414   8.831   1.048   6.473 -0.5578  0.0367 -0.2917
  611MOL0     C82415   8.951   1.054   6.472  0.8348 -0.7044 -0.0591
  611MOL0     C82416   8.163   1.159   6.385  0.1695 -0.4689  0.1496
  611MOL0     C82417   8.026   1.170   6.413  0.6434 -0.1679  0.7218
  611MOL0     H82418   7.621   1.318   6.224  1.5459 -0.3665  0.5342
  611MOL0     H82419   7.381   1.303   6.193  1.9973 -3.5222 -1.6360
  611MOL0     H82420   7.185   1.015   6.479 -1.3955 -0.4613 -0.4097
  611MOL0     H82421   7.103   1.165   6.531  0.1143  0.0247 -0.0667
  611MOL0     H82422   6.982   1.123   6.281 -0.6616 -0.5137 -0.6810
  611MOL0     H82423   7.030   0.964   6.329  2.4780  1.4025  0.0464
  611MOL0     H82424   6.911   0.999   6.544  0.0359 -0.1025 -0.1860
  611MOL0     H82425   6.872   1.164   6.495  0.3553  0.0890 -2.1404
  611MOL0     H82426   6.698   1.054   6.308 -1.4963 -1.4158 -0.3177
  611MOL0     H82427   6.762   0.912   6.374  1.0015  1.0506 -3.7998
  611MOL0     H82428   6.684   0.998   6.612 -2.1293 -0.0203  0.2134
  611MOL0     H82429   6.608   1.125   6.527 -0.2463 -0.2975  1.3632
  611MOL0     H82430   6.561   0.832   6.467  1.1197 -0.1329 -0.0147
  611MOL0     H82431   6.454   0.907   6.583 -0.3389 -2.0932 -0.5245
  611MOL0     H82432   6.463   1.008   6.295 -1.5646 -1.0336 -1.2464
  611MOL0     H82433   6.344   0.893   6.358 -0.2245 -0.4462  1.6657
  611MOL0     H82434   6.382   1.179   6.451 -0.4503 -0.6298  2.3592
  611MOL0     H82435   6.283   1.057   6.537  3.2298  0.8062  1.6380
  611MOL0     H82436   6.245   0.963   6.169 -1.5690 -2.2565  1.3232
  611MOL0     H82437   5.911   1.001   6.057  0.4817  0.1798  0.0937
  611MOL0     H82438   5.945   1.150   6.007 -1.2016  0.4298  2.0146
  611MOL0     H82439   6.118   0.895   5.938 -2.4244 -1.0514  2.0508
  611MOL0     H82440   6.199   1.051   5.955  2.1153 -1.3989 -0.8250
  611MOL0     H82441   6.124   0.983   5.726 -1.9359  2.0491 -3.1302
  611MOL0     H82442   6.093   1.139   5.770  2.0928 -2.0913 -1.6762
  611MOL0     H82443   5.878   1.053   5.672 -0.0019  0.0492  1.5649
  611MOL0     H82444   5.858   1.025   5.851 -0.6888 -3.7545  1.5424
  611MOL0     H82445   5.706   0.954   5.584 -2.4978  0.1372  0.9329
  611MOL0     H82446   5.527   0.912   5.443  0.7234  1.2242  0.5434
  611MOL0     H82447   5.382   0.836   5.529 -0.3213  1.6828  0.0753
  611MOL0     H82448   5.462   0.970   5.596  1.3770 -0.7376  1.1929
  611MOL0     H82449   5.431   0.265   5.790  1.3936  0.3051 -2.9256
  611MOL0     H82450   5.264   0.078   5.809 -0.8292  0.6724  1.2621
  611MOL0     H82451   5.129  -0.064   5.809 -0.1066 -0.0358  0.9288
  611MOL0     H82452   4.973  -0.111   5.762  1.9726  0.3812  2.0773
  611MOL0     H82453   5.049  -0.072   5.516 -0.4891  2.7298  1.8913
  611MOL0     H82454   5.212  -0.091   5.581 -1.5067  2.3667 -1.4908
  611MOL0     H82455   5.138  -0.312   5.506 -2.6545  5.1487 -3.8219
  611MOL0     H82456   4.991  -0.303   5.596 -0.6583  3.8112  1.5596
  611MOL0     H82457   5.105  -0.316   5.817 -0.5625  1.9771 -0.5664
  611MOL0     H82458   5.134  -0.456   5.722  2.8960 -0.6027 -0.0945
  611MOL0     H82459   5.337  -0.372   5.827 -0.4788  0.1600  0.7459
  611MOL0     H82460   5.309  -0.207   5.750 -0.5010  0.5438 -4.1763
  611MOL0     H82461   5.369  -0.457   5.578 -0.9368 -0.6204  1.0082
  611MOL0     H82462   5.368  -0.291   5.531 -0.0470 -0.5693  0.0838
  611MOL0     H82463   5.552  -0.377   5.753 -0.1151  0.0693  0.2160
  611MOL0     H82464   5.571  -0.232   5.651 -0.7484  0.0231 -1.4047
  611MOL0     H82465   5.629  -0.345   5.467  3.4376 -0.1189 -0.0128
  611MOL0     H82466   5.601  -0.507   5.536  0.9758  0.8913 -0.2237
  611MOL0     H82467   4.994   0.299   5.568  0.4196 -1.1418 -0.1253
  611MOL0     H82468   5.163   0.478   5.545 -3.3772 -0.6293  1.2378
  611MOL0     H82469   5.656   0.499   5.758 -3.4478 -1.0985  1.9472
  611MOL0     H82470   5.848   0.627   5.815  1.3820  1.7151  2.4648
  611MOL0     H82471   7.344   1.122   6.580  1.4930 -2.2707 -0.1585
  611MOL0     H82472   7.579   1.131   6.609 -0.6490 -0.4011  0.2358
  611MOL0     H82473   8.026   1.391   6.675 -1.0967 -0.6914 -0.0413
  611MOL0     H82474   8.252   1.382   6.627 -0.2822  1.9667 -1.5366
  611MOL0     H82475   8.481   1.409   6.412  1.4576 -1.1215 -0.8952
  611MOL0     H82476   8.452   1.358   6.576  2.0229  3.1613 -0.8917
  611MOL0     H82477   8.668   1.345   6.510  1.7858 -0.3565 -0.9164
  611MOL0     H82478   8.622   1.233   6.369 -0.7044  3.5687 -0.9640
  611MOL0     H82479   8.518   1.086   6.579 -1.3750 -2.0526 -2.6100
  611MOL0     H82480   8.662   1.157   6.657 -1.7310 -1.1185  1.8135
  611MOL0     H82481   8.659   0.990   6.390  1.6226 -2.3286  0.0615
  611MOL0     H82482   8.675   0.933   6.554 -0.7366  1.2096  0.8785
  611MOL0     H82483   9.058   1.065   6.466  1.4955 -3.4810  3.3835
  611MOL0     H82484   8.195   1.090   6.307  0.7494 -0.2819  0.2252
  611MOL0     H82485   7.964   1.109   6.348  3.0045 -1.7422 -0.1623
  612MOL0     O82486   8.964   3.323   0.249  0.2353  0.4208  0.2606
  612MOL0     C82487   8.896   3.281   0.156  0.0293  0.0153  0.3763
  612MOL0     O82488   8.848   3.152   0.151 -0.2274 -0.5467 -1.1698
  612MOL0     C82489   8.927   3.056   0.211 -0.0782  0.2067  0.3614
  612MOL0     C82490   8.881   2.985   0.320  0.1750 -0.0560  0.7366
  612MOL0     C82491   8.945   2.861   0.352 -1.1945  0.5755  0.9743
  612MOL0     C82492   9.069   2.819   0.288 -0.0316 -0.3694  0.1510
  612MOL0     O82493   9.156   2.718   0.328  0.2721  0.9888 -0.4763
  612MOL0     C82494   9.091   2.590   0.344  0.3713  0.0003 -0.0234
  612MOL0     C82495   9.123   2.540   0.483 -0.3542 -0.3643 -0.1061
  612MOL0     C82496   9.084   2.390   0.499  0.3018  0.1437 -0.0529
  612MOL0     C82497   9.205   2.309   0.452  0.6054 -0.4763 -0.3052
  612MOL0     C82498   9.172   2.159   0.459  0.4141  0.7112 -0.2865
  612MOL0     C82499   9.132   2.113   0.607  0.1975  0.2053  0.0974
  612MOL0     C82500   9.122   1.957   0.605  0.7621 -0.0806  0.4251
  612MOL0     C82501   9.018   1.887   0.503  0.2404  0.1509 -0.3972
  612MOL0     N82502   8.878   1.931   0.516 -0.4167 -0.2233 -0.3509
  612MOL0     C82503   8.802   1.916   0.629  0.1935 -1.0653 -0.3288
  612MOL0     C82504   8.681   1.976   0.601  0.1817 -0.6667 -0.1142
  612MOL0     C82505   8.569   1.992   0.701 -0.1611 -0.4717  0.1752
  612MOL0     C82506   8.491   2.126   0.677 -0.3193 -0.4307 -0.2822
  612MOL0     C82507   8.373   2.149   0.772 -0.1009  1.0209 -0.4203
  612MOL0     C82508   8.292   2.275   0.753  1.1808 -0.4563  1.4618
  612MOL0     O82509   8.370   2.375   0.695 -0.1879 -0.1623  0.1898
  612MOL0     C82510   8.372   2.487   0.761 -0.6281  0.3247 -1.1008
  612MOL0     C82511   8.453   2.511   0.869 -0.1961  0.2115 -0.3103
  612MOL0     C82512   8.443   2.626   0.952  0.5021  0.5781  0.7661
  612MOL0     C82513   8.527   2.627   1.078  0.0675  0.4214 -0.2536
  612MOL0     C82514   8.348   2.727   0.915 -0.0476  0.3118 -0.3153
  612MOL0     C82515   8.322   2.853   0.982 -0.2563  0.2393  0.3560
  612MOL0     O82516   8.213   2.929   0.939 -0.2073 -0.1665  0.7364
  612MOL0     C82517   8.172   3.048   0.995 -0.3232 -0.6946  0.9874
  612MOL0     C82518   8.193   3.165   0.919 -0.2578 -0.3359 -0.3577
  612MOL0     C82519   8.105   3.278   0.942  0.9659  0.3370 -0.4116
  612MOL0     C82520   8.003   3.271   1.031  0.2106  0.1996  0.4746
  612MOL0     O82521   7.919   3.374   1.036  0.6050 -0.3557 -0.4365
  612MOL0     C82522   7.812   3.379   1.133 -0.4603  0.0926  0.2030
  612MOL0     C82523   7.854   3.435   1.274 -0.5629  1.0562 -0.0735
  612MOL0     C82524   7.910   3.572   1.269  0.3306 -0.8620 -0.8866
  612MOL0     C82525   7.806   3.679   1.217 -0.0305 -0.1623  0.0504
  612MOL0     C82526   7.689   3.683   1.316 -0.1028  0.1307 -0.0469
  612MOL0     C82527   7.586   3.779   1.264 -0.1338 -0.0964 -0.0703
  612MOL0     C82528   7.462   3.819   1.357 -0.5941  0.0409  0.2787
  612MOL0     C82529   7.420   3.966   1.327  0.4771  0.3852 -0.3919
  612MOL0    Cl82530   7.248   3.974   1.375 -0.2292  0.1437  0.0789
  612MOL0     C82531   7.987   3.152   1.104 -0.1806  0.2641 -0.3085
  612MOL0     C82532   8.080   3.050   1.100  0.4919 -0.7747  0.0719
  612MOL0     O82533   8.386   2.883   1.076  0.1760  0.3211 -0.2644
  612MOL0     C82534   8.275   2.707   0.797 -0.2406  0.9831 -0.0683
  612MOL0     C82535   8.285   2.586   0.727  0.5726 -0.5399 -0.2071
  612MOL0     N82536   8.685   2.020   0.471 -0.2772  0.4063  0.3871
  612MOL0     N82537   8.805   1.992   0.418  0.0023 -0.0765  0.1185
  612MOL0     C82538   9.113   2.908   0.194  0.5335 -0.3897  0.5235
  612MOL0     C82539   9.039   3.013   0.141  0.0919 -0.7116  0.1150
  612MOL0     C82540   8.834   3.389   0.060 -0.9896 -0.2552 -1.5314
  612MOL0     C82541   8.755   3.357  -0.051  0.4410  0.3699 -0.5148
  612MOL0     C82542   8.715   3.463  -0.134 -0.0033 -0.5247 -0.0728
  612MOL0     C82543   8.745   3.596  -0.113 -0.0489  1.5111 -0.1774
  612MOL0     O82544   8.691   3.704  -0.185  0.3419  0.1554 -0.5376
  612MOL0     C82545   8.546   3.704  -0.192  0.0128  0.5419  0.5333
  612MOL0     C82546   8.498   3.727  -0.330 -0.1479  0.5462  0.0651
  612MOL0     C82547   8.352   3.778  -0.320 -0.7783  0.1989 -0.4873
  612MOL0     C82548   8.281   3.818  -0.451 -0.1352 -0.2336 -0.0673
  612MOL0     C82549   8.148   3.849  -0.408  0.1040  0.4723  0.0144
  612MOL0     C82550   8.041   3.864  -0.354  0.1032 -0.3383  0.1307
  612MOL0     C82551   8.816   3.623  -0.007 -1.3048  0.2043 -0.4302
  612MOL0     C82552   8.867   3.523   0.082  0.4043 -1.1972 -0.1266
  612MOL0     H82553   8.788   3.007   0.371 -1.4546 -0.9170 -1.6359
  612MOL0     H82554   8.914   2.794   0.432  1.0314 -0.4168  1.0897
  612MOL0     H82555   8.985   2.604   0.320  0.8676  0.9819 -1.8753
  612MOL0     H82556   9.131   2.520   0.270 -0.7300  1.2924 -1.9380
  612MOL0     H82557   9.230   2.547   0.504  0.1577 -1.3601 -2.1240
  612MOL0     H82558   9.064   2.595   0.557 -1.2878 -2.2581  0.6134
  612MOL0     H82559   9.053   2.365   0.601  1.1806  0.8987  0.4137
  612MOL0     H82560   8.996   2.365   0.439  0.3633 -0.2415  0.0087
  612MOL0     H82561   9.231   2.330   0.348  2.1810 -3.9154 -0.7583
  612MOL0     H82562   9.294   2.340   0.508 -0.1738 -1.0329  1.2892
  612MOL0     H82563   9.092   2.130   0.391 -0.7103 -0.0037  1.2743
  612MOL0     H82564   9.260   2.095   0.443 -0.9135 -1.9256  2.0316
  612MOL0     H82565   9.210   2.153   0.673  0.0025  0.4647  0.1698
  612MOL0     H82566   9.038   2.153   0.646  0.9824  2.3534 -0.1048
  612MOL0     H82567   9.225   1.930   0.581  1.0385  0.9638  0.3814
  612MOL0     H82568   9.099   1.911   0.702  4.0543 -0.3159  1.1871
  612MOL0     H82569   9.031   1.778   0.508  0.9085  0.2332 -0.1595
  612MOL0     H82570   9.046   1.907   0.399  0.3407 -1.3733 -0.6896
  612MOL0     H82571   8.828   1.887   0.731  0.5675 -1.3636 -0.5025
  612MOL0     H82572   8.502   1.906   0.694  0.6138 -1.2575  1.7475
  612MOL0     H82573   8.614   2.000   0.801  1.3018 -0.3479 -0.4637
  612MOL0     H82574   8.452   2.141   0.576 -1.3018 -0.3193  0.0951
  612MOL0     H82575   8.561   2.208   0.696 -3.0224  1.6950  1.2640
  612MOL0     H82576   8.396   2.159   0.878 -3.5267  0.2092  0.5358
  612MOL0     H82577   8.302   2.067   0.758  1.6718 -1.1349  2.3204
  612MOL0     H82578   8.244   2.309   0.845  2.3438  2.5376  1.0773
  612MOL0     H82579   8.213   2.252   0.682  2.2960 -1.9563  0.6511
  612MOL0     H82580   8.530   2.436   0.885  0.6894  0.9915 -0.8149
  612MOL0     H82581   8.606   2.552   1.086  0.9039  1.0799 -2.0054
  612MOL0     H82582   8.581   2.722   1.076  0.1348  0.4087 -3.4495
  612MOL0     H82583   8.473   2.601   1.170  2.3387 -3.2803  0.2335
  612MOL0     H82584   8.272   3.167   0.844 -1.3695  3.6499 -1.7019
  612MOL0     H82585   8.101   3.364   0.876 -0.5549  0.3594 -0.3262
  612MOL0     H82586   7.735   3.444   1.089 -1.8230  0.1469  2.4774
  612MOL0     H82587   7.763   3.282   1.144 -0.4952  0.0022 -0.7465
  612MOL0     H82588   7.787   3.399   1.353 -0.8161  0.1288 -0.6937
  612MOL0     H82589   7.939   3.384   1.320 -2.0879 -0.2805  1.4073
  612MOL0     H82590   7.993   3.576   1.199 -1.9803 -0.1887 -3.7650
  612MOL0     H82591   7.947   3.601   1.368 -2.5026  2.6808 -0.6631
  612MOL0     H82592   7.854   3.771   1.184 -0.0160  0.0888  0.7376
  612MOL0     H82593   7.763   3.631   1.129  0.0073 -0.4337  0.1787
  612MOL0     H82594   7.730   3.712   1.414  2.1181  0.8818 -1.1355
  612MOL0     H82595   7.644   3.585   1.332  1.2743 -0.6619 -0.8631
  612MOL0     H82596   7.626   3.875   1.229 -3.6714  2.4168  2.0341
  612MOL0     H82597   7.545   3.735   1.173  1.1137 -1.2311 -0.1148
  612MOL0     H82598   7.489   3.816   1.463 -0.7160  0.1985  0.3141
  612MOL0     H82599   7.371   3.758   1.346 -0.9746  0.1316  2.4583
  612MOL0     H82600   7.429   3.981   1.219 -1.5891 -3.4546 -1.2835
  612MOL0     H82601   7.471   4.040   1.390 -3.1507  1.4454  1.6388
  612MOL0     H82602   7.908   3.142   1.178 -0.6266 -0.6345 -0.8876
  612MOL0     H82603   8.070   2.964   1.165  4.6315 -0.8275  0.9073
  612MOL0     H82604   8.199   2.778   0.765 -0.9117  0.6762  0.8284
  612MOL0     H82605   8.215   2.599   0.644  2.2133 -0.1649 -1.5892
  612MOL0     H82606   9.212   2.893   0.153  0.6036 -0.3679  0.6847
  612MOL0     H82607   9.075   3.063   0.051  0.9726  0.3298  1.0166
  612MOL0     H82608   8.717   3.259  -0.076 -3.5671  1.1033  1.8332
  612MOL0     H82609   8.653   3.430  -0.217  0.2227  0.6365 -0.7179
  612MOL0     H82610   8.492   3.613  -0.164  1.1455  0.2402  1.8333
  612MOL0     H82611   8.513   3.776  -0.117  1.2960  1.0489  0.6250
  612MOL0     H82612   8.516   3.641  -0.395  1.6654  0.7786  0.2146
  612MOL0     H82613   8.557   3.803  -0.382 -2.3889  2.2231 -0.1934
  612MOL0     H82614   8.348   3.860  -0.248 -1.2648 -2.1770  2.4042
  612MOL0     H82615   8.303   3.693  -0.271  1.3120 -0.3250  0.8127
  612MOL0     H82616   8.288   3.736  -0.524  0.3723  2.4687 -3.2682
  612MOL0     H82617   8.335   3.904  -0.491  2.6276 -3.3443 -3.8395
  612MOL0     H82618   7.959   3.897  -0.294  0.6223  1.5077 -0.1193
  612MOL0     H82619   8.823   3.729   0.013 -0.3144  0.0832 -0.0834
  612MOL0     H82620   8.928   3.553   0.168 -2.0715 -2.7242  2.3280
  613MOL0     O82621   2.908   2.431   9.558  0.2359  0.4490  0.2562
  613MOL0     C82622   3.024   2.461   9.585 -0.9697  0.7094 -0.1339
  613MOL0     O82623   3.064   2.586   9.628 -0.2824  0.5340  0.6761
  613MOL0     C82624   2.981   2.692   9.654  0.5926  1.2346  0.1173
  613MOL0     C82625   3.040   2.788   9.733 -0.1236 -0.1241 -1.0337
  613MOL0     C82626   2.964   2.892   9.795  0.1723 -0.2222 -0.9920
  613MOL0     C82627   2.819   2.907   9.774 -0.1438 -0.5141  0.9961
  613MOL0     O82628   2.733   3.002   9.821  0.5372  0.7615 -0.0051
  613MOL0     C82629   2.775   3.129   9.863  0.3347 -0.0420  0.0574
  613MOL0     C82630   2.663   3.228   9.829 -0.5758 -1.2379  0.5026
  613MOL0     C82631   2.590   3.194   9.693 -0.1325  0.6301  0.5041
  613MOL0     C82632   2.655   3.234   9.563 -0.1454  0.4702  1.4002
  613MOL0     C82633   2.583   3.184   9.445  0.6979 -0.3827  0.5195
  613MOL0     C82634   2.588   3.025   9.441  1.2610 -0.9504  0.1610
  613MOL0     C82635   2.556   2.965   9.308 -0.4272  0.6198 -0.0705
  613MOL0     C82636   2.413   2.993   9.259  0.6846 -0.1247  0.7869
  613MOL0     N82637   2.403   2.954   9.116  1.0113  0.8729 -0.0996
  613MOL0     C82638   2.411   3.032   9.002  1.0742  0.8419 -0.0477
  613MOL0     C82639   2.417   2.937   8.899 -0.1667 -0.5445 -0.7451
  613MOL0     C82640   2.390   2.976   8.758 -0.6166 -0.7862  0.0390
  613MOL0     C82641   2.512   3.047   8.704  0.4740  0.3247 -0.2534
  613MOL0     C82642   2.504   3.099   8.560  0.2224  0.1251 -0.9887
  613MOL0     C82643   2.644   3.162   8.533 -0.2851 -0.6268  0.0236
  613MOL0     O82644   2.639   3.255   8.425  0.4018  0.2193  0.6650
  613MOL0     C82645   2.627   3.204   8.297  0.0901 -0.0554  0.2359
  613MOL0     C82646   2.626   3.073   8.260  0.2806  0.7345 -0.3117
  613MOL0     C82647   2.654   3.032   8.131  0.2301 -0.6651 -0.2466
  613MOL0     C82648   2.683   2.886   8.117 -0.1587 -1.1647  0.1513
  613MOL0     C82649   2.685   3.124   8.029  0.3025  0.8583  0.2658
  613MOL0     C82650   2.735   3.097   7.892  0.2772  0.1129 -0.4315
  613MOL0     O82651   2.732   2.960   7.851 -0.0004  0.4493 -0.0898
  613MOL0     C82652   2.794   2.936   7.727 -0.5851 -0.4761 -0.6736
  613MOL0     C82653   2.900   2.853   7.731  0.8520 -0.6362 -0.4415
  613MOL0     C82654   2.980   2.832   7.617 -0.0726 -0.2302  0.2829
  613MOL0     C82655   2.941   2.890   7.491  0.3361  0.3940 -1.0332
  613MOL0     O82656   3.005   2.863   7.373 -0.3584  0.0044 -0.1520
  613MOL0     C82657   3.078   2.748   7.356 -0.2198  0.2822 -0.6314
  613MOL0     C82658   3.150   2.760   7.228  0.8404  0.7307  1.7096
  613MOL0     C82659   3.219   2.631   7.189  0.0419  0.0649 -0.6247
  613MOL0     C82660   3.340   2.640   7.107  0.2095 -0.4979  0.4965
  613MOL0     C82661   3.417   2.507   7.129  0.6462  0.4311  0.6290
  613MOL0     C82662   3.556   2.506   7.059  0.8041 -1.0041  0.5950
  613MOL0     C82663   3.662   2.471   7.164 -0.2117 -0.6591 -0.0122
  613MOL0     C82664   3.799   2.541   7.118  0.8069  0.0659 -0.4542
  613MOL0    Cl82665   3.819   2.717   7.171  0.2665  0.3821  0.4433
  613MOL0     C82666   2.835   2.976   7.493  0.4751  0.8662  0.0130
  613MOL0     C82667   2.750   2.995   7.606  0.0098  0.1109 -0.6181
  613MOL0     O82668   2.790   3.195   7.831 -0.0071  1.0655  0.1665
  613MOL0     C82669   2.672   3.259   8.073  0.0303  0.1009 -0.1192
  613MOL0     C82670   2.643   3.301   8.204  0.5676  0.0972  0.5034
  613MOL0     N82671   2.411   2.810   8.956 -0.0354  0.4675  0.8619
  613MOL0     N82672   2.387   2.823   9.078 -1.1260 -0.6949  0.1007
  613MOL0     C82673   2.769   2.807   9.680 -0.3870 -0.3569 -0.1950
  613MOL0     C82674   2.850   2.708   9.624 -0.0663 -0.4003 -0.1499
  613MOL0     C82675   3.132   2.362   9.570 -0.2833 -0.2270  0.5010
  613MOL0     C82676   3.135   2.281   9.456 -0.6596  0.2928 -0.3485
  613MOL0     C82677   3.240   2.191   9.426 -0.1114 -0.5243 -0.4024
  613MOL0     C82678   3.348   2.180   9.519  0.5471  0.0381  0.6744
  613MOL0     O82679   3.457   2.098   9.506  0.6612 -0.4081 -0.1932
  613MOL0     C82680   3.441   1.977   9.435 -0.9746  0.0774 -0.3153
  613MOL0     C82681   3.464   1.997   9.285 -0.5392  0.8660  0.9776
  613MOL0     C82682   3.620   1.994   9.261  1.4004 -0.4091 -0.2847
  613MOL0     C82683   3.658   2.078   9.141  0.3489  0.0398 -0.7955
  613MOL0     C82684   3.625   2.003   9.021  0.9618  0.0712  0.2935
  613MOL0     C82685   3.578   1.942   8.925  0.0428  0.1258 -0.4874
  613MOL0     C82686   3.351   2.276   9.618 -0.9230 -0.3807 -0.0277
  613MOL0     C82687   3.248   2.362   9.642  0.0468 -0.0475  0.2363
  613MOL0     H82688   3.145   2.766   9.748 -1.0631 -4.7728  0.1346
  613MOL0     H82689   3.010   2.962   9.864 -0.7327 -1.0469  0.5092
  613MOL0     H82690   2.790   3.147   9.970 -2.5934  1.8188  0.2541
  613MOL0     H82691   2.866   3.153   9.807  0.0837 -0.2755 -0.4564
  613MOL0     H82692   2.582   3.214   9.900 -0.4030 -2.1935  0.5140
  613MOL0     H82693   2.693   3.333   9.820 -3.6952 -0.3988 -5.3902
  613MOL0     H82694   2.572   3.086   9.692  1.0179  0.4078  1.3814
  613MOL0     H82695   2.493   3.245   9.694 -0.0401  0.8177  2.0366
  613MOL0     H82696   2.657   3.344   9.556 -3.2646  0.5024 -2.4329
  613MOL0     H82697   2.758   3.201   9.577 -0.3017 -1.3420 -1.1024
  613MOL0     H82698   2.479   3.215   9.454  0.4082 -1.1981  0.1129
  613MOL0     H82699   2.611   3.229   9.349  2.1118 -0.2426  0.9710
  613MOL0     H82700   2.691   2.999   9.466  0.4034 -2.9958  1.9097
  613MOL0     H82701   2.526   2.987   9.523  1.5604  0.4277  1.0685
  613MOL0     H82702   2.619   3.014   9.232  0.3055 -0.5728 -0.2660
  613MOL0     H82703   2.572   2.857   9.305  1.2100  0.8483 -1.8172
  613MOL0     H82704   2.389   3.100   9.263 -0.2783 -0.3432  1.1170
  613MOL0     H82705   2.342   2.936   9.319 -1.4994  1.5910 -0.0106
  613MOL0     H82706   2.379   3.134   8.981 -7.5269 -0.7844  1.4415
  613MOL0     H82707   2.372   2.886   8.699 -4.3803 -1.0597  1.3266
  613MOL0     H82708   2.300   3.039   8.758 -1.4237 -1.8162 -2.0138
  613MOL0     H82709   2.586   2.968   8.718  0.5802  0.7591  1.8510
  613MOL0     H82710   2.537   3.130   8.771 -1.4355  0.2581  0.6124
  613MOL0     H82711   2.426   3.175   8.563 -2.1674 -2.2184 -0.5523
  613MOL0     H82712   2.483   3.015   8.493 -0.9307  1.8030 -2.8461
  613MOL0     H82713   2.712   3.079   8.510 -1.4665 -1.0624 -2.1288
  613MOL0     H82714   2.675   3.216   8.623  0.5507  0.8915 -1.1376
  613MOL0     H82715   2.616   2.994   8.334  1.6604  1.7091  0.9787
  613MOL0     H82716   2.680   2.827   8.209 -2.6146  0.8157  1.4946
  613MOL0     H82717   2.613   2.857   8.039 -0.9769 -1.3634  0.9518
  613MOL0     H82718   2.786   2.869   8.083  0.8282 -1.7803  3.1015
  613MOL0     H82719   2.923   2.801   7.823  2.8095  2.5112  0.9901
  613MOL0     H82720   3.059   2.758   7.623 -1.6876 -2.0521  0.1831
  613MOL0     H82721   3.157   2.742   7.432 -2.0157 -1.7761  1.2364
  613MOL0     H82722   3.015   2.659   7.365  2.9405 -2.4560 -3.1581
  613MOL0     H82723   3.067   2.781   7.159  0.9653  1.2655  1.7165
  613MOL0     H82724   3.225   2.839   7.232  1.8842 -0.0068 -1.1090
  613MOL0     H82725   3.151   2.554   7.150 -0.5733  0.7148 -0.8663
  613MOL0     H82726   3.247   2.597   7.289 -1.9157  3.0825  1.1191
  613MOL0     H82727   3.324   2.642   6.998  2.6119  0.5642  0.1086
  613MOL0     H82728   3.398   2.731   7.122 -1.0882  0.8568 -2.0101
  613MOL0     H82729   3.351   2.424   7.103  0.5972 -0.1575  2.4751
  613MOL0     H82730   3.420   2.488   7.237 -2.0341 -1.7904  0.4406
  613MOL0     H82731   3.558   2.445   6.969  0.2410  0.7170 -0.6320
  613MOL0     H82732   3.571   2.609   7.024 -0.7402 -1.9917 -3.5604
  613MOL0     H82733   3.686   2.364   7.164  1.8815 -0.2776  2.3009
  613MOL0     H82734   3.645   2.489   7.270  1.2266  1.4654 -0.0804
  613MOL0     H82735   3.810   2.507   7.015 -1.0251 -0.8965 -0.3796
  613MOL0     H82736   3.880   2.490   7.172  4.1968  2.8935 -2.4251
  613MOL0     H82737   2.804   3.025   7.401  1.5775 -0.0841 -0.9017
  613MOL0     H82738   2.661   3.055   7.594 -0.1663  0.2928  1.2782
  613MOL0     H82739   2.679   3.342   8.004 -2.2738  0.1354 -0.4090
  613MOL0     H82740   2.654   3.402   8.239 -2.3773  1.4159 -1.8766
  613MOL0     H82741   2.663   2.812   9.657 -0.3118 -1.4922 -0.8610
  613MOL0     H82742   2.790   2.654   9.551 -2.9333  1.6019  0.5513
  613MOL0     H82743   3.053   2.274   9.385  0.2166  2.4882 -1.6626
  613MOL0     H82744   3.231   2.143   9.329  1.1216  2.0862 -1.9320
  613MOL0     H82745   3.508   1.899   9.469  0.5266  0.8826 -1.3226
  613MOL0     H82746   3.341   1.931   9.432 -2.7164  3.5403 -1.0160
  613MOL0     H82747   3.414   2.085   9.245  1.0760 -0.0024 -3.5228
  613MOL0     H82748   3.422   1.909   9.236  0.7386 -0.1269  1.5997
  613MOL0     H82749   3.646   1.889   9.241  0.2715 -1.4186  2.8574
  613MOL0     H82750   3.672   2.021   9.354  0.9437 -1.3416  0.2601
  613MOL0     H82751   3.764   2.092   9.164 -0.5638  1.8997  3.0358
  613MOL0     H82752   3.605   2.174   9.145 -0.3286 -0.3330  3.4321
  613MOL0     H82753   3.532   1.886   8.847 -1.5482  1.2516 -0.4112
  613MOL0     H82754   3.426   2.281   9.698 -0.7999 -1.1251 -0.0970
  613MOL0     H82755   3.252   2.440   9.718 -3.3076  1.0310 -0.5305
  614MOL0     O82756   0.715   8.311   2.434  0.5807  0.6351  0.3693
  614MOL0     C82757   0.736   8.378   2.531  0.0316  0.3688  0.2753
  614MOL0     O82758   0.683   8.505   2.550 -0.2938 -0.4088 -0.3901
  614MOL0     C82759   0.596   8.568   2.462  0.8042  0.6992  0.0881
  614MOL0     C82760   0.496   8.651   2.517  0.3909 -0.6595  0.0576
  614MOL0     C82761   0.403   8.712   2.437  0.8134 -0.8922  0.1299
  614MOL0     C82762   0.412   8.706   2.298  0.3109 -0.5182  0.8162
  614MOL0     O82763   0.329   8.776   2.215 -0.0887  0.3243  0.5194
  614MOL0     C82764   0.227   8.707   2.150 -0.2598  0.8007  0.3047
  614MOL0     C82765   0.123   8.630   2.242  1.3877 -1.0649  0.4074
  614MOL0     C82766   0.031   8.711   2.339  1.1601  0.4344  0.0391
  614MOL0     C82767  -0.089   8.622   2.384  0.4746 -0.8397  0.7671
  614MOL0     C82768  -0.187   8.707   2.467 -0.3866 -0.1665  0.0814
  614MOL0     C82769  -0.324   8.648   2.498 -0.5224 -0.0402 -0.5597
  614MOL0     C82770  -0.329   8.542   2.606  0.1217 -0.5328  0.6954
  614MOL0     C82771  -0.463   8.455   2.598 -1.0250 -0.0884  0.1590
  614MOL0     N82772  -0.577   8.541   2.567 -0.1493 -0.2448  0.1004
  614MOL0     C82773  -0.671   8.566   2.656 -0.8033  0.1483 -0.7437
  614MOL0     C82774  -0.768   8.625   2.582  0.5148  0.1055 -0.4175
  614MOL0     C82775  -0.901   8.675   2.643  0.0331 -0.1373  0.4157
  614MOL0     C82776  -1.016   8.623   2.570  0.8249  0.9426  0.1862
  614MOL0     C82777  -1.036   8.477   2.601 -0.0702  0.1253  0.2543
  614MOL0     C82778  -1.187   8.440   2.595 -0.1307 -0.4627 -0.1221
  614MOL0     O82779  -1.209   8.407   2.453 -0.1018 -0.0813  1.3122
  614MOL0     C82780  -1.334   8.382   2.400  0.7697  0.5752 -0.7314
  614MOL0     C82781  -1.443   8.371   2.486 -0.2334 -0.8458 -0.5598
  614MOL0     C82782  -1.566   8.353   2.429  0.0517 -0.8031 -0.0474
  614MOL0     C82783  -1.690   8.367   2.516  0.6778 -0.2982 -0.0017
  614MOL0     C82784  -1.590   8.318   2.293  0.2813 -0.8705 -0.7685
  614MOL0     C82785  -1.714   8.292   2.227  0.1559  0.0734 -1.2022
  614MOL0     O82786  -1.803   8.225   2.302  0.7485  0.7746  0.6164
  614MOL0     C82787  -1.931   8.230   2.279  1.0216  0.0792  0.8406
  614MOL0     C82788  -2.001   8.343   2.302  0.3347  0.5091 -0.1241
  614MOL0     C82789  -2.132   8.346   2.252 -0.1131  0.1962 -0.7509
  614MOL0     C82790  -2.197   8.235   2.189  0.6584  0.7239 -0.8226
  614MOL0     O82791  -2.324   8.244   2.127 -0.0708  0.1380 -0.7261
  614MOL0     C82792  -2.403   8.357   2.175 -0.2672 -0.0518 -0.4543
  614MOL0     C82793  -2.529   8.351   2.089  0.1174 -0.8406 -0.5696
  614MOL0     C82794  -2.502   8.373   1.936  0.6952 -0.3265  0.5272
  614MOL0     C82795  -2.622   8.339   1.848  0.3184  0.3286 -0.5730
  614MOL0     C82796  -2.627   8.184   1.801 -0.5866 -1.1373 -0.0721
  614MOL0     C82797  -2.777   8.159   1.767 -1.0610  0.2172  0.4762
  614MOL0     C82798  -2.790   8.031   1.682 -0.6682 -0.2993 -0.5766
  614MOL0     C82799  -2.931   7.992   1.655 -0.2446  0.1805 -0.1828
  614MOL0    Cl82800  -2.934   7.854   1.535  0.1152  0.1937 -0.4168
  614MOL0     C82801  -2.123   8.126   2.172  1.4566  0.0008  0.5453
  614MOL0     C82802  -1.997   8.114   2.217 -0.3166 -0.3923 -0.5047
  614MOL0     O82803  -1.735   8.336   2.114 -0.3421  0.1348  0.6930
  614MOL0     C82804  -1.479   8.334   2.214 -0.4905  0.4044  0.1117
  614MOL0     C82805  -1.347   8.363   2.262  0.5744  0.7557 -0.6036
  614MOL0     N82806  -0.741   8.625   2.448  0.3606  0.0001 -0.9596
  614MOL0     N82807  -0.623   8.566   2.435 -0.6014  0.1302 -0.1103
  614MOL0     C82808   0.514   8.636   2.237  0.0256  0.2157 -0.3779
  614MOL0     C82809   0.608   8.573   2.317 -0.2918  0.6319  0.1127
  614MOL0     C82810   0.847   8.333   2.624  0.5478  0.3754  0.4708
  614MOL0     C82811   0.928   8.217   2.599 -0.3043  0.1524 -0.0659
  614MOL0     C82812   1.035   8.180   2.679 -0.5175  0.1863 -1.0809
  614MOL0     C82813   1.067   8.249   2.792 -0.3520 -1.0120  0.9208
  614MOL0     O82814   1.166   8.196   2.869  0.3506 -0.8249  0.1723
  614MOL0     C82815   1.184   8.252   3.000 -0.0862  0.7430 -0.1268
  614MOL0     C82816   1.306   8.176   3.056  1.0052 -0.2179 -0.9156
  614MOL0     C82817   1.429   8.250   2.994 -0.6268 -0.0063  1.1921
  614MOL0     C82818   1.551   8.182   3.050  0.4746 -0.0909  0.1957
  614MOL0     C82819   1.670   8.231   2.992 -1.1730  0.3380 -0.6436
  614MOL0     C82820   1.772   8.272   2.948  0.1442  0.5864  0.1978
  614MOL0     C82821   0.986   8.363   2.819 -0.1679  0.0894 -0.6107
  614MOL0     C82822   0.874   8.398   2.751  0.3048  0.1627  0.0916
  614MOL0     H82823   0.484   8.661   2.625  2.0826 -5.6796  0.9937
  614MOL0     H82824   0.331   8.784   2.473  1.7222  0.5466 -0.8420
  614MOL0     H82825   0.177   8.782   2.088  0.4270 -0.6266 -2.0913
  614MOL0     H82826   0.269   8.634   2.080 -2.7349  0.3422 -0.7947
  614MOL0     H82827   0.057   8.573   2.177 -0.4909 -1.0210  2.1870
  614MOL0     H82828   0.182   8.557   2.298  2.8877 -1.8718 -2.0567
  614MOL0     H82829   0.079   8.741   2.432 -1.2726  3.0812  0.5733
  614MOL0     H82830  -0.003   8.804   2.291  0.0054  0.1211  0.2438
  614MOL0     H82831  -0.144   8.590   2.295 -0.7218  3.7815 -0.4493
  614MOL0     H82832  -0.040   8.539   2.436  4.8781  0.7753 -0.2919
  614MOL0     H82833  -0.133   8.743   2.555 -1.5139  0.5432  0.5051
  614MOL0     H82834  -0.194   8.796   2.405  0.9534 -1.5409 -2.1588
  614MOL0     H82835  -0.378   8.737   2.532 -0.4666 -0.9993  2.2943
  614MOL0     H82836  -0.355   8.614   2.399  2.1375 -1.3643 -1.0173
  614MOL0     H82837  -0.235   8.487   2.607  1.1899  1.2074 -0.2809
  614MOL0     H82838  -0.332   8.591   2.704  1.7437 -0.2774  0.6399
  614MOL0     H82839  -0.467   8.403   2.694  0.9232  0.8346  0.8068
  614MOL0     H82840  -0.443   8.390   2.512  0.4954 -0.0107  0.4232
  614MOL0     H82841  -0.689   8.543   2.761  0.9518  2.5432  0.1806
  614MOL0     H82842  -0.913   8.647   2.748  1.3447 -0.8088  0.4137
  614MOL0     H82843  -0.896   8.784   2.640 -0.9068 -0.0966 -2.9169
  614MOL0     H82844  -0.996   8.626   2.462  1.0914  2.5201  0.2569
  614MOL0     H82845  -1.098   8.693   2.584  1.4606  1.3875  1.9347
  614MOL0     H82846  -1.002   8.469   2.704  2.6860  0.2067 -0.5883
  614MOL0     H82847  -0.977   8.407   2.541 -0.6521  0.8054 -1.1587
  614MOL0     H82848  -1.229   8.533   2.636  2.1690  0.3259  0.6080
  614MOL0     H82849  -1.224   8.352   2.648 -0.2339 -0.2143  0.2256
  614MOL0     H82850  -1.433   8.390   2.592  1.7715  0.2247 -0.8931
  614MOL0     H82851  -1.738   8.269   2.523  1.3782 -0.6207  0.4769
  614MOL0     H82852  -1.650   8.394   2.614  0.3657 -4.2372  1.3898
  614MOL0     H82853  -1.762   8.445   2.491  1.4552  0.3027 -0.3806
  614MOL0     H82854  -1.951   8.436   2.329 -1.0981  1.0266  0.8854
  614MOL0     H82855  -2.177   8.444   2.269 -1.3434 -0.9857  5.2664
  614MOL0     H82856  -2.426   8.356   2.281 -1.9525  1.9237 -0.7331
  614MOL0     H82857  -2.355   8.452   2.152  0.0260 -0.0860  0.0205
  614MOL0     H82858  -2.569   8.249   2.094  1.6486 -1.4000  1.0453
  614MOL0     H82859  -2.596   8.428   2.128 -0.3880 -1.4624 -0.2091
  614MOL0     H82860  -2.427   8.304   1.897  0.0860 -1.1995  0.8715
  614MOL0     H82861  -2.463   8.471   1.908  1.9324 -0.4634  1.6659
  614MOL0     H82862  -2.713   8.367   1.900 -0.6539  1.1730 -2.6163
  614MOL0     H82863  -2.608   8.394   1.754 -0.0611 -0.0519 -0.8565
  614MOL0     H82864  -2.601   8.108   1.875  2.3020 -3.2911 -3.0087
  614MOL0     H82865  -2.563   8.173   1.713 -0.8991 -1.2511 -0.2875
  614MOL0     H82866  -2.839   8.161   1.857 -3.0966 -1.0598 -0.8267
  614MOL0     H82867  -2.818   8.241   1.708 -1.0312  0.4807  0.8170
  614MOL0     H82868  -2.752   7.953   1.750  0.0814 -0.2366 -0.9108
  614MOL0     H82869  -2.722   8.025   1.596  1.3935  1.0991  0.8526
  614MOL0     H82870  -2.989   8.078   1.621  1.6769  2.2776  1.5304
  614MOL0     H82871  -2.972   7.956   1.750 -1.0567  2.2212  0.2878
  614MOL0     H82872  -2.171   8.056   2.104  3.5530  2.1794 -3.4637
  614MOL0     H82873  -1.946   8.030   2.171 -3.0454 -0.7736 -3.1476
  614MOL0     H82874  -1.489   8.320   2.107 -0.9969 -0.9946  0.3218
  614MOL0     H82875  -1.265   8.377   2.193 -0.3659  2.4000 -1.4432
  614MOL0     H82876   0.538   8.649   2.132  1.6552 -0.5548 -0.1308
  614MOL0     H82877   0.693   8.518   2.279 -0.6059 -1.4615  2.2104
  614MOL0     H82878   0.917   8.156   2.510  1.7745 -3.5359  1.9468
  614MOL0     H82879   1.084   8.085   2.664 -0.1824  0.3369 -0.9363
  614MOL0     H82880   1.208   8.358   2.998  3.0660  0.1172 -0.1118
  614MOL0     H82881   1.099   8.224   3.064  0.7007 -2.3793 -0.2930
  614MOL0     H82882   1.310   8.073   3.019 -2.0619 -1.5081  1.8348
  614MOL0     H82883   1.312   8.171   3.165  4.0705 -1.6491 -1.0694
  614MOL0     H82884   1.425   8.359   3.003  2.6351  0.5273 -1.6891
  614MOL0     H82885   1.430   8.228   2.886  3.4123  1.0595  0.8460
  614MOL0     H82886   1.530   8.077   3.029  1.8366 -0.0596 -1.5026
  614MOL0     H82887   1.555   8.200   3.158  1.8094 -2.5741  0.6095
  614MOL0     H82888   1.868   8.306   2.915  0.2704 -1.6539 -2.0252
  614MOL0     H82889   1.004   8.442   2.892  0.0947  0.4393 -1.0499
  614MOL0     H82890   0.815   8.484   2.782 -1.6323 -1.1158  0.1541
  615MOL0     O82891   7.881   4.912   9.876 -0.7113 -0.0109 -0.4409
  615MOL0     C82892   7.840   4.821   9.806 -0.3967  0.0977 -0.3444
  615MOL0     O82893   7.921   4.713   9.780 -0.3463 -0.1805 -0.0824
  615MOL0     C82894   8.035   4.699   9.849  0.3850  0.7300 -0.3388
  615MOL0     C82895   8.043   4.581   9.923  0.3333 -0.0367 -0.4316
  615MOL0     C82896   8.165   4.551   9.985 -0.4194 -0.6889 -0.5510
  615MOL0     C82897   8.274   4.641   9.976  0.8737  0.8372 -0.4394
  615MOL0     O82898   8.392   4.613  10.046 -0.2414 -0.3819  0.1951
  615MOL0     C82899   8.412   4.501  10.126 -0.4120  0.9782  0.2322
  615MOL0     C82900   8.553   4.489  10.164 -0.5212  0.6875 -1.0336
  615MOL0     C82901   8.631   4.440  10.036 -0.7939  0.2935  0.5481
  615MOL0     C82902   8.775   4.407  10.089  0.4397  0.4728 -0.9981
  615MOL0     C82903   8.855   4.361   9.967 -0.4425 -0.1990 -0.1641
  615MOL0     C82904   8.996   4.392  10.014  0.2564  0.0959  0.2596
  615MOL0     C82905   9.102   4.331   9.918 -0.2442 -0.2994  0.5274
  615MOL0     C82906   9.247   4.363   9.964  0.3334 -0.3466  0.0593
  615MOL0     N82907   9.277   4.500  10.013  1.0579  0.6222  0.2717
  615MOL0     C82908   9.263   4.610   9.936  0.6440  0.3303 -0.6577
  615MOL0     C82909   9.308   4.714  10.021  1.2204  0.3449 -0.1856
  615MOL0     C82910   9.338   4.852   9.975  0.2973  0.4700 -0.3132
  615MOL0     C82911   9.458   4.854   9.875  0.3528  0.0207  0.3986
  615MOL0     C82912   9.595   4.794   9.914  0.8350  0.3633 -0.3093
  615MOL0     C82913   9.709   4.798   9.807  0.7185 -0.1863  0.7232
  615MOL0     O82914   9.820   4.739   9.873 -0.8572  0.9188 -0.1609
  615MOL0     C82915   9.938   4.783   9.819  0.3861 -0.5468  0.1617
  615MOL0     C82916  10.030   4.836   9.903  0.4072 -0.3805  0.5843
  615MOL0     C82917  10.153   4.898   9.866  0.0734  0.2842  0.5888
  615MOL0     C82918  10.234   4.953   9.980  0.6508  0.1461  0.8330
  615MOL0     C82919  10.185   4.899   9.729  0.7133 -1.4085 -0.6391
  615MOL0     C82920  10.300   4.973   9.676  0.0054 -0.3493  1.2345
  615MOL0     O82921  10.411   5.023   9.750 -0.3319  0.1167  0.2941
  615MOL0     C82922  10.535   5.073   9.692  0.1706 -0.5999  0.3786
  615MOL0     C82923  10.589   5.039   9.570  0.7735 -0.2671 -0.2452
  615MOL0     C82924  10.716   5.085   9.534  0.4323  0.1548  0.1735
  615MOL0     C82925  10.778   5.184   9.606 -0.6970 -0.4253  0.3145
  615MOL0     O82926  10.903   5.244   9.576 -0.1095  0.4140  0.3002
  615MOL0     C82927  10.986   5.198   9.469 -1.0728  0.1901 -0.8990
  615MOL0     C82928  11.048   5.317   9.391 -0.3764 -0.0764 -0.4019
  615MOL0     C82929  11.154   5.399   9.473  0.8600 -0.4791  0.0925
  615MOL0     C82930  11.278   5.323   9.511  0.4350 -0.0478 -0.6453
  615MOL0     C82931  11.375   5.405   9.597 -0.6366  0.5466  0.7980
  615MOL0     C82932  11.521   5.371   9.568  1.0989 -0.1216 -0.3424
  615MOL0     C82933  11.629   5.449   9.650  0.4932  0.1195  0.1171
  615MOL0     C82934  11.767   5.400   9.601 -0.0702  0.4690  0.5006
  615MOL0    Cl82935  11.801   5.218   9.628 -0.1788 -0.7071 -0.4868
  615MOL0     C82936  10.709   5.230   9.716  0.0640 -0.2903 -0.1549
  615MOL0     C82937  10.602   5.165   9.766 -0.0754  0.2968 -0.1892
  615MOL0     O82938  10.298   4.969   9.550 -0.7870  0.1542  0.0389
  615MOL0     C82939  10.098   4.831   9.638  0.1282 -0.0179 -0.5359
  615MOL0     C82940   9.971   4.774   9.682  0.0138  0.3957  0.4221
  615MOL0     N82941   9.331   4.649  10.146  0.0221 -0.4451  0.5058
  615MOL0     N82942   9.314   4.529  10.135 -0.0256 -0.0978 -0.9958
  615MOL0     C82943   8.265   4.760   9.907  0.2877  0.9215 -0.6476
  615MOL0     C82944   8.156   4.780   9.829  0.6490  0.4458 -0.5301
  615MOL0     C82945   7.711   4.835   9.743 -0.3922 -0.0366 -0.0337
  615MOL0     C82946   7.638   4.723   9.708  0.4195 -0.2759  0.1079
  615MOL0     C82947   7.511   4.739   9.647  0.4525  0.1683 -0.4430
  615MOL0     C82948   7.464   4.863   9.612  0.6015 -0.3324 -0.6136
  615MOL0     O82949   7.335   4.862   9.562  0.5139 -0.0431  0.2170
  615MOL0     C82950   7.284   4.983   9.508  0.2967 -0.6432 -0.3686
  615MOL0     C82951   7.352   5.021   9.373  0.1701  0.1270 -0.2259
  615MOL0     C82952   7.328   5.170   9.323  0.4124  0.4109 -0.2551
  615MOL0     C82953   7.344   5.189   9.176  0.9181  0.4840  0.0192
  615MOL0     C82954   7.480   5.194   9.130 -0.2660 -0.4670  0.2150
  615MOL0     C82955   7.596   5.191   9.080 -0.7456 -0.0651  0.1399
  615MOL0     C82956   7.539   4.978   9.645  0.4139  1.0667 -0.2595
  615MOL0     C82957   7.654   4.963   9.723  0.0771 -0.3706  0.4742
  615MOL0     H82958   7.951   4.526   9.943 -0.5647  1.3761 -0.5339
  615MOL0     H82959   8.158   4.480  10.067  1.6780 -0.3095  0.0160
  615MOL0     H82960   8.358   4.513  10.221  0.1747  4.3146  0.2857
  615MOL0     H82961   8.368   4.410  10.085  1.5932 -0.6869  1.5785
  615MOL0     H82962   8.601   4.584  10.191  1.7304 -0.6581 -0.0400
  615MOL0     H82963   8.574   4.411  10.238  2.6034  3.0707  0.8672
  615MOL0     H82964   8.597   4.345   9.993  0.4735 -0.4986  1.2525
  615MOL0     H82965   8.640   4.513   9.955  1.4574 -1.1978 -0.6793
  615MOL0     H82966   8.816   4.496  10.137 -0.1874 -0.8242  2.1654
  615MOL0     H82967   8.765   4.325  10.161  1.2845 -0.1536 -1.5721
  615MOL0     H82968   8.853   4.256   9.937  2.6547  0.4578 -3.2733
  615MOL0     H82969   8.823   4.422   9.882  0.7701  0.6651 -0.0282
  615MOL0     H82970   9.008   4.500  10.027 -3.4784  0.4725  1.9304
  615MOL0     H82971   9.018   4.344  10.110 -0.0283  1.9774  1.3145
  615MOL0     H82972   9.091   4.222   9.920  2.4395 -0.6223  2.2334
  615MOL0     H82973   9.088   4.382   9.822  4.1477 -1.9057 -1.2218
  615MOL0     H82974   9.320   4.353   9.883  0.8730 -1.5638  0.6589
  615MOL0     H82975   9.269   4.287  10.040  0.1323  0.1794  0.6521
  615MOL0     H82976   9.235   4.620   9.832 -1.2087 -0.2540 -0.2431
  615MOL0     H82977   9.244   4.883   9.929 -0.7197 -1.8616  0.0780
  615MOL0     H82978   9.369   4.911  10.062  0.1946 -0.9271  0.7031
  615MOL0     H82979   9.473   4.957   9.841 -2.0725 -0.8668 -4.2419
  615MOL0     H82980   9.431   4.807   9.780  0.8809  1.7698 -0.6649
  615MOL0     H82981   9.573   4.688   9.931 -1.1693  0.2704 -2.8496
  615MOL0     H82982   9.629   4.833  10.010  0.9817 -1.2803  0.3421
  615MOL0     H82983   9.731   4.899   9.771  0.6509 -1.1190 -2.1213
  615MOL0     H82984   9.688   4.734   9.722  0.6016 -0.3114  0.8463
  615MOL0     H82985   9.989   4.849  10.003 -0.8049 -0.2493  0.0947
  615MOL0     H82986  10.328   4.896   9.986  0.7041  0.1630  0.1861
  615MOL0     H82987  10.251   5.060   9.968 -0.8008  0.3858  0.7214
  615MOL0     H82988  10.185   4.945  10.078 -1.5430  0.0489 -0.2118
  615MOL0     H82989  10.522   4.975   9.514 -2.4868  0.4367  2.5146
  615MOL0     H82990  10.760   5.058   9.438 -2.3839  3.3751 -2.2870
  615MOL0     H82991  11.073   5.140   9.501 -2.7457 -1.8474  0.1490
  615MOL0     H82992  10.935   5.128   9.402  0.9111  0.1297 -2.4532
  615MOL0     H82993  11.089   5.280   9.296  0.5547  0.6776 -0.3038
  615MOL0     H82994  10.967   5.383   9.358  0.4267  1.4754  0.6055
  615MOL0     H82995  11.105   5.422   9.568 -0.6577 -4.5581  0.5044
  615MOL0     H82996  11.187   5.493   9.428 -0.5943  1.0559  2.0527
  615MOL0     H82997  11.248   5.240   9.576 -0.5599  0.2930 -0.6526
  615MOL0     H82998  11.323   5.270   9.427 -2.5126 -1.1656 -1.6649
  615MOL0     H82999  11.349   5.382   9.701  0.3520 -1.1548  0.7161
  615MOL0     H83000  11.356   5.510   9.576 -0.4968  0.8973  2.3221
  615MOL0     H83001  11.532   5.265   9.591  0.8818 -0.4646 -1.7302
  615MOL0     H83002  11.539   5.383   9.460 -0.6994  0.0498 -0.6492
  615MOL0     H83003  11.624   5.438   9.758  1.7008  1.5313  0.3459
  615MOL0     H83004  11.606   5.554   9.628 -2.3773 -0.1971  1.1121
  615MOL0     H83005  11.843   5.451   9.660  1.4096 -2.0942  0.9527
  615MOL0     H83006  11.776   5.429   9.496  2.1638  0.2245  0.5847
  615MOL0     H83007  10.763   5.303   9.774  0.2737  0.5948 -1.4312
  615MOL0     H83008  10.559   5.179   9.865 -4.2351 -2.9491 -1.2260
  615MOL0     H83009  10.111   4.838   9.530 -1.0180 -1.3528 -0.7966
  615MOL0     H83010   9.908   4.715   9.617 -0.6214  3.2147 -1.7181
  615MOL0     H83011   8.354   4.823   9.902 -0.7639  2.8257  2.0112
  615MOL0     H83012   8.153   4.865   9.761  0.7311  3.1779  2.6202
  615MOL0     H83013   7.666   4.620   9.727 -1.2074 -0.9525 -0.8951
  615MOL0     H83014   7.442   4.658   9.627 -2.2944  1.1412  3.9375
  615MOL0     H83015   7.177   4.962   9.501 -0.4448  0.7932  3.8829
  615MOL0     H83016   7.300   5.072   9.569  0.1165  0.2960 -1.6650
  615MOL0     H83017   7.311   4.944   9.307 -3.6863 -2.2231  4.2659
  615MOL0     H83018   7.460   5.005   9.382 -0.3517 -3.7752  0.7852
  615MOL0     H83019   7.399   5.229   9.382  1.5844 -1.6496  0.4854
  615MOL0     H83020   7.225   5.190   9.354 -0.0171 -1.0761 -0.6416
  615MOL0     H83021   7.299   5.284   9.146 -0.7697 -1.1532 -3.2370
  615MOL0     H83022   7.291   5.103   9.133  0.6016  0.9248 -0.4976
  615MOL0     H83023   7.701   5.183   9.058 -0.1449  0.3542  2.5430
  615MOL0     H83024   7.481   5.069   9.655  0.9941  1.2633  1.7542
  615MOL0     H83025   7.709   5.050   9.755 -2.1204  1.0604  0.5973
  616MOL0     O83026   3.759   6.422   6.778  0.3103  0.2763  0.6012
  616MOL0     C83027   3.740   6.407   6.899 -0.0482  0.4541 -0.7165
  616MOL0     O83028   3.620   6.418   6.964  0.0829 -0.2783  0.1441
  616MOL0     C83029   3.511   6.482   6.911  0.8892 -0.3979  0.0058
  616MOL0     C83030   3.389   6.407   6.905  0.1343  0.2586 -0.3561
  616MOL0     C83031   3.281   6.457   6.832  0.3361 -0.1760 -0.3525
  616MOL0     C83032   3.299   6.576   6.767 -0.5706  0.0065  0.3808
  616MOL0     O83033   3.194   6.631   6.696 -0.4320  0.2060 -0.1331
  616MOL0     C83034   3.210   6.637   6.556  0.3427 -0.0079  0.1177
  616MOL0     C83035   3.112   6.745   6.501 -0.0978  0.0332  0.6803
  616MOL0     C83036   2.976   6.736   6.575  0.2650 -0.1355 -0.1929
  616MOL0     C83037   2.887   6.854   6.546  0.3796  0.2403  0.2579
  616MOL0     C83038   2.754   6.835   6.622 -0.0129 -0.4844  0.5888
  616MOL0     C83039   2.684   6.968   6.666  0.3574  0.3092  0.6328
  616MOL0     C83040   2.532   6.956   6.688 -0.6752  0.5332 -0.7951
  616MOL0     C83041   2.445   6.944   6.558  0.0618  0.6995 -0.5798
  616MOL0     N83042   2.303   6.953   6.606 -0.4035  0.6362  0.0059
  616MOL0     C83043   2.216   7.048   6.570  0.2885 -0.4396  0.6580
  616MOL0     C83044   2.093   6.993   6.601 -0.6936  0.6586  0.0384
  616MOL0     C83045   1.965   7.065   6.602 -0.2195  0.6413  0.4004
  616MOL0     C83046   1.969   7.193   6.521 -0.3787 -0.5960  0.1562
  616MOL0     C83047   1.828   7.226   6.455 -0.3126 -0.5148 -0.1910
  616MOL0     C83048   1.727   7.300   6.546 -0.3441 -0.7716  0.0675
  616MOL0     O83049   1.777   7.435   6.569 -0.2497  0.4222  0.1468
  616MOL0     C83050   1.709   7.522   6.645  0.7325 -0.4041 -0.6185
  616MOL0     C83051   1.780   7.629   6.697  0.4548 -0.0413 -0.0479
  616MOL0     C83052   1.728   7.728   6.763  0.3290 -0.1380  1.1788
  616MOL0     C83053   1.818   7.835   6.820  0.4471  0.0419  0.0006
  616MOL0     C83054   1.590   7.725   6.795  0.0963  0.8479  1.0411
  616MOL0     C83055   1.521   7.822   6.882  0.9350  0.0645  0.1635
  616MOL0     O83056   1.561   7.954   6.873 -0.1441  0.2439  0.4670
  616MOL0     C83057   1.496   8.053   6.944 -0.1595  0.2091 -0.5578
  616MOL0     C83058   1.422   8.149   6.871 -0.1734  0.0187  0.6164
  616MOL0     C83059   1.370   8.265   6.925 -0.6536  0.6204  0.2697
  616MOL0     C83060   1.393   8.296   7.059  0.7403  0.9237 -1.2680
  616MOL0     O83061   1.354   8.406   7.136  0.1796 -0.4002  0.1052
  616MOL0     C83062   1.288   8.505   7.052 -0.0456  0.4855 -0.0316
  616MOL0     C83063   1.391   8.599   6.970 -0.0656  0.6476 -1.1576
  616MOL0     C83064   1.320   8.683   6.868  0.0626 -0.4160  0.0040
  616MOL0     C83065   1.219   8.792   6.915 -0.1525 -0.1944  0.5010
  616MOL0     C83066   1.143   8.867   6.813 -1.0934 -0.1815 -0.0904
  616MOL0     C83067   1.073   8.996   6.867  0.3511  0.6378  0.1042
  616MOL0     C83068   1.165   9.117   6.902  0.7366 -0.3332 -0.6010
  616MOL0     C83069   1.137   9.233   6.810  0.0734 -0.6245 -0.4437
  616MOL0    Cl83070   1.244   9.367   6.850  0.0242  0.3754  0.0385
  616MOL0     C83071   1.471   8.201   7.128  0.8571  0.9544 -0.4727
  616MOL0     C83072   1.530   8.090   7.068 -0.0365  0.1114 -0.2372
  616MOL0     O83073   1.444   7.775   6.969 -0.3552 -0.1583 -0.0420
  616MOL0     C83074   1.509   7.621   6.735 -0.2234  0.3852  0.2315
  616MOL0     C83075   1.569   7.518   6.664 -0.2316  0.2015 -0.4734
  616MOL0     N83076   2.111   6.865   6.641 -0.1405  1.2145 -0.7317
  616MOL0     N83077   2.237   6.842   6.639 -0.2394  0.4755 -0.7918
  616MOL0     C83078   3.420   6.641   6.773  0.6095  0.1531  0.1624
  616MOL0     C83079   3.525   6.601   6.848 -0.4566 -0.3001 -0.3235
  616MOL0     C83080   3.856   6.347   6.975 -0.0482  0.2675 -0.5221
  616MOL0     C83081   3.989   6.345   6.925  0.5846 -0.9801  0.9053
  616MOL0     C83082   4.099   6.285   6.996  0.0277 -0.0799 -0.2137
  616MOL0     C83083   4.075   6.238   7.120 -0.3876 -0.3022 -0.0876
  616MOL0     O83084   4.179   6.174   7.173 -0.7608  0.2066  0.0411
  616MOL0     C83085   4.173   6.076   7.279 -0.1756  0.0301  0.1593
  616MOL0     C83086   4.123   5.931   7.239  0.7625 -0.4690 -0.7301
  616MOL0     C83087   4.124   5.828   7.360  0.1923  0.5540 -0.1809
  616MOL0     C83088   4.033   5.705   7.338  0.3154 -0.3746 -0.4748
  616MOL0     C83089   4.078   5.582   7.400  0.9059  0.2260  0.5102
  616MOL0     C83090   4.100   5.467   7.443  0.1009 -0.0537 -0.7599
  616MOL0     C83091   3.945   6.235   7.180  0.4662  0.3072  0.0325
  616MOL0     C83092   3.836   6.291   7.104  0.4528 -0.7658  0.2694
  616MOL0     H83093   3.384   6.309   6.953 -2.1643  1.6620  2.5806
  616MOL0     H83094   3.192   6.395   6.821  0.2767 -0.6785  2.3159
  616MOL0     H83095   3.313   6.656   6.524  0.5990 -0.7820  0.4688
  616MOL0     H83096   3.172   6.546   6.509 -1.9322  1.3984 -0.9911
  616MOL0     H83097   3.154   6.846   6.507 -1.7225  0.7778  0.0728
  616MOL0     H83098   3.103   6.732   6.393 -0.6223 -1.1284  0.8515
  616MOL0     H83099   2.919   6.650   6.538  0.7452 -1.1928  1.3695
  616MOL0     H83100   2.982   6.722   6.684 -0.8207  0.6872 -0.0116
  616MOL0     H83101   2.948   6.944   6.561  2.8843 -0.8900 -2.2513
  616MOL0     H83102   2.867   6.853   6.439  0.0837  1.1780  0.2893
  616MOL0     H83103   2.701   6.775   6.547  2.0882 -0.8492 -0.6999
  616MOL0     H83104   2.757   6.777   6.714  0.9675  1.9142  2.1498
  616MOL0     H83105   2.737   6.998   6.757  0.2491  0.2227  0.7250
  616MOL0     H83106   2.702   7.041   6.586  0.2968 -1.5682 -1.1648
  616MOL0     H83107   2.510   6.868   6.748  3.0124 -0.8814 -1.2828
  616MOL0     H83108   2.512   7.048   6.744  2.9261  0.5399  0.7277
  616MOL0     H83109   2.466   6.850   6.507 -0.7253  0.7355 -0.9768
  616MOL0     H83110   2.475   7.024   6.490  2.8767  0.3675  0.1285
  616MOL0     H83111   2.232   7.149   6.534  0.5696 -0.3222  1.0991
  616MOL0     H83112   1.888   6.997   6.565 -0.4496  2.2002 -2.2332
  616MOL0     H83113   1.936   7.087   6.705 -0.9707  1.1098  0.0974
  616MOL0     H83114   2.043   7.182   6.441  1.1186  0.1557  1.3792
  616MOL0     H83115   1.996   7.282   6.578  0.6993 -0.9315  0.1948
  616MOL0     H83116   1.777   7.135   6.421 -2.0963 -0.0841  1.1792
  616MOL0     H83117   1.840   7.303   6.379 -1.3220 -0.0755  0.0822
  616MOL0     H83118   1.708   7.250   6.642 -0.0673 -0.3346  0.3515
  616MOL0     H83119   1.627   7.307   6.501  0.3051 -1.6703 -1.5834
  616MOL0     H83120   1.888   7.620   6.692  0.5946  1.8392 -1.6693
  616MOL0     H83121   1.794   7.938   6.792  0.1392 -0.3237 -1.1272
  616MOL0     H83122   1.809   7.826   6.929  3.5379  2.4503  0.6021
  616MOL0     H83123   1.926   7.824   6.803  0.9665  3.4331  0.3546
  616MOL0     H83124   1.415   8.119   6.767 -1.2137  1.1370  0.3475
  616MOL0     H83125   1.312   8.330   6.860  0.4911 -2.0369 -3.7043
  616MOL0     H83126   1.215   8.460   6.985 -2.6449 -2.1664  4.1578
  616MOL0     H83127   1.227   8.577   7.107 -2.5993 -3.8809  3.5280
  616MOL0     H83128   1.436   8.669   7.041  1.0237 -1.4547  0.3319
  616MOL0     H83129   1.473   8.540   6.929 -0.7824 -0.0986 -1.5444
  616MOL0     H83130   1.270   8.614   6.799 -2.0535 -0.2862  1.3110
  616MOL0     H83131   1.402   8.730   6.812  0.7824 -0.3093  1.1308
  616MOL0     H83132   1.144   8.743   6.977 -4.0784  0.1729 -3.4620
  616MOL0     H83133   1.267   8.869   6.977  1.0197 -0.4429 -0.0692
  616MOL0     H83134   1.068   8.808   6.761  0.3156 -0.3611 -2.0229
  616MOL0     H83135   1.207   8.898   6.730 -1.6438 -2.2932 -1.3664
  616MOL0     H83136   1.006   9.015   6.783  2.2751  0.2050 -1.6002
  616MOL0     H83137   1.014   8.979   6.958  1.3609 -0.4594  0.5786
  616MOL0     H83138   1.269   9.084   6.905  0.7659 -0.2234 -0.3811
  616MOL0     H83139   1.144   9.153   7.003  2.7839 -3.4948  1.1058
  616MOL0     H83140   1.036   9.275   6.821 -0.6421 -2.3099 -0.3387
  616MOL0     H83141   1.146   9.197   6.707  2.6398 -1.5269  0.0463
  616MOL0     H83142   1.490   8.219   7.234 -1.2405  1.0381 -0.0665
  616MOL0     H83143   1.598   8.017   7.110  0.3610  0.7855  0.3137
  616MOL0     H83144   1.402   7.622   6.750 -0.0688  1.2092  1.4416
  616MOL0     H83145   1.502   7.440   6.629  1.2468 -0.7819 -1.2260
  616MOL0     H83146   3.419   6.737   6.724 -0.2738 -0.5057 -1.1671
  616MOL0     H83147   3.611   6.667   6.852 -1.0123  0.4244 -0.2298
  616MOL0     H83148   4.020   6.410   6.844 -2.4193 -1.2514 -0.5793
  616MOL0     H83149   4.199   6.282   6.955  0.6951 -4.5990  1.1767
  616MOL0     H83150   4.276   6.071   7.315  0.1456 -0.5580 -0.8144
  616MOL0     H83151   4.109   6.104   7.364 -1.0765 -0.7787 -0.2341
  616MOL0     H83152   4.195   5.916   7.158  0.9643  2.1988 -1.1571
  616MOL0     H83153   4.024   5.946   7.194  0.1702  3.2743  1.3437
  616MOL0     H83154   4.089   5.871   7.454  0.0915 -1.6602  0.8701
  616MOL0     H83155   4.226   5.793   7.381  1.9885  1.5951 -5.5416
  616MOL0     H83156   4.018   5.708   7.230  1.5247  1.3173 -0.6277
  616MOL0     H83157   3.939   5.740   7.383  0.2227  0.2414 -1.1216
  616MOL0     H83158   4.121   5.370   7.484 -0.2626 -0.1201 -0.7191
  616MOL0     H83159   3.910   6.188   7.272  2.4460 -0.6857  0.3535
  616MOL0     H83160   3.736   6.296   7.145  0.4849  0.5073  0.2323
  617MOL0     O83161   6.399  10.115   6.495 -0.0461  0.4387 -0.7432
  617MOL0     C83162   6.502  10.171   6.470 -1.0773  0.3709  0.4303
  617MOL0     O83163   6.559  10.187   6.338 -0.2900  0.3972  0.4490
  617MOL0     C83164   6.487  10.141   6.227 -0.8476  0.4265  0.0377
  617MOL0     C83165   6.448  10.226   6.129 -0.1634  0.6169 -1.4829
  617MOL0     C83166   6.392  10.175   6.005 -0.3403 -0.8136 -0.4417
  617MOL0     C83167   6.371  10.037   5.983  0.1886 -0.7517 -0.5019
  617MOL0     O83168   6.287  10.013   5.884  0.8151 -0.4915  0.3907
  617MOL0     C83169   6.274   9.877   5.844 -0.3647 -0.5249  0.1447
  617MOL0     C83170   6.173   9.860   5.738 -0.1404 -0.2094  1.0747
  617MOL0     C83171   6.034   9.877   5.791  0.8256  0.6791  1.0767
  617MOL0     C83172   5.913   9.835   5.691 -0.4301  1.0071 -0.0119
  617MOL0     C83173   5.899   9.947   5.586 -0.2907  0.7649 -0.0471
  617MOL0     C83174   5.773   9.925   5.500  0.3947 -0.0802  0.1880
  617MOL0     C83175   5.653  10.002   5.561  1.0928 -0.2407  0.8359
  617MOL0     C83176   5.525   9.996   5.473 -1.2685  0.4574  0.2532
  617MOL0     N83177   5.489   9.857   5.428 -0.4378  0.0106 -0.5513
  617MOL0     C83178   5.421   9.766   5.511 -0.3254  0.4171  0.1821
  617MOL0     C83179   5.401   9.658   5.424  0.8178 -0.2464 -0.6062
  617MOL0     C83180   5.316   9.538   5.463 -0.3045 -0.0952  0.0584
  617MOL0     C83181   5.161   9.564   5.475  0.3273  0.3716 -0.1647
  617MOL0     C83182   5.085   9.633   5.355  0.4121  0.0044  0.6071
  617MOL0     C83183   4.941   9.635   5.391  0.1941  0.4697 -0.6771
  617MOL0     O83184   4.870   9.647   5.269 -0.0511  0.8627  0.0268
  617MOL0     C83185   4.733   9.677   5.259 -0.1702  0.5467  0.4169
  617MOL0     C83186   4.653   9.710   5.374 -0.5475 -0.1720  1.2163
  617MOL0     C83187   4.513   9.725   5.375  0.1070  0.2998 -0.1061
  617MOL0     C83188   4.449   9.765   5.506  0.6906 -0.3796 -0.2787
  617MOL0     C83189   4.442   9.710   5.251  0.0188  1.5192 -0.0596
  617MOL0     C83190   4.300   9.744   5.225  0.8309  0.8614 -0.6269
  617MOL0     O83191   4.251   9.701   5.099 -0.0673 -0.8050  0.0013
  617MOL0     C83192   4.131   9.734   5.046 -0.2736  0.0533  0.4157
  617MOL0     C83193   4.022   9.789   5.117  0.4951 -1.0677  1.0555
  617MOL0     C83194   3.904   9.808   5.043  0.3537  0.3931  0.7425
  617MOL0     C83195   3.889   9.770   4.905  0.4665  0.6616 -0.8503
  617MOL0     O83196   3.763   9.790   4.851 -0.1463 -0.0131  0.4435
  617MOL0     C83197   3.709   9.728   4.732  0.0754  0.5021  0.1006
  617MOL0     C83198   3.659   9.829   4.626 -0.0628  0.1607 -1.0726
  617MOL0     C83199   3.543   9.918   4.681  0.0844 -0.2737  0.8245
  617MOL0     C83200   3.416   9.833   4.723 -0.6962 -0.5369 -0.5055
  617MOL0     C83201   3.284   9.914   4.748 -0.3232 -0.1861  0.4701
  617MOL0     C83202   3.281   9.969   4.889  0.6247  0.6096 -0.5927
  617MOL0     C83203   3.177  10.082   4.904  0.0136  0.4676  0.5770
  617MOL0     C83204   3.161  10.134   5.046  0.7378  0.3268  1.0954
  617MOL0    Cl83205   3.074  10.010   5.144  0.4956 -0.0168  0.3529
  617MOL0     C83206   4.000   9.726   4.840 -0.4371  0.3215 -0.3026
  617MOL0     C83207   4.116   9.702   4.908 -0.4443  1.1509  0.0896
  617MOL0     O83208   4.239   9.808   5.308 -0.4220 -0.6061 -0.2116
  617MOL0     C83209   4.518   9.660   5.146 -0.2390 -0.7028 -1.0799
  617MOL0     C83210   4.660   9.655   5.147 -0.4916 -0.1475  0.3725
  617MOL0     N83211   5.443   9.695   5.295  0.5699  0.5206  0.3509
  617MOL0     N83212   5.522   9.800   5.309  0.8000 -0.4777 -0.4310
  617MOL0     C83213   6.420   9.951   6.078 -0.4488  0.3445 -0.3603
  617MOL0     C83214   6.469   9.998   6.204 -0.9617 -0.5101  0.3813
  617MOL0     C83215   6.576  10.234   6.570  0.2736  0.1078 -0.4189
  617MOL0     C83216   6.601  10.157   6.687  0.2487 -0.4655 -0.2978
  617MOL0     C83217   6.692  10.198   6.781 -0.4939 -0.0114 -0.1067
  617MOL0     C83218   6.748  10.323   6.785  0.4545 -0.9333 -0.8028
  617MOL0     O83219   6.845  10.366   6.872 -0.5804  0.3046  0.3806
  617MOL0     C83220   6.892  10.270   6.962  0.1306 -0.1889 -0.5038
  617MOL0     C83221   7.004  10.334   7.044  0.1605 -0.5700 -0.1582
  617MOL0     C83222   6.975  10.327   7.192  0.2124  0.6201  0.0547
  617MOL0     C83223   7.064  10.398   7.294 -0.2492 -0.1038  0.1476
  617MOL0     C83224   7.035  10.381   7.436  0.5845  0.6859  0.4493
  617MOL0     C83225   6.994  10.382   7.550  0.2693 -0.4205 -0.3832
  617MOL0     C83226   6.719  10.400   6.668  0.7753 -0.0070  0.1509
  617MOL0     C83227   6.630  10.365   6.562 -0.2920 -0.4493 -0.3875
  617MOL0     H83228   6.460  10.333   6.145 -1.2705  0.3867  1.8266
  617MOL0     H83229   6.360  10.241   5.926 -2.6272  0.2988  1.2957
  617MOL0     H83230   6.374   9.851   5.806  0.9051  1.1803  2.1079
  617MOL0     H83231   6.248   9.822   5.935  2.5491  0.7169  1.8713
  617MOL0     H83232   6.191   9.931   5.657 -1.7756 -1.1553 -0.1903
  617MOL0     H83233   6.181   9.765   5.684  1.7414  1.1117 -1.1648
  617MOL0     H83234   6.016   9.809   5.874 -1.0902 -0.5615 -0.2807
  617MOL0     H83235   6.010   9.972   5.839  0.6058  0.2995  1.7274
  617MOL0     H83236   5.950   9.745   5.641  2.0885  1.2212  1.2958
  617MOL0     H83237   5.818   9.819   5.742 -0.1535  0.2772  0.2970
  617MOL0     H83238   5.893  10.048   5.626 -1.1997  1.6307 -2.2071
  617MOL0     H83239   5.979   9.937   5.512 -1.0334 -2.6741 -0.5792
  617MOL0     H83240   5.788   9.971   5.402  2.4881  0.5949  0.7530
  617MOL0     H83241   5.748   9.819   5.493  0.0058 -0.0244  0.6554
  617MOL0     H83242   5.620   9.962   5.657  1.6883 -0.1584  1.0751
  617MOL0     H83243   5.678  10.108   5.567 -3.2929  0.9277  2.4978
  617MOL0     H83244   5.543  10.068   5.392 -2.0843  0.0422 -0.3025
  617MOL0     H83245   5.444  10.048   5.525  0.9129  1.2985  3.1307
  617MOL0     H83246   5.396   9.778   5.616 -2.4718 -0.3832 -0.1819
  617MOL0     H83247   5.322   9.467   5.380 -1.6640  1.0436 -1.0659
  617MOL0     H83248   5.357   9.491   5.553  0.3258  1.1766  0.4607
  617MOL0     H83249   5.140   9.615   5.569  1.2512  1.4354 -0.5222
  617MOL0     H83250   5.119   9.463   5.472 -0.1545  0.5833 -0.7125
  617MOL0     H83251   5.099   9.589   5.255 -0.0141  1.7559 -0.2612
  617MOL0     H83252   5.120   9.733   5.328 -3.7766  1.3477 -0.4970
  617MOL0     H83253   4.923   9.719   5.459  3.4599 -0.8447  2.0845
  617MOL0     H83254   4.908   9.544   5.442 -0.0222  1.6274  1.3781
  617MOL0     H83255   4.704   9.740   5.465  1.2537  2.7781 -0.6195
  617MOL0     H83256   4.348   9.731   5.528  0.2191  2.5222  2.8560
  617MOL0     H83257   4.520   9.731   5.581 -0.2758 -2.3757 -0.1997
  617MOL0     H83258   4.445   9.874   5.504 -0.2802 -0.3868  0.6100
  617MOL0     H83259   4.021   9.822   5.221  0.7239 -0.1794  0.7882
  617MOL0     H83260   3.823   9.868   5.083 -1.0759 -1.8273  1.3310
  617MOL0     H83261   3.782   9.671   4.674  0.2406 -0.8767  1.5974
  617MOL0     H83262   3.631   9.661   4.770  1.0233 -1.3115 -1.0104
  617MOL0     H83263   3.738   9.901   4.604  0.5621 -0.8691 -2.3144
  617MOL0     H83264   3.638   9.769   4.537 -0.1356 -3.5415  1.2095
  617MOL0     H83265   3.521   9.973   4.589 -0.9181 -3.5007 -1.0267
  617MOL0     H83266   3.571   9.990   4.759  0.9717 -2.7657  2.9491
  617MOL0     H83267   3.390   9.764   4.643 -1.3794  0.2787 -0.9958
  617MOL0     H83268   3.439   9.764   4.805 -2.7765  0.1484  0.7276
  617MOL0     H83269   3.208   9.836   4.753 -1.3121  0.6953 -0.5318
  617MOL0     H83270   3.266   9.981   4.664 -0.2863 -2.2985 -1.3163
  617MOL0     H83271   3.270   9.888   4.961  0.7914  2.4322  1.5856
  617MOL0     H83272   3.378  10.018   4.905  0.6435  0.6550 -0.8446
  617MOL0     H83273   3.080  10.042   4.871  0.4960 -2.3018  2.1755
  617MOL0     H83274   3.197  10.171   4.843 -1.3493 -0.2602 -1.0396
  617MOL0     H83275   3.104  10.228   5.035 -0.6182 -0.5477  0.3094
  617MOL0     H83276   3.259  10.160   5.087  1.0062  1.8834 -0.3787
  617MOL0     H83277   3.989   9.696   4.736 -0.4174  1.1205 -0.5413
  617MOL0     H83278   4.205   9.668   4.856  0.1617 -0.5880  2.0698
  617MOL0     H83279   4.482   9.631   5.048  1.4408 -1.6331 -1.4620
  617MOL0     H83280   4.716   9.627   5.058 -0.0928  0.4267  0.4423
  617MOL0     H83281   6.415   9.843   6.068  0.5858  0.1992  0.4911
  617MOL0     H83282   6.515   9.923   6.268  1.8384 -1.0178 -1.9858
  617MOL0     H83283   6.565  10.055   6.693  1.0751 -0.8689 -1.6671
  617MOL0     H83284   6.716  10.127   6.859  0.4704 -0.3164 -0.6677
  617MOL0     H83285   6.820  10.225   7.032  2.0257 -1.4663  0.7262
  617MOL0     H83286   6.946  10.192   6.907  2.7327  0.0432  1.5132
  617MOL0     H83287   7.018  10.440   7.019 -1.2335 -0.9969 -3.1952
  617MOL0     H83288   7.100  10.283   7.033 -0.0644 -0.5939 -2.5587
  617MOL0     H83289   6.962  10.223   7.223  3.8914  0.2540  0.8061
  617MOL0     H83290   6.881  10.381   7.206  1.8499  4.5998 -2.3216
  617MOL0     H83291   7.065  10.505   7.270 -0.1173  1.1831  4.7844
  617MOL0     H83292   7.163  10.354   7.279  0.8218  1.9955  0.6232
  617MOL0     H83293   6.961  10.377   7.652 -2.7958 -4.2195 -1.2875
  617MOL0     H83294   6.775  10.492   6.661  0.1336  0.4765  1.1628
  617MOL0     H83295   6.600  10.424   6.476  2.0643  1.2960 -0.0996
  618MOL0     O83296   5.665  10.078   2.637 -0.5858  0.6898 -0.2025
  618MOL0     C83297   5.722  10.169   2.695 -0.2761 -0.1932  0.7022
  618MOL0     O83298   5.676  10.236   2.807  0.7349 -0.4037 -0.5273
  618MOL0     C83299   5.553  10.209   2.865 -0.1756  0.6677 -0.3230
  618MOL0     C83300   5.435  10.187   2.792  0.0146  0.1550  0.5259
  618MOL0     C83301   5.310  10.155   2.859  0.2401 -0.2013  0.9076
  618MOL0     C83302   5.301  10.166   2.994  0.5713  0.0140 -0.2316
  618MOL0     O83303   5.194  10.151   3.079  0.4472 -0.0350  0.1099
  618MOL0     C83304   5.064  10.142   3.021  0.3734 -0.3913 -0.7756
  618MOL0     C83305   4.945  10.159   3.119 -0.3348  0.4543  0.1232
  618MOL0     C83306   4.976  10.064   3.243 -0.1002  0.1619  0.0889
  618MOL0     C83307   4.848  10.049   3.335 -0.7871 -0.6332 -0.1544
  618MOL0     C83308   4.867   9.987   3.474  1.1344  0.1337 -0.9686
  618MOL0     C83309   4.938  10.076   3.572 -0.1923 -0.5338  0.4261
  618MOL0     C83310   4.864  10.197   3.623  0.2669 -0.0329  0.7573
  618MOL0     C83311   4.956  10.264   3.730  0.3407 -0.4613 -0.3300
  618MOL0     N83312   4.879  10.370   3.785  0.0918 -0.2082 -0.6500
  618MOL0     C83313   4.839  10.470   3.706  0.3324 -0.2566 -0.0343
  618MOL0     C83314   4.748  10.533   3.778 -0.8179  0.2722  0.4803
  618MOL0     C83315   4.639  10.629   3.739  0.4587  0.7239 -0.3462
  618MOL0     C83316   4.586  10.608   3.595 -0.8555  0.0072  0.2544
  618MOL0     C83317   4.679  10.678   3.504  0.2288 -0.1101  0.3050
  618MOL0     C83318   4.685  10.625   3.363  0.2968  1.2386  0.3485
  618MOL0     O83319   4.548  10.633   3.311  0.0656 -0.3439 -0.2597
  618MOL0     C83320   4.495  10.744   3.255 -0.0462 -0.7652 -0.0630
  618MOL0     C83321   4.357  10.750   3.240 -0.2776 -0.0506 -0.2033
  618MOL0     C83322   4.288  10.863   3.178  0.5446 -0.1849 -0.0770
  618MOL0     C83323   4.143  10.833   3.149 -0.2708 -0.4716  0.4131
  618MOL0     C83324   4.370  10.966   3.125  0.3644  0.4274  0.2034
  618MOL0     C83325   4.309  11.092   3.059 -0.8491 -0.0297  0.1249
  618MOL0     O83326   4.190  11.127   3.106  0.1966  0.1336  0.7261
  618MOL0     C83327   4.120  11.227   3.046  0.1494 -0.2706 -0.1433
  618MOL0     C83328   4.174  11.352   3.010 -0.6791  0.2291  0.3993
  618MOL0     C83329   4.091  11.444   2.947  1.3401 -1.0132  0.1324
  618MOL0     C83330   3.967  11.414   2.900 -0.1663  0.3148 -0.3033
  618MOL0     O83331   3.898  11.516   2.842  0.6736 -0.7507  0.3028
  618MOL0     C83332   3.835  11.476   2.721 -0.0384 -0.1321  0.5560
  618MOL0     C83333   3.682  11.472   2.727 -0.0453 -0.0158 -0.2535
  618MOL0     C83334   3.623  11.612   2.748  0.0962  0.3734  0.4457
  618MOL0     C83335   3.487  11.598   2.812  0.3112 -0.4805 -1.3598
  618MOL0     C83336   3.466  11.582   2.960  0.0494  0.2496  0.2603
  618MOL0     C83337   3.315  11.557   2.987  0.4304 -0.4098  0.1825
  618MOL0     C83338   3.257  11.590   3.123  0.4654  0.2870  0.0294
  618MOL0     C83339   3.249  11.743   3.149  1.1721 -0.5969  0.0959
  618MOL0    Cl83340   3.168  11.835   3.016 -0.0233  0.4717 -0.1884
  618MOL0     C83341   3.921  11.284   2.920 -0.0928  0.8938 -0.6737
  618MOL0     C83342   3.994  11.190   3.003 -0.5588 -0.4122  0.9008
  618MOL0     O83343   4.386  11.164   2.988 -0.8056  0.7352  0.4944
  618MOL0     C83344   4.506  10.962   3.147 -0.1431  0.2402  0.1096
  618MOL0     C83345   4.572  10.855   3.211  1.0506 -0.4444 -0.2422
  618MOL0     N83346   4.726  10.475   3.899 -0.5609  0.1474 -0.4371
  618MOL0     N83347   4.797  10.370   3.900 -0.5328  0.9150  0.2783
  618MOL0     C83348   5.417  10.200   3.069  0.2000  0.4681 -0.5408
  618MOL0     C83349   5.543  10.206   3.008  0.8151 -0.6788  0.8335
  618MOL0     C83350   5.855  10.207   2.644  0.5358  1.0181  0.3456
  618MOL0     C83351   5.920  10.322   2.691  0.9591  0.2371  0.1628
  618MOL0     C83352   6.040  10.358   2.636  0.6382 -0.2658 -0.0282
  618MOL0     C83353   6.097  10.290   2.533 -1.2125 -0.4605  0.4715
  618MOL0     O83354   6.212  10.322   2.466 -0.3068 -0.0384 -0.4901
  618MOL0     C83355   6.310  10.401   2.533 -0.1899  0.0389 -0.0500
  618MOL0     C83356   6.413  10.324   2.613 -0.3991  0.2446 -0.0504
  618MOL0     C83357   6.474  10.208   2.544 -0.3504 -0.1785 -0.3386
  618MOL0     C83358   6.594  10.243   2.452  0.1020  0.6422  0.5880
  618MOL0     C83359   6.685  10.338   2.511 -0.4593 -0.3574  0.6320
  618MOL0     C83360   6.773  10.406   2.565 -0.1896 -0.6017  0.3688
  618MOL0     C83361   6.025  10.179   2.485 -0.4059  0.3694 -0.3769
  618MOL0     C83362   5.913  10.136   2.538  0.3319  0.9070 -0.5443
  618MOL0     H83363   5.447  10.184   2.684 -0.6691 -1.5329  0.4704
  618MOL0     H83364   5.228  10.114   2.800  0.7647  0.1824 -0.1068
  618MOL0     H83365   5.047  10.219   2.945  1.1777 -0.0866 -0.6601
  618MOL0     H83366   5.041  10.046   2.974  1.5969 -1.2647  0.3069
  618MOL0     H83367   4.930  10.265   3.145 -0.0780  0.3182  0.8335
  618MOL0     H83368   4.846  10.130   3.081  0.0090 -0.5970  0.0216
  618MOL0     H83369   5.014   9.967   3.208 -1.4181 -0.9827  1.6713
  618MOL0     H83370   5.057  10.111   3.299  1.7957 -0.4105 -1.9886
  618MOL0     H83371   4.803  10.148   3.348  2.5715  1.0627 -0.1672
  618MOL0     H83372   4.780   9.984   3.279 -1.9528 -0.4409  0.9986
  618MOL0     H83373   4.772   9.968   3.524  1.2143  3.2094  0.5951
  618MOL0     H83374   4.922   9.893   3.456 -0.2852 -0.9743  0.2061
  618MOL0     H83375   4.967  10.006   3.650 -0.7833 -2.6129 -1.1281
  618MOL0     H83376   5.029  10.108   3.519 -0.5327  2.2433  1.3522
  618MOL0     H83377   4.838  10.259   3.536  1.0244 -1.8156 -0.7891
  618MOL0     H83378   4.774  10.154   3.668 -1.1215 -1.3862 -2.9167
  618MOL0     H83379   5.042  10.305   3.676  0.0704  0.1205 -0.3247
  618MOL0     H83380   4.984  10.197   3.811  1.4008  0.2610 -0.0728
  618MOL0     H83381   4.864  10.480   3.601  3.3190 -0.0440  0.6126
  618MOL0     H83382   4.554  10.618   3.807  1.0507  1.8683  0.6135
  618MOL0     H83383   4.677  10.731   3.748  4.8803 -0.7448  0.1769
  618MOL0     H83384   4.486  10.646   3.574 -0.8815  1.1759  2.2707
  618MOL0     H83385   4.581  10.501   3.571  1.5645 -0.0449 -0.2850
  618MOL0     H83386   4.781  10.676   3.546  0.1654  1.1538  0.5483
  618MOL0     H83387   4.655  10.784   3.494 -2.0705 -0.7078 -1.2466
  618MOL0     H83388   4.702  10.517   3.364 -0.3209  1.1209 -0.3763
  618MOL0     H83389   4.761  10.678   3.305 -0.7156  0.5770 -1.6804
  618MOL0     H83390   4.298  10.669   3.282 -1.2902 -1.7539 -4.3892
  618MOL0     H83391   4.108  10.736   3.184 -2.1467 -0.0275 -0.1051
  618MOL0     H83392   4.076  10.914   3.181 -1.7578  1.5168 -6.2193
  618MOL0     H83393   4.117  10.835   3.043 -2.0438  1.3527  0.8072
  618MOL0     H83394   4.277  11.380   3.031  0.0993 -0.3342 -2.3132
  618MOL0     H83395   4.124  11.546   2.932 -3.6432  0.8831  0.2114
  618MOL0     H83396   3.857  11.541   2.636 -1.8386  0.9709  0.8863
  618MOL0     H83397   3.868  11.379   2.681 -0.4311 -0.7561  1.6998
  618MOL0     H83398   3.625  11.432   2.643  1.3284 -1.0368 -0.7468
  618MOL0     H83399   3.669  11.408   2.815  2.5390  0.1296  0.3186
  618MOL0     H83400   3.615  11.672   2.657 -1.5275  1.3410  1.1655
  618MOL0     H83401   3.693  11.666   2.813 -0.1236 -0.8720  1.7783
  618MOL0     H83402   3.434  11.687   2.778  2.5174  2.6090  2.4002
  618MOL0     H83403   3.444  11.517   2.753 -0.9974 -0.6005 -0.2823
  618MOL0     H83404   3.506  11.666   3.017 -2.5506  1.3903  0.5225
  618MOL0     H83405   3.523  11.494   2.994  2.5278  1.8274  0.4564
  618MOL0     H83406   3.255  11.612   2.914 -2.4144 -1.4436  1.6171
  618MOL0     H83407   3.287  11.453   2.971 -0.5989 -0.2155  0.6499
  618MOL0     H83408   3.323  11.553   3.202 -3.6262 -1.2642  3.0691
  618MOL0     H83409   3.157  11.549   3.139 -0.6605  2.7452 -0.2784
  618MOL0     H83410   3.354  11.773   3.160  0.7285  0.5893  1.4864
  618MOL0     H83411   3.185  11.761   3.236 -1.3570 -1.4554 -1.4686
  618MOL0     H83412   3.821  11.261   2.887 -0.0276 -0.6345  0.1159
  618MOL0     H83413   3.946  11.092   3.003 -1.4685 -0.1703 -3.0146
  618MOL0     H83414   4.572  11.044   3.119  0.3263 -0.4929 -1.0159
  618MOL0     H83415   4.680  10.850   3.228  1.0320  0.9096  0.3943
  618MOL0     H83416   5.428  10.216   3.176  2.4227  0.6424 -0.7607
  618MOL0     H83417   5.632  10.206   3.070  1.0851  0.4526  0.4673
  618MOL0     H83418   5.874  10.380   2.770  2.3183 -2.5421  3.2584
  618MOL0     H83419   6.085  10.452   2.668 -1.8086  1.5554 -1.5874
  618MOL0     H83420   6.368  10.448   2.454 -0.3369  1.3056  0.5750
  618MOL0     H83421   6.281  10.492   2.586  2.0290  1.2283 -0.7410
  618MOL0     H83422   6.363  10.292   2.705 -1.0068  4.5915  1.3781
  618MOL0     H83423   6.495  10.386   2.649  1.2765 -0.4060 -2.4582
  618MOL0     H83424   6.411  10.140   2.486  2.0915 -1.2038 -1.9303
  618MOL0     H83425   6.513  10.141   2.621 -2.4341 -1.4037 -0.2789
  618MOL0     H83426   6.564  10.278   2.353  1.5615  2.6025  0.7694
  618MOL0     H83427   6.642  10.146   2.435 -0.8314  0.3625 -0.5774
  618MOL0     H83428   6.853  10.464   2.607 -0.1743 -0.6964  0.4735
  618MOL0     H83429   6.073  10.129   2.402 -0.3960 -1.2900  0.5858
  618MOL0     H83430   5.867  10.048   2.495  0.9699  0.4586 -0.3352
  619MOL0     O83431   8.444   5.357  10.249  0.3061 -0.3285  0.9395
  619MOL0     C83432   8.507   5.394  10.349  0.2853 -0.2536 -0.2689
  619MOL0     O83433   8.460   5.487  10.437  0.1806 -0.7862 -0.0553
  619MOL0     C83434   8.334   5.551  10.418  0.1751  0.6884 -0.2713
  619MOL0     C83435   8.339   5.682  10.458  0.1190  0.7222  0.1688
  619MOL0     C83436   8.226   5.755  10.466  0.2074  0.5808 -0.0876
  619MOL0     C83437   8.104   5.704  10.429 -0.3379  0.7964 -0.7454
  619MOL0     O83438   7.996   5.780  10.450 -0.3748  0.4400  0.5427
  619MOL0     C83439   7.945   5.843  10.339 -0.2386 -0.7755  0.3286
  619MOL0     C83440   7.887   5.975  10.394  0.7102  0.3972 -0.8515
  619MOL0     C83441   7.792   6.030  10.292  0.0186 -1.3430 -1.0773
  619MOL0     C83442   7.658   5.968  10.258  0.2367 -0.0001  1.3640
  619MOL0     C83443   7.576   6.047  10.151  0.6865 -0.4771  0.7477
  619MOL0     C83444   7.548   6.201  10.165  0.0379 -0.5791  0.3056
  619MOL0     C83445   7.435   6.228  10.065  0.5033 -0.0817  1.0715
  619MOL0     C83446   7.393   6.378  10.044  0.2235  0.5376  0.1064
  619MOL0     N83447   7.507   6.445   9.973 -0.4517 -0.4973  0.3371
  619MOL0     C83448   7.581   6.402   9.855 -0.0230  0.1593 -0.3937
  619MOL0     C83449   7.676   6.491   9.837  0.4587  0.1437 -1.5311
  619MOL0     C83450   7.777   6.489   9.729 -0.3164  0.3979 -0.8267
  619MOL0     C83451   7.702   6.475   9.593 -0.3638 -0.6581 -0.8874
  619MOL0     C83452   7.779   6.528   9.471  0.0164 -0.2488  1.1267
  619MOL0     C83453   7.700   6.518   9.339  1.3192  0.0823  0.3126
  619MOL0     O83454   7.687   6.390   9.288  0.4253  0.1628 -0.1030
  619MOL0     C83455   7.602   6.373   9.181  0.8042 -0.0152  0.3484
  619MOL0     C83456   7.565   6.246   9.139 -0.2159  0.0135 -0.9544
  619MOL0     C83457   7.486   6.222   9.031 -0.2354  1.5911  0.0759
  619MOL0     C83458   7.475   6.070   9.001 -0.5819  0.4467 -1.1191
  619MOL0     C83459   7.420   6.331   8.959  0.4371 -1.6932  0.1866
  619MOL0     C83460   7.324   6.307   8.857  0.5937 -0.4556  0.5681
  619MOL0     O83461   7.239   6.420   8.851  0.2389  0.6918  0.4455
  619MOL0     C83462   7.127   6.428   8.775  0.8917 -0.5548 -0.5377
  619MOL0     C83463   7.087   6.549   8.722  0.3107  0.4660 -0.2264
  619MOL0     C83464   6.967   6.554   8.646  0.3159 -1.2407  0.0732
  619MOL0     C83465   6.890   6.449   8.620  0.0446  0.7207 -0.5745
  619MOL0     O83466   6.781   6.434   8.529  0.3726  0.6325 -0.3540
  619MOL0     C83467   6.665   6.517   8.558  0.2049  0.0877  1.1063
  619MOL0     C83468   6.528   6.462   8.526 -1.0194 -0.2782 -0.0173
  619MOL0     C83469   6.532   6.318   8.573  0.3685  0.6460 -0.1677
  619MOL0     C83470   6.407   6.243   8.518  0.0010 -0.2657 -0.0270
  619MOL0     C83471   6.397   6.098   8.580 -0.6277  0.6556  0.7757
  619MOL0     C83472   6.281   6.009   8.525  0.0943 -0.1371 -0.0048
  619MOL0     C83473   6.148   6.081   8.541  0.0081  0.1918  0.0545
  619MOL0     C83474   6.021   5.994   8.515 -1.1439 -0.3295  0.7162
  619MOL0    Cl83475   5.987   5.895   8.660 -0.6547 -0.2810 -0.0568
  619MOL0     C83476   6.927   6.326   8.676  0.1603 -0.0596  0.3369
  619MOL0     C83477   7.046   6.313   8.754  0.3457 -1.1387 -0.5803
  619MOL0     O83478   7.325   6.209   8.781 -0.0575  0.4788  0.3869
  619MOL0     C83479   7.463   6.461   8.986 -0.0009  1.0551  0.8487
  619MOL0     C83480   7.564   6.476   9.090  0.6389 -0.7808 -0.0218
  619MOL0     N83481   7.662   6.592   9.944  0.8257  0.0779 -0.5586
  619MOL0     N83482   7.565   6.562  10.019  0.3502  0.8126  0.8719
  619MOL0     C83483   8.093   5.574  10.395  0.8012  0.9560  0.4929
  619MOL0     C83484   8.210   5.491  10.389 -0.0084  0.7937  0.0066
  619MOL0     C83485   8.642   5.332  10.353  0.6496 -0.5071 -0.5481
  619MOL0     C83486   8.694   5.248  10.254 -0.5583 -0.4358 -0.0422
  619MOL0     C83487   8.832   5.205  10.264  0.3253 -0.1844  0.7493
  619MOL0     C83488   8.919   5.256  10.371  0.2211 -0.8438 -0.1123
  619MOL0     O83489   9.051   5.230  10.390 -0.2523  0.1812  0.5660
  619MOL0     C83490   9.118   5.175  10.277 -0.1578 -0.3625  0.4955
  619MOL0     C83491   9.130   5.279  10.160 -0.1525 -0.6041 -0.1061
  619MOL0     C83492   9.244   5.394  10.167 -0.0385  1.0062 -0.1132
  619MOL0     C83493   9.273   5.469  10.038 -0.3412  0.2613 -0.6587
  619MOL0     C83494   9.337   5.591  10.079 -0.3005 -0.2224  0.0070
  619MOL0     C83495   9.411   5.681  10.114 -0.7205  0.4392 -0.2607
  619MOL0     C83496   8.860   5.330  10.475  0.0993 -0.7354  0.7828
  619MOL0     C83497   8.720   5.368  10.462 -0.2806  0.0673 -1.0494
  619MOL0     H83498   8.437   5.713  10.491  1.5296  0.7435 -3.5684
  619MOL0     H83499   8.246   5.858  10.493  2.9380  0.8121 -2.5309
  619MOL0     H83500   8.019   5.869  10.262 -0.4546  0.8034  0.6226
  619MOL0     H83501   7.868   5.786  10.287 -3.1627  0.7974  2.6144
  619MOL0     H83502   7.833   5.966  10.490  2.2076  1.1187  0.0949
  619MOL0     H83503   7.962   6.047  10.428 -0.4070  1.2861 -0.1701
  619MOL0     H83504   7.778   6.131  10.333  0.0033 -1.6592 -0.2915
  619MOL0     H83505   7.850   6.022  10.200  0.2340  1.5165 -1.2908
  619MOL0     H83506   7.677   5.868  10.219  1.1041  0.1423  1.4008
  619MOL0     H83507   7.592   5.950  10.343 -1.1258 -1.9754 -0.0255
  619MOL0     H83508   7.631   6.034  10.057  0.8684  3.4384  0.1472
  619MOL0     H83509   7.481   5.993  10.145 -0.1222  1.0209 -1.3724
  619MOL0     H83510   7.509   6.233  10.262  2.2559  1.1554  0.7111
  619MOL0     H83511   7.644   6.246  10.135 -1.1219  1.0207 -1.1969
  619MOL0     H83512   7.468   6.193   9.966 -2.3137  0.3409 -0.1235
  619MOL0     H83513   7.347   6.175  10.101 -0.0915  0.8811  1.0801
  619MOL0     H83514   7.369   6.420  10.142 -0.9116  1.1818 -0.4264
  619MOL0     H83515   7.294   6.376   9.997 -0.8874  0.7094  2.2994
  619MOL0     H83516   7.589   6.316   9.789  1.0342  2.0621 -2.8945
  619MOL0     H83517   7.830   6.584   9.723 -0.0534  0.2064 -1.6203
  619MOL0     H83518   7.845   6.407   9.757 -0.4954  0.4204 -0.3068
  619MOL0     H83519   7.607   6.531   9.590  0.2006  0.5018  0.9412
  619MOL0     H83520   7.683   6.368   9.581 -2.6974 -0.3009 -0.8425
  619MOL0     H83521   7.878   6.488   9.448  0.9576  0.2266  3.9927
  619MOL0     H83522   7.799   6.635   9.480 -0.6099  0.1073 -1.0663
  619MOL0     H83523   7.756   6.576   9.265  1.8530  0.8744  1.3221
  619MOL0     H83524   7.602   6.567   9.332  0.5691 -1.5604 -2.8341
  619MOL0     H83525   7.607   6.162   9.193 -2.8732 -1.9644 -1.7756
  619MOL0     H83526   7.417   6.021   9.079 -2.0186 -0.2526 -2.5562
  619MOL0     H83527   7.438   6.040   8.902 -0.6820  0.9747 -1.2449
  619MOL0     H83528   7.571   6.019   9.008 -1.6733 -1.4403  1.5533
  619MOL0     H83529   7.142   6.640   8.741  0.5818  0.4016 -0.6835
  619MOL0     H83530   6.936   6.652   8.612 -0.4994 -1.2424  0.7579
  619MOL0     H83531   6.662   6.533   8.667 -1.6352  1.7407  0.8718
  619MOL0     H83532   6.674   6.608   8.498  0.3560 -0.6505 -0.0068
  619MOL0     H83533   6.449   6.512   8.582  1.3040  1.3255  2.0920
  619MOL0     H83534   6.513   6.455   8.418 -1.8038 -0.0875  0.0798
  619MOL0     H83535   6.531   6.309   8.682  1.5893  0.5617 -0.1449
  619MOL0     H83536   6.620   6.259   8.544  3.8077  3.1948  3.7827
  619MOL0     H83537   6.315   6.299   8.540 -1.1804 -2.1830  0.1263
  619MOL0     H83538   6.400   6.241   8.409  1.4452  0.3913 -0.1624
  619MOL0     H83539   6.397   6.090   8.689  2.1196 -1.0093  0.7518
  619MOL0     H83540   6.488   6.044   8.549 -3.1367 -1.3763 -4.0918
  619MOL0     H83541   6.308   5.993   8.420  2.0353  4.2539 -0.3690
  619MOL0     H83542   6.282   5.920   8.589 -2.7059  1.2249  2.1402
  619MOL0     H83543   6.145   6.167   8.474 -2.2137  0.4524  0.3905
  619MOL0     H83544   6.139   6.119   8.643 -0.2111  1.2568 -0.3449
  619MOL0     H83545   6.032   5.938   8.422 -0.9888  0.7785  0.0586
  619MOL0     H83546   5.940   6.062   8.490  1.4333  2.4958 -0.5020
  619MOL0     H83547   6.861   6.240   8.667  1.8505 -1.2083 -2.5832
  619MOL0     H83548   7.079   6.225   8.809  0.0409 -0.8549  0.0634
  619MOL0     H83549   7.410   6.546   8.943  1.0914  1.0924 -0.5199
  619MOL0     H83550   7.577   6.582   9.111  1.8321 -0.4569 -2.1569
  619MOL0     H83551   7.997   5.532  10.368  0.9032  2.1056 -2.0064
  619MOL0     H83552   8.216   5.387  10.361 -3.2071 -0.4990  3.3038
  619MOL0     H83553   8.647   5.223  10.160  1.3225  2.2443 -1.8493
  619MOL0     H83554   8.863   5.156  10.172 -1.4790 -0.2896  0.1553
  619MOL0     H83555   9.223   5.147  10.294  0.1391  0.7251  0.5007
  619MOL0     H83556   9.076   5.079  10.246 -0.1338  0.3130 -1.7746
  619MOL0     H83557   9.033   5.329  10.152  1.0707  1.5428 -3.3380
  619MOL0     H83558   9.158   5.232  10.065  2.3076  2.4248 -1.0396
  619MOL0     H83559   9.342   5.363  10.206  0.4899  2.7559  0.0677
  619MOL0     H83560   9.201   5.463  10.241 -2.7319  0.0501 -0.6836
  619MOL0     H83561   9.176   5.481   9.989 -0.2563 -1.7176 -1.4093
  619MOL0     H83562   9.342   5.409   9.978 -2.0679  0.3000 -2.8061
  619MOL0     H83563   9.488   5.745  10.153  0.3910 -1.4816  0.8876
  619MOL0     H83564   8.919   5.360  10.561  1.0572  0.4129 -0.2373
  619MOL0     H83565   8.665   5.406  10.547 -1.6133 -0.2561 -1.7274
  620MOL0     O83566  10.178   0.759  11.288 -0.6339 -0.4034  0.1718
  620MOL0     C83567  10.267   0.704  11.223  0.4041  0.1963 -0.2014
  620MOL0     O83568  10.258   0.673  11.084  0.6350 -0.5024  0.1087
  620MOL0     C83569  10.136   0.710  11.031 -0.0752 -0.6896  0.1892
  620MOL0     C83570  10.113   0.846  10.992 -0.1598  0.1843  0.7357
  620MOL0     C83571   9.991   0.886  10.934  0.4189 -0.5874  0.2228
  620MOL0     C83572   9.892   0.790  10.898 -0.2351  1.2345 -0.3224
  620MOL0     O83573   9.778   0.810  10.826 -0.4808 -0.3762  0.2389
  620MOL0     C83574   9.746   0.736  10.705 -0.2685 -1.4158  0.0485
  620MOL0     C83575   9.860   0.718  10.602  0.0314 -0.3794  0.5949
  620MOL0     C83576   9.909   0.852  10.555  0.0298  0.1950  0.3357
  620MOL0     C83577  10.003   0.838  10.439  0.8651 -0.9289  0.1001
  620MOL0     C83578  10.110   0.724  10.433  0.4259  0.0316  0.1814
  620MOL0     C83579  10.230   0.746  10.340  0.1378 -0.4653  0.1105
  620MOL0     C83580  10.177   0.765  10.202  0.0722 -0.1730  0.5055
  620MOL0     C83581  10.279   0.725  10.089 -0.6436 -0.0871  0.1455
  620MOL0     N83582  10.412   0.787  10.095  0.1755  0.6855 -0.3633
  620MOL0     C83583  10.460   0.902  10.036  0.0758 -0.3092  0.1255
  620MOL0     C83584  10.588   0.913  10.076 -1.4224 -0.0081  1.0434
  620MOL0     C83585  10.704   1.001  10.024  0.6870  0.7383 -0.8165
  620MOL0     C83586  10.795   1.038  10.143 -0.9431  1.2388 -0.0286
  620MOL0     C83587  10.727   1.093  10.261  1.0000 -0.0689  0.0199
  620MOL0     C83588  10.682   1.236  10.232  0.3451 -0.5454 -0.7440
  620MOL0     O83589  10.592   1.266  10.127 -0.2872  0.0044  0.2739
  620MOL0     C83590  10.457   1.254  10.141 -0.3224  0.4907  0.0410
  620MOL0     C83591  10.387   1.327  10.051 -0.0237  0.2986  1.8061
  620MOL0     C83592  10.248   1.322  10.054 -0.1662  0.3773  0.0731
  620MOL0     C83593  10.175   1.404   9.954 -0.2211  0.0162 -0.1638
  620MOL0     C83594  10.178   1.230  10.141 -0.2723 -0.4176  0.4935
  620MOL0     C83595  10.031   1.209  10.148 -0.4201  0.4256 -0.9941
  620MOL0     O83596   9.994   1.093  10.212 -0.2164 -0.6243 -0.0763
  620MOL0     C83597   9.872   1.054  10.206  0.2246 -0.6200 -0.8386
  620MOL0     C83598   9.824   0.977  10.097 -0.0346 -0.1030  0.2226
  620MOL0     C83599   9.689   0.942  10.085  0.1454  0.6495  0.9084
  620MOL0     C83600   9.609   0.967  10.188  1.2201  0.3793  0.2412
  620MOL0     O83601   9.482   0.905  10.165  0.4914  0.8593 -0.2341
  620MOL0     C83602   9.396   0.901  10.276  0.5632  0.0896 -0.5150
  620MOL0     C83603   9.436   0.780  10.362 -0.5690  0.0352  0.0367
  620MOL0     C83604   9.330   0.753  10.463  0.1853  0.0525  0.2628
  620MOL0     C83605   9.381   0.650  10.560 -0.1368 -0.3178  0.5241
  620MOL0     C83606   9.271   0.600  10.662 -0.2699  0.1635  0.5193
  620MOL0     C83607   9.324   0.505  10.777  0.3094  0.0369  0.3169
  620MOL0     C83608   9.391   0.581  10.891 -0.4620 -0.2481 -0.0115
  620MOL0     C83609   9.467   0.487  10.983  0.3093 -0.1137 -0.3165
  620MOL0    Cl83610   9.484   0.573  11.143 -0.0698  0.0283  0.0138
  620MOL0     C83611   9.650   1.042  10.304  0.2529 -0.0558 -0.0837
  620MOL0     C83612   9.780   1.095  10.304 -1.0332 -0.5152  0.3963
  620MOL0     O83613   9.957   1.271  10.078  0.3750 -0.4437 -0.1262
  620MOL0     C83614  10.254   1.157  10.234  0.1750  0.0159 -0.0659
  620MOL0     C83615  10.391   1.163  10.226  0.5112  0.9349  0.1914
  620MOL0     N83616  10.617   0.806  10.157  0.0182  0.1111  0.4246
  620MOL0     N83617  10.514   0.726  10.163  0.4382 -0.8933  0.5495
  620MOL0     C83618   9.920   0.659  10.951  1.3142 -0.5632 -0.5670
  620MOL0     C83619  10.034   0.619  11.013 -0.5773 -0.1520  0.4061
  620MOL0     C83620  10.395   0.657  11.284 -0.4492 -0.2224 -0.4718
  620MOL0     C83621  10.418   0.644  11.427  0.7611 -0.5879  0.2857
  620MOL0     C83622  10.531   0.580  11.468 -0.0286 -0.0569 -0.2756
  620MOL0     C83623  10.635   0.539  11.387  0.3689 -0.3044 -0.3844
  620MOL0     O83624  10.749   0.481  11.434  0.1861 -0.0870 -0.3387
  620MOL0     C83625  10.784   0.458  11.570  0.8473  0.5441 -1.0346
  620MOL0     C83626  10.840   0.575  11.649  0.0257 -0.1260  0.1435
  620MOL0     C83627  10.933   0.665  11.572 -0.6458 -0.0903 -0.0233
  620MOL0     C83628  11.021   0.762  11.661  0.5175  0.4739  0.4550
  620MOL0     C83629  11.112   0.846  11.587 -0.4036 -0.0312  0.8535
  620MOL0     C83630  11.178   0.936  11.541  0.1570  0.5270 -0.1179
  620MOL0     C83631  10.612   0.555  11.251  0.2151 -0.6820  0.3025
  620MOL0     C83632  10.497   0.622  11.198  0.0586 -0.3427  0.8366
  620MOL0     H83633  10.187   0.923  11.011  0.1034 -0.4694  2.5235
  620MOL0     H83634   9.970   0.988  10.903 -0.1603 -1.1117 -1.1707
  620MOL0     H83635   9.701   0.639  10.728  2.0494 -2.1443  1.9898
  620MOL0     H83636   9.671   0.789  10.646 -0.9150 -0.5341  1.6063
  620MOL0     H83637   9.949   0.679  10.654  1.7026 -0.0904 -1.8652
  620MOL0     H83638   9.820   0.650  10.526 -1.7689  1.1246  0.1359
  620MOL0     H83639   9.828   0.922  10.529  2.5162  2.6807 -1.4123
  620MOL0     H83640   9.977   0.879  10.637  0.1810  0.3588  0.1590
  620MOL0     H83641   9.942   0.839  10.349 -0.3738  2.0243  0.8528
  620MOL0     H83642  10.060   0.931  10.439  0.5516 -0.7364  0.3312
  620MOL0     H83643  10.151   0.724  10.534  6.5032  0.5759 -1.9142
  620MOL0     H83644  10.057   0.630  10.414 -2.8002  1.4149  1.5366
  620MOL0     H83645  10.302   0.819  10.377  0.1102  0.2078 -1.1044
  620MOL0     H83646  10.276   0.647  10.348 -0.5025 -0.8572 -0.8445
  620MOL0     H83647  10.083   0.715  10.175  0.9545  0.3992 -4.5640
  620MOL0     H83648  10.151   0.869  10.184 -1.3987 -0.4989  0.6095
  620MOL0     H83649  10.222   0.738   9.997 -0.1656  0.1942 -0.1168
  620MOL0     H83650  10.304   0.619  10.095 -0.2780 -0.0528 -0.7008
  620MOL0     H83651  10.400   0.976   9.984  0.6319 -0.8739 -1.3819
  620MOL0     H83652  10.758   0.938   9.953 -2.2170  0.8058 -3.2727
  620MOL0     H83653  10.662   1.079   9.960 -2.5927  1.2921  1.7093
  620MOL0     H83654  10.885   1.092  10.111  2.3385 -3.6273 -0.0844
  620MOL0     H83655  10.829   0.939  10.174 -0.5086  1.4195  0.0804
  620MOL0     H83656  10.803   1.086  10.339  1.2809 -1.5561 -0.3617
  620MOL0     H83657  10.653   1.019  10.293  1.1121 -0.5992 -0.9296
  620MOL0     H83658  10.770   1.297  10.207 -0.4326  0.4003 -1.2636
  620MOL0     H83659  10.635   1.284  10.318 -1.0743  2.5222 -3.0418
  620MOL0     H83660  10.451   1.394   9.995 -0.0760  1.5358  3.1527
  620MOL0     H83661  10.116   1.479  10.009 -1.1536 -1.4338  0.9071
  620MOL0     H83662  10.249   1.447   9.887  0.9017 -0.9532  0.4077
  620MOL0     H83663  10.117   1.350   9.878  3.0662  2.2118 -4.6565
  620MOL0     H83664   9.897   0.954  10.019  2.0442  3.4695  0.8669
  620MOL0     H83665   9.641   0.896   9.999 -1.8587 -0.5877  2.5841
  620MOL0     H83666   9.391   1.002  10.318  3.0007  0.6002 -1.2761
  620MOL0     H83667   9.303   0.868  10.229  1.6859 -0.1660 -2.6732
  620MOL0     H83668   9.443   0.695  10.294  1.0114 -0.7286  1.1035
  620MOL0     H83669   9.536   0.789  10.405 -0.7490 -0.6281  0.6025
  620MOL0     H83670   9.238   0.724  10.411 -0.4652  3.2979 -0.6385
  620MOL0     H83671   9.307   0.844  10.521 -1.3358 -1.2961  1.9103
  620MOL0     H83672   9.416   0.563  10.503  2.0516  0.5722  0.4027
  620MOL0     H83673   9.472   0.683  10.611 -1.9658  0.1910  3.7540
  620MOL0     H83674   9.200   0.547  10.597 -1.7486  3.0852 -0.4378
  620MOL0     H83675   9.223   0.676  10.725 -1.3877 -1.2220  1.4013
  620MOL0     H83676   9.238   0.453  10.820  2.0106 -0.5432  3.3159
  620MOL0     H83677   9.387   0.423  10.739 -1.3894 -1.1507 -0.0492
  620MOL0     H83678   9.309   0.627  10.947 -0.6307 -0.8616  0.2541
  620MOL0     H83679   9.467   0.652  10.857 -0.0889  0.2050  1.7102
  620MOL0     H83680   9.566   0.456  10.948  0.8758  0.4998  0.6806
  620MOL0     H83681   9.417   0.391  10.998 -0.4994  0.2313 -0.7574
  620MOL0     H83682   9.591   1.070  10.390 -1.0783  1.1094 -1.3180
  620MOL0     H83683   9.820   1.159  10.382 -0.5695  0.0781 -0.3197
  620MOL0     H83684  10.221   1.091  10.313  1.0297 -0.0041  0.2854
  620MOL0     H83685  10.449   1.105  10.296 -0.1997  1.6373  1.3958
  620MOL0     H83686   9.853   0.583  10.913 -0.9386 -0.0182  1.9925
  620MOL0     H83687  10.045   0.513  11.032  3.0821  0.2532  1.2654
  620MOL0     H83688  10.334   0.669  11.491  1.7312 -1.1029  1.7988
  620MOL0     H83689  10.541   0.557  11.574 -0.1991 -2.3214 -0.7079
  620MOL0     H83690  10.704   0.412  11.628 -0.6293  4.8175  0.7285
  620MOL0     H83691  10.864   0.385  11.558  0.4902 -0.6084  2.4219
  620MOL0     H83692  10.890   0.543  11.741  0.5418  0.6164  0.1216
  620MOL0     H83693  10.749   0.633  11.668 -0.1790  0.4428 -2.3262
  620MOL0     H83694  10.872   0.720  11.499 -1.0221 -1.2814 -0.6417
  620MOL0     H83695  11.004   0.602  11.518 -1.2373 -1.9152  1.2323
  620MOL0     H83696  11.079   0.706  11.735 -1.6548  1.2465  2.8938
  620MOL0     H83697  10.952   0.825  11.718 -1.2626 -0.5653 -0.4711
  620MOL0     H83698  11.242   1.019  11.517  0.4647  0.0074 -1.1438
  620MOL0     H83699  10.688   0.519  11.182 -0.3208 -3.1982  0.9159
  620MOL0     H83700  10.496   0.642  11.092 -0.2373  0.2854  0.9468
  621MOL0     O83701   6.300   8.664   5.688 -0.5602  0.2217 -0.6221
  621MOL0     C83702   6.228   8.575   5.638 -1.1223 -0.6966  0.2397
  621MOL0     O83703   6.161   8.471   5.706 -0.5749 -0.2250  1.2537
  621MOL0     C83704   6.149   8.465   5.840  0.9490 -0.6925 -0.8060
  621MOL0     C83705   6.241   8.519   5.937  0.6030 -0.2876  1.1410
  621MOL0     C83706   6.221   8.509   6.075 -0.3201  0.3113 -0.4366
  621MOL0     C83707   6.118   8.439   6.127  0.1597 -0.1536  0.2321
  621MOL0     O83708   6.101   8.444   6.259  0.3500 -0.2634  0.0622
  621MOL0     C83709   6.080   8.322   6.322 -0.6329  0.5571 -1.0331
  621MOL0     C83710   6.153   8.201   6.255  0.0208  0.2878 -0.1300
  621MOL0     C83711   6.153   8.086   6.359 -0.1327  0.1151 -0.2310
  621MOL0     C83712   6.223   7.967   6.293 -0.4708  0.5367  0.3481
  621MOL0     C83713   6.262   7.862   6.387 -0.2238 -0.4659 -0.5798
  621MOL0     C83714   6.153   7.819   6.480 -0.1052 -0.0548 -0.3631
  621MOL0     C83715   6.211   7.710   6.571  0.0145 -0.4132  1.0136
  621MOL0     C83716   6.327   7.753   6.659  0.2968  0.1889 -0.3291
  621MOL0     N83717   6.294   7.871   6.741 -0.0051  0.4495 -0.3554
  621MOL0     C83718   6.194   7.875   6.832  0.6124 -0.2620  0.4356
  621MOL0     C83719   6.171   8.002   6.846  0.2982  0.5722  0.0868
  621MOL0     C83720   6.059   8.063   6.934 -0.6957  0.5474 -0.6263
  621MOL0     C83721   5.915   8.055   6.879  0.1948  0.7950 -0.3127
  621MOL0     C83722   5.904   8.099   6.730  0.0806 -0.3020 -0.0286
  621MOL0     C83723   5.758   8.119   6.685  0.2207 -1.3434 -0.8270
  621MOL0     O83724   5.749   8.156   6.538 -0.5567  0.0933 -0.9653
  621MOL0     C83725   5.776   8.055   6.448  0.5983  0.2506  0.4563
  621MOL0     C83726   5.793   7.915   6.475  0.4189 -0.0887  0.6197
  621MOL0     C83727   5.810   7.819   6.380  0.0703  0.1117 -0.4509
  621MOL0     C83728   5.807   7.665   6.417 -0.5097  0.1208 -0.6131
  621MOL0     C83729   5.841   7.867   6.251 -0.3161  0.5592 -1.3329
  621MOL0     C83730   5.910   7.773   6.163  0.5004  0.8868  0.0992
  621MOL0     O83731   6.012   7.690   6.209  0.2641 -0.1140 -0.2300
  621MOL0     C83732   6.084   7.623   6.111 -1.1315 -0.1960 -0.0710
  621MOL0     C83733   6.172   7.693   6.030 -0.5968 -0.2594  0.2125
  621MOL0     C83734   6.263   7.618   5.948 -0.4208  0.4406  0.5040
  621MOL0     C83735   6.267   7.480   5.956 -0.5672  0.0963 -0.6249
  621MOL0     O83736   6.366   7.418   5.874  0.3605 -0.0735 -0.8289
  621MOL0     C83737   6.373   7.270   5.869  0.3507 -0.5634  0.5676
  621MOL0     C83738   6.452   7.211   5.994  0.2145 -0.3512 -0.1592
  621MOL0     C83739   6.444   7.067   6.030 -0.0778  0.3164 -0.2889
  621MOL0     C83740   6.570   6.981   5.990  0.1167  0.7263 -0.1613
  621MOL0     C83741   6.566   6.947   5.839 -1.2813  0.7062  0.5544
  621MOL0     C83742   6.695   6.931   5.761  0.1503 -0.0077  0.0669
  621MOL0     C83743   6.778   7.056   5.711 -0.3659 -0.0742  0.1087
  621MOL0     C83744   6.711   7.139   5.599  0.4225  0.4181  0.3547
  621MOL0    Cl83745   6.701   7.034   5.445 -0.0853  0.1382  0.1150
  621MOL0     C83746   6.183   7.417   6.043 -0.0094  0.1128  0.4902
  621MOL0     C83747   6.090   7.490   6.119  0.3557  0.9185  0.1771
  621MOL0     O83748   5.867   7.771   6.047 -0.7033  0.1233 -0.1911
  621MOL0     C83749   5.830   8.001   6.212 -0.2976 -0.2737 -0.0259
  621MOL0     C83750   5.798   8.090   6.313  0.6527  0.1567  0.2469
  621MOL0     N83751   6.257   8.078   6.758 -0.0037 -0.4517 -0.0883
  621MOL0     N83752   6.336   7.992   6.703 -0.4422  0.0357 -0.2527
  621MOL0     C83753   6.018   8.386   6.036 -0.6761 -0.4388  0.5261
  621MOL0     C83754   6.028   8.404   5.897 -0.0457  0.3260 -0.7224
  621MOL0     C83755   6.204   8.583   5.486 -0.0933  0.6734  0.1663
  621MOL0     C83756   6.139   8.481   5.421 -0.5032  0.8062  1.0102
  621MOL0     C83757   6.146   8.490   5.277  0.6741  0.4112 -1.0051
  621MOL0     C83758   6.206   8.595   5.203  0.3039 -0.6273 -1.3281
  621MOL0     O83759   6.198   8.597   5.072 -1.0280 -0.3759 -0.6756
  621MOL0     C83760   6.138   8.508   4.993 -0.5010  0.9817  0.9057
  621MOL0     C83761   6.151   8.573   4.852  0.4754  0.0231  0.5374
  621MOL0     C83762   6.084   8.714   4.855  0.3694  0.5525 -2.3326
  621MOL0     C83763   6.113   8.784   4.725  0.1610 -0.8136  0.4086
  621MOL0     C83764   6.020   8.896   4.704 -0.2829 -0.7531  0.2903
  621MOL0     C83765   5.958   9.003   4.699  0.6256  1.3375 -0.7056
  621MOL0     C83766   6.264   8.697   5.274 -0.6895 -0.8299  1.1029
  621MOL0     C83767   6.256   8.696   5.416  0.0195  0.3389  0.3907
  621MOL0     H83768   6.337   8.563   5.910  0.0869 -0.5301 -1.3203
  621MOL0     H83769   6.284   8.553   6.151 -0.2349 -0.2222 -0.1933
  621MOL0     H83770   6.139   8.333   6.414 -1.3878  1.9372 -0.6765
  621MOL0     H83771   5.975   8.303   6.345 -0.4383 -4.1403 -2.9568
  621MOL0     H83772   6.096   8.165   6.168 -3.2952  0.5028  1.8071
  621MOL0     H83773   6.256   8.223   6.224  0.6375 -0.9980  0.8827
  621MOL0     H83774   6.203   8.118   6.451 -1.1040 -0.9516  0.7088
  621MOL0     H83775   6.054   8.047   6.387 -0.1979  0.9502  0.7417
  621MOL0     H83776   6.157   7.920   6.220 -1.3166  1.8330  0.2288
  621MOL0     H83777   6.314   8.004   6.246 -0.0339 -1.4487 -0.4441
  621MOL0     H83778   6.309   7.779   6.333 -1.4781 -0.6722 -1.3812
  621MOL0     H83779   6.353   7.895   6.439 -0.3909  0.5689 -0.9154
  621MOL0     H83780   6.113   7.905   6.534 -0.2806 -0.8406  0.8068
  621MOL0     H83781   6.070   7.780   6.421 -1.8755  0.7182  1.5227
  621MOL0     H83782   6.132   7.662   6.630  1.0835 -3.0463  0.4654
  621MOL0     H83783   6.249   7.628   6.508 -1.9615 -0.9417  0.4186
  621MOL0     H83784   6.412   7.768   6.591  0.8113 -0.0815  0.2411
  621MOL0     H83785   6.369   7.668   6.712  2.3072  0.8858 -0.6881
  621MOL0     H83786   6.131   7.803   6.883  0.1359  0.4848  0.9329
  621MOL0     H83787   6.052   8.001   7.024  0.5052 -1.0628 -1.6032
  621MOL0     H83788   6.092   8.163   6.964  0.0969 -0.0525  0.6018
  621MOL0     H83789   5.840   8.107   6.940 -0.0993 -0.3382  0.3082
  621MOL0     H83790   5.893   7.948   6.878  3.7433 -0.0474 -0.0915
  621MOL0     H83791   5.959   8.031   6.665  0.7297  2.7547 -2.9960
  621MOL0     H83792   5.966   8.186   6.705  1.8681 -1.3809  0.4694
  621MOL0     H83793   5.714   8.193   6.753 -1.1811 -4.5222  2.0307
  621MOL0     H83794   5.714   8.020   6.700  0.7946 -1.2787  1.9448
  621MOL0     H83795   5.762   7.874   6.571 -0.5065 -2.2634 -0.5595
  621MOL0     H83796   5.728   7.659   6.493  0.5749  1.9807  0.7610
  621MOL0     H83797   5.805   7.597   6.332  1.2543 -1.1271  0.2752
  621MOL0     H83798   5.898   7.635   6.469 -0.6500 -1.1546 -1.0790
  621MOL0     H83799   6.171   7.801   6.035 -0.7351 -0.2540  0.0818
  621MOL0     H83800   6.329   7.669   5.879 -0.2820 -1.4068 -0.8100
  621MOL0     H83801   6.274   7.227   5.855 -0.3271  0.6309  1.4661
  621MOL0     H83802   6.426   7.255   5.774 -0.0755  0.7063  0.1123
  621MOL0     H83803   6.549   7.259   6.011  0.4002 -0.6197 -0.4447
  621MOL0     H83804   6.396   7.258   6.076 -0.7800 -3.0752  0.8351
  621MOL0     H83805   6.350   7.023   5.995  1.6563 -2.3176 -1.9238
  621MOL0     H83806   6.426   7.066   6.138  0.2060  3.1624 -0.1336
  621MOL0     H83807   6.659   7.043   5.997 -1.0809  2.8200 -2.1364
  621MOL0     H83808   6.567   6.890   6.051 -1.5335 -0.0214 -1.2655
  621MOL0     H83809   6.514   7.018   5.775 -0.0134 -1.0912 -2.7079
  621MOL0     H83810   6.513   6.851   5.831  2.2875 -1.2756 -2.9137
  621MOL0     H83811   6.769   6.872   5.815  0.0588  0.7929  1.1047
  621MOL0     H83812   6.660   6.884   5.669 -0.5080  2.9438 -1.3253
  621MOL0     H83813   6.871   7.022   5.665 -0.8302 -1.1202 -0.0750
  621MOL0     H83814   6.794   7.125   5.795  0.4020  1.1328 -0.9803
  621MOL0     H83815   6.776   7.224   5.574  1.6741 -0.7975 -0.7153
  621MOL0     H83816   6.607   7.164   5.621  0.1450 -1.7925  1.8731
  621MOL0     H83817   6.178   7.311   6.067 -1.1530  0.2262  0.8211
  621MOL0     H83818   6.019   7.455   6.193  1.5762  1.2241  1.5420
  621MOL0     H83819   5.856   8.039   6.114 -0.7686  0.5665  0.1672
  621MOL0     H83820   5.786   8.194   6.284  0.6978 -0.8288 -3.7923
  621MOL0     H83821   5.925   8.346   6.076 -0.9452  0.6670  1.0595
  621MOL0     H83822   5.954   8.357   5.833 -2.2716  0.1869  1.7872
  621MOL0     H83823   6.116   8.389   5.473  5.4222 -2.1093 -0.6776
  621MOL0     H83824   6.079   8.424   5.223  0.8293  1.7361 -2.9248
  621MOL0     H83825   6.181   8.408   4.995  1.9969  1.9718  3.2874
  621MOL0     H83826   6.032   8.497   5.016  0.2470 -2.4047  3.4593
  621MOL0     H83827   6.103   8.508   4.778  0.3691 -0.5622  1.1166
  621MOL0     H83828   6.256   8.581   4.822 -0.2696  1.4833 -2.0438
  621MOL0     H83829   6.113   8.765   4.948  1.6031 -1.0458 -1.7960
  621MOL0     H83830   5.978   8.693   4.867  1.2645 -3.0412  1.3763
  621MOL0     H83831   6.099   8.711   4.644 -0.1894  0.3221 -0.5790
  621MOL0     H83832   6.214   8.825   4.714  0.4719 -1.4117  0.9266
  621MOL0     H83833   5.895   9.089   4.699 -3.2579 -1.1899  0.6414
  621MOL0     H83834   6.318   8.775   5.222 -4.3721  0.4095 -1.2752
  621MOL0     H83835   6.312   8.772   5.470 -1.1244  1.6160 -0.1614
  622MOL0     O83836   0.985   8.639   3.114 -0.2887 -0.5300 -0.2086
  622MOL0     C83837   0.992   8.546   3.189 -0.1551  0.5427  0.2065
  622MOL0     O83838   0.893   8.457   3.209 -0.4932 -0.3444 -0.1453
  622MOL0     C83839   0.768   8.483   3.156 -0.8770  0.9902  0.4107
  622MOL0     C83840   0.724   8.435   3.035 -0.5643  0.5742  1.1421
  622MOL0     C83841   0.597   8.475   2.983  0.2509  0.1997 -0.1544
  622MOL0     C83842   0.526   8.573   3.037  0.5001 -0.3910 -0.2248
  622MOL0     O83843   0.419   8.634   2.977  0.2532 -0.5034 -0.2890
  622MOL0     C83844   0.349   8.562   2.880 -0.7463  0.3992 -0.1822
  622MOL0     C83845   0.240   8.641   2.809  0.9186 -0.3428  0.1999
  622MOL0     C83846   0.151   8.716   2.930  1.2171  0.4113  0.0301
  622MOL0     C83847   0.017   8.787   2.883  0.1809  0.3416 -0.1112
  622MOL0     C83848  -0.046   8.883   2.989 -0.4328  0.9857  0.4597
  622MOL0     C83849  -0.159   8.962   2.920  0.3547  0.2047 -0.8907
  622MOL0     C83850  -0.259   9.027   3.024 -0.3451 -0.6984 -0.0646
  622MOL0     C83851  -0.338   8.943   3.121  0.3449 -0.6306  0.0675
  622MOL0     N83852  -0.426   9.022   3.207  0.3759  0.4933  0.3650
  622MOL0     C83853  -0.518   9.107   3.158 -0.4761 -0.2622  0.3625
  622MOL0     C83854  -0.580   9.142   3.277  0.9036 -0.6405 -0.2153
  622MOL0     C83855  -0.701   9.230   3.307  0.1486  0.0433  0.3539
  622MOL0     C83856  -0.671   9.373   3.355  0.6627  0.3005  0.8920
  622MOL0     C83857  -0.650   9.387   3.503  0.1937 -0.5180  0.0169
  622MOL0     C83858  -0.578   9.518   3.541  0.5344  0.3260  0.1101
  622MOL0     O83859  -0.578   9.526   3.686 -0.5371  0.0503  0.2742
  622MOL0     C83860  -0.701   9.526   3.754 -0.6214  0.4744 -0.6718
  622MOL0     C83861  -0.815   9.584   3.700 -0.8527 -0.0683 -0.2346
  622MOL0     C83862  -0.933   9.594   3.775 -0.5358 -0.1860 -0.5226
  622MOL0     C83863  -1.044   9.673   3.722 -0.7157  0.0757  0.3238
  622MOL0     C83864  -0.936   9.546   3.902 -0.0672  0.3837 -0.5736
  622MOL0     C83865  -1.050   9.571   3.997 -0.0238  0.9052 -0.2375
  622MOL0     O83866  -1.179   9.557   3.946 -0.0055  0.0723  0.1590
  622MOL0     C83867  -1.264   9.602   4.037  0.8718  0.5003  0.8362
  622MOL0     C83868  -1.292   9.510   4.134 -0.3566  0.7331 -0.4489
  622MOL0     C83869  -1.363   9.548   4.244  0.7918 -1.0067 -0.2428
  622MOL0     C83870  -1.422   9.677   4.254  0.4450  0.3889  0.3085
  622MOL0     O83871  -1.507   9.720   4.352  0.2105  0.7011 -0.0403
  622MOL0     C83872  -1.544   9.631   4.453  0.6181 -0.3493 -0.0633
  622MOL0     C83873  -1.448   9.642   4.580 -0.7063 -0.3839  0.8404
  622MOL0     C83874  -1.492   9.579   4.721 -0.6356  0.3111  0.4886
  622MOL0     C83875  -1.502   9.427   4.703  0.3480  0.2168 -0.2109
  622MOL0     C83876  -1.614   9.362   4.786 -0.5810  0.3361  0.6697
  622MOL0     C83877  -1.591   9.369   4.936 -0.3600 -0.0801 -0.1380
  622MOL0     C83878  -1.685   9.470   5.006 -0.7116 -0.0854 -0.6490
  622MOL0     C83879  -1.632   9.505   5.146  0.8224 -0.0013  1.4557
  622MOL0    Cl83880  -1.479   9.592   5.119 -0.2915  0.1402  0.4581
  622MOL0     C83881  -1.396   9.767   4.151  0.1851  0.3889 -0.4756
  622MOL0     C83882  -1.313   9.734   4.047 -0.2867  0.3205 -1.0119
  622MOL0     O83883  -1.013   9.621   4.105 -0.2740  0.7646 -0.4668
  622MOL0     C83884  -0.815   9.496   3.959  0.0716  0.3712  0.6233
  622MOL0     C83885  -0.695   9.487   3.889 -0.6569  0.2383  0.2716
  622MOL0     N83886  -0.529   9.071   3.390  0.0887 -0.9750 -0.9642
  622MOL0     N83887  -0.443   8.999   3.342  0.2184  1.0441 -0.8079
  622MOL0     C83888   0.567   8.619   3.162 -0.0438  0.5398 -0.0182
  622MOL0     C83889   0.682   8.579   3.226  0.0383 -0.5845  1.2195
  622MOL0     C83890   1.116   8.513   3.255  0.2841  0.1478 -0.5139
  622MOL0     C83891   1.226   8.597   3.251  0.5256 -0.3294 -0.0620
  622MOL0     C83892   1.347   8.566   3.320  0.7448 -0.1905  0.6651
  622MOL0     C83893   1.359   8.440   3.383 -0.0124 -0.1294 -0.6175
  622MOL0     O83894   1.470   8.403   3.460  0.2862  0.2381 -0.4754
  622MOL0     C83895   1.591   8.484   3.442  0.1966  0.1211  0.3997
  622MOL0     C83896   1.589   8.612   3.523  0.2045 -0.5215 -0.4938
  622MOL0     C83897   1.689   8.718   3.483  0.5488  0.4997 -0.3410
  622MOL0     C83898   1.839   8.680   3.459  0.2652 -0.5833 -0.4892
  622MOL0     C83899   1.890   8.597   3.570 -0.0129  0.4521  0.0503
  622MOL0     C83900   1.964   8.518   3.627 -0.1663 -0.6332 -0.1118
  622MOL0     C83901   1.240   8.369   3.409 -0.3240 -0.4626 -0.4439
  622MOL0     C83902   1.122   8.401   3.348  0.0297 -0.5204 -0.3046
  622MOL0     H83903   0.787   8.357   2.993 -1.5343  0.5593 -0.3584
  622MOL0     H83904   0.558   8.412   2.903  0.1168  0.8171 -0.5756
  622MOL0     H83905   0.405   8.516   2.798 -0.5605 -1.1107  0.7537
  622MOL0     H83906   0.298   8.483   2.937 -2.2398  1.4968  0.0783
  622MOL0     H83907   0.279   8.701   2.725 -2.7978 -0.2026 -1.6433
  622MOL0     H83908   0.166   8.572   2.767 -0.5063 -0.0236  2.0568
  622MOL0     H83909   0.112   8.650   3.008  0.6477  1.6715  0.8437
  622MOL0     H83910   0.216   8.791   2.977  1.3489  0.7650 -0.7067
  622MOL0     H83911   0.059   8.849   2.803  0.7604 -0.8875 -0.7873
  622MOL0     H83912  -0.050   8.710   2.845 -0.4976 -0.7771  3.0355
  622MOL0     H83913  -0.093   8.828   3.070  0.7089  1.3411  1.3925
  622MOL0     H83914   0.031   8.942   3.040 -2.2361  1.8329  2.3541
  622MOL0     H83915  -0.117   9.023   2.840  0.8872 -1.6077 -2.0534
  622MOL0     H83916  -0.229   8.893   2.872 -2.1901  1.0796  1.2861
  622MOL0     H83917  -0.200   9.097   3.083 -2.2155  0.1881  0.8340
  622MOL0     H83918  -0.333   9.086   2.968  1.2159  1.1711 -0.2658
  622MOL0     H83919  -0.273   8.877   3.179 -0.8725 -2.6621 -0.7989
  622MOL0     H83920  -0.410   8.882   3.066 -2.2597  0.9955  1.4709
  622MOL0     H83921  -0.535   9.148   3.059 -1.3725  1.6634  1.2497
  622MOL0     H83922  -0.754   9.234   3.211 -1.9150  0.5212  1.4549
  622MOL0     H83923  -0.767   9.182   3.380  0.1708 -1.7637 -0.7483
  622MOL0     H83924  -0.763   9.432   3.344  0.1127 -0.3760  1.7388
  622MOL0     H83925  -0.602   9.431   3.294 -2.5371  2.0104 -1.4300
  622MOL0     H83926  -0.584   9.311   3.544  0.3863  0.9456  2.6632
  622MOL0     H83927  -0.751   9.387   3.546  0.5425 -1.4512  0.8870
  622MOL0     H83928  -0.633   9.601   3.496 -0.2247 -1.1333 -1.7807
  622MOL0     H83929  -0.477   9.512   3.498  0.2642 -1.7515 -0.3538
  622MOL0     H83930  -0.815   9.628   3.601 -2.4444  0.1001 -0.1950
  622MOL0     H83931  -1.122   9.602   3.692 -1.9090  1.9274 -1.2737
  622MOL0     H83932  -1.087   9.742   3.796 -0.0491  3.0084 -1.8334
  622MOL0     H83933  -1.010   9.726   3.632 -0.5163 -2.6637 -1.3328
  622MOL0     H83934  -1.247   9.412   4.123 -0.4173  0.7052 -0.4413
  622MOL0     H83935  -1.365   9.477   4.326 -0.1575 -0.7965 -0.0702
  622MOL0     H83936  -1.645   9.665   4.478 -0.4032  0.9657 -4.9795
  622MOL0     H83937  -1.548   9.525   4.427 -0.3566  0.1319 -2.0431
  622MOL0     H83938  -1.354   9.595   4.551 -1.9308 -0.6097 -3.4028
  622MOL0     H83939  -1.426   9.746   4.608 -5.1843  0.0865  3.6845
  622MOL0     H83940  -1.591   9.620   4.740 -0.8453  0.5098 -0.9114
  622MOL0     H83941  -1.421   9.603   4.800  0.0454 -0.7059  0.2148
  622MOL0     H83942  -1.520   9.402   4.598 -1.5695 -3.1278  0.7701
  622MOL0     H83943  -1.413   9.367   4.727  0.2171  0.6428  1.4708
  622MOL0     H83944  -1.615   9.254   4.768 -0.2725  0.7221 -2.0809
  622MOL0     H83945  -1.717   9.389   4.763 -1.7565 -1.1747  3.6380
  622MOL0     H83946  -1.622   9.273   4.977  1.3946 -1.0922 -1.0812
  622MOL0     H83947  -1.485   9.372   4.959 -0.6620 -2.1905  1.8447
  622MOL0     H83948  -1.784   9.425   5.013 -0.6743 -0.0908 -0.1389
  622MOL0     H83949  -1.679   9.567   4.956  3.0973 -0.4352 -1.2126
  622MOL0     H83950  -1.618   9.413   5.205 -0.3315 -1.5163 -0.5017
  622MOL0     H83951  -1.705   9.574   5.190  0.6011  0.8448 -0.2052
  622MOL0     H83952  -1.444   9.864   4.161  0.0473  0.1957  1.0280
  622MOL0     H83953  -1.272   9.801   3.972 -0.7801  2.2524  0.3509
  622MOL0     H83954  -0.820   9.472   4.065 -0.8665 -0.2375  0.4544
  622MOL0     H83955  -0.608   9.459   3.946 -2.2561  0.9213  3.2243
  622MOL0     H83956   0.505   8.692   3.215  1.1425 -0.7297  3.3832
  622MOL0     H83957   0.718   8.614   3.323  0.5689 -1.4013  1.3298
  622MOL0     H83958   1.213   8.697   3.212  1.6864 -0.7928 -1.7654
  622MOL0     H83959   1.432   8.634   3.320  0.4673  0.2166  2.5365
  622MOL0     H83960   1.680   8.427   3.471 -0.0040 -0.9471 -0.9908
  622MOL0     H83961   1.594   8.495   3.334  1.6086 -0.3503  0.3682
  622MOL0     H83962   1.605   8.586   3.628 -2.9553  0.4090  0.3475
  622MOL0     H83963   1.490   8.659   3.525 -0.6978 -2.3391  2.0643
  622MOL0     H83964   1.691   8.787   3.567  4.7975  2.7706 -1.9852
  622MOL0     H83965   1.649   8.777   3.399 -1.1761  1.1909  0.9146
  622MOL0     H83966   1.891   8.776   3.454 -0.7927  0.0328 -0.0040
  622MOL0     H83967   1.849   8.622   3.367 -3.9958 -2.2029 -0.1593
  622MOL0     H83968   2.030   8.446   3.672  3.2621  2.3874  0.1787
  622MOL0     H83969   1.237   8.286   3.479  0.9407  1.0272  1.4728
  622MOL0     H83970   1.047   8.325   3.367  0.3963 -0.8200 -0.0228
  623MOL0     O83971   0.456   1.629   1.818  0.2176 -0.2039  0.2275
  623MOL0     C83972   0.448   1.668   1.703 -0.4931 -0.4301  0.9282
  623MOL0     O83973   0.537   1.634   1.596  0.5044 -0.3435 -0.2607
  623MOL0     C83974   0.647   1.557   1.621  0.1021 -0.2297  0.0865
  623MOL0     C83975   0.780   1.612   1.651  0.3351  0.3800 -0.3214
  623MOL0     C83976   0.881   1.531   1.704 -0.0645  0.1721 -1.1621
  623MOL0     C83977   0.856   1.397   1.701  0.2676  0.3186  0.6331
  623MOL0     O83978   0.962   1.315   1.743  0.5345  0.6406 -0.5678
  623MOL0     C83979   0.974   1.187   1.692 -0.3259  0.8520  0.0128
  623MOL0     C83980   1.112   1.133   1.728  0.8375 -0.7401  0.3332
  623MOL0     C83981   1.139   1.003   1.647  1.1052  0.1480  0.8632
  623MOL0     C83982   1.162   1.021   1.486  0.1092 -0.7553 -1.3187
  623MOL0     C83983   1.135   0.893   1.418  0.3481  0.6290  0.5500
  623MOL0     C83984   1.196   0.769   1.477 -0.5122  0.1733  0.0680
  623MOL0     C83985   1.188   0.642   1.392  0.4840 -0.2392 -0.1935
  623MOL0     C83986   1.051   0.586   1.402  0.3060 -0.4570  0.5842
  623MOL0     N83987   1.006   0.494   1.300  0.2445  0.7597  0.0528
  623MOL0     C83988   0.978   0.520   1.170 -0.1433 -0.5274 -1.0691
  623MOL0     C83989   0.948   0.404   1.112 -0.0680 -0.4489  0.2484
  623MOL0     C83990   0.895   0.379   0.977 -0.1021  0.6462 -1.1855
  623MOL0     C83991   0.740   0.380   0.978  0.8370  0.4569  0.1928
  623MOL0     C83992   0.674   0.384   0.836  0.6377  0.4395  0.0579
  623MOL0     C83993   0.522   0.367   0.859 -0.4339  0.5144  0.4705
  623MOL0     O83994   0.473   0.492   0.885 -0.4407  0.7433  0.0374
  623MOL0     C83995   0.344   0.528   0.847  0.2464  0.6344  0.0946
  623MOL0     C83996   0.251   0.558   0.948  0.2859 -0.3847  0.0926
  623MOL0     C83997   0.115   0.571   0.919  0.3344  0.0414 -0.2517
  623MOL0     C83998   0.015   0.588   1.026  0.4259 -0.8145 -1.7418
  623MOL0     C83999   0.064   0.570   0.785  0.2165 -1.1053 -0.7257
  623MOL0     C84000  -0.078   0.590   0.752  0.7130  0.0013 -0.4603
  623MOL0     O84001  -0.106   0.718   0.711 -0.8938 -0.0583 -0.0014
  623MOL0     C84002  -0.235   0.741   0.674  0.6782  0.9330 -0.5584
  623MOL0     C84003  -0.342   0.717   0.766 -0.7335 -0.2876  0.0480
  623MOL0     C84004  -0.471   0.751   0.733  0.5805 -0.0876 -0.1007
  623MOL0     C84005  -0.500   0.822   0.619 -0.3140 -0.0765  0.4401
  623MOL0     O84006  -0.624   0.857   0.580 -0.1487 -0.2306  0.1567
  623MOL0     C84007  -0.693   0.959   0.654  0.5874 -0.6142 -0.8322
  623MOL0     C84008  -0.769   1.045   0.555 -0.5537  0.8461  0.6553
  623MOL0     C84009  -0.867   0.957   0.480  0.3015  0.4930 -0.4343
  623MOL0     C84010  -0.946   1.049   0.383  0.0528  0.1998  0.9272
  623MOL0     C84011  -1.045   0.953   0.319  1.1295 -0.2924 -0.0639
  623MOL0     C84012  -1.119   1.024   0.198  0.1498 -0.4574  1.4559
  623MOL0     C84013  -1.251   0.961   0.147  0.8743  1.0656  0.1146
  623MOL0     C84014  -1.319   1.017   0.023 -0.9356 -0.1508 -0.6521
  623MOL0    Cl84015  -1.371   1.185   0.037  0.0244  0.0864 -0.1025
  623MOL0     C84016  -0.393   0.846   0.526  0.0743  0.6006  0.1815
  623MOL0     C84017  -0.267   0.791   0.554 -0.8977 -0.4262 -0.1604
  623MOL0     O84018  -0.155   0.495   0.764 -0.0534 -0.0901  0.1726
  623MOL0     C84019   0.157   0.548   0.686 -0.7902 -0.0936  0.4633
  623MOL0     C84020   0.293   0.525   0.720  0.6828 -0.3334 -0.2014
  623MOL0     N84021   0.968   0.302   1.204 -0.3871 -0.2641  0.0593
  623MOL0     N84022   1.001   0.355   1.315  0.2283 -0.2602  0.4756
  623MOL0     C84023   0.732   1.340   1.659  0.3028 -0.3610  0.4379
  623MOL0     C84024   0.630   1.418   1.624 -0.7883 -1.2240 -0.3614
  623MOL0     C84025   0.328   1.754   1.670  0.4364  0.6813 -0.1493
  623MOL0     C84026   0.314   1.810   1.538 -0.0330  0.2135  0.3952
  623MOL0     C84027   0.199   1.887   1.502 -0.5924  0.4262 -0.3110
  623MOL0     C84028   0.104   1.917   1.603  0.5754 -0.2831 -0.1513
  623MOL0     O84029  -0.016   1.980   1.579  0.4236 -0.0767 -0.1441
  623MOL0     C84030  -0.057   1.997   1.437  0.6772 -0.2176 -1.0218
  623MOL0     C84031  -0.116   1.861   1.390  1.3089  0.4151 -0.1849
  623MOL0     C84032  -0.265   1.843   1.436  0.7643  0.6042  0.7244
  623MOL0     C84033  -0.299   1.849   1.586  0.1206 -0.7353  0.0736
  623MOL0     C84034  -0.233   1.742   1.661 -0.9397 -0.3214  0.3540
  623MOL0     C84035  -0.182   1.660   1.723 -0.4733  0.2452  0.2221
  623MOL0     C84036   0.122   1.885   1.734 -0.2556 -0.1561  0.5124
  623MOL0     C84037   0.236   1.809   1.767 -0.1167 -0.9331 -0.2580
  623MOL0     H84038   0.797   1.719   1.650  1.5179  0.2735 -3.8053
  623MOL0     H84039   0.979   1.565   1.736 -0.8035 -0.7929  2.5309
  623MOL0     H84040   0.898   1.123   1.737  1.2937  0.1513  1.9052
  623MOL0     H84041   0.962   1.180   1.584 -0.9534  1.0346  0.0652
  623MOL0     H84042   1.190   1.202   1.695  1.0735 -0.0925  2.1568
  623MOL0     H84043   1.122   1.123   1.837  0.2541  1.6502  0.6680
  623MOL0     H84044   1.220   0.955   1.703 -1.2868  0.5474  5.0461
  623MOL0     H84045   1.049   0.943   1.667  0.5867  1.6831  3.7105
  623MOL0     H84046   1.107   1.109   1.451  1.2126  0.8725  0.8154
  623MOL0     H84047   1.264   1.060   1.478  0.3113  0.5146  3.8747
  623MOL0     H84048   1.027   0.874   1.423  0.8239 -2.5372  1.2598
  623MOL0     H84049   1.170   0.894   1.315 -1.7871 -0.4528 -0.2465
  623MOL0     H84050   1.302   0.796   1.484 -0.5819  0.0994  1.6553
  623MOL0     H84051   1.156   0.755   1.578  0.1268 -0.2003  0.2720
  623MOL0     H84052   1.196   0.666   1.285  1.1267  0.7344  0.0682
  623MOL0     H84053   1.270   0.575   1.420  1.2563 -0.9192 -3.5309
  623MOL0     H84054   0.979   0.668   1.394  0.8984  0.0734  0.6523
  623MOL0     H84055   1.038   0.544   1.502 -3.3569  2.5424  1.5988
  623MOL0     H84056   0.950   0.613   1.122  0.6309 -1.4813 -3.5357
  623MOL0     H84057   0.928   0.466   0.920  0.3315  0.5888 -1.0263
  623MOL0     H84058   0.929   0.287   0.929 -2.0334 -0.2780 -0.8793
  623MOL0     H84059   0.689   0.460   1.033 -0.9249 -0.6984  0.2865
  623MOL0     H84060   0.713   0.289   1.032 -0.0999  0.5098 -0.1666
  623MOL0     H84061   0.706   0.292   0.785 -4.2602 -1.5767  0.0339
  623MOL0     H84062   0.708   0.477   0.790  0.6374  0.4315  0.0415
  623MOL0     H84063   0.496   0.303   0.944 -2.0469  2.7620  1.7667
  623MOL0     H84064   0.485   0.324   0.765 -1.0856 -0.0415  0.9695
  623MOL0     H84065   0.299   0.554   1.046  2.1055  0.6985 -0.7001
  623MOL0     H84066   0.063   0.598   1.124 -3.3250 -3.8119  0.7094
  623MOL0     H84067  -0.043   0.680   1.025  1.0996 -0.2300  1.5735
  623MOL0     H84068  -0.052   0.502   1.030 -1.2647  0.4992 -0.1733
  623MOL0     H84069  -0.332   0.681   0.868  0.1934 -0.6824 -0.1646
  623MOL0     H84070  -0.550   0.730   0.804  0.6224 -0.3663 -0.1338
  623MOL0     H84071  -0.764   0.904   0.717  1.8249 -1.4461 -0.1164
  623MOL0     H84072  -0.617   1.014   0.711 -0.1934 -0.5801  0.2149
  623MOL0     H84073  -0.810   1.132   0.607 -1.4083  1.0343 -0.3042
  623MOL0     H84074  -0.708   1.080   0.471 -2.8008  1.2401 -0.9092
  623MOL0     H84075  -0.943   0.915   0.547 -0.4947  3.9590  1.0311
  623MOL0     H84076  -0.815   0.872   0.433  0.2838 -1.4767  2.8409
  623MOL0     H84077  -1.002   1.126   0.436  1.0563  1.7913 -0.2400
  623MOL0     H84078  -0.879   1.092   0.307 -2.2750  2.7273  0.1649
  623MOL0     H84079  -1.120   0.933   0.396 -0.1599 -0.5587 -1.3338
  623MOL0     H84080  -0.989   0.862   0.295 -0.9777 -1.8158  0.5049
  623MOL0     H84081  -1.148   1.125   0.227 -0.7644  0.7008 -2.7800
  623MOL0     H84082  -1.047   1.038   0.117 -2.2933  0.6908 -0.7028
  623MOL0     H84083  -1.324   0.957   0.228 -0.0354  0.2513 -0.7102
  623MOL0     H84084  -1.225   0.859   0.118  0.0613  0.7285  0.5337
  623MOL0     H84085  -1.398   0.945   0.001 -1.0063 -0.7000  1.2162
  623MOL0     H84086  -1.239   1.015  -0.052  2.1752  1.3657  2.3089
  623MOL0     H84087  -0.408   0.896   0.431 -0.3830  0.7876  0.3485
  623MOL0     H84088  -0.185   0.805   0.485 -0.8874  1.5900  0.2166
  623MOL0     H84089   0.118   0.555   0.585 -1.3860  2.9675  0.8079
  623MOL0     H84090   0.364   0.496   0.642  1.0687  0.0078  0.0190
  623MOL0     H84091   0.706   1.236   1.674  1.3772 -0.3720  2.5220
  623MOL0     H84092   0.536   1.372   1.596 -0.4188 -1.9183 -0.4661
  623MOL0     H84093   0.378   1.784   1.454  1.6447  0.5154  1.5237
  623MOL0     H84094   0.186   1.914   1.397 -2.4580 -2.1182 -0.8343
  623MOL0     H84095  -0.136   2.073   1.433 -2.1246 -2.2560  4.7059
  623MOL0     H84096   0.022   2.038   1.374  0.2304  0.0939 -1.3915
  623MOL0     H84097  -0.073   1.771   1.435 -0.2884 -0.0335  0.5236
  623MOL0     H84098  -0.108   1.860   1.281  1.8307  2.8452 -0.2259
  623MOL0     H84099  -0.294   1.744   1.398  2.9584 -0.5832  1.9427
  623MOL0     H84100  -0.325   1.910   1.374  0.0747  1.7471  2.5420
  623MOL0     H84101  -0.406   1.854   1.607  0.0178 -2.3175  0.0313
  623MOL0     H84102  -0.255   1.935   1.638  3.3473 -2.3179  0.1840
  623MOL0     H84103  -0.139   1.587   1.789  0.5256  0.2157 -0.4309
  623MOL0     H84104   0.046   1.911   1.807 -2.3118 -0.7038 -1.3346
  623MOL0     H84105   0.242   1.785   1.873 -0.4898  3.3041  0.9148
  624MOL0     O84106   9.552   4.955   9.520  0.4281  0.0021  0.0342
  624MOL0     C84107   9.629   4.890   9.449 -0.0737  0.7163 -0.5355
  624MOL0     O84108   9.608   4.759   9.409 -0.1214  0.0083  0.2207
  624MOL0     C84109   9.490   4.701   9.449 -0.0995 -0.3669  0.2326
  624MOL0     C84110   9.512   4.607   9.552  0.2766  0.0132 -0.1439
  624MOL0     C84111   9.396   4.544   9.603 -0.0498 -0.0559  0.3786
  624MOL0     C84112   9.267   4.586   9.557  0.4380  0.6755  0.0194
  624MOL0     O84113   9.153   4.532   9.621 -0.6369  0.2897  0.5387
  624MOL0     C84114   9.024   4.512   9.555  0.5341 -0.0020 -0.2236
  624MOL0     C84115   8.937   4.637   9.563  0.3112  0.1451  0.3056
  624MOL0     C84116   8.779   4.615   9.585 -0.9644 -0.0899 -0.8644
  624MOL0     C84117   8.695   4.570   9.458  0.3418  0.1110 -0.2108
  624MOL0     C84118   8.541   4.559   9.488 -0.9760  0.5462  0.1223
  624MOL0     C84119   8.456   4.581   9.370 -0.3311  0.5025 -0.4689
  624MOL0     C84120   8.304   4.565   9.385 -0.9987 -1.1725 -0.0054
  624MOL0     C84121   8.241   4.657   9.490  0.1330  0.4581  0.5303
  624MOL0     N84122   8.267   4.801   9.463  0.3318 -0.4061 -0.3471
  624MOL0     C84123   8.260   4.879   9.348  0.5146  0.7043  0.0320
  624MOL0     C84124   8.299   5.005   9.381 -0.6166 -0.1592 -1.1724
  624MOL0     C84125   8.325   5.111   9.281  0.3410 -0.2269 -0.4298
  624MOL0     C84126   8.375   5.240   9.354  0.6971  0.2430 -0.4734
  624MOL0     C84127   8.442   5.342   9.257  0.4693  0.3326 -0.5524
  624MOL0     C84128   8.357   5.390   9.133 -0.5762  0.6586 -0.0998
  624MOL0     O84129   8.404   5.522   9.089 -0.1282  0.2251 -0.3610
  624MOL0     C84130   8.513   5.530   9.003  0.1041  0.7426 -0.4842
  624MOL0     C84131   8.599   5.630   9.015  0.7612 -0.0772 -0.5331
  624MOL0     C84132   8.719   5.649   8.940  0.7313 -0.3411 -0.9566
  624MOL0     C84133   8.813   5.757   8.981 -0.7830 -0.7156 -0.3522
  624MOL0     C84134   8.749   5.566   8.827  0.0663  0.0937 -0.2804
  624MOL0     C84135   8.863   5.578   8.724  0.5253 -0.4507 -0.4191
  624MOL0     O84136   8.848   5.497   8.602 -0.4370  0.0683  0.1080
  624MOL0     C84137   8.921   5.541   8.500  0.2789  0.3316  0.2122
  624MOL0     C84138   8.910   5.681   8.451  0.7549  0.3946 -0.4575
  624MOL0     C84139   8.980   5.716   8.334  0.3074  0.7185  1.1398
  624MOL0     C84140   9.034   5.614   8.252 -0.1027  0.6756 -0.6082
  624MOL0     O84141   9.078   5.625   8.130 -0.1316 -0.5353 -0.3483
  624MOL0     C84142   9.035   5.738   8.049  0.5750  0.4638  0.2097
  624MOL0     C84143   9.099   5.719   7.914  0.0609 -0.1497 -0.3274
  624MOL0     C84144   9.101   5.852   7.827  0.1998 -0.4259 -0.3390
  624MOL0     C84145   9.202   5.830   7.711  0.2157  0.3882  0.2173
  624MOL0     C84146   9.166   5.895   7.575 -0.0236  0.0883  1.1981
  624MOL0     C84147   9.261   5.851   7.464  0.0455 -0.2442  0.4322
  624MOL0     C84148   9.211   5.864   7.316  0.7982  0.5990 -0.7332
  624MOL0     C84149   9.313   5.832   7.216  0.1450  0.0599  1.2769
  624MOL0    Cl84150   9.439   5.959   7.209 -0.3409 -0.3184  0.0804
  624MOL0     C84151   9.033   5.480   8.295  0.7368 -0.5076 -0.3110
  624MOL0     C84152   8.986   5.447   8.424 -0.8040 -0.1827  0.0432
  624MOL0     O84153   8.952   5.664   8.742  0.1946 -0.2702 -0.5320
  624MOL0     C84154   8.658   5.456   8.809  0.1704 -0.4807 -1.0913
  624MOL0     C84155   8.544   5.440   8.899 -1.0206  0.4425  0.6239
  624MOL0     N84156   8.329   5.009   9.519 -0.3616 -0.3916  0.1654
  624MOL0     N84157   8.303   4.888   9.561 -0.3782  0.0958 -0.0442
  624MOL0     C84158   9.253   4.679   9.455 -0.2931 -0.2216 -0.0142
  624MOL0     C84159   9.364   4.737   9.396  0.4806  0.3401 -0.0649
  624MOL0     C84160   9.754   4.956   9.404 -0.1770 -0.4974  0.2587
  624MOL0     C84161   9.793   5.089   9.443  0.1112  0.2520 -0.4882
  624MOL0     C84162   9.911   5.147   9.397  0.0251  0.0435  0.4041
  624MOL0     C84163   9.974   5.096   9.285  0.3412 -0.1227  0.0953
  624MOL0     O84164  10.087   5.158   9.226  0.1510  0.9481 -0.0695
  624MOL0     C84165  10.172   5.231   9.316 -0.8093 -0.5103 -0.1784
  624MOL0     C84166  10.322   5.252   9.266 -0.0832  1.4812 -0.7573
  624MOL0     C84167  10.399   5.340   9.365 -1.2415 -0.2317  0.4030
  624MOL0     C84168  10.533   5.385   9.299  0.9289  0.4489 -1.2121
  624MOL0     C84169  10.613   5.452   9.395 -0.3661 -0.7840 -0.0546
  624MOL0     C84170  10.702   5.506   9.456 -0.4551 -0.3168  0.7585
  624MOL0     C84171   9.943   4.967   9.246 -0.1947 -0.6755  0.5450
  624MOL0     C84172   9.838   4.895   9.305  0.2155  0.6283 -0.6465
  624MOL0     H84173   9.610   4.587   9.593 -0.6754 -0.5006  2.0331
  624MOL0     H84174   9.393   4.476   9.687  1.7195  1.0154  1.3541
  624MOL0     H84175   9.047   4.490   9.450  3.3274  1.0600  0.0600
  624MOL0     H84176   8.966   4.433   9.602 -0.2610  1.8757  2.1735
  624MOL0     H84177   8.973   4.687   9.654  1.2793 -2.3528  1.3839
  624MOL0     H84178   8.944   4.687   9.466 -1.4791 -1.5013 -0.7426
  624MOL0     H84179   8.765   4.538   9.661 -1.9303 -0.8341 -1.7622
  624MOL0     H84180   8.718   4.697   9.624 -2.6433 -1.4883 -0.4078
  624MOL0     H84181   8.701   4.650   9.384 -0.1399  0.6733  0.3414
  624MOL0     H84182   8.742   4.477   9.424 -0.4484 -0.0770 -0.8018
  624MOL0     H84183   8.517   4.461   9.530 -0.2653 -0.4963 -1.7728
  624MOL0     H84184   8.511   4.635   9.560 -1.5196 -1.8827  2.6531
  624MOL0     H84185   8.486   4.675   9.321  4.3020 -2.0472 -3.2666
  624MOL0     H84186   8.491   4.505   9.299  0.6956  1.6154 -1.2048
  624MOL0     H84187   8.252   4.587   9.292 -1.7785  0.0148  0.6803
  624MOL0     H84188   8.275   4.460   9.398 -3.2388 -0.8913 -2.0386
  624MOL0     H84189   8.286   4.631   9.586 -0.7170  0.9655  1.0739
  624MOL0     H84190   8.133   4.646   9.500 -0.0206  1.3712  0.0334
  624MOL0     H84191   8.235   4.848   9.247  0.8519  1.2514 -0.2229
  624MOL0     H84192   8.392   5.073   9.203 -1.8438  0.3867 -2.7540
  624MOL0     H84193   8.227   5.136   9.239  1.2793  2.4219 -1.2403
  624MOL0     H84194   8.456   5.208   9.420  0.0937  1.3903  0.8807
  624MOL0     H84195   8.299   5.289   9.414  2.5237  2.1457  0.3807
  624MOL0     H84196   8.532   5.285   9.230 -2.5029 -4.2758 -1.8238
  624MOL0     H84197   8.471   5.429   9.318 -1.7881  0.9172 -0.2200
  624MOL0     H84198   8.250   5.395   9.154 -0.7088 -2.1400  0.3330
  624MOL0     H84199   8.360   5.317   9.052  0.3225  0.7519 -0.1547
  624MOL0     H84200   8.588   5.691   9.104  1.5347  0.9071 -1.0969
  624MOL0     H84201   8.906   5.705   9.002 -2.1252 -3.0593  0.1451
  624MOL0     H84202   8.833   5.829   8.901 -2.0602  1.5023  1.1769
  624MOL0     H84203   8.783   5.822   9.064  0.8375  0.3607 -0.5800
  624MOL0     H84204   8.844   5.752   8.500 -1.9718 -0.7590 -2.1729
  624MOL0     H84205   8.988   5.812   8.284  0.1837 -0.1209 -0.5764
  624MOL0     H84206   8.926   5.729   8.049  0.6946 -1.6108  1.1639
  624MOL0     H84207   9.059   5.839   8.083  0.4745  1.7093 -3.0303
  624MOL0     H84208   9.202   5.685   7.927  0.1833 -0.2699 -1.4978
  624MOL0     H84209   9.056   5.635   7.858  1.2652  0.9021 -2.9960
  624MOL0     H84210   9.142   5.931   7.890 -1.5191 -1.6632  2.5111
  624MOL0     H84211   9.002   5.877   7.790  0.5020 -0.8765 -1.5048
  624MOL0     H84212   9.300   5.864   7.743  1.3816 -1.1983 -1.4316
  624MOL0     H84213   9.216   5.723   7.691 -2.1450  0.0454  0.0172
  624MOL0     H84214   9.171   6.003   7.588 -0.7541  0.1693  0.8587
  624MOL0     H84215   9.070   5.862   7.534  0.3011  1.6346 -0.9878
  624MOL0     H84216   9.359   5.895   7.484  0.0841 -1.2315  2.6951
  624MOL0     H84217   9.289   5.746   7.477  3.8381  0.5236 -0.2016
  624MOL0     H84218   9.175   5.967   7.304  1.7541  1.1097  0.4585
  624MOL0     H84219   9.118   5.809   7.303 -1.5037  3.2528  2.5798
  624MOL0     H84220   9.266   5.831   7.118  2.1628  0.6859  0.2373
  624MOL0     H84221   9.362   5.737   7.238  2.9824  1.1610  0.1704
  624MOL0     H84222   9.063   5.389   8.243 -0.2770 -2.7549  2.7333
  624MOL0     H84223   8.982   5.344   8.457 -0.8431 -1.1554 -2.6962
  624MOL0     H84224   8.671   5.396   8.720  2.1656  0.3251 -1.4011
  624MOL0     H84225   8.467   5.367   8.874 -3.1833  3.3200 -1.8483
  624MOL0     H84226   9.157   4.716   9.419  0.7425  2.3692 -0.3422
  624MOL0     H84227   9.370   4.791   9.302  2.3290 -1.3394 -0.9926
  624MOL0     H84228   9.728   5.139   9.514 -0.1886 -4.2639  2.9074
  624MOL0     H84229   9.926   5.249   9.431 -4.4551  0.2475  2.5806
  624MOL0     H84230  10.125   5.327   9.341  0.5701  0.3624 -0.8574
  624MOL0     H84231  10.193   5.169   9.404  1.8552  1.3101  0.5746
  624MOL0     H84232  10.332   5.297   9.166 -0.6341 -0.8963 -1.9656
  624MOL0     H84233  10.359   5.150   9.258  0.2395  1.3446  1.8517
  624MOL0     H84234  10.423   5.286   9.458 -3.3237 -2.8122 -0.4450
  624MOL0     H84235  10.349   5.436   9.384  1.4277  1.7337 -1.6920
  624MOL0     H84236  10.517   5.444   9.208 -0.2925 -0.2225 -1.4627
  624MOL0     H84237  10.592   5.296   9.274 -0.1318 -0.8822  0.8385
  624MOL0     H84238  10.776   5.570   9.499 -0.5043 -0.2030  0.6712
  624MOL0     H84239   9.999   4.933   9.160 -0.9256 -0.5409  0.0081
  624MOL0     H84240   9.814   4.798   9.263  2.1985 -0.1146 -0.1430
  625MOL0     O84241   4.883  10.993   6.671 -0.5494  0.1047  0.4869
  625MOL0     C84242   4.815  11.028   6.774 -0.3997  0.2897  1.0274
  625MOL0     O84243   4.861  11.041   6.907  0.4238 -0.3050  0.0682
  625MOL0     C84244   4.981  11.010   6.962 -0.4370 -0.3676 -0.5082
  625MOL0     C84245   4.980  10.976   7.091  0.6609 -1.0047 -0.5822
  625MOL0     C84246   5.099  10.946   7.161 -0.3958 -0.1123 -0.3757
  625MOL0     C84247   5.228  10.942   7.103 -0.1048  0.4118 -0.6885
  625MOL0     O84248   5.330  10.913   7.186 -0.5855 -0.2805  0.4194
  625MOL0     C84249   5.457  10.894   7.126  0.0004  0.3016  0.1053
  625MOL0     C84250   5.551  10.826   7.232 -0.7781  0.6989 -0.7671
  625MOL0     C84251   5.681  10.785   7.157 -0.8594 -0.1870 -0.0853
  625MOL0     C84252   5.680  10.650   7.088  0.7718  0.1148  0.4937
  625MOL0     C84253   5.779  10.623   6.978  0.0819  0.4040 -0.2272
  625MOL0     C84254   5.918  10.671   7.029 -0.2715 -0.2014  0.4020
  625MOL0     C84255   6.037  10.641   6.935  0.5564 -0.6667  0.2450
  625MOL0     C84256   6.036  10.733   6.803 -0.7498  0.7331 -0.9010
  625MOL0     N84257   6.030  10.877   6.822 -0.7340  0.7369 -0.4043
  625MOL0     C84258   5.917  10.940   6.799  0.0221 -0.8636 -0.4872
  625MOL0     C84259   5.951  11.066   6.821  0.2611 -0.2503 -0.8008
  625MOL0     C84260   5.872  11.186   6.792 -0.2845 -0.2764  0.1454
  625MOL0     C84261   5.720  11.186   6.800  0.4896 -0.3112  0.1427
  625MOL0     C84262   5.675  11.160   6.936 -0.4393 -1.2663  0.0333
  625MOL0     C84263   5.699  11.279   7.030  0.1282  0.2491 -0.3938
  625MOL0     O84264   5.666  11.254   7.163 -0.6581 -0.2319 -0.5723
  625MOL0     C84265   5.752  11.177   7.235 -0.2936 -1.3697 -0.1135
  625MOL0     C84266   5.869  11.117   7.190 -0.7569 -0.4502  0.5060
  625MOL0     C84267   5.963  11.054   7.281  0.2674  0.7068  0.1302
  625MOL0     C84268   6.100  11.004   7.242 -0.5041 -0.1955  0.8898
  625MOL0     C84269   5.914  11.048   7.410 -0.0314  0.9591 -1.2647
  625MOL0     C84270   5.994  10.987   7.525 -0.0474 -0.5297 -0.1443
  625MOL0     O84271   5.947  11.014   7.649 -0.0694 -0.0495 -0.7174
  625MOL0     C84272   5.991  10.932   7.754  0.3826 -1.0353  0.2287
  625MOL0     C84273   5.991  10.992   7.881  0.5448 -0.7800  0.1656
  625MOL0     C84274   6.016  10.914   7.993 -0.9365  0.0920 -0.1498
  625MOL0     C84275   6.049  10.772   7.980  0.0724 -0.0366  0.6720
  625MOL0     O84276   6.085  10.698   8.088 -0.2860  0.4975 -0.3816
  625MOL0     C84277   6.132  10.565   8.072 -0.2187  0.1901  0.5229
  625MOL0     C84278   6.160  10.500   8.202  0.1642 -0.4223 -0.4653
  625MOL0     C84279   6.174  10.349   8.202  0.0072 -0.5179  0.7245
  625MOL0     C84280   6.071  10.261   8.130  0.0525 -0.6911 -0.1362
  625MOL0     C84281   6.132  10.117   8.113  0.2781 -0.9640  0.3692
  625MOL0     C84282   6.163  10.059   8.250  0.0202  0.0446  0.0107
  625MOL0     C84283   6.051  10.038   8.354 -0.1473 -0.3754  0.5303
  625MOL0     C84284   5.963   9.916   8.332  0.0139 -0.4990  0.1186
  625MOL0    Cl84285   6.070   9.771   8.359  0.0025 -0.4758 -0.8960
  625MOL0     C84286   6.025  10.712   7.850 -0.0456 -0.1544 -0.1711
  625MOL0     C84287   5.994  10.796   7.738 -0.4115 -0.7071 -0.3188
  625MOL0     O84288   6.086  10.910   7.501  0.4194  0.5994 -0.8512
  625MOL0     C84289   5.796  11.105   7.454 -0.0512 -0.5037  0.6981
  625MOL0     C84290   5.718  11.172   7.366 -0.3433 -0.2040 -0.3816
  625MOL0     N84291   6.082  11.068   6.875  0.1374  0.5377  0.3839
  625MOL0     N84292   6.131  10.948   6.876 -0.2914 -0.8671  0.6677
  625MOL0     C84293   5.231  10.973   6.964  0.4278 -0.0260  0.4906
  625MOL0     C84294   5.107  11.017   6.896  0.4066 -0.2279 -0.7199
  625MOL0     C84295   4.672  11.049   6.753 -0.0140  0.1257 -0.0197
  625MOL0     C84296   4.622  11.103   6.632  0.8347  1.4151 -0.4872
  625MOL0     C84297   4.480  11.122   6.615  0.1388 -0.3684  0.2272
  625MOL0     C84298   4.386  11.067   6.709 -0.3245 -0.0385 -0.7534
  625MOL0     O84299   4.253  11.081   6.701 -0.1304  0.4260  0.7338
  625MOL0     C84300   4.211  11.217   6.678  0.0841  0.1257 -0.5668
  625MOL0     C84301   4.061  11.208   6.645 -1.2311  0.0788 -0.0247
  625MOL0     C84302   3.987  11.129   6.758  0.5626  0.5589  0.5571
  625MOL0     C84303   3.859  11.194   6.808  0.1449  0.8641  0.0496
  625MOL0     C84304   3.746  11.188   6.712 -1.0472  0.0652 -0.5024
  625MOL0     C84305   3.662  11.180   6.624 -0.0332  1.3502  1.0354
  625MOL0     C84306   4.440  11.006   6.826 -0.0254 -0.3842  0.3028
  625MOL0     C84307   4.581  11.016   6.852  0.3419  0.5580  0.4112
  625MOL0     H84308   4.885  10.973   7.144  0.5270  0.6147 -0.6930
  625MOL0     H84309   5.083  10.920   7.265  1.3543 -2.0082 -0.5315
  625MOL0     H84310   5.449  10.819   7.048  2.9512  0.3137 -0.3064
  625MOL0     H84311   5.503  10.984   7.083  1.8772 -1.1123 -0.9804
  625MOL0     H84312   5.580  10.884   7.320 -0.8763  0.0162 -0.2778
  625MOL0     H84313   5.481  10.756   7.279 -0.9183  1.0836 -0.4052
  625MOL0     H84314   5.717  10.861   7.087  2.4292  1.2847  2.9439
  625MOL0     H84315   5.759  10.784   7.233  0.7180 -0.2435 -1.6290
  625MOL0     H84316   5.696  10.576   7.168  0.8784 -0.0493  0.3204
  625MOL0     H84317   5.580  10.635   7.046  0.3942  1.9624  0.6378
  625MOL0     H84318   5.786  10.516   6.956  2.2431  0.5746 -0.6254
  625MOL0     H84319   5.757  10.680   6.887 -2.4444  0.3019  0.2553
  625MOL0     H84320   5.915  10.779   7.043  1.7139 -0.0669  0.0053
  625MOL0     H84321   5.938  10.650   7.134  3.4533 -1.1469 -0.3528
  625MOL0     H84322   6.132  10.674   6.978  1.5285 -1.9974 -0.7549
  625MOL0     H84323   6.054  10.537   6.903  2.9528 -0.5869  1.0253
  625MOL0     H84324   5.950  10.694   6.748 -0.2290 -0.9199 -0.6001
  625MOL0     H84325   6.123  10.713   6.741  0.9679  3.9159  0.2650
  625MOL0     H84326   5.825  10.896   6.760 -0.8382  0.9989 -0.6434
  625MOL0     H84327   5.918  11.278   6.829  2.2701 -0.2037 -2.8295
  625MOL0     H84328   5.898  11.201   6.687 -1.0344  0.1903  0.0192
  625MOL0     H84329   5.686  11.110   6.730 -1.9354  1.6173 -0.9295
  625MOL0     H84330   5.672  11.278   6.765 -0.2309 -0.3519  1.0017
  625MOL0     H84331   5.718  11.068   6.977  2.1394  0.6329  1.8981
  625MOL0     H84332   5.567  11.151   6.925 -0.8759 -0.7857  3.1861
  625MOL0     H84333   5.622  11.349   6.996 -1.5500 -1.2593  0.1750
  625MOL0     H84334   5.797  11.328   7.021  1.2048 -1.6677  0.2359
  625MOL0     H84335   5.898  11.109   7.085 -2.8112 -1.0282 -0.0577
  625MOL0     H84336   6.113  10.898   7.265  1.0889 -0.4787 -1.0014
  625MOL0     H84337   6.121  11.033   7.138 -1.8365  0.3926  0.7627
  625MOL0     H84338   6.182  11.054   7.295  0.2462  0.7950 -1.0527
  625MOL0     H84339   5.970  11.099   7.880  1.3574 -0.6027  0.8034
  625MOL0     H84340   6.010  10.966   8.088  2.0528 -0.4671  0.4321
  625MOL0     H84341   6.068  10.509   8.004 -1.9717  3.9192 -1.2247
  625MOL0     H84342   6.220  10.570   8.006 -0.4030 -1.7000  0.0850
  625MOL0     H84343   6.256  10.545   8.231 -0.9994  2.6653 -1.0282
  625MOL0     H84344   6.085  10.542   8.269  1.3954  2.4031 -0.6884
  625MOL0     H84345   6.176  10.317   8.307  1.7844 -1.9137  0.3169
  625MOL0     H84346   6.271  10.329   8.156 -0.8887  2.0298 -2.6327
  625MOL0     H84347   5.978  10.271   8.187 -0.1727 -1.2286 -0.3920
  625MOL0     H84348   6.057  10.296   8.027  3.2731 -2.2075 -1.2217
  625MOL0     H84349   6.225  10.131   8.057  1.4509 -3.2468  1.6165
  625MOL0     H84350   6.057  10.058   8.059  0.7914 -0.8880 -0.4519
  625MOL0     H84351   6.210   9.961   8.246 -1.5813 -0.7175 -0.9045
  625MOL0     H84352   6.243  10.113   8.303 -0.5172  0.3059  0.5586
  625MOL0     H84353   5.996  10.132   8.347  3.7741  2.0568 -3.7121
  625MOL0     H84354   6.089  10.015   8.454 -2.4337  0.4639  1.6551
  625MOL0     H84355   5.929   9.923   8.228 -0.7548 -1.4262  0.2939
  625MOL0     H84356   5.875   9.928   8.396 -0.0859  0.5853 -0.2057
  625MOL0     H84357   6.033  10.606   7.832 -0.7617 -0.0968 -0.8948
  625MOL0     H84358   5.952  10.758   7.646 -1.4428 -1.5437  0.4708
  625MOL0     H84359   5.774  11.104   7.560  2.0384  0.6344  1.2101
  625MOL0     H84360   5.633  11.233   7.394 -0.7002 -0.7214 -0.3232
  625MOL0     H84361   5.320  10.978   6.902  0.1596  1.5752  0.1952
  625MOL0     H84362   5.112  11.046   6.792 -1.3848  0.3324 -0.6936
  625MOL0     H84363   4.694  11.128   6.554  1.0757  1.3914 -0.2718
  625MOL0     H84364   4.436  11.184   6.537 -1.1172  1.0980  2.0032
  625MOL0     H84365   4.225  11.277   6.769 -1.0342  0.4701 -0.6127
  625MOL0     H84366   4.264  11.262   6.594  2.0753 -2.5090 -0.8827
  625MOL0     H84367   4.037  11.168   6.547  2.4386 -1.5351 -0.3892
  625MOL0     H84368   4.032  11.314   6.638  1.2304  0.7448 -1.2624
  625MOL0     H84369   4.057  11.111   6.840  2.7860 -0.1938 -1.3837
  625MOL0     H84370   3.956  11.029   6.726 -0.0226  0.5183  1.2353
  625MOL0     H84371   3.875  11.298   6.840 -0.7656  0.6516  1.2529
  625MOL0     H84372   3.812  11.142   6.892 -1.7167  0.7807 -0.9898
  625MOL0     H84373   3.597  11.170   6.540  2.3703 -1.8797 -0.6702
  625MOL0     H84374   4.366  10.967   6.894  0.6773  0.9408  1.9055
  625MOL0     H84375   4.630  10.968   6.936  0.9043 -2.3777 -1.4519
  626MOL0     O84376   4.076  11.256   4.360  0.1968  0.4193 -0.5248
  626MOL0     C84377   3.975  11.188   4.403 -0.3718  0.4918  0.2301
  626MOL0     O84378   3.984  11.074   4.482 -0.3956  0.0607  0.5200
  626MOL0     C84379   4.102  11.017   4.524  1.0945  0.0134  0.2834
  626MOL0     C84380   4.229  11.076   4.523  0.1285  1.0344 -0.9853
  626MOL0     C84381   4.337  11.005   4.570 -0.1447  0.9211 -0.0414
  626MOL0     C84382   4.321  10.873   4.616 -0.4413 -0.7186 -0.1675
  626MOL0     O84383   4.424  10.830   4.692  0.0302  0.4297  0.0436
  626MOL0     C84384   4.421  10.695   4.729 -0.0132 -0.2087 -0.4545
  626MOL0     C84385   4.519  10.659   4.843 -0.8096 -0.7971  0.2918
  626MOL0     C84386   4.469  10.699   4.986  0.8674  0.9292 -0.6166
  626MOL0     C84387   4.331  10.632   5.018 -0.6586 -0.4805  0.6849
  626MOL0     C84388   4.315  10.631   5.169  0.8172  0.1206 -0.8361
  626MOL0     C84389   4.163  10.610   5.194 -0.6673 -0.4930 -0.4800
  626MOL0     C84390   4.096  10.663   5.329 -0.1897 -0.2921 -0.6424
  626MOL0     C84391   4.172  10.593   5.442 -0.8392  0.2033 -0.3180
  626MOL0     N84392   4.108  10.632   5.568  0.0097 -0.8360 -0.1196
  626MOL0     C84393   4.034  10.551   5.653  0.1664  0.4068  0.2831
  626MOL0     C84394   3.985  10.641   5.746  0.4348  0.3615  0.7917
  626MOL0     C84395   3.901  10.626   5.870  0.2853 -0.3916 -0.5173
  626MOL0     C84396   3.771  10.545   5.843 -0.5161  0.6394 -0.7535
  626MOL0     C84397   3.663  10.572   5.952  0.6255 -0.7501  0.6353
  626MOL0     C84398   3.719  10.559   6.100 -0.0869 -0.8595 -0.4984
  626MOL0     O84399   3.759  10.428   6.133 -0.8147 -0.1934 -0.4823
  626MOL0     C84400   3.685  10.333   6.194  0.4670 -0.1495  0.5635
  626MOL0     C84401   3.550  10.363   6.227 -0.0920  0.5549 -0.9575
  626MOL0     C84402   3.473  10.265   6.287  1.2268 -0.3276 -0.2098
  626MOL0     C84403   3.331  10.309   6.327 -0.1600  0.0216  0.0307
  626MOL0     C84404   3.520  10.133   6.311 -0.7396 -0.0280 -0.0532
  626MOL0     C84405   3.438  10.034   6.371  0.5685 -0.2271  0.2045
  626MOL0     O84406   3.346  10.062   6.461  0.5042  0.2293  0.0257
  626MOL0     C84407   3.280   9.966   6.518 -0.1831  0.9337 -0.2823
  626MOL0     C84408   3.331   9.920   6.639 -0.7083  0.5896  1.4127
  626MOL0     C84409   3.257   9.837   6.724 -0.1295 -0.3049 -0.3314
  626MOL0     C84410   3.128   9.802   6.671 -0.3515 -0.1681  0.2730
  626MOL0     O84411   3.041   9.742   6.765  0.3397 -0.0823  0.1403
  626MOL0     C84412   2.901   9.745   6.746  0.1185  0.1010 -0.0090
  626MOL0     C84413   2.844   9.649   6.857 -0.1380 -0.5437  1.1906
  626MOL0     C84414   2.803   9.514   6.809  0.3964  0.2442  0.1818
  626MOL0     C84415   2.910   9.435   6.743 -0.3470 -0.4329 -0.2359
  626MOL0     C84416   3.017   9.366   6.833 -0.0380 -0.5942  0.3561
  626MOL0     C84417   3.135   9.290   6.762  0.1258  0.3008  0.7560
  626MOL0     C84418   3.083   9.180   6.663  0.6204  0.3933 -1.0867
  626MOL0     C84419   3.007   9.063   6.733 -1.0180 -0.1246 -0.5770
  626MOL0    Cl84420   3.104   8.979   6.863 -0.1436  0.0723 -0.0581
  626MOL0     C84421   3.080   9.837   6.543  0.5660 -0.0154  0.2503
  626MOL0     C84422   3.162   9.927   6.464 -0.7701 -0.8525 -0.1234
  626MOL0     O84423   3.471   9.921   6.336 -0.4399 -0.7955  0.2460
  626MOL0     C84424   3.655  10.107   6.269  0.0605  1.0594 -0.3618
  626MOL0     C84425   3.733  10.207   6.218 -0.7374  0.7849 -0.4678
  626MOL0     N84426   4.037  10.764   5.719  0.0482  0.1295 -0.2606
  626MOL0     N84427   4.112  10.760   5.611 -0.2855 -0.3828 -0.2665
  626MOL0     C84428   4.194  10.803   4.596  0.0597 -0.0773  0.2692
  626MOL0     C84429   4.086  10.884   4.561 -0.3267 -0.2413  0.3080
  626MOL0     C84430   3.845  11.226   4.364 -0.2311  0.2200  0.4620
  626MOL0     C84431   3.724  11.171   4.411 -0.0240  0.1058 -0.6992
  626MOL0     C84432   3.600  11.224   4.360 -1.1369 -0.1483 -0.5192
  626MOL0     C84433   3.596  11.322   4.264  0.3213 -0.7701 -0.4516
  626MOL0     O84434   3.484  11.360   4.194  0.5492  0.2393 -0.1859
  626MOL0     C84435   3.353  11.325   4.249 -0.5202  0.3438 -0.1149
  626MOL0     C84436   3.247  11.355   4.133  0.3846  0.3720 -0.4143
  626MOL0     C84437   3.117  11.418   4.195  1.1570 -0.6789 -0.1688
  626MOL0     C84438   3.002  11.365   4.110  0.5037 -0.1381 -1.1343
  626MOL0     C84439   2.866  11.417   4.142  0.1437  0.0555  0.3569
  626MOL0     C84440   2.761  11.466   4.169  1.3174 -0.2384 -0.4221
  626MOL0     C84441   3.713  11.382   4.221  0.1885  0.3757 -0.6932
  626MOL0     C84442   3.834  11.332   4.272  0.8175  0.0857  0.0417
  626MOL0     H84443   4.248  11.180   4.501 -4.4462  2.0250 -1.0481
  626MOL0     H84444   4.434  11.053   4.567 -0.3663  1.5980  1.9454
  626MOL0     H84445   4.326  10.659   4.770  0.0717 -2.1607 -1.8202
  626MOL0     H84446   4.447  10.623   4.651 -1.1179 -1.1707  0.0301
  626MOL0     H84447   4.550  10.554   4.836  0.8101 -0.4404  1.5111
  626MOL0     H84448   4.610  10.716   4.823 -1.0508 -0.7077 -0.5825
  626MOL0     H84449   4.540  10.668   5.063 -0.3157  0.2508  0.2514
  626MOL0     H84450   4.450  10.806   4.988  1.2755  0.9952  1.6295
  626MOL0     H84451   4.262  10.700   4.966  1.7408  0.3157 -1.6454
  626MOL0     H84452   4.322  10.531   4.979 -2.2145  0.2216 -0.9209
  626MOL0     H84453   4.369  10.556   5.228 -3.0016 -1.5385  0.8634
  626MOL0     H84454   4.331  10.730   5.213 -1.1406 -0.7172  1.9993
  626MOL0     H84455   4.106  10.663   5.117 -0.7972  2.0055  1.1982
  626MOL0     H84456   4.151  10.503   5.176  0.9436 -0.8948  0.5983
  626MOL0     H84457   4.101  10.772   5.333  0.5604 -0.2574 -1.9817
  626MOL0     H84458   3.992  10.630   5.330  0.9640 -4.4332  0.1250
  626MOL0     H84459   4.278  10.621   5.439 -1.0885  1.1339 -1.4169
  626MOL0     H84460   4.171  10.485   5.430  2.6792 -0.0898  0.8282
  626MOL0     H84461   4.021  10.445   5.638 -1.3656  0.7029 -0.7235
  626MOL0     H84462   3.970  10.570   5.934  1.0267 -0.2301 -1.1660
  626MOL0     H84463   3.877  10.726   5.906  0.7264  0.2420 -1.9460
  626MOL0     H84464   3.802  10.440   5.846 -2.2511  0.1057 -0.5969
  626MOL0     H84465   3.733  10.577   5.745 -0.3622  0.0967 -0.9920
  626MOL0     H84466   3.584  10.499   5.936  0.0713 -0.1032  0.3535
  626MOL0     H84467   3.632  10.674   5.927 -0.0546 -0.9792  0.5465
  626MOL0     H84468   3.664  10.607   6.182  0.8323 -2.1252  0.9029
  626MOL0     H84469   3.811  10.617   6.110 -0.3406 -0.5668  0.3026
  626MOL0     H84470   3.509  10.459   6.197 -1.3045  1.0388  1.9578
  626MOL0     H84471   3.326  10.419   6.323 -0.9053 -0.0049 -0.0064
  626MOL0     H84472   3.258  10.269   6.255  1.2414  0.2284 -1.5779
  626MOL0     H84473   3.312  10.284   6.431  3.7633  1.9468  1.4016
  626MOL0     H84474   3.421   9.970   6.672 -1.9972  4.0974  0.0700
  626MOL0     H84475   3.293   9.822   6.825 -0.7014 -0.0032 -0.0784
  626MOL0     H84476   2.865   9.848   6.756 -1.8336 -0.3179 -2.1149
  626MOL0     H84477   2.866   9.708   6.650 -2.3797  0.0057  0.8724
  626MOL0     H84478   2.902   9.639   6.949  2.2268  1.4500  0.0304
  626MOL0     H84479   2.756   9.702   6.893 -1.2038 -0.8876 -0.7686
  626MOL0     H84480   2.731   9.520   6.727 -0.7744 -2.9058  0.8361
  626MOL0     H84481   2.747   9.465   6.889 -2.2532  3.0996  0.2254
  626MOL0     H84482   2.849   9.362   6.689 -0.0516 -1.0544  0.2659
  626MOL0     H84483   2.964   9.496   6.670  1.1615 -2.7976 -1.2214
  626MOL0     H84484   2.954   9.309   6.902 -0.7553  0.0437  0.2354
  626MOL0     H84485   3.061   9.446   6.892 -1.7394 -0.9364  2.2069
  626MOL0     H84486   3.191   9.360   6.700 -0.5025 -0.5419 -0.8119
  626MOL0     H84487   3.197   9.243   6.840 -2.1432  1.7504  3.6302
  626MOL0     H84488   3.175   9.157   6.609  1.2587  2.0803 -0.7600
  626MOL0     H84489   3.020   9.230   6.589 -0.0286 -0.3696 -1.0723
  626MOL0     H84490   2.987   8.979   6.668  0.9688  1.4916 -3.5084
  626MOL0     H84491   2.907   9.082   6.773 -0.3905 -1.0142  1.5347
  626MOL0     H84492   2.982   9.807   6.506  2.0483 -3.2220 -1.5481
  626MOL0     H84493   3.138   9.958   6.362 -0.4068 -1.5911 -0.4451
  626MOL0     H84494   3.698  10.008   6.286 -3.9701 -0.7259  0.7147
  626MOL0     H84495   3.836  10.185   6.190 -1.0414 -2.6854  0.6493
  626MOL0     H84496   4.175  10.698   4.616 -1.7270  0.7352  3.5661
  626MOL0     H84497   3.995  10.826   4.548 -1.0278  1.5339 -5.4680
  626MOL0     H84498   3.721  11.084   4.477  0.1972  1.5748  1.3527
  626MOL0     H84499   3.510  11.174   4.396 -0.1883 -1.5133  0.0303
  626MOL0     H84500   3.343  11.219   4.274  3.3209  0.8305  5.1184
  626MOL0     H84501   3.344  11.384   4.340  2.9913  0.2394  0.4485
  626MOL0     H84502   3.232  11.273   4.062 -2.2720  1.8880 -1.7462
  626MOL0     H84503   3.291  11.428   4.064  0.1191  0.8338 -0.0968
  626MOL0     H84504   3.104  11.527   4.190  0.8338 -0.5950  1.8059
  626MOL0     H84505   3.106  11.395   4.301  1.6414  0.7113  0.2104
  626MOL0     H84506   3.001  11.256   4.119 -4.3508 -0.4120 -2.0110
  626MOL0     H84507   3.027  11.387   4.006  0.7823  1.9318 -0.6681
  626MOL0     H84508   2.669  11.518   4.190  0.7808 -0.6728 -1.5859
  626MOL0     H84509   3.709  11.463   4.149 -5.9143  0.7678 -0.4161
  626MOL0     H84510   3.923  11.376   4.229  0.1016  0.5411 -1.0146
  627MOL0     O84511   9.228   8.850   2.925 -0.2911 -0.1621 -0.1586
  627MOL0     C84512   9.208   8.947   2.845 -1.0801  0.3974 -0.1025
  627MOL0     O84513   9.288   9.052   2.819  0.5202 -0.2682  0.1572
  627MOL0     C84514   9.393   9.083   2.898  0.4840 -0.2094 -0.5331
  627MOL0     C84515   9.416   9.020   3.031  0.7835 -0.7105 -0.0711
  627MOL0     C84516   9.513   9.067   3.124 -0.4785  0.3724 -0.1590
  627MOL0     C84517   9.590   9.175   3.089  0.6898  0.0332 -0.9618
  627MOL0     O84518   9.684   9.238   3.176  0.4822 -0.3997 -0.6423
  627MOL0     C84519   9.720   9.172   3.303 -0.1742  0.9905  0.6672
  627MOL0     C84520   9.830   9.228   3.385 -0.2706  0.7002 -0.6215
  627MOL0     C84521   9.965   9.183   3.322  0.9659 -0.3546  1.1594
  627MOL0     C84522  10.089   9.202   3.392  0.0812 -0.4794 -0.0204
  627MOL0     C84523  10.210   9.199   3.303  0.3079  0.3262 -0.5023
  627MOL0     C84524  10.351   9.227   3.357  0.0965  0.2170 -0.3923
  627MOL0     C84525  10.361   9.339   3.457  0.3630  0.0291 -0.3404
  627MOL0     C84526  10.367   9.471   3.381 -0.0301  0.1912 -0.1125
  627MOL0     N84527  10.241   9.526   3.333  0.3626 -0.0228  0.4944
  627MOL0     C84528  10.136   9.582   3.402  0.3858  1.1410 -0.7696
  627MOL0     C84529  10.065   9.655   3.312  0.8834 -0.6136  0.3756
  627MOL0     C84530   9.930   9.722   3.339  0.1615  1.0211 -0.1639
  627MOL0     C84531   9.855   9.749   3.209  0.3170  0.5903 -0.7268
  627MOL0     C84532   9.801   9.627   3.125 -0.1077 -0.1828 -0.4575
  627MOL0     C84533   9.675   9.564   3.189  0.3709 -0.2332  0.6157
  627MOL0     O84534   9.571   9.670   3.196  0.0450  1.3153 -0.0009
  627MOL0     C84535   9.445   9.636   3.246  0.7050 -0.8276 -0.2607
  627MOL0     C84536   9.400   9.515   3.293  0.2010 -0.0533  0.5626
  627MOL0     C84537   9.261   9.497   3.320 -0.1050  0.4556  0.7010
  627MOL0     C84538   9.214   9.351   3.334  0.1016 -0.0007  0.0327
  627MOL0     C84539   9.175   9.616   3.329  0.3161  0.0376  0.0304
  627MOL0     C84540   9.021   9.617   3.358  0.0118  0.4026 -1.0330
  627MOL0     O84541   8.961   9.496   3.357  0.0793 -0.4254  0.2867
  627MOL0     C84542   8.838   9.466   3.403  0.7212 -0.1535 -0.0590
  627MOL0     C84543   8.781   9.347   3.357  0.2882 -0.0514 -0.2692
  627MOL0     C84544   8.649   9.319   3.389  0.4754  0.6100 -0.1234
  627MOL0     C84545   8.571   9.404   3.468 -0.4139  0.4699 -0.2138
  627MOL0     O84546   8.437   9.393   3.496 -0.1825 -0.3514 -1.0464
  627MOL0     C84547   8.358   9.458   3.405  0.4010  1.3778 -0.4574
  627MOL0     C84548   8.266   9.572   3.461 -0.2999 -0.3194 -0.8894
  627MOL0     C84549   8.235   9.663   3.354  0.0703 -0.1639 -0.6141
  627MOL0     C84550   8.133   9.609   3.250 -0.8552  0.1209 -0.3895
  627MOL0     C84551   8.082   9.728   3.161 -0.5552 -0.0441 -0.2881
  627MOL0     C84552   7.974   9.681   3.051 -0.6153 -0.1069 -1.1965
  627MOL0     C84553   7.928   9.791   2.955  0.2546  0.0669 -0.5922
  627MOL0     C84554   8.006   9.786   2.818 -0.7614 -0.1577 -0.3044
  627MOL0    Cl84555   7.921   9.896   2.715  0.1079 -0.1596 -0.0512
  627MOL0     C84556   8.625   9.519   3.520  0.4404 -0.2122  0.5300
  627MOL0     C84557   8.758   9.549   3.491  0.3787  0.1907  0.5917
  627MOL0     O84558   8.959   9.734   3.357 -0.0129  0.4273  0.6612
  627MOL0     C84559   9.234   9.733   3.304 -0.2892 -0.0447 -0.0202
  627MOL0     C84560   9.365   9.747   3.260 -0.0639 -0.9197 -0.2742
  627MOL0     N84561  10.136   9.656   3.200  0.3305 -0.2506  0.3558
  627MOL0     N84562  10.233   9.567   3.203 -0.4088 -0.2783  0.5086
  627MOL0     C84563   9.574   9.238   2.971  1.1206  0.4512  0.0232
  627MOL0     C84564   9.476   9.197   2.878  0.4845  0.4446  0.5262
  627MOL0     C84565   9.086   8.948   2.757  0.1833 -0.0907  1.3516
  627MOL0     C84566   9.005   8.828   2.750  0.0758 -0.7038  0.3577
  627MOL0     C84567   8.883   8.837   2.663 -0.9880 -0.0218 -1.2179
  627MOL0     C84568   8.846   8.953   2.601 -0.2953 -0.7732 -0.1346
  627MOL0     O84569   8.730   8.961   2.531 -0.1824  0.3565 -0.0594
  627MOL0     C84570   8.712   8.865   2.429  0.3791 -0.5714 -0.9631
  627MOL0     C84571   8.804   8.875   2.304  0.5821  0.0192  0.2263
  627MOL0     C84572   8.798   8.750   2.201  0.8647 -0.6543  0.5787
  627MOL0     C84573   8.889   8.766   2.083  0.2361 -1.2544 -0.0385
  627MOL0     C84574   8.818   8.735   1.959  0.1432 -0.9431  0.3471
  627MOL0     C84575   8.740   8.708   1.870  0.4103  0.5509 -0.9309
  627MOL0     C84576   8.932   9.058   2.601  0.0438  0.2391 -0.0669
  627MOL0     C84577   9.044   9.057   2.679  0.1735 -0.2422 -0.4109
  627MOL0     H84578   9.369   8.935   3.078  0.6411  0.1748  1.4530
  627MOL0     H84579   9.525   9.013   3.217  0.8259 -3.8191 -2.5074
  627MOL0     H84580   9.632   9.157   3.366  0.6353 -0.5951  1.4852
  627MOL0     H84581   9.741   9.070   3.269 -2.1097  1.0098 -0.7507
  627MOL0     H84582   9.813   9.336   3.386 -0.9351  0.6239 -1.8120
  627MOL0     H84583   9.827   9.188   3.487 -0.0235  0.9025 -0.5356
  627MOL0     H84584   9.972   9.075   3.305  6.9461  0.1506 -2.4540
  627MOL0     H84585   9.967   9.238   3.228  0.8204  1.5276  2.2211
  627MOL0     H84586  10.083   9.303   3.432  1.9740 -0.0254 -0.8205
  627MOL0     H84587  10.106   9.129   3.472  1.7086  0.6830  0.7469
  627MOL0     H84588  10.206   9.098   3.261 -0.0528  0.1503 -0.0419
  627MOL0     H84589  10.191   9.272   3.224  0.8522  0.2166 -0.7424
  627MOL0     H84590  10.372   9.136   3.414 -0.1862  0.7818  0.6355
  627MOL0     H84591  10.417   9.247   3.272  0.1731  2.2133  0.0863
  627MOL0     H84592  10.285   9.333   3.536 -1.2272 -0.4473 -1.8511
  627MOL0     H84593  10.458   9.342   3.508  0.7087 -0.8910 -0.9322
  627MOL0     H84594  10.426   9.466   3.290  0.1801  3.0249 -0.2358
  627MOL0     H84595  10.409   9.550   3.444 -0.7419 -0.6040  1.4155
  627MOL0     H84596  10.115   9.553   3.505  0.4576 -1.5652 -1.4321
  627MOL0     H84597   9.880   9.667   3.419 -1.6089 -0.5671 -2.2082
  627MOL0     H84598   9.949   9.815   3.392 -1.3915  1.0727  0.3473
  627MOL0     H84599   9.925   9.807   3.148 -0.0801  1.3815 -0.4533
  627MOL0     H84600   9.761   9.804   3.223 -0.8440 -1.8714  2.2875
  627MOL0     H84601   9.881   9.554   3.111 -1.1972 -1.6481  0.6314
  627MOL0     H84602   9.771   9.671   3.029  0.3382  2.5973  0.5739
  627MOL0     H84603   9.688   9.516   3.286  3.2843 -2.8913 -0.9069
  627MOL0     H84604   9.640   9.493   3.113  1.3126  1.1146 -1.1420
  627MOL0     H84605   9.465   9.428   3.283  0.2824  0.1029 -0.3396
  627MOL0     H84606   9.164   9.340   3.431 -0.5584  0.0697 -0.2927
  627MOL0     H84607   9.146   9.338   3.250  2.0754  0.5440 -1.7459
  627MOL0     H84608   9.294   9.279   3.319  2.2760  2.4973 -1.2435
  627MOL0     H84609   8.834   9.278   3.292 -4.0960 -2.5852 -1.5678
  627MOL0     H84610   8.600   9.229   3.353  1.1269  0.9837 -2.0911
  627MOL0     H84611   8.407   9.487   3.312 -1.9750 -0.6291 -2.4820
  627MOL0     H84612   8.286   9.378   3.386  2.2487 -0.5238  0.1410
  627MOL0     H84613   8.184   9.523   3.514  1.6177  1.2858  4.2156
  627MOL0     H84614   8.324   9.637   3.528 -0.6841  0.6872 -1.5159
  627MOL0     H84615   8.329   9.699   3.311  0.6595  1.2653  1.6905
  627MOL0     H84616   8.191   9.750   3.404  0.0411  0.7393 -2.1307
  627MOL0     H84617   8.185   9.528   3.197 -1.0187 -2.3802  2.9247
  627MOL0     H84618   8.052   9.556   3.302  2.7846 -3.4275  2.3112
  627MOL0     H84619   8.167   9.771   3.106 -1.6459  1.6693 -0.7308
  627MOL0     H84620   8.041   9.806   3.226  2.3217  1.1603  0.2475
  627MOL0     H84621   8.032   9.598   3.011 -0.7183 -1.2052  0.8255
  627MOL0     H84622   7.885   9.637   3.097  0.0794 -1.7232 -1.3339
  627MOL0     H84623   7.919   9.886   3.009  0.0646  1.0110 -2.1939
  627MOL0     H84624   7.827   9.759   2.925  0.9457 -1.6285 -1.2250
  627MOL0     H84625   8.004   9.686   2.776 -2.1244 -1.3916  2.4414
  627MOL0     H84626   8.111   9.812   2.838 -1.3970  1.1815  1.5808
  627MOL0     H84627   8.559   9.582   3.578 -1.0314  1.0476 -2.3442
  627MOL0     H84628   8.799   9.645   3.520  2.3500  0.3826 -2.4253
  627MOL0     H84629   9.181   9.827   3.307  0.9829  0.6572  2.2480
  627MOL0     H84630   9.400   9.847   3.239 -0.9033 -0.0738  2.0695
  627MOL0     H84631   9.638   9.318   2.934  1.0413 -0.0300 -1.2071
  627MOL0     H84632   9.466   9.256   2.788 -0.4830 -0.8648 -0.2609
  627MOL0     H84633   9.031   8.732   2.792 -2.2501 -1.7188 -0.3967
  627MOL0     H84634   8.818   8.751   2.652 -0.8911 -0.1638 -0.6943
  627MOL0     H84635   8.705   8.764   2.470 -2.5746  1.1709  3.5505
  627MOL0     H84636   8.612   8.875   2.385  1.8104  4.2254 -3.9281
  627MOL0     H84637   8.913   8.877   2.319  0.8432 -2.3104 -1.0024
  627MOL0     H84638   8.784   8.972   2.257  0.5203  1.8161  3.6413
  627MOL0     H84639   8.692   8.730   2.183  0.7580 -2.1351  2.4372
  627MOL0     H84640   8.843   8.666   2.255  1.0919 -0.3467  0.8724
  627MOL0     H84641   8.967   8.689   2.086 -0.4822 -2.0097 -0.1495
  627MOL0     H84642   8.934   8.865   2.072 -1.7993 -0.2428  0.1795
  627MOL0     H84643   8.674   8.686   1.788 -1.6233  0.4497  0.6710
  627MOL0     H84644   8.901   9.152   2.555  2.1244  0.5435 -0.9711
  627MOL0     H84645   9.102   9.149   2.685  3.4516 -2.2825  2.2158
  628MOL0     O84646   6.531   6.511   2.371 -0.0710 -0.2551 -0.1024
  628MOL0     C84647   6.558   6.615   2.313  0.1926 -0.9333  0.9448
  628MOL0     O84648   6.659   6.637   2.227 -0.4040  0.5379  0.2544
  628MOL0     C84649   6.710   6.521   2.173 -0.3094 -0.1125  0.2627
  628MOL0     C84650   6.632   6.445   2.087  0.1899 -0.2421 -0.5461
  628MOL0     C84651   6.670   6.325   2.029  0.4841  0.3383  0.5327
  628MOL0     C84652   6.804   6.280   2.048 -0.1643  0.2852 -0.7345
  628MOL0     O84653   6.862   6.176   1.993 -0.0287 -0.0874 -0.3816
  628MOL0     C84654   6.791   6.066   1.943  0.0430 -0.3965  0.2868
  628MOL0     C84655   6.869   5.927   1.959 -0.0027 -0.6633  0.4499
  628MOL0     C84656   6.860   5.874   2.107  0.6659 -0.4132  0.2917
  628MOL0     C84657   6.979   5.911   2.214  0.0986  0.7187 -0.1523
  628MOL0     C84658   6.974   5.840   2.350  0.4954 -0.3755 -1.0841
  628MOL0     C84659   7.089   5.895   2.440 -0.1736 -0.6524 -0.6455
  628MOL0     C84660   7.117   5.824   2.578 -0.4981  0.3008  0.1707
  628MOL0     C84661   6.994   5.810   2.673  1.1042 -0.4858 -0.7638
  628MOL0     N84662   6.954   5.671   2.699  0.3877  0.8717 -0.1503
  628MOL0     C84663   6.918   5.571   2.603 -0.0270  0.7282  0.5674
  628MOL0     C84664   6.923   5.462   2.673 -0.6492 -0.0216 -0.2820
  628MOL0     C84665   6.899   5.326   2.620 -0.2612  0.1856 -0.2278
  628MOL0     C84666   6.757   5.304   2.566  0.4532 -0.5625  0.0647
  628MOL0     C84667   6.657   5.298   2.679 -0.1239 -0.0100  0.5628
  628MOL0     C84668   6.520   5.266   2.617 -0.7962 -0.2706  0.9160
  628MOL0     O84669   6.431   5.245   2.718 -0.2899  0.2212 -0.0664
  628MOL0     C84670   6.328   5.335   2.750 -0.6809  0.0327 -0.0968
  628MOL0     C84671   6.296   5.453   2.678  0.3638  0.3748 -0.3906
  628MOL0     C84672   6.188   5.535   2.727 -0.2411 -0.2046  1.5610
  628MOL0     C84673   6.144   5.656   2.639  0.0086 -0.3830  0.2490
  628MOL0     C84674   6.133   5.511   2.855 -0.0320 -0.3996 -0.1687
  628MOL0     C84675   6.034   5.602   2.918  0.6471  0.0023  0.1436
  628MOL0     O84676   6.052   5.637   3.045 -0.2833  0.6306  0.3950
  628MOL0     C84677   5.959   5.711   3.115  0.4102  0.3453 -1.1714
  628MOL0     C84678   5.916   5.652   3.238 -0.0821  0.3987  0.9257
  628MOL0     C84679   5.819   5.713   3.310  0.0745 -0.4659 -0.1906
  628MOL0     C84680   5.746   5.829   3.268 -0.8013  0.0922  0.0601
  628MOL0     O84681   5.640   5.885   3.346 -0.4520  0.4103 -0.1406
  628MOL0     C84682   5.645   6.025   3.352  0.0461 -0.0177  0.4910
  628MOL0     C84683   5.545   6.092   3.256  0.0834  0.9250  0.2540
  628MOL0     C84684   5.417   6.026   3.231  0.3200  1.3041  0.1611
  628MOL0     C84685   5.318   6.118   3.165  0.6014 -1.0982  0.4061
  628MOL0     C84686   5.238   6.207   3.257  0.0160  0.4434  0.1455
  628MOL0     C84687   5.131   6.284   3.170 -0.5485 -0.1710 -0.3632
  628MOL0     C84688   5.036   6.369   3.262 -0.1267 -1.0013 -0.6651
  628MOL0     C84689   4.980   6.489   3.193 -0.1219  0.7604  0.2031
  628MOL0    Cl84690   4.863   6.455   3.057  0.0560  0.7359  0.0793
  628MOL0     C84691   5.782   5.881   3.145 -0.0120  0.4703  1.3392
  628MOL0     C84692   5.888   5.824   3.069 -0.0649  0.6351 -0.0853
  628MOL0     O84693   5.931   5.625   2.855 -0.1320 -0.2056  0.3529
  628MOL0     C84694   6.173   5.403   2.932  0.2874 -0.3955  0.0657
  628MOL0     C84695   6.264   5.312   2.873  0.1586  0.2542 -0.4820
  628MOL0     N84696   6.992   5.486   2.789 -0.0292 -0.0380 -0.4564
  628MOL0     N84697   6.991   5.612   2.807 -0.3359  0.5109 -0.3279
  628MOL0     C84698   6.885   6.355   2.142 -1.3581  0.5574  1.1687
  628MOL0     C84699   6.846   6.477   2.197  0.3056  0.8303 -0.2225
  628MOL0     C84700   6.460   6.721   2.328  0.2619  0.2869 -0.4810
  628MOL0     C84701   6.341   6.705   2.404 -0.6382  0.0663 -0.1718
  628MOL0     C84702   6.238   6.802   2.421  0.5879  0.4382  0.1861
  628MOL0     C84703   6.263   6.924   2.352  0.4360 -0.2247  0.0985
  628MOL0     O84704   6.169   7.031   2.352  0.5956  0.8122 -0.0600
  628MOL0     C84705   6.044   7.023   2.416 -0.5277  0.4854  0.0280
  628MOL0     C84706   5.947   7.115   2.327  0.1792 -0.1172 -0.1466
  628MOL0     C84707   5.910   7.025   2.208 -0.5973 -0.0608 -0.1836
  628MOL0     C84708   5.814   7.102   2.118 -0.7550  0.3366 -0.1665
  628MOL0     C84709   5.674   7.100   2.170  0.7947 -0.3345 -0.8586
  628MOL0     C84710   5.558   7.084   2.219  0.5013 -0.1912  0.5165
  628MOL0     C84711   6.378   6.942   2.277  0.5992  0.7280  0.3244
  628MOL0     C84712   6.471   6.840   2.257  0.3696  0.4365 -0.4197
  628MOL0     H84713   6.533   6.481   2.061 -1.0149 -0.1320  3.5080
  628MOL0     H84714   6.598   6.276   1.964  1.4082  0.6263 -0.7454
  628MOL0     H84715   6.696   6.066   1.997 -0.2501 -3.0153 -0.0948
  628MOL0     H84716   6.783   6.088   1.837  3.0705  0.4260  0.1196
  628MOL0     H84717   6.830   5.846   1.896 -0.1771 -0.3313  0.1240
  628MOL0     H84718   6.975   5.939   1.936 -0.4039  0.1521 -1.1550
  628MOL0     H84719   6.769   5.912   2.154  0.2992 -1.7230  0.6838
  628MOL0     H84720   6.845   5.766   2.102  0.0751 -0.2688 -1.7502
  628MOL0     H84721   7.077   5.876   2.181  0.4402  2.9730 -1.7477
  628MOL0     H84722   6.970   6.020   2.222 -4.8733  0.5787 -0.1886
  628MOL0     H84723   6.876   5.868   2.391  2.4830  0.6441  3.6960
  628MOL0     H84724   6.979   5.731   2.350 -0.8820 -0.6204  3.3698
  628MOL0     H84725   7.185   5.895   2.387  0.8165  3.3803  0.7823
  628MOL0     H84726   7.067   6.000   2.462  2.1289 -0.1522 -0.5407
  628MOL0     H84727   7.150   5.724   2.549  0.6914  1.1239 -1.5225
  628MOL0     H84728   7.199   5.877   2.628  0.4897  0.8396 -1.9142
  628MOL0     H84729   6.906   5.867   2.643 -1.0873 -1.9918  2.2636
  628MOL0     H84730   7.011   5.851   2.774  1.3854 -1.7266 -0.2874
  628MOL0     H84731   6.883   5.583   2.501 -1.9268  0.6095  1.1636
  628MOL0     H84732   6.970   5.325   2.537  1.9392  0.5375  1.5424
  628MOL0     H84733   6.917   5.247   2.694  1.5086  0.8793  0.1287
  628MOL0     H84734   6.765   5.214   2.504  1.7013  0.8735 -2.0025
  628MOL0     H84735   6.723   5.382   2.497 -2.8011 -2.9097 -1.2262
  628MOL0     H84736   6.657   5.391   2.736 -0.6626  1.0616 -1.1074
  628MOL0     H84737   6.686   5.212   2.740 -0.5928 -0.9250 -0.4814
  628MOL0     H84738   6.534   5.174   2.560 -1.4367  0.7935 -1.0281
  628MOL0     H84739   6.501   5.344   2.544  3.7045 -0.3746 -0.6927
  628MOL0     H84740   6.330   5.478   2.578  1.5361  0.8231  0.1093
  628MOL0     H84741   6.036   5.641   2.634  0.1104 -0.8973 -0.5361
  628MOL0     H84742   6.173   5.754   2.678 -0.9749 -0.3564  0.9592
  628MOL0     H84743   6.180   5.662   2.536 -2.5033  2.8457 -0.6012
  628MOL0     H84744   5.952   5.553   3.264 -1.8362  0.0512  2.1652
  628MOL0     H84745   5.785   5.666   3.401 -0.7866  0.1532 -0.1790
  628MOL0     H84746   5.622   6.057   3.454 -1.1296  0.8939 -0.0370
  628MOL0     H84747   5.745   6.063   3.329 -0.5852  0.0201 -2.5188
  628MOL0     H84748   5.522   6.186   3.307 -0.0075  0.7735  0.4924
  628MOL0     H84749   5.589   6.109   3.157 -2.3034  0.9380 -0.8975
  628MOL0     H84750   5.382   5.968   3.317  3.1172 -0.4174  0.2618
  628MOL0     H84751   5.428   5.940   3.164  0.3048  0.5784  1.0622
  628MOL0     H84752   5.380   6.183   3.103  0.3805  0.4425  1.7201
  628MOL0     H84753   5.248   6.067   3.098 -0.6264  1.9548 -0.8287
  628MOL0     H84754   5.313   6.276   3.296  0.3379  0.8114 -1.0759
  628MOL0     H84755   5.177   6.151   3.329 -0.8186  1.0967 -0.0377
  628MOL0     H84756   5.193   6.352   3.110  0.2312  2.1352  2.8236
  628MOL0     H84757   5.073   6.214   3.109  1.6783  0.9083 -4.0743
  628MOL0     H84758   5.081   6.411   3.352  0.3932  0.4901 -1.5923
  628MOL0     H84759   4.954   6.304   3.295  0.6471 -1.0059  1.3453
  628MOL0     H84760   5.057   6.555   3.151  1.5955 -0.4900  1.2185
  628MOL0     H84761   4.933   6.552   3.269 -3.0562  1.2306 -1.8384
  628MOL0     H84762   5.727   5.964   3.102  0.3111  1.8003  3.3677
  628MOL0     H84763   5.934   5.853   2.975 -2.5813  0.4637 -1.4704
  628MOL0     H84764   6.141   5.383   3.034 -1.0478  1.0399 -0.0319
  628MOL0     H84765   6.305   5.226   2.924  0.7668  0.7014 -0.2049
  628MOL0     H84766   6.985   6.317   2.160 -1.7369  0.4367  3.1754
  628MOL0     H84767   6.907   6.535   2.265 -3.6857  1.4698  3.2653
  628MOL0     H84768   6.331   6.613   2.462 -1.9542  1.3458  1.7777
  628MOL0     H84769   6.152   6.778   2.483  0.9138  1.9456  1.2592
  628MOL0     H84770   6.000   6.924   2.433  0.5696  0.1333  0.9442
  628MOL0     H84771   6.048   7.069   2.516  1.1273  3.3752 -1.2352
  628MOL0     H84772   5.995   7.209   2.298  1.7110 -2.1859 -5.3563
  628MOL0     H84773   5.854   7.135   2.380 -1.0536 -1.9365 -1.5297
  628MOL0     H84774   5.872   6.931   2.250  2.1711  0.2873  3.5822
  628MOL0     H84775   5.997   7.001   2.145 -0.5053 -1.3945  0.4116
  628MOL0     H84776   5.819   7.082   2.011  0.8307  3.0967 -0.7009
  628MOL0     H84777   5.845   7.207   2.116 -0.2141  0.2541  1.7420
  628MOL0     H84778   5.459   7.071   2.259  0.9435  0.1883  1.7697
  628MOL0     H84779   6.391   7.021   2.204 -2.6857  0.0559 -1.1695
  628MOL0     H84780   6.563   6.859   2.202  0.3507 -0.0691 -0.6234
  629MOL0     O84781   9.391   6.938   6.033 -0.3917 -0.0259  0.2967
  629MOL0     C84782   9.410   6.945   6.152  0.4436  0.0800 -0.1047
  629MOL0     O84783   9.528   6.934   6.217 -0.6608 -0.1224 -0.1557
  629MOL0     C84784   9.648   6.909   6.152  0.9622  0.0026 -0.2659
  629MOL0     C84785   9.726   6.794   6.175  0.9576  0.6420 -0.0887
  629MOL0     C84786   9.834   6.756   6.102  0.2458  0.0743  0.4104
  629MOL0     C84787   9.860   6.839   5.987 -0.3057  0.3059  0.4929
  629MOL0     O84788   9.954   6.784   5.905  0.7487  0.0456 -0.6121
  629MOL0     C84789  10.026   6.880   5.821 -0.2954 -0.1180  0.7016
  629MOL0     C84790  10.156   6.840   5.761  0.4191 -0.6731  0.4808
  629MOL0     C84791  10.263   6.818   5.870 -0.2016 -0.0361 -0.3807
  629MOL0     C84792  10.283   6.668   5.912  0.5561  0.6465 -0.1806
  629MOL0     C84793  10.384   6.613   6.018  0.0433  0.1970  0.3783
  629MOL0     C84794  10.344   6.662   6.155  0.8864  0.3245 -0.0362
  629MOL0     C84795  10.212   6.601   6.205 -0.4886  0.8861  0.2809
  629MOL0     C84796  10.199   6.608   6.354  0.1790  0.6317  0.0843
  629MOL0     N84797  10.204   6.753   6.387  0.5194 -0.3838  0.1853
  629MOL0     C84798  10.096   6.838   6.358 -0.4011  0.8428 -0.1010
  629MOL0     C84799  10.113   6.941   6.442 -0.1628  0.5044  0.5444
  629MOL0     C84800  10.011   7.063   6.460  0.0335  0.2887  0.4168
  629MOL0     C84801   9.870   7.016   6.500 -1.0427 -0.7408  0.3189
  629MOL0     C84802   9.875   6.933   6.629  0.1689  0.2956  0.1877
  629MOL0     C84803   9.730   6.906   6.676  0.3593  0.7571 -0.6167
  629MOL0     O84804   9.686   6.782   6.624 -0.2977  0.2533 -0.2798
  629MOL0     C84805   9.731   6.663   6.684  0.2823  0.0644  0.1612
  629MOL0     C84806   9.814   6.655   6.789 -0.8733  0.5021 -0.5010
  629MOL0     C84807   9.869   6.540   6.833  0.3690 -0.0017  0.7077
  629MOL0     C84808   9.960   6.552   6.958  0.2761 -0.4214  0.5353
  629MOL0     C84809   9.813   6.420   6.774 -0.5327 -0.0309 -0.0413
  629MOL0     C84810   9.852   6.284   6.820 -0.6600  0.3179 -0.4705
  629MOL0     O84811   9.828   6.178   6.735  0.9017 -0.6714  0.1097
  629MOL0     C84812   9.829   6.049   6.771  0.1442 -0.2083 -0.1104
  629MOL0     C84813   9.942   5.979   6.737 -1.1317 -0.7462  0.5804
  629MOL0     C84814   9.970   5.850   6.783  0.0978  1.0943 -0.6668
  629MOL0     C84815   9.872   5.783   6.857 -0.1058 -0.2792  0.3487
  629MOL0     O84816   9.884   5.654   6.884  0.0977  0.6526  0.3934
  629MOL0     C84817   9.943   5.571   6.784  0.3452  0.4098  0.6357
  629MOL0     C84818   9.933   5.425   6.843  0.0085  0.2930  0.7343
  629MOL0     C84819  10.033   5.341   6.773  0.4572  0.5763 -0.1213
  629MOL0     C84820   9.995   5.189   6.786  0.6991 -0.4965 -0.4734
  629MOL0     C84821  10.095   5.104   6.718 -0.9139 -0.8400 -0.3576
  629MOL0     C84822  10.068   4.953   6.735  0.0521  0.6251  0.7824
  629MOL0     C84823  10.180   4.877   6.671  0.2699  0.1374  0.7860
  629MOL0     C84824  10.239   4.928   6.543 -0.1617 -0.0040 -0.1283
  629MOL0    Cl84825  10.134   4.906   6.412  0.6844 -0.2355  0.5358
  629MOL0     C84826   9.753   5.857   6.901 -0.0310  0.2612 -0.4717
  629MOL0     C84827   9.738   5.985   6.856  0.4146  0.1987  0.3749
  629MOL0     O84828   9.910   6.270   6.929  0.3930 -0.4488 -1.1967
  629MOL0     C84829   9.712   6.424   6.679 -0.2909  0.4750  0.0152
  629MOL0     C84830   9.671   6.542   6.630  0.6014 -0.3363 -0.7536
  629MOL0     N84831  10.233   6.920   6.503  0.4094  1.1001 -0.2917
  629MOL0     N84832  10.288   6.803   6.477 -0.1182 -0.3434 -0.3598
  629MOL0     C84833   9.799   6.966   5.979 -0.1795 -0.1692  0.1421
  629MOL0     C84834   9.697   6.999   6.067  0.3793 -0.9244  0.2419
  629MOL0     C84835   9.291   6.965   6.238 -0.5005  0.8399 -0.4929
  629MOL0     C84836   9.315   7.044   6.361 -0.8637 -0.9174  0.2062
  629MOL0     C84837   9.209   7.081   6.441  0.4619 -0.5026  0.8527
  629MOL0     C84838   9.076   7.041   6.401  0.5721  0.7668 -0.1954
  629MOL0     O84839   8.963   7.053   6.475  0.0391  0.5464  0.4137
  629MOL0     C84840   8.972   7.136   6.593 -0.7088 -0.0047 -0.0858
  629MOL0     C84841   8.838   7.157   6.653 -0.3038 -0.7544 -0.6109
  629MOL0     C84842   8.780   7.033   6.722  1.2371 -0.3617 -0.3129
  629MOL0     C84843   8.666   7.067   6.812 -0.7436 -0.0300  0.5231
  629MOL0     C84844   8.600   6.949   6.854  0.6510  0.4425 -0.0448
  629MOL0     C84845   8.535   6.851   6.891 -0.2799 -0.0916 -0.3429
  629MOL0     C84846   9.056   6.975   6.283  0.7884 -0.1304  0.6060
  629MOL0     C84847   9.165   6.938   6.191 -0.1446  0.1944  0.8404
  629MOL0     H84848   9.688   6.732   6.255  0.9712  2.9762  1.8240
  629MOL0     H84849   9.876   6.657   6.112 -0.7453 -0.3629  0.3519
  629MOL0     H84850   9.953   6.912   5.746 -3.1125 -1.4296  2.6825
  629MOL0     H84851  10.057   6.968   5.878 -0.1193 -0.7868  1.6717
  629MOL0     H84852  10.145   6.745   5.707 -2.9001 -0.0629 -0.0973
  629MOL0     H84853  10.192   6.913   5.689  0.6503  1.0823  2.3083
  629MOL0     H84854  10.356   6.855   5.826 -1.1414  1.3990 -1.2348
  629MOL0     H84855  10.244   6.873   5.963  1.1071 -1.5954  0.8639
  629MOL0     H84856  10.183   6.640   5.946  0.3432  0.2437 -1.0938
  629MOL0     H84857  10.303   6.610   5.821  3.2125 -0.7528  1.1904
  629MOL0     H84858  10.400   6.505   6.023  0.1456  0.2099  5.2179
  629MOL0     H84859  10.484   6.650   5.993  0.4157 -0.8727  0.2280
  629MOL0     H84860  10.424   6.636   6.226  1.1123 -3.3884 -1.4269
  629MOL0     H84861  10.328   6.770   6.147  0.2780  0.1524 -1.4676
  629MOL0     H84862  10.127   6.651   6.156  0.0761  0.8277 -0.7774
  629MOL0     H84863  10.205   6.497   6.172 -0.7660  1.0302 -0.1355
  629MOL0     H84864  10.273   6.550   6.409 -0.2893  1.2938  1.4466
  629MOL0     H84865  10.098   6.570   6.373 -0.3923  1.3587 -1.3701
  629MOL0     H84866  10.025   6.833   6.277 -2.0355 -1.1691  1.3463
  629MOL0     H84867  10.054   7.126   6.538  2.5615 -2.7865  1.7196
  629MOL0     H84868  10.015   7.124   6.369 -1.6430  0.3360  0.3447
  629MOL0     H84869   9.817   6.962   6.420 -4.4649 -0.1574  1.9883
  629MOL0     H84870   9.820   7.109   6.531  1.9143  1.1232 -0.1223
  629MOL0     H84871   9.939   6.988   6.699 -0.0773  0.5196  0.2380
  629MOL0     H84872   9.923   6.838   6.604  1.7206  0.5291  2.0840
  629MOL0     H84873   9.657   6.981   6.644  0.9386  1.8794  0.5989
  629MOL0     H84874   9.718   6.907   6.785  3.4519 -0.7325 -0.1533
  629MOL0     H84875   9.841   6.750   6.835  0.1304  2.0031 -3.8654
  629MOL0     H84876   9.957   6.651   7.003 -1.4336 -0.7789  1.3214
  629MOL0     H84877   9.923   6.482   7.034  1.5631 -0.8040  0.8231
  629MOL0     H84878  10.061   6.527   6.924 -0.3826 -3.2014  0.3980
  629MOL0     H84879  10.015   6.031   6.676 -2.9211 -2.1354 -2.9988
  629MOL0     H84880  10.056   5.797   6.744 -1.8445 -2.4457 -0.5394
  629MOL0     H84881   9.891   5.569   6.687  3.0727 -3.1233 -1.0036
  629MOL0     H84882  10.043   5.601   6.753 -0.4868  1.4714 -1.1966
  629MOL0     H84883   9.962   5.418   6.948  3.1671 -2.2477 -0.1338
  629MOL0     H84884   9.834   5.378   6.846  0.8517 -1.6450  0.1129
  629MOL0     H84885  10.125   5.359   6.828  0.8328  0.5375 -0.7285
  629MOL0     H84886  10.041   5.369   6.667 -1.8467  1.7989 -0.0487
  629MOL0     H84887   9.976   5.149   6.886 -0.2569  1.0090 -0.0080
  629MOL0     H84888   9.899   5.184   6.733  1.6470  0.1939 -2.3437
  629MOL0     H84889  10.196   5.129   6.751 -1.2423 -1.0144  0.8137
  629MOL0     H84890  10.089   5.129   6.611  1.6374 -1.3724 -0.6753
  629MOL0     H84891  10.072   4.936   6.843  3.1873  1.0354  0.8359
  629MOL0     H84892   9.979   4.918   6.682  0.8492  0.8899 -0.7932
  629MOL0     H84893  10.142   4.776   6.654  0.7562 -0.3570  2.4341
  629MOL0     H84894  10.262   4.860   6.742  1.4004 -1.4566 -0.8039
  629MOL0     H84895  10.334   4.875   6.530  1.2489  1.4381  3.2267
  629MOL0     H84896  10.273   5.031   6.556  0.4821 -0.3177  0.7470
  629MOL0     H84897   9.672   5.812   6.957 -0.8925 -0.1114 -1.9503
  629MOL0     H84898   9.657   6.046   6.895 -1.6365 -1.0823 -1.6058
  629MOL0     H84899   9.680   6.330   6.635  0.9717 -0.7274  1.5949
  629MOL0     H84900   9.587   6.546   6.561 -0.5911 -2.9603  0.4231
  629MOL0     H84901   9.820   7.041   5.904  1.0847 -1.7374 -1.1192
  629MOL0     H84902   9.644   7.094   6.057  1.3316 -0.3778  0.2126
  629MOL0     H84903   9.416   7.076   6.384 -0.7381 -1.0090 -0.2133
  629MOL0     H84904   9.219   7.130   6.537 -1.9935 -0.1266  1.0049
  629MOL0     H84905   9.054   7.103   6.658 -1.4579  1.6059  1.7774
  629MOL0     H84906   9.009   7.232   6.556 -0.4722  0.4817  1.3406
  629MOL0     H84907   8.770   7.198   6.577 -1.9669 -0.2708  1.0612
  629MOL0     H84908   8.847   7.235   6.729  0.4315  0.7693 -2.1749
  629MOL0     H84909   8.857   6.973   6.771 -0.2520 -1.2812  0.9902
  629MOL0     H84910   8.744   6.969   6.641 -1.3202 -0.3363  0.7217
  629MOL0     H84911   8.607   7.138   6.754 -0.9147 -0.5123  0.1051
  629MOL0     H84912   8.707   7.126   6.895 -0.5458 -1.8016  1.7227
  629MOL0     H84913   8.475   6.762   6.895 -2.0105  0.8704 -2.4532
  629MOL0     H84914   8.959   6.957   6.239 -0.1424  2.7757  1.2148
  629MOL0     H84915   9.141   6.883   6.100 -0.8469  1.5847  0.1539
  630MOL0     O84916   7.603   9.663   7.582  0.0604  0.5651  0.8054
  630MOL0     C84917   7.651   9.630   7.682  0.5851 -0.2386 -0.0273
  630MOL0     O84918   7.574   9.593   7.791 -0.2641 -0.0620 -0.6394
  630MOL0     C84919   7.435   9.572   7.766  0.0737 -0.1987 -0.1465
  630MOL0     C84920   7.354   9.682   7.757 -0.8347 -0.3304  0.0761
  630MOL0     C84921   7.219   9.666   7.731 -0.1847  0.1157  0.1016
  630MOL0     C84922   7.160   9.541   7.707  0.1109 -0.8056  0.9183
  630MOL0     O84923   7.031   9.537   7.648  0.1228  0.1470  0.0247
  630MOL0     C84924   7.039   9.496   7.507  0.7432  0.7364  0.3532
  630MOL0     C84925   6.910   9.536   7.426 -0.3583 -0.2967  0.4824
  630MOL0     C84926   6.897   9.684   7.406 -0.9591  0.5570  0.5228
  630MOL0     C84927   6.827   9.700   7.273 -0.3300 -0.1210  0.4244
  630MOL0     C84928   6.682   9.664   7.261  0.0189 -0.4380 -0.1045
  630MOL0     C84929   6.635   9.670   7.102 -0.6005 -0.1554  0.3118
  630MOL0     C84930   6.516   9.577   7.076 -0.6708  0.1239 -0.1909
  630MOL0     C84931   6.455   9.595   6.932  0.1183  0.0821  0.3604
  630MOL0     N84932   6.379   9.718   6.898 -0.9188 -0.1947  0.5809
  630MOL0     C84933   6.245   9.733   6.924 -0.5879  0.6612  0.1062
  630MOL0     C84934   6.204   9.845   6.870 -0.4496  0.2664 -0.1849
  630MOL0     C84935   6.061   9.883   6.881  0.0953 -0.2694 -0.3877
  630MOL0     C84936   5.996   9.904   6.737  0.0638  0.4159  0.0600
  630MOL0     C84937   5.962   9.768   6.664 -1.0282  0.3391 -0.3939
  630MOL0     C84938   5.850   9.784   6.560 -0.0984 -0.4808 -0.5461
  630MOL0     O84939   5.721   9.780   6.629 -0.0961  0.5940 -0.4113
  630MOL0     C84940   5.610   9.821   6.573 -0.5564 -0.7646  0.2305
  630MOL0     C84941   5.503   9.843   6.661 -0.1058  0.5408  0.1366
  630MOL0     C84942   5.384   9.905   6.615  0.0817  0.3033 -0.3171
  630MOL0     C84943   5.271   9.924   6.723  0.0580 -0.1503  0.4905
  630MOL0     C84944   5.374   9.951   6.483 -0.5083  0.1180  0.2498
  630MOL0     C84945   5.261  10.026   6.423 -0.4899 -1.0404 -1.1749
  630MOL0     O84946   5.261  10.030   6.282  0.2874  0.3558 -0.1202
  630MOL0     C84947   5.154  10.070   6.204  0.5513  0.7093 -0.5837
  630MOL0     C84948   5.186  10.064   6.068  0.2553 -0.4522  0.3910
  630MOL0     C84949   5.103  10.119   5.973  0.3015  0.4154 -0.5942
  630MOL0     C84950   4.979  10.173   6.005  0.3268  0.8965 -0.3130
  630MOL0     O84951   4.906  10.244   5.921 -0.1473 -0.0012 -0.1101
  630MOL0     C84952   4.971  10.338   5.835 -0.3217 -0.6975 -0.4948
  630MOL0     C84953   4.892  10.468   5.829 -0.0666 -0.4970 -0.0812
  630MOL0     C84954   4.949  10.589   5.753  0.1618  0.5317 -0.4131
  630MOL0     C84955   4.927  10.571   5.596  0.2392  0.8641  0.0513
  630MOL0     C84956   4.981  10.693   5.530 -0.6492 -0.3365 -0.2167
  630MOL0     C84957   5.133  10.706   5.528  0.2464  0.0875 -0.5216
  630MOL0     C84958   5.191  10.798   5.411 -0.3948  0.5226 -0.4105
  630MOL0     C84959   5.338  10.758   5.388 -0.4669 -0.3315  0.5604
  630MOL0    Cl84960   5.427  10.765   5.545 -0.0651 -0.4719  0.2074
  630MOL0     C84961   4.937  10.163   6.138 -0.2980 -0.3262  0.1350
  630MOL0     C84962   5.024  10.109   6.242  0.0635  0.0366 -0.4784
  630MOL0     O84963   5.196  10.098   6.497 -0.2341 -0.2962 -0.6105
  630MOL0     C84964   5.480   9.917   6.400  0.2845  0.4881 -0.0644
  630MOL0     C84965   5.589   9.852   6.446  1.3818  0.4240  0.3325
  630MOL0     N84966   6.314   9.901   6.812  0.2076 -0.3106 -0.0005
  630MOL0     N84967   6.417   9.821   6.819 -0.3489  0.5298 -1.0023
  630MOL0     C84968   7.247   9.426   7.725  0.5071 -0.0579 -1.1950
  630MOL0     C84969   7.382   9.443   7.760 -0.1194 -0.4676  0.4254
  630MOL0     C84970   7.793   9.633   7.687 -0.3899  0.2566 -0.6970
  630MOL0     C84971   7.860   9.588   7.804  0.5387  0.4116  0.3558
  630MOL0     C84972   7.993   9.599   7.818 -0.3384  1.1505  0.4435
  630MOL0     C84973   8.074   9.650   7.722 -0.8447  0.4544 -0.5154
  630MOL0     O84974   8.206   9.629   7.755 -0.8792 -0.4341 -0.2618
  630MOL0     C84975   8.318   9.673   7.678  0.7604 -0.1553 -1.2530
  630MOL0     C84976   8.334   9.602   7.546 -0.0399 -0.3690 -0.2679
  630MOL0     C84977   8.344   9.454   7.565 -0.3264  0.1544  0.4419
  630MOL0     C84978   8.472   9.413   7.652  0.0031 -0.3563  0.2223
  630MOL0     C84979   8.494   9.270   7.622  0.4107  0.4409 -0.3075
  630MOL0     C84980   8.509   9.151   7.614 -0.0077  0.4265  0.0496
  630MOL0     C84981   8.024   9.704   7.608 -0.2176 -0.4996 -0.5369
  630MOL0     C84982   7.876   9.690   7.588 -0.0577  0.6508  0.8958
  630MOL0     H84983   7.391   9.784   7.759 -0.7916 -0.3464  0.0956
  630MOL0     H84984   7.165   9.759   7.716 -0.2446 -0.3117 -3.0907
  630MOL0     H84985   7.121   9.546   7.457 -0.9022  3.2292 -0.0313
  630MOL0     H84986   7.052   9.388   7.496 -0.9021  0.5378  0.0274
  630MOL0     H84987   6.920   9.475   7.336  2.0285 -1.8958  1.7222
  630MOL0     H84988   6.829   9.485   7.479  1.5709 -3.1715  0.9093
  630MOL0     H84989   6.845   9.729   7.491 -1.7525 -0.6496  0.6917
  630MOL0     H84990   6.993   9.735   7.392 -1.4982  1.2239 -1.0133
  630MOL0     H84991   6.835   9.806   7.246  2.9398 -0.5115 -0.7257
  630MOL0     H84992   6.892   9.653   7.198  0.0584  2.5909 -1.0683
  630MOL0     H84993   6.662   9.564   7.299  0.2171  0.1024  1.4557
  630MOL0     H84994   6.625   9.743   7.310  2.3722  0.8400  0.7550
  630MOL0     H84995   6.610   9.776   7.091 -0.4184 -0.3304 -2.3296
  630MOL0     H84996   6.719   9.648   7.036 -0.2281 -1.0566  1.0698
  630MOL0     H84997   6.557   9.477   7.086  1.0922  0.7587 -0.7228
  630MOL0     H84998   6.439   9.602   7.150 -1.5754  3.2158 -1.9789
  630MOL0     H84999   6.376   9.522   6.917  1.6954 -1.1401 -3.1243
  630MOL0     H85000   6.534   9.583   6.857 -1.6826 -0.0130 -1.6122
  630MOL0     H85001   6.179   9.667   6.977  2.4993 -1.6781  1.3202
  630MOL0     H85002   5.999   9.807   6.931 -1.3970  1.1250 -0.0215
  630MOL0     H85003   6.070   9.976   6.939 -0.4609  1.3194 -2.7220
  630MOL0     H85004   6.068   9.964   6.679  1.8944 -0.9012  0.8823
  630MOL0     H85005   5.907   9.964   6.758  2.3636  2.9569  3.9688
  630MOL0     H85006   5.930   9.688   6.732  1.2295 -2.3333 -2.2229
  630MOL0     H85007   6.046   9.725   6.609 -0.7360  0.6193 -0.1704
  630MOL0     H85008   5.848   9.700   6.490  0.5510 -1.2762  0.3635
  630MOL0     H85009   5.860   9.877   6.504 -1.3836 -1.6789 -2.8935
  630MOL0     H85010   5.512   9.807   6.763  0.1985  1.2044  0.3486
  630MOL0     H85011   5.174   9.954   6.683 -0.6556 -1.9666  0.7661
  630MOL0     H85012   5.247   9.841   6.791 -2.4196  2.5327  3.1642
  630MOL0     H85013   5.305  10.012   6.778  1.8000 -0.7886  0.4843
  630MOL0     H85014   5.285  10.026   6.044  0.7506  2.4369 -2.8377
  630MOL0     H85015   5.136  10.129   5.870  3.5704  2.2537  0.4773
  630MOL0     H85016   5.071  10.363   5.870 -1.8215  2.5249  2.0372
  630MOL0     H85017   4.966  10.300   5.733 -0.3572  0.8007 -1.0757
  630MOL0     H85018   4.790  10.441   5.798 -0.0649 -2.2043  1.2302
  630MOL0     H85019   4.892  10.502   5.933  3.1638 -0.1894 -0.0749
  630MOL0     H85020   5.056  10.595   5.771  0.4654  2.6409 -2.4396
  630MOL0     H85021   4.913  10.688   5.784  1.6397  1.2095 -0.8053
  630MOL0     H85022   4.984  10.485   5.561  0.7000  1.4408 -0.6572
  630MOL0     H85023   4.821  10.560   5.572 -0.2152  1.1122  1.8023
  630MOL0     H85024   4.955  10.783   5.587  0.2897 -1.0501  1.3739
  630MOL0     H85025   4.936  10.690   5.430 -0.8557 -2.0390 -0.0997
  630MOL0     H85026   5.168  10.754   5.620  0.8759  1.1713 -1.2897
  630MOL0     H85027   5.178  10.607   5.520  1.5799  0.8194 -3.4286
  630MOL0     H85028   5.178  10.903   5.437  0.4257  0.6088 -0.2931
  630MOL0     H85029   5.133  10.785   5.320  0.4802  4.1155 -1.6509
  630MOL0     H85030   5.377  10.839   5.325 -0.3226 -0.0079  1.0565
  630MOL0     H85031   5.347  10.662   5.336 -0.8803 -0.0579 -0.0280
  630MOL0     H85032   4.835  10.187   6.168 -0.9418 -1.9587 -0.6240
  630MOL0     H85033   4.992  10.107   6.346 -0.2959  1.6648 -0.5343
  630MOL0     H85034   5.484   9.943   6.295 -0.0043  1.3686  0.1329
  630MOL0     H85035   5.669   9.829   6.377  0.1337 -2.7489 -0.2276
  630MOL0     H85036   7.209   9.329   7.696  2.6500 -1.2325 -0.3159
  630MOL0     H85037   7.444   9.355   7.773 -1.6611 -1.8395 -1.1085
  630MOL0     H85038   7.799   9.540   7.880 -0.9258  4.5684  2.1128
  630MOL0     H85039   8.038   9.569   7.912 -1.2961 -1.9427  0.0151
  630MOL0     H85040   8.326   9.779   7.653  2.3673 -0.0543 -0.4431
  630MOL0     H85041   8.401   9.652   7.746 -1.6850  0.4255  2.2439
  630MOL0     H85042   8.430   9.634   7.504 -0.7066 -2.2890 -3.6622
  630MOL0     H85043   8.252   9.633   7.481 -1.7668 -1.0755  1.4441
  630MOL0     H85044   8.350   9.420   7.461 -2.5572  1.3340 -0.1327
  630MOL0     H85045   8.250   9.410   7.600 -0.9808  0.0403 -1.3375
  630MOL0     H85046   8.460   9.425   7.759  2.7287 -1.2168  0.7116
  630MOL0     H85047   8.563   9.471   7.633 -0.2645  0.6341  1.8540
  630MOL0     H85048   8.536   9.054   7.579  0.6150  1.1134 -1.4485
  630MOL0     H85049   8.085   9.760   7.538 -1.2776  1.2336 -0.1469
  630MOL0     H85050   7.834   9.725   7.495  0.3499 -0.9371  0.0852
  631MOL0     O85051   2.207   8.814   0.526 -0.3686 -0.0840  0.5961
  631MOL0     C85052   2.327   8.799   0.554  0.4063 -0.9679 -0.9557
  631MOL0     O85053   2.385   8.703   0.628 -0.0828 -0.0404 -0.4797
  631MOL0     C85054   2.297   8.605   0.660  0.0671 -0.7662  0.5828
  631MOL0     C85055   2.210   8.631   0.761  0.0464 -0.1112 -1.1544
  631MOL0     C85056   2.106   8.540   0.794 -0.1225  0.6826  0.1040
  631MOL0     C85057   2.101   8.417   0.723  0.4285 -0.0904 -0.4512
  631MOL0     O85058   2.001   8.330   0.752  0.0377 -0.5760 -0.5253
  631MOL0     C85059   1.929   8.280   0.637 -0.5960 -0.0544 -0.0176
  631MOL0     C85060   1.922   8.124   0.651 -1.0410  0.3865  0.5704
  631MOL0     C85061   1.843   8.063   0.538 -0.3512  0.4228  0.3180
  631MOL0     C85062   1.842   7.909   0.549  1.3875 -0.0046  0.0925
  631MOL0     C85063   1.746   7.845   0.447  0.7677  0.5493  0.2750
  631MOL0     C85064   1.798   7.703   0.402 -0.1155 -0.0515 -0.1872
  631MOL0     C85065   1.698   7.649   0.302  0.6470  0.2297  0.3685
  631MOL0     C85066   1.722   7.497   0.284 -0.5025 -0.1013  0.8966
  631MOL0     N85067   1.605   7.413   0.238  0.5093 -0.4988 -0.2056
  631MOL0     C85068   1.500   7.465   0.172  0.8565 -0.5956 -0.6261
  631MOL0     C85069   1.425   7.361   0.139  0.1420 -0.2860  0.2640
  631MOL0     C85070   1.282   7.364   0.093 -0.5691  0.1282  0.3716
  631MOL0     C85071   1.189   7.251   0.150 -0.3740  0.1778 -0.1717
  631MOL0     C85072   1.042   7.261   0.094  0.3307  1.0546  0.0604
  631MOL0     C85073   0.963   7.128   0.112  0.1510  0.6116 -0.2424
  631MOL0     O85074   0.914   7.120   0.248 -0.2191  0.2141  0.8111
  631MOL0     C85075   0.824   7.026   0.275 -0.0327 -0.2095  0.0744
  631MOL0     C85076   0.796   6.922   0.195  0.7618  0.1189  0.0558
  631MOL0     C85077   0.700   6.820   0.231 -0.6262  0.7981 -0.2626
  631MOL0     C85078   0.668   6.703   0.134  0.3740  0.1728 -0.6317
  631MOL0     C85079   0.639   6.828   0.356 -0.0541  0.4298 -0.6418
  631MOL0     C85080   0.553   6.729   0.419  0.2683  1.1232 -0.0039
  631MOL0     O85081   0.579   6.694   0.545  0.0809 -0.2842 -0.2203
  631MOL0     C85082   0.502   6.592   0.597 -1.1277 -0.5194 -0.4056
  631MOL0     C85083   0.467   6.615   0.727 -0.1969 -0.1857  0.1175
  631MOL0     C85084   0.410   6.513   0.799  0.1155  1.2179 -0.3283
  631MOL0     C85085   0.380   6.385   0.746 -0.6453  0.1621 -0.9596
  631MOL0     O85086   0.316   6.291   0.812 -0.3909  0.0093 -0.4932
  631MOL0     C85087   0.385   6.170   0.857 -0.8499  0.2738  0.0044
  631MOL0     C85088   0.306   6.107   0.970  0.2046  0.2130 -0.2138
  631MOL0     C85089   0.319   6.182   1.101 -0.6463 -0.6242 -0.0797
  631MOL0     C85090   0.239   6.114   1.206  0.1790 -0.0360 -0.0979
  631MOL0     C85091   0.235   6.208   1.329  0.1875  0.1646  0.1262
  631MOL0     C85092   0.185   6.137   1.456  0.4055 -0.7628  0.5584
  631MOL0     C85093   0.175   6.241   1.563 -0.0126 -0.5909 -1.0184
  631MOL0     C85094   0.097   6.195   1.685 -1.3387  1.0152 -0.2010
  631MOL0    Cl85095   0.097   6.309   1.813 -0.0414 -0.5035  0.0589
  631MOL0     C85096   0.427   6.367   0.616 -0.8836  0.5564  1.2587
  631MOL0     C85097   0.499   6.465   0.537  0.9683 -0.2727 -0.6140
  631MOL0     O85098   0.450   6.684   0.355  0.6846  0.5423 -0.0781
  631MOL0     C85099   0.676   6.932   0.440 -0.4544  0.7372  0.1222
  631MOL0     C85100   0.765   7.034   0.398  0.2596 -0.1869 -0.2707
  631MOL0     N85101   1.494   7.244   0.174 -0.2042 -0.1715 -0.3758
  631MOL0     N85102   1.611   7.277   0.223 -0.4838 -0.0810  0.3772
  631MOL0     C85103   2.192   8.392   0.625 -0.4354  0.0132 -0.0649
  631MOL0     C85104   2.298   8.481   0.589  0.4026  0.1449 -0.1599
  631MOL0     C85105   2.410   8.921   0.526 -0.7427 -0.2397 -0.1159
  631MOL0     C85106   2.550   8.911   0.521  0.6530  0.8835  0.2389
  631MOL0     C85107   2.626   9.029   0.527  0.7492 -0.0550  0.5798
  631MOL0     C85108   2.583   9.157   0.503  0.7296  0.2988  0.2820
  631MOL0     O85109   2.650   9.273   0.493  0.1749 -0.7329 -0.2411
  631MOL0     C85110   2.799   9.267   0.482  0.6206  0.3512  0.6244
  631MOL0     C85111   2.863   9.403   0.493  0.0307 -0.0780 -0.1485
  631MOL0     C85112   3.017   9.386   0.505  1.0942 -0.3476 -0.7212
  631MOL0     C85113   3.092   9.386   0.373 -0.4278  0.3321  0.1493
  631MOL0     C85114   3.238   9.380   0.402 -1.1472  0.2576 -0.3470
  631MOL0     C85115   3.353   9.394   0.415 -0.1344 -0.4060 -0.4902
  631MOL0     C85116   2.444   9.165   0.512  0.7855 -0.0929  0.0569
  631MOL0     C85117   2.354   9.055   0.524 -1.5503  0.3133  0.6873
  631MOL0     H85118   2.215   8.718   0.826 -2.0100 -1.6238  1.2840
  631MOL0     H85119   2.035   8.558   0.874 -0.2515  1.1832 -0.1198
  631MOL0     H85120   1.825   8.314   0.635 -0.6933 -0.3582 -0.1502
  631MOL0     H85121   1.971   8.305   0.539 -2.5775  2.0776 -0.4066
  631MOL0     H85122   2.020   8.075   0.653 -0.9591  0.5565  1.8118
  631MOL0     H85123   1.869   8.105   0.745 -1.0179  1.0282  0.7160
  631MOL0     H85124   1.745   8.112   0.534  0.2197  1.6254  0.4859
  631MOL0     H85125   1.897   8.086   0.446  1.0685 -0.3834  0.9267
  631MOL0     H85126   1.945   7.876   0.540  0.9799 -1.0446 -1.0752
  631MOL0     H85127   1.807   7.890   0.651  1.9044 -1.2367  0.0558
  631MOL0     H85128   1.640   7.851   0.473  0.7719  1.0627  0.1808
  631MOL0     H85129   1.753   7.898   0.352  0.7188 -0.0513 -0.0665
  631MOL0     H85130   1.897   7.711   0.357  0.1178 -1.0401  0.1221
  631MOL0     H85131   1.809   7.642   0.492 -2.0453  0.9562  0.7964
  631MOL0     H85132   1.598   7.675   0.339  0.9742  1.9859  0.1124
  631MOL0     H85133   1.705   7.692   0.202  0.6309  0.0456  0.2884
  631MOL0     H85134   1.749   7.457   0.382 -1.5427 -0.9122  0.8722
  631MOL0     H85135   1.802   7.485   0.211  2.9615  1.6147  4.0579
  631MOL0     H85136   1.493   7.573   0.161  0.7250 -0.6018 -0.6037
  631MOL0     H85137   1.235   7.457   0.124  0.0891  0.7725 -0.4918
  631MOL0     H85138   1.282   7.360  -0.017 -1.7332  0.7245  0.3358
  631MOL0     H85139   1.190   7.265   0.258 -1.5376  0.4270 -0.1746
  631MOL0     H85140   1.230   7.150   0.143  0.0954  0.3079  0.5852
  631MOL0     H85141   1.055   7.266  -0.014 -0.4424  0.4818 -0.0600
  631MOL0     H85142   0.994   7.350   0.137  3.8599  1.5914  3.5174
  631MOL0     H85143   1.022   7.036   0.109  1.1235  1.1455  1.1404
  631MOL0     H85144   0.879   7.116   0.043 -0.3423 -2.6239  0.7338
  631MOL0     H85145   0.840   6.914   0.097 -0.0915  1.0109 -0.4198
  631MOL0     H85146   0.708   6.610   0.173  0.8948  0.6803  0.0620
  631MOL0     H85147   0.559   6.696   0.119  0.3100 -2.1050  0.5236
  631MOL0     H85148   0.708   6.716   0.033 -1.8331 -0.4524 -1.6568
  631MOL0     H85149   0.489   6.713   0.768 -0.0107 -0.1342 -0.0995
  631MOL0     H85150   0.382   6.523   0.903 -0.3457 -3.5514  0.2539
  631MOL0     H85151   0.397   6.095   0.778  1.2236 -0.4168  0.8999
  631MOL0     H85152   0.483   6.197   0.896  1.3412 -3.3356 -2.3739
  631MOL0     H85153   0.199   6.109   0.947  0.0633 -0.7005  0.3049
  631MOL0     H85154   0.334   6.002   0.985 -0.9250 -0.3121 -1.5843
  631MOL0     H85155   0.303   6.289   1.087  0.1072 -0.3519  0.9770
  631MOL0     H85156   0.423   6.169   1.130 -0.2683 -0.2782 -1.2458
  631MOL0     H85157   0.142   6.093   1.162  1.2155 -0.5946 -2.2185
  631MOL0     H85158   0.283   6.016   1.225 -3.4003 -2.3389 -2.4063
  631MOL0     H85159   0.161   6.285   1.304  0.5126  0.0908 -1.1468
  631MOL0     H85160   0.338   6.240   1.345  1.1987 -2.1782 -1.1693
  631MOL0     H85161   0.082   6.101   1.442  0.0988  0.3479 -0.1022
  631MOL0     H85162   0.248   6.050   1.479  0.4520 -1.2200 -1.1607
  631MOL0     H85163   0.128   6.333   1.530 -1.2918 -1.4807 -1.7812
  631MOL0     H85164   0.274   6.264   1.603 -0.5036 -2.2774  1.3912
  631MOL0     H85165   0.150   6.108   1.722  0.7976  0.9811 -3.0608
  631MOL0     H85166  -0.009   6.184   1.659 -1.5380  3.4900 -0.7620
  631MOL0     H85167   0.424   6.266   0.578  0.8671 -0.0448  2.5778
  631MOL0     H85168   0.539   6.436   0.441  0.5217 -4.0229  0.1624
  631MOL0     H85169   0.628   6.927   0.537 -1.1562  0.3297 -0.2343
  631MOL0     H85170   0.803   7.097   0.477 -2.9586  0.3877  0.9957
  631MOL0     H85171   2.183   8.296   0.573 -1.8223 -0.6432  1.3132
  631MOL0     H85172   2.373   8.472   0.511  0.0085  2.6194 -0.9075
  631MOL0     H85173   2.595   8.813   0.535 -0.3315  0.3358 -0.3099
  631MOL0     H85174   2.732   9.013   0.545  1.0583 -0.0884 -1.1081
  631MOL0     H85175   2.848   9.203   0.556  0.3826  0.4908  0.9016
  631MOL0     H85176   2.828   9.217   0.389 -1.6393 -0.1271  0.1029
  631MOL0     H85177   2.817   9.458   0.576  1.4249  1.6615 -0.4965
  631MOL0     H85178   2.848   9.467   0.406 -1.7284 -0.0589  0.1250
  631MOL0     H85179   3.037   9.293   0.559 -2.8834 -1.0294 -0.0630
  631MOL0     H85180   3.050   9.473   0.562  1.1153 -1.2440  0.6765
  631MOL0     H85181   3.074   9.479   0.319  1.2776  0.5400 -0.1057
  631MOL0     H85182   3.072   9.306   0.301 -0.9793  1.0473 -0.4994
  631MOL0     H85183   3.453   9.423   0.440  0.6190 -2.9993 -0.2460
  631MOL0     H85184   2.402   9.265   0.514 -1.1084 -0.6806 -2.8517
  631MOL0     H85185   2.251   9.082   0.543 -1.7006  3.0084 -2.8762
  632MOL0     O85186   9.803   9.779  11.167  0.9294  0.0803 -0.6636
  632MOL0     C85187   9.802   9.841  11.276  0.2043  0.2530 -0.1632
  632MOL0     O85188   9.692   9.899  11.332  0.1862  1.0124 -0.1139
  632MOL0     C85189   9.574   9.898  11.259 -0.1158 -0.0070  0.6723
  632MOL0     C85190   9.563  10.006  11.171 -0.5351 -0.7683  0.2767
  632MOL0     C85191   9.470  10.021  11.066 -0.2303  0.0849 -0.3465
  632MOL0     C85192   9.381   9.917  11.045  0.1288 -0.3704 -1.8000
  632MOL0     O85193   9.273   9.919  10.958 -0.6337  0.0777  0.6209
  632MOL0     C85194   9.257  10.020  10.853  0.4782 -0.0466  0.3653
  632MOL0     C85195   9.162   9.941  10.763 -1.2117 -0.0204  0.3906
  632MOL0     C85196   9.021   9.963  10.804 -0.3797  0.3250 -0.4228
  632MOL0     C85197   8.941  10.084  10.743  0.0103 -1.1116 -0.1105
  632MOL0     C85198   8.795  10.078  10.784  0.2333  0.6541 -0.1050
  632MOL0     C85199   8.717   9.984  10.689 -0.5166  0.0869  0.3338
  632MOL0     C85200   8.569  10.026  10.701  0.0543 -0.0204  0.2377
  632MOL0     C85201   8.505  10.022  10.841  0.3241  0.6394 -0.3995
  632MOL0     N85202   8.361  10.054  10.833 -0.2015 -0.3243 -0.0624
  632MOL0     C85203   8.293  10.139  10.923  0.2137  0.2530 -0.2163
  632MOL0     C85204   8.173  10.161  10.864 -0.4370 -0.0768  0.4281
  632MOL0     C85205   8.087  10.278  10.893 -0.6920  0.2376  0.2054
  632MOL0     C85206   7.981  10.251  10.987 -0.3657 -0.6799  0.0335
  632MOL0     C85207   7.877  10.364  10.995  0.1658 -0.1952  0.6046
  632MOL0     C85208   7.736  10.309  10.985 -0.3886  0.7119  0.2817
  632MOL0     O85209   7.690  10.274  11.114 -0.4774 -0.3804 -0.1775
  632MOL0     C85210   7.648  10.383  11.181 -1.2294  0.6008  0.1142
  632MOL0     C85211   7.704  10.412  11.299 -0.2318 -0.5585 -0.0556
  632MOL0     C85212   7.644  10.519  11.375  0.0468  0.2163  0.3942
  632MOL0     C85213   7.734  10.565  11.494 -0.1849  1.1347 -1.0200
  632MOL0     C85214   7.535  10.595  11.333  0.0126  0.3003 -0.1025
  632MOL0     C85215   7.450  10.694  11.413 -0.6071 -0.0849  0.2086
  632MOL0     O85216   7.344  10.758  11.355 -0.4314  0.5817  0.4531
  632MOL0     C85217   7.265  10.837  11.438 -0.3003  1.0024  2.0287
  632MOL0     C85218   7.135  10.791  11.457  0.8924 -0.4110 -0.5432
  632MOL0     C85219   7.036  10.860  11.539  0.3534 -0.3487 -0.0930
  632MOL0     C85220   7.081  10.974  11.602 -0.1022  0.5503 -0.9057
  632MOL0     O85221   7.001  11.056  11.672  0.2616 -0.5830 -0.2044
  632MOL0     C85222   6.885  11.095  11.598  0.0098 -0.4333  0.0212
  632MOL0     C85223   6.808  11.165  11.703  1.7467 -1.1884  0.3359
  632MOL0     C85224   6.670  11.204  11.644 -1.4477 -0.8392  0.1615
  632MOL0     C85225   6.590  11.281  11.746 -0.7130 -0.3809 -0.5209
  632MOL0     C85226   6.451  11.319  11.688 -0.6769 -0.1017 -0.3403
  632MOL0     C85227   6.441  11.473  11.719  0.6840 -1.0622 -0.6568
  632MOL0     C85228   6.525  11.571  11.636 -0.1746 -0.7920  1.2093
  632MOL0     C85229   6.456  11.631  11.515  0.3970 -0.2370 -0.2959
  632MOL0    Cl85230   6.320  11.734  11.568  0.3570  0.4016  0.7637
  632MOL0     C85231   7.218  11.022  11.577  0.0314  0.7628 -0.0095
  632MOL0     C85232   7.309  10.954  11.496 -0.1013 -0.4914 -0.7084
  632MOL0     O85233   7.489  10.715  11.527  0.6139  0.3503  0.2407
  632MOL0     C85234   7.488  10.564  11.198  0.7500 -0.0083  0.2683
  632MOL0     C85235   7.536  10.454  11.129  0.5395 -0.4505 -0.0875
  632MOL0     N85236   8.162  10.063  10.778 -0.2794 -0.2267  1.2782
  632MOL0     N85237   8.273  10.001  10.753  0.1530  0.2278  0.6957
  632MOL0     C85238   9.385   9.800  11.135 -0.4941  0.1192  0.1484
  632MOL0     C85239   9.487   9.789  11.239 -0.1523 -0.1532  0.7293
  632MOL0     C85240   9.936   9.850  11.344  0.5758 -0.0521 -0.7329
  632MOL0     C85241  10.056   9.844  11.276  1.0955 -0.0560 -1.7948
  632MOL0     C85242  10.172   9.867  11.339  0.5289 -0.1197  0.4219
  632MOL0     C85243  10.181   9.880  11.473  0.8824 -0.7534 -0.1630
  632MOL0     O85244  10.285   9.869  11.563  0.0144  0.3668 -0.7175
  632MOL0     C85245  10.406   9.835  11.491  0.5168 -0.6848  0.5039
  632MOL0     C85246  10.516   9.853  11.587 -0.3671 -0.2475 -0.0039
  632MOL0     C85247  10.635   9.882  11.501 -0.8376  0.1592 -0.4456
  632MOL0     C85248  10.696   9.755  11.441  0.8603 -0.3135  0.7445
  632MOL0     C85249  10.819   9.781  11.375 -0.3789  1.4064 -0.5470
  632MOL0     C85250  10.910   9.822  11.309  0.5775 -0.0003  0.3881
  632MOL0     C85251  10.066   9.908  11.541 -0.3043 -0.7228  0.6129
  632MOL0     C85252   9.940   9.893  11.479  0.2832  0.2117  0.3676
  632MOL0     H85253   9.648  10.073  11.166 -1.1324 -0.0778 -2.3605
  632MOL0     H85254   9.458  10.115  11.013 -2.3580 -0.0973 -0.2727
  632MOL0     H85255   9.208  10.104  10.901  0.6386  0.5489 -0.4924
  632MOL0     H85256   9.346  10.057  10.801  0.7102  1.6477  1.8880
  632MOL0     H85257   9.177   9.972  10.659  0.1050 -0.6768  0.3708
  632MOL0     H85258   9.184   9.834  10.757 -0.9844  0.0224  0.4602
  632MOL0     H85259   8.967   9.871  10.781 -0.7489  0.6480 -0.8716
  632MOL0     H85260   9.016   9.975  10.912 -0.0490 -3.0674  0.0704
  632MOL0     H85261   8.980  10.181  10.775 -1.8059  0.1942 -1.6541
  632MOL0     H85262   8.946  10.088  10.634  2.2094 -1.0045 -0.0625
  632MOL0     H85263   8.763  10.069  10.888  2.0722  1.5434  0.5699
  632MOL0     H85264   8.754  10.178  10.764 -2.9225 -0.2299  1.2635
  632MOL0     H85265   8.745  10.002  10.585 -0.8871  1.1119  0.4019
  632MOL0     H85266   8.729   9.876  10.702  3.2496  0.2110 -1.0433
  632MOL0     H85267   8.572  10.132  10.672  0.8038 -0.4902 -1.4856
  632MOL0     H85268   8.503   9.968  10.637 -1.8870  1.1649  1.0518
  632MOL0     H85269   8.554  10.093  10.908 -1.6247 -1.3666  3.4476
  632MOL0     H85270   8.516   9.924  10.886 -0.4154  0.8686  0.2851
  632MOL0     H85271   8.330  10.196  11.008 -0.0522 -0.3249  0.3006
  632MOL0     H85272   8.141  10.372  10.911 -0.5433  0.4611 -1.2622
  632MOL0     H85273   8.044  10.295  10.794  2.8643  0.5745 -1.4684
  632MOL0     H85274   8.036  10.241  11.081  1.8990  2.7235 -0.7638
  632MOL0     H85275   7.931  10.158  10.958  0.8551 -1.3604  0.0667
  632MOL0     H85276   7.878  10.432  10.909 -0.6738  0.6471  1.2389
  632MOL0     H85277   7.903  10.419  11.086 -0.8576 -0.5900  1.1461
  632MOL0     H85278   7.727  10.218  10.924  1.9818 -0.7100  1.8606
  632MOL0     H85279   7.677  10.387  10.937 -5.0830 -1.7650  1.4454
  632MOL0     H85280   7.785  10.346  11.329  0.5478  0.1866 -0.4771
  632MOL0     H85281   7.770  10.668  11.490  0.3037  1.3002  3.1900
  632MOL0     H85282   7.684  10.554  11.591 -4.0295  1.1517 -2.7936
  632MOL0     H85283   7.826  10.508  11.486 -0.0284  1.1626  0.2991
  632MOL0     H85284   7.107  10.695  11.415  1.4436 -0.3255 -1.1108
  632MOL0     H85285   6.942  10.811  11.562  0.5242  0.4433  2.6942
  632MOL0     H85286   6.914  11.164  11.519  4.1344 -1.5388  0.3260
  632MOL0     H85287   6.838  11.009  11.549  0.6718 -0.6349 -0.2591
  632MOL0     H85288   6.784  11.100  11.788  0.5733 -0.2320  0.7644
  632MOL0     H85289   6.859  11.257  11.732 -3.7284  2.9871 -1.4368
  632MOL0     H85290   6.613  11.123  11.598 -2.4789  0.5307 -1.0843
  632MOL0     H85291   6.685  11.268  11.557  0.0448  1.8123  2.2138
  632MOL0     H85292   6.575  11.222  11.838  2.8901  0.3964  0.7207
  632MOL0     H85293   6.649  11.370  11.769 -3.1319  1.6644 -1.7848
  632MOL0     H85294   6.378  11.261  11.746  0.5069 -0.3311  0.9791
  632MOL0     H85295   6.431  11.309  11.581 -2.0456 -1.4130 -0.0008
  632MOL0     H85296   6.337  11.496  11.692  1.5521  1.4309 -2.2312
  632MOL0     H85297   6.452  11.505  11.823 -3.2548 -0.8001 -0.1523
  632MOL0     H85298   6.626  11.528  11.629  0.1551  0.0570  0.4912
  632MOL0     H85299   6.541  11.667  11.687 -5.1908  4.1104 -4.8526
  632MOL0     H85300   6.425  11.551  11.448  1.7693  0.0375 -1.2831
  632MOL0     H85301   6.521  11.702  11.464 -1.5839  3.1475  1.5271
  632MOL0     H85302   7.249  11.111  11.631  1.8215  0.2022 -0.0518
  632MOL0     H85303   7.412  10.985  11.478  0.3517 -0.3060  1.8430
  632MOL0     H85304   7.402  10.614  11.154  1.3209  3.0267  2.2102
  632MOL0     H85305   7.479  10.420  11.044 -1.5231  0.8637  0.6927
  632MOL0     H85306   9.316   9.718  11.115  2.9254 -2.7869 -0.8179
  632MOL0     H85307   9.495   9.691  11.286  1.2443  0.4661  1.8584
  632MOL0     H85308  10.053   9.841  11.167 -0.8473  2.1236 -1.8927
  632MOL0     H85309  10.264   9.857  11.281 -0.0374 -0.6734 -0.4081
  632MOL0     H85310  10.406   9.734  11.448  2.4369 -0.8138  0.7240
  632MOL0     H85311  10.429   9.894  11.403  0.9077 -1.9941 -0.3085
  632MOL0     H85312  10.529   9.763  11.648 -1.1895 -1.5248 -1.6017
  632MOL0     H85313  10.486   9.934  11.654  0.9990 -0.2349  0.6233
  632MOL0     H85314  10.704   9.920  11.577 -0.2375 -0.5390 -0.6227
  632MOL0     H85315  10.623   9.954  11.419 -0.2025  0.1893 -0.5207
  632MOL0     H85316  10.635   9.710  11.361  1.4262  0.9690 -0.4479
  632MOL0     H85317  10.703   9.679  11.519 -1.1529 -2.2660 -0.8574
  632MOL0     H85318  10.986   9.879  11.259  1.0825  0.0856  1.2210
  632MOL0     H85319  10.069   9.931  11.647 -1.3477 -2.5821  1.0911
  632MOL0     H85320   9.849   9.905  11.538 -1.7573  1.0413 -2.6724
  633MOL0     O85321   7.685   5.529   5.024 -0.2328 -0.1831  0.0254
  633MOL0     C85322   7.660   5.578   4.917  0.1944  0.0348 -0.1394
  633MOL0     O85323   7.749   5.578   4.812 -0.0098 -0.2057  0.3939
  633MOL0     C85324   7.869   5.524   4.794 -0.1390  0.0350  0.0204
  633MOL0     C85325   7.917   5.413   4.853 -0.0249 -0.2162  0.0039
  633MOL0     C85326   8.052   5.380   4.843 -0.1322  0.1322  0.2279
  633MOL0     C85327   8.133   5.459   4.759  0.2746 -1.2972 -0.0455
  633MOL0     O85328   8.270   5.438   4.750 -0.1753  0.0246 -0.1709
  633MOL0     C85329   8.333   5.316   4.806  0.7709  0.2546 -0.0718
  633MOL0     C85330   8.489   5.332   4.802  0.7887  0.7323  0.7253
  633MOL0     C85331   8.567   5.207   4.832 -0.2240 -0.0223  0.0009
  633MOL0     C85332   8.712   5.201   4.783 -1.2127 -0.8093  0.4500
  633MOL0     C85333   8.785   5.074   4.831 -0.2167 -0.1993  0.4689
  633MOL0     C85334   8.929   5.080   4.778 -0.2405 -0.4216  0.8132
  633MOL0     C85335   9.023   5.179   4.857 -0.9134 -0.0472  0.1927
  633MOL0     C85336   9.169   5.133   4.876 -0.9198  0.1980 -0.7255
  633MOL0     N85337   9.237   5.213   4.977 -0.1774 -0.8764 -1.0372
  633MOL0     C85338   9.277   5.170   5.101  0.2780  0.5617 -0.0013
  633MOL0     C85339   9.341   5.274   5.152 -0.0579  0.0288 -0.4914
  633MOL0     C85340   9.404   5.266   5.290 -0.5364 -0.6909  0.0551
  633MOL0     C85341   9.296   5.247   5.406 -0.0400  0.2842  0.1537
  633MOL0     C85342   9.362   5.258   5.540  0.2674 -0.2726 -0.5050
  633MOL0     C85343   9.411   5.403   5.573  0.4619  1.2010  0.3090
  633MOL0     O85344   9.450   5.407   5.708  0.7491 -0.5433 -0.1570
  633MOL0     C85345   9.352   5.399   5.807  0.6426  0.0754 -0.6699
  633MOL0     C85346   9.213   5.432   5.799 -0.4784  0.0398 -0.5533
  633MOL0     C85347   9.120   5.406   5.903  0.4877  0.2497 -0.6820
  633MOL0     C85348   8.985   5.433   5.879  0.6629 -0.6901 -0.4800
  633MOL0     C85349   9.163   5.357   6.031  0.0776 -0.8592 -0.0019
  633MOL0     C85350   9.061   5.335   6.147  0.3594 -0.2051 -0.2095
  633MOL0     O85351   9.039   5.207   6.192 -0.2143 -0.2444 -0.2368
  633MOL0     C85352   8.946   5.181   6.288 -0.2395 -0.1930 -1.4360
  633MOL0     C85353   8.988   5.105   6.405 -0.1485 -0.3867 -0.6194
  633MOL0     C85354   8.903   5.088   6.517 -0.9963 -0.8849  0.1047
  633MOL0     C85355   8.773   5.144   6.505  0.2075  0.2422 -0.4425
  633MOL0     O85356   8.679   5.132   6.606  0.0596 -0.7446  0.0972
  633MOL0     C85357   8.705   5.048   6.723 -0.3382  0.1486 -0.6837
  633MOL0     C85358   8.577   5.046   6.811  0.2591 -0.5498 -0.2382
  633MOL0     C85359   8.533   5.191   6.825  0.5500  0.8745  0.3921
  633MOL0     C85360   8.441   5.228   6.941 -0.1712  0.2714  0.3766
  633MOL0     C85361   8.358   5.350   6.912  0.4471  0.2606  0.0043
  633MOL0     C85362   8.303   5.413   7.047 -0.2562  0.2969  0.5215
  633MOL0     C85363   8.323   5.570   7.066  0.3786 -0.0485  0.9813
  633MOL0     C85364   8.298   5.615   7.213 -0.4855  0.5248 -0.9835
  633MOL0    Cl85365   8.364   5.789   7.230 -0.2472 -0.1501  0.0772
  633MOL0     C85366   8.731   5.218   6.393  0.3115 -0.0560 -0.6598
  633MOL0     C85367   8.819   5.239   6.287  0.0356 -0.0254 -0.3161
  633MOL0     O85368   8.996   5.425   6.178  0.6030 -0.0257 -0.1423
  633MOL0     C85369   9.296   5.329   6.042 -0.3807 -0.3793  0.5770
  633MOL0     C85370   9.391   5.347   5.936  0.5172  1.1777  0.3973
  633MOL0     N85371   9.339   5.380   5.060 -0.3333 -0.2617  0.4572
  633MOL0     N85372   9.272   5.337   4.960 -0.7838 -0.3104 -0.2414
  633MOL0     C85373   8.089   5.578   4.705  0.2732  0.5275  0.6395
  633MOL0     C85374   7.951   5.597   4.710  0.3457  0.8220 -0.0345
  633MOL0     C85375   7.521   5.638   4.890 -0.1462  0.3074  0.0880
  633MOL0     C85376   7.505   5.719   4.782  0.3689 -0.3748  0.2700
  633MOL0     C85377   7.376   5.772   4.760 -0.4885  0.0220  0.3721
  633MOL0     C85378   7.275   5.756   4.852  0.2081  0.4176  0.3345
  633MOL0     O85379   7.156   5.821   4.823  0.4055  0.2668 -0.8009
  633MOL0     C85380   7.037   5.807   4.904 -0.8484 -0.3034 -0.4409
  633MOL0     C85381   7.056   5.869   5.043 -0.0777 -0.8937  0.6957
  633MOL0     C85382   7.038   6.023   5.034 -0.1760  0.2785  0.8845
  633MOL0     C85383   7.024   6.089   5.179  0.6121  0.9206  0.5556
  633MOL0     C85384   6.946   6.211   5.193 -0.7000  0.4190  1.0246
  633MOL0     C85385   6.876   6.307   5.216 -0.2936  0.3504  0.3611
  633MOL0     C85386   7.289   5.665   4.951 -0.7263  1.2930  0.2575
  633MOL0     C85387   7.414   5.604   4.979  0.4257  0.0087  0.0220
  633MOL0     H85388   7.858   5.355   4.924  0.6062 -0.1960  0.5531
  633MOL0     H85389   8.100   5.299   4.897 -1.0971 -0.5121  0.1488
  633MOL0     H85390   8.298   5.294   4.907 -1.9666 -4.8225 -1.7388
  633MOL0     H85391   8.319   5.217   4.761  2.3390  1.1762 -2.8383
  633MOL0     H85392   8.505   5.353   4.696 -2.2675 -3.8075 -0.9256
  633MOL0     H85393   8.525   5.408   4.872 -1.1256 -0.6469  3.3835
  633MOL0     H85394   8.568   5.200   4.941  0.6959  1.8716  0.1531
  633MOL0     H85395   8.524   5.118   4.785 -0.9539  0.3509 -0.0535
  633MOL0     H85396   8.718   5.214   4.675 -1.8405  3.4034  0.7227
  633MOL0     H85397   8.762   5.291   4.821 -0.0103  0.6767 -4.0917
  633MOL0     H85398   8.792   5.083   4.940  0.0687 -0.5465  0.4805
  633MOL0     H85399   8.740   4.985   4.788  1.4919 -0.0412 -1.7976
  633MOL0     H85400   8.978   4.983   4.790 -0.6032 -0.9821 -1.6667
  633MOL0     H85401   8.938   5.094   4.670  1.0195  0.5328  1.0144
  633MOL0     H85402   9.026   5.274   4.804 -1.0236 -0.6562 -0.9202
  633MOL0     H85403   8.978   5.196   4.956  0.8767 -0.1114  1.0565
  633MOL0     H85404   9.204   5.141   4.772 -2.3380 -5.2654 -1.9138
  633MOL0     H85405   9.166   5.032   4.917  3.9902  0.6589  1.4041
  633MOL0     H85406   9.259   5.070   5.139  0.1541 -0.6529 -3.0591
  633MOL0     H85407   9.476   5.184   5.293  0.8067  0.4707  1.3991
  633MOL0     H85408   9.456   5.358   5.321 -1.6084 -0.0289 -0.0470
  633MOL0     H85409   9.266   5.142   5.406  1.6947 -0.2819  2.0853
  633MOL0     H85410   9.207   5.310   5.397  1.2248  2.1839  0.1616
  633MOL0     H85411   9.445   5.189   5.525 -1.0642 -2.2478  0.8328
  633MOL0     H85412   9.294   5.217   5.614 -0.2227 -0.6815 -1.1719
  633MOL0     H85413   9.321   5.463   5.555  0.6752  1.6308  0.6597
  633MOL0     H85414   9.493   5.447   5.516  0.5350  0.1104 -0.4609
  633MOL0     H85415   9.179   5.476   5.705  0.9111  0.0298 -1.0738
  633MOL0     H85416   8.955   5.460   5.777 -4.2484  0.2581  0.9421
  633MOL0     H85417   8.924   5.345   5.904 -0.3441 -0.0138 -0.4908
  633MOL0     H85418   8.939   5.509   5.942  1.9822  0.3884 -0.7643
  633MOL0     H85419   9.094   5.082   6.411  0.7226  2.7642 -2.0224
  633MOL0     H85420   8.944   5.035   6.602 -0.5657 -1.1172 -0.2430
  633MOL0     H85421   8.731   4.945   6.697 -0.8829 -1.3766  3.9992
  633MOL0     H85422   8.793   5.087   6.775  0.5148 -0.8779 -1.2919
  633MOL0     H85423   8.491   4.995   6.767 -1.1256  0.4103  1.2348
  633MOL0     H85424   8.608   5.004   6.907 -3.0504 -1.5232  0.5226
  633MOL0     H85425   8.491   5.219   6.728  1.4479  2.2729  0.3769
  633MOL0     H85426   8.620   5.257   6.822  1.9549 -0.8977 -0.5733
  633MOL0     H85427   8.372   5.146   6.958 -1.0516  1.5181  3.6412
  633MOL0     H85428   8.495   5.238   7.036  0.6209 -0.6057  0.0350
  633MOL0     H85429   8.290   5.335   6.828 -0.2267 -1.3140  0.8010
  633MOL0     H85430   8.419   5.433   6.874 -1.2185  1.0262 -1.0879
  633MOL0     H85431   8.200   5.378   7.056  0.4743 -1.7635  1.5360
  633MOL0     H85432   8.350   5.361   7.131 -1.2092 -1.7156 -0.1352
  633MOL0     H85433   8.266   5.636   7.000 -0.0210 -0.4132  0.9584
  633MOL0     H85434   8.427   5.591   7.038  0.1175  2.7788  1.8695
  633MOL0     H85435   8.345   5.547   7.286 -1.6902  0.3045 -0.3796
  633MOL0     H85436   8.191   5.612   7.234 -0.5791  0.4146 -1.4736
  633MOL0     H85437   8.634   5.266   6.388 -0.5265 -0.8947  3.7373
  633MOL0     H85438   8.779   5.296   6.204 -0.4040 -1.7595 -1.3581
  633MOL0     H85439   9.339   5.281   6.130 -3.0875 -2.2296  1.0183
  633MOL0     H85440   9.494   5.319   5.955  0.6847  1.7508  0.3403
  633MOL0     H85441   8.142   5.650   4.644 -2.3981  2.0451 -0.0492
  633MOL0     H85442   7.900   5.683   4.666 -0.9244  0.6056  0.9429
  633MOL0     H85443   7.591   5.755   4.727 -1.6717  3.2650 -0.9112
  633MOL0     H85444   7.377   5.839   4.675  0.5031  2.6544  2.3275
  633MOL0     H85445   6.948   5.849   4.855 -1.7398  0.2118  1.5011
  633MOL0     H85446   7.019   5.699   4.913  1.8090 -0.6926  1.3155
  633MOL0     H85447   7.152   5.844   5.089 -0.3496 -0.6670  1.4008
  633MOL0     H85448   6.976   5.831   5.108 -0.2013 -0.4966  0.7754
  633MOL0     H85449   6.943   6.038   4.984 -0.7030 -1.8149  1.1513
  633MOL0     H85450   7.124   6.064   4.981  1.7506 -3.0455  1.1440
  633MOL0     H85451   7.121   6.122   5.217 -0.0253  3.3158  0.3104
  633MOL0     H85452   6.982   6.020   5.253 -0.9383 -0.4008 -1.4307
  633MOL0     H85453   6.816   6.391   5.247  0.2824  0.1868  2.0301
  633MOL0     H85454   7.208   5.628   5.014  1.2129 -1.8895  1.0709
  633MOL0     H85455   7.438   5.528   5.053  2.7216 -0.0738 -0.7412
  634MOL0     O85456   4.479   2.006   3.632  0.1801 -0.1642 -0.1304
  634MOL0     C85457   4.558   1.959   3.709  0.9288 -0.4019  0.5703
  634MOL0     O85458   4.538   1.927   3.840 -0.0989  0.5821  0.3782
  634MOL0     C85459   4.413   1.946   3.887 -0.5928  0.0050 -0.7678
  634MOL0     C85460   4.328   1.829   3.900 -0.4464 -0.1009 -0.1580
  634MOL0     C85461   4.201   1.849   3.944 -0.4927  0.8057 -0.5337
  634MOL0     C85462   4.155   1.971   3.998 -0.4427  0.2507 -0.2168
  634MOL0     O85463   4.033   1.983   4.058  1.2009  0.2054  0.6516
  634MOL0     C85464   3.919   1.933   3.989 -1.2342 -0.0759 -0.1978
  634MOL0     C85465   3.886   2.035   3.882  0.3716  0.0686  0.1816
  634MOL0     C85466   3.740   1.996   3.833 -0.3483 -0.7934  0.0251
  634MOL0     C85467   3.735   1.858   3.782 -0.2165  0.4390 -0.3110
  634MOL0     C85468   3.616   1.827   3.691 -0.5439  0.0997 -0.0625
  634MOL0     C85469   3.627   1.680   3.644 -0.1743  0.2964 -0.3726
  634MOL0     C85470   3.506   1.653   3.553  0.3195  0.8218  0.0393
  634MOL0     C85471   3.521   1.515   3.480 -0.7155 -0.1437  0.2226
  634MOL0     N85472   3.404   1.473   3.420  0.4268 -0.4423  0.5654
  634MOL0     C85473   3.324   1.545   3.333 -0.0455 -0.1869 -0.0731
  634MOL0     C85474   3.218   1.471   3.299  0.0167  0.2835 -0.4928
  634MOL0     C85475   3.116   1.522   3.185  0.2720  0.5852  0.0958
  634MOL0     C85476   3.050   1.405   3.116  0.9369 -0.3984  0.9898
  634MOL0     C85477   2.938   1.441   3.004  0.1018 -0.0439  0.2456
  634MOL0     C85478   2.868   1.312   2.964  0.1497 -0.2782  0.8203
  634MOL0     O85479   2.760   1.351   2.884  0.3819  0.0918  0.7276
  634MOL0     C85480   2.673   1.258   2.827  1.4790 -0.5632  0.4385
  634MOL0     C85481   2.666   1.116   2.851 -0.2956  0.7094  0.4331
  634MOL0     C85482   2.586   1.027   2.769 -0.3118 -0.6606 -0.3178
  634MOL0     C85483   2.586   0.876   2.782 -0.4335  0.6851 -1.0310
  634MOL0     C85484   2.509   1.083   2.661  0.3208 -0.0884  0.5015
  634MOL0     C85485   2.442   1.007   2.552  0.3266  0.2048  0.1691
  634MOL0     O85486   2.323   1.066   2.505 -0.3459 -0.3480  0.8111
  634MOL0     C85487   2.240   0.982   2.438 -0.6285 -0.4146  1.0712
  634MOL0     C85488   2.112   0.967   2.479 -1.0618  0.5059 -0.8844
  634MOL0     C85489   2.031   0.888   2.411  0.0520  0.2645 -0.8756
  634MOL0     C85490   2.074   0.823   2.295  0.2606 -0.4796 -1.1398
  634MOL0     O85491   1.995   0.728   2.246 -0.0109  0.7194 -0.6475
  634MOL0     C85492   2.054   0.603   2.218  0.4989 -0.6277 -0.0779
  634MOL0     C85493   1.940   0.547   2.128 -0.4666 -0.3463  0.5635
  634MOL0     C85494   1.885   0.621   2.011  0.2281 -0.2777 -1.0371
  634MOL0     C85495   1.818   0.522   1.916 -0.5286  0.8939  0.0895
  634MOL0     C85496   1.780   0.576   1.775  0.3860  0.2510  0.1355
  634MOL0     C85497   1.659   0.672   1.778 -0.0292 -0.5320  0.9396
  634MOL0     C85498   1.614   0.720   1.638 -0.1525 -0.1244  0.3048
  634MOL0     C85499   1.609   0.865   1.614 -0.2456 -0.3261 -0.5353
  634MOL0    Cl85500   1.504   0.948   1.729 -0.2374 -0.1736 -0.0334
  634MOL0     C85501   2.196   0.846   2.243 -0.0144 -0.3976  0.6750
  634MOL0     C85502   2.282   0.929   2.315  0.7154 -0.1260 -0.0712
  634MOL0     O85503   2.498   0.912   2.507 -0.9424 -0.2530 -0.3542
  634MOL0     C85504   2.507   1.224   2.647 -0.4060 -0.4735 -0.0041
  634MOL0     C85505   2.588   1.309   2.723 -0.7571  0.1407 -0.0169
  634MOL0     N85506   3.219   1.352   3.374  0.2117 -0.3400  0.8850
  634MOL0     N85507   3.335   1.360   3.425 -0.4447  0.3759 -0.3655
  634MOL0     C85508   4.247   2.075   4.003  0.0481 -0.5266  0.1781
  634MOL0     C85509   4.378   2.066   3.949 -0.2473  0.1508  0.1578
  634MOL0     C85510   4.696   1.963   3.666 -0.2136 -0.0768  0.1998
  634MOL0     C85511   4.799   2.015   3.754  0.2355 -0.7060  0.0423
  634MOL0     C85512   4.934   2.021   3.715 -0.3910  0.1959  1.7052
  634MOL0     C85513   4.975   1.991   3.584 -0.2664 -0.2282 -1.3339
  634MOL0     O85514   5.108   2.006   3.554 -0.0371 -0.2902  0.5021
  634MOL0     C85515   5.156   1.913   3.447  0.0942 -0.5006  0.3621
  634MOL0     C85516   5.304   1.910   3.482  0.1540 -0.0067 -0.8976
  634MOL0     C85517   5.408   1.852   3.382  0.2635 -0.1264  0.3983
  634MOL0     C85518   5.361   1.739   3.302  0.2036  0.7383 -0.2402
  634MOL0     C85519   5.461   1.670   3.218  0.3462 -0.2223 -0.2633
  634MOL0     C85520   5.544   1.615   3.148  0.5028 -0.5772  0.3515
  634MOL0     C85521   4.878   1.944   3.495 -0.1003  0.2751 -0.5686
  634MOL0     C85522   4.744   1.927   3.531  0.5231 -0.4251 -1.0783
  634MOL0     H85523   4.373   1.733   3.877  1.2654  0.4974  0.5093
  634MOL0     H85524   4.134   1.765   3.962  1.1490 -0.5523 -0.5697
  634MOL0     H85525   3.932   1.847   3.923 -2.0364  1.5211 -2.6025
  634MOL0     H85526   3.848   1.908   4.068  0.0842 -1.1919  0.6765
  634MOL0     H85527   3.897   2.142   3.906 -2.1470  0.4597 -0.1804
  634MOL0     H85528   3.950   2.013   3.796  3.0801 -0.6897  2.2401
  634MOL0     H85529   3.664   1.995   3.911 -1.1171 -0.6052 -0.7025
  634MOL0     H85530   3.720   2.073   3.758 -0.4056 -0.5746  0.2645
  634MOL0     H85531   3.828   1.831   3.730 -0.8629  1.0416 -1.8293
  634MOL0     H85532   3.722   1.784   3.862 -1.6729 -1.0324 -1.8268
  634MOL0     H85533   3.524   1.850   3.745 -0.8026 -0.7186 -0.1371
  634MOL0     H85534   3.606   1.897   3.608 -1.6735  0.5733  0.4446
  634MOL0     H85535   3.720   1.664   3.589 -1.6164 -2.4988 -2.2601
  634MOL0     H85536   3.624   1.617   3.733 -0.0155 -1.1324 -1.3499
  634MOL0     H85537   3.417   1.647   3.617 -0.9311 -2.3679 -1.7243
  634MOL0     H85538   3.487   1.728   3.476 -0.5552  1.3193  0.7194
  634MOL0     H85539   3.545   1.437   3.553 -1.8755  1.2767  2.2103
  634MOL0     H85540   3.601   1.509   3.406 -0.8748 -0.2597  0.0597
  634MOL0     H85541   3.334   1.640   3.281  1.9857  0.1141  0.7619
  634MOL0     H85542   3.041   1.583   3.236 -0.4914  1.2933 -1.7922
  634MOL0     H85543   3.159   1.598   3.119  0.4780  3.1669  2.9802
  634MOL0     H85544   2.992   1.352   3.192 -1.8474  0.8010 -0.1383
  634MOL0     H85545   3.130   1.338   3.085  0.1424 -1.0701  0.3335
  634MOL0     H85546   2.982   1.487   2.915  1.4261  0.0275  0.9148
  634MOL0     H85547   2.863   1.508   3.047 -1.0584 -0.7562 -0.5871
  634MOL0     H85548   2.823   1.270   3.054 -0.3551 -2.4878 -0.3641
  634MOL0     H85549   2.935   1.244   2.909  1.3705  0.7117  1.0319
  634MOL0     H85550   2.717   1.077   2.939 -1.5466  2.2000  1.8687
  634MOL0     H85551   2.616   0.830   2.687  0.0044  0.0241 -0.5781
  634MOL0     H85552   2.649   0.852   2.868 -1.5623  2.4460  0.3600
  634MOL0     H85553   2.487   0.842   2.813  0.5559 -0.2831  1.3653
  634MOL0     H85554   2.073   1.029   2.559  0.1343  2.0948 -1.4674
  634MOL0     H85555   1.935   0.857   2.452  0.5777  1.0335  1.0321
  634MOL0     H85556   2.150   0.607   2.164 -0.6556 -3.6984 -2.6590
  634MOL0     H85557   2.072   0.540   2.306 -1.5011 -0.7489  0.2730
  634MOL0     H85558   1.980   0.452   2.093 -1.1288 -0.7581  0.9117
  634MOL0     H85559   1.860   0.520   2.197 -0.7043 -1.5544 -0.1511
  634MOL0     H85560   1.968   0.671   1.961  3.2568 -2.5142  1.4051
  634MOL0     H85561   1.809   0.692   2.045  1.0204  0.4477 -0.7498
  634MOL0     H85562   1.887   0.439   1.897 -1.2025 -0.0648  1.6792
  634MOL0     H85563   1.728   0.481   1.962 -0.7417  0.6425 -0.5390
  634MOL0     H85564   1.769   0.500   1.697  1.3641  0.5589 -0.3111
  634MOL0     H85565   1.866   0.632   1.738  2.2185 -0.5598  2.8330
  634MOL0     H85566   1.575   0.622   1.829  1.1426 -0.7904  2.7263
  634MOL0     H85567   1.690   0.762   1.832 -0.0665 -0.4370  0.7999
  634MOL0     H85568   1.512   0.686   1.622  0.5018 -1.7022 -0.7830
  634MOL0     H85569   1.685   0.675   1.568  0.0207 -0.1983  0.5221
  634MOL0     H85570   1.580   0.884   1.510  1.9763 -0.6881 -1.2821
  634MOL0     H85571   1.709   0.911   1.624  0.5711 -1.7890 -1.6454
  634MOL0     H85572   2.231   0.805   2.149 -0.5648 -0.0871  0.3283
  634MOL0     H85573   2.374   0.961   2.268 -1.2940  0.6841 -3.8258
  634MOL0     H85574   2.465   1.274   2.561  0.2578 -1.9924 -1.2703
  634MOL0     H85575   2.588   1.417   2.717 -0.0727  0.3499  2.4840
  634MOL0     H85576   4.223   2.172   4.044  0.8320  0.1976 -1.0148
  634MOL0     H85577   4.441   2.154   3.951  3.8550 -2.4960  1.4541
  634MOL0     H85578   4.768   2.045   3.853 -3.6183  3.1628 -2.0151
  634MOL0     H85579   5.002   2.076   3.779  3.7682 -2.8090  0.3074
  634MOL0     H85580   5.117   1.811   3.452  0.0258 -0.5007 -0.2101
  634MOL0     H85581   5.137   1.957   3.349 -0.4046 -1.2770  0.1049
  634MOL0     H85582   5.303   1.850   3.574  0.8128 -0.9165 -1.4674
  634MOL0     H85583   5.337   2.013   3.502  2.0409 -0.7447  0.0246
  634MOL0     H85584   5.500   1.825   3.434 -0.3084  0.2858  1.6583
  634MOL0     H85585   5.438   1.937   3.320  3.2136 -2.0560 -1.0503
  634MOL0     H85586   5.275   1.775   3.243 -0.3895 -1.8876 -1.1137
  634MOL0     H85587   5.315   1.661   3.363 -3.8003  2.2333 -1.0339
  634MOL0     H85588   5.626   1.576   3.091 -0.4313 -1.4749 -0.4085
  634MOL0     H85589   4.905   1.902   3.399  0.1417 -1.1294  0.0779
  634MOL0     H85590   4.668   1.894   3.461 -3.9842  2.3973  1.8976
  635MOL0     O85591   8.859   9.942   4.099 -0.2063  0.2213 -0.8737
  635MOL0     C85592   8.928   9.912   4.196 -1.0531 -0.5118 -0.2913
  635MOL0     O85593   8.893   9.867   4.315 -0.1003 -0.3101 -0.5623
  635MOL0     C85594   8.759   9.845   4.355 -0.0678 -0.2894 -0.1471
  635MOL0     C85595   8.715   9.853   4.485 -1.1378  0.1922 -0.8077
  635MOL0     C85596   8.581   9.838   4.520 -0.3086 -0.1287  0.3192
  635MOL0     C85597   8.486   9.811   4.417  0.4578 -0.3438  0.3659
  635MOL0     O85598   8.349   9.810   4.434 -0.0423 -0.4566  0.3372
  635MOL0     C85599   8.299   9.768   4.559  0.0532 -0.3526  0.5815
  635MOL0     C85600   8.153   9.716   4.544  0.1216  0.6825  0.1353
  635MOL0     C85601   8.092   9.679   4.678 -0.1698 -0.0442 -0.0274
  635MOL0     C85602   8.117   9.527   4.708  0.8356 -0.4367  0.7056
  635MOL0     C85603   8.085   9.478   4.848 -0.3888  0.5497  0.3791
  635MOL0     C85604   8.170   9.537   4.954 -0.3904 -0.8064  1.0257
  635MOL0     C85605   8.123   9.521   5.102  0.1066  0.2221 -0.1330
  635MOL0     C85606   8.091   9.374   5.149  0.0737 -0.4723  0.1192
  635MOL0     N85607   8.199   9.272   5.134 -0.0494  0.3595  0.4249
  635MOL0     C85608   8.280   9.227   5.239 -0.7980 -0.5920  1.0053
  635MOL0     C85609   8.361   9.141   5.172  0.3251 -0.0321 -0.2092
  635MOL0     C85610   8.429   9.045   5.257  0.3403 -0.3480 -0.2395
  635MOL0     C85611   8.570   9.005   5.201  0.7205  0.5589  0.4914
  635MOL0     C85612   8.615   8.872   5.260 -0.4299 -0.3330  0.6739
  635MOL0     C85613   8.761   8.834   5.242  0.1766  0.9713  0.7126
  635MOL0     O85614   8.760   8.778   5.105 -0.0475 -0.3418  0.2389
  635MOL0     C85615   8.769   8.647   5.084  0.7049  0.5861  0.6301
  635MOL0     C85616   8.757   8.551   5.182  0.4455  0.6311  0.2688
  635MOL0     C85617   8.750   8.416   5.141 -0.7433 -0.7061 -0.2872
  635MOL0     C85618   8.736   8.319   5.252 -0.0897 -0.1141  0.4347
  635MOL0     C85619   8.783   8.376   5.012 -0.1023  0.4162 -0.0037
  635MOL0     C85620   8.781   8.236   4.959 -0.3834 -0.1833  0.6329
  635MOL0     O85621   8.658   8.179   4.970 -0.2484  0.3166  0.8274
  635MOL0     C85622   8.638   8.049   4.937 -0.5254  0.1935  0.1715
  635MOL0     C85623   8.677   7.987   4.819 -0.6612 -0.6769 -0.2753
  635MOL0     C85624   8.655   7.854   4.795 -0.1158 -0.3949  0.1003
  635MOL0     C85625   8.585   7.775   4.886  0.9137  0.1314  0.8475
  635MOL0     O85626   8.568   7.636   4.868 -0.5171  0.2753 -0.3957
  635MOL0     C85627   8.595   7.580   4.747 -0.2556  0.5405 -0.2678
  635MOL0     C85628   8.498   7.616   4.638 -0.2183 -0.2131 -0.2310
  635MOL0     C85629   8.517   7.544   4.505  0.0160 -1.1993  0.5540
  635MOL0     C85630   8.642   7.575   4.422 -0.8392  0.4009 -0.3644
  635MOL0     C85631   8.657   7.724   4.378 -0.7673  0.9545 -0.5843
  635MOL0     C85632   8.787   7.756   4.295  0.3735 -0.6254 -0.1499
  635MOL0     C85633   8.789   7.681   4.155 -0.0530  0.3796  0.6870
  635MOL0     C85634   8.912   7.743   4.082 -0.5160 -0.4768  0.4060
  635MOL0    Cl85635   8.903   7.708   3.892 -0.0596 -0.1943 -0.2769
  635MOL0     C85636   8.538   7.834   5.004 -0.1280 -0.9806  0.0833
  635MOL0     C85637   8.561   7.973   5.019 -0.2447  0.3965 -0.5192
  635MOL0     O85638   8.872   8.203   4.881 -0.5871 -0.7548  0.2602
  635MOL0     C85639   8.806   8.477   4.916  0.0989 -0.0792 -0.7563
  635MOL0     C85640   8.797   8.612   4.949 -0.1340  0.7488  0.5635
  635MOL0     N85641   8.336   9.134   5.033  0.3798 -0.2332  0.0881
  635MOL0     N85642   8.238   9.222   5.011  0.1639  0.3286 -0.3286
  635MOL0     C85643   8.533   9.790   4.284  0.0380  0.2692  0.1194
  635MOL0     C85644   8.665   9.805   4.255  0.6127 -0.1779 -0.0321
  635MOL0     C85645   9.079   9.899   4.177 -0.0142  0.7886  0.5562
  635MOL0     C85646   9.162   9.814   4.258 -0.1748 -0.6420  0.6879
  635MOL0     C85647   9.306   9.811   4.250 -0.3720 -0.6673  0.5203
  635MOL0     C85648   9.357   9.906   4.149 -0.4617  0.9033  0.0078
  635MOL0     O85649   9.482   9.905   4.097  0.2206  0.5348 -0.3767
  635MOL0     C85650   9.582   9.836   4.166  0.0493 -0.2056 -0.1215
  635MOL0     C85651   9.712   9.855   4.090  0.5881 -0.5534 -0.7676
  635MOL0     C85652   9.749  10.006   4.077 -0.0500  0.2538  0.2724
  635MOL0     C85653   9.794  10.086   4.204 -0.6561  0.3316 -0.3267
  635MOL0     C85654   9.895  10.188   4.174  0.4267  0.1630  0.2157
  635MOL0     C85655   9.986  10.270   4.156  0.4388 -0.7178  0.0873
  635MOL0     C85656   9.279   9.988   4.066  0.3735  0.4866  0.6636
  635MOL0     C85657   9.140   9.988   4.087  0.2294  0.0997  0.0816
  635MOL0     H85658   8.791   9.881   4.557 -1.3278 -0.4785 -0.3311
  635MOL0     H85659   8.565   9.862   4.625  3.5716  2.1917  0.6090
  635MOL0     H85660   8.362   9.684   4.589  1.0442 -1.0805 -3.0845
  635MOL0     H85661   8.311   9.846   4.636 -2.4284  0.0270  0.6701
  635MOL0     H85662   8.087   9.795   4.509 -0.4191  0.6574  1.0772
  635MOL0     H85663   8.147   9.630   4.476 -1.4939  0.7721  0.1243
  635MOL0     H85664   8.147   9.742   4.750  0.7992 -1.4474  0.4943
  635MOL0     H85665   7.983   9.694   4.682 -0.0767  0.5639  0.4707
  635MOL0     H85666   8.055   9.468   4.640  2.2710 -0.8391 -0.3057
  635MOL0     H85667   8.218   9.495   4.682  0.5659 -0.3457 -0.4929
  635MOL0     H85668   7.978   9.491   4.865 -1.4370 -4.8720 -0.1581
  635MOL0     H85669   8.105   9.370   4.847 -1.1698  0.4013 -0.2081
  635MOL0     H85670   8.268   9.490   4.958  0.4406  0.8868  1.0737
  635MOL0     H85671   8.183   9.643   4.930  3.1187 -0.7001  2.8968
  635MOL0     H85672   8.202   9.560   5.166  0.8845 -3.9900  1.7729
  635MOL0     H85673   8.030   9.578   5.106 -1.2662 -1.9642  0.5135
  635MOL0     H85674   8.000   9.333   5.103 -1.6233  0.0326  2.7601
  635MOL0     H85675   8.073   9.387   5.256  1.0304 -0.1653  0.2482
  635MOL0     H85676   8.273   9.231   5.348 -0.6562 -1.6707  1.0667
  635MOL0     H85677   8.449   9.088   5.356 -0.4308 -1.3637  0.3776
  635MOL0     H85678   8.361   8.960   5.255 -1.8564  1.3080  0.6633
  635MOL0     H85679   8.629   9.092   5.231  0.2383  0.8629  0.5704
  635MOL0     H85680   8.554   9.001   5.093  0.2269  2.9953  0.4308
  635MOL0     H85681   8.548   8.798   5.213 -1.2981  0.4013  0.7252
  635MOL0     H85682   8.599   8.869   5.368  2.8519 -0.7016  1.2540
  635MOL0     H85683   8.792   8.773   5.328 -0.9867  0.7007  0.9514
  635MOL0     H85684   8.829   8.919   5.242 -1.3567  2.2580 -0.8069
  635MOL0     H85685   8.719   8.585   5.278 -0.6820  4.1282 -1.2869
  635MOL0     H85686   8.630   8.295   5.247 -1.1366  4.0630 -1.5303
  635MOL0     H85687   8.809   8.237   5.246  1.6446  1.3736  0.2904
  635MOL0     H85688   8.761   8.368   5.347 -0.8817 -0.1579  0.6686
  635MOL0     H85689   8.733   8.045   4.747 -1.0671  0.4275  0.2831
  635MOL0     H85690   8.719   7.812   4.718  0.6371 -2.6771  1.8463
  635MOL0     H85691   8.694   7.603   4.707  0.7494 -2.5226  0.1823
  635MOL0     H85692   8.608   7.472   4.763 -0.1500  0.0794 -2.8712
  635MOL0     H85693   8.396   7.609   4.676 -0.4357  2.0578 -0.2286
  635MOL0     H85694   8.502   7.725   4.623  2.2287 -0.4364 -1.7949
  635MOL0     H85695   8.427   7.562   4.446  0.5113 -0.4583 -0.0063
  635MOL0     H85696   8.513   7.439   4.534 -0.0810 -1.9096 -1.8361
  635MOL0     H85697   8.726   7.529   4.475 -3.0136 -2.8591  0.5355
  635MOL0     H85698   8.652   7.511   4.333 -0.9567 -0.4103  0.1950
  635MOL0     H85699   8.662   7.788   4.466  0.0329 -0.5061  0.4802
  635MOL0     H85700   8.567   7.750   4.321 -2.2336  1.1320  1.7172
  635MOL0     H85701   8.783   7.865   4.289  2.7718 -0.5427 -1.6781
  635MOL0     H85702   8.875   7.733   4.356  0.6868  0.6284 -0.1075
  635MOL0     H85703   8.704   7.716   4.095 -0.9237  1.0002  2.2157
  635MOL0     H85704   8.782   7.573   4.170 -0.2931  0.3714  0.5125
  635MOL0     H85705   9.003   7.713   4.135  0.1808  3.5974  1.8059
  635MOL0     H85706   8.903   7.851   4.097 -1.5063 -0.3524 -0.9312
  635MOL0     H85707   8.491   7.770   5.077 -0.7882 -0.1417  0.3996
  635MOL0     H85708   8.532   8.022   5.112  0.5907 -0.4881  0.2283
  635MOL0     H85709   8.815   8.447   4.812 -1.8700 -1.8005 -0.4807
  635MOL0     H85710   8.806   8.691   4.876 -2.1679  0.9313  0.4575
  635MOL0     H85711   8.464   9.758   4.207 -0.1138 -0.3078  0.4870
  635MOL0     H85712   8.690   9.790   4.150 -0.4642 -2.2196 -0.0360
  635MOL0     H85713   9.115   9.751   4.333  2.4281 -1.2526  1.9416
  635MOL0     H85714   9.366   9.740   4.305  2.4397 -0.2016 -1.6989
  635MOL0     H85715   9.595   9.868   4.270 -2.5275 -2.6590  1.0841
  635MOL0     H85716   9.561   9.730   4.183  0.0000 -0.2958 -0.7409
  635MOL0     H85717   9.711   9.795   3.998 -1.5534 -2.1106  0.1963
  635MOL0     H85718   9.791   9.808   4.149 -1.0185 -1.4119  0.7934
  635MOL0     H85719   9.678  10.058   4.013  0.8981 -0.6777 -1.6309
  635MOL0     H85720   9.841   9.996   4.019  0.3345 -0.5444  0.9983
  635MOL0     H85721   9.846  10.013   4.268 -4.0942 -2.7187 -0.6782
  635MOL0     H85722   9.705  10.116   4.260 -0.0549  1.6147 -0.0205
  635MOL0     H85723  10.065  10.338   4.133  0.6915 -0.5180  1.4781
  635MOL0     H85724   9.332  10.052   3.996  2.2688 -0.9875  0.6805
  635MOL0     H85725   9.083  10.053   4.021  2.2329 -0.5259 -2.4156
  636MOL0     O85726   1.962   4.681   4.192 -0.0947 -0.1399  0.1836
  636MOL0     C85727   1.912   4.747   4.284  0.3913  0.5997 -0.2182
  636MOL0     O85728   1.934   4.877   4.315 -0.7594  0.1239 -0.1346
  636MOL0     C85729   2.011   4.941   4.227  0.7744  0.2866 -0.4485
  636MOL0     C85730   1.960   5.002   4.108 -0.0921  0.2791 -0.3713
  636MOL0     C85731   2.052   5.050   4.021 -0.3444 -0.1429  0.6139
  636MOL0     C85732   2.198   5.058   4.032  0.8211  0.0563 -0.2226
  636MOL0     O85733   2.288   5.083   3.927  0.0998  0.6207  0.1470
  636MOL0     C85734   2.419   5.139   3.954 -0.6351 -0.5657 -0.2372
  636MOL0     C85735   2.541   5.041   3.965 -0.6243 -0.2678  0.6880
  636MOL0     C85736   2.558   4.953   3.829  0.7075  0.3479  0.1910
  636MOL0     C85737   2.703   4.963   3.769  0.1592  0.4481 -0.0978
  636MOL0     C85738   2.735   4.882   3.641 -0.4281  0.4111  0.6952
  636MOL0     C85739   2.724   4.733   3.668 -0.0567  0.5115  0.3009
  636MOL0     C85740   2.813   4.676   3.787  0.3814 -0.7551 -0.0324
  636MOL0     C85741   2.793   4.526   3.809 -0.6985 -0.0570  0.0159
  636MOL0     N85742   2.861   4.484   3.934 -0.0052 -0.1648  0.7882
  636MOL0     C85743   2.893   4.347   3.953  0.0276 -0.1529 -0.0260
  636MOL0     C85744   2.943   4.353   4.078 -0.1761  0.0446  0.1949
  636MOL0     C85745   2.984   4.230   4.153 -0.3081 -0.3149 -0.7218
  636MOL0     C85746   3.133   4.229   4.135  0.0783 -0.3554  0.0161
  636MOL0     C85747   3.204   4.114   4.215  0.1386 -0.4445  0.6693
  636MOL0     C85748   3.350   4.105   4.173 -0.7947  0.1708 -0.0149
  636MOL0     O85749   3.421   4.220   4.211  0.2651 -0.4940 -0.3698
  636MOL0     C85750   3.560   4.213   4.215  0.2428 -0.0090 -0.0158
  636MOL0     C85751   3.625   4.337   4.237  0.2708 -0.1861 -0.8372
  636MOL0     C85752   3.758   4.357   4.230 -0.6847  0.3227  0.0949
  636MOL0     C85753   3.807   4.498   4.246  0.2032  0.1200 -0.4034
  636MOL0     C85754   3.838   4.238   4.211  0.4606  0.1948 -0.3143
  636MOL0     C85755   3.980   4.239   4.209  0.5888  0.4498  0.3612
  636MOL0     O85756   4.040   4.117   4.224 -0.0999 -0.4691 -0.2519
  636MOL0     C85757   4.175   4.097   4.234  0.1442  0.0512 -0.3419
  636MOL0     C85758   4.255   4.123   4.344 -0.0426  0.5712 -0.4219
  636MOL0     C85759   4.391   4.092   4.336 -0.7673 -0.3175  0.1611
  636MOL0     C85760   4.457   4.048   4.217  0.4018 -0.5579 -0.0029
  636MOL0     O85761   4.587   4.002   4.211  0.3366 -0.5125 -0.3390
  636MOL0     C85762   4.649   3.977   4.333 -0.1718 -0.1397  0.3550
  636MOL0     C85763   4.578   3.871   4.416 -0.6731 -1.0940 -0.0842
  636MOL0     C85764   4.585   3.894   4.567  0.3925  0.0253  0.5771
  636MOL0     C85765   4.714   3.829   4.615  0.8764  0.7564 -0.1183
  636MOL0     C85766   4.735   3.830   4.771 -0.8927  0.1084  0.4575
  636MOL0     C85767   4.855   3.742   4.814  0.9886 -0.0221 -0.3860
  636MOL0     C85768   4.880   3.746   4.963  0.2989 -0.3258 -0.3737
  636MOL0     C85769   4.921   3.884   5.006  0.4167 -0.4570 -0.8090
  636MOL0    Cl85770   5.002   3.876   5.165  0.3572 -0.6880 -0.1043
  636MOL0     C85771   4.372   4.028   4.112  0.1136  0.3844  0.4133
  636MOL0     C85772   4.235   4.056   4.117  0.7929  1.0710 -0.5619
  636MOL0     O85773   4.036   4.348   4.196 -0.9389  0.4054  0.6213
  636MOL0     C85774   3.769   4.120   4.173  0.0943  0.1853 -1.2348
  636MOL0     C85775   3.632   4.109   4.171 -0.0306 -0.1268 -0.4039
  636MOL0     N85776   2.952   4.485   4.127  1.1831 -0.5406  0.2342
  636MOL0     N85777   2.898   4.560   4.040 -0.1739  0.1085 -0.0396
  636MOL0     C85778   2.244   5.004   4.154 -0.7525 -0.3654  0.2942
  636MOL0     C85779   2.157   4.945   4.250  0.0191 -0.0712  0.2512
  636MOL0     C85780   1.842   4.661   4.380  0.0412 -0.2733 -1.0713
  636MOL0     C85781   1.786   4.538   4.356 -0.0058  0.4920 -0.1693
  636MOL0     C85782   1.730   4.461   4.458  0.2377  0.0238 -1.0645
  636MOL0     C85783   1.733   4.506   4.595 -0.0415  0.1400  0.5944
  636MOL0     O85784   1.681   4.454   4.710 -0.1018  0.2157 -0.4942
  636MOL0     C85785   1.610   4.329   4.693 -0.5113 -0.2424 -0.0092
  636MOL0     C85786   1.462   4.349   4.662 -0.3996 -0.8052 -0.7637
  636MOL0     C85787   1.385   4.343   4.790  0.6459  0.1371 -0.1805
  636MOL0     C85788   1.234   4.370   4.759 -0.7655 -0.1127 -0.5049
  636MOL0     C85789   1.168   4.350   4.889 -0.2093  0.7839  0.3388
  636MOL0     C85790   1.126   4.310   4.996  0.5554  0.1288 -0.1073
  636MOL0     C85791   1.795   4.630   4.622  0.7473 -0.1325 -0.3089
  636MOL0     C85792   1.849   4.707   4.513  0.5005 -0.4675 -0.3970
  636MOL0     H85793   1.852   5.017   4.107 -0.5669 -1.4053  3.6830
  636MOL0     H85794   2.017   5.090   3.927  0.4634  2.0661  1.2016
  636MOL0     H85795   2.439   5.220   3.883 -3.0139  0.5510  0.2503
  636MOL0     H85796   2.401   5.192   4.049  0.1154  1.3925 -1.1336
  636MOL0     H85797   2.630   5.099   3.991 -0.1445 -0.3652 -0.6332
  636MOL0     H85798   2.526   4.969   4.045  0.6394 -0.8573  0.4180
  636MOL0     H85799   2.535   4.851   3.861 -2.1877 -0.1253 -2.8362
  636MOL0     H85800   2.479   4.968   3.755 -0.1793  0.8178  1.2078
  636MOL0     H85801   2.727   5.068   3.751 -2.1475  1.4740  2.0847
  636MOL0     H85802   2.760   4.934   3.858  0.3819  0.4238 -0.2471
  636MOL0     H85803   2.659   4.904   3.566  0.5099  0.1390 -0.3654
  636MOL0     H85804   2.834   4.916   3.608 -0.3397 -0.8081 -0.3561
  636MOL0     H85805   2.624   4.718   3.709 -0.5571  2.8918  0.0529
  636MOL0     H85806   2.745   4.677   3.576 -0.4183 -0.6306  0.8971
  636MOL0     H85807   2.917   4.700   3.762  0.0495  0.4946 -0.2676
  636MOL0     H85808   2.798   4.725   3.884  2.0497 -0.5577  0.1591
  636MOL0     H85809   2.812   4.458   3.726 -0.7831  0.3193 -0.3156
  636MOL0     H85810   2.686   4.504   3.822 -0.3130 -1.7417  0.5407
  636MOL0     H85811   2.886   4.257   3.892  3.2427 -0.5180 -0.0270
  636MOL0     H85812   2.972   4.227   4.262 -0.9781 -0.1094 -0.7915
  636MOL0     H85813   2.928   4.143   4.120 -1.0123 -0.0612 -0.2135
  636MOL0     H85814   3.174   4.323   4.174  0.7043 -1.4252  2.1032
  636MOL0     H85815   3.165   4.217   4.031  0.6617  1.1037  0.0091
  636MOL0     H85816   3.154   4.016   4.208  2.1635 -1.4537 -0.4965
  636MOL0     H85817   3.211   4.136   4.322  4.2127  1.3447  0.2079
  636MOL0     H85818   3.350   4.093   4.064  0.4707 -2.8854  0.2004
  636MOL0     H85819   3.382   4.007   4.211 -5.1597 -1.7282 -0.6169
  636MOL0     H85820   3.564   4.425   4.252  2.5469  1.1274  1.4710
  636MOL0     H85821   3.894   4.523   4.184 -0.1674  0.8093 -0.6567
  636MOL0     H85822   3.721   4.560   4.218 -3.4702 -2.9544  2.8527
  636MOL0     H85823   3.831   4.518   4.351  1.8815  1.7731 -1.0463
  636MOL0     H85824   4.215   4.147   4.442 -1.2153  2.6005 -1.3280
  636MOL0     H85825   4.450   4.105   4.426 -1.2955  2.1881  0.2100
  636MOL0     H85826   4.745   3.933   4.302 -0.7539 -0.7128 -0.7112
  636MOL0     H85827   4.661   4.070   4.388  1.5807  0.4998 -1.0001
  636MOL0     H85828   4.477   3.842   4.386 -0.0396 -3.1732 -0.3499
  636MOL0     H85829   4.618   3.774   4.388  1.4309  0.3243 -2.4905
  636MOL0     H85830   4.502   3.845   4.618 -1.1888  1.0962 -0.8990
  636MOL0     H85831   4.597   4.001   4.586 -1.5181  0.3545  0.0911
  636MOL0     H85832   4.722   3.724   4.586 -3.3562  0.6654 -1.6508
  636MOL0     H85833   4.801   3.880   4.571  2.9266 -0.2853  2.4160
  636MOL0     H85834   4.643   3.809   4.827 -1.8111  0.2368 -0.9400
  636MOL0     H85835   4.751   3.936   4.792  2.2540 -0.3138  0.5292
  636MOL0     H85836   4.851   3.640   4.775  1.9108 -1.1364  2.2252
  636MOL0     H85837   4.945   3.782   4.767  0.6212  1.6284  0.2127
  636MOL0     H85838   4.953   3.670   4.995 -0.0787  0.1540  1.6908
  636MOL0     H85839   4.785   3.718   5.008 -1.1765  1.8461 -1.9259
  636MOL0     H85840   4.824   3.935   5.016 -0.3518 -2.1131  0.8427
  636MOL0     H85841   4.985   3.939   4.936  0.0920  0.3389 -0.4924
  636MOL0     H85842   4.394   3.984   4.015 -0.4199 -2.5309  1.5276
  636MOL0     H85843   4.164   4.040   4.036  2.3420 -0.3114 -1.7041
  636MOL0     H85844   3.827   4.030   4.156 -1.1241 -0.9424  0.3416
  636MOL0     H85845   3.590   4.020   4.125  0.3491  0.9002 -2.9328
  636MOL0     H85846   2.351   4.996   4.172 -0.4661  0.8373 -0.6795
  636MOL0     H85847   2.202   4.895   4.335 -1.0908  0.7839  1.4023
  636MOL0     H85848   1.798   4.493   4.258 -1.2493  1.4225 -0.7734
  636MOL0     H85849   1.679   4.367   4.441  4.0333 -2.1425 -1.6028
  636MOL0     H85850   1.656   4.265   4.617 -2.5373 -0.5080 -1.0787
  636MOL0     H85851   1.615   4.281   4.792 -0.8109 -1.4662 -0.5594
  636MOL0     H85852   1.420   4.271   4.599  1.3557 -3.4902  1.1399
  636MOL0     H85853   1.450   4.450   4.622  1.4325 -0.2308  0.0085
  636MOL0     H85854   1.416   4.419   4.862  0.6618 -0.5180  0.5207
  636MOL0     H85855   1.413   4.246   4.831  1.1714  0.5333  0.4164
  636MOL0     H85856   1.198   4.294   4.689 -0.5661 -0.5209 -0.1684
  636MOL0     H85857   1.211   4.469   4.717 -2.2692 -0.3742 -0.3718
  636MOL0     H85858   1.078   4.268   5.082 -1.7901 -1.7621 -2.1875
  636MOL0     H85859   1.820   4.657   4.724  1.3887 -0.2133 -0.4421
  636MOL0     H85860   1.904   4.799   4.529 -1.1226  0.2792  1.1191
  637MOL0     O85861   9.640   7.135   1.285 -0.3222  0.0531  0.0448
  637MOL0     C85862   9.714   7.072   1.360  0.4274 -0.3064  0.0641
  637MOL0     O85863   9.690   6.947   1.406  0.6689 -0.0579  0.1201
  637MOL0     C85864   9.570   6.874   1.379 -0.8138  0.1106 -1.0586
  637MOL0     C85865   9.575   6.746   1.451 -0.4098 -0.1861  0.2590
  637MOL0     C85866   9.467   6.662   1.456 -0.2881 -0.7687  0.0817
  637MOL0     C85867   9.353   6.700   1.398 -0.9654 -0.0880  0.4389
  637MOL0     O85868   9.236   6.624   1.408 -0.9931 -0.0951 -0.2575
  637MOL0     C85869   9.241   6.489   1.442  0.9798 -0.2729  0.3947
  637MOL0     C85870   9.113   6.409   1.406 -0.2465  0.0324  0.0635
  637MOL0     C85871   9.009   6.422   1.520  0.5867 -0.9590 -0.2918
  637MOL0     C85872   8.986   6.562   1.581  0.7468  0.3238  0.5786
  637MOL0     C85873   8.851   6.569   1.670 -0.4938  0.5451  0.7129
  637MOL0     C85874   8.720   6.544   1.600 -0.0758 -0.7154 -0.3492
  637MOL0     C85875   8.593   6.572   1.678  0.6310 -0.5413  0.7099
  637MOL0     C85876   8.507   6.453   1.708  0.7246  0.6078  0.8196
  637MOL0     N85877   8.576   6.350   1.783 -0.0559  0.1440 -1.1041
  637MOL0     C85878   8.655   6.364   1.894 -0.1053  0.2790 -0.3493
  637MOL0     C85879   8.692   6.250   1.941 -0.6515  0.2118 -0.0618
  637MOL0     C85880   8.784   6.229   2.056  0.5101  0.4763  0.4558
  637MOL0     C85881   8.932   6.235   2.030 -0.0855 -0.2242  0.5597
  637MOL0     C85882   8.960   6.176   1.893  0.8655  0.1097  0.3592
  637MOL0     C85883   9.113   6.179   1.868  0.3678 -0.2433 -0.3167
  637MOL0     O85884   9.168   6.143   1.738  0.4155  0.7652  0.3615
  637MOL0     C85885   9.302   6.161   1.733 -1.2530  0.3391 -1.0019
  637MOL0     C85886   9.353   6.152   1.601  0.8465  0.2776 -0.3592
  637MOL0     C85887   9.484   6.172   1.571  0.2118 -0.4378  0.1850
  637MOL0     C85888   9.514   6.167   1.421  0.1596  0.0533  0.0469
  637MOL0     C85889   9.583   6.194   1.670 -0.2315 -0.8087  0.3015
  637MOL0     C85890   9.733   6.222   1.641 -0.1829  0.4728 -0.4151
  637MOL0     O85891   9.821   6.178   1.744 -0.0572  0.1291 -0.1335
  637MOL0     C85892   9.958   6.209   1.742 -0.0936 -0.5416  0.5659
  637MOL0     C85893  10.025   6.171   1.861  0.1601  0.3196 -0.3106
  637MOL0     C85894  10.164   6.184   1.870 -0.6185  0.3397 -0.4034
  637MOL0     C85895  10.243   6.246   1.772 -0.2254  0.2124 -0.3139
  637MOL0     O85896  10.379   6.240   1.792  0.1896  0.1628  0.8316
  637MOL0     C85897  10.459   6.198   1.682  0.0557 -0.1998 -0.2075
  637MOL0     C85898  10.459   6.048   1.681  1.2323 -0.2118 -0.5078
  637MOL0     C85899  10.556   5.993   1.572  0.2485 -0.0631 -0.0740
  637MOL0     C85900  10.493   6.004   1.431 -0.6093  0.6519  0.7241
  637MOL0     C85901  10.587   5.971   1.315 -0.3303 -1.3816  0.4807
  637MOL0     C85902  10.692   6.080   1.293 -0.0965 -0.9442 -0.6730
  637MOL0     C85903  10.762   6.072   1.157 -0.7669  0.2462  0.6112
  637MOL0     C85904  10.904   6.135   1.162 -1.3645  0.7445  0.5249
  637MOL0    Cl85905  11.011   5.994   1.240  0.0201 -0.2921  0.2426
  637MOL0     C85906  10.174   6.287   1.654  0.4659 -0.0173 -0.4550
  637MOL0     C85907  10.037   6.275   1.642  1.3379  0.7360 -0.1967
  637MOL0     O85908   9.758   6.292   1.547 -0.5670 -0.0877  0.1537
  637MOL0     C85909   9.539   6.197   1.800  0.7799 -0.8311 -0.4251
  637MOL0     C85910   9.399   6.182   1.833 -0.4146  0.1819 -0.2249
  637MOL0     N85911   8.635   6.154   1.858 -0.5299 -0.8412 -0.4315
  637MOL0     N85912   8.563   6.213   1.771  0.2033 -0.4900 -0.0298
  637MOL0     C85913   9.343   6.822   1.320  0.2177  0.1135 -1.3462
  637MOL0     C85914   9.446   6.919   1.312 -0.4460  0.0500 -0.1196
  637MOL0     C85915   9.851   7.120   1.385 -0.0844  0.6668 -0.0384
  637MOL0     C85916   9.943   7.038   1.451 -0.8117 -0.1569  1.0103
  637MOL0     C85917  10.072   7.086   1.471  0.9077  0.4186 -0.7264
  637MOL0     C85918  10.107   7.219   1.456 -0.2804  1.1965 -0.4247
  637MOL0     O85919  10.238   7.268   1.480 -0.0808 -0.5188 -0.3494
  637MOL0     C85920  10.344   7.177   1.465 -0.1086 -0.3679  0.8920
  637MOL0     C85921  10.477   7.239   1.495 -0.2216 -0.2981 -0.3691
  637MOL0     C85922  10.511   7.263   1.646  0.9771  0.3599  0.5999
  637MOL0     C85923  10.412   7.347   1.727  0.7153 -0.4023  0.2719
  637MOL0     C85924  10.434   7.361   1.870 -0.7755  0.5584  0.2318
  637MOL0     C85925  10.449   7.365   1.990  0.4788 -0.6504  0.3481
  637MOL0     C85926  10.019   7.303   1.393 -0.2762 -0.1252 -0.1530
  637MOL0     C85927   9.893   7.254   1.356  0.9207  0.3672 -0.6615
  637MOL0     H85928   9.671   6.712   1.490 -0.3574  0.3038  0.5746
  637MOL0     H85929   9.483   6.567   1.506 -0.1017 -1.1868 -0.7468
  637MOL0     H85930   9.311   6.441   1.373  2.3240  2.3788 -0.2147
  637MOL0     H85931   9.269   6.477   1.547 -1.0679  2.8177  1.4199
  637MOL0     H85932   9.081   6.436   1.305 -1.8192 -1.4958  0.1237
  637MOL0     H85933   9.137   6.305   1.384 -2.7977  0.0349 -3.4971
  637MOL0     H85934   8.919   6.397   1.461 -0.7682  2.0100  0.3396
  637MOL0     H85935   9.011   6.337   1.589 -0.6155 -1.6455 -1.0516
  637MOL0     H85936   9.079   6.586   1.633  2.9198 -0.6276 -2.5839
  637MOL0     H85937   8.981   6.636   1.500 -3.9810  0.4654  0.7437
  637MOL0     H85938   8.863   6.495   1.750 -0.0092 -2.0336 -1.6123
  637MOL0     H85939   8.846   6.667   1.720  2.3367  0.3382  1.6015
  637MOL0     H85940   8.720   6.607   1.510 -1.1075 -0.6496 -0.3087
  637MOL0     H85941   8.719   6.439   1.571 -1.2079 -0.5277 -1.0482
  637MOL0     H85942   8.601   6.630   1.770  0.4787 -2.1889  1.7998
  637MOL0     H85943   8.521   6.627   1.616  1.3068 -1.7257 -1.2131
  637MOL0     H85944   8.487   6.409   1.609  1.4246  0.1137  0.8908
  637MOL0     H85945   8.410   6.480   1.751 -0.6037 -0.6571 -1.2219
  637MOL0     H85946   8.694   6.462   1.923 -2.0225  1.8156 -2.5997
  637MOL0     H85947   8.758   6.309   2.126 -1.2837 -0.5626  1.0375
  637MOL0     H85948   8.763   6.134   2.106  0.3378  2.2956  4.1236
  637MOL0     H85949   8.992   6.194   2.112  2.0091 -0.8496 -1.1987
  637MOL0     H85950   8.963   6.339   2.016 -3.0963  0.3838 -3.0525
  637MOL0     H85951   8.908   6.226   1.811  2.2846 -1.8836 -1.9057
  637MOL0     H85952   8.941   6.070   1.873 -2.0685  0.8262 -1.1291
  637MOL0     H85953   9.163   6.113   1.939  0.0085  0.8982  1.0404
  637MOL0     H85954   9.151   6.280   1.885  4.3389 -1.4324 -1.0192
  637MOL0     H85955   9.278   6.115   1.531 -0.8015 -1.9719  2.3917
  637MOL0     H85956   9.526   6.270   1.388 -1.7448  1.0509  2.2020
  637MOL0     H85957   9.605   6.106   1.409 -1.2921 -1.7505 -2.8934
  637MOL0     H85958   9.438   6.113   1.363 -0.5514  1.8556 -0.7769
  637MOL0     H85959   9.960   6.147   1.944  0.9122  0.5780  0.3594
  637MOL0     H85960  10.212   6.180   1.967 -3.2579  4.1036  1.3378
  637MOL0     H85961  10.435   6.224   1.579  0.7694  0.2840 -0.2613
  637MOL0     H85962  10.559   6.238   1.704  0.4708 -0.8528 -0.8528
  637MOL0     H85963  10.494   6.014   1.779 -2.1687 -2.8584 -0.0232
  637MOL0     H85964  10.366   5.992   1.669  2.3556 -4.1061  5.2608
  637MOL0     H85965  10.591   5.892   1.596  0.3431 -0.8646 -3.1650
  637MOL0     H85966  10.650   6.051   1.570  0.6278 -0.6798 -0.2165
  637MOL0     H85967  10.410   5.934   1.420  2.2119 -2.5142 -3.8081
  637MOL0     H85968  10.451   6.101   1.401 -0.9192 -0.3033 -2.3561
  637MOL0     H85969  10.539   5.944   1.220  1.3957  1.1344 -1.2146
  637MOL0     H85970  10.650   5.885   1.340  1.2503 -0.8918 -1.5754
  637MOL0     H85971  10.645   6.176   1.315 -0.7223 -1.7657  1.8070
  637MOL0     H85972  10.766   6.062   1.371 -1.7278 -3.9708  0.3443
  637MOL0     H85973  10.700   6.137   1.094 -1.3054 -0.2053  0.6701
  637MOL0     H85974  10.771   5.969   1.120 -0.8014 -0.4192  2.3745
  637MOL0     H85975  10.903   6.222   1.228 -2.5407  1.1135  0.0581
  637MOL0     H85976  10.952   6.163   1.068  1.8993  0.3897  1.9619
  637MOL0     H85977  10.218   6.340   1.570 -0.6360  0.9513 -0.4450
  637MOL0     H85978   9.996   6.319   1.552  3.2299  2.1871 -0.4080
  637MOL0     H85979   9.599   6.210   1.890  0.5160 -1.9512 -0.0638
  637MOL0     H85980   9.379   6.167   1.939  2.9551  0.0020  0.5249
  637MOL0     H85981   9.246   6.849   1.279 -1.6767 -2.0447  1.3588
  637MOL0     H85982   9.429   7.016   1.268  0.4024 -1.2385 -3.6068
  637MOL0     H85983   9.921   6.934   1.476 -0.4115 -0.3234  0.6778
  637MOL0     H85984  10.126   7.007   1.523  0.9849  0.5226 -0.6466
  637MOL0     H85985  10.332   7.099   1.540 -0.2960  0.2804  1.5434
  637MOL0     H85986  10.335   7.155   1.358  0.3298 -0.5024  0.8806
  637MOL0     H85987  10.480   7.336   1.445  0.2080 -0.2451 -0.2474
  637MOL0     H85988  10.556   7.174   1.456 -0.2252 -1.0760  0.8531
  637MOL0     H85989  10.610   7.310   1.643  0.5362  1.3126  0.7306
  637MOL0     H85990  10.522   7.166   1.695  2.1355 -0.3580 -0.9992
  637MOL0     H85991  10.310   7.310   1.717  0.1129  1.3816 -0.5147
  637MOL0     H85992  10.407   7.445   1.680 -0.1753 -0.4079  0.3423
  637MOL0     H85993  10.451   7.353   2.097 -3.5162  0.2585  0.6771
  637MOL0     H85994  10.046   7.407   1.378 -0.7609  0.8435  4.2670
  637MOL0     H85995   9.823   7.319   1.305  0.6995 -1.7819 -3.3459
  638MOL0     O85996   3.135   3.791   2.182  0.3122  0.3553  0.3275
  638MOL0     C85997   3.078   3.779   2.293 -0.1347  1.0708  1.0627
  638MOL0     O85998   3.046   3.875   2.369  0.5606 -0.0152 -0.2192
  638MOL0     C85999   3.103   3.998   2.353  0.1089  0.1482 -0.2700
  638MOL0     C86000   3.176   4.049   2.458 -1.4526  0.0554  0.9150
  638MOL0     C86001   3.225   4.177   2.456  0.0569 -0.3801  0.6713
  638MOL0     C86002   3.190   4.268   2.345 -0.3600  0.2747  0.1332
  638MOL0     O86003   3.248   4.400   2.352  0.3118  0.2940  0.5305
  638MOL0     C86004   3.155   4.505   2.384  0.7468 -0.9656 -0.5626
  638MOL0     C86005   3.192   4.582   2.503  0.7146  0.0939  0.2573
  638MOL0     C86006   3.111   4.707   2.537 -0.6149 -0.0460 -0.1597
  638MOL0     C86007   3.108   4.737   2.678  1.4353 -0.0590  0.2383
  638MOL0     C86008   3.024   4.860   2.696  0.5230 -0.1988 -0.8704
  638MOL0     C86009   2.967   4.880   2.842  0.5732 -0.1148  0.4712
  638MOL0     C86010   2.881   5.011   2.868  0.8944  0.1291  0.0253
  638MOL0     C86011   2.778   5.024   2.759 -0.3116  0.2813 -0.3176
  638MOL0     N86012   2.681   5.128   2.777  0.3144 -0.3665  0.2369
  638MOL0     C86013   2.543   5.120   2.787 -0.7414  0.2601 -0.3871
  638MOL0     C86014   2.509   5.247   2.801  1.1493  0.0884 -0.1219
  638MOL0     C86015   2.373   5.294   2.789  0.7978 -0.3519  0.3685
  638MOL0     C86016   2.368   5.432   2.716 -0.5159 -0.2964 -0.0853
  638MOL0     C86017   2.228   5.482   2.709 -0.5635  0.1069 -0.6533
  638MOL0     C86018   2.142   5.407   2.600  1.3711  0.1050 -0.4207
  638MOL0     O86019   2.027   5.498   2.573 -0.0227  0.2245  0.0859
  638MOL0     C86020   1.901   5.480   2.635  0.3591 -0.2349  0.2829
  638MOL0     C86021   1.878   5.414   2.754  0.1018 -0.1303  0.3048
  638MOL0     C86022   1.748   5.387   2.800  0.5508 -0.6066  1.1409
  638MOL0     C86023   1.717   5.300   2.915 -0.0715 -0.0022  0.0075
  638MOL0     C86024   1.643   5.454   2.730 -0.9086 -0.8003 -0.3391
  638MOL0     C86025   1.500   5.445   2.782 -0.3966  0.4434  0.1139
  638MOL0     O86026   1.410   5.449   2.682 -0.5066  0.8023  0.2125
  638MOL0     C86027   1.275   5.464   2.711 -0.4186 -0.4299 -0.0901
  638MOL0     C86028   1.223   5.575   2.778 -0.4506 -0.4133 -0.4848
  638MOL0     C86029   1.083   5.586   2.786 -0.3023 -0.0205 -0.9911
  638MOL0     C86030   1.001   5.490   2.735  0.1772 -0.3738 -1.0176
  638MOL0     O86031   0.862   5.500   2.760 -0.0252  0.7251 -0.7231
  638MOL0     C86032   0.772   5.403   2.699 -0.0230 -0.5766 -0.8555
  638MOL0     C86033   0.645   5.439   2.769  0.7696  0.6598  0.0975
  638MOL0     C86034   0.516   5.360   2.720 -0.0521  0.1607  0.2400
  638MOL0     C86035   0.394   5.410   2.802 -0.1604  0.8208  0.2031
  638MOL0     C86036   0.264   5.340   2.766  0.2498 -0.2293 -0.7909
  638MOL0     C86037   0.182   5.438   2.678  1.2708 -0.2483  0.6231
  638MOL0     C86038   0.040   5.376   2.661 -0.4444 -0.5097 -0.2249
  638MOL0     C86039  -0.054   5.467   2.574 -0.3056  0.3208 -0.1920
  638MOL0    Cl86040  -0.023   5.486   2.405  0.3376 -0.2312  0.6526
  638MOL0     C86041   1.049   5.373   2.679  0.1237 -1.1585 -0.6005
  638MOL0     C86042   1.188   5.360   2.674 -0.6494  0.5889  0.7701
  638MOL0     O86043   1.475   5.444   2.903  1.0873 -1.0366 -0.1832
  638MOL0     C86044   1.670   5.524   2.619  0.0471  0.5016  0.4573
  638MOL0     C86045   1.797   5.531   2.560  1.1703  0.0122  0.0858
  638MOL0     N86046   2.614   5.338   2.805  0.7225 -0.1935  1.0081
  638MOL0     N86047   2.718   5.262   2.784 -0.2737 -0.8810 -0.4640
  638MOL0     C86048   3.112   4.221   2.239  0.0614 -0.1019  0.7251
  638MOL0     C86049   3.067   4.087   2.243  1.2417 -0.1378 -0.1787
  638MOL0     C86050   3.048   3.638   2.347  0.1675  0.0982 -0.0106
  638MOL0     C86051   2.961   3.625   2.456  0.3839  0.7937 -0.8304
  638MOL0     C86052   2.925   3.498   2.507  0.0332 -0.7819 -0.1545
  638MOL0     C86053   2.967   3.389   2.435  0.1842 -0.7829  0.1643
  638MOL0     O86054   2.932   3.268   2.492  0.1216 -0.3071  0.5282
  638MOL0     C86055   2.951   3.148   2.424  0.3462 -0.0029  0.2667
  638MOL0     C86056   2.885   3.020   2.473 -0.0442  0.2328 -0.3710
  638MOL0     C86057   2.728   3.016   2.457 -0.6346  0.8258 -0.1759
  638MOL0     C86058   2.661   2.883   2.498  0.0026 -0.6512  0.2123
  638MOL0     C86059   2.701   2.770   2.410 -0.5041 -0.2283 -1.0129
  638MOL0     C86060   2.738   2.694   2.323 -0.2176 -0.8453  0.3069
  638MOL0     C86061   3.030   3.402   2.314  0.0684  0.1201 -0.0583
  638MOL0     C86062   3.082   3.531   2.274  0.1921  0.3638 -0.9488
  638MOL0     H86063   3.206   3.983   2.539 -0.8142 -1.8939 -0.8304
  638MOL0     H86064   3.278   4.227   2.537 -2.4064  0.8009  1.6753
  638MOL0     H86065   3.140   4.570   2.296 -2.6198 -1.6059 -0.6196
  638MOL0     H86066   3.056   4.460   2.399  0.5556 -1.2388 -2.4105
  638MOL0     H86067   3.179   4.511   2.586 -0.8184 -0.9243 -0.8072
  638MOL0     H86068   3.297   4.609   2.484  0.2952 -0.0324 -2.7050
  638MOL0     H86069   3.169   4.777   2.475 -0.5216 -0.8304 -0.9713
  638MOL0     H86070   3.009   4.700   2.498  0.3103 -1.8060 -2.5368
  638MOL0     H86071   3.058   4.650   2.722 -1.0017  0.9589 -0.3199
  638MOL0     H86072   3.205   4.749   2.726  0.5838 -0.2096  2.0600
  638MOL0     H86073   3.088   4.945   2.669 -0.2251  0.2974 -1.1268
  638MOL0     H86074   2.940   4.867   2.626  1.4191  4.0546 -1.7881
  638MOL0     H86075   2.914   4.787   2.863  3.7251 -1.7443  1.8652
  638MOL0     H86076   3.049   4.877   2.914  0.9142 -0.0976  0.0887
  638MOL0     H86077   2.828   4.996   2.963  1.2056 -2.4187 -0.1158
  638MOL0     H86078   2.938   5.103   2.875  0.3812  0.4720 -0.2032
  638MOL0     H86079   2.721   4.931   2.749 -0.8662  0.3046  2.0386
  638MOL0     H86080   2.831   5.050   2.667  1.9863  0.3334  0.9487
  638MOL0     H86081   2.474   5.039   2.766 -0.2854 -0.6893  1.5104
  638MOL0     H86082   2.307   5.229   2.730 -0.1697  1.1675 -0.2709
  638MOL0     H86083   2.325   5.306   2.887 -0.6007  2.5324 -0.5730
  638MOL0     H86084   2.416   5.423   2.618  2.3673  2.5311  0.8790
  638MOL0     H86085   2.427   5.512   2.761 -4.0711  2.8171 -0.4623
  638MOL0     H86086   2.238   5.590   2.696  1.9234 -0.0895 -0.8633
  638MOL0     H86087   2.182   5.469   2.808  5.0715 -0.9238  2.3126
  638MOL0     H86088   2.118   5.308   2.639  3.6962 -0.0987  0.6947
  638MOL0     H86089   2.195   5.406   2.504  0.5687  3.3968 -1.0468
  638MOL0     H86090   1.963   5.375   2.811  2.2148  1.2495 -1.7217
  638MOL0     H86091   1.710   5.370   2.998  2.7236 -1.0825  1.2891
  638MOL0     H86092   1.623   5.244   2.918  0.6908 -1.2945  2.1985
  638MOL0     H86093   1.807   5.240   2.933  0.3333 -0.7383 -3.6607
  638MOL0     H86094   1.276   5.652   2.834 -2.0367 -1.0209  2.0382
  638MOL0     H86095   1.046   5.664   2.851  0.5937 -0.3010 -0.1301
  638MOL0     H86096   0.781   5.408   2.590 -0.2372 -1.4454 -0.9215
  638MOL0     H86097   0.801   5.302   2.728 -1.3972 -2.0034 -3.9835
  638MOL0     H86098   0.650   5.416   2.875 -2.8641  1.7905  0.6336
  638MOL0     H86099   0.641   5.548   2.763  1.6210  0.6400 -1.3587
  638MOL0     H86100   0.527   5.252   2.736  2.3241  0.3541  0.3908
  638MOL0     H86101   0.503   5.366   2.612 -0.9998 -0.3893  0.3135
  638MOL0     H86102   0.417   5.392   2.907 -3.6590 -1.4589  0.7631
  638MOL0     H86103   0.401   5.516   2.776 -0.3264  0.3731 -1.9064
  638MOL0     H86104   0.201   5.315   2.852  2.1242  1.6886  1.3085
  638MOL0     H86105   0.286   5.249   2.711 -3.3922 -2.0093  0.3779
  638MOL0     H86106   0.162   5.533   2.729 -0.9994 -0.0417 -0.4862
  638MOL0     H86107   0.234   5.462   2.585 -1.0591  3.1085 -0.0340
  638MOL0     H86108   0.003   5.381   2.763  2.8188  0.0151  1.0548
  638MOL0     H86109   0.049   5.274   2.621 -0.1358  0.0270 -1.5670
  638MOL0     H86110  -0.065   5.570   2.608  0.5429  0.5716 -0.6561
  638MOL0     H86111  -0.145   5.407   2.585  2.2968 -3.6562  2.0872
  638MOL0     H86112   0.996   5.291   2.632  1.1593 -1.7642 -0.7400
  638MOL0     H86113   1.227   5.264   2.642 -1.0775  1.4876 -2.8732
  638MOL0     H86114   1.593   5.568   2.556  0.5873  1.4364  0.4386
  638MOL0     H86115   1.832   5.587   2.474  4.6033 -1.8679  0.0504
  638MOL0     H86116   3.106   4.272   2.143  3.0269 -1.1897 -0.1365
  638MOL0     H86117   3.027   4.050   2.149  1.1080 -2.7349  0.8028
  638MOL0     H86118   2.919   3.707   2.513 -4.1258 -1.0295 -1.0816
  638MOL0     H86119   2.861   3.500   2.594 -0.1205 -1.3957 -0.2451
  638MOL0     H86120   2.918   3.168   2.321 -0.5808  2.9773  1.0341
  638MOL0     H86121   3.058   3.128   2.434  0.4098  0.3598  0.3334
  638MOL0     H86122   2.907   3.014   2.580 -4.2987 -2.1849  0.5887
  638MOL0     H86123   2.925   2.926   2.433  0.3209 -0.7912  2.2103
  638MOL0     H86124   2.710   3.032   2.350  1.8835  2.3910 -0.4617
  638MOL0     H86125   2.684   3.106   2.501 -2.7205  0.7170 -1.8951
  638MOL0     H86126   2.553   2.900   2.496  0.3001  1.7089  0.8264
  638MOL0     H86127   2.685   2.866   2.603 -2.4802  0.4904  1.0344
  638MOL0     H86128   2.759   2.635   2.237 -0.8201 -2.4769  1.2287
  638MOL0     H86129   3.041   3.317   2.247  1.1289  0.9666 -0.9799
  638MOL0     H86130   3.140   3.547   2.183  2.1803 -3.2605 -0.4891
  639MOL0     O86131   9.659   9.262  11.396 -0.5786 -0.1764  0.9493
  639MOL0     C86132   9.706   9.375  11.428  0.8520  0.4715  0.4453
  639MOL0     O86133   9.633   9.495  11.418 -0.5733  0.3875  0.2706
  639MOL0     C86134   9.501   9.474  11.402 -0.1368  0.0299  0.4248
  639MOL0     C86135   9.434   9.450  11.278  0.6657 -0.0065 -0.3999
  639MOL0     C86136   9.291   9.440  11.264  0.0597 -0.4594 -0.7196
  639MOL0     C86137   9.223   9.448  11.386  0.7024  0.2062 -1.1732
  639MOL0     O86138   9.085   9.458  11.399  0.4044 -0.5079  0.4169
  639MOL0     C86139   9.019   9.528  11.290 -0.1771  0.0729 -1.2332
  639MOL0     C86140   8.869   9.559  11.321 -0.1240 -0.7132  0.7652
  639MOL0     C86141   8.793   9.618  11.206 -0.2052  0.1159 -0.8840
  639MOL0     C86142   8.661   9.661  11.253  0.1022 -1.0767 -0.8312
  639MOL0     C86143   8.565   9.706  11.148 -0.2363  0.5169 -0.0556
  639MOL0     C86144   8.430   9.742  11.205  0.3755 -0.3590  0.1917
  639MOL0     C86145   8.335   9.769  11.090 -0.0503  0.3955  0.3661
  639MOL0     C86146   8.192   9.802  11.129 -0.5408 -0.3382 -0.2892
  639MOL0     N86147   8.190   9.903  11.233  0.3520 -0.1875  0.0756
  639MOL0     C86148   8.095   9.912  11.340  1.4362  0.1196  0.1459
  639MOL0     C86149   8.065  10.045  11.357 -0.9841  0.0561  0.4071
  639MOL0     C86150   7.956  10.107  11.435 -0.6449 -0.0156  0.2123
  639MOL0     C86151   7.854  10.004  11.484  0.2521  0.0208  0.9810
  639MOL0     C86152   7.760   9.958  11.364  0.5915 -0.3793 -0.1226
  639MOL0     C86153   7.617   9.962  11.396 -0.7589 -0.9765 -0.8293
  639MOL0     O86154   7.598   9.871  11.498 -0.1652  0.3691 -0.8380
  639MOL0     C86155   7.477   9.889  11.560 -0.7912 -0.4587 -0.4647
  639MOL0     C86156   7.361   9.883  11.498  0.0504  1.3163 -0.5698
  639MOL0     C86157   7.240   9.892  11.567  0.2443  0.2765  0.8558
  639MOL0     C86158   7.116   9.876  11.480  0.1076 -0.8991  0.6578
  639MOL0     C86159   7.237   9.920  11.705  0.3498 -0.5030  0.3184
  639MOL0     C86160   7.112   9.934  11.785  0.0157 -0.4527 -0.4342
  639MOL0     O86161   7.148   9.928  11.920  0.3911 -0.0765  0.6259
  639MOL0     C86162   7.039   9.956  12.002  0.3621  0.0041  0.7152
  639MOL0     C86163   7.000  10.079  12.042 -0.2300 -0.5233 -0.2976
  639MOL0     C86164   6.884  10.114  12.106 -0.4689  1.1125 -1.0090
  639MOL0     C86165   6.790  10.016  12.142 -0.1474 -0.3212 -0.0702
  639MOL0     O86166   6.671  10.051  12.201  0.4541  0.0328 -0.7333
  639MOL0     C86167   6.590   9.940  12.251  0.0174 -1.1477 -0.1213
  639MOL0     C86168   6.492   9.992  12.348 -0.0500 -0.0019 -0.0909
  639MOL0     C86169   6.377   9.887  12.366  0.8060 -0.2225 -0.8039
  639MOL0     C86170   6.326   9.874  12.514  0.5920 -0.3609  0.8315
  639MOL0     C86171   6.222   9.768  12.530  0.9042  0.2541 -0.2160
  639MOL0     C86172   6.078   9.803  12.487 -0.5904 -0.0506 -0.2029
  639MOL0     C86173   5.973   9.688  12.474 -0.6789 -1.1995  0.2695
  639MOL0     C86174   5.968   9.610  12.599 -0.4762 -0.7944 -0.4387
  639MOL0    Cl86175   5.866   9.463  12.578  0.2052 -0.2952 -0.0792
  639MOL0     C86176   6.827   9.883  12.106 -0.2385  0.4888 -0.0052
  639MOL0     C86177   6.939   9.853  12.037 -0.0259  0.4840  0.5452
  639MOL0     O86178   6.997   9.940  11.747 -0.0332  0.0806  0.6923
  639MOL0     C86179   7.356   9.940  11.769 -0.5377  0.1618 -0.4816
  639MOL0     C86180   7.475   9.917  11.700 -0.9828  0.6021  0.0685
  639MOL0     N86181   8.151  10.120  11.272  0.2883 -0.0808 -0.3531
  639MOL0     N86182   8.217  10.034  11.208 -0.7814 -0.5788  0.3538
  639MOL0     C86183   9.284   9.460  11.510 -0.7341  0.1826  0.3508
  639MOL0     C86184   9.425   9.468  11.516  0.1318  0.0890  1.4004
  639MOL0     C86185   9.834   9.381  11.494  0.5720  0.7665  0.3923
  639MOL0     C86186   9.892   9.514  11.510  0.3342  1.3104  0.5069
  639MOL0     C86187  10.011   9.531  11.579 -0.6252  0.4420  0.3494
  639MOL0     C86188  10.066   9.425  11.642  0.1706  0.4510  0.0376
  639MOL0     O86189  10.178   9.421  11.713  0.2765  0.1915 -0.4593
  639MOL0     C86190  10.257   9.537  11.755  1.0380  0.5390  0.3604
  639MOL0     C86191  10.178   9.641  11.834 -0.8769  0.0053  0.1766
  639MOL0     C86192  10.267   9.747  11.900 -0.0055 -0.1998  0.5933
  639MOL0     C86193  10.179   9.827  11.990 -0.3259  0.3925  0.4467
  639MOL0     C86194  10.261   9.924  12.068 -0.7728  0.7595 -0.6315
  639MOL0     C86195  10.306  10.002  12.148  1.0557  0.3163 -0.4560
  639MOL0     C86196  10.018   9.297  11.624 -0.3860 -1.0165 -0.4803
  639MOL0     C86197   9.898   9.273  11.550  1.2737  0.0593 -0.2594
  639MOL0     H86198   9.497   9.433  11.192 -0.7715 -2.0131 -1.1239
  639MOL0     H86199   9.245   9.409  11.171 -0.6466  1.9338 -1.2207
  639MOL0     H86200   9.082   9.617  11.277  3.9320 -2.8914 -3.9250
  639MOL0     H86201   9.020   9.471  11.197 -1.1029  1.5919 -2.2225
  639MOL0     H86202   8.812   9.469  11.342 -3.0282  1.1921  1.7262
  639MOL0     H86203   8.874   9.626  11.407  3.6778 -0.3228  0.4543
  639MOL0     H86204   8.859   9.698  11.171 -0.2855 -0.0460 -1.4077
  639MOL0     H86205   8.781   9.544  11.126  0.0455 -0.0543 -0.7653
  639MOL0     H86206   8.604   9.585  11.307  0.2484  0.2735  1.3385
  639MOL0     H86207   8.674   9.747  11.319 -0.6339 -2.0020  0.5519
  639MOL0     H86208   8.605   9.801  11.110  1.9716  1.0318  3.1219
  639MOL0     H86209   8.566   9.628  11.071  1.8940  2.1299 -1.7935
  639MOL0     H86210   8.392   9.662  11.269 -3.8549  2.9717  2.3454
  639MOL0     H86211   8.432   9.834  11.264 -3.6095  0.8045 -1.2025
  639MOL0     H86212   8.361   9.859  11.035 -1.8496  2.0633  2.1013
  639MOL0     H86213   8.337   9.672  11.039  2.9286  0.4085  0.3154
  639MOL0     H86214   8.147   9.710  11.167 -2.1122  0.0106 -1.2177
  639MOL0     H86215   8.132   9.850  11.052 -1.1537 -1.0028 -0.2324
  639MOL0     H86216   8.036   9.837  11.390 -2.0525  1.4071 -1.6812
  639MOL0     H86217   8.005  10.158  11.519  0.1006 -1.0611  0.4357
  639MOL0     H86218   7.903  10.184  11.378 -1.8031 -0.8674  0.0972
  639MOL0     H86219   7.787  10.049  11.558  0.3001  2.0582 -0.1542
  639MOL0     H86220   7.900   9.912  11.520 -1.0108 -1.9620 -2.0826
  639MOL0     H86221   7.781   9.852  11.346  1.4322 -0.1022 -0.8685
  639MOL0     H86222   7.787  10.022  11.279 -0.5676  0.3741  0.0533
  639MOL0     H86223   7.556   9.940  11.308  3.1517 -1.5471 -3.6798
  639MOL0     H86224   7.595  10.066  11.421  1.5623 -0.0771 -2.2519
  639MOL0     H86225   7.365   9.867  11.391 -1.5046 -4.1351 -0.1603
  639MOL0     H86226   7.087   9.770  11.481  4.0273 -2.3325 -2.6684
  639MOL0     H86227   7.037   9.948  11.500  1.3154  1.2097 -1.5283
  639MOL0     H86228   7.148   9.906  11.379  0.1338  0.5788  1.0896
  639MOL0     H86229   7.070  10.160  12.025  1.9777 -2.6061 -1.7246
  639MOL0     H86230   6.859  10.218  12.127 -0.9794  0.8146 -0.0588
  639MOL0     H86231   6.540   9.902  12.161  0.5420 -1.0529 -0.4596
  639MOL0     H86232   6.650   9.861  12.298 -0.2363 -0.1461  1.9872
  639MOL0     H86233   6.542  10.021  12.441  2.6569 -0.8473 -1.2090
  639MOL0     H86234   6.447  10.082  12.304  0.2042  0.4367  0.5347
  639MOL0     H86235   6.403   9.782  12.351 -0.7134 -0.3314 -3.1022
  639MOL0     H86236   6.297   9.901  12.292 -0.5768 -0.0546  0.6630
  639MOL0     H86237   6.415   9.842  12.567  0.5552 -1.1777  0.4106
  639MOL0     H86238   6.301   9.973  12.554 -0.4794  0.6858 -2.1266
  639MOL0     H86239   6.204   9.756  12.637  0.1205 -1.4845 -0.5084
  639MOL0     H86240   6.252   9.672  12.488 -2.6245 -1.5969  1.1056
  639MOL0     H86241   6.034   9.876  12.555  0.3896 -0.5410  0.9963
  639MOL0     H86242   6.077   9.841  12.384 -0.4328 -2.3022 -1.1104
  639MOL0     H86243   6.001   9.624  12.390  0.3091  0.9386 -1.1327
  639MOL0     H86244   5.876   9.734  12.452 -0.0277  0.9055  1.4922
  639MOL0     H86245   5.919   9.671  12.676 -1.6940 -0.7961 -1.1954
  639MOL0     H86246   6.072   9.587  12.625  0.2850  1.6647 -0.9550
  639MOL0     H86247   6.766   9.796  12.127  1.5925 -1.2686 -1.6079
  639MOL0     H86248   6.964   9.753  12.004  0.7198  0.0340  2.3177
  639MOL0     H86249   7.367   9.994  11.863  1.8271  0.9641 -1.1395
  639MOL0     H86250   7.567   9.907  11.757 -0.0918  1.6750 -1.1159
  639MOL0     H86251   9.236   9.469  11.607 -2.1624  0.9895 -0.3983
  639MOL0     H86252   9.461   9.492  11.616  0.6438 -1.3086  1.5691
  639MOL0     H86253   9.837   9.601  11.476 -0.4051 -0.2996 -2.8429
  639MOL0     H86254  10.052   9.632  11.584 -1.0598  0.6505 -0.2034
  639MOL0     H86255  10.344   9.499  11.810 -0.3402 -4.3760 -0.3736
  639MOL0     H86256  10.288   9.580  11.659 -1.2510  0.9435 -0.2560
  639MOL0     H86257  10.121   9.582  11.907  1.0894 -2.7534 -0.3290
  639MOL0     H86258  10.115   9.698  11.766  0.9764  0.2961 -1.3834
  639MOL0     H86259  10.309   9.822  11.833  0.0873  0.2188  1.1066
  639MOL0     H86260  10.353   9.701  11.949 -0.0297  1.0003  1.8215
  639MOL0     H86261  10.125   9.766  12.063 -3.6542 -0.3566 -2.3471
  639MOL0     H86262  10.104   9.875  11.926  0.3754 -2.1567 -2.5117
  639MOL0     H86263  10.351  10.060  12.226 -0.0902 -0.8583  1.1554
  639MOL0     H86264  10.060   9.207  11.667 -3.4892 -1.8605  1.0701
  639MOL0     H86265   9.854   9.177  11.523  2.1476  0.6882 -4.5655
  640MOL0     O86266   4.885   1.531   9.691 -0.2133  0.7486  0.0012
  640MOL0     C86267   4.892   1.414   9.707  1.0026  0.2652 -0.0693
  640MOL0     O86268   4.819   1.314   9.634  0.6700 -0.8714  0.5859
  640MOL0     C86269   4.731   1.361   9.538  0.2980  0.4005  0.7004
  640MOL0     C86270   4.600   1.309   9.543  0.8533 -0.8258 -0.4554
  640MOL0     C86271   4.499   1.345   9.461 -1.0005 -0.3287  0.5693
  640MOL0     C86272   4.532   1.433   9.360 -0.4374  0.6268 -0.5041
  640MOL0     O86273   4.437   1.480   9.274 -0.0440 -0.1184  1.0775
  640MOL0     C86274   4.337   1.392   9.229  0.0817  0.5792 -0.4978
  640MOL0     C86275   4.268   1.442   9.097 -0.6156 -0.1116  0.4765
  640MOL0     C86276   4.162   1.344   9.046  0.3496  0.3816  0.8103
  640MOL0     C86277   4.018   1.380   9.086  0.2305 -0.2540 -0.0262
  640MOL0     C86278   3.904   1.316   9.011  0.6466  0.4607 -0.1512
  640MOL0     C86279   3.767   1.331   9.082  0.3775  0.9332  0.3562
  640MOL0     C86280   3.759   1.268   9.216  0.0217 -0.0694 -1.0894
  640MOL0     C86281   3.737   1.116   9.199  0.1229  0.5695 -0.3261
  640MOL0     N86282   3.718   1.048   9.334  0.1805  0.1239 -0.5470
  640MOL0     C86283   3.818   1.034   9.429 -0.3011 -0.3971  0.2190
  640MOL0     C86284   3.761   1.050   9.550 -0.5004  0.4784  0.1675
  640MOL0     C86285   3.836   1.043   9.684  0.0754  0.3759 -0.9949
  640MOL0     C86286   3.882   0.900   9.714 -0.1900  0.5954  1.0549
  640MOL0     C86287   3.935   0.901   9.857  0.5246 -0.0056  0.1527
  640MOL0     C86288   3.969   0.757   9.895  0.0112 -0.3125  0.6177
  640MOL0     O86289   4.063   0.690   9.809  0.1632  0.1767  0.2648
  640MOL0     C86290   4.195   0.734   9.813 -0.2222  0.3323 -0.7160
  640MOL0     C86291   4.285   0.683   9.713  0.1162 -0.3623  0.7643
  640MOL0     C86292   4.413   0.742   9.707 -0.0643  0.6828  0.1855
  640MOL0     C86293   4.490   0.716   9.583 -0.8201  0.9812 -0.3199
  640MOL0     C86294   4.464   0.830   9.802  1.1337  0.2759 -0.4226
  640MOL0     C86295   4.605   0.876   9.800 -0.5580 -0.5149  0.0040
  640MOL0     O86296   4.708   0.791   9.757 -0.6811 -0.5006  0.0010
  640MOL0     C86297   4.834   0.847   9.756  0.7884 -0.0680  0.9132
  640MOL0     C86298   4.918   0.823   9.862  0.3687  0.8000  0.1820
  640MOL0     C86299   5.047   0.863   9.857  0.7674  0.0514 -0.0138
  640MOL0     C86300   5.088   0.942   9.749  0.1268 -0.6578 -0.2558
  640MOL0     O86301   5.224   0.974   9.767  0.0152  0.2111 -0.4937
  640MOL0     C86302   5.278   1.102   9.722  0.8293  0.6668 -0.2119
  640MOL0     C86303   5.430   1.086   9.719 -0.2362  0.2006  0.0351
  640MOL0     C86304   5.500   1.202   9.653 -0.1732 -1.1425 -0.2095
  640MOL0     C86305   5.498   1.336   9.734  0.1265  0.0272  0.1744
  640MOL0     C86306   5.623   1.352   9.827  0.8236  0.2514  0.0431
  640MOL0     C86307   5.756   1.374   9.752 -0.0820  0.0235 -0.5108
  640MOL0     C86308   5.894   1.353   9.824  1.0991 -0.5177 -0.3107
  640MOL0     C86309   5.906   1.215   9.886 -0.2661  0.4655 -0.6119
  640MOL0    Cl86310   6.079   1.170   9.901  0.3631 -0.0010  0.2345
  640MOL0     C86311   5.008   0.969   9.632 -0.2266 -0.2802  0.4270
  640MOL0     C86312   4.882   0.919   9.647 -0.1599 -0.5898  0.3776
  640MOL0     O86313   4.630   0.987   9.840 -0.8572  0.4086 -0.3527
  640MOL0     C86314   4.374   0.868   9.899 -0.1429  0.2730 -0.5539
  640MOL0     C86315   4.243   0.822   9.906 -0.1884  0.1481  0.7051
  640MOL0     N86316   3.626   1.069   9.535  1.0659  0.3794 -0.1309
  640MOL0     N86317   3.601   1.069   9.411 -0.0394 -0.6038 -0.1276
  640MOL0     C86318   4.656   1.486   9.349 -0.0326 -0.3568 -0.7017
  640MOL0     C86319   4.762   1.449   9.440  0.7721  0.0707  0.0918
  640MOL0     C86320   4.977   1.360   9.811  0.5385 -0.2739 -0.1614
  640MOL0     C86321   5.082   1.434   9.858  0.9831 -0.9158  0.0044
  640MOL0     C86322   5.153   1.393   9.970 -0.2173  0.0040  0.3658
  640MOL0     C86323   5.135   1.266  10.021  0.3759 -0.2588  0.0022
  640MOL0     O86324   5.186   1.233  10.142  0.7978  0.0942  0.4624
  640MOL0     C86325   5.298   1.147  10.142  0.2179  0.0503  0.1325
  640MOL0     C86326   5.428   1.225  10.131  0.9939  0.4431 -0.3382
  640MOL0     C86327   5.443   1.299  10.256 -0.2290 -0.4969 -0.4539
  640MOL0     C86328   5.563   1.402  10.244 -0.4484 -0.4241  0.1447
  640MOL0     C86329   5.700   1.343  10.253 -0.1443 -1.0200 -0.2168
  640MOL0     C86330   5.804   1.290  10.257  0.1506 -0.8329  1.0123
  640MOL0     C86331   5.035   1.187   9.972 -0.0902 -0.0767  0.7162
  640MOL0     C86332   4.957   1.224   9.863 -0.2845 -0.3945 -0.3892
  640MOL0     H86333   4.596   1.238   9.624  1.8545  0.7867  1.0882
  640MOL0     H86334   4.400   1.301   9.464 -0.4485 -1.8194 -1.4293
  640MOL0     H86335   4.385   1.296   9.209 -0.7097 -0.5087  2.4038
  640MOL0     H86336   4.262   1.381   9.307  0.6061  1.0249  0.0851
  640MOL0     H86337   4.226   1.543   9.108 -2.6562 -0.7295 -1.1261
  640MOL0     H86338   4.341   1.445   9.016 -3.2629  1.0295 -2.0860
  640MOL0     H86339   4.177   1.334   8.938 -0.3195 -0.4377  0.7828
  640MOL0     H86340   4.189   1.244   9.081  1.4968 -0.1312 -1.3824
  640MOL0     H86341   4.012   1.356   9.193 -1.8378  0.3352  0.0264
  640MOL0     H86342   3.991   1.486   9.086 -2.4043 -0.8525  1.2380
  640MOL0     H86343   3.904   1.354   8.909 -4.1785 -1.9616 -1.3298
  640MOL0     H86344   3.926   1.209   8.998  0.4176  0.3131  0.6230
  640MOL0     H86345   3.749   1.439   9.094  0.5884  1.4676 -3.0716
  640MOL0     H86346   3.694   1.282   9.018 -1.6053  0.8511  2.5489
  640MOL0     H86347   3.839   1.283   9.289 -1.1308  0.0705  0.1840
  640MOL0     H86348   3.669   1.321   9.249  1.3488  1.2276  0.5790
  640MOL0     H86349   3.822   1.072   9.146 -1.2845 -4.2597  0.9665
  640MOL0     H86350   3.650   1.114   9.134  2.3623  1.0969 -3.5902
  640MOL0     H86351   3.926   1.036   9.415 -0.3842  1.2387 -0.4545
  640MOL0     H86352   3.914   1.119   9.681 -1.3833  1.9272 -0.7110
  640MOL0     H86353   3.763   1.075   9.758  0.1228 -0.8477 -0.3916
  640MOL0     H86354   3.955   0.872   9.639 -2.9108  1.2617 -2.0592
  640MOL0     H86355   3.797   0.831   9.715  0.4066 -0.1421  1.3889
  640MOL0     H86356   3.857   0.940   9.925 -1.4476 -1.9030 -0.8964
  640MOL0     H86357   4.020   0.970   9.865  0.1198  0.5059  0.1606
  640MOL0     H86358   3.877   0.699   9.899 -0.8595  0.6857 -2.3309
  640MOL0     H86359   4.020   0.758   9.992  0.7907 -1.4435  0.2436
  640MOL0     H86360   4.248   0.625   9.629  1.9607  2.1201 -1.9925
  640MOL0     H86361   4.553   0.628   9.598 -0.8236  1.3129  2.0057
  640MOL0     H86362   4.423   0.693   9.499  1.9544  3.7446 -3.5870
  640MOL0     H86363   4.547   0.804   9.552  1.0564 -0.4261 -1.0803
  640MOL0     H86364   4.881   0.770   9.949 -1.5783 -2.3176 -2.2617
  640MOL0     H86365   5.115   0.839   9.939  0.0537 -0.9731  0.3014
  640MOL0     H86366   5.229   1.123   9.627 -1.8444  2.2191  1.3943
  640MOL0     H86367   5.240   1.171   9.798 -0.2602  0.9398 -0.9865
  640MOL0     H86368   5.468   1.059   9.818  1.7289 -0.1696 -0.7846
  640MOL0     H86369   5.441   1.000   9.651 -0.7151  2.4921 -3.1855
  640MOL0     H86370   5.457   1.216   9.553  2.5063 -4.5777 -2.0965
  640MOL0     H86371   5.599   1.173   9.616 -0.9912 -1.7731 -2.0649
  640MOL0     H86372   5.501   1.427   9.675  1.9487  1.4404  2.2683
  640MOL0     H86373   5.407   1.341   9.795 -0.6655  2.7743 -1.0909
  640MOL0     H86374   5.619   1.266   9.894 -0.9213 -1.4452 -2.0506
  640MOL0     H86375   5.606   1.442   9.886 -1.9328 -1.0012  1.3556
  640MOL0     H86376   5.763   1.324   9.655  2.3709 -0.0466 -0.3677
  640MOL0     H86377   5.777   1.479   9.727 -0.5671  0.1669 -0.3238
  640MOL0     H86378   5.912   1.422   9.907 -0.1939 -2.5792  1.8144
  640MOL0     H86379   5.972   1.379   9.753  0.4758  1.0747 -0.4523
  640MOL0     H86380   5.851   1.151   9.816  1.0244 -0.7709 -0.5321
  640MOL0     H86381   5.857   1.217   9.983  0.7363  1.2437 -0.1041
  640MOL0     H86382   5.041   1.010   9.538 -3.6288 -2.5723 -1.9894
  640MOL0     H86383   4.809   0.957   9.576 -2.8427 -2.0302  2.1777
  640MOL0     H86384   4.415   0.922   9.984 -1.4733 -0.0414  0.3171
  640MOL0     H86385   4.195   0.868   9.992 -1.7363  0.5334 -0.3245
  640MOL0     H86386   4.676   1.560   9.273  1.8830 -2.3040 -2.2001
  640MOL0     H86387   4.862   1.491   9.448  0.5889  0.3536  1.1154
  640MOL0     H86388   5.093   1.534   9.817 -0.8638 -1.0559 -0.9186
  640MOL0     H86389   5.218   1.460  10.025  0.8212 -1.9631  1.6397
  640MOL0     H86390   5.288   1.102  10.242 -0.7175  0.5561  0.2770
  640MOL0     H86391   5.296   1.056  10.081 -0.5653  2.1471 -3.1887
  640MOL0     H86392   5.418   1.296  10.048  2.8560 -0.1149 -1.0861
  640MOL0     H86393   5.517   1.163  10.118  1.0084  0.3762  0.0501
  640MOL0     H86394   5.436   1.237  10.346 -0.3316  1.1434  0.7150
  640MOL0     H86395   5.353   1.358  10.273  0.2145 -0.2616  1.2511
  640MOL0     H86396   5.559   1.481  10.320  1.4607 -0.7905  0.6765
  640MOL0     H86397   5.552   1.444  10.144  2.3236 -1.3570 -0.6547
  640MOL0     H86398   5.897   1.237  10.255  0.0582 -1.0529 -2.4944
  640MOL0     H86399   5.016   1.096  10.027  0.0070 -0.9226 -0.6154
  640MOL0     H86400   4.876   1.153   9.852 -0.9193  0.0250  1.1802
  641MOL0     O86401  10.796   5.515   4.629  0.4417  0.1321  0.0193
  641MOL0     C86402  10.817   5.637   4.619 -0.3641  0.4247 -0.9715
  641MOL0     O86403  10.936   5.699   4.654  0.1066 -0.1182 -0.4379
  641MOL0     C86404  11.036   5.625   4.716 -0.3591 -1.0182  0.2004
  641MOL0     C86405  11.062   5.486   4.714  0.6711 -0.3864  0.5108
  641MOL0     C86406  11.156   5.434   4.799  0.9379  0.0652 -0.1103
  641MOL0     C86407  11.229   5.511   4.898  0.8163 -0.0113  0.4206
  641MOL0     O86408  11.325   5.466   4.986 -0.7926 -0.1552  0.4005
  641MOL0     C86409  11.329   5.327   5.038 -1.5207 -0.2645 -0.4874
  641MOL0     C86410  11.316   5.327   5.190 -0.3433  0.3424  0.5072
  641MOL0     C86411  11.337   5.195   5.251  0.4381 -0.6692  0.1991
  641MOL0     C86412  11.360   5.180   5.407  0.2426 -0.7064  0.4170
  641MOL0     C86413  11.265   5.266   5.484  0.6598 -0.1277 -0.6361
  641MOL0     C86414  11.305   5.287   5.635  0.9224 -0.7058  1.0099
  641MOL0     C86415  11.212   5.395   5.699 -0.2563  0.4711  0.1444
  641MOL0     C86416  11.261   5.427   5.841 -0.5466  0.9076  0.3495
  641MOL0     N86417  11.155   5.495   5.911  0.2285 -0.1767 -0.8145
  641MOL0     C86418  11.077   5.608   5.872 -0.3555 -0.2255 -0.7180
  641MOL0     C86419  10.989   5.622   5.976  0.0976  0.0997 -0.4665
  641MOL0     C86420  10.900   5.733   5.973 -0.4815 -0.6071 -0.9492
  641MOL0     C86421  10.859   5.766   5.833  0.0005  1.0924  0.5829
  641MOL0     C86422  10.743   5.873   5.830 -0.1809  0.5168 -0.2386
  641MOL0     C86423  10.681   5.910   5.702  0.2150  1.4595  0.2227
  641MOL0     O86424  10.604   5.802   5.646 -0.1264  0.1424 -0.2231
  641MOL0     C86425  10.510   5.852   5.557  0.0903 -0.9934  0.9850
  641MOL0     C86426  10.543   5.927   5.441 -0.7796  0.6927  1.0879
  641MOL0     C86427  10.443   5.982   5.349 -0.0926 -0.1144  0.4045
  641MOL0     C86428  10.487   6.045   5.218 -0.4686 -0.5811 -0.1137
  641MOL0     C86429  10.309   5.959   5.388 -0.0402  0.5945 -0.3911
  641MOL0     C86430  10.198   6.029   5.313 -0.5592 -0.0375 -1.1223
  641MOL0     O86431  10.073   5.986   5.339 -0.2183 -0.4846 -0.6877
  641MOL0     C86432   9.963   6.061   5.311  0.0749  0.5777 -0.4966
  641MOL0     C86433   9.924   6.152   5.402  0.1188  0.2068  0.0785
  641MOL0     C86434   9.815   6.244   5.375  0.6579 -0.4890  1.0833
  641MOL0     C86435   9.757   6.231   5.248 -0.2506 -0.6967  0.0685
  641MOL0     O86436   9.657   6.319   5.215 -0.5558 -0.4207  0.5748
  641MOL0     C86437   9.553   6.308   5.312 -0.1889 -0.2663  1.4266
  641MOL0     C86438   9.427   6.365   5.240 -0.2875 -0.1817 -0.1855
  641MOL0     C86439   9.428   6.506   5.195  0.2860  0.8189  0.1923
  641MOL0     C86440   9.295   6.545   5.125 -0.7773  0.5679  0.7463
  641MOL0     C86441   9.287   6.700   5.083  0.9263  0.3146 -0.6343
  641MOL0     C86442   9.155   6.721   5.005 -0.3913  0.5907 -0.0135
  641MOL0     C86443   9.125   6.865   4.984 -0.1003 -0.4692  0.6946
  641MOL0     C86444   8.991   6.898   4.921 -0.3815 -0.0774 -0.2165
  641MOL0    Cl86445   8.962   7.068   4.968 -0.0455  0.3355  0.2811
  641MOL0     C86446   9.803   6.148   5.156  0.2927  0.1240 -0.0185
  641MOL0     C86447   9.906   6.055   5.187  1.3738  0.1105 -0.3284
  641MOL0     O86448  10.226   6.114   5.232 -0.1484 -0.0082 -0.0735
  641MOL0     C86449  10.275   5.879   5.501  0.3767 -0.4917  0.0723
  641MOL0     C86450  10.380   5.830   5.585  0.0108 -0.8468 -0.1067
  641MOL0     N86451  11.005   5.527   6.065  0.5043 -0.2547  0.3279
  641MOL0     N86452  11.093   5.447   6.027  0.1249 -1.0709  0.5194
  641MOL0     C86453  11.193   5.645   4.897 -0.9542 -1.2082 -0.9013
  641MOL0     C86454  11.110   5.704   4.807  0.0523 -0.1763 -0.6492
  641MOL0     C86455  10.718   5.721   4.559  0.9298 -0.5192 -0.2374
  641MOL0     C86456  10.763   5.835   4.490  0.8373  0.1875  0.1075
  641MOL0     C86457  10.671   5.918   4.434  0.1799 -0.4816  0.0988
  641MOL0     C86458  10.536   5.885   4.438  0.4627  0.0287 -0.3334
  641MOL0     O86459  10.435   5.960   4.377 -0.6167 -0.3624 -0.4362
  641MOL0     C86460  10.464   6.072   4.281 -0.6680 -0.5209 -0.8059
  641MOL0     C86461  10.342   6.130   4.209 -0.8272  0.1329  0.2305
  641MOL0     C86462  10.371   6.217   4.090 -1.2463  0.1467 -0.2058
  641MOL0     C86463  10.248   6.244   4.006  0.0303 -0.6081  0.0016
  641MOL0     C86464  10.208   6.138   3.915  0.3648  0.6339 -0.6137
  641MOL0     C86465  10.177   6.040   3.851  0.0123  0.1590 -0.6381
  641MOL0     C86466  10.484   5.770   4.498  0.1219 -1.1823 -0.5387
  641MOL0     C86467  10.579   5.679   4.557 -0.3748 -0.6721  0.5350
  641MOL0     H86468  11.013   5.428   4.637 -2.0551  2.5361 -0.2252
  641MOL0     H86469  11.184   5.332   4.776  0.6091  0.4354 -2.3935
  641MOL0     H86470  11.254   5.267   4.988  0.2216 -4.1118  1.1317
  641MOL0     H86471  11.423   5.283   5.003 -1.3035 -0.9874  0.9191
  641MOL0     H86472  11.395   5.397   5.218  0.7738  0.1153 -1.8478
  641MOL0     H86473  11.216   5.367   5.207  0.1921  0.8625  2.6959
  641MOL0     H86474  11.264   5.119   5.221 -0.6726  1.2671 -2.4210
  641MOL0     H86475  11.431   5.174   5.200  0.3826  2.5334 -1.5533
  641MOL0     H86476  11.346   5.076   5.439 -0.6220 -1.4542 -2.1002
  641MOL0     H86477  11.464   5.200   5.434  0.8388 -3.8655  0.8373
  641MOL0     H86478  11.242   5.362   5.436  0.0220 -0.2099 -0.5064
  641MOL0     H86479  11.175   5.204   5.490 -0.1947  1.1653  3.2275
  641MOL0     H86480  11.313   5.200   5.701  2.8258  0.4901  2.4457
  641MOL0     H86481  11.400   5.340   5.631  1.0559 -0.9068  1.4442
  641MOL0     H86482  11.189   5.477   5.630 -1.0136  1.2800  1.3090
  641MOL0     H86483  11.117   5.339   5.707 -1.1810  1.9433 -0.1727
  641MOL0     H86484  11.345   5.497   5.840  2.7996 -2.7168  0.9030
  641MOL0     H86485  11.304   5.351   5.906  3.7081  2.9120  0.2106
  641MOL0     H86486  11.094   5.681   5.795  2.1709  1.1658  1.0337
  641MOL0     H86487  10.819   5.702   6.040  0.8562 -0.0318  1.0251
  641MOL0     H86488  10.954   5.816   6.019  0.9357 -0.7613 -2.2414
  641MOL0     H86489  10.830   5.672   5.784  3.7448  1.6174 -3.1872
  641MOL0     H86490  10.940   5.809   5.775  0.6096 -1.3101 -0.4962
  641MOL0     H86491  10.785   5.965   5.872  1.1076  0.1853 -0.7208
  641MOL0     H86492  10.664   5.845   5.899  0.5453  2.4475  1.4805
  641MOL0     H86493  10.758   5.948   5.634  1.2370  1.6130  1.4500
  641MOL0     H86494  10.610   5.993   5.717 -0.8236  0.3500  1.7524
  641MOL0     H86495  10.645   5.927   5.405 -0.7400 -1.9440  1.0020
  641MOL0     H86496  10.415   6.007   5.145 -0.7782  1.5892 -1.0110
  641MOL0     H86497  10.496   6.154   5.227 -1.3075 -0.3683 -1.5171
  641MOL0     H86498  10.582   6.002   5.188 -1.6503 -3.2618 -0.2874
  641MOL0     H86499   9.979   6.171   5.493  1.2817  4.1014 -1.2639
  641MOL0     H86500   9.787   6.323   5.444  1.5911 -1.3847  2.5607
  641MOL0     H86501   9.539   6.201   5.335  2.4687 -1.4093 -1.5289
  641MOL0     H86502   9.579   6.370   5.398  2.6327  0.1948  0.3572
  641MOL0     H86503   9.400   6.303   5.153 -2.3465 -2.0414  1.6623
  641MOL0     H86504   9.339   6.360   5.305  1.2337  0.7008  2.0104
  641MOL0     H86505   9.522   6.534   5.147 -0.3155  2.1238 -0.2840
  641MOL0     H86506   9.419   6.561   5.289 -1.1856  1.4686 -0.2971
  641MOL0     H86507   9.294   6.484   5.034 -0.4508  1.4334  0.1507
  641MOL0     H86508   9.206   6.520   5.184 -0.3438  2.4001  2.2866
  641MOL0     H86509   9.373   6.727   5.020  2.6516 -1.2302  0.8948
  641MOL0     H86510   9.276   6.751   5.179 -0.7878  0.3798 -0.8509
  641MOL0     H86511   9.163   6.673   4.907  1.7858  2.2121 -0.6990
  641MOL0     H86512   9.070   6.677   5.058  1.2369 -4.0738 -0.8000
  641MOL0     H86513   9.207   6.901   4.920 -1.3801 -1.1778 -1.4689
  641MOL0     H86514   9.138   6.927   5.072  0.0593 -1.0785  1.1085
  641MOL0     H86515   8.911   6.839   4.967 -2.7442  0.3042 -3.4724
  641MOL0     H86516   8.981   6.876   4.814 -2.3509 -2.2577  0.3102
  641MOL0     H86517   9.750   6.161   5.062 -0.3154  5.0026  0.7088
  641MOL0     H86518   9.921   5.977   5.112 -1.3582  0.1880 -1.0602
  641MOL0     H86519  10.171   5.867   5.528  0.1193  0.9904 -0.2136
  641MOL0     H86520  10.343   5.785   5.677 -1.7180  2.4601  0.9872
  641MOL0     H86521  11.234   5.711   4.972  0.9939 -2.2800 -0.9494
  641MOL0     H86522  11.092   5.810   4.792 -0.2292 -0.4799 -2.8662
  641MOL0     H86523  10.868   5.860   4.475  2.1019 -1.0749  5.0027
  641MOL0     H86524  10.711   6.006   4.386  0.9479  0.2012  1.9202
  641MOL0     H86525  10.513   6.150   4.340 -0.9898  0.1025 -1.3511
  641MOL0     H86526  10.533   6.027   4.208  1.7431 -1.5236  1.8806
  641MOL0     H86527  10.295   6.205   4.272 -0.0058 -0.3907  1.5130
  641MOL0     H86528  10.273   6.052   4.176  0.1426 -0.0208 -1.5824
  641MOL0     H86529  10.439   6.173   4.015  0.4151  2.0239  0.1096
  641MOL0     H86530  10.419   6.309   4.124 -1.7166  0.9269 -1.5735
  641MOL0     H86531  10.252   6.342   3.957 -2.0400 -1.6518 -2.5075
  641MOL0     H86532  10.164   6.254   4.076 -0.0394 -1.4218  0.0515
  641MOL0     H86533  10.137   5.957   3.795  1.3511  0.4031 -2.0202
  641MOL0     H86534  10.379   5.751   4.513  0.6415 -3.1481  1.0391
  641MOL0     H86535  10.557   5.583   4.602 -1.1719 -1.2538 -1.0245
  642MOL0     O86536   7.646   0.287   8.764 -0.6634 -0.3450  0.4547
  642MOL0     C86537   7.727   0.373   8.762  0.1245  0.3461 -0.8010
  642MOL0     O86538   7.838   0.379   8.847  0.4898  0.4876 -0.0480
  642MOL0     C86539   7.849   0.277   8.930 -0.8832  0.1666  0.6246
  642MOL0     C86540   7.937   0.165   8.905  0.0917 -0.1440 -0.2182
  642MOL0     C86541   7.962   0.067   8.997 -0.1934 -1.1715 -0.8632
  642MOL0     C86542   7.903   0.079   9.128  0.1941 -0.5073  0.1513
  642MOL0     O86543   7.924  -0.018   9.221 -0.3189 -0.2066 -1.0967
  642MOL0     C86544   7.967   0.016   9.354 -0.2666 -0.2903 -0.8959
  642MOL0     C86545   8.025  -0.106   9.432 -1.0394  0.6081 -0.1713
  642MOL0     C86546   7.978  -0.114   9.575 -0.9585  0.2171 -0.3080
  642MOL0     C86547   8.010   0.014   9.651  0.2560  0.0659  1.0822
  642MOL0     C86548   8.038   0.014   9.805 -0.1157 -0.6268 -0.4527
  642MOL0     C86549   8.095   0.144   9.874  0.2753  0.2268 -0.5313
  642MOL0     C86550   8.241   0.173   9.862  0.2452  0.4165 -0.1013
  642MOL0     C86551   8.337   0.075   9.941  0.3020 -0.4176 -0.1945
  642MOL0     N86552   8.352   0.135  10.074  0.0806  0.6078  0.8172
  642MOL0     C86553   8.468   0.110  10.137 -0.3293 -0.3731 -0.6682
  642MOL0     C86554   8.430   0.091  10.264  0.2473 -0.0738 -0.5490
  642MOL0     C86555   8.498   0.058  10.392  0.4133  0.6267  0.7631
  642MOL0     C86556   8.652   0.073  10.381  0.6339  0.2343  0.3068
  642MOL0     C86557   8.720   0.007  10.488  0.6197 -1.1867 -1.3911
  642MOL0     C86558   8.874   0.037  10.499  0.6993 -0.2234  0.0678
  642MOL0     O86559   8.930   0.059  10.371  0.1723 -0.4052  0.0177
  642MOL0     C86560   9.059   0.042  10.356 -0.3667 -0.0552  0.5981
  642MOL0     C86561   9.148   0.025  10.463 -0.1737  0.6715  0.4893
  642MOL0     C86562   9.284   0.013  10.448 -0.4633  0.2547  0.3644
  642MOL0     C86563   9.359   0.032  10.581  0.4906 -0.2381  1.0807
  642MOL0     C86564   9.342   0.011  10.322  0.4303 -1.0077 -0.1777
  642MOL0     C86565   9.489  -0.001  10.299 -0.1984  0.4763 -0.5637
  642MOL0     O86566   9.538   0.014  10.164  0.2536  0.3355  0.3494
  642MOL0     C86567   9.665  -0.019  10.137 -0.8566  0.8764  0.5781
  642MOL0     C86568   9.753   0.075  10.075 -0.4657 -0.0307 -0.2062
  642MOL0     C86569   9.882   0.053  10.032 -0.3246  0.3194 -0.3250
  642MOL0     C86570   9.934  -0.077  10.050  0.1259 -0.4565 -0.1209
  642MOL0     O86571  10.057  -0.125  10.010  1.1970  0.3438 -0.3911
  642MOL0     C86572  10.146  -0.029   9.961 -0.9044 -0.0368  0.2329
  642MOL0     C86573  10.271  -0.094   9.912  0.3614 -0.3545  0.0656
  642MOL0     C86574  10.241  -0.173   9.773  0.3980  0.1801  0.3751
  642MOL0     C86575  10.370  -0.234   9.708  0.1872  1.2659 -0.7473
  642MOL0     C86576  10.350  -0.296   9.562  0.3742 -0.3768 -0.5985
  642MOL0     C86577  10.488  -0.348   9.514  0.9111 -0.0394 -0.0822
  642MOL0     C86578  10.480  -0.387   9.366 -0.1310 -0.0384  0.2947
  642MOL0     C86579  10.600  -0.462   9.308  0.0743  0.2531  0.0223
  642MOL0    Cl86580  10.620  -0.617   9.409  0.0548  0.3464  0.2428
  642MOL0     C86581   9.853  -0.171  10.110 -0.1850 -0.3819  0.8253
  642MOL0     C86582   9.722  -0.138  10.160 -0.8035 -0.5557 -0.2560
  642MOL0     O86583   9.564  -0.038  10.400  0.6199 -0.3165  0.8298
  642MOL0     C86584   9.252   0.025  10.209 -0.1243  0.6755  0.5368
  642MOL0     C86585   9.109   0.032  10.228 -1.1420 -0.4986  0.1564
  642MOL0     N86586   8.291   0.116  10.277  0.2001 -0.0363 -0.3849
  642MOL0     N86587   8.250   0.155  10.160  0.7944  0.1132 -0.3560
  642MOL0     C86588   7.817   0.191   9.152  0.4079 -0.7172 -0.6634
  642MOL0     C86589   7.793   0.292   9.055  0.2720  0.9625  0.4736
  642MOL0     C86590   7.687   0.486   8.676 -1.0029  0.2874 -0.1417
  642MOL0     C86591   7.723   0.618   8.702  0.1139 -0.4127  0.1291
  642MOL0     C86592   7.681   0.729   8.617  0.8431  0.8762 -0.0251
  642MOL0     C86593   7.592   0.707   8.513  0.0906 -0.2545  0.9270
  642MOL0     O86594   7.534   0.807   8.437  0.6029  0.1766  0.9393
  642MOL0     C86595   7.525   0.935   8.497  0.5121 -0.1995  0.1462
  642MOL0     C86596   7.466   1.038   8.403  0.0895 -0.6010 -0.4854
  642MOL0     C86597   7.313   1.029   8.403  0.3736  0.3639  0.3050
  642MOL0     C86598   7.257   0.982   8.263  0.6853  0.4254 -0.2608
  642MOL0     C86599   7.110   1.012   8.244 -0.3992 -0.1386  0.9545
  642MOL0     C86600   6.987   1.022   8.245 -0.6585  0.5301  1.2562
  642MOL0     C86601   7.545   0.575   8.499 -0.7547  0.3346  0.0305
  642MOL0     C86602   7.599   0.463   8.564  0.1036  0.5831  0.2429
  642MOL0     H86603   7.985   0.140   8.811 -0.6608  2.3749 -1.3874
  642MOL0     H86604   8.036  -0.009   8.975 -0.9654 -1.3601 -3.0400
  642MOL0     H86605   8.044   0.093   9.346 -2.9908  2.6351 -0.5914
  642MOL0     H86606   7.888   0.061   9.415  0.2778  1.1986 -1.2672
  642MOL0     H86607   7.996  -0.204   9.393  3.0675 -0.8101 -0.2233
  642MOL0     H86608   8.135  -0.110   9.436 -1.0311  1.7392  2.7958
  642MOL0     H86609   7.872  -0.137   9.585 -0.5427 -1.4073  0.9803
  642MOL0     H86610   8.026  -0.199   9.627 -1.4862  1.4375  2.3553
  642MOL0     H86611   8.099   0.060   9.608  0.0379 -1.5993 -1.3519
  642MOL0     H86612   7.928   0.082   9.628  0.9906 -0.4402 -4.1683
  642MOL0     H86613   7.946  -0.014   9.858  0.6426 -0.1698  1.1974
  642MOL0     H86614   8.104  -0.071   9.827  0.2380 -0.0728  0.7097
  642MOL0     H86615   8.041   0.232   9.838  3.2092  2.5364  0.2734
  642MOL0     H86616   8.075   0.138   9.981 -0.7914  1.1590 -0.6562
  642MOL0     H86617   8.263   0.155   9.756  1.2336  0.6044  0.0627
  642MOL0     H86618   8.265   0.279   9.860  0.7340  0.3974 -3.8563
  642MOL0     H86619   8.431   0.063   9.887  0.1637  1.7526 -1.0070
  642MOL0     H86620   8.283  -0.020   9.957  0.8401 -0.5590  0.8470
  642MOL0     H86621   8.568   0.098  10.096  0.2058 -3.4021  1.2003
  642MOL0     H86622   8.450   0.112  10.474  0.8998  1.7478  0.3175
  642MOL0     H86623   8.462  -0.044  10.411 -2.4962  1.2220 -0.8933
  642MOL0     H86624   8.661   0.182  10.389  1.8953  0.1267  0.5536
  642MOL0     H86625   8.693   0.038  10.286  0.7621 -1.8793  1.0729
  642MOL0     H86626   8.718  -0.101  10.474  0.3845 -1.5130  0.7513
  642MOL0     H86627   8.668   0.035  10.580  2.6701  3.6731 -1.3803
  642MOL0     H86628   8.920  -0.043  10.558 -2.4646 -2.0698  0.2616
  642MOL0     H86629   8.884   0.134  10.550  1.9260 -0.4811  0.3520
  642MOL0     H86630   9.112   0.029  10.565  0.3229  0.5477  0.6753
  642MOL0     H86631   9.293   0.077  10.656 -2.7185 -0.0557 -1.5916
  642MOL0     H86632   9.401  -0.066  10.605  1.1414 -1.3799 -3.6205
  642MOL0     H86633   9.440   0.103  10.563  1.2064 -1.5252 -1.3121
  642MOL0     H86634   9.710   0.174  10.063 -1.8237 -0.4942  0.6740
  642MOL0     H86635   9.943   0.131   9.988 -1.8539  0.1508 -2.9369
  642MOL0     H86636  10.104   0.045   9.893 -1.3423  0.8239  1.4038
  642MOL0     H86637  10.187   0.044  10.031  0.9676  0.2985 -1.1364
  642MOL0     H86638  10.343  -0.016   9.886  2.8629 -2.0524  1.5308
  642MOL0     H86639  10.323  -0.165   9.977  0.3569 -2.4521 -2.0594
  642MOL0     H86640  10.202  -0.097   9.704 -2.3911 -1.1587  0.3133
  642MOL0     H86641  10.171  -0.257   9.782  0.5487  0.1002  0.8086
  642MOL0     H86642  10.454  -0.164   9.706 -0.3795  1.9421 -2.3619
  642MOL0     H86643  10.407  -0.320   9.765  0.0854  1.1493 -0.8565
  642MOL0     H86644  10.308  -0.210   9.509 -0.8480  1.0268  2.3683
  642MOL0     H86645  10.280  -0.380   9.562  0.3832 -0.3889 -1.1386
  642MOL0     H86646  10.564  -0.271   9.529  0.2785  0.0890  3.4376
  642MOL0     H86647  10.517  -0.429   9.582  0.7246  0.9736  1.2666
  642MOL0     H86648  10.475  -0.296   9.306  2.6635 -0.3666 -0.5777
  642MOL0     H86649  10.395  -0.455   9.354  0.0515 -0.4603  1.2588
  642MOL0     H86650  10.687  -0.397   9.317 -0.8063  2.0160 -2.8876
  642MOL0     H86651  10.586  -0.489   9.203  0.1347  1.5006 -0.3168
  642MOL0     H86652   9.892  -0.271  10.123  0.5505 -0.7284 -2.7970
  642MOL0     H86653   9.657  -0.218  10.195  0.7513 -1.8893 -0.2861
  642MOL0     H86654   9.293   0.045  10.111 -0.6701  0.4744  0.2590
  642MOL0     H86655   9.031   0.043  10.153 -1.0175 -0.7828 -0.0162
  642MOL0     H86656   7.770   0.201   9.250 -1.0717  1.1414 -1.5173
  642MOL0     H86657   7.724   0.372   9.079  1.1402  1.8966 -0.0686
  642MOL0     H86658   7.797   0.636   8.778  0.8814  1.4394 -0.9880
  642MOL0     H86659   7.723   0.823   8.651  2.3864 -0.4637  2.0289
  642MOL0     H86660   7.458   0.915   8.581  1.6026  0.4097  1.1875
  642MOL0     H86661   7.621   0.971   8.536 -0.1921 -0.9989  2.7809
  642MOL0     H86662   7.508   1.022   8.304 -2.9840 -0.9178 -1.8592
  642MOL0     H86663   7.492   1.139   8.435  0.5482 -0.3800 -1.5281
  642MOL0     H86664   7.266   1.123   8.431  0.1479 -0.1380  1.6979
  642MOL0     H86665   7.275   0.956   8.475 -0.5636 -1.3076 -1.7438
  642MOL0     H86666   7.257   0.873   8.257 -1.2165  0.2676  1.6433
  642MOL0     H86667   7.322   1.039   8.195  5.0082 -1.8314  1.5429
  642MOL0     H86668   6.885   1.041   8.268 -1.0319  1.7646 -1.1757
  642MOL0     H86669   7.477   0.550   8.418 -0.4872 -0.5618  0.0733
  642MOL0     H86670   7.576   0.361   8.537 -0.9778  1.0536 -0.7086
  643MOL0     O86671   6.173   3.591   1.258 -0.2857  0.1023  0.5251
  643MOL0     C86672   6.119   3.686   1.309  0.4512 -0.2786 -0.6286
  643MOL0     O86673   5.986   3.687   1.347  0.6470 -0.1052 -0.3852
  643MOL0     C86674   5.899   3.595   1.302  0.4533 -0.3791  0.0071
  643MOL0     C86675   5.795   3.570   1.386 -0.3800 -0.2028  0.2343
  643MOL0     C86676   5.702   3.464   1.368  0.0259 -0.3239 -0.2300
  643MOL0     C86677   5.709   3.384   1.247 -0.1670  0.5904 -0.4464
  643MOL0     O86678   5.612   3.293   1.217  0.0501  0.1081  0.2783
  643MOL0     C86679   5.565   3.311   1.076 -0.2527  0.0297 -0.6083
  643MOL0     C86680   5.437   3.228   1.051 -0.8496  0.0154  0.7346
  643MOL0     C86681   5.327   3.277   1.139  0.0989 -0.6297 -0.0605
  643MOL0     C86682   5.233   3.162   1.168 -0.8248  0.3607  0.1360
  643MOL0     C86683   5.101   3.197   1.227  0.7933  0.2768  1.4983
  643MOL0     C86684   5.088   3.150   1.377  0.3661 -0.2941 -0.2977
  643MOL0     C86685   4.948   3.136   1.424  0.8284 -0.2747  0.2204
  643MOL0     C86686   4.864   3.274   1.395  0.5532  0.7440  0.3991
  643MOL0     N86687   4.731   3.250   1.337 -0.5238 -0.1787 -0.2329
  643MOL0     C86688   4.693   3.334   1.234 -0.2616 -0.1322  0.3204
  643MOL0     C86689   4.567   3.293   1.207  0.4691 -0.1782  0.3282
  643MOL0     C86690   4.471   3.348   1.103 -0.6361 -0.9202  0.2671
  643MOL0     C86691   4.503   3.285   0.960  0.2186 -0.5498  0.2033
  643MOL0     C86692   4.374   3.236   0.898 -0.3461 -0.4583 -0.0953
  643MOL0     C86693   4.381   3.206   0.753  0.0951 -0.0795 -0.2040
  643MOL0     O86694   4.363   3.068   0.734  0.2342 -0.1955  0.0783
  643MOL0     C86695   4.313   3.018   0.622  1.3956  0.9943  0.0161
  643MOL0     C86696   4.306   2.876   0.606  0.2613  0.0989 -0.2346
  643MOL0     C86697   4.248   2.805   0.500  0.4016 -0.4709  0.4474
  643MOL0     C86698   4.275   2.652   0.492 -0.3283 -0.4654  0.9081
  643MOL0     C86699   4.175   2.888   0.404 -0.4586 -0.7354  0.4554
  643MOL0     C86700   4.103   2.826   0.285  0.1624  0.1943  0.3172
  643MOL0     O86701   4.050   2.911   0.198 -0.0476 -0.6276  0.0530
  643MOL0     C86702   4.000   2.873   0.079 -0.3760  0.3439 -0.4013
  643MOL0     C86703   4.035   2.947  -0.033  0.1167 -0.4588  0.2934
  643MOL0     C86704   3.978   2.916  -0.153  0.6270 -1.0424 -0.1256
  643MOL0     C86705   3.894   2.806  -0.176 -0.1573 -0.1696 -0.6004
  643MOL0     O86706   3.840   2.770  -0.294  0.3694  0.3484 -0.9093
  643MOL0     C86707   3.872   2.847  -0.412 -0.3868 -0.1859 -0.6140
  643MOL0     C86708   3.794   2.786  -0.527  0.3028 -0.4523 -0.9215
  643MOL0     C86709   3.642   2.795  -0.502  1.1473 -0.1496 -0.2669
  643MOL0     C86710   3.557   2.725  -0.606 -0.3805  0.3711  0.4849
  643MOL0     C86711   3.413   2.695  -0.557 -0.0999 -0.3080  0.4514
  643MOL0     C86712   3.321   2.824  -0.573 -0.7854 -1.0671  0.2176
  643MOL0     C86713   3.324   2.864  -0.716  0.4392  0.0497 -0.3277
  643MOL0     C86714   3.219   2.975  -0.769 -0.3024  0.3229 -0.2201
  643MOL0    Cl86715   3.221   3.118  -0.663  0.1908  0.3810 -0.0396
  643MOL0     C86716   3.866   2.730  -0.065  0.5879  0.6918  0.0444
  643MOL0     C86717   3.915   2.760   0.060 -0.5542  0.3535 -0.3425
  643MOL0     O86718   4.116   2.707   0.258 -0.6643 -0.5611  0.3720
  643MOL0     C86719   4.195   3.033   0.409  0.1330 -0.9137 -0.1083
  643MOL0     C86720   4.269   3.092   0.512  0.4522  0.4958  0.0923
  643MOL0     N86721   4.533   3.188   1.301 -0.4683 -0.4091  0.0407
  643MOL0     N86722   4.638   3.168   1.384 -0.4672 -0.0064 -0.6006
  643MOL0     C86723   5.822   3.404   1.165 -1.0235  0.5002 -0.0408
  643MOL0     C86724   5.910   3.513   1.183  0.7605  0.5201 -1.2184
  643MOL0     C86725   6.191   3.816   1.323 -0.2705  0.2563 -0.0878
  643MOL0     C86726   6.332   3.813   1.299  1.0429 -0.1859 -0.7923
  643MOL0     C86727   6.409   3.923   1.310  0.3184 -0.3129  1.2253
  643MOL0     C86728   6.358   4.047   1.339  0.4066  0.7924 -0.1660
  643MOL0     O86729   6.431   4.157   1.331 -0.2504  0.4046  0.1446
  643MOL0     C86730   6.574   4.155   1.329  0.5264  0.0292  0.7055
  643MOL0     C86731   6.627   4.279   1.383 -0.4383 -0.6423 -0.8653
  643MOL0     C86732   6.783   4.274   1.404 -0.3820  0.3594 -0.6135
  643MOL0     C86733   6.840   4.410   1.450 -0.0035 -0.3539  1.1628
  643MOL0     C86734   6.815   4.515   1.344 -0.2084 -0.4144 -0.1235
  643MOL0     C86735   6.802   4.608   1.273 -0.4877  0.8699  0.3546
  643MOL0     C86736   6.218   4.054   1.358 -0.4199  0.3447 -0.5011
  643MOL0     C86737   6.129   3.943   1.351 -0.3173  0.0494 -0.1580
  643MOL0     H86738   5.793   3.634   1.474 -2.0351 -2.2338  1.7666
  643MOL0     H86739   5.626   3.444   1.443  1.3854 -0.6360  1.1026
  643MOL0     H86740   5.533   3.416   1.068 -0.8289  0.0567  1.5344
  643MOL0     H86741   5.632   3.268   1.001  1.7118  1.9403 -0.0410
  643MOL0     H86742   5.400   3.239   0.949 -2.7005 -1.6461  1.1763
  643MOL0     H86743   5.458   3.121   1.047 -2.1562 -0.2256 -1.3613
  643MOL0     H86744   5.362   3.317   1.235  0.7404  2.4753 -1.4666
  643MOL0     H86745   5.277   3.368   1.106 -0.2700  0.7160  3.7333
  643MOL0     H86746   5.221   3.114   1.070  2.8681  0.5858 -0.5646
  643MOL0     H86747   5.283   3.091   1.234 -0.8988 -1.1454 -1.3466
  643MOL0     H86748   5.077   3.299   1.195  0.4442 -0.4657 -0.8721
  643MOL0     H86749   5.031   3.139   1.165 -1.6539  6.1056 -2.0665
  643MOL0     H86750   5.127   3.049   1.389 -0.9730 -0.7625  0.2767
  643MOL0     H86751   5.148   3.216   1.440 -0.4253  0.0393  0.1225
  643MOL0     H86752   4.894   3.058   1.368  2.3974 -1.5470  0.4159
  643MOL0     H86753   4.942   3.111   1.530  0.5505  4.3761  1.5271
  643MOL0     H86754   4.932   3.340   1.342  0.9741  0.3436  0.4344
  643MOL0     H86755   4.854   3.319   1.494 -1.3627  1.3361 -0.0239
  643MOL0     H86756   4.757   3.398   1.174 -1.3394  0.1726 -0.5358
  643MOL0     H86757   4.373   3.321   1.144 -2.0530  2.4255 -0.5740
  643MOL0     H86758   4.474   3.455   1.084 -3.2484 -0.3466  2.4177
  643MOL0     H86759   4.570   3.199   0.973  0.8841 -0.8257 -3.7427
  643MOL0     H86760   4.552   3.364   0.901  0.2138  0.6141  1.7019
  643MOL0     H86761   4.310   3.324   0.904  2.0242  1.9375 -4.8625
  643MOL0     H86762   4.330   3.156   0.959  1.3220 -1.1382  0.2758
  643MOL0     H86763   4.464   3.252   0.699 -2.1330  2.0449 -2.0691
  643MOL0     H86764   4.287   3.250   0.716 -0.7009  1.9446  3.6763
  643MOL0     H86765   4.364   2.827   0.684  1.6032  2.8868  0.6488
  643MOL0     H86766   4.186   2.591   0.508  0.7260 -2.3968 -0.1886
  643MOL0     H86767   4.308   2.627   0.391 -0.0469  1.5012  0.4723
  643MOL0     H86768   4.358   2.614   0.553  0.2457 -0.5452  0.1065
  643MOL0     H86769   4.109   3.027  -0.034  0.0873 -0.3779 -2.3482
  643MOL0     H86770   3.983   2.989  -0.233 -1.5633 -0.0093  0.6024
  643MOL0     H86771   3.853   2.954  -0.404 -1.9076 -0.3238 -1.9841
  643MOL0     H86772   3.977   2.829  -0.436 -0.0214  0.4459  0.4322
  643MOL0     H86773   3.823   2.820  -0.627  0.5897 -1.4392 -1.1808
  643MOL0     H86774   3.836   2.685  -0.530  0.4282 -0.4989 -5.8065
  643MOL0     H86775   3.609   2.899  -0.493 -0.4691 -0.5223 -1.5580
  643MOL0     H86776   3.611   2.757  -0.404 -3.3407 -0.1618 -1.4687
  643MOL0     H86777   3.542   2.762  -0.708 -6.5728 -0.1028  0.8301
  643MOL0     H86778   3.611   2.631  -0.621 -0.6893  0.6195 -2.7887
  643MOL0     H86779   3.425   2.662  -0.454  1.7946 -0.4219  0.2223
  643MOL0     H86780   3.375   2.609  -0.613  0.5405  0.3801 -1.1055
  643MOL0     H86781   3.216   2.804  -0.551 -0.7220  0.8063  2.7194
  643MOL0     H86782   3.367   2.902  -0.509  0.2841  0.2466 -2.0246
  643MOL0     H86783   3.318   2.779  -0.784 -3.5959 -0.6096  0.6135
  643MOL0     H86784   3.422   2.909  -0.734 -0.0426 -0.0881 -4.0395
  643MOL0     H86785   3.118   2.933  -0.780 -0.9331  1.3550  1.2690
  643MOL0     H86786   3.256   2.996  -0.870 -0.2370 -1.1951 -0.5291
  643MOL0     H86787   3.804   2.643  -0.084  1.1026  0.7664 -2.2966
  643MOL0     H86788   3.885   2.696   0.142  2.4873 -0.1526  0.4960
  643MOL0     H86789   4.151   3.103   0.338 -0.0775  0.6398  1.4966
  643MOL0     H86790   4.285   3.199   0.501 -0.4894  0.9182  2.2584
  643MOL0     H86791   5.835   3.328   1.089 -1.5804 -1.1588  1.4555
  643MOL0     H86792   5.992   3.520   1.113  0.2817  0.0225 -1.8428
  643MOL0     H86793   6.382   3.719   1.277  0.7228 -0.7756  0.8962
  643MOL0     H86794   6.516   3.906   1.306  0.5784  1.3125 -0.1003
  643MOL0     H86795   6.606   4.070   1.391  0.3142 -0.7900 -0.2729
  643MOL0     H86796   6.610   4.148   1.226  1.5037 -0.2822  1.0554
  643MOL0     H86797   6.587   4.303   1.482 -0.0322 -0.3938 -0.7588
  643MOL0     H86798   6.590   4.361   1.321 -1.1209  1.1717  1.7656
  643MOL0     H86799   6.820   4.243   1.306 -0.6479  2.5781 -1.4707
  643MOL0     H86800   6.807   4.203   1.484 -2.4225 -0.0680 -0.3215
  643MOL0     H86801   6.948   4.394   1.465  0.4879  0.2908 -1.2242
  643MOL0     H86802   6.802   4.432   1.550 -0.3833 -0.4199  1.0338
  643MOL0     H86803   6.815   4.683   1.198  0.4388 -2.8780 -3.6502
  643MOL0     H86804   6.176   4.152   1.379  0.6074  1.4241 -3.0865
  643MOL0     H86805   6.025   3.962   1.375 -0.2343 -0.1582  0.3978
  644MOL0     O86806   2.679  10.804   3.279 -0.4500  0.5251 -0.4304
  644MOL0     C86807   2.683  10.913   3.226 -0.8406  0.3999  0.1858
  644MOL0     O86808   2.598  10.950   3.121 -0.3389 -0.1417 -0.0636
  644MOL0     C86809   2.482  10.886   3.090  0.2151  1.4645 -0.4842
  644MOL0     C86810   2.390  10.844   3.188  0.2774  0.1792  0.0376
  644MOL0     C86811   2.270  10.780   3.152 -0.1535  0.0187 -0.6911
  644MOL0     C86812   2.235  10.757   3.018 -0.0002  0.3925  1.0268
  644MOL0     O86813   2.123  10.690   2.985 -0.5839  0.1255  0.4028
  644MOL0     C86814   2.084  10.641   2.854 -0.1845 -0.0725 -0.6881
  644MOL0     C86815   1.943  10.589   2.838 -0.9065 -0.7093 -0.4077
  644MOL0     C86816   1.841  10.689   2.881 -1.0182  0.7585  0.1715
  644MOL0     C86817   1.703  10.629   2.893 -0.1703 -0.2918 -0.2723
  644MOL0     C86818   1.654  10.581   2.759 -0.2020  0.6270  0.5290
  644MOL0     C86819   1.502  10.545   2.757  0.2028  0.5499 -0.1131
  644MOL0     C86820   1.419  10.670   2.746  0.0669  0.2233 -0.0971
  644MOL0     C86821   1.267  10.653   2.716  0.3150  0.1124 -0.5095
  644MOL0     N86822   1.234  10.549   2.619 -0.2394  1.5204 -0.6771
  644MOL0     C86823   1.258  10.413   2.629 -1.1087 -1.0941  0.6272
  644MOL0     C86824   1.188  10.357   2.529  0.1278 -0.0625  0.1192
  644MOL0     C86825   1.150  10.219   2.498 -1.1903 -0.1610 -0.1666
  644MOL0     C86826   1.223  10.126   2.590 -0.0148 -0.6044  0.5870
  644MOL0     C86827   1.374  10.124   2.550 -0.1747 -0.3561 -0.4267
  644MOL0     C86828   1.450  10.025   2.635 -0.5221  1.0757  0.0598
  644MOL0     O86829   1.439   9.901   2.562  0.1645 -0.1715 -0.5984
  644MOL0     C86830   1.502   9.790   2.611  1.6202 -0.8045  0.7497
  644MOL0     C86831   1.522   9.766   2.745 -0.8625 -0.1033  0.1781
  644MOL0     C86832   1.593   9.659   2.792  0.4876 -0.5175  0.1344
  644MOL0     C86833   1.655   9.658   2.936 -0.1410  0.6627 -0.6425
  644MOL0     C86834   1.629   9.560   2.700  0.0875  0.1852  0.5944
  644MOL0     C86835   1.682   9.427   2.732  0.4881  0.2819  1.1772
  644MOL0     O86836   1.753   9.370   2.642  0.6283 -0.0590  0.6898
  644MOL0     C86837   1.818   9.249   2.672  0.2920 -0.2218  0.6403
  644MOL0     C86838   1.927   9.242   2.762 -0.3878 -0.4224 -1.3124
  644MOL0     C86839   1.996   9.122   2.771  0.4462 -0.1785 -0.1776
  644MOL0     C86840   1.990   9.020   2.681 -0.5033 -0.9709  0.1785
  644MOL0     O86841   2.080   8.914   2.670  0.3792 -0.0533 -0.4191
  644MOL0     C86842   2.207   8.932   2.734 -0.1933 -0.4788 -0.0343
  644MOL0     C86843   2.309   8.825   2.702 -0.4094  0.2646  0.8330
  644MOL0     C86844   2.452   8.884   2.729  0.3315  0.4057  0.3445
  644MOL0     C86845   2.555   8.770   2.726  0.4060 -0.1976 -0.1108
  644MOL0     C86846   2.698   8.834   2.702  0.4056  0.3928 -0.3202
  644MOL0     C86847   2.818   8.738   2.698  0.8104  0.5493 -0.9309
  644MOL0     C86848   2.948   8.812   2.671  0.0497  0.5119 -0.5709
  644MOL0     C86849   3.070   8.734   2.706 -0.7958  0.1314 -0.1085
  644MOL0    Cl86850   3.114   8.598   2.590 -0.1169  0.1570 -0.5657
  644MOL0     C86851   1.889   9.038   2.584  0.1444 -0.1498  0.1430
  644MOL0     C86852   1.810   9.148   2.573 -0.5406 -0.3428 -0.0186
  644MOL0     O86853   1.666   9.384   2.846  0.1521  0.6110  0.0191
  644MOL0     C86854   1.600   9.583   2.565 -0.3667  0.5923  0.1386
  644MOL0     C86855   1.544   9.699   2.518 -0.3797 -0.5636 -0.0812
  644MOL0     N86856   1.130  10.460   2.450 -0.0936  0.0220 -0.8464
  644MOL0     N86857   1.160  10.570   2.515  0.7237 -0.2824  0.4093
  644MOL0     C86858   2.324  10.791   2.911 -0.0239 -0.7010 -0.4037
  644MOL0     C86859   2.444  10.868   2.952 -0.5668 -0.5637  0.2396
  644MOL0     C86860   2.797  10.997   3.246  0.5580  0.3891  0.0720
  644MOL0     C86861   2.826  11.104   3.165 -0.7002 -0.4161 -0.0726
  644MOL0     C86862   2.955  11.162   3.157 -0.0039  1.0472 -0.0610
  644MOL0     C86863   3.058  11.105   3.235 -0.0535  0.2242 -0.3717
  644MOL0     O86864   3.191  11.149   3.239  0.6407 -0.8509 -0.4744
  644MOL0     C86865   3.235  11.254   3.165 -0.3113  0.4899 -0.5849
  644MOL0     C86866   3.386  11.266   3.194 -0.6409  0.4621 -1.0831
  644MOL0     C86867   3.457  11.159   3.108 -0.2186  0.2756 -0.0203
  644MOL0     C86868   3.479  11.212   2.961 -0.3118 -0.3643  0.0855
  644MOL0     C86869   3.491  11.099   2.872 -0.3776  0.6384  0.1760
  644MOL0     C86870   3.512  11.003   2.801 -0.0110  0.8418  0.2871
  644MOL0     C86871   3.026  11.001   3.317  0.4288  0.0532  0.6675
  644MOL0     C86872   2.902  10.947   3.325  0.2090 -0.5023  0.3683
  644MOL0     H86873   2.415  10.858   3.292 -0.4089 -0.2698  0.2724
  644MOL0     H86874   2.186  10.747   3.214  0.9607  0.9867  1.4526
  644MOL0     H86875   2.099  10.723   2.783 -0.1376  0.5511  0.0231
  644MOL0     H86876   2.152  10.563   2.819  1.4494  2.1225 -2.7080
  644MOL0     H86877   1.921  10.569   2.733 -1.3923  0.2959 -0.5128
  644MOL0     H86878   1.937  10.492   2.888  1.0822 -0.0015  1.3909
  644MOL0     H86879   1.863  10.746   2.972 -0.6527 -1.0837  1.2815
  644MOL0     H86880   1.829  10.766   2.804  1.5541  1.5764  0.5165
  644MOL0     H86881   1.690  10.558   2.975  0.2264 -0.4952 -0.3815
  644MOL0     H86882   1.644  10.719   2.913  1.6415  1.3779 -2.0282
  644MOL0     H86883   1.693  10.641   2.676  1.3238 -0.6687  0.2674
  644MOL0     H86884   1.706  10.487   2.744 -2.6072 -0.2579 -4.0564
  644MOL0     H86885   1.480  10.485   2.669 -2.1492 -1.1647  1.5139
  644MOL0     H86886   1.478  10.490   2.849 -1.6260  0.7730 -0.4291
  644MOL0     H86887   1.431  10.747   2.824 -1.9303  0.8552 -0.3691
  644MOL0     H86888   1.471  10.711   2.659  0.1739 -0.8294 -0.5317
  644MOL0     H86889   1.231  10.749   2.679  0.8389  1.1796  1.6178
  644MOL0     H86890   1.213  10.646   2.810  1.6143  0.5952  0.2989
  644MOL0     H86891   1.312  10.365   2.711 -1.4400  1.1947  2.2841
  644MOL0     H86892   1.042  10.209   2.489 -1.2232  1.4280 -2.0144
  644MOL0     H86893   1.184  10.195   2.397  1.4684 -0.7009  0.7551
  644MOL0     H86894   1.189  10.027   2.557  2.1497 -1.2127 -0.0368
  644MOL0     H86895   1.203  10.128   2.698  0.3031  0.9776  0.6294
  644MOL0     H86896   1.421  10.221   2.566 -0.8694 -0.1825  0.6623
  644MOL0     H86897   1.365  10.106   2.442  0.7732  2.4240 -1.0579
  644MOL0     H86898   1.431  10.011   2.741 -0.5505 -1.4102 -0.2229
  644MOL0     H86899   1.558  10.044   2.635 -0.4106  1.5121 -4.3171
  644MOL0     H86900   1.509   9.837   2.825  1.1069  1.0522 -0.4483
  644MOL0     H86901   1.649   9.566   2.995  2.9268 -1.8100 -3.7627
  644MOL0     H86902   1.759   9.688   2.924  0.3733 -1.4974 -2.1664
  644MOL0     H86903   1.622   9.732   3.009  1.7286 -0.8889  1.9528
  644MOL0     H86904   1.933   9.326   2.830 -2.3858 -0.7365 -0.6657
  644MOL0     H86905   2.056   9.103   2.859  1.0804  0.8979 -0.3544
  644MOL0     H86906   2.249   9.028   2.705 -0.4803 -0.2127  0.4116
  644MOL0     H86907   2.190   8.932   2.842 -0.9361  1.4023 -0.1121
  644MOL0     H86908   2.286   8.747   2.776 -1.5017 -1.2885 -1.0580
  644MOL0     H86909   2.286   8.773   2.609 -0.3352  2.1686 -0.2959
  644MOL0     H86910   2.454   8.935   2.826 -1.6150  1.0962  0.0785
  644MOL0     H86911   2.467   8.958   2.650  0.1000 -0.5034 -0.5656
  644MOL0     H86912   2.548   8.717   2.820 -0.0639  0.7984  0.4341
  644MOL0     H86913   2.547   8.695   2.647  0.3263 -0.1026 -0.1939
  644MOL0     H86914   2.719   8.902   2.785  1.2366 -3.6508  3.1154
  644MOL0     H86915   2.706   8.888   2.606 -0.9425  0.3532 -0.4777
  644MOL0     H86916   2.824   8.677   2.788 -1.9064  3.5099  1.4762
  644MOL0     H86917   2.816   8.666   2.616  0.2542 -1.1866  0.5311
  644MOL0     H86918   2.953   8.898   2.739 -0.2417  0.4127 -0.4208
  644MOL0     H86919   2.960   8.855   2.572  3.1350  1.4322  0.0918
  644MOL0     H86920   3.055   8.692   2.806  2.2403  2.9712  1.7494
  644MOL0     H86921   3.153   8.803   2.721 -0.8291  0.6078 -1.8644
  644MOL0     H86922   1.885   8.959   2.511 -0.2123  0.4351 -0.4884
  644MOL0     H86923   1.733   9.159   2.497 -0.0351 -1.9157 -0.7833
  644MOL0     H86924   1.639   9.511   2.494 -1.6582 -0.3189  0.3399
  644MOL0     H86925   1.527   9.717   2.412  1.8107  0.5062 -0.3155
  644MOL0     H86926   2.292  10.782   2.808  0.4115  2.2317 -0.8793
  644MOL0     H86927   2.501  10.898   2.864  1.0306 -3.1684  0.3169
  644MOL0     H86928   2.762  11.144   3.087 -0.8423 -1.8000 -0.6782
  644MOL0     H86929   2.965  11.253   3.098 -1.0951  0.9962 -0.3559
  644MOL0     H86930   3.196  11.243   3.063 -1.3414 -2.2211  0.0165
  644MOL0     H86931   3.188  11.348   3.196  1.6885  1.1825  0.5236
  644MOL0     H86932   3.399  11.261   3.303 -4.5580  6.3693  0.1070
  644MOL0     H86933   3.421  11.364   3.161  1.6653 -0.3959 -1.3577
  644MOL0     H86934   3.387  11.076   3.099 -0.0804  0.3738 -4.0502
  644MOL0     H86935   3.556  11.140   3.148  0.6768  0.9654 -1.7951
  644MOL0     H86936   3.569  11.274   2.965 -1.3812  1.4192 -1.6668
  644MOL0     H86937   3.398  11.271   2.916  0.6796  2.3987  1.7038
  644MOL0     H86938   3.536  10.932   2.724  1.4303  1.0035  0.5667
  644MOL0     H86939   3.105  10.961   3.379 -0.4761 -0.6675  1.3803
  644MOL0     H86940   2.882  10.855   3.380 -2.8889 -0.8388 -1.0820
  645MOL0     O86941   9.087   3.974   2.258  0.9340 -0.1490  0.2939
  645MOL0     C86942   9.207   3.984   2.230 -0.1057  0.4652 -0.6720
  645MOL0     O86943   9.289   4.080   2.269  0.2014 -0.0875  0.6481
  645MOL0     C86944   9.245   4.176   2.358  0.0443 -0.0159  0.4408
  645MOL0     C86945   9.162   4.285   2.323 -1.1785 -0.6268  0.1214
  645MOL0     C86946   9.119   4.368   2.427  0.7123  0.6131 -0.4420
  645MOL0     C86947   9.163   4.356   2.554  0.2222  0.0463 -0.4956
  645MOL0     O86948   9.136   4.447   2.644  0.0393 -0.5177 -0.1958
  645MOL0     C86949   9.248   4.532   2.689  0.7512  0.7579  0.4783
  645MOL0     C86950   9.203   4.688   2.696  0.3816  0.9064 -0.8396
  645MOL0     C86951   9.061   4.703   2.749  0.1144  0.0170 -0.8674
  645MOL0     C86952   9.041   4.861   2.767 -0.4360 -0.0510 -0.0543
  645MOL0     C86953   8.902   4.895   2.836 -0.1163  0.0395  0.8095
  645MOL0     C86954   8.896   4.839   2.979  0.3410  0.6501 -0.2318
  645MOL0     C86955   8.754   4.854   3.031  1.1153 -0.5469  0.3411
  645MOL0     C86956   8.723   4.815   3.178 -0.0627 -0.1875  1.2231
  645MOL0     N86957   8.765   4.920   3.269  0.1039  0.1145  0.1232
  645MOL0     C86958   8.692   5.032   3.311 -0.2808  0.3019 -0.1283
  645MOL0     C86959   8.784   5.105   3.381 -0.2026  0.0534 -0.6598
  645MOL0     C86960   8.740   5.236   3.438 -0.3686 -0.6653 -0.4918
  645MOL0     C86961   8.844   5.305   3.522 -1.1200  0.5983  0.0917
  645MOL0     C86962   8.878   5.229   3.654 -0.6063  0.3499 -0.3803
  645MOL0     C86963   8.827   5.300   3.784  0.2770 -0.0715  0.9754
  645MOL0     O86964   8.694   5.319   3.777  0.4236  0.0171  0.0374
  645MOL0     C86965   8.634   5.433   3.824  0.9050  0.1546 -1.1628
  645MOL0     C86966   8.698   5.517   3.915  0.5668  0.5111 -0.0128
  645MOL0     C86967   8.650   5.642   3.958  0.5336  0.3136 -0.5378
  645MOL0     C86968   8.737   5.732   4.035 -0.4245  0.0274 -0.5495
  645MOL0     C86969   8.507   5.666   3.936 -0.1902 -0.2982  0.0762
  645MOL0     C86970   8.421   5.784   3.972  0.1155  0.6628  0.0534
  645MOL0     O86971   8.481   5.897   4.025  0.0991  0.8279 -0.6370
  645MOL0     C86972   8.404   6.008   4.029 -0.0326  0.4958 -0.8341
  645MOL0     C86973   8.368   6.078   3.916  1.2232 -0.7617  0.9844
  645MOL0     C86974   8.285   6.195   3.927  0.3149  0.1553 -0.1414
  645MOL0     C86975   8.229   6.236   4.047 -0.0515 -0.0686  0.6633
  645MOL0     O86976   8.157   6.343   4.066  0.4677  0.0285  0.0281
  645MOL0     C86977   8.069   6.379   3.951 -0.1958 -0.4861 -0.5594
  645MOL0     C86978   8.101   6.527   3.916 -0.2774  1.4889  0.4929
  645MOL0     C86979   8.249   6.535   3.877  0.2739  0.1676  0.6680
  645MOL0     C86980   8.284   6.680   3.874  0.0119  0.2336 -0.5214
  645MOL0     C86981   8.434   6.697   3.855  0.3866 -0.0093 -0.5164
  645MOL0     C86982   8.475   6.838   3.880 -0.7746  0.2161  0.0178
  645MOL0     C86983   8.632   6.852   3.863  0.1346  0.0156 -0.2516
  645MOL0     C86984   8.682   6.994   3.927 -1.1892 -0.1936  0.3586
  645MOL0    Cl86985   8.625   7.136   3.846 -0.2898 -0.1749  0.0215
  645MOL0     C86986   8.280   6.162   4.157  0.6411 -0.3637  0.4044
  645MOL0     C86987   8.365   6.054   4.152  0.3065  0.5073  0.3133
  645MOL0     O86988   8.307   5.763   3.961  0.1471 -0.6614 -0.3451
  645MOL0     C86989   8.449   5.575   3.851  1.1480  0.3389  0.3884
  645MOL0     C86990   8.504   5.467   3.792 -0.2462 -0.0245 -0.7558
  645MOL0     N86991   8.907   5.043   3.383 -0.0716  0.2907  0.2313
  645MOL0     N86992   8.889   4.924   3.329 -0.5120  0.7773  0.1530
  645MOL0     C86993   9.248   4.256   2.595  0.9982  0.1514  0.1204
  645MOL0     C86994   9.291   4.166   2.496 -0.0894 -0.1405 -0.1705
  645MOL0     C86995   9.252   3.885   2.133 -0.3835  0.4628  1.3150
  645MOL0     C86996   9.385   3.878   2.085  0.1361 -0.3067 -0.1855
  645MOL0     C86997   9.432   3.782   1.991 -0.0339 -0.2423 -0.3622
  645MOL0     C86998   9.343   3.684   1.948 -0.2507  0.0207 -0.4806
  645MOL0     O86999   9.378   3.578   1.865  0.0776 -0.1022 -0.1568
  645MOL0     C87000   9.449   3.607   1.747  0.1987  0.7151 -0.1880
  645MOL0     C87001   9.431   3.499   1.632  0.1561  0.4317  0.0960
  645MOL0     C87002   9.293   3.436   1.606 -0.2736 -0.2952  0.0122
  645MOL0     C87003   9.282   3.351   1.476 -0.0052  0.0093 -0.9609
  645MOL0     C87004   9.157   3.290   1.462  0.1740  0.1064 -0.5141
  645MOL0     C87005   9.047   3.242   1.465 -0.9289 -0.0417  0.1017
  645MOL0     C87006   9.208   3.686   1.996  0.0858  0.1673 -0.1294
  645MOL0     C87007   9.158   3.793   2.078 -0.3969  0.3857  0.1426
  645MOL0     H87008   9.142   4.293   2.217 -1.0529 -1.4874  0.0259
  645MOL0     H87009   9.060   4.453   2.395  2.6561  1.3793 -2.1803
  645MOL0     H87010   9.274   4.489   2.786 -0.7974 -0.9535  0.1964
  645MOL0     H87011   9.331   4.525   2.617 -0.5353 -3.9997 -0.8994
  645MOL0     H87012   9.283   4.731   2.756 -0.2954  1.0109  0.0225
  645MOL0     H87013   9.200   4.724   2.593 -0.4372  2.3180 -0.3624
  645MOL0     H87014   8.988   4.658   2.680  0.1878 -2.1586  0.3699
  645MOL0     H87015   9.045   4.654   2.846  2.0309  1.0037 -0.0006
  645MOL0     H87016   9.132   4.890   2.821 -0.6357  1.2077 -0.3618
  645MOL0     H87017   9.057   4.912   2.671  2.8156 -2.4398 -0.9910
  645MOL0     H87018   8.879   5.001   2.849  0.5482  0.1260  1.3327
  645MOL0     H87019   8.831   4.847   2.768  3.5309 -3.2334 -1.1007
  645MOL0     H87020   8.912   4.731   2.983 -0.9964  0.3270 -2.2200
  645MOL0     H87021   8.970   4.894   3.037  2.5937 -1.0291 -1.3916
  645MOL0     H87022   8.709   4.953   3.023 -2.0902 -1.9394 -0.1698
  645MOL0     H87023   8.690   4.803   2.958 -0.5971  2.4956 -0.4940
  645MOL0     H87024   8.779   4.721   3.190 -0.5923 -0.7209 -0.2201
  645MOL0     H87025   8.620   4.784   3.193 -0.6867  2.2497  2.4017
  645MOL0     H87026   8.590   5.052   3.280 -1.4103 -2.2807  1.5413
  645MOL0     H87027   8.705   5.312   3.368  2.4116  1.7155  0.4625
  645MOL0     H87028   8.648   5.208   3.490 -1.0449  0.8724 -0.8166
  645MOL0     H87029   8.801   5.399   3.555 -1.7553  0.8605 -1.4095
  645MOL0     H87030   8.926   5.328   3.453 -1.2470  0.8665  0.0294
  645MOL0     H87031   8.984   5.207   3.668 -0.3613 -0.3101 -2.9065
  645MOL0     H87032   8.828   5.131   3.658  0.4570 -0.1717  2.3193
  645MOL0     H87033   8.872   5.398   3.806 -2.2568  0.5601  4.0060
  645MOL0     H87034   8.854   5.238   3.870 -0.2144 -0.6973  0.6829
  645MOL0     H87035   8.796   5.492   3.952 -0.4916  0.0998  2.6914
  645MOL0     H87036   8.744   5.824   3.976  1.1853  1.2252  1.3640
  645MOL0     H87037   8.692   5.747   4.134 -0.2923 -0.0858 -0.4715
  645MOL0     H87038   8.836   5.691   4.056 -0.9054 -0.9534 -0.1569
  645MOL0     H87039   8.404   6.051   3.818  0.6076 -0.7805  0.7596
  645MOL0     H87040   8.268   6.249   3.835  0.0680 -2.5705 -1.8268
  645MOL0     H87041   8.076   6.313   3.864 -1.0044  0.1744 -1.1309
  645MOL0     H87042   7.963   6.380   3.976 -0.6416  4.4367 -1.7231
  645MOL0     H87043   8.035   6.558   3.834 -2.1535 -0.1504  1.3079
  645MOL0     H87044   8.063   6.599   3.988  0.4983  3.1529 -0.6920
  645MOL0     H87045   8.261   6.499   3.774  2.0040  1.0297  0.5254
  645MOL0     H87046   8.327   6.484   3.936  1.7290  2.4027  0.7862
  645MOL0     H87047   8.237   6.735   3.791  0.5310 -1.9214 -2.3705
  645MOL0     H87048   8.245   6.720   3.967  1.5596 -2.0131  1.1947
  645MOL0     H87049   8.448   6.678   3.748  3.6206 -1.5595  0.0831
  645MOL0     H87050   8.500   6.634   3.914  1.0087  0.5902 -0.5688
  645MOL0     H87051   8.421   6.905   3.812  0.2691 -0.0993 -1.1409
  645MOL0     H87052   8.461   6.867   3.985  1.9578 -1.6070  0.9760
  645MOL0     H87053   8.668   6.839   3.761  2.2069  1.8557  0.1719
  645MOL0     H87054   8.679   6.774   3.922  0.3288  1.1401  1.1473
  645MOL0     H87055   8.791   6.985   3.921 -1.2727 -0.6560 -0.7489
  645MOL0     H87056   8.660   6.998   4.034  1.4104  0.8746  0.9216
  645MOL0     H87057   8.222   6.200   4.240 -0.3383 -1.2718  0.1475
  645MOL0     H87058   8.385   5.999   4.243  1.5047 -0.2666 -0.3956
  645MOL0     H87059   8.355   5.600   3.803 -0.0250  0.8067  2.7732
  645MOL0     H87060   8.439   5.418   3.719  0.4231 -0.9548 -0.7456
  645MOL0     H87061   9.282   4.237   2.697  1.0009  0.8684  0.2544
  645MOL0     H87062   9.349   4.084   2.537 -1.7388 -0.5764  1.4060
  645MOL0     H87063   9.466   3.945   2.111 -1.6957  1.3860  1.4315
  645MOL0     H87064   9.538   3.778   1.968  0.1881  4.6929 -1.1952
  645MOL0     H87065   9.407   3.699   1.706 -1.1694  0.4512  0.5392
  645MOL0     H87066   9.556   3.625   1.762  0.4407  0.9902 -2.0215
  645MOL0     H87067   9.514   3.427   1.632 -1.2255 -1.2368 -0.5507
  645MOL0     H87068   9.438   3.553   1.537  2.0655 -1.3773 -0.8663
  645MOL0     H87069   9.232   3.524   1.587 -0.0536  0.1221  1.1656
  645MOL0     H87070   9.257   3.390   1.699 -0.1720  4.0307  2.4685
  645MOL0     H87071   9.355   3.270   1.486  1.5123  1.5710  1.6496
  645MOL0     H87072   9.293   3.407   1.383  1.3325 -0.7517 -1.2795
  645MOL0     H87073   8.954   3.203   1.500 -0.3542  1.2604  3.4862
  645MOL0     H87074   9.144   3.610   1.952 -0.2023 -0.9378  2.0753
  645MOL0     H87075   9.053   3.794   2.107 -0.2114 -2.1440  1.1618
  646MOL0     O87076   8.797   9.801   8.332  0.2035  0.4113 -0.1267
  646MOL0     C87077   8.885   9.809   8.423 -0.5723  0.0924  0.2359
  646MOL0     O87078   8.919   9.913   8.493 -0.2851 -0.2981  0.1117
  646MOL0     C87079   8.846  10.030   8.461 -0.2353 -0.2487  0.6081
  646MOL0     C87080   8.741  10.077   8.542  0.8829 -1.1067  0.1136
  646MOL0     C87081   8.671  10.202   8.511 -0.4786 -0.8627  0.0960
  646MOL0     C87082   8.719  10.268   8.395  0.9019  0.2557  0.5584
  646MOL0     O87083   8.653  10.380   8.342 -0.0918 -0.4213  0.5206
  646MOL0     C87084   8.560  10.459   8.414  0.3715  0.3254 -0.0045
  646MOL0     C87085   8.551  10.604   8.358  0.0227  0.2197  0.5013
  646MOL0     C87086   8.428  10.673   8.408  0.5287  0.1077 -0.1638
  646MOL0     C87087   8.423  10.801   8.315 -0.0494  0.3077 -0.6149
  646MOL0     C87088   8.297  10.884   8.352 -0.1812  0.7711 -0.2777
  646MOL0     C87089   8.295  10.996   8.251 -0.3682  1.0196  0.1736
  646MOL0     C87090   8.173  11.091   8.280  0.8437  0.0866  0.5984
  646MOL0     C87091   8.141  11.196   8.162  0.2078  0.3695 -1.1706
  646MOL0     N87092   8.258  11.272   8.122  0.0593  0.3328  0.7083
  646MOL0     C87093   8.323  11.257   8.004 -0.5226 -0.2013  0.6204
  646MOL0     C87094   8.423  11.355   8.005  0.6652 -1.0522  0.0750
  646MOL0     C87095   8.526  11.390   7.895 -0.0193  0.3825  1.5005
  646MOL0     C87096   8.468  11.447   7.768  0.8952  0.2689  0.2150
  646MOL0     C87097   8.371  11.553   7.801  0.0379 -0.3704 -0.0758
  646MOL0     C87098   8.343  11.646   7.693  0.9048 -0.1500  0.7027
  646MOL0     O87099   8.268  11.587   7.588 -0.4222  0.1247  0.7906
  646MOL0     C87100   8.192  11.656   7.495 -0.0895  0.1032  0.2111
  646MOL0     C87101   8.195  11.802   7.498  0.0116 -0.3565  0.1904
  646MOL0     C87102   8.115  11.866   7.405  0.6538 -0.5979  0.2714
  646MOL0     C87103   8.122  12.013   7.431 -0.5078  0.0135  0.2075
  646MOL0     C87104   8.036  11.799   7.306  0.4890 -0.5007  0.7723
  646MOL0     C87105   7.943  11.867   7.218 -0.3461 -0.2244 -0.3553
  646MOL0     O87106   7.880  11.978   7.274  0.5306 -1.0052  0.0788
  646MOL0     C87107   7.767  12.024   7.215  0.2380  0.6769 -0.1698
  646MOL0     C87108   7.636  11.985   7.252 -0.5838  1.0064  0.1548
  646MOL0     C87109   7.527  12.047   7.190 -0.4619 -0.7662 -0.0450
  646MOL0     C87110   7.545  12.129   7.084  0.3592 -0.4565 -0.1586
  646MOL0     O87111   7.436  12.178   7.017  0.7722  0.1581 -0.3036
  646MOL0     C87112   7.367  12.074   6.942  0.2248 -1.0197 -0.4090
  646MOL0     C87113   7.221  12.045   6.989  0.2008 -1.1131  0.0437
  646MOL0     C87114   7.146  11.934   6.906  0.1430 -0.3918  0.9509
  646MOL0     C87115   7.007  11.911   6.961 -0.2221 -0.0165  0.3754
  646MOL0     C87116   6.911  12.030   6.931  0.0014  0.4689 -0.4871
  646MOL0     C87117   6.778  12.002   6.989 -0.1995  0.2179 -0.1098
  646MOL0     C87118   6.689  12.121   6.951  0.3813  0.2596  0.2952
  646MOL0     C87119   6.553  12.114   7.010 -0.4788  1.0959  0.4031
  646MOL0    Cl87120   6.440  12.217   6.903 -0.0269 -0.0374  0.3410
  646MOL0     C87121   7.670  12.160   7.048  1.0607 -0.0177  0.4289
  646MOL0     C87122   7.784  12.120   7.118 -0.1154  0.6181 -0.7120
  646MOL0     O87123   7.916  11.814   7.115 -0.3026  0.2198  0.6102
  646MOL0     C87124   8.031  11.660   7.311 -0.0701  0.2012  0.6267
  646MOL0     C87125   8.101  11.591   7.403  0.0483 -1.6385  0.4792
  646MOL0     N87126   8.411  11.432   8.117  0.7960  0.3497  0.0780
  646MOL0     N87127   8.311  11.384   8.186  0.8479  0.2573  0.5550
  646MOL0     C87128   8.828  10.223   8.318 -0.3019  2.0186  0.3069
  646MOL0     C87129   8.884  10.097   8.347 -0.2690  0.2907  0.6599
  646MOL0     C87130   8.959   9.682   8.450 -0.3250  0.1698 -0.2229
  646MOL0     C87131   8.945   9.563   8.372 -0.1478 -0.2279  0.6926
  646MOL0     C87132   9.016   9.451   8.406 -0.2281  0.7278 -0.1863
  646MOL0     C87133   9.087   9.443   8.523 -0.1521 -0.1501 -0.3576
  646MOL0     O87134   9.144   9.324   8.563  0.3303 -0.0838  0.5342
  646MOL0     C87135   9.252   9.304   8.657 -0.4968 -0.4067  1.3866
  646MOL0     C87136   9.394   9.294   8.597  0.5619  0.5608 -0.2618
  646MOL0     C87137   9.405   9.161   8.522  0.2987  0.4626  0.3581
  646MOL0     C87138   9.521   9.153   8.420 -0.9626 -0.1641 -0.5019
  646MOL0     C87139   9.651   9.191   8.475  0.0582  0.5460  0.1514
  646MOL0     C87140   9.757   9.230   8.520  0.0158 -0.7107  0.4941
  646MOL0     C87141   9.093   9.549   8.600 -0.9692 -0.8148 -0.8622
  646MOL0     C87142   9.031   9.668   8.569 -0.3278 -0.4023  0.7495
  646MOL0     H87143   8.713  10.021   8.631  0.8271  0.7155  1.2832
  646MOL0     H87144   8.583  10.244   8.558 -0.4106 -1.2977  0.6143
  646MOL0     H87145   8.457  10.421   8.407 -0.3013  2.0512 -0.1649
  646MOL0     H87146   8.608  10.454   8.512  1.4486  0.8769 -0.4885
  646MOL0     H87147   8.639  10.650   8.404 -1.4942  3.2914  0.5847
  646MOL0     H87148   8.556  10.598   8.249 -2.8108  1.0311  0.2565
  646MOL0     H87149   8.339  10.611   8.399  1.1979 -0.8998  0.0008
  646MOL0     H87150   8.425  10.707   8.513 -1.4737 -2.1050  0.5648
  646MOL0     H87151   8.517  10.848   8.346 -0.0561  1.2659 -1.9662
  646MOL0     H87152   8.427  10.779   8.208  0.2306 -0.1834 -0.5095
  646MOL0     H87153   8.213  10.815   8.346 -0.8364  1.5335 -0.1267
  646MOL0     H87154   8.303  10.930   8.451 -1.5132  0.6474 -0.1255
  646MOL0     H87155   8.382  11.062   8.255 -1.7835  3.0635 -0.6761
  646MOL0     H87156   8.293  10.951   8.151 -0.1276  1.1750  0.0975
  646MOL0     H87157   8.092  11.017   8.289  2.1168 -1.3811  0.3737
  646MOL0     H87158   8.177  11.148   8.374  2.9245  1.2251 -0.1183
  646MOL0     H87159   8.069  11.268   8.202  1.9937 -0.6717  4.8081
  646MOL0     H87160   8.100  11.130   8.084  0.3190 -0.9608 -0.1375
  646MOL0     H87161   8.294  11.198   7.917  0.1040  0.8971 -0.3646
  646MOL0     H87162   8.605  11.457   7.928  0.3090  0.5716  0.3843
  646MOL0     H87163   8.577  11.299   7.862 -0.9178  1.2859 -3.1076
  646MOL0     H87164   8.408  11.374   7.714 -0.9502  0.9176  1.3260
  646MOL0     H87165   8.552  11.487   7.709  1.2145  0.2082  0.6273
  646MOL0     H87166   8.404  11.613   7.887 -1.0798 -0.9335  0.7757
  646MOL0     H87167   8.278  11.506   7.831 -0.7378 -0.1786 -2.0419
  646MOL0     H87168   8.435  11.695   7.658  1.9349 -1.6894  1.1495
  646MOL0     H87169   8.274  11.722   7.731 -0.8484 -1.5953  0.5432
  646MOL0     H87170   8.263  11.856   7.563  3.4449 -2.0941 -1.6687
  646MOL0     H87171   8.095  12.074   7.344  4.9967  2.9491  0.1115
  646MOL0     H87172   8.052  12.035   7.512 -0.8886 -1.4019  0.2907
  646MOL0     H87173   8.220  12.048   7.465  0.6462 -2.0293 -0.7769
  646MOL0     H87174   7.631  11.919   7.338 -1.8796 -1.5146 -1.7253
  646MOL0     H87175   7.437  12.028   7.247  1.0136 -0.7868  2.3728
  646MOL0     H87176   7.369  12.110   6.838  4.3064 -1.7063 -0.7328
  646MOL0     H87177   7.434  11.988   6.942 -0.1577 -1.4327 -3.3747
  646MOL0     H87178   7.221  12.008   7.092 -0.9345  2.1399  1.3558
  646MOL0     H87179   7.164  12.138   6.976  1.0065 -0.9506 -3.2086
  646MOL0     H87180   7.207  11.844   6.904 -1.1171 -1.2743 -1.5970
  646MOL0     H87181   7.142  11.961   6.800 -1.8994 -0.8677  0.8621
  646MOL0     H87182   6.957  11.823   6.919 -2.8394 -0.1483  3.4322
  646MOL0     H87183   7.015  11.906   7.070 -0.0968  0.9356  0.4152
  646MOL0     H87184   6.897  12.030   6.823  0.2978 -1.4849 -0.5662
  646MOL0     H87185   6.957  12.126   6.954  0.2165  1.0666 -3.0996
  646MOL0     H87186   6.730  11.913   6.949  0.3011  0.2633 -0.8309
  646MOL0     H87187   6.790  11.997   7.098  3.4182  0.9505 -0.3398
  646MOL0     H87188   6.669  12.110   6.844 -2.6494 -0.8569  0.8770
  646MOL0     H87189   6.743  12.210   6.985 -0.1525  1.1504 -1.1397
  646MOL0     H87190   6.551  12.154   7.112 -2.9299 -2.3975  1.9346
  646MOL0     H87191   6.514  12.012   7.011 -0.4350  1.0832  0.8459
  646MOL0     H87192   7.690  12.251   6.992  1.5203 -0.4939 -0.1919
  646MOL0     H87193   7.883  12.160   7.096  0.1093  0.2727 -0.3447
  646MOL0     H87194   7.966  11.606   7.244  0.3618 -0.2932  0.5967
  646MOL0     H87195   8.108  11.483   7.396  1.1426 -1.5277 -0.5029
  646MOL0     H87196   8.862  10.271   8.227 -2.1483  0.5223 -1.2634
  646MOL0     H87197   8.955  10.042   8.285 -0.3385 -0.0447  0.8782
  646MOL0     H87198   8.878   9.558   8.286  2.7083  1.7329 -1.8763
  646MOL0     H87199   9.021   9.369   8.336  1.7775  1.0485 -0.4617
  646MOL0     H87200   9.248   9.365   8.747 -1.1713 -1.9303  2.4269
  646MOL0     H87201   9.244   9.202   8.696  1.8016  0.1138  3.5115
  646MOL0     H87202   9.455   9.304   8.688  0.9210 -1.9224 -0.1456
  646MOL0     H87203   9.402   9.376   8.525  1.7202  0.5262 -0.2003
  646MOL0     H87204   9.313   9.129   8.472  0.0989  2.0276 -0.3514
  646MOL0     H87205   9.412   9.073   8.586 -1.6454  0.7725  1.0733
  646MOL0     H87206   9.509   9.225   8.338 -1.8492  1.7048  1.1491
  646MOL0     H87207   9.510   9.058   8.368  0.8877 -1.8000  1.8457
  646MOL0     H87208   9.847   9.268   8.563  0.0206  1.1250 -0.9999
  646MOL0     H87209   9.155   9.555   8.689  2.3348  1.9215 -3.0910
  646MOL0     H87210   9.033   9.759   8.630  0.7166  0.3939 -0.4108
  647MOL0     O87211  10.379   9.411  11.027 -0.7334 -0.1059  0.1232
  647MOL0     C87212  10.367   9.447  11.150  1.1483 -0.3871  1.0558
  647MOL0     O87213  10.344   9.575  11.194  0.1198  0.9230  0.1358
  647MOL0     C87214  10.369   9.669  11.099  0.2113  0.7279  0.7495
  647MOL0     C87215  10.484   9.742  11.086 -0.1297 -0.3531  0.2193
  647MOL0     C87216  10.495   9.840  10.998 -0.3344  0.1134  0.7843
  647MOL0     C87217  10.383   9.884  10.917  0.7949 -0.2862 -0.8763
  647MOL0     O87218  10.405   9.999  10.842 -0.0734 -0.5245  0.5784
  647MOL0     C87219  10.298  10.049  10.764 -0.6019  0.9464  1.0740
  647MOL0     C87220  10.308   9.970  10.629  0.0060 -0.0292 -0.5930
  647MOL0     C87221  10.180   9.984  10.550  0.8311 -0.2905  1.0088
  647MOL0     C87222  10.174   9.928  10.401 -0.5092 -0.4652 -0.0008
  647MOL0     C87223  10.031   9.894  10.357  0.4105  0.0919 -0.5877
  647MOL0     C87224  10.032   9.876  10.207  0.6268 -0.2289  0.6597
  647MOL0     C87225   9.899   9.844  10.152  0.5524 -0.4585 -0.5825
  647MOL0     C87226   9.897   9.833  10.009 -0.5406  0.8925 -0.4467
  647MOL0     N87227   9.761   9.816   9.963 -0.1032  0.3465  0.7816
  647MOL0     C87228   9.672   9.711   9.995  0.6643 -0.5143  1.3361
  647MOL0     C87229   9.571   9.732   9.908 -0.7232  0.1665 -0.0692
  647MOL0     C87230   9.466   9.622   9.894  0.0603  0.2828 -0.1932
  647MOL0     C87231   9.449   9.593   9.744 -0.6385 -1.1346  0.0242
  647MOL0     C87232   9.340   9.485   9.716 -0.3208 -0.3293 -0.2971
  647MOL0     C87233   9.253   9.516   9.600 -0.3535  0.3609  0.2121
  647MOL0     O87234   9.334   9.517   9.477  0.3946 -0.6819  0.6499
  647MOL0     C87235   9.258   9.539   9.354 -0.1167  0.5609 -0.7753
  647MOL0     C87236   9.319   9.599   9.245  0.9087  0.0383 -0.1779
  647MOL0     C87237   9.251   9.629   9.124  0.7338 -0.0506  0.2473
  647MOL0     C87238   9.346   9.646   9.014  0.2203  0.0757  0.5828
  647MOL0     C87239   9.112   9.615   9.116 -0.6405 -0.3318 -0.1212
  647MOL0     C87240   9.035   9.662   8.995  0.0105  0.1165  0.9573
  647MOL0     O87241   8.913   9.610   9.006  0.1141 -0.1095 -0.1066
  647MOL0     C87242   8.815   9.662   8.925 -0.6533 -0.1420  0.9426
  647MOL0     C87243   8.745   9.770   8.973  0.7149 -0.0901 -0.3213
  647MOL0     C87244   8.647   9.827   8.896 -0.2151 -0.3792 -0.2163
  647MOL0     C87245   8.614   9.772   8.771  1.1674  0.2172  0.7661
  647MOL0     O87246   8.510   9.841   8.703  0.2749 -0.0390 -0.1775
  647MOL0     C87247   8.458   9.787   8.587 -0.5533  0.1898 -0.3167
  647MOL0     C87248   8.316   9.852   8.540  0.2232  0.0844 -0.3631
  647MOL0     C87249   8.338   9.988   8.467  0.4853 -0.2111  0.3663
  647MOL0     C87250   8.230  10.022   8.358 -0.5538 -0.3698 -0.6362
  647MOL0     C87251   8.259  10.164   8.290  0.0105  0.3634 -0.1653
  647MOL0     C87252   8.379  10.173   8.195  0.7185  0.1827 -0.2464
  647MOL0     C87253   8.399  10.062   8.086 -0.0641 -0.0042  0.9869
  647MOL0     C87254   8.531  10.076   8.009 -0.6459 -0.3133  0.1326
  647MOL0    Cl87255   8.525   9.991   7.854  0.0900 -0.0237  0.6833
  647MOL0     C87256   8.682   9.661   8.725  0.0314 -0.0433  0.1957
  647MOL0     C87257   8.792   9.617   8.793 -0.0790 -0.1464 -0.2741
  647MOL0     O87258   9.075   9.735   8.906  1.0021 -0.0379  0.0115
  647MOL0     C87259   9.055   9.544   9.231  0.4645  0.1210 -0.2894
  647MOL0     C87260   9.116   9.515   9.355 -0.4171  0.3911  0.4130
  647MOL0     N87261   9.587   9.848   9.834 -0.9786  0.4021 -0.0765
  647MOL0     N87262   9.705   9.897   9.873  0.4431 -0.1643  0.5816
  647MOL0     C87263  10.259   9.819  10.937  0.1449 -1.0472 -0.0806
  647MOL0     C87264  10.254   9.701  11.019  0.8892  0.3363 -0.0699
  647MOL0     C87265  10.366   9.334  11.245  0.2090  0.1554  0.4594
  647MOL0     C87266  10.336   9.364  11.373 -0.4729 -0.3678  0.3274
  647MOL0     C87267  10.346   9.261  11.467  0.1745  0.3469 -0.6628
  647MOL0     C87268  10.381   9.128  11.432  0.3859  0.8913  0.0100
  647MOL0     O87269  10.408   9.036  11.527  0.0944 -0.0566 -0.5623
  647MOL0     C87270  10.357   9.052  11.659  0.6621 -0.1954  0.3062
  647MOL0     C87271  10.333   8.908  11.714 -1.2267  0.2584 -0.0537
  647MOL0     C87272  10.357   8.906  11.860 -0.1025  0.1307  0.1563
  647MOL0     C87273  10.233   8.962  11.933 -0.5300  0.0339  0.0091
  647MOL0     C87274  10.275   9.017  12.071 -1.5129 -0.3590  0.7918
  647MOL0     C87275  10.296   9.070  12.175  0.5200 -0.1406  0.3333
  647MOL0     C87276  10.413   9.107  11.298  0.1580  0.1728 -0.0052
  647MOL0     C87277  10.396   9.203  11.204  0.0661  0.5120 -0.8579
  647MOL0     H87278  10.561   9.703  11.152 -0.0380 -2.6692 -1.1465
  647MOL0     H87279  10.596   9.879  10.990 -0.0316 -0.8917 -0.5955
  647MOL0     H87280  10.199  10.032  10.809  0.4289 -3.0945  2.2572
  647MOL0     H87281  10.315  10.154  10.741  2.0471 -0.1282 -2.7385
  647MOL0     H87282  10.399   9.999  10.574  1.9460 -5.6824 -1.0699
  647MOL0     H87283  10.339   9.866  10.646 -0.1763  0.0445  0.2217
  647MOL0     H87284  10.101   9.933  10.606 -0.8030 -0.1793 -1.0797
  647MOL0     H87285  10.144  10.087  10.545 -0.0551 -0.6422 -0.7714
  647MOL0     H87286  10.224   9.998  10.333  1.3066 -0.7945  0.9254
  647MOL0     H87287  10.238   9.840  10.391 -0.0894  0.0412 -2.2509
  647MOL0     H87288   9.996   9.803  10.406  0.6571  0.7447  0.8640
  647MOL0     H87289   9.964   9.969  10.399  1.5856  2.1307 -2.1129
  647MOL0     H87290  10.081   9.959  10.156 -0.2351  2.8168  4.3440
  647MOL0     H87291  10.092   9.785  10.194 -0.8711 -1.0834 -0.5135
  647MOL0     H87292   9.852   9.757  10.200  1.8819 -1.1915 -0.5838
  647MOL0     H87293   9.828   9.926  10.172 -0.8361 -1.3683 -1.6358
  647MOL0     H87294   9.951   9.743   9.980  0.5419  2.1805 -2.6498
  647MOL0     H87295   9.935   9.920   9.956  3.2623  1.2099  2.3873
  647MOL0     H87296   9.703   9.624  10.053  0.8518 -2.1837 -1.0851
  647MOL0     H87297   9.485   9.530   9.951  0.1108  1.0817  1.1333
  647MOL0     H87298   9.373   9.651   9.943  0.8634  0.4678  1.2960
  647MOL0     H87299   9.547   9.564   9.703 -0.2391  1.2912 -0.9034
  647MOL0     H87300   9.425   9.691   9.703  1.9116 -0.4719 -0.0535
  647MOL0     H87301   9.277   9.490   9.805 -0.5319  0.0147 -0.4644
  647MOL0     H87302   9.388   9.387   9.706 -0.8307 -0.4463 -1.8956
  647MOL0     H87303   9.221   9.620   9.610  0.2214  0.6312 -0.6199
  647MOL0     H87304   9.177   9.438   9.589  0.2119 -0.0496 -0.9415
  647MOL0     H87305   9.427   9.604   9.254  1.0811 -2.7824  0.4626
  647MOL0     H87306   9.310   9.587   8.930  0.1413 -0.6617  1.1324
  647MOL0     H87307   9.355   9.748   8.976 -0.6141 -0.4570 -1.1179
  647MOL0     H87308   9.448   9.620   9.044  0.6773 -0.5103 -1.3438
  647MOL0     H87309   8.755   9.795   9.078  3.3419 -1.7174 -0.0880
  647MOL0     H87310   8.579   9.906   8.925 -1.4271 -1.0307 -1.1773
  647MOL0     H87311   8.528   9.801   8.505  1.0033 -0.5490  0.8301
  647MOL0     H87312   8.451   9.679   8.601  2.1543 -0.2644 -1.7379
  647MOL0     H87313   8.264   9.778   8.479 -0.9101  0.0052  0.6631
  647MOL0     H87314   8.246   9.869   8.623 -1.1508 -2.8465 -0.8026
  647MOL0     H87315   8.436   9.982   8.417 -1.2026 -3.0840 -3.0833
  647MOL0     H87316   8.346  10.074   8.534 -0.6890  0.1240  0.0927
  647MOL0     H87317   8.232   9.939   8.287  2.6584  0.1098 -1.2297
  647MOL0     H87318   8.133  10.039   8.407  0.6592  0.5680  1.6265
  647MOL0     H87319   8.272  10.233   8.374 -1.2609 -2.5756  2.6734
  647MOL0     H87320   8.169  10.193   8.234 -1.0569  1.3692  1.9694
  647MOL0     H87321   8.390  10.271   8.148  4.0471  1.7716  3.3017
  647MOL0     H87322   8.472  10.155   8.249  1.0074  2.4991  0.0932
  647MOL0     H87323   8.308  10.075   8.027 -0.3726 -0.2620  1.3976
  647MOL0     H87324   8.409   9.963   8.130  1.1001  0.0612  0.9222
  647MOL0     H87325   8.616  10.040   8.067  0.7160  1.7175 -0.4857
  647MOL0     H87326   8.550  10.182   7.990 -2.1486  0.0831  0.6291
  647MOL0     H87327   8.663   9.615   8.629  0.6063 -1.0651  0.5543
  647MOL0     H87328   8.856   9.543   8.745  0.7304  2.8145 -4.3103
  647MOL0     H87329   8.947   9.531   9.236  0.3806  0.7817 -0.3258
  647MOL0     H87330   9.058   9.464   9.432  0.6898 -1.0547  0.3497
  647MOL0     H87331  10.164   9.850  10.894  2.0106  3.8665 -1.2819
  647MOL0     H87332  10.159   9.650  11.026  1.2913 -0.3150  0.7601
  647MOL0     H87333  10.297   9.455  11.417 -5.4592 -1.0470 -1.9660
  647MOL0     H87334  10.328   9.283  11.572  0.1289  2.2879 -1.0400
  647MOL0     H87335  10.424   9.114  11.719  4.8737 -1.9411 -2.1195
  647MOL0     H87336  10.261   9.101  11.645  1.6749  1.3514 -1.7959
  647MOL0     H87337  10.405   8.844  11.664 -0.1330  2.3467 -1.2813
  647MOL0     H87338  10.234   8.883  11.676 -1.6146  1.8720 -0.1693
  647MOL0     H87339  10.457   8.942  11.884  1.4031 -3.9404  0.7637
  647MOL0     H87340  10.363   8.798  11.873  0.7539  0.2500  0.8871
  647MOL0     H87341  10.160   8.881  11.943 -0.2632 -0.5264 -2.1018
  647MOL0     H87342  10.194   9.043  11.871 -1.4988  0.8173  1.5874
  647MOL0     H87343  10.321   9.131  12.260 -0.3346  0.7598 -0.0416
  647MOL0     H87344  10.451   9.009  11.267 -0.7027 -0.1788  0.0239
  647MOL0     H87345  10.413   9.188  11.098 -0.5882  1.3221 -1.0872
  648MOL0     O87346  10.178   8.637   9.236  0.0666  0.6091 -0.1923
  648MOL0     C87347  10.201   8.523   9.270 -0.8042 -0.9263 -0.0042
  648MOL0     O87348  10.139   8.451   9.364 -0.3358  0.0504 -0.6208
  648MOL0     C87349  10.059   8.520   9.452 -0.1327 -0.3409  0.1036
  648MOL0     C87350   9.921   8.517   9.426 -0.7398  0.3881 -0.3842
  648MOL0     C87351   9.833   8.596   9.501  0.3084  0.1303 -0.3470
  648MOL0     C87352   9.881   8.684   9.602 -0.6148  0.4536 -0.5171
  648MOL0     O87353   9.788   8.743   9.687  0.4239  0.1819 -0.2127
  648MOL0     C87354   9.835   8.849   9.770  0.1148 -0.8628 -0.6281
  648MOL0     C87355   9.712   8.917   9.832  0.9941 -0.5973 -0.5363
  648MOL0     C87356   9.622   8.831   9.931 -0.5211  0.4477 -0.1126
  648MOL0     C87357   9.703   8.747  10.030  1.4096 -0.0871  0.0964
  648MOL0     C87358   9.632   8.728  10.169 -0.2089  2.1090  0.8553
  648MOL0     C87359   9.658   8.840  10.271  0.4035  0.6074  0.2282
  648MOL0     C87360   9.613   8.799  10.411 -0.8513  0.4910 -1.0965
  648MOL0     C87361   9.466   8.750  10.429 -0.1327  0.8172  0.3488
  648MOL0     N87362   9.385   8.875  10.440 -0.2041  0.3366 -0.0325
  648MOL0     C87363   9.291   8.920  10.353 -0.6056 -0.1175 -0.1913
  648MOL0     C87364   9.245   9.038  10.395 -0.7831  0.1332 -0.4720
  648MOL0     C87365   9.145   9.131  10.328 -0.0361  0.0610 -1.0415
  648MOL0     C87366   9.046   9.193  10.435  0.5028 -0.4254  0.7703
  648MOL0     C87367   8.983   9.092  10.526 -0.0514 -0.0204 -0.2979
  648MOL0     C87368   8.833   9.073  10.481  0.1838  0.0195  0.0667
  648MOL0     O87369   8.828   9.030  10.344 -0.0891  0.5631 -0.2032
  648MOL0     C87370   8.885   8.914  10.292 -0.3297  0.0050  0.6471
  648MOL0     C87371   8.896   8.901  10.155 -0.8116  0.0272 -0.4636
  648MOL0     C87372   8.969   8.793  10.096 -0.0013  0.2027  1.3121
  648MOL0     C87373   8.958   8.779   9.944  0.2506  0.5055 -0.9207
  648MOL0     C87374   9.037   8.695  10.175 -0.3135  0.1591  0.2060
  648MOL0     C87375   9.134   8.584  10.128  0.1762 -1.0799 -0.0942
  648MOL0     O87376   9.155   8.468  10.206  0.6280  0.1448  0.1134
  648MOL0     C87377   9.256   8.384  10.166 -0.4692  0.3229  0.3398
  648MOL0     C87378   9.229   8.252  10.136 -0.8054 -0.3453 -0.6095
  648MOL0     C87379   9.335   8.161  10.106  0.4172  0.5503 -0.4653
  648MOL0     C87380   9.469   8.208  10.087  0.0148  0.1364  0.3471
  648MOL0     O87381   9.574   8.134  10.051 -0.5490  0.1856  0.4889
  648MOL0     C87382   9.575   8.063   9.923 -0.0545  0.4078 -0.7664
  648MOL0     C87383   9.568   7.919   9.962  0.6884  0.2025 -0.5615
  648MOL0     C87384   9.563   7.817   9.848 -0.2122  0.1539  0.6460
  648MOL0     C87385   9.470   7.855   9.735 -0.6805 -0.8947 -0.8644
  648MOL0     C87386   9.406   7.745   9.644 -0.1065  0.1380 -0.1200
  648MOL0     C87387   9.325   7.796   9.529  0.0515  0.1047 -0.3161
  648MOL0     C87388   9.422   7.860   9.440 -0.2288 -0.3047 -0.3781
  648MOL0     C87389   9.371   7.891   9.295 -0.1577  0.4364  0.0222
  648MOL0    Cl87390   9.506   7.905   9.172 -0.4898  0.0760 -0.4276
  648MOL0     C87391   9.490   8.343  10.121  0.7706 -0.5963  0.4825
  648MOL0     C87392   9.388   8.425  10.162  0.1729  0.4700 -0.4906
  648MOL0     O87393   9.193   8.619  10.021 -1.4738 -0.2852  0.4198
  648MOL0     C87394   9.017   8.714  10.314  0.0544  0.4757 -0.0827
  648MOL0     C87395   8.945   8.812  10.368  1.1309 -0.1586 -0.2137
  648MOL0     N87396   9.305   9.059  10.525  0.0891  0.5336  0.2190
  648MOL0     N87397   9.388   8.964  10.546  0.2514  0.4629  0.3186
  648MOL0     C87398  10.030   8.692   9.625 -0.1048  0.4628 -0.0424
  648MOL0     C87399  10.111   8.608   9.550  0.5163  0.2541 -0.1536
  648MOL0     C87400  10.300   8.453   9.182  0.5018  1.6815  0.0177
  648MOL0     C87401  10.341   8.327   9.216 -0.7975 -0.0432  0.0867
  648MOL0     C87402  10.448   8.262   9.158 -0.7149  0.3558  0.7361
  648MOL0     C87403  10.508   8.312   9.048  0.7214  0.8330  0.4242
  648MOL0     O87404  10.610   8.239   9.005 -0.5568  0.8397  0.1745
  648MOL0     C87405  10.693   8.283   8.895  0.4036 -0.4890 -0.0299
  648MOL0     C87406  10.806   8.168   8.886  0.5582 -0.0962  1.2346
  648MOL0     C87407  10.928   8.184   8.974 -0.1342 -0.6388  0.2359
  648MOL0     C87408  11.052   8.219   8.883 -0.0634 -0.3666  0.1105
  648MOL0     C87409  11.171   8.242   8.960  0.3201  0.7090  0.2106
  648MOL0     C87410  11.260   8.270   9.033 -0.2933  0.1168  0.1463
  648MOL0     C87411  10.460   8.432   9.004 -0.0379 -0.1283 -0.5159
  648MOL0     C87412  10.360   8.501   9.072 -0.3547  0.0108 -0.9796
  648MOL0     H87413   9.888   8.453   9.346 -1.0320 -3.4588  2.5222
  648MOL0     H87414   9.728   8.568   9.496 -0.3224  2.2865 -0.2012
  648MOL0     H87415   9.897   8.813   9.853 -0.6593 -1.6250 -0.3649
  648MOL0     H87416   9.897   8.922   9.718  1.8237 -1.4813  0.4833
  648MOL0     H87417   9.743   9.005   9.889 -0.9233 -0.3162  0.1510
  648MOL0     H87418   9.648   8.960   9.754 -1.6920 -2.4711  0.5081
  648MOL0     H87419   9.545   8.892   9.979 -1.4111  0.3128 -1.3269
  648MOL0     H87420   9.564   8.757   9.875 -0.2587  1.2987 -1.5572
  648MOL0     H87421   9.724   8.649   9.987  0.5359 -1.0424  1.7608
  648MOL0     H87422   9.795   8.803  10.054  1.1256  1.5255 -2.2086
  648MOL0     H87423   9.528   8.706  10.142 -0.0397 -1.2031  2.3965
  648MOL0     H87424   9.664   8.632  10.211 -1.0433  1.4999  0.1306
  648MOL0     H87425   9.762   8.870  10.265 -0.3943  3.7610  0.6934
  648MOL0     H87426   9.595   8.922  10.237 -1.5502 -1.3449 -1.2081
  648MOL0     H87427   9.679   8.719  10.447 -1.3323  0.8584  0.7106
  648MOL0     H87428   9.627   8.886  10.476 -3.0737 -0.0925  0.2637
  648MOL0     H87429   9.447   8.685  10.515 -1.6457 -4.2649 -3.3007
  648MOL0     H87430   9.438   8.686  10.345  3.1275 -1.1797  0.6141
  648MOL0     H87431   9.284   8.884  10.250  0.7730  1.1295 -0.7671
  648MOL0     H87432   9.198   9.224  10.303 -3.7591  2.2183 -1.7465
  648MOL0     H87433   9.101   9.087  10.239  0.1745  0.0637 -1.1472
  648MOL0     H87434   8.965   9.244  10.381 -0.6506 -1.6821  1.2398
  648MOL0     H87435   9.102   9.271  10.487 -1.7248  2.9503 -1.4807
  648MOL0     H87436   8.975   9.127  10.629 -1.6652 -2.8782  0.6674
  648MOL0     H87437   9.039   8.998  10.530  0.5318  0.3235 -0.2599
  648MOL0     H87438   8.780   9.165  10.506  0.2228  0.0495  0.0381
  648MOL0     H87439   8.785   8.994  10.539 -0.4428 -0.1141 -0.6215
  648MOL0     H87440   8.866   8.988  10.096  0.1323  1.3551  0.9183
  648MOL0     H87441   8.892   8.856   9.903 -0.0235 -0.4964 -2.4372
  648MOL0     H87442   9.049   8.775   9.885  0.4246 -0.8339 -0.5857
  648MOL0     H87443   8.906   8.684   9.930 -1.4666  0.7823  2.3824
  648MOL0     H87444   9.127   8.218  10.145 -0.7829 -0.4499 -0.7695
  648MOL0     H87445   9.320   8.054  10.096 -2.8884  1.0322 -1.8960
  648MOL0     H87446   9.495   8.092   9.855  2.5785  0.8485 -3.9240
  648MOL0     H87447   9.670   8.073   9.870  0.5342 -0.2995  0.1273
  648MOL0     H87448   9.652   7.886  10.023 -0.0281 -1.4614 -0.4158
  648MOL0     H87449   9.476   7.902  10.018  1.5198 -0.2782  0.6842
  648MOL0     H87450   9.547   7.716   9.887  2.2212 -1.8038 -2.8162
  648MOL0     H87451   9.667   7.811   9.814  0.0560  1.2818  1.1924
  648MOL0     H87452   9.378   7.895   9.778  0.3927 -0.9535  1.6179
  648MOL0     H87453   9.517   7.942   9.688  1.1484 -0.6400  1.2941
  648MOL0     H87454   9.349   7.688   9.718 -1.7482  0.7171 -0.9097
  648MOL0     H87455   9.490   7.685   9.607  1.4028  1.8360  0.3550
  648MOL0     H87456   9.267   7.715   9.484 -1.1191  0.0589  1.1986
  648MOL0     H87457   9.258   7.869   9.575  0.1484  0.1500 -0.2452
  648MOL0     H87458   9.517   7.807   9.429 -0.7335 -2.0719  2.7125
  648MOL0     H87459   9.434   7.964   9.470  0.4121  1.1447 -4.9081
  648MOL0     H87460   9.308   7.978   9.313 -1.7643 -1.2338  3.3587
  648MOL0     H87461   9.300   7.814   9.262 -0.6770  1.0302 -0.2587
  648MOL0     H87462   9.593   8.380  10.122 -0.0693  1.9461  1.2760
  648MOL0     H87463   9.421   8.525  10.188  0.3353  0.5418 -0.9560
  648MOL0     H87464   9.067   8.649  10.384  0.5123  0.2148 -0.6494
  648MOL0     H87465   8.933   8.811  10.476  1.0849 -0.8868 -0.2227
  648MOL0     H87466  10.071   8.733   9.716 -0.5772  0.3065  0.2465
  648MOL0     H87467  10.216   8.599   9.576  0.6609  3.0342  0.4924
  648MOL0     H87468  10.297   8.269   9.297 -3.4519 -4.4435 -3.9857
  648MOL0     H87469  10.486   8.169   9.199  1.7297  1.7892  1.9293
  648MOL0     H87470  10.636   8.284   8.802  0.6091 -2.9539 -0.2308
  648MOL0     H87471  10.730   8.386   8.904 -0.7992  0.1386 -1.8287
  648MOL0     H87472  10.819   8.162   8.777 -1.5805  1.3250  0.8258
  648MOL0     H87473  10.761   8.071   8.910  0.2556 -0.7661 -1.6436
  648MOL0     H87474  10.933   8.083   9.017 -3.6025 -0.8087  0.5424
  648MOL0     H87475  10.915   8.255   9.056  1.4633  2.6856 -2.1806
  648MOL0     H87476  11.041   8.307   8.819  2.0387 -0.4364 -0.4156
  648MOL0     H87477  11.072   8.133   8.818  4.2736  0.2813  0.3070
  648MOL0     H87478  11.349   8.281   9.091 -0.2287  2.1474 -0.2592
  648MOL0     H87479  10.504   8.482   8.919 -1.9810  1.9989 -0.3705
  648MOL0     H87480  10.337   8.604   9.045  0.8156  0.6973  0.4799
  649MOL0     O87481  10.709   8.630   7.528 -0.7915 -0.3395 -0.0860
  649MOL0     C87482  10.663   8.602   7.410 -0.1534 -0.3130  0.3830
  649MOL0     O87483  10.543   8.542   7.381 -0.0514 -0.3110  0.0417
  649MOL0     C87484  10.468   8.527   7.496  0.3661  0.3345 -0.3116
  649MOL0     C87485  10.361   8.627   7.523 -1.2320  0.3789 -0.7486
  649MOL0     C87486  10.283   8.612   7.637  0.2166 -0.9666  0.3937
  649MOL0     C87487  10.295   8.503   7.723 -0.9756  0.3173 -0.6856
  649MOL0     O87488  10.197   8.502   7.825  0.6485  0.5228  0.2886
  649MOL0     C87489  10.250   8.524   7.950 -0.3667  0.2463  0.4379
  649MOL0     C87490  10.137   8.601   8.019  0.6553 -0.2224 -0.0055
  649MOL0     C87491  10.156   8.591   8.177  0.6170 -0.7455  0.4883
  649MOL0     C87492  10.094   8.465   8.237  1.0232  0.7053 -0.1843
  649MOL0     C87493  10.099   8.467   8.384  0.4704  0.2336 -0.1136
  649MOL0     C87494  10.016   8.350   8.429  0.5519  0.7239  0.0935
  649MOL0     C87495  10.064   8.216   8.377 -0.2590  0.4978 -1.0242
  649MOL0     C87496   9.996   8.108   8.457 -0.1023  0.5768  0.6040
  649MOL0     N87497  10.027   7.971   8.417  0.2503 -0.1659  0.4013
  649MOL0     C87498   9.959   7.895   8.325  0.7729  0.9455  0.2961
  649MOL0     C87499  10.014   7.765   8.321  0.0847 -0.2416 -0.5464
  649MOL0     C87500   9.971   7.650   8.225  0.6088  0.4306  0.1013
  649MOL0     C87501  10.024   7.512   8.270  0.1245  0.3008 -1.1835
  649MOL0     C87502   9.975   7.477   8.418  0.3846 -0.0152 -0.4070
  649MOL0     C87503   9.824   7.448   8.433 -0.3848  0.3018 -0.0232
  649MOL0     O87504   9.769   7.582   8.413  0.3199 -0.0887  0.1623
  649MOL0     C87505   9.634   7.593   8.399  0.7418 -0.2712  0.4139
  649MOL0     C87506   9.591   7.717   8.354  0.2891 -0.1280 -0.4625
  649MOL0     C87507   9.454   7.734   8.312 -0.0221  0.9370 -0.2128
  649MOL0     C87508   9.420   7.871   8.257  0.1925  0.5364  0.2877
  649MOL0     C87509   9.360   7.632   8.338 -0.4647 -0.5205 -0.1008
  649MOL0     C87510   9.218   7.657   8.305 -0.4044  0.4841 -0.2768
  649MOL0     O87511   9.165   7.784   8.284 -0.0252 -0.0357 -0.0420
  649MOL0     C87512   9.045   7.800   8.212 -0.4126 -0.5652  0.1180
  649MOL0     C87513   8.955   7.888   8.269  0.2040 -0.1733  0.5747
  649MOL0     C87514   8.844   7.922   8.194  0.2272  1.0295 -0.6864
  649MOL0     C87515   8.814   7.858   8.070 -0.2620 -0.5238  0.6689
  649MOL0     O87516   8.707   7.882   7.981  0.4756  0.4315  0.6237
  649MOL0     C87517   8.612   7.980   8.016  0.2143 -0.3644  0.1483
  649MOL0     C87518   8.641   8.122   7.999 -0.9541  0.4445  0.5300
  649MOL0     C87519   8.527   8.197   7.947 -0.0164 -0.9895 -0.1567
  649MOL0     C87520   8.522   8.343   7.990 -0.1017 -0.6212  0.0257
  649MOL0     C87521   8.419   8.429   7.914 -0.4527 -0.1851  1.6240
  649MOL0     C87522   8.269   8.408   7.940  0.3591 -0.3703 -0.0919
  649MOL0     C87523   8.226   8.468   8.079  0.8535 -0.8605 -0.4885
  649MOL0     C87524   8.084   8.422   8.112  0.6767 -0.6171 -0.5007
  649MOL0    Cl87525   8.078   8.256   8.175 -0.2614  0.1174 -0.0421
  649MOL0     C87526   8.913   7.769   8.019 -0.4421 -0.1338 -0.3446
  649MOL0     C87527   9.027   7.748   8.084 -0.2592  0.4903 -0.1542
  649MOL0     O87528   9.155   7.553   8.284  0.4900  0.0430  0.7006
  649MOL0     C87529   9.399   7.505   8.392  0.0550 -0.5466  0.8100
  649MOL0     C87530   9.534   7.486   8.417 -1.4157 -0.0680 -0.6400
  649MOL0     N87531  10.125   7.771   8.410 -0.1070 -0.4212 -0.0503
  649MOL0     N87532  10.130   7.894   8.465 -0.5585  1.5197 -0.5334
  649MOL0     C87533  10.403   8.415   7.699 -0.2945 -0.7810  0.0754
  649MOL0     C87534  10.479   8.417   7.579  0.4779  0.4853  0.3379
  649MOL0     C87535  10.773   8.602   7.310 -0.3957  0.1301 -0.1143
  649MOL0     C87536  10.871   8.706   7.301  0.0781  0.2898  1.6065
  649MOL0     C87537  10.983   8.691   7.214 -0.0351  0.1507  1.1945
  649MOL0     C87538  10.982   8.585   7.125 -0.2503 -0.1491  0.3219
  649MOL0     O87539  11.084   8.603   7.031  0.9696  0.5040 -0.0535
  649MOL0     C87540  11.108   8.491   6.944  0.2474 -0.5359 -0.0827
  649MOL0     C87541  11.225   8.533   6.856  0.1781  0.5582 -0.3519
  649MOL0     C87542  11.354   8.512   6.936  0.1419  0.8014 -0.4345
  649MOL0     C87543  11.387   8.364   6.926  0.4907 -0.4391  0.3181
  649MOL0     C87544  11.523   8.341   6.978  0.5256 -0.0652  0.0438
  649MOL0     C87545  11.631   8.327   7.035 -0.2902  0.7020  1.1779
  649MOL0     C87546  10.880   8.491   7.126  0.0536  0.0692 -0.1357
  649MOL0     C87547  10.773   8.497   7.219  1.0093 -0.3158  0.6970
  649MOL0     H87548  10.343   8.713   7.458  1.6064  2.2650  0.7421
  649MOL0     H87549  10.188   8.660   7.662  0.0636 -0.8286 -0.4030
  649MOL0     H87550  10.273   8.425   7.989  2.2838 -0.4391 -2.4943
  649MOL0     H87551  10.339   8.587   7.953 -1.0479  1.5531 -2.7577
  649MOL0     H87552  10.118   8.704   7.990 -4.5610 -0.8193  0.3107
  649MOL0     H87553  10.042   8.548   8.001  1.3232 -1.8009  0.9038
  649MOL0     H87554  10.263   8.584   8.197  0.0470 -2.5403  3.6759
  649MOL0     H87555  10.117   8.682   8.223  1.7229 -0.1658  0.3137
  649MOL0     H87556   9.990   8.472   8.203  1.0195  1.8152  0.0202
  649MOL0     H87557  10.130   8.376   8.185 -0.8182 -2.0251  2.8998
  649MOL0     H87558  10.200   8.464   8.426  0.3613  1.0898  0.2295
  649MOL0     H87559  10.044   8.553   8.422  1.1748 -0.3523  2.4433
  649MOL0     H87560  10.017   8.357   8.538  1.3754  3.3697 -0.0193
  649MOL0     H87561   9.910   8.355   8.400  0.6784 -1.6299 -1.0647
  649MOL0     H87562  10.030   8.201   8.274 -2.7416  0.3130 -0.2478
  649MOL0     H87563  10.172   8.213   8.391 -0.5103  0.6772  1.3752
  649MOL0     H87564   9.887   8.112   8.464 -0.4894 -4.7188  2.5941
  649MOL0     H87565  10.016   8.113   8.564  0.4613 -0.1866  0.5469
  649MOL0     H87566   9.881   7.930   8.258  0.4568  2.4110  1.3871
  649MOL0     H87567   9.863   7.652   8.207  0.5705  0.2350  0.3122
  649MOL0     H87568  10.013   7.675   8.127  1.0309  1.0116  0.4193
  649MOL0     H87569  10.134   7.516   8.269  0.2017 -0.2412  0.7396
  649MOL0     H87570  10.004   7.427   8.204  0.1580 -1.2407  0.7071
  649MOL0     H87571  10.006   7.553   8.491 -0.1879  0.4013 -0.5938
  649MOL0     H87572  10.026   7.385   8.449 -3.6399 -2.2533  0.2772
  649MOL0     H87573   9.801   7.413   8.534 -0.4241 -1.7559 -0.7131
  649MOL0     H87574   9.787   7.384   8.352 -4.2915  0.6705  1.2544
  649MOL0     H87575   9.661   7.800   8.342 -2.7864  2.3937 -2.6828
  649MOL0     H87576   9.365   7.859   8.163 -2.9023 -0.3334  2.0533
  649MOL0     H87577   9.360   7.941   8.316  1.4425  1.9078 -0.0026
  649MOL0     H87578   9.515   7.922   8.240 -0.1151  1.7142  1.8423
  649MOL0     H87579   8.977   7.919   8.371  1.9528  1.9760 -0.3639
  649MOL0     H87580   8.772   7.992   8.237 -1.5273 -1.4803  0.7744
  649MOL0     H87581   8.521   7.964   7.957  0.8278 -3.1558 -0.1863
  649MOL0     H87582   8.570   7.971   8.116 -1.0533  4.1435  0.2241
  649MOL0     H87583   8.674   8.156   8.097 -0.4956  1.7091 -0.0470
  649MOL0     H87584   8.720   8.138   7.925  0.1503  0.6254  1.7196
  649MOL0     H87585   8.432   8.153   7.977 -0.5013  0.5971  0.7934
  649MOL0     H87586   8.530   8.196   7.837 -0.5950 -0.6436 -0.1846
  649MOL0     H87587   8.499   8.359   8.096  0.1539 -0.0216 -0.0059
  649MOL0     H87588   8.620   8.380   7.960 -1.1206  1.5916 -0.7749
  649MOL0     H87589   8.441   8.434   7.807  0.9511  0.2999  1.9063
  649MOL0     H87590   8.442   8.532   7.944  0.1019  0.5674 -1.1051
  649MOL0     H87591   8.204   8.462   7.870 -2.0185  0.3429  2.4491
  649MOL0     H87592   8.234   8.305   7.939  0.3323 -0.3599 -0.2356
  649MOL0     H87593   8.231   8.577   8.067  1.2915 -0.9232 -0.9519
  649MOL0     H87594   8.299   8.439   8.155 -1.2493 -1.6309  1.3405
  649MOL0     H87595   8.022   8.432   8.022  0.7013  0.4780 -0.4082
  649MOL0     H87596   8.040   8.481   8.193 -1.4931  0.3684 -2.2926
  649MOL0     H87597   8.889   7.726   7.922 -2.4438  0.2520 -0.0765
  649MOL0     H87598   9.104   7.691   8.033 -2.5352 -2.2300 -0.8439
  649MOL0     H87599   9.325   7.426   8.399 -1.5762  0.4318 -2.8557
  649MOL0     H87600   9.574   7.391   8.454  0.9533  0.8455 -0.6821
  649MOL0     H87601  10.420   8.323   7.754 -0.6800 -1.6159 -1.1774
  649MOL0     H87602  10.556   8.342   7.564  0.2242  0.3805 -0.4959
  649MOL0     H87603  10.870   8.786   7.375  1.5716  1.8501  0.0410
  649MOL0     H87604  11.066   8.760   7.206  1.8135 -2.1607 -1.7751
  649MOL0     H87605  11.125   8.396   6.995 -2.2891 -1.2671 -0.4517
  649MOL0     H87606  11.023   8.483   6.876 -0.3016  0.5792  0.4436
  649MOL0     H87607  11.219   8.635   6.816 -1.1543  0.4727 -0.4105
  649MOL0     H87608  11.218   8.473   6.765 -2.1093 -0.4055  0.3788
  649MOL0     H87609  11.344   8.563   7.033 -2.3726  0.2372 -0.3296
  649MOL0     H87610  11.436   8.571   6.896  1.1145 -0.1633  0.0783
  649MOL0     H87611  11.363   8.338   6.823 -2.6449  0.9361  0.5949
  649MOL0     H87612  11.305   8.309   6.973 -0.9500  0.1084 -1.4395
  649MOL0     H87613  11.732   8.300   7.060  0.5943  0.7886 -1.8777
  649MOL0     H87614  10.870   8.416   7.048  0.1707  0.1679 -0.2469
  649MOL0     H87615  10.690   8.427   7.213 -3.0779  4.1583 -1.5834
  650MOL0     O87616   4.260   0.044   2.014 -0.1517  0.5013  0.1711
  650MOL0     C87617   4.183   0.010   1.924  0.7293 -0.4853  0.9102
  650MOL0     O87618   4.047   0.029   1.914  0.0271 -0.2532  1.5218
  650MOL0     C87619   3.991   0.080   2.033 -0.3025 -0.9186  0.0514
  650MOL0     C87620   3.968   0.001   2.148 -0.0724 -0.2099 -0.6198
  650MOL0     C87621   3.934   0.065   2.274  0.5293 -0.6283  1.2803
  650MOL0     C87622   3.891   0.204   2.271 -0.0503  0.9573 -0.4038
  650MOL0     O87623   3.838   0.251   2.387 -0.1641 -0.0733 -0.3222
  650MOL0     C87624   3.885   0.383   2.432  0.6162 -0.6694  0.3253
  650MOL0     C87625   4.031   0.362   2.484  0.2865 -0.1642  0.2100
  650MOL0     C87626   4.064   0.468   2.592  0.1008 -0.0125 -0.0726
  650MOL0     C87627   4.205   0.468   2.624 -0.4680 -0.7043 -0.8560
  650MOL0     C87628   4.228   0.547   2.756 -0.2516 -0.1822 -0.0238
  650MOL0     C87629   4.380   0.568   2.786  1.4455  0.8592 -0.1725
  650MOL0     C87630   4.408   0.618   2.933  0.7552  0.2195  1.6662
  650MOL0     C87631   4.556   0.583   2.973  0.0125  0.4450 -0.1463
  650MOL0     N87632   4.655   0.674   2.909 -0.1492  0.0361  0.7146
  650MOL0     C87633   4.700   0.798   2.946  0.5245 -0.4112  0.1688
  650MOL0     C87634   4.814   0.809   2.885 -0.4427 -0.5389 -0.3117
  650MOL0     C87635   4.917   0.915   2.917  0.5594  0.2692 -0.1358
  650MOL0     C87636   5.062   0.866   2.918 -0.3061  0.2234  0.9200
  650MOL0     C87637   5.147   0.994   2.929 -0.2041 -0.2644 -0.5080
  650MOL0     C87638   5.293   0.938   2.918 -0.3544 -0.2525  0.4706
  650MOL0     O87639   5.381   1.054   2.961  0.3329 -0.4982  0.1537
  650MOL0     C87640   5.518   1.040   2.963 -0.2093  0.3080  0.1907
  650MOL0     C87641   5.595   1.153   2.997 -0.2978 -0.0044 -0.3192
  650MOL0     C87642   5.737   1.145   3.021  1.4756 -0.5201  0.1718
  650MOL0     C87643   5.810   1.262   3.060 -0.1270 -0.9500 -0.3324
  650MOL0     C87644   5.795   1.012   3.024 -0.3404  1.0778  0.6879
  650MOL0     C87645   5.937   0.987   3.065  1.3240  0.0195  0.0387
  650MOL0     O87646   5.999   0.876   3.012  0.3389 -0.2032 -0.6372
  650MOL0     C87647   6.137   0.882   3.006 -0.0252  0.0529 -0.0013
  650MOL0     C87648   6.210   0.972   2.932 -0.3241  1.5602 -0.5112
  650MOL0     C87649   6.356   0.967   2.917 -0.5278  0.7270  0.1134
  650MOL0     C87650   6.421   0.856   2.977 -1.1614  0.0578 -0.8657
  650MOL0     O87651   6.559   0.853   2.949 -0.5488  0.4005 -0.8639
  650MOL0     C87652   6.579   0.799   2.815  0.6320  0.5993 -0.3543
  650MOL0     C87653   6.731   0.784   2.778 -0.0660  0.5740 -0.4149
  650MOL0     C87654   6.748   0.684   2.659 -0.2501 -0.1709  0.0342
  650MOL0     C87655   6.874   0.698   2.571 -0.3356  0.2397  1.0696
  650MOL0     C87656   6.986   0.678   2.674  0.6238 -0.4817 -0.0662
  650MOL0     C87657   7.123   0.687   2.601  1.2585  0.6835  0.2544
  650MOL0     C87658   7.152   0.572   2.503  0.4019 -0.7897  0.3934
  650MOL0     C87659   7.221   0.456   2.586 -0.6947 -0.5100 -1.1168
  650MOL0    Cl87660   7.213   0.295   2.497  0.0616 -0.1629  0.2479
  650MOL0     C87661   6.347   0.759   3.047  0.9964  0.0620  0.5728
  650MOL0     C87662   6.208   0.770   3.047  0.3344 -0.9200 -1.0308
  650MOL0     O87663   5.984   1.057   3.153  0.7977 -0.3715  0.1706
  650MOL0     C87664   5.714   0.901   2.975 -0.6093 -1.4411 -0.6771
  650MOL0     C87665   5.580   0.921   2.946  0.0715 -0.4650 -0.3616
  650MOL0     N87666   4.836   0.694   2.810  0.8080  0.6107 -0.7068
  650MOL0     N87667   4.742   0.613   2.830 -0.3919  0.0606 -0.2780
  650MOL0     C87668   3.900   0.280   2.150 -0.3848  0.6717  0.5299
  650MOL0     C87669   3.946   0.216   2.035  0.0356  1.2457 -0.3712
  650MOL0     C87670   4.233  -0.084   1.822 -0.2209 -0.7965 -0.2576
  650MOL0     C87671   4.365  -0.123   1.828  0.6373  0.3784 -0.3371
  650MOL0     C87672   4.417  -0.217   1.737 -0.2672 -0.7759 -0.0933
  650MOL0     C87673   4.332  -0.268   1.631 -0.2133  0.5350 -0.6657
  650MOL0     O87674   4.377  -0.359   1.532 -0.7336  0.0828 -0.2994
  650MOL0     C87675   4.508  -0.343   1.483 -0.2414 -0.1369 -0.2128
  650MOL0     C87676   4.513  -0.255   1.362  0.4294 -0.1318 -0.0529
  650MOL0     C87677   4.423  -0.320   1.249  0.2360  0.0194 -0.9739
  650MOL0     C87678   4.455  -0.302   1.100 -0.0734 -0.1971 -0.4484
  650MOL0     C87679   4.445  -0.163   1.053  1.2499 -0.0272 -0.3562
  650MOL0     C87680   4.433  -0.054   0.999 -0.9218  0.5398 -0.0576
  650MOL0     C87681   4.205  -0.210   1.622 -0.9493 -0.6301 -0.5761
  650MOL0     C87682   4.148  -0.118   1.714 -1.0159  0.1640 -0.0819
  650MOL0     H87683   3.977  -0.107   2.142 -2.7738 -0.7817  2.7972
  650MOL0     H87684   3.918   0.011   2.367 -1.9311  1.5786  2.2619
  650MOL0     H87685   3.887   0.456   2.351 -0.4270 -0.7983  0.1704
  650MOL0     H87686   3.809   0.424   2.499 -0.5995  1.1176 -2.0091
  650MOL0     H87687   4.042   0.257   2.515 -2.6826 -0.5753  0.2153
  650MOL0     H87688   4.088   0.378   2.392 -1.5111 -2.8719 -1.5198
  650MOL0     H87689   4.032   0.562   2.545 -0.9910 -1.0216 -1.4770
  650MOL0     H87690   4.004   0.443   2.680  1.6672  0.7586  1.2563
  650MOL0     H87691   4.242   0.366   2.635  0.1632 -0.5402 -1.4238
  650MOL0     H87692   4.256   0.520   2.542 -0.9843  0.6062 -0.3742
  650MOL0     H87693   4.192   0.650   2.754  2.5974  0.9189  1.5042
  650MOL0     H87694   4.186   0.490   2.839 -1.7093  1.5242  0.4644
  650MOL0     H87695   4.427   0.472   2.765 -1.8556 -0.6293 -1.4456
  650MOL0     H87696   4.431   0.632   2.713  2.4784 -0.9853 -1.1366
  650MOL0     H87697   4.385   0.723   2.951 -3.3759  0.0331 -1.1191
  650MOL0     H87698   4.336   0.556   2.987  1.5387 -1.1269  1.2219
  650MOL0     H87699   4.578   0.476   2.963 -0.3917  0.2478  1.0001
  650MOL0     H87700   4.567   0.592   3.081 -0.3615  1.0137 -0.1509
  650MOL0     H87701   4.659   0.862   3.023  1.2308  0.7176 -0.3633
  650MOL0     H87702   4.916   0.989   2.837  1.1473  0.3937 -0.0346
  650MOL0     H87703   4.891   0.951   3.017  2.1806 -1.9010  1.1583
  650MOL0     H87704   5.085   0.819   2.821 -2.6697 -1.0900  0.8925
  650MOL0     H87705   5.086   0.796   2.999 -0.4694  0.7384  1.4181
  650MOL0     H87706   5.136   1.044   3.026  1.7826  0.8645 -0.8072
  650MOL0     H87707   5.132   1.068   2.850 -1.1941  0.0586 -0.0303
  650MOL0     H87708   5.311   0.910   2.814 -2.4252 -3.0821  0.7370
  650MOL0     H87709   5.316   0.854   2.984 -2.1996 -1.4531 -0.3216
  650MOL0     H87710   5.539   1.243   3.018 -0.4356 -0.2204  0.2641
  650MOL0     H87711   5.804   1.259   3.170 -2.1626 -2.7251 -0.4214
  650MOL0     H87712   5.914   1.270   3.027  0.5860 -0.5211  1.8359
  650MOL0     H87713   5.768   1.351   3.013 -1.0423 -1.7115 -0.9866
  650MOL0     H87714   6.148   1.048   2.885  0.9139  1.2328 -2.8235
  650MOL0     H87715   6.406   1.035   2.849 -3.2337  1.2182 -1.5139
  650MOL0     H87716   6.523   0.706   2.803  0.4240  0.8916 -1.8737
  650MOL0     H87717   6.530   0.866   2.743 -1.2423  0.3158  0.5859
  650MOL0     H87718   6.769   0.885   2.761  1.9328 -0.0928 -0.1792
  650MOL0     H87719   6.789   0.738   2.859 -0.1987 -1.4962 -1.4314
  650MOL0     H87720   6.661   0.693   2.594 -0.7041 -2.8141  0.1304
  650MOL0     H87721   6.746   0.586   2.708  0.7924  0.2946  1.0871
  650MOL0     H87722   6.863   0.628   2.488 -2.7254  3.4018 -1.5372
  650MOL0     H87723   6.884   0.796   2.524 -2.6382 -1.0451 -2.4739
  650MOL0     H87724   6.989   0.577   2.717  3.1079 -0.3828  0.1393
  650MOL0     H87725   6.983   0.749   2.757  1.5619 -1.0658  0.4949
  650MOL0     H87726   7.127   0.778   2.541  1.3784  1.4595  1.4042
  650MOL0     H87727   7.201   0.689   2.678  2.7493  3.2285 -1.2049
  650MOL0     H87728   7.220   0.613   2.427  0.8417 -0.2593  1.0611
  650MOL0     H87729   7.061   0.548   2.447 -1.2308  1.7087  1.7988
  650MOL0     H87730   7.181   0.446   2.687  0.6649 -0.9780 -0.5992
  650MOL0     H87731   7.330   0.469   2.586 -0.5103 -1.9104 -1.7888
  650MOL0     H87732   6.401   0.673   3.085 -2.7016 -2.0917  1.4424
  650MOL0     H87733   6.151   0.696   3.103  1.3316 -0.6085  0.4541
  650MOL0     H87734   5.767   0.810   2.951  0.4488 -1.1168  0.3319
  650MOL0     H87735   5.525   0.830   2.922 -0.5861  0.4521 -2.5577
  650MOL0     H87736   3.858   0.376   2.124  0.5307  0.5487 -1.6087
  650MOL0     H87737   3.935   0.270   1.941  0.0040  3.5932  0.9208
  650MOL0     H87738   4.423  -0.080   1.910 -2.0173  2.3991  0.6150
  650MOL0     H87739   4.520  -0.248   1.748  0.0444  0.0499 -0.6218
  650MOL0     H87740   4.577  -0.299   1.556  0.6107 -0.2092 -0.9502
  650MOL0     H87741   4.545  -0.446   1.474 -0.1280 -0.1189  0.0331
  650MOL0     H87742   4.615  -0.254   1.322  0.6084  1.3072  0.4128
  650MOL0     H87743   4.492  -0.153   1.394  0.5508  0.0882 -0.6610
  650MOL0     H87744   4.317  -0.292   1.251 -0.6566 -2.8597  2.1652
  650MOL0     H87745   4.426  -0.427   1.271  0.1762  0.3798  0.9638
  650MOL0     H87746   4.371  -0.348   1.046 -1.3680 -0.1749  1.4379
  650MOL0     H87747   4.552  -0.345   1.073  0.1592  0.7712 -1.1933
  650MOL0     H87748   4.437   0.039   0.946  2.2693 -0.0221 -1.0293
  650MOL0     H87749   4.145  -0.253   1.541 -0.6676 -1.1312 -0.5218
  650MOL0     H87750   4.047  -0.080   1.704 -0.6827  0.5721 -2.3837
  651MOL0     O87751   8.506   3.088   6.239  0.8675  0.3169  0.2497
  651MOL0     C87752   8.591   3.185   6.244 -0.4217  0.5098 -0.0416
  651MOL0     O87753   8.564   3.319   6.266  0.3960 -0.2041  0.3641
  651MOL0     C87754   8.437   3.368   6.289  0.0915 -0.4607 -0.0010
  651MOL0     C87755   8.324   3.332   6.215 -0.4954  0.0255 -0.6022
  651MOL0     C87756   8.196   3.389   6.253  0.0384  0.0095  0.3367
  651MOL0     C87757   8.181   3.455   6.373  0.0607  0.1424 -0.4960
  651MOL0     O87758   8.053   3.484   6.411  0.2028 -0.3711  0.2232
  651MOL0     C87759   8.027   3.536   6.537  0.3857 -0.4245 -0.3108
  651MOL0     C87760   7.877   3.554   6.555  0.6065 -0.7674 -0.2794
  651MOL0     C87761   7.820   3.690   6.516  1.0442 -0.4966 -0.4560
  651MOL0     C87762   7.830   3.730   6.370 -0.3216 -0.0035 -0.4021
  651MOL0     C87763   7.758   3.640   6.268  0.2489 -0.0909  0.2932
  651MOL0     C87764   7.604   3.633   6.265  0.4669  0.3880  0.2772
  651MOL0     C87765   7.551   3.762   6.209 -0.7129 -0.9195  0.0757
  651MOL0     C87766   7.595   3.795   6.070 -0.2056 -0.5244  0.3469
  651MOL0     N87767   7.521   3.902   6.000  0.0768  0.6862 -0.8593
  651MOL0     C87768   7.385   3.921   5.990 -0.4837  0.6022  0.7439
  651MOL0     C87769   7.379   4.026   5.907 -0.7804 -0.2714 -0.1227
  651MOL0     C87770   7.248   4.044   5.818 -0.6010 -0.8543 -0.1378
  651MOL0     C87771   7.270   4.028   5.665  0.1255  0.6407 -0.6044
  651MOL0     C87772   7.153   4.068   5.570 -0.1844 -0.2379 -1.0159
  651MOL0     C87773   7.118   4.219   5.571 -0.5668  0.4997  0.3797
  651MOL0     O87774   7.228   4.295   5.514  0.8266  0.4570 -0.2146
  651MOL0     C87775   7.206   4.425   5.490 -0.7113 -0.2773 -0.2170
  651MOL0     C87776   7.320   4.499   5.446 -0.7076  0.3189  0.1995
  651MOL0     C87777   7.312   4.638   5.437 -0.4711 -1.2801 -0.0933
  651MOL0     C87778   7.445   4.705   5.400 -0.0075 -0.1398  0.0329
  651MOL0     C87779   7.197   4.711   5.477 -0.2271 -0.1643 -0.5051
  651MOL0     C87780   7.192   4.860   5.475  0.5919  0.2448 -0.0294
  651MOL0     O87781   7.229   4.924   5.363  0.1161  0.3761  0.6081
  651MOL0     C87782   7.209   5.057   5.359  0.3863  0.0880  0.2425
  651MOL0     C87783   7.085   5.124   5.376 -0.2849  0.0053 -0.0799
  651MOL0     C87784   7.086   5.269   5.358  0.8328  0.9358 -0.1752
  651MOL0     C87785   7.199   5.346   5.344 -0.5052 -0.3669  0.6673
  651MOL0     O87786   7.214   5.485   5.348 -0.0173  0.7098  0.6777
  651MOL0     C87787   7.148   5.548   5.461 -0.0104 -0.8735 -0.8779
  651MOL0     C87788   7.147   5.693   5.426 -0.2925 -0.1520 -0.1614
  651MOL0     C87789   7.296   5.750   5.395 -0.4684 -0.1050  0.3273
  651MOL0     C87790   7.304   5.912   5.394 -0.2148 -0.1039 -0.3444
  651MOL0     C87791   7.440   5.942   5.326  1.0580 -0.3220  0.4828
  651MOL0     C87792   7.550   5.911   5.427 -0.1927 -0.3951  0.1363
  651MOL0     C87793   7.689   5.975   5.392 -1.0257  0.2269  0.0116
  651MOL0     C87794   7.797   5.870   5.359 -0.6086 -0.2937  0.2033
  651MOL0    Cl87795   7.737   5.748   5.247 -0.0675 -0.1138 -0.2211
  651MOL0     C87796   7.326   5.271   5.325  0.6839  0.3022  0.5631
  651MOL0     C87797   7.320   5.136   5.339 -0.2010  0.8654 -0.1965
  651MOL0     O87798   7.140   4.912   5.572 -0.0310  0.1202  0.3805
  651MOL0     C87799   7.092   4.630   5.516 -0.5866 -0.6182 -1.1567
  651MOL0     C87800   7.098   4.496   5.526  0.2850 -0.0936  1.3940
  651MOL0     N87801   7.505   4.083   5.877  0.6127 -0.0896  0.0854
  651MOL0     N87802   7.588   3.998   5.930 -0.8097 -0.5338  0.4444
  651MOL0     C87803   8.287   3.487   6.450 -1.0337 -0.3005  0.0172
  651MOL0     C87804   8.416   3.433   6.410  0.7039  0.1244  0.1572
  651MOL0     C87805   8.733   3.141   6.225 -0.1879  0.8674 -0.7384
  651MOL0     C87806   8.763   3.006   6.236 -0.6000  0.3405 -0.6071
  651MOL0     C87807   8.889   2.954   6.207 -0.1620  0.3027 -0.4436
  651MOL0     C87808   8.982   3.040   6.160 -0.7461 -0.0803 -0.1969
  651MOL0     O87809   9.113   2.991   6.123  0.3935  0.7703 -0.5191
  651MOL0     C87810   9.124   2.848   6.091 -0.2951  0.0399  0.0214
  651MOL0     C87811   9.271   2.816   6.045  0.5441 -0.1527 -0.0493
  651MOL0     C87812   9.379   2.897   6.139  0.2495  0.1374  0.1281
  651MOL0     C87813   9.515   2.826   6.114  0.0383 -0.4939 -1.4189
  651MOL0     C87814   9.554   2.834   5.973 -0.1126 -1.1418  0.4066
  651MOL0     C87815   9.594   2.844   5.859  0.6113  0.1986  0.5214
  651MOL0     C87816   8.963   3.172   6.140 -0.4010 -0.0015 -0.4132
  651MOL0     C87817   8.840   3.228   6.178 -0.2653  0.3567  0.6787
  651MOL0     H87818   8.337   3.281   6.120 -0.3823  1.4851 -1.3971
  651MOL0     H87819   8.117   3.364   6.183  1.4495  1.1563 -1.7866
  651MOL0     H87820   8.064   3.475   6.620  3.4364 -1.4535 -2.2808
  651MOL0     H87821   8.072   3.635   6.544 -0.4470 -0.1269  1.6313
  651MOL0     H87822   7.836   3.467   6.503  2.3318 -1.8074  0.0244
  651MOL0     H87823   7.855   3.541   6.661 -0.5050 -0.2672 -0.4379
  651MOL0     H87824   7.714   3.682   6.541  1.3137 -3.2389  0.0737
  651MOL0     H87825   7.873   3.765   6.575  2.9871  0.8249 -3.6215
  651MOL0     H87826   7.792   3.831   6.351 -2.2611 -0.2226  1.7858
  651MOL0     H87827   7.934   3.739   6.341 -0.7277  0.1181 -1.8741
  651MOL0     H87828   7.807   3.662   6.172 -1.0425  1.9379  0.0414
  651MOL0     H87829   7.797   3.539   6.284  0.1176 -0.5443 -1.9342
  651MOL0     H87830   7.580   3.550   6.199  3.3727 -0.4295  0.0969
  651MOL0     H87831   7.554   3.607   6.359 -0.2590 -1.0511 -0.4803
  651MOL0     H87832   7.444   3.742   6.223 -0.9111 -3.3768 -3.5973
  651MOL0     H87833   7.581   3.848   6.269  5.6130 -2.7024  0.0963
  651MOL0     H87834   7.595   3.703   6.011  0.3369  0.0068 -0.5005
  651MOL0     H87835   7.700   3.824   6.068 -0.1192 -0.7962  0.7312
  651MOL0     H87836   7.301   3.855   6.005 -0.9575 -0.3866 -4.2705
  651MOL0     H87837   7.171   3.972   5.846 -0.5026 -1.7422 -1.9994
  651MOL0     H87838   7.208   4.141   5.849 -2.3539 -1.1170 -1.4002
  651MOL0     H87839   7.295   3.923   5.649  2.1504  1.0429 -0.3474
  651MOL0     H87840   7.365   4.071   5.631  0.6102 -1.2563 -1.7523
  651MOL0     H87841   7.065   4.006   5.593 -1.1399 -0.0389 -3.7550
  651MOL0     H87842   7.179   4.041   5.467 -2.9729 -2.1540 -1.3498
  651MOL0     H87843   7.107   4.249   5.676  0.8055  2.8961 -0.0840
  651MOL0     H87844   7.024   4.236   5.518 -0.3269 -4.8886 -2.3726
  651MOL0     H87845   7.397   4.433   5.408 -1.5958  0.0004 -1.1194
  651MOL0     H87846   7.489   4.761   5.483 -1.1481  0.0882  0.4982
  651MOL0     H87847   7.515   4.632   5.359 -1.1585 -0.3763 -1.5761
  651MOL0     H87848   7.438   4.783   5.324  0.6200 -3.5388 -3.8894
  651MOL0     H87849   6.994   5.067   5.391 -1.6351  2.3190  1.2568
  651MOL0     H87850   6.990   5.319   5.365 -0.6773 -1.8499  0.4551
  651MOL0     H87851   7.040   5.532   5.464  0.0453 -1.2116  1.0811
  651MOL0     H87852   7.189   5.535   5.562 -0.8984  1.4061 -0.1659
  651MOL0     H87853   7.077   5.710   5.343  0.0122  0.0885 -0.3712
  651MOL0     H87854   7.101   5.741   5.513 -1.0056 -2.2357  0.6618
  651MOL0     H87855   7.329   5.711   5.298 -1.4093 -2.3857  0.8614
  651MOL0     H87856   7.373   5.720   5.467  1.1121  2.7158 -0.0450
  651MOL0     H87857   7.222   5.962   5.342  0.0969  1.9482  0.9848
  651MOL0     H87858   7.306   5.951   5.496  0.6251  1.7863 -1.0470
  651MOL0     H87859   7.443   6.049   5.306 -2.3296 -0.4077 -1.0193
  651MOL0     H87860   7.451   5.889   5.231  0.5977  0.4693 -0.0198
  651MOL0     H87861   7.524   5.942   5.528 -1.5691 -2.5123  0.4764
  651MOL0     H87862   7.569   5.804   5.435  1.8192  0.0758  3.1061
  651MOL0     H87863   7.732   6.039   5.471  0.4855 -2.6170  1.6645
  651MOL0     H87864   7.670   6.035   5.303 -0.2489 -3.4790 -2.8702
  651MOL0     H87865   7.824   5.818   5.451 -2.2628  2.7428  2.5934
  651MOL0     H87866   7.892   5.903   5.316 -2.1624  1.0505 -2.5363
  651MOL0     H87867   7.417   5.328   5.308 -0.7776  2.7673  0.5368
  651MOL0     H87868   7.406   5.070   5.331 -1.9457 -1.7023  0.5860
  651MOL0     H87869   6.993   4.669   5.541 -1.8362 -1.6563 -4.0257
  651MOL0     H87870   7.007   4.447   5.559 -1.4081  1.5948 -0.4925
  651MOL0     H87871   8.282   3.523   6.552 -1.4209 -2.0319  0.6522
  651MOL0     H87872   8.494   3.458   6.481 -1.0850  1.7944  1.6279
  651MOL0     H87873   8.681   2.949   6.279 -2.2638  4.2945  2.0599
  651MOL0     H87874   8.906   2.848   6.216  0.3272  0.3047 -1.2674
  651MOL0     H87875   9.103   2.803   6.189 -1.6256  2.8155  1.1278
  651MOL0     H87876   9.054   2.820   6.012  2.2175  2.6174 -3.3955
  651MOL0     H87877   9.278   2.857   5.943 -0.3031  1.9781  0.6875
  651MOL0     H87878   9.283   2.708   6.029 -1.8280 -0.4504 -0.1573
  651MOL0     H87879   9.344   2.889   6.242 -2.6473 -0.9705 -0.8563
  651MOL0     H87880   9.379   3.003   6.109 -0.3821  0.8176  2.3775
  651MOL0     H87881   9.509   2.721   6.143 -2.7615  0.2172  1.0917
  651MOL0     H87882   9.596   2.863   6.178 -0.2422 -1.1562 -0.6601
  651MOL0     H87883   9.624   2.845   5.757  0.9832 -1.1317  0.5959
  651MOL0     H87884   9.039   3.240   6.105  0.7402  0.5729  2.8319
  651MOL0     H87885   8.821   3.331   6.148 -0.7196 -0.0208 -0.3629
  652MOL0     O87886   2.371   8.638   7.436  0.0661  0.6412  0.5516
  652MOL0     C87887   2.312   8.529   7.404 -0.2068  1.2471 -0.2149
  652MOL0     O87888   2.199   8.513   7.342  0.1661 -0.0863  0.5863
  652MOL0     C87889   2.129   8.629   7.324  0.0680 -0.5975  0.8104
  652MOL0     C87890   2.127   8.716   7.212  0.5517 -0.4252 -0.1608
  652MOL0     C87891   2.074   8.843   7.216  0.2156  0.2403  1.1171
  652MOL0     C87892   1.987   8.881   7.321  0.3580  0.4163  0.2414
  652MOL0     O87893   1.934   9.007   7.328  0.0491 -0.3993  0.1818
  652MOL0     C87894   2.015   9.120   7.308 -0.1226 -0.2426 -0.1174
  652MOL0     C87895   1.927   9.246   7.302 -0.1069  0.6757  0.3120
  652MOL0     C87896   1.833   9.256   7.421 -0.2349 -0.6535  0.9525
  652MOL0     C87897   1.772   9.396   7.432  0.2967 -0.3176  0.3752
  652MOL0     C87898   1.673   9.391   7.553 -0.9164  0.3992  0.6681
  652MOL0     C87899   1.584   9.519   7.540 -0.3477  0.3927 -0.3384
  652MOL0     C87900   1.508   9.542   7.669  0.0656 -0.8123  0.1907
  652MOL0     C87901   1.382   9.450   7.663  0.7979 -0.1001 -0.1954
  652MOL0     N87902   1.307   9.478   7.788 -0.2655 -0.0889 -0.5050
  652MOL0     C87903   1.342   9.440   7.918  0.1911  0.9404 -0.1762
  652MOL0     C87904   1.252   9.505   7.993  0.3529  0.4673 -0.5128
  652MOL0     C87905   1.236   9.500   8.145  0.2793  0.1615 -0.3408
  652MOL0     C87906   1.217   9.357   8.203 -0.7446  0.0054 -1.2193
  652MOL0     C87907   1.137   9.256   8.117 -0.0079 -0.5044  0.4031
  652MOL0     C87908   1.193   9.111   8.129 -0.1531  0.9639  0.2036
  652MOL0     O87909   1.132   9.009   8.049 -0.9707 -0.4218  0.1496
  652MOL0     C87910   1.220   8.903   8.048 -0.5928 -0.1419  0.1951
  652MOL0     C87911   1.175   8.798   8.127 -0.1667  0.2109 -0.8538
  652MOL0     C87912   1.237   8.672   8.117 -0.0043 -0.5096  0.0639
  652MOL0     C87913   1.169   8.564   8.191  0.5572  0.3028  0.4160
  652MOL0     C87914   1.332   8.640   8.009 -0.3575 -0.5532  0.2471
  652MOL0     C87915   1.403   8.510   7.988 -0.4191  0.5145 -0.4301
  652MOL0     O87916   1.362   8.426   7.888 -0.3425 -0.7660 -0.2797
  652MOL0     C87917   1.286   8.474   7.783  0.5061  0.4430  0.9459
  652MOL0     C87918   1.148   8.506   7.802 -0.7733 -0.0699  0.3931
  652MOL0     C87919   1.083   8.566   7.693  0.4556  0.5839  0.1523
  652MOL0     C87920   1.136   8.571   7.564 -0.4553  0.7505  0.6710
  652MOL0     O87921   1.065   8.619   7.454  0.0777 -0.1440  0.7960
  652MOL0     C87922   0.921   8.645   7.451  1.0499 -0.1983 -0.5702
  652MOL0     C87923   0.885   8.695   7.309 -0.0607 -0.1257  0.3853
  652MOL0     C87924   0.765   8.788   7.315  0.7332 -0.0031  0.1950
  652MOL0     C87925   0.638   8.712   7.341  0.3399 -0.0921 -1.2214
  652MOL0     C87926   0.515   8.810   7.344 -0.6812  0.0380 -0.2143
  652MOL0     C87927   0.388   8.734   7.341  1.1085  0.2429 -0.0442
  652MOL0     C87928   0.266   8.819   7.309 -0.2870 -0.7630 -0.0152
  652MOL0     C87929   0.148   8.731   7.265  0.4840  0.1547  0.7653
  652MOL0    Cl87930  -0.016   8.816   7.244 -0.9335  0.3809 -0.1941
  652MOL0     C87931   1.269   8.532   7.541  0.7850 -0.4298  0.7194
  652MOL0     C87932   1.344   8.485   7.654 -0.3579  0.4552  0.0124
  652MOL0     O87933   1.480   8.474   8.080  0.4623 -0.9248 -0.1960
  652MOL0     C87934   1.374   8.755   7.928  1.1545 -0.5540 -0.6521
  652MOL0     C87935   1.318   8.883   7.944  0.6371  0.1334  0.1033
  652MOL0     N87936   1.157   9.571   7.906 -0.0434  0.0863  0.0112
  652MOL0     N87937   1.194   9.556   7.788 -0.6064 -0.7246  0.0352
  652MOL0     C87938   1.974   8.796   7.430 -0.4847 -0.2834 -0.1799
  652MOL0     C87939   2.040   8.671   7.429 -0.0099  0.8128 -0.0595
  652MOL0     C87940   2.396   8.403   7.448  0.1560 -0.2356 -0.1215
  652MOL0     C87941   2.521   8.422   7.497 -0.9386  0.2068 -0.5992
  652MOL0     C87942   2.598   8.309   7.529 -0.6952  0.9638  1.6685
  652MOL0     C87943   2.552   8.180   7.499  0.1090  0.4312  0.0636
  652MOL0     O87944   2.641   8.086   7.537 -0.0161 -0.1401  0.1609
  652MOL0     C87945   2.614   7.949   7.509 -0.1123 -0.3832  0.6346
  652MOL0     C87946   2.702   7.873   7.606  0.2777  0.3671  0.3337
  652MOL0     C87947   2.675   7.724   7.634 -0.1355 -0.1046  0.2289
  652MOL0     C87948   2.757   7.685   7.761  0.3498 -0.6337 -1.0116
  652MOL0     C87949   2.753   7.538   7.801  0.2243 -0.9903 -0.2600
  652MOL0     C87950   2.738   7.418   7.838 -0.1100 -0.1411  0.1497
  652MOL0     C87951   2.420   8.153   7.452 -1.6652  0.7973 -0.4204
  652MOL0     C87952   2.345   8.266   7.423 -0.1144 -0.9954  0.0626
  652MOL0     H87953   2.190   8.689   7.127  2.6295  1.3885  0.7191
  652MOL0     H87954   2.086   8.896   7.122  2.3294  2.6978  2.6398
  652MOL0     H87955   2.092   9.139   7.383 -1.5553  1.2346  1.0449
  652MOL0     H87956   2.061   9.116   7.209  1.2269  1.2890  0.4040
  652MOL0     H87957   1.987   9.338   7.297  0.7540  0.0695 -1.0920
  652MOL0     H87958   1.885   9.240   7.201 -1.2028  1.2748  0.7176
  652MOL0     H87959   1.752   9.184   7.412 -1.4465  0.7367  0.2255
  652MOL0     H87960   1.889   9.241   7.513  3.2288  6.4581  0.7093
  652MOL0     H87961   1.844   9.473   7.460 -1.8048  1.7423  0.4706
  652MOL0     H87962   1.723   9.434   7.342 -1.3169  2.9015  2.4394
  652MOL0     H87963   1.616   9.298   7.548  3.8947 -3.0362  2.3047
  652MOL0     H87964   1.725   9.395   7.649 -3.1175  1.6012  1.8870
  652MOL0     H87965   1.657   9.597   7.516 -1.1522  1.7793  1.4811
  652MOL0     H87966   1.516   9.512   7.455  0.8086  1.9024 -1.4319
  652MOL0     H87967   1.557   9.523   7.764  1.5749 -1.8589 -0.7610
  652MOL0     H87968   1.475   9.646   7.677  2.2763 -0.0015 -0.6351
  652MOL0     H87969   1.410   9.345   7.667 -1.3297 -0.6912  0.6299
  652MOL0     H87970   1.310   9.469   7.583  1.2260  1.5063 -0.2356
  652MOL0     H87971   1.421   9.375   7.955 -2.3047 -2.0839  0.1879
  652MOL0     H87972   1.331   9.545   8.174  0.8688 -0.1062 -1.7505
  652MOL0     H87973   1.156   9.569   8.172 -0.0516 -0.6982  0.9499
  652MOL0     H87974   1.168   9.354   8.302  0.7312  1.3335 -0.4129
  652MOL0     H87975   1.318   9.322   8.225 -0.8849 -1.6174 -2.8880
  652MOL0     H87976   1.133   9.275   8.009 -0.8967  0.2164  0.5484
  652MOL0     H87977   1.030   9.256   8.142 -1.2934  2.2514 -3.9368
  652MOL0     H87978   1.168   9.080   8.231 -0.3872 -1.9076 -0.6404
  652MOL0     H87979   1.302   9.109   8.122 -0.2312 -1.0782 -1.4365
  652MOL0     H87980   1.091   8.806   8.195  1.0879 -4.4894  1.7195
  652MOL0     H87981   1.133   8.491   8.119  3.5225  0.0636 -0.9656
  652MOL0     H87982   1.246   8.521   8.256  1.5580  3.2568  1.3891
  652MOL0     H87983   1.090   8.606   8.255 -0.7987  0.3278 -1.2063
  652MOL0     H87984   1.099   8.503   7.899 -3.3613 -2.2031 -0.8460
  652MOL0     H87985   0.980   8.591   7.718  0.6952  1.3666  0.3689
  652MOL0     H87986   0.863   8.556   7.477  3.2915 -2.3701 -2.4606
  652MOL0     H87987   0.889   8.727   7.516 -0.8441 -0.4315 -1.1580
  652MOL0     H87988   0.970   8.751   7.269 -0.9807  0.6882 -0.4999
  652MOL0     H87989   0.866   8.608   7.246 -0.6546  0.4122 -0.2089
  652MOL0     H87990   0.750   8.832   7.216  2.6214  3.2764  1.1944
  652MOL0     H87991   0.780   8.872   7.383  2.3912 -0.4186  0.3869
  652MOL0     H87992   0.632   8.643   7.256 -1.5662  0.9952 -2.0196
  652MOL0     H87993   0.652   8.658   7.435  0.0264 -2.3837 -2.4199
  652MOL0     H87994   0.526   8.868   7.252  0.9775  1.1831  0.6339
  652MOL0     H87995   0.516   8.876   7.432  0.1972 -0.4150  0.1232
  652MOL0     H87996   0.398   8.653   7.267 -0.0944 -0.0705  0.1131
  652MOL0     H87997   0.373   8.677   7.433  1.5473 -0.5170 -0.4214
  652MOL0     H87998   0.281   8.897   7.234 -3.8573 -0.2388 -0.3298
  652MOL0     H87999   0.230   8.871   7.398  0.9151  1.3632 -0.6958
  652MOL0     H88000   0.133   8.659   7.346 -1.3289 -0.6711 -0.2524
  652MOL0     H88001   0.176   8.666   7.181 -2.8979 -3.5768  2.1957
  652MOL0     H88002   1.314   8.529   7.442  0.7270  1.0310  0.6279
  652MOL0     H88003   1.436   8.431   7.634 -1.3368 -2.3782  2.4469
  652MOL0     H88004   1.455   8.746   7.857  2.6122  1.3701  0.6559
  652MOL0     H88005   1.345   8.966   7.880  1.9411  0.1743  0.6731
  652MOL0     H88006   1.911   8.822   7.515  1.7113  1.3409  1.0526
  652MOL0     H88007   2.018   8.620   7.523  0.5964  0.3406 -0.1697
  652MOL0     H88008   2.574   8.513   7.524  2.1733 -0.8122 -2.7244
  652MOL0     H88009   2.698   8.313   7.571 -0.3015  0.1339  0.8355
  652MOL0     H88010   2.511   7.918   7.526  0.0080  0.2654  2.8673
  652MOL0     H88011   2.642   7.928   7.405  1.3696 -0.4287  1.0206
  652MOL0     H88012   2.670   7.924   7.697  0.8734  1.8746 -0.2760
  652MOL0     H88013   2.807   7.891   7.585  0.7064 -2.7666 -0.8073
  652MOL0     H88014   2.704   7.661   7.549 -1.8365 -3.2747  1.7997
  652MOL0     H88015   2.571   7.699   7.659 -0.0985  1.0477  1.6914
  652MOL0     H88016   2.718   7.741   7.847 -1.7643 -1.5115 -1.3575
  652MOL0     H88017   2.863   7.714   7.754  1.0570 -2.4888  0.8035
  652MOL0     H88018   2.729   7.314   7.861 -3.9032 -0.3124 -1.4109
  652MOL0     H88019   2.376   8.058   7.423  0.3694  0.0029 -1.1088
  652MOL0     H88020   2.245   8.248   7.383  0.3177 -1.2685 -0.9118
  653MOL0     O88021   3.356   3.786   1.152 -0.4899  0.4647  0.3916
  653MOL0     C88022   3.447   3.812   1.229 -0.6703 -0.3965 -0.7746
  653MOL0     O88023   3.564   3.748   1.244  0.5219 -0.2867 -0.0215
  653MOL0     C88024   3.579   3.627   1.190 -0.3008 -1.0460  0.4710
  653MOL0     C88025   3.590   3.600   1.049 -0.7260 -0.5459  0.1186
  653MOL0     C88026   3.620   3.468   0.996  0.0935  0.4829 -0.8705
  653MOL0     C88027   3.643   3.366   1.097  1.2191 -0.2495  0.2715
  653MOL0     O88028   3.661   3.232   1.062 -0.4802 -0.5662  0.5741
  653MOL0     C88029   3.570   3.177   0.970  0.4713 -0.1369 -0.0038
  653MOL0     C88030   3.592   3.022   0.984 -0.2619 -0.1021  0.2638
  653MOL0     C88031   3.598   2.974   1.124 -1.0836  0.6516  0.6287
  653MOL0     C88032   3.612   2.818   1.135  0.6284 -0.6412 -0.5071
  653MOL0     C88033   3.735   2.762   1.072 -0.2705  0.5612  0.6816
  653MOL0     C88034   3.744   2.612   1.094 -0.9102 -0.4214  0.8382
  653MOL0     C88035   3.890   2.552   1.079 -0.7629 -1.1299  0.5468
  653MOL0     C88036   3.902   2.397   1.059 -0.1114  0.2003  0.0409
  653MOL0     N88037   3.835   2.362   0.927  0.1877 -0.5027 -0.4900
  653MOL0     C88038   3.708   2.307   0.917 -0.3897 -0.0533  0.2193
  653MOL0     C88039   3.705   2.264   0.790  0.8356 -0.7331  0.1482
  653MOL0     C88040   3.584   2.188   0.747 -0.6712  0.2120  0.3248
  653MOL0     C88041   3.591   2.135   0.605  0.1750  0.7591  0.1426
  653MOL0     C88042   3.448   2.114   0.541 -0.7667  0.3311  0.3674
  653MOL0     C88043   3.451   2.085   0.391  0.3893 -0.1155  0.2623
  653MOL0     O88044   3.323   2.104   0.336 -0.2126  0.2635  0.0237
  653MOL0     C88045   3.313   2.134   0.196  0.0118 -0.0827  0.4577
  653MOL0     C88046   3.407   2.145   0.096 -0.8761 -0.3114 -0.3109
  653MOL0     C88047   3.371   2.186  -0.032  0.5170  0.3506  0.3364
  653MOL0     C88048   3.481   2.201  -0.121  0.0477  1.0184 -0.9500
  653MOL0     C88049   3.236   2.224  -0.063  0.2112  0.6915  0.9502
  653MOL0     C88050   3.188   2.280  -0.189 -0.0590  0.0612  0.0191
  653MOL0     O88051   3.138   2.400  -0.174  1.3327  0.3266 -0.2692
  653MOL0     C88052   3.099   2.487  -0.274  0.3517  0.1428  0.8356
  653MOL0     C88053   3.061   2.448  -0.407 -0.2129  0.5327 -0.4792
  653MOL0     C88054   3.015   2.545  -0.492  0.0746 -0.6635 -0.0727
  653MOL0     C88055   2.972   2.670  -0.441  0.4130  0.1391  1.0267
  653MOL0     O88056   2.899   2.759  -0.518 -0.0300  0.3448  0.2942
  653MOL0     C88057   2.897   2.751  -0.660  0.5031  0.2989  0.1957
  653MOL0     C88058   2.822   2.880  -0.710  0.8498 -0.4327  0.0801
  653MOL0     C88059   2.788   2.879  -0.863 -0.1666  0.4094  0.0231
  653MOL0     C88060   2.765   3.006  -0.930 -0.0826 -0.4355 -1.0249
  653MOL0     C88061   2.724   3.007  -1.079  0.9572 -0.6583  0.6593
  653MOL0     C88062   2.596   2.928  -1.092 -0.6502 -0.3532  0.6291
  653MOL0     C88063   2.551   2.920  -1.244  0.1329 -0.6609  0.0003
  653MOL0     C88064   2.442   2.809  -1.260  0.1284 -0.5310 -0.8574
  653MOL0    Cl88065   2.441   2.779  -1.436  0.2720  0.2802 -0.3970
  653MOL0     C88066   3.022   2.708  -0.313  0.1138 -0.1554  0.2184
  653MOL0     C88067   3.089   2.620  -0.232  0.4938  1.2083  0.1203
  653MOL0     O88068   3.226   2.229  -0.297 -0.4493 -0.5820 -0.7515
  653MOL0     C88069   3.146   2.225   0.045  0.3882 -0.2531  0.1822
  653MOL0     C88070   3.181   2.170   0.169 -0.1780  1.0920  0.9369
  653MOL0     N88071   3.818   2.297   0.722 -0.1080  0.2386  0.2591
  653MOL0     N88072   3.880   2.367   0.800 -0.1958 -0.2602 -0.3997
  653MOL0     C88073   3.627   3.387   1.237 -0.9512 -0.8718  0.0448
  653MOL0     C88074   3.600   3.520   1.278 -0.2309 -0.1241  0.0630
  653MOL0     C88075   3.439   3.947   1.299 -0.4431 -0.9500  0.5278
  653MOL0     C88076   3.558   4.010   1.361  0.4204 -0.6885 -1.1975
  653MOL0     C88077   3.537   4.137   1.421 -0.4100  0.0977  0.1720
  653MOL0     C88078   3.410   4.190   1.433 -0.4400 -0.2656 -1.5298
  653MOL0     O88079   3.400   4.302   1.512 -0.1701  0.4766  0.0880
  653MOL0     C88080   3.271   4.345   1.564 -1.0490 -0.2835 -0.0225
  653MOL0     C88081   3.304   4.427   1.683  0.5295 -0.5697 -0.0759
  653MOL0     C88082   3.336   4.586   1.649 -0.6473  1.3630 -0.4124
  653MOL0     C88083   3.213   4.669   1.652  0.5231 -0.0075  0.1677
  653MOL0     C88084   3.244   4.799   1.595  0.5299 -0.0143  1.1053
  653MOL0     C88085   3.269   4.911   1.548 -0.2448 -0.5188 -0.0652
  653MOL0     C88086   3.296   4.133   1.381  1.1131 -0.0467 -0.1789
  653MOL0     C88087   3.313   4.011   1.319  0.6497 -0.2769  1.6390
  653MOL0     H88088   3.556   3.676   0.980 -0.3285  0.3396  0.8927
  653MOL0     H88089   3.620   3.444   0.891 -1.0952  0.9190 -0.9817
  653MOL0     H88090   3.464   3.186   0.996  0.1800  2.2336 -1.6628
  653MOL0     H88091   3.579   3.210   0.866  1.5030  3.2027  1.0057
  653MOL0     H88092   3.512   2.971   0.929  0.7869 -2.1005  0.5128
  653MOL0     H88093   3.680   2.981   0.933 -0.7137 -3.4845  1.9530
  653MOL0     H88094   3.670   3.025   1.190  1.4071  1.2196 -2.2766
  653MOL0     H88095   3.502   3.004   1.166 -2.3974 -1.7225 -0.4453
  653MOL0     H88096   3.621   2.801   1.242  1.4213 -3.9544 -1.0020
  653MOL0     H88097   3.516   2.775   1.103 -1.1706  0.6053  2.6929
  653MOL0     H88098   3.745   2.776   0.964 -0.7496  2.5589  0.8573
  653MOL0     H88099   3.819   2.816   1.118 -0.6058  1.7796 -0.0930
  653MOL0     H88100   3.704   2.579   1.191  1.4432  0.4691  2.1957
  653MOL0     H88101   3.673   2.576   1.019 -1.4489  1.8464  0.1854
  653MOL0     H88102   3.945   2.606   1.002 -5.0710  3.1017 -0.0038
  653MOL0     H88103   3.947   2.571   1.171  0.7390 -0.2175 -0.5441
  653MOL0     H88104   3.855   2.343   1.142 -0.0845  2.1969  1.4107
  653MOL0     H88105   4.007   2.366   1.050 -0.5981 -1.3761 -0.6388
  653MOL0     H88106   3.634   2.296   0.997  1.6639  2.3506  2.6710
  653MOL0     H88107   3.558   2.114   0.822 -0.0647  0.7559  1.0838
  653MOL0     H88108   3.506   2.265   0.749  0.5093  1.4418  2.2776
  653MOL0     H88109   3.641   2.040   0.584  0.5009  1.0032 -0.1921
  653MOL0     H88110   3.627   2.209   0.533 -1.9216  2.4908  0.7586
  653MOL0     H88111   3.389   2.206   0.554 -0.0369  0.7475  0.7782
  653MOL0     H88112   3.407   2.027   0.593 -0.6056  0.0552  0.0324
  653MOL0     H88113   3.492   1.986   0.370 -2.1115 -1.0546 -0.6300
  653MOL0     H88114   3.530   2.149   0.352  1.6803 -0.6824  1.8254
  653MOL0     H88115   3.510   2.113   0.110  0.0783  2.3333 -0.7116
  653MOL0     H88116   3.498   2.103  -0.167 -1.1453  1.6454 -2.8436
  653MOL0     H88117   3.462   2.268  -0.206 -1.1523  0.3423 -1.2352
  653MOL0     H88118   3.567   2.247  -0.072 -2.1465  3.0501  1.2687
  653MOL0     H88119   3.067   2.343  -0.434  0.3927  0.4527 -0.0698
  653MOL0     H88120   2.980   2.514  -0.590  1.6784 -0.4232 -0.7515
  653MOL0     H88121   2.986   2.742  -0.722 -0.1467  0.7673 -0.8249
  653MOL0     H88122   2.849   2.655  -0.683  1.0898 -0.2490  1.1571
  653MOL0     H88123   2.733   2.885  -0.646  1.3610 -2.5845  1.0491
  653MOL0     H88124   2.875   2.973  -0.687  0.3390  0.5726 -2.4030
  653MOL0     H88125   2.694   2.825  -0.878 -1.0482  2.4692 -2.9044
  653MOL0     H88126   2.865   2.836  -0.929 -0.3211  2.2478 -1.4755
  653MOL0     H88127   2.689   3.060  -0.872 -1.8887 -1.7863 -2.0005
  653MOL0     H88128   2.859   3.061  -0.919 -0.3842  0.1564 -1.3133
  653MOL0     H88129   2.796   2.954  -1.143 -1.1147 -1.1041 -1.4753
  653MOL0     H88130   2.707   3.110  -1.112  3.1686  0.5822  3.0505
  653MOL0     H88131   2.624   2.825  -1.066 -1.1594 -0.3349  1.2945
  653MOL0     H88132   2.511   2.964  -1.033  0.2714  1.6584  0.8026
  653MOL0     H88133   2.632   2.889  -1.310  0.7675  1.9505 -0.5811
  653MOL0     H88134   2.524   3.021  -1.276  2.8957  0.1099 -0.1768
  653MOL0     H88135   2.348   2.846  -1.218  0.5643 -0.4633  0.0858
  653MOL0     H88136   2.450   2.719  -1.198 -3.2012 -0.6078 -0.3466
  653MOL0     H88137   3.017   2.812  -0.281 -2.6347  0.1339 -0.8116
  653MOL0     H88138   3.136   2.655  -0.141  0.5439  2.3932 -0.3445
  653MOL0     H88139   3.046   2.260   0.025  0.6466 -0.3687 -1.4672
  653MOL0     H88140   3.103   2.160   0.243 -2.8765  0.5536 -1.7551
  653MOL0     H88141   3.637   3.299   1.300  1.3858 -1.9888 -1.7332
  653MOL0     H88142   3.587   3.531   1.386  2.8386 -1.5569  0.6788
  653MOL0     H88143   3.658   3.967   1.358 -0.3396 -3.0290  1.8416
  653MOL0     H88144   3.624   4.181   1.468  1.5932 -1.9286 -1.4048
  653MOL0     H88145   3.241   4.414   1.484  2.1830  1.8153  0.3749
  653MOL0     H88146   3.203   4.263   1.586 -1.2997  0.2132  1.1334
  653MOL0     H88147   3.396   4.387   1.727  0.8122  1.4701  1.3416
  653MOL0     H88148   3.233   4.420   1.765  3.2318 -1.7140  2.3747
  653MOL0     H88149   3.370   4.584   1.545 -1.2446  0.3200 -0.6081
  653MOL0     H88150   3.417   4.625   1.712  1.4422 -1.0950 -1.3719
  653MOL0     H88151   3.191   4.675   1.759  0.9788  2.2433  0.1894
  653MOL0     H88152   3.146   4.605   1.593  2.0388  0.1578 -1.8755
  653MOL0     H88153   3.281   5.008   1.504 -0.3561 -1.1373 -1.5242
  653MOL0     H88154   3.203   4.189   1.377 -1.1308 -3.2916  1.4711
  653MOL0     H88155   3.228   3.967   1.269  1.8472  2.0780 -3.0522
  654MOL0     O88156   9.834   9.618   2.009  0.1634  0.0561  0.0660
  654MOL0     C88157   9.805   9.680   1.908 -0.1000 -1.0831  0.8133
  654MOL0     O88158   9.856   9.658   1.785 -0.4590 -0.2772  0.0670
  654MOL0     C88159   9.950   9.557   1.771  0.0921 -0.7682  0.4201
  654MOL0     C88160   9.908   9.423   1.767 -0.0298 -0.2015  0.1338
  654MOL0     C88161  10.009   9.333   1.729  0.5744 -0.2917 -0.1104
  654MOL0     C88162  10.139   9.380   1.693 -0.1627 -0.3674  0.1411
  654MOL0     O88163  10.233   9.282   1.660 -0.4429  0.2944  0.1595
  654MOL0     C88164  10.326   9.317   1.556 -0.2211 -0.0733 -0.1448
  654MOL0     C88165  10.390   9.171   1.536 -0.1297 -0.5644 -0.3064
  654MOL0     C88166  10.480   9.190   1.412 -0.8268  0.3608 -0.5772
  654MOL0     C88167  10.567   9.069   1.377 -0.0534  0.1186  0.0528
  654MOL0     C88168  10.701   9.070   1.464 -0.7697  0.9413  0.0678
  654MOL0     C88169  10.787   8.948   1.431  0.4041  0.0310  0.6519
  654MOL0     C88170  10.742   8.816   1.500 -0.6599  0.3383  0.1659
  654MOL0     C88171  10.805   8.777   1.631  0.2992  0.2320  0.0569
  654MOL0     N88172  10.750   8.647   1.683 -0.1090 -0.3101 -0.0104
  654MOL0     C88173  10.628   8.627   1.733 -0.1250 -0.0068 -0.7770
  654MOL0     C88174  10.613   8.493   1.754 -0.5325 -0.0854  0.5281
  654MOL0     C88175  10.505   8.414   1.805  0.1356  0.1219 -0.3563
  654MOL0     C88176  10.373   8.435   1.723  0.2841 -0.3803  0.1711
  654MOL0     C88177  10.262   8.344   1.772 -0.7180 -0.4489 -0.2600
  654MOL0     C88178  10.142   8.378   1.702 -0.4033 -0.6513 -0.2514
  654MOL0     O88179  10.023   8.339   1.769  0.0510 -0.1422 -0.0168
  654MOL0     C88180   9.903   8.384   1.716  0.1106 -0.0542  0.4923
  654MOL0     C88181   9.793   8.349   1.793  1.1218  0.3342  0.3864
  654MOL0     C88182   9.658   8.385   1.753  0.6342 -0.4174  0.6839
  654MOL0     C88183   9.547   8.328   1.841  0.6785 -0.5209 -1.3849
  654MOL0     C88184   9.632   8.459   1.637  0.4898 -0.0309  0.5893
  654MOL0     C88185   9.499   8.497   1.589  1.0690  0.6734 -0.0197
  654MOL0     O88186   9.409   8.391   1.585  0.0338 -0.1199  0.7002
  654MOL0     C88187   9.295   8.401   1.507  0.5613  0.7177  0.8406
  654MOL0     C88188   9.285   8.472   1.384 -0.3734  0.4487  0.3347
  654MOL0     C88189   9.165   8.493   1.317  0.5926  0.1021  0.8190
  654MOL0     C88190   9.052   8.423   1.362  0.2616  0.0289  0.2822
  654MOL0     O88191   8.931   8.415   1.289 -1.0062 -0.0296  0.3157
  654MOL0     C88192   8.823   8.339   1.348 -0.6683 -0.6029  0.7447
  654MOL0     C88193   8.701   8.351   1.260 -0.6135 -1.0439  0.0629
  654MOL0     C88194   8.698   8.247   1.147  0.6740 -0.0602 -0.2968
  654MOL0     C88195   8.555   8.240   1.091  0.2040 -0.2560  0.1649
  654MOL0     C88196   8.574   8.171   0.954  0.3810 -0.1499  0.2956
  654MOL0     C88197   8.450   8.091   0.891 -0.6760 -0.5325 -0.8062
  654MOL0     C88198   8.331   8.174   0.853 -0.1408  0.5280 -0.0886
  654MOL0     C88199   8.244   8.105   0.743  0.0629  0.1986 -0.0245
  654MOL0    Cl88200   8.187   7.945   0.818  0.0539 -0.4813  0.1159
  654MOL0     C88201   9.059   8.348   1.483 -0.0502 -0.7759 -0.0918
  654MOL0     C88202   9.181   8.343   1.553  0.9556 -0.3275  0.2056
  654MOL0     O88203   9.474   8.614   1.555  0.2151  0.7822  0.2125
  654MOL0     C88204   9.749   8.501   1.567  0.3574 -0.0306 -0.2724
  654MOL0     C88205   9.881   8.459   1.606  0.2401  0.2942 -0.7366
  654MOL0     N88206  10.725   8.434   1.707 -1.4401 -0.1354  0.4459
  654MOL0     N88207  10.808   8.526   1.670 -1.0395 -0.7848  0.5811
  654MOL0     C88208  10.177   9.511   1.717  0.0234  0.6143  0.0686
  654MOL0     C88209  10.077   9.600   1.753  0.0472  0.6217 -0.1706
  654MOL0     C88210   9.705   9.783   1.928 -0.3272 -0.2266  1.2220
  654MOL0     C88211   9.596   9.758   2.023 -0.7292  0.2804  0.4963
  654MOL0     C88212   9.496   9.853   2.033 -0.2669 -0.2365 -1.3043
  654MOL0     C88213   9.495   9.970   1.960 -0.5562 -0.8516  0.0275
  654MOL0     O88214   9.400  10.065   1.974  0.1513 -0.1681 -0.5616
  654MOL0     C88215   9.278  10.044   2.042  0.5794 -1.0214  0.3282
  654MOL0     C88216   9.185  10.163   2.014 -0.4320 -0.0803  0.3874
  654MOL0     C88217   9.153  10.171   1.858 -0.5226  0.0354 -0.6308
  654MOL0     C88218   9.014  10.235   1.837 -0.0716  0.4229 -0.1008
  654MOL0     C88219   8.903  10.142   1.824  0.2713  0.8865 -0.8555
  654MOL0     C88220   8.840  10.043   1.828 -1.1383  0.2145 -0.2590
  654MOL0     C88221   9.606   9.998   1.877  0.2901  0.5667  0.7619
  654MOL0     C88222   9.705   9.902   1.842 -1.3758  0.5024 -0.6234
  654MOL0     H88223   9.804   9.401   1.788 -0.0463  0.6332  0.9980
  654MOL0     H88224   9.980   9.229   1.718 -2.8354  0.4927  0.2466
  654MOL0     H88225  10.273   9.343   1.464 -3.7752  0.8502  1.9746
  654MOL0     H88226  10.398   9.389   1.594 -1.2477 -0.6440  3.1838
  654MOL0     H88227  10.445   9.143   1.626  0.2084  1.0582  0.0319
  654MOL0     H88228  10.318   9.093   1.512  0.0257 -0.8097  0.0260
  654MOL0     H88229  10.423   9.214   1.321 -1.3659  2.9301  0.3588
  654MOL0     H88230  10.544   9.279   1.413  2.7258 -1.9698  1.1164
  654MOL0     H88231  10.517   8.975   1.405  2.3280 -0.9050  1.1894
  654MOL0     H88232  10.595   9.065   1.272  0.9266  0.3558  0.2956
  654MOL0     H88233  10.748   9.167   1.448 -0.9426  0.7218 -1.9692
  654MOL0     H88234  10.665   9.066   1.568 -1.8976 -0.2626 -0.3425
  654MOL0     H88235  10.792   8.938   1.322 -4.5089 -3.7186  0.4194
  654MOL0     H88236  10.886   8.974   1.468  0.4388 -1.3853  1.5924
  654MOL0     H88237  10.634   8.810   1.515 -0.7293  1.2093  0.1030
  654MOL0     H88238  10.772   8.734   1.434  0.8559 -1.1125  2.5201
  654MOL0     H88239  10.790   8.855   1.707  1.4771 -1.2942  1.9471
  654MOL0     H88240  10.911   8.755   1.620  0.0977  0.2799 -2.6246
  654MOL0     H88241  10.558   8.708   1.751  1.3288  1.5955 -2.0154
  654MOL0     H88242  10.525   8.309   1.825 -2.4263 -0.3354  0.2421
  654MOL0     H88243  10.489   8.458   1.904  0.0159 -1.7937  0.5230
  654MOL0     H88244  10.405   8.426   1.619  0.5129  3.1318 -0.1883
  654MOL0     H88245  10.344   8.540   1.736 -0.3746 -0.6854  1.3498
  654MOL0     H88246  10.244   8.364   1.878 -0.8984  1.8070 -0.6761
  654MOL0     H88247  10.283   8.237   1.761 -0.5859 -0.5787  1.1547
  654MOL0     H88248  10.150   8.325   1.606 -0.4337 -1.0270 -0.0475
  654MOL0     H88249  10.140   8.484   1.678  1.1947 -0.8271 -1.3778
  654MOL0     H88250   9.796   8.278   1.874 -3.7416 -3.2364 -2.0376
  654MOL0     H88251   9.579   8.259   1.919 -1.5342 -0.9742 -0.7900
  654MOL0     H88252   9.490   8.404   1.895 -1.2113 -2.0077 -1.1644
  654MOL0     H88253   9.478   8.267   1.781 -0.7065 -1.2803  0.8588
  654MOL0     H88254   9.373   8.525   1.350  0.1244 -0.1670  0.6331
  654MOL0     H88255   9.147   8.557   1.231 -2.7673 -3.1563 -1.1858
  654MOL0     H88256   8.847   8.233   1.341 -0.7218 -0.5484 -4.7526
  654MOL0     H88257   8.795   8.367   1.450  0.0107  3.2491  0.0181
  654MOL0     H88258   8.607   8.342   1.316 -0.3327 -4.7501  0.1495
  654MOL0     H88259   8.703   8.450   1.214  1.9889 -0.4773  1.2255
  654MOL0     H88260   8.730   8.146   1.177 -0.3605 -0.2914  0.0890
  654MOL0     H88261   8.763   8.289   1.071  3.0843 -0.6996  1.3113
  654MOL0     H88262   8.486   8.182   1.153 -1.5194  3.2382  1.7413
  654MOL0     H88263   8.502   8.334   1.078  1.2658  0.2701 -0.4973
  654MOL0     H88264   8.646   8.089   0.959  0.2665 -0.4418 -1.9878
  654MOL0     H88265   8.611   8.241   0.879  0.0137 -1.2247 -0.9325
  654MOL0     H88266   8.479   8.040   0.799 -0.5447  0.3841 -1.2923
  654MOL0     H88267   8.415   8.014   0.959 -0.2501 -0.0912 -0.0662
  654MOL0     H88268   8.364   8.273   0.820 -1.1508  0.7728 -0.3861
  654MOL0     H88269   8.263   8.187   0.937  0.8075 -2.5700  1.3307
  654MOL0     H88270   8.303   8.068   0.658  1.5719 -1.0406  1.4855
  654MOL0     H88271   8.163   8.168   0.705  0.4358 -1.9861 -5.3780
  654MOL0     H88272   8.973   8.296   1.527 -0.9393  1.5863  1.1249
  654MOL0     H88273   9.203   8.274   1.634  0.6197 -1.5546 -0.7304
  654MOL0     H88274   9.733   8.563   1.479 -2.4272 -0.4409 -0.1484
  654MOL0     H88275   9.964   8.485   1.542  0.5721  0.8937 -0.0699
  654MOL0     H88276  10.282   9.529   1.692 -0.5959  0.9796 -2.6033
  654MOL0     H88277  10.100   9.706   1.766 -0.1147  0.5700  0.5602
  654MOL0     H88278   9.612   9.674   2.090  1.5988 -2.2301 -2.8177
  654MOL0     H88279   9.438   9.820   2.119  1.4287  1.2151  0.4883
  654MOL0     H88280   9.231   9.948   2.020 -2.3402  0.0556  1.3734
  654MOL0     H88281   9.310  10.037   2.147  1.7997  1.1295  0.1565
  654MOL0     H88282   9.231  10.257   2.048 -1.0927  0.6257 -0.6025
  654MOL0     H88283   9.091  10.150   2.068 -0.1979  0.4279  0.9265
  654MOL0     H88284   9.146  10.070   1.816 -0.1043  0.2054 -1.1216
  654MOL0     H88285   9.228  10.223   1.798  2.8662 -2.7600  0.7854
  654MOL0     H88286   9.019  10.285   1.740  0.6224 -0.5583 -0.5824
  654MOL0     H88287   8.993  10.296   1.926  0.4344  1.4971 -0.6975
  654MOL0     H88288   8.792   9.951   1.801  0.0620 -0.3330 -0.5962
  654MOL0     H88289   9.608  10.093   1.824 -3.2405  0.5783  0.4311
  654MOL0     H88290   9.784   9.930   1.772  0.4689 -3.0796 -0.2444
  655MOL0     O88291   8.474   9.050   1.367 -0.6828  0.7579 -0.0730
  655MOL0     C88292   8.443   9.070   1.483  0.0627  0.4756 -0.0533
  655MOL0     O88293   8.318   9.074   1.530 -0.1988  0.0512 -0.1618
  655MOL0     C88294   8.216   9.049   1.433  0.2455  0.1196 -0.6371
  655MOL0     C88295   8.186   8.918   1.385  0.0377  0.1042  0.5837
  655MOL0     C88296   8.086   8.893   1.287 -0.5545 -0.6138  0.0952
  655MOL0     C88297   8.009   9.003   1.254  0.3153  0.2183  0.2200
  655MOL0     O88298   7.904   8.985   1.165  0.5340 -0.2046 -0.4654
  655MOL0     C88299   7.919   8.898   1.049  0.1796  0.2110  1.1013
  655MOL0     C88300   7.854   8.964   0.919 -0.3503  0.0726 -0.4362
  655MOL0     C88301   7.958   9.059   0.850 -0.7555  0.1118 -0.7512
  655MOL0     C88302   7.932   9.199   0.880 -0.4401  0.5352  0.1640
  655MOL0     C88303   8.060   9.291   0.867 -0.6504 -0.0383  0.1423
  655MOL0     C88304   8.104   9.338   0.722 -0.7967  0.1644 -0.2285
  655MOL0     C88305   7.998   9.334   0.616  0.7525 -0.7031  1.1871
  655MOL0     C88306   8.058   9.393   0.485 -0.1551  0.5385 -0.2611
  655MOL0     N88307   7.956   9.429   0.384 -0.0783  0.3156 -0.5210
  655MOL0     C88308   7.869   9.540   0.408  0.9854 -0.6137  0.7901
  655MOL0     C88309   7.776   9.529   0.323 -0.1970  0.4419  0.2025
  655MOL0     C88310   7.639   9.585   0.342  0.0704 -0.3939 -0.1713
  655MOL0     C88311   7.558   9.479   0.405  0.3325  1.0161 -0.2291
  655MOL0     C88312   7.407   9.518   0.401 -0.4379  0.6699  0.3215
  655MOL0     C88313   7.371   9.641   0.483 -0.6615 -0.1107 -0.3001
  655MOL0     O88314   7.402   9.608   0.623  0.6058 -0.1026  0.6310
  655MOL0     C88315   7.301   9.571   0.709 -0.6104  0.2839 -0.7822
  655MOL0     C88316   7.354   9.544   0.832  0.5414 -0.7177 -0.0905
  655MOL0     C88317   7.260   9.527   0.944 -0.4185  0.4868  0.5844
  655MOL0     C88318   7.331   9.517   1.077 -0.4932 -0.8562  0.1626
  655MOL0     C88319   7.117   9.507   0.921  0.0251 -0.4454  0.9462
  655MOL0     C88320   7.019   9.473   1.024 -1.0195 -0.5474  0.9704
  655MOL0     O88321   6.895   9.513   1.016 -0.1518  0.5289  0.7766
  655MOL0     C88322   6.804   9.495   1.123 -0.5149 -0.1557 -0.4996
  655MOL0     C88323   6.818   9.432   1.251 -0.8743 -0.0532  0.2683
  655MOL0     C88324   6.706   9.425   1.330 -1.0206  0.0284  0.0817
  655MOL0     C88325   6.581   9.494   1.302 -0.2286 -0.2714 -0.3925
  655MOL0     O88326   6.461   9.469   1.361  0.3603 -0.2761 -0.7017
  655MOL0     C88327   6.443   9.344   1.417 -0.7266 -0.0029 -0.9191
  655MOL0     C88328   6.298   9.313   1.444 -0.0759 -0.1867  0.5938
  655MOL0     C88329   6.278   9.198   1.534  0.5037  0.3441 -0.3909
  655MOL0     C88330   6.131   9.207   1.596  0.0092 -0.5379  0.0667
  655MOL0     C88331   6.106   9.127   1.721  0.4281 -0.2870 -0.4491
  655MOL0     C88332   5.962   9.108   1.751 -0.2103 -0.0420  0.3463
  655MOL0     C88333   5.935   8.984   1.831  0.2386 -0.4609 -0.4385
  655MOL0     C88334   5.788   8.934   1.835  0.0609  0.0182 -0.4568
  655MOL0    Cl88335   5.680   9.046   1.915 -0.0284  0.6593  0.2283
  655MOL0     C88336   6.580   9.580   1.205  0.3011 -0.0925  0.0755
  655MOL0     C88337   6.685   9.570   1.106  0.3612  0.1414 -0.6479
  655MOL0     O88338   7.062   9.389   1.110  0.1934  0.1633  0.3972
  655MOL0     C88339   7.079   9.525   0.793 -0.6931  0.4458 -0.0523
  655MOL0     C88340   7.170   9.562   0.686 -0.0404 -0.1040 -0.2567
  655MOL0     N88341   7.811   9.427   0.234  0.5473  0.7641  0.7274
  655MOL0     N88342   7.918   9.358   0.272  0.7578 -0.1428 -0.7133
  655MOL0     C88343   8.008   9.119   1.335  0.5804 -0.6013 -0.8405
  655MOL0     C88344   8.115   9.150   1.415  0.8484  0.5608  0.0928
  655MOL0     C88345   8.548   9.080   1.593  0.1990 -0.7890  0.7147
  655MOL0     C88346   8.680   9.122   1.560  0.4797  1.2078  0.1786
  655MOL0     C88347   8.778   9.127   1.655 -0.6954 -0.1843 -0.8954
  655MOL0     C88348   8.749   9.093   1.791  0.5054 -0.4139 -0.5990
  655MOL0     O88349   8.838   9.078   1.894 -0.0290 -0.1169 -0.2797
  655MOL0     C88350   8.896   9.201   1.936 -0.1037 -0.8984 -0.3594
  655MOL0     C88351   8.794   9.292   2.004  0.5353  0.0667 -0.7089
  655MOL0     C88352   8.845   9.437   2.026  1.1883 -0.8589  1.1645
  655MOL0     C88353   8.808   9.521   1.909 -0.4870  1.5067  0.6683
  655MOL0     C88354   8.905   9.636   1.884  0.0602 -1.1078 -0.0546
  655MOL0     C88355   8.988   9.723   1.855 -0.2258 -0.2265  0.1578
  655MOL0     C88356   8.621   9.057   1.823  0.1291  0.7706  0.1271
  655MOL0     C88357   8.518   9.052   1.724 -0.9458 -0.6529 -0.1696
  655MOL0     H88358   8.249   8.841   1.429 -0.4766 -1.3052 -1.0800
  655MOL0     H88359   8.062   8.793   1.252  2.6681 -2.7174  3.1879
  655MOL0     H88360   8.026   8.879   1.039  0.6025  3.2938 -1.9720
  655MOL0     H88361   7.868   8.804   1.071 -1.2868  0.0592 -2.3580
  655MOL0     H88362   7.830   8.887   0.845 -1.4737  0.3262 -0.3473
  655MOL0     H88363   7.754   9.005   0.934 -1.3799 -1.4267 -2.5864
  655MOL0     H88364   8.052   9.044   0.904 -0.9182 -0.5972 -0.6613
  655MOL0     H88365   7.970   9.046   0.743  0.5747  2.0964 -0.9099
  655MOL0     H88366   7.859   9.242   0.811 -1.0033  2.1376  1.6789
  655MOL0     H88367   7.909   9.198   0.987 -1.7930 -0.7299 -0.0974
  655MOL0     H88368   8.048   9.373   0.938 -1.2071  1.0777 -1.2206
  655MOL0     H88369   8.149   9.239   0.905 -2.0109 -2.3674  0.3491
  655MOL0     H88370   8.142   9.440   0.736  1.0225 -0.0994 -2.6915
  655MOL0     H88371   8.189   9.277   0.692  1.7921  1.9672  2.7495
  655MOL0     H88372   7.957   9.235   0.593  3.1549 -1.3453 -0.6270
  655MOL0     H88373   7.914   9.395   0.652  1.7816  0.1688  2.1677
  655MOL0     H88374   8.122   9.312   0.449  1.1552  1.4133  0.0160
  655MOL0     H88375   8.128   9.476   0.496 -0.7508  0.9683  0.3918
  655MOL0     H88376   7.863   9.603   0.497 -0.8659  1.8260 -0.9317
  655MOL0     H88377   7.651   9.669   0.412 -1.2628 -0.6318  0.3759
  655MOL0     H88378   7.597   9.613   0.245 -3.8433 -0.4043  1.3362
  655MOL0     H88379   7.594   9.468   0.507  1.9799  2.7573 -0.5606
  655MOL0     H88380   7.581   9.384   0.357  2.9478  1.2508  0.4448
  655MOL0     H88381   7.358   9.427   0.438 -0.1359  0.2985 -0.1747
  655MOL0     H88382   7.381   9.525   0.295 -0.8018 -1.5439  0.2200
  655MOL0     H88383   7.263   9.658   0.481 -0.8789 -1.0088  1.5943
  655MOL0     H88384   7.419   9.734   0.454 -2.9288  1.4713  0.7348
  655MOL0     H88385   7.461   9.543   0.852  0.2866 -0.0220  1.4659
  655MOL0     H88386   7.259   9.552   1.151  1.4906  3.1078  0.5129
  655MOL0     H88387   7.360   9.412   1.087 -0.2950 -1.2363 -3.0584
  655MOL0     H88388   7.412   9.589   1.092 -2.9721  2.1704  0.1080
  655MOL0     H88389   6.912   9.401   1.296 -1.3529 -2.6298 -0.3407
  655MOL0     H88390   6.696   9.372   1.424 -1.7713  1.6835  0.9819
  655MOL0     H88391   6.489   9.267   1.354  0.9147  0.1327  0.0732
  655MOL0     H88392   6.496   9.341   1.512  1.0615  0.0336 -1.8708
  655MOL0     H88393   6.240   9.401   1.474  2.0335  0.7677  2.2136
  655MOL0     H88394   6.259   9.291   1.345 -2.9463  1.9658  1.1178
  655MOL0     H88395   6.339   9.209   1.624 -1.3368 -1.0283  1.0972
  655MOL0     H88396   6.295   9.100   1.488 -2.7629 -0.4340 -0.1543
  655MOL0     H88397   6.107   9.310   1.623  1.9855 -0.1084  0.3140
  655MOL0     H88398   6.057   9.164   1.528 -0.7818 -2.4678  2.0271
  655MOL0     H88399   6.153   9.180   1.804 -0.3577  1.7931 -1.2415
  655MOL0     H88400   6.146   9.027   1.702 -0.0704 -0.4952 -0.4134
  655MOL0     H88401   5.932   9.199   1.805  1.2964  0.3744  0.5335
  655MOL0     H88402   5.899   9.111   1.661  0.2505 -0.6830 -0.0024
  655MOL0     H88403   5.982   8.994   1.929  0.0193  0.4751 -0.4233
  655MOL0     H88404   5.987   8.911   1.768  1.1495 -0.2660  0.0773
  655MOL0     H88405   5.778   8.833   1.875 -0.8702 -0.0940 -0.9583
  655MOL0     H88406   5.755   8.943   1.732  2.5386  0.4402 -1.2733
  655MOL0     H88407   6.493   9.642   1.184  1.1138  0.3561 -2.3847
  655MOL0     H88408   6.686   9.632   1.017  0.3194  0.0580 -0.7050
  655MOL0     H88409   6.973   9.512   0.772 -0.9552  1.4219  0.6071
  655MOL0     H88410   7.124   9.569   0.588 -1.5329  0.4035  0.4513
  655MOL0     H88411   7.942   9.202   1.316 -0.4382 -0.5845  2.2147
  655MOL0     H88412   8.124   9.251   1.454 -0.5978  0.4660  0.7271
  655MOL0     H88413   8.695   9.145   1.455 -1.1815  1.7474  0.0333
  655MOL0     H88414   8.879   9.152   1.625  0.0010 -0.6124  0.9787
  655MOL0     H88415   8.971   9.189   2.015  1.3925  4.9830 -0.3774
  655MOL0     H88416   8.947   9.248   1.851  1.4517  1.4717  1.7383
  655MOL0     H88417   8.767   9.244   2.098  1.0936  0.2299 -0.4612
  655MOL0     H88418   8.702   9.296   1.944 -0.5517  0.5108  0.9186
  655MOL0     H88419   8.954   9.444   2.036  1.3524  3.0330 -1.1652
  655MOL0     H88420   8.795   9.464   2.119 -2.5078  2.9548 -1.5706
  655MOL0     H88421   8.712   9.571   1.926 -0.1700  3.0422 -1.5999
  655MOL0     H88422   8.805   9.448   1.827  0.7508 -0.2391  2.1041
  655MOL0     H88423   9.065   9.793   1.830  0.1539 -0.4775  0.5832
  655MOL0     H88424   8.596   9.018   1.920  2.8065 -2.3682 -0.2673
  655MOL0     H88425   8.420   9.024   1.762 -1.3338  0.1909 -0.5123
  656MOL0     O88426   5.367   2.542   5.147  0.0505 -0.1815 -0.4200
  656MOL0     C88427   5.422   2.434   5.172  0.6905  1.5071  0.4250
  656MOL0     O88428   5.365   2.328   5.247  1.0849 -0.4707  0.3153
  656MOL0     C88429   5.227   2.333   5.276 -0.4623 -0.0690 -0.0759
  656MOL0     C88430   5.131   2.383   5.186 -0.6003  0.2241 -0.3484
  656MOL0     C88431   4.997   2.396   5.226 -0.9494 -0.0415 -0.5889
  656MOL0     C88432   4.967   2.384   5.360  0.1069  0.3532 -0.4205
  656MOL0     O88433   4.842   2.420   5.399  0.8494 -0.5028  0.1877
  656MOL0     C88434   4.734   2.365   5.335  0.0187 -0.4536  0.8247
  656MOL0     C88435   4.611   2.421   5.399  0.5346 -0.2990 -0.2249
  656MOL0     C88436   4.487   2.377   5.316  0.7649 -0.1163  0.8230
  656MOL0     C88437   4.366   2.471   5.365  0.0563  0.3559 -0.3055
  656MOL0     C88438   4.226   2.401   5.347  0.0590  0.0286  0.3316
  656MOL0     C88439   4.214   2.338   5.205 -1.1279  0.5834 -0.5512
  656MOL0     C88440   4.077   2.351   5.143  0.7189  0.1268  0.6594
  656MOL0     C88441   4.066   2.289   5.003 -1.1715 -0.8003 -0.7107
  656MOL0     N88442   3.936   2.255   4.950 -0.0881  0.1648 -0.6303
  656MOL0     C88443   3.834   2.337   4.917 -0.0963 -0.6910 -0.1521
  656MOL0     C88444   3.739   2.254   4.867 -0.3801  0.2760  0.6955
  656MOL0     C88445   3.602   2.294   4.814 -0.1163 -0.1366 -0.5103
  656MOL0     C88446   3.617   2.398   4.700  0.6062 -0.4912  0.2897
  656MOL0     C88447   3.684   2.357   4.576 -0.7443  0.2821 -0.3866
  656MOL0     C88448   3.656   2.205   4.538  0.6935 -0.3531 -0.0983
  656MOL0     O88449   3.681   2.210   4.398  0.2017  0.0511  0.2223
  656MOL0     C88450   3.567   2.206   4.325 -0.1709  0.0102  0.1951
  656MOL0     C88451   3.437   2.259   4.347  0.1635 -0.1798  0.4054
  656MOL0     C88452   3.336   2.246   4.253  0.1907 -0.2758 -0.5824
  656MOL0     C88453   3.208   2.326   4.273 -0.2185 -0.0261  0.2396
  656MOL0     C88454   3.359   2.154   4.147 -0.8287  0.8712  0.6438
  656MOL0     C88455   3.265   2.126   4.040 -0.3623  0.2407 -0.4894
  656MOL0     O88456   3.298   2.065   3.919  0.7544 -0.3661  0.5630
  656MOL0     C88457   3.198   1.998   3.848  0.7553  0.4477 -0.3215
  656MOL0     C88458   3.118   1.904   3.903 -0.7812 -0.6200  0.1813
  656MOL0     C88459   3.039   1.823   3.826  0.1809  0.1361 -0.9892
  656MOL0     C88460   3.040   1.833   3.680  0.3787  0.5951  0.1381
  656MOL0     O88461   2.974   1.739   3.607  0.2905  0.8920 -0.3732
  656MOL0     C88462   2.939   1.779   3.473  0.3577 -1.4295  0.4588
  656MOL0     C88463   2.832   1.690   3.416 -0.8052  0.6678 -0.0360
  656MOL0     C88464   2.772   1.750   3.287 -0.4304 -0.6506  0.6139
  656MOL0     C88465   2.643   1.672   3.248  0.8947 -0.1257 -1.1557
  656MOL0     C88466   2.591   1.686   3.109 -0.2906 -0.1701  0.6252
  656MOL0     C88467   2.532   1.829   3.085 -0.2228 -0.4618 -0.3004
  656MOL0     C88468   2.538   1.859   2.937 -0.2009 -0.0431 -0.0201
  656MOL0     C88469   2.512   2.010   2.920 -0.6307 -0.4425 -0.2792
  656MOL0    Cl88470   2.539   2.063   2.745  0.3948 -0.2392 -0.2723
  656MOL0     C88471   3.115   1.933   3.622 -0.2206  0.4806  0.5167
  656MOL0     C88472   3.199   2.009   3.710  0.1101 -0.1146  0.9345
  656MOL0     O88473   3.153   2.159   4.067 -0.6609  0.3618 -0.0657
  656MOL0     C88474   3.485   2.088   4.137  0.6533 -0.6153 -0.3032
  656MOL0     C88475   3.582   2.113   4.227 -0.6969 -0.3605  0.2722
  656MOL0     N88476   3.780   2.124   4.868 -0.0636 -0.3176 -0.4656
  656MOL0     N88477   3.899   2.126   4.916 -0.5256 -0.2588  0.0687
  656MOL0     C88478   5.066   2.353   5.454 -0.8020  0.0354  0.3164
  656MOL0     C88479   5.196   2.313   5.409 -0.0164  0.6932 -1.5157
  656MOL0     C88480   5.564   2.418   5.132  0.0843 -0.2846  0.0178
  656MOL0     C88481   5.642   2.331   5.212  0.6750  0.5814  0.2281
  656MOL0     C88482   5.778   2.306   5.170 -0.4330 -1.0400 -0.5392
  656MOL0     C88483   5.833   2.393   5.069  0.0181 -0.4604 -0.0740
  656MOL0     O88484   5.966   2.372   5.053 -0.0504  0.3232 -0.0907
  656MOL0     C88485   6.041   2.423   4.937 -0.5832  0.2424  0.7788
  656MOL0     C88486   6.043   2.326   4.820 -0.5783  0.5720 -1.3993
  656MOL0     C88487   5.903   2.303   4.771  0.0624 -0.4933 -0.6465
  656MOL0     C88488   5.902   2.249   4.625 -0.4742  0.6608 -0.9972
  656MOL0     C88489   5.857   2.361   4.534 -0.8655  0.3831 -0.1918
  656MOL0     C88490   5.818   2.414   4.432  1.3846  0.5779  0.3024
  656MOL0     C88491   5.760   2.496   5.009  0.2527 -0.6770 -0.6065
  656MOL0     C88492   5.617   2.508   5.037 -1.0516  0.8711  0.5621
  656MOL0     H88493   5.158   2.398   5.082 -1.7181  0.0490 -0.6774
  656MOL0     H88494   4.930   2.438   5.152 -1.2295  2.0586  0.7940
  656MOL0     H88495   4.738   2.406   5.233  1.4408 -1.3273  0.5081
  656MOL0     H88496   4.730   2.256   5.337 -1.0550 -0.4431 -0.0262
  656MOL0     H88497   4.597   2.382   5.500  1.3033 -0.7587 -0.2837
  656MOL0     H88498   4.613   2.531   5.397 -0.1437 -0.2874 -0.1658
  656MOL0     H88499   4.510   2.387   5.210 -2.4087 -3.0423 -0.3047
  656MOL0     H88500   4.461   2.275   5.345  4.1185 -1.3306  0.0462
  656MOL0     H88501   4.379   2.499   5.470 -2.8631  0.4951  0.1219
  656MOL0     H88502   4.379   2.565   5.310 -0.9384  1.5293  1.3569
  656MOL0     H88503   4.207   2.326   5.424 -0.7346 -0.5803 -0.4321
  656MOL0     H88504   4.154   2.482   5.365 -0.7483 -0.6681  0.3005
  656MOL0     H88505   4.295   2.377   5.142 -0.4029  2.0299  1.1684
  656MOL0     H88506   4.240   2.233   5.217  2.1965  1.3473  0.0013
  656MOL0     H88507   4.009   2.292   5.206 -0.3311  0.8600  0.2396
  656MOL0     H88508   4.042   2.454   5.138 -1.5224 -0.6469 -1.2089
  656MOL0     H88509   4.124   2.196   5.000  1.6122  0.8430 -1.8515
  656MOL0     H88510   4.109   2.367   4.940 -1.0350 -2.4652 -2.7901
  656MOL0     H88511   3.834   2.446   4.912  2.9505 -0.3985  2.7394
  656MOL0     H88512   3.548   2.202   4.794  0.3530 -0.2820 -1.1241
  656MOL0     H88513   3.558   2.345   4.900  2.3398 -1.1603  1.4800
  656MOL0     H88514   3.656   2.495   4.734  3.5529 -1.1160 -1.0084
  656MOL0     H88515   3.515   2.405   4.661  0.8953 -0.5804 -0.5039
  656MOL0     H88516   3.792   2.357   4.593 -1.0334 -1.3227  2.0875
  656MOL0     H88517   3.657   2.434   4.503 -0.4545  0.5190 -0.2435
  656MOL0     H88518   3.551   2.180   4.553  1.0922 -2.2693 -0.1586
  656MOL0     H88519   3.724   2.135   4.588  2.0377  1.7438  1.1739
  656MOL0     H88520   3.424   2.323   4.433 -3.3917 -1.0288  0.6486
  656MOL0     H88521   3.182   2.368   4.176  1.9402 -3.8506 -2.2258
  656MOL0     H88522   3.129   2.257   4.304 -0.9101 -1.3614 -3.9324
  656MOL0     H88523   3.210   2.406   4.348 -0.5039  0.0797  0.1392
  656MOL0     H88524   3.118   1.902   4.012  0.0285  1.7758  0.2910
  656MOL0     H88525   2.967   1.755   3.872  1.8588  0.1262  1.8425
  656MOL0     H88526   2.907   1.884   3.478 -0.3561 -1.4880 -1.7229
  656MOL0     H88527   3.027   1.782   3.409 -0.1862  2.2274 -0.3161
  656MOL0     H88528   2.882   1.594   3.399 -2.9548 -0.0735 -3.0803
  656MOL0     H88529   2.761   1.667   3.496  0.2786 -3.4946 -0.0207
  656MOL0     H88530   2.850   1.752   3.211 -0.6216  2.3734  0.3783
  656MOL0     H88531   2.738   1.851   3.310 -1.3588 -0.7358 -0.2836
  656MOL0     H88532   2.669   1.566   3.254  1.5353  0.0572 -0.5088
  656MOL0     H88533   2.560   1.700   3.314 -0.0433 -0.4465 -2.1686
  656MOL0     H88534   2.503   1.622   3.097  0.4446 -0.6184 -3.6609
  656MOL0     H88535   2.677   1.663   3.046  0.6598 -0.4005  1.9638
  656MOL0     H88536   2.435   1.837   3.136  0.9480 -0.9584  2.1848
  656MOL0     H88537   2.599   1.897   3.138  3.6695 -3.1669 -1.3488
  656MOL0     H88538   2.457   1.806   2.887  0.5757 -1.3001  0.0141
  656MOL0     H88539   2.635   1.829   2.895 -0.9178  0.7747 -2.4633
  656MOL0     H88540   2.581   2.065   2.985 -2.1132 -1.2366  2.1003
  656MOL0     H88541   2.405   2.030   2.935 -0.5825  0.4904 -1.0192
  656MOL0     H88542   3.107   1.964   3.518  0.1405 -1.8671 -0.2572
  656MOL0     H88543   3.263   2.088   3.672  2.0031 -1.8145  0.4660
  656MOL0     H88544   3.514   2.018   4.059  3.3757  1.1919 -1.0579
  656MOL0     H88545   3.684   2.082   4.213 -0.4573  0.3190  0.4452
  656MOL0     H88546   5.026   2.344   5.554  0.4198 -2.0778  0.6833
  656MOL0     H88547   5.263   2.283   5.489 -0.5488  1.7360 -0.6419
  656MOL0     H88548   5.596   2.271   5.290  1.6715  2.3591  2.2742
  656MOL0     H88549   5.830   2.221   5.213 -2.8377 -1.2789  2.2223
  656MOL0     H88550   6.006   2.520   4.899  2.8937  1.4369  0.2563
  656MOL0     H88551   6.137   2.453   4.981  0.2930 -0.1835 -0.7626
  656MOL0     H88552   6.086   2.228   4.843  0.6848  1.6750  1.3083
  656MOL0     H88553   6.113   2.357   4.742  3.1376  3.9306  2.7523
  656MOL0     H88554   5.843   2.394   4.765 -1.2905 -1.3414 -0.5873
  656MOL0     H88555   5.858   2.238   4.847  2.9918 -0.5396  1.2193
  656MOL0     H88556   5.828   2.168   4.623 -0.3806  0.5887 -1.5067
  656MOL0     H88557   6.002   2.211   4.603  0.2536 -0.5557  3.3296
  656MOL0     H88558   5.785   2.472   4.348 -2.8019 -0.4095  1.0578
  656MOL0     H88559   5.810   2.556   4.934  2.9300 -2.4607 -0.3957
  656MOL0     H88560   5.570   2.574   4.965  0.8690  1.1846 -0.4734
  657MOL0     O88561   6.706  11.350   9.578  0.8118 -0.3413  0.3153
  657MOL0     C88562   6.756  11.448   9.526  0.5007 -0.4425 -0.4411
  657MOL0     O88563   6.737  11.576   9.574  0.7770  0.0171 -0.2362
  657MOL0     C88564   6.627  11.609   9.650  0.6666 -0.3778  0.3229
  657MOL0     C88565   6.639  11.732   9.704  0.9316 -0.6083 -0.1398
  657MOL0     C88566   6.536  11.788   9.782  0.1345 -0.7140  0.1980
  657MOL0     C88567   6.418  11.718   9.793  0.0918 -0.3539 -0.4902
  657MOL0     O88568   6.311  11.763   9.874 -0.1564  0.3087 -0.0266
  657MOL0     C88569   6.311  11.888   9.946 -0.3336  1.1332  0.0410
  657MOL0     C88570   6.168  11.940   9.939  0.7771  0.0187  0.3785
  657MOL0     C88571   6.097  11.894  10.064 -0.4404 -0.3727 -0.4286
  657MOL0     C88572   5.936  11.914  10.066 -1.2799  0.2427  0.6772
  657MOL0     C88573   5.881  11.882  10.208 -0.3759 -0.9760  0.2106
  657MOL0     C88574   5.725  11.913  10.201  0.4855 -0.7666 -0.1272
  657MOL0     C88575   5.646  11.844  10.311  0.8421  0.3981 -0.6200
  657MOL0     C88576   5.494  11.867  10.323  0.0906 -0.1894  0.1764
  657MOL0     N88577   5.406  11.777  10.243 -0.6959 -1.2329  0.2690
  657MOL0     C88578   5.368  11.786  10.116 -0.1663 -1.0431 -0.4086
  657MOL0     C88579   5.299  11.677  10.086  0.5438  0.6984  0.7380
  657MOL0     C88580   5.240  11.659   9.947 -0.3726  0.5880  0.1721
  657MOL0     C88581   5.116  11.752   9.945 -0.0523  0.5112  0.1110
  657MOL0     C88582   5.011  11.759  10.058  0.1523  0.4921 -0.3236
  657MOL0     C88583   4.893  11.841  10.034  0.1075 -0.2243  0.0141
  657MOL0     O88584   4.820  11.799   9.914 -0.0365  0.2563 -0.5039
  657MOL0     C88585   4.679  11.827   9.930  0.3238  0.7053  1.7157
  657MOL0     C88586   4.621  11.922  10.018 -0.3854  0.8447  0.5977
  657MOL0     C88587   4.481  11.937  10.030 -0.8726  0.0934 -0.3946
  657MOL0     C88588   4.430  12.043  10.123 -0.4734  0.7498  0.0188
  657MOL0     C88589   4.392  11.855   9.949  0.2943 -0.0873 -0.0331
  657MOL0     C88590   4.242  11.855   9.940  0.1515 -0.7587 -0.7560
  657MOL0     O88591   4.183  11.913  10.044 -0.2726 -1.2193 -0.6826
  657MOL0     C88592   4.048  11.916  10.071  0.2572 -0.0478 -0.3685
  657MOL0     C88593   3.949  11.847   9.997  0.4916 -0.3722  0.8012
  657MOL0     C88594   3.812  11.866  10.027  0.1513 -0.7696 -0.1376
  657MOL0     C88595   3.764  11.951  10.131 -0.2568  0.0553  0.2623
  657MOL0     O88596   3.623  11.955  10.140  0.0814  0.2458 -0.5267
  657MOL0     C88597   3.569  12.041  10.247  0.0402  0.4422 -0.3047
  657MOL0     C88598   3.574  11.960  10.382  0.1017 -0.1885  0.4013
  657MOL0     C88599   3.530  11.816  10.364 -0.6808 -0.7054 -0.1801
  657MOL0     C88600   3.504  11.753  10.499  0.4822  0.5924 -0.5321
  657MOL0     C88601   3.461  11.612  10.484  1.0805 -0.6486  0.2979
  657MOL0     C88602   3.420  11.550  10.620  0.8849  0.0648  0.2337
  657MOL0     C88603   3.421  11.393  10.626 -0.5418 -0.1540  0.8989
  657MOL0     C88604   3.372  11.317  10.496  0.3786  0.1031 -0.4171
  657MOL0    Cl88605   3.197  11.330  10.483  0.0758  0.0647 -0.4521
  657MOL0     C88606   3.871  12.012  10.214  0.4159 -0.0727 -0.1492
  657MOL0     C88607   4.006  12.002  10.177  0.1906  1.0726  0.2109
  657MOL0     O88608   4.181  11.798   9.850  0.1998  0.0045  0.2532
  657MOL0     C88609   4.455  11.757   9.856  0.2468 -0.7287 -0.5593
  657MOL0     C88610   4.595  11.750   9.850 -0.6640 -0.6091  0.3693
  657MOL0     N88611   5.288  11.603  10.196  0.4847  0.1564 -0.0275
  657MOL0     N88612   5.359  11.653  10.286 -0.2583 -0.1159 -0.7567
  657MOL0     C88613   6.411  11.583   9.751 -0.0045 -0.6921  0.4190
  657MOL0     C88614   6.514  11.532   9.676 -0.1125 -0.1489  0.8300
  657MOL0     C88615   6.839  11.420   9.409 -0.7341  0.0786 -0.7828
  657MOL0     C88616   6.865  11.522   9.311 -0.0383 -0.2973 -0.9467
  657MOL0     C88617   6.936  11.495   9.191 -0.1568 -0.2058  0.2984
  657MOL0     C88618   6.982  11.364   9.168 -0.0586 -0.1006 -0.6744
  657MOL0     O88619   7.047  11.336   9.055 -0.1746 -0.4859  0.6285
  657MOL0     C88620   7.101  11.208   9.015  0.5155 -0.2218 -0.2568
  657MOL0     C88621   7.166  11.219   8.876  0.0519  0.4268 -0.5800
  657MOL0     C88622   7.282  11.316   8.888 -0.1505  0.7441  0.1120
  657MOL0     C88623   7.394  11.286   8.989 -0.8283 -0.1583 -0.1383
  657MOL0     C88624   7.504  11.376   8.948 -0.2396 -0.1401  0.7398
  657MOL0     C88625   7.596  11.448   8.920  0.2952 -1.0478  0.3997
  657MOL0     C88626   6.957  11.254   9.263  0.0936 -0.3888 -0.0061
  657MOL0     C88627   6.882  11.285   9.379 -0.7140  0.0102 -0.4659
  657MOL0     H88628   6.727  11.795   9.693  0.3929  0.3375  0.8192
  657MOL0     H88629   6.544  11.887   9.825 -3.0086  0.3790 -1.4449
  657MOL0     H88630   6.334  11.866  10.050  1.9145 -0.7377 -0.7561
  657MOL0     H88631   6.369  11.964   9.894 -0.1219  1.2122  0.3908
  657MOL0     H88632   6.174  12.049   9.927 -1.6579  0.3661  1.6264
  657MOL0     H88633   6.115  11.900   9.853  0.8545 -0.8763  0.7351
  657MOL0     H88634   6.114  11.786  10.075  0.4813 -0.0366  2.5162
  657MOL0     H88635   6.143  11.944  10.150  0.1921 -1.0461 -0.3621
  657MOL0     H88636   5.907  12.016  10.040  0.3149  0.4634 -0.3966
  657MOL0     H88637   5.894  11.842   9.995 -1.0566  0.8541 -0.0928
  657MOL0     H88638   5.906  11.779  10.234  1.2770 -0.0494  2.6792
  657MOL0     H88639   5.932  11.942  10.285  1.9307 -1.9902 -0.4469
  657MOL0     H88640   5.725  12.021  10.222  2.4352 -1.2466  3.1145
  657MOL0     H88641   5.685  11.899  10.100  1.7721  0.1040 -0.7841
  657MOL0     H88642   5.647  11.738  10.283 -0.8784  0.4022 -0.7948
  657MOL0     H88643   5.673  11.864  10.415 -2.9357  2.3457  0.1746
  657MOL0     H88644   5.466  11.972  10.308 -0.4927 -0.4451 -0.6402
  657MOL0     H88645   5.463  11.838  10.423  1.9086 -0.6349  0.6375
  657MOL0     H88646   5.398  11.872  10.057  0.0831 -1.4348 -0.8551
  657MOL0     H88647   5.312  11.693   9.872 -4.1749  4.0609 -2.3152
  657MOL0     H88648   5.213  11.555   9.925 -0.0829  0.5306  0.0832
  657MOL0     H88649   5.063  11.709   9.859  0.9124 -0.2272 -0.1213
  657MOL0     H88650   5.148  11.856   9.931  2.0662 -0.4274 -3.1443
  657MOL0     H88651   5.073  11.784  10.145  1.6824  2.8945 -1.9861
  657MOL0     H88652   4.984  11.655  10.079  1.4327 -0.0632 -1.2768
  657MOL0     H88653   4.912  11.948  10.018 -3.8464  0.1729 -4.0032
  657MOL0     H88654   4.824  11.834  10.118 -2.7084  1.1578 -2.0009
  657MOL0     H88655   4.679  11.988  10.083 -0.5772 -0.3861  2.0750
  657MOL0     H88656   4.399  11.989  10.213  1.0130  0.0864  0.1641
  657MOL0     H88657   4.509  12.117  10.133 -0.8117  0.9839  1.0372
  657MOL0     H88658   4.337  12.088  10.087 -2.5979 -0.9873  2.8797
  657MOL0     H88659   3.973  11.780   9.915  2.7327  2.4818 -1.0387
  657MOL0     H88660   3.726  11.825   9.976 -1.3729 -2.4206  3.3831
  657MOL0     H88661   3.638  12.126  10.254  1.0386  0.0044 -3.1509
  657MOL0     H88662   3.464  12.069  10.246 -1.1400 -2.8871  3.7306
  657MOL0     H88663   3.676  11.953  10.422 -0.3201  3.0865  2.4063
  657MOL0     H88664   3.514  12.010  10.458  1.7824  1.3322  0.8002
  657MOL0     H88665   3.591  11.757  10.294 -0.0301 -1.5325  1.0537
  657MOL0     H88666   3.436  11.819  10.307 -0.8061 -1.7334 -0.0459
  657MOL0     H88667   3.591  11.755  10.565  0.8913 -2.6761 -0.8171
  657MOL0     H88668   3.423  11.805  10.550  2.6289  1.5627  2.1309
  657MOL0     H88669   3.538  11.554  10.432 -1.8102 -1.7543 -3.1529
  657MOL0     H88670   3.370  11.609  10.423  1.8668  0.3831 -0.9683
  657MOL0     H88671   3.496  11.576  10.693  0.0479  1.4673  0.6320
  657MOL0     H88672   3.324  11.593  10.649  0.9780  0.5255 -0.1311
  657MOL0     H88673   3.369  11.369  10.719 -1.4366  0.2988  0.5310
  657MOL0     H88674   3.521  11.357  10.647 -1.5596 -3.1147  1.1614
  657MOL0     H88675   3.387  11.209  10.496 -2.7992 -0.4684 -1.2579
  657MOL0     H88676   3.409  11.356  10.401 -3.2142 -0.6295 -2.2974
  657MOL0     H88677   3.856  12.073  10.302  1.4910  1.6304 -1.0930
  657MOL0     H88678   4.075  12.056  10.242  0.5835  1.1412 -0.2628
  657MOL0     H88679   4.404  11.695   9.784 -0.6879 -3.0218  1.9376
  657MOL0     H88680   4.642  11.694   9.770  0.1974  0.7088 -0.0945
  657MOL0     H88681   6.320  11.528   9.770  0.3892 -0.4574  3.4764
  657MOL0     H88682   6.502  11.436   9.627  0.6690 -0.1721  0.6646
  657MOL0     H88683   6.826  11.623   9.320 -2.5417 -1.3456  1.7149
  657MOL0     H88684   6.962  11.568   9.115  0.3736 -2.3729 -1.7559
  657MOL0     H88685   7.162  11.174   9.099 -0.8773  2.5375  2.0674
  657MOL0     H88686   7.006  11.153   9.008  0.9786 -0.8706 -1.9150
  657MOL0     H88687   7.102  11.253   8.794  1.7152  0.0437 -2.1181
  657MOL0     H88688   7.208  11.121   8.855  2.3608  0.2902  3.5451
  657MOL0     H88689   7.247  11.419   8.888  0.6291  1.0247  1.7582
  657MOL0     H88690   7.324  11.304   8.787  0.1131 -5.2202  0.5349
  657MOL0     H88691   7.431  11.183   8.984  0.7807  0.4524 -1.8056
  657MOL0     H88692   7.358  11.307   9.090  0.2505  0.2345  0.1749
  657MOL0     H88693   7.681  11.503   8.884  0.0566 -0.2742  0.9798
  657MOL0     H88694   6.986  11.150   9.251  1.1877  0.1143 -2.0997
  657MOL0     H88695   6.865  11.197   9.440 -0.8588 -0.3829 -1.0677
  658MOL0     O88696   3.747   0.604   6.721  0.2030  0.3671 -0.4009
  658MOL0     C88697   3.753   0.614   6.595  0.1021  0.5967 -0.7912
  658MOL0     O88698   3.643   0.631   6.515 -0.1716 -0.3694 -0.2700
  658MOL0     C88699   3.523   0.636   6.573 -0.0796 -0.0205  0.0246
  658MOL0     C88700   3.467   0.539   6.653  0.0437 -0.3339 -1.1549
  658MOL0     C88701   3.343   0.545   6.704 -0.0747  0.0094 -1.0668
  658MOL0     C88702   3.263   0.657   6.675 -0.5731  0.2632 -0.8636
  658MOL0     O88703   3.135   0.664   6.726 -0.1341  0.1484 -0.8514
  658MOL0     C88704   3.113   0.778   6.810 -0.5447 -0.8208 -0.0161
  658MOL0     C88705   2.998   0.743   6.905  0.4078 -0.4359 -0.0132
  658MOL0     C88706   2.976   0.854   7.007  0.1175  1.1887 -0.7978
  658MOL0     C88707   2.875   0.812   7.118 -0.2010 -0.2939 -0.1333
  658MOL0     C88708   2.937   0.729   7.237  0.0880 -0.5123 -0.5225
  658MOL0     C88709   2.863   0.741   7.369 -0.4619  0.0273  0.1394
  658MOL0     C88710   2.716   0.685   7.349  0.6423  0.2339  0.2152
  658MOL0     C88711   2.662   0.651   7.491 -0.0757 -0.7786 -0.4382
  658MOL0     N88712   2.721   0.731   7.600  0.0115 -0.1780 -0.6798
  658MOL0     C88713   2.683   0.862   7.619  0.0817  0.6077  1.3762
  658MOL0     C88714   2.736   0.897   7.737 -0.0627  0.5035 -0.8347
  658MOL0     C88715   2.712   1.042   7.785 -0.3376 -0.0902 -0.2847
  658MOL0     C88716   2.762   1.163   7.699  0.2476  0.3767  0.2216
  658MOL0     C88717   2.915   1.177   7.696  0.3537 -0.0153 -0.7034
  658MOL0     C88718   2.993   1.093   7.601  0.0121  0.1596 -0.4861
  658MOL0     O88719   2.948   1.101   7.464 -0.5120  0.3784  0.2362
  658MOL0     C88720   3.007   1.191   7.378  0.8791  0.1668  0.1376
  658MOL0     C88721   3.111   1.271   7.409 -0.3732  0.4012  0.9548
  658MOL0     C88722   3.169   1.368   7.322  0.4007 -0.3891 -0.2524
  658MOL0     C88723   3.292   1.443   7.373 -0.2494 -0.6843 -0.2331
  658MOL0     C88724   3.114   1.379   7.192  0.3147  0.3400 -0.9267
  658MOL0     C88725   3.169   1.465   7.087 -0.0640  0.0771 -0.5253
  658MOL0     O88726   3.079   1.491   6.988 -0.4867  1.0701 -0.0241
  658MOL0     C88727   3.106   1.575   6.886 -0.1412 -0.1926  0.8080
  658MOL0     C88728   3.005   1.667   6.856  0.1335 -0.6395 -1.0879
  658MOL0     C88729   3.023   1.759   6.744  0.4570  0.0113 -0.2785
  658MOL0     C88730   3.127   1.742   6.655 -0.6987  0.2665 -0.7212
  658MOL0     O88731   3.147   1.816   6.541  0.0158 -0.5329 -0.8811
  658MOL0     C88732   3.038   1.851   6.463  0.2538 -0.3744 -0.4061
  658MOL0     C88733   3.081   1.977   6.394 -0.0866 -0.2394 -0.4366
  658MOL0     C88734   3.191   1.965   6.289  0.0104  0.3233 -0.6758
  658MOL0     C88735   3.234   2.103   6.235  0.1079  0.3046 -0.2390
  658MOL0     C88736   3.360   2.081   6.153 -1.0369  0.3101 -0.0087
  658MOL0     C88737   3.416   2.218   6.095  0.2955 -0.0373 -0.3974
  658MOL0     C88738   3.558   2.191   6.037 -0.1142  0.4805 -0.2682
  658MOL0     C88739   3.615   2.324   5.978  0.4043 -0.2032  0.3216
  658MOL0    Cl88740   3.543   2.338   5.814 -0.3115 -0.0391  0.5589
  658MOL0     C88741   3.224   1.645   6.686 -0.2163  0.4535  0.1643
  658MOL0     C88742   3.212   1.566   6.800 -0.7393  0.1091 -0.5195
  658MOL0     O88743   3.291   1.499   7.088 -0.3975  0.2027  0.2822
  658MOL0     C88744   2.992   1.308   7.172 -0.5059  0.3185  0.2741
  658MOL0     C88745   2.943   1.212   7.260  0.5044  0.3055 -0.1715
  658MOL0     N88746   2.815   0.790   7.782  0.1086 -0.0198  0.4728
  658MOL0     N88747   2.808   0.689   7.697  0.3500 -0.4511 -0.3127
  658MOL0     C88748   3.319   0.748   6.594 -0.1818  0.1290 -0.2880
  658MOL0     C88749   3.446   0.748   6.539  0.7129  0.8028  0.3359
  658MOL0     C88750   3.891   0.598   6.546  0.1171 -0.7299  0.2746
  658MOL0     C88751   3.911   0.538   6.425  0.7703  0.0012  0.7003
  658MOL0     C88752   4.031   0.548   6.372  0.2749  0.6294  0.4728
  658MOL0     C88753   4.148   0.606   6.435  0.6540  1.3084  0.1969
  658MOL0     O88754   4.266   0.616   6.369  0.1628  0.5450 -0.7578
  658MOL0     C88755   4.269   0.724   6.277  1.1662  0.6005  0.6324
  658MOL0     C88756   4.316   0.661   6.151  0.3537  0.9036  0.6466
  658MOL0     C88757   4.293   0.744   6.020 -0.2098  0.8057  0.0821
  658MOL0     C88758   4.388   0.871   6.016 -0.5693  0.2607 -0.4501
  658MOL0     C88759   4.533   0.845   6.033 -0.0159  0.3497  0.2502
  658MOL0     C88760   4.653   0.842   6.030  0.0180 -0.6491  0.3434
  658MOL0     C88761   4.128   0.663   6.559 -0.1843  1.4471  0.3843
  658MOL0     C88762   4.004   0.650   6.617  0.8648 -0.4063  0.0001
  658MOL0     H88763   3.541   0.465   6.682  2.7077  3.0571  1.6791
  658MOL0     H88764   3.301   0.472   6.772 -2.2525  0.1696 -2.1425
  658MOL0     H88765   3.199   0.803   6.873 -0.9492  2.4514 -0.5779
  658MOL0     H88766   3.096   0.862   6.742 -0.0409  0.5486  1.5144
  658MOL0     H88767   2.915   0.729   6.836 -1.1245  0.5537  1.5269
  658MOL0     H88768   3.024   0.653   6.961  2.8867  0.2451  0.0709
  658MOL0     H88769   3.068   0.893   7.052 -0.4768 -0.0629  1.6499
  658MOL0     H88770   2.931   0.936   6.951 -1.5585 -0.8351 -2.5876
  658MOL0     H88771   2.836   0.907   7.154  2.9107  2.3080 -3.0204
  658MOL0     H88772   2.797   0.742   7.084  2.7149 -2.3667 -3.2055
  658MOL0     H88773   2.955   0.625   7.208  0.2411 -0.9325  0.9939
  658MOL0     H88774   3.033   0.780   7.253 -1.6399  3.3143 -1.1367
  658MOL0     H88775   2.920   0.688   7.445  0.6281  1.0298  0.0392
  658MOL0     H88776   2.865   0.847   7.393  0.2313  0.3206 -1.1133
  658MOL0     H88777   2.650   0.763   7.310  0.0489  1.6073  3.6619
  658MOL0     H88778   2.709   0.586   7.303 -0.4420 -0.6746  2.1839
  658MOL0     H88779   2.696   0.548   7.507  1.6695 -0.4862 -1.9101
  658MOL0     H88780   2.553   0.650   7.492 -0.2630  2.1353  3.0927
  658MOL0     H88781   2.624   0.920   7.550  2.7730  1.9702  0.0786
  658MOL0     H88782   2.608   1.064   7.811 -0.0828  0.6506  0.1368
  658MOL0     H88783   2.774   1.046   7.875  0.9764  1.8197 -1.1939
  658MOL0     H88784   2.718   1.257   7.734  0.9465  0.4219  0.9989
  658MOL0     H88785   2.724   1.165   7.596 -2.6292  1.5123  1.2040
  658MOL0     H88786   2.966   1.169   7.793 -1.1045 -0.0436  0.0801
  658MOL0     H88787   2.939   1.276   7.657  3.8076  0.2846  1.7041
  658MOL0     H88788   2.991   0.991   7.641 -0.1611 -0.1632 -1.2921
  658MOL0     H88789   3.100   1.113   7.610 -0.1975  1.5755 -0.9462
  658MOL0     H88790   3.153   1.266   7.508  2.2005 -0.8833 -0.1076
  658MOL0     H88791   3.299   1.452   7.482  0.8474 -0.8108 -0.2847
  658MOL0     H88792   3.380   1.387   7.340  0.9904 -0.2361  2.0596
  658MOL0     H88793   3.308   1.542   7.330  1.8552 -0.1263  1.6124
  658MOL0     H88794   2.916   1.683   6.915  1.2936  1.5134  0.2021
  658MOL0     H88795   2.950   1.833   6.715 -0.9298 -1.5920 -1.0171
  658MOL0     H88796   2.996   1.775   6.396  0.7353 -3.2986  2.4058
  658MOL0     H88797   2.957   1.881   6.530  0.3986  0.9485 -0.7880
  658MOL0     H88798   2.987   2.010   6.349 -1.6516 -1.2728  1.9020
  658MOL0     H88799   3.103   2.051   6.472 -0.7963 -0.9695  0.4687
  658MOL0     H88800   3.154   1.904   6.207 -0.8684  0.5420 -0.4623
  658MOL0     H88801   3.276   1.916   6.336 -1.3603  1.0241  2.8837
  658MOL0     H88802   3.153   2.156   6.185  0.9622  2.4074  0.5176
  658MOL0     H88803   3.248   2.176   6.314 -1.4735  1.9134 -1.3609
  658MOL0     H88804   3.347   2.016   6.066  0.3584  0.1100 -0.0910
  658MOL0     H88805   3.438   2.034   6.215  1.6610  1.6034 -2.2340
  658MOL0     H88806   3.342   2.264   6.029  1.8465  2.0878 -0.7533
  658MOL0     H88807   3.413   2.291   6.177 -0.0426  2.1319 -2.2569
  658MOL0     H88808   3.560   2.111   5.962  1.1153 -1.8963  2.1273
  658MOL0     H88809   3.625   2.158   6.117  1.2918  1.7145 -0.9040
  658MOL0     H88810   3.723   2.337   5.967  0.0813  0.8913 -2.0285
  658MOL0     H88811   3.587   2.410   6.039  1.1945  1.4607 -1.5738
  658MOL0     H88812   3.307   1.627   6.618 -0.2009 -0.0411  0.3085
  658MOL0     H88813   3.286   1.487   6.806 -1.4869 -1.0181 -3.8360
  658MOL0     H88814   2.942   1.332   7.079  0.5485  1.6675  0.0300
  658MOL0     H88815   2.856   1.161   7.220 -0.2216  2.8038 -1.9610
  658MOL0     H88816   3.262   0.835   6.563  1.5804  1.8024  0.8588
  658MOL0     H88817   3.490   0.824   6.475  1.5654 -0.7645 -1.0234
  658MOL0     H88818   3.829   0.500   6.364  0.6381  0.4534  0.5916
  658MOL0     H88819   4.043   0.513   6.271  3.4111  1.2520  0.5243
  658MOL0     H88820   4.170   0.765   6.255 -1.4799 -4.5494  1.2701
  658MOL0     H88821   4.334   0.809   6.300 -0.7782  2.7532 -1.3564
  658MOL0     H88822   4.270   0.564   6.134 -1.6313  1.9593 -0.3740
  658MOL0     H88823   4.424   0.647   6.161  0.8475 -0.5068 -4.1906
  658MOL0     H88824   4.185   0.760   6.007 -0.1285  0.9159 -0.5014
  658MOL0     H88825   4.313   0.691   5.927  0.6706  2.8816 -0.9743
  658MOL0     H88826   4.371   0.925   6.110 -0.0240  0.0135 -0.2033
  658MOL0     H88827   4.373   0.921   5.920 -1.7695 -1.8848 -1.4598
  658MOL0     H88828   4.759   0.850   6.018 -0.2245 -0.8766 -3.0194
  658MOL0     H88829   4.215   0.705   6.608  3.3037 -2.3112 -1.9037
  658MOL0     H88830   3.990   0.688   6.718  0.5206  3.1157 -1.2256
  659MOL0     O88831   1.288   6.612   9.086  0.0265  1.3711  0.1744
  659MOL0     C88832   1.400   6.637   9.044 -0.2352 -1.0593  0.8087
  659MOL0     O88833   1.428   6.733   8.949 -0.2773  0.1231  1.0036
  659MOL0     C88834   1.332   6.815   8.899  0.0189 -0.8378 -0.3241
  659MOL0     C88835   1.341   6.957   8.929  0.3592  0.7327  1.2304
  659MOL0     C88836   1.262   7.042   8.853  0.2151 -0.3653 -0.5247
  659MOL0     C88837   1.173   6.990   8.756  0.2616  0.1724 -0.2635
  659MOL0     O88838   1.095   7.077   8.687 -0.0737 -0.3553 -0.6276
  659MOL0     C88839   0.980   7.033   8.617 -0.6536  0.6846  0.5415
  659MOL0     C88840   1.011   7.006   8.464 -0.1811 -0.1405  0.5551
  659MOL0     C88841   1.103   7.118   8.416 -0.2376 -0.2246  0.0368
  659MOL0     C88842   1.030   7.244   8.371 -0.3399 -1.1556 -0.0010
  659MOL0     C88843   0.980   7.211   8.227 -0.8377  0.3182 -0.2532
  659MOL0     C88844   0.896   7.320   8.156  0.0565  1.0563 -0.3642
  659MOL0     C88845   0.744   7.333   8.202 -0.9479 -0.2423  0.2252
  659MOL0     C88846   0.684   7.472   8.191  0.1473  0.0863 -0.4035
  659MOL0     N88847   0.732   7.582   8.271 -0.3192 -0.3464 -0.4233
  659MOL0     C88848   0.811   7.582   8.386 -0.1346 -0.0746 -0.5374
  659MOL0     C88849   0.817   7.707   8.430 -0.3391 -0.1268  0.4543
  659MOL0     C88850   0.894   7.753   8.546 -0.3321 -0.7681  0.1917
  659MOL0     C88851   0.951   7.893   8.532 -0.2143 -0.1195  0.1201
  659MOL0     C88852   1.041   7.916   8.650  1.1607  0.5953 -1.6076
  659MOL0     C88853   0.941   7.974   8.762 -0.2385  0.3901 -0.9943
  659MOL0     O88854   1.029   8.031   8.859 -0.3542  0.2943 -0.3243
  659MOL0     C88855   1.052   8.166   8.863 -0.3384  0.1518 -0.4711
  659MOL0     C88856   1.115   8.224   8.975  0.7603  0.3172 -0.7567
  659MOL0     C88857   1.180   8.350   8.965 -0.3375 -0.1295 -0.5336
  659MOL0     C88858   1.286   8.399   9.070  0.5890  0.8308  0.6358
  659MOL0     C88859   1.150   8.432   8.844 -0.5250 -1.0090  0.0261
  659MOL0     C88860   1.195   8.566   8.819 -0.4455  0.5087  0.5252
  659MOL0     O88861   1.136   8.625   8.711 -0.3677 -0.0153 -0.3974
  659MOL0     C88862   1.115   8.759   8.698 -0.1234 -0.2940 -0.1655
  659MOL0     C88863   1.144   8.854   8.797  0.0897 -0.4792 -0.2600
  659MOL0     C88864   1.145   8.987   8.762  0.2679 -0.5426  0.5885
  659MOL0     C88865   1.107   9.033   8.628 -0.4477 -0.9358 -0.4354
  659MOL0     O88866   1.115   9.158   8.587  0.1268  0.0150  1.0712
  659MOL0     C88867   1.003   9.228   8.627 -0.4908  0.6502  0.8835
  659MOL0     C88868   1.049   9.378   8.609 -0.1918  0.8076 -0.6322
  659MOL0     C88869   0.940   9.473   8.661  0.7533 -1.0736 -0.6943
  659MOL0     C88870   0.941   9.485   8.815 -0.4648  0.3773  0.2495
  659MOL0     C88871   0.816   9.549   8.880 -0.9302 -0.1479  0.7560
  659MOL0     C88872   0.707   9.453   8.916  0.0276 -0.3726  0.1003
  659MOL0     C88873   0.600   9.519   9.006 -0.2147 -0.0902 -0.6033
  659MOL0     C88874   0.508   9.404   9.066  0.3038  0.4270  0.8308
  659MOL0    Cl88875   0.435   9.307   8.920 -0.1227  0.2231  0.0674
  659MOL0     C88876   1.076   8.935   8.538  0.6729  1.0644  0.7868
  659MOL0     C88877   1.083   8.800   8.566  0.1298 -1.2524 -0.0430
  659MOL0     O88878   1.290   8.605   8.886  0.5158 -0.3906 -0.4648
  659MOL0     C88879   1.058   8.383   8.754 -0.6662  0.0689  0.2405
  659MOL0     C88880   1.030   8.248   8.752  0.6005  0.3316 -0.6083
  659MOL0     N88881   0.768   7.785   8.329  0.0990 -0.1683 -0.6295
  659MOL0     N88882   0.713   7.709   8.242 -0.0342 -1.0590  0.2508
  659MOL0     C88883   1.169   6.851   8.730 -0.6952  0.1639 -0.5328
  659MOL0     C88884   1.255   6.765   8.801 -0.2884  0.2163 -0.7857
  659MOL0     C88885   1.514   6.554   9.092 -0.5000 -0.3032  1.0763
  659MOL0     C88886   1.510   6.490   9.211 -1.0431  0.2357 -1.4029
  659MOL0     C88887   1.624   6.432   9.257  0.7031  0.6302  1.0704
  659MOL0     C88888   1.743   6.426   9.193 -0.7407 -0.3752 -0.5197
  659MOL0     O88889   1.855   6.356   9.239 -0.1026 -0.1199  0.3353
  659MOL0     C88890   1.847   6.268   9.358  0.3598 -0.1201 -0.3804
  659MOL0     C88891   1.965   6.170   9.352  0.9388 -0.3042  0.0258
  659MOL0     C88892   1.942   6.055   9.255 -0.1585  0.4042  0.7659
  659MOL0     C88893   2.060   5.958   9.256  0.2305  0.5875  0.3210
  659MOL0     C88894   2.076   5.893   9.390 -0.4290  0.1428 -0.6917
  659MOL0     C88895   2.083   5.852   9.503  0.3607  0.1384 -0.3075
  659MOL0     C88896   1.752   6.490   9.070  1.0087  0.7586 -0.2852
  659MOL0     C88897   1.637   6.548   9.015 -0.0165  0.1176 -0.5005
  659MOL0     H88898   1.405   7.003   9.003  1.5732  0.4089  0.4238
  659MOL0     H88899   1.261   7.149   8.874 -3.3096 -0.5400  0.7341
  659MOL0     H88900   0.934   6.946   8.664 -0.2130 -1.0133 -1.9768
  659MOL0     H88901   0.909   7.117   8.619  0.2092  1.4969 -1.0249
  659MOL0     H88902   1.071   6.915   8.461  0.9880  0.6175  0.5538
  659MOL0     H88903   0.920   6.983   8.408  0.7050  1.5587 -1.7248
  659MOL0     H88904   1.183   7.137   8.488 -0.1155  2.4176 -0.6583
  659MOL0     H88905   1.161   7.076   8.333  3.4227  0.5868  1.9637
  659MOL0     H88906   0.939   7.269   8.426 -0.4964 -1.2303 -0.2211
  659MOL0     H88907   1.100   7.327   8.378 -0.9625 -0.5053 -1.0774
  659MOL0     H88908   1.063   7.184   8.160 -0.8267 -2.6386  0.8092
  659MOL0     H88909   0.917   7.123   8.218 -0.9673  0.6030 -3.7822
  659MOL0     H88910   0.948   7.414   8.175  0.1817  0.7092  1.1981
  659MOL0     H88911   0.900   7.294   8.050  3.3711  0.3576 -0.2085
  659MOL0     H88912   0.692   7.257   8.143  0.9604  0.3893 -2.4841
  659MOL0     H88913   0.730   7.310   8.308 -1.6623  2.4317  0.7870
  659MOL0     H88914   0.581   7.459   8.222  0.8592 -0.0427  2.0879
  659MOL0     H88915   0.683   7.506   8.087 -1.5955 -0.7762 -0.6996
  659MOL0     H88916   0.844   7.495   8.442  0.0447  1.6279  2.1732
  659MOL0     H88917   0.845   7.743   8.643  3.9584 -2.6901  2.4413
  659MOL0     H88918   0.973   7.678   8.555  0.9903  0.3752 -1.2415
  659MOL0     H88919   0.871   7.965   8.512  0.7789  0.0296 -4.4122
  659MOL0     H88920   1.013   7.897   8.442 -2.1197 -3.5870 -1.5561
  659MOL0     H88921   1.112   7.992   8.618 -1.0850  2.1817 -3.0803
  659MOL0     H88922   1.098   7.830   8.688 -1.3720 -0.5778 -0.2104
  659MOL0     H88923   0.881   7.896   8.809  2.7563 -1.9489 -0.6842
  659MOL0     H88924   0.863   8.041   8.725 -1.9975 -1.4905 -0.8745
  659MOL0     H88925   1.143   8.154   9.053  1.4167  1.6545  0.2397
  659MOL0     H88926   1.300   8.317   9.141 -0.5379 -4.3803 -4.3953
  659MOL0     H88927   1.387   8.399   9.027  1.0540 -2.2795  1.4679
  659MOL0     H88928   1.257   8.489   9.126 -0.5827 -0.3325  1.9782
  659MOL0     H88929   1.181   8.829   8.896 -0.6535  0.1909  0.1984
  659MOL0     H88930   1.183   9.060   8.833  2.0862 -0.3845 -0.4767
  659MOL0     H88931   0.923   9.217   8.553  1.9155 -2.1353 -1.5818
  659MOL0     H88932   0.965   9.207   8.727 -0.5729  0.7968  0.8824
  659MOL0     H88933   1.140   9.398   8.666 -1.1020  1.1684  0.7369
  659MOL0     H88934   1.057   9.398   8.502  3.8612  0.6553 -0.5142
  659MOL0     H88935   0.839   9.452   8.625 -0.5409 -1.9172  3.0198
  659MOL0     H88936   0.972   9.571   8.625 -0.8241  0.6853  2.3055
  659MOL0     H88937   0.970   9.392   8.865 -1.6176 -0.6358 -0.8907
  659MOL0     H88938   1.024   9.552   8.841 -0.1857  0.7183 -1.4018
  659MOL0     H88939   0.771   9.619   8.808 -0.3542  0.6769  1.1773
  659MOL0     H88940   0.854   9.607   8.965 -0.1081  0.3233  0.0852
  659MOL0     H88941   0.658   9.414   8.826  0.3134  0.2833 -0.3436
  659MOL0     H88942   0.741   9.363   8.969 -1.3414 -0.2244  1.2909
  659MOL0     H88943   0.540   9.588   8.946  1.0866  0.9533 -0.7590
  659MOL0     H88944   0.646   9.575   9.088  0.3839 -1.7844  0.2522
  659MOL0     H88945   0.420   9.452   9.110 -1.6248 -1.7369 -0.4091
  659MOL0     H88946   0.560   9.341   9.139  0.0510 -0.6541  0.1018
  659MOL0     H88947   1.045   8.971   8.441  1.3015  0.6972  0.4417
  659MOL0     H88948   1.071   8.723   8.490 -0.3464 -2.2080  0.9756
  659MOL0     H88949   1.023   8.436   8.666 -2.1664  0.5853  1.1077
  659MOL0     H88950   0.983   8.199   8.668 -0.3881 -2.0967  1.2496
  659MOL0     H88951   1.116   6.797   8.652 -2.7061  0.6729  0.4082
  659MOL0     H88952   1.270   6.664   8.765  2.1494  1.2059 -2.8659
  659MOL0     H88953   1.421   6.508   9.270 -1.1735  0.2986 -1.6175
  659MOL0     H88954   1.630   6.384   9.354  1.7742 -1.6712 -0.0328
  659MOL0     H88955   1.847   6.328   9.449  2.3955  0.1284 -0.5023
  659MOL0     H88956   1.756   6.206   9.352  1.2323 -1.8084  2.2668
  659MOL0     H88957   1.970   6.116   9.447  1.3315  0.0622  0.2173
  659MOL0     H88958   2.060   6.222   9.337  1.7849 -1.9619 -0.6126
  659MOL0     H88959   1.943   6.087   9.150 -0.0301  2.9426  1.4688
  659MOL0     H88960   1.847   6.002   9.265 -0.6091  1.2437  1.0174
  659MOL0     H88961   2.156   6.003   9.229  0.5868 -0.2896  0.0983
  659MOL0     H88962   2.041   5.880   9.181  2.9744 -0.0255  0.1544
  659MOL0     H88963   2.079   5.804   9.599 -1.6350  1.0413  0.1020
  659MOL0     H88964   1.841   6.487   9.008  0.2937  0.0623 -1.3047
  659MOL0     H88965   1.643   6.601   8.921  0.3773 -0.7634 -0.9836
  660MOL0     O88966   4.058   4.168   2.819  0.2065  0.6581  0.2949
  660MOL0     C88967   4.082   4.048   2.812 -0.1368 -0.3648  1.2379
  660MOL0     O88968   4.194   4.004   2.753  0.2544  0.1758 -0.6548
  660MOL0     C88969   4.278   4.087   2.686 -1.1275 -0.1500 -0.1704
  660MOL0     C88970   4.249   4.194   2.601  0.2299  0.0554  0.3640
  660MOL0     C88971   4.351   4.283   2.561  1.1569  0.4265  0.8708
  660MOL0     C88972   4.484   4.253   2.579  0.5857 -0.0519 -0.2617
  660MOL0     O88973   4.601   4.308   2.519 -0.5068  0.0446 -0.2484
  660MOL0     C88974   4.601   4.406   2.416 -0.3532 -0.6859  0.2887
  660MOL0     C88975   4.737   4.476   2.382  0.5659  0.5438 -0.5115
  660MOL0     C88976   4.806   4.523   2.502  0.4299 -0.7793 -1.5232
  660MOL0     C88977   4.958   4.571   2.472 -0.3188  0.3277 -1.5444
  660MOL0     C88978   5.040   4.517   2.597 -0.3080  0.2471 -0.2214
  660MOL0     C88979   5.194   4.564   2.573 -0.3704 -0.7641  0.4399
  660MOL0     C88980   5.292   4.516   2.673 -1.0228  0.7067 -0.2353
  660MOL0     C88981   5.271   4.546   2.825 -0.5575 -1.3449 -0.6995
  660MOL0     N88982   5.242   4.693   2.849 -0.2575  0.2388  0.6504
  660MOL0     C88983   5.330   4.792   2.846 -0.6256 -0.1698  0.6723
  660MOL0     C88984   5.259   4.910   2.857  0.7451  0.3133 -0.1387
  660MOL0     C88985   5.311   5.047   2.847 -0.5813  0.1993 -0.3201
  660MOL0     C88986   5.253   5.130   2.963 -0.1707  0.1240 -0.0567
  660MOL0     C88987   5.282   5.284   2.950  0.6920 -0.1444 -1.0013
  660MOL0     C88988   5.230   5.363   3.072  0.6887  0.6092 -0.1086
  660MOL0     O88989   5.086   5.386   3.079 -0.4302  0.0495  0.2885
  660MOL0     C88990   5.036   5.503   3.126 -1.1045  0.5536  0.0371
  660MOL0     C88991   5.105   5.606   3.198  0.8860 -0.5470 -0.5682
  660MOL0     C88992   5.043   5.732   3.220 -0.1198 -0.2811 -0.9758
  660MOL0     C88993   5.121   5.836   3.302  0.0166  0.2058 -0.2965
  660MOL0     C88994   4.906   5.755   3.178  0.0541 -0.1897 -0.5836
  660MOL0     C88995   4.820   5.879   3.188 -0.3883  0.9540  0.3457
  660MOL0     O88996   4.698   5.869   3.136 -0.0349  0.0020 -0.0602
  660MOL0     C88997   4.617   5.968   3.161 -0.3638 -0.2745 -0.7085
  660MOL0     C88998   4.497   5.938   3.213 -0.0279  0.2788  0.1753
  660MOL0     C88999   4.381   6.021   3.210  0.2411 -0.0544  0.0718
  660MOL0     C89000   4.395   6.149   3.157 -0.5706 -0.7160  0.1170
  660MOL0     O89001   4.290   6.243   3.160  0.4316 -0.2946  0.1355
  660MOL0     C89002   4.158   6.203   3.192 -0.3276  0.0348  0.7486
  660MOL0     C89003   4.064   6.321   3.223  0.1189 -0.8155 -0.6659
  660MOL0     C89004   3.946   6.284   3.310 -0.3060  0.2463  0.2848
  660MOL0     C89005   3.829   6.390   3.306 -0.6646  0.7562 -0.2314
  660MOL0     C89006   3.721   6.349   3.412  0.0891 -0.3450  0.7588
  660MOL0     C89007   3.596   6.446   3.404  0.1422 -0.0416  0.4949
  660MOL0     C89008   3.499   6.413   3.514 -0.3419  0.1716 -0.0848
  660MOL0     C89009   3.438   6.269   3.518 -0.5269 -0.5799 -0.4508
  660MOL0    Cl89010   3.370   6.222   3.671  0.1004 -0.2902 -0.3701
  660MOL0     C89011   4.519   6.188   3.103  0.5271 -0.9578  0.2561
  660MOL0     C89012   4.623   6.094   3.097  0.7050  0.1751  0.5053
  660MOL0     O89013   4.857   5.964   3.268 -0.6043  0.6353 -0.8664
  660MOL0     C89014   4.833   5.643   3.134 -0.6997  1.0313 -0.7649
  660MOL0     C89015   4.905   5.525   3.104  0.0743 -0.3492 -0.0024
  660MOL0     N89016   5.126   4.874   2.849 -0.1452 -1.2234  0.3464
  660MOL0     N89017   5.119   4.741   2.842  0.0350 -0.5984 -0.0654
  660MOL0     C89018   4.518   4.138   2.655  0.2865  0.0550  0.1898
  660MOL0     C89019   4.412   4.059   2.712 -0.2788  0.2439  0.5312
  660MOL0     C89020   3.981   3.956   2.867  0.2873  0.0134  0.6129
  660MOL0     C89021   3.989   3.823   2.851 -0.7460  0.4252  0.0975
  660MOL0     C89022   3.885   3.742   2.904  0.4521  0.1389  0.6039
  660MOL0     C89023   3.787   3.800   2.989  0.7614  0.7599  0.9104
  660MOL0     O89024   3.700   3.716   3.056 -0.3661 -0.1639  0.2668
  660MOL0     C89025   3.650   3.611   2.972  0.2829 -0.3183  0.5422
  660MOL0     C89026   3.517   3.557   3.023 -0.5663 -0.4608 -0.0205
  660MOL0     C89027   3.530   3.508   3.165 -0.2404 -0.1669 -0.3952
  660MOL0     C89028   3.401   3.446   3.217  0.4338 -0.2176  0.8479
  660MOL0     C89029   3.370   3.330   3.136 -0.0598 -0.4807  0.2148
  660MOL0     C89030   3.328   3.240   3.066 -0.4815  0.6197  0.5088
  660MOL0     C89031   3.777   3.939   3.009  0.3852  0.3597  0.0739
  660MOL0     C89032   3.874   4.013   2.941  0.7708 -0.2246  0.1334
  660MOL0     H89033   4.147   4.229   2.589  0.2873  1.4314  3.2509
  660MOL0     H89034   4.326   4.370   2.501 -2.9753 -1.6038 -0.7907
  660MOL0     H89035   4.542   4.359   2.336 -0.5349 -1.0706  0.6463
  660MOL0     H89036   4.539   4.484   2.461  0.2902  0.6173 -1.0097
  660MOL0     H89037   4.787   4.406   2.314  0.9995 -0.1174  0.4622
  660MOL0     H89038   4.716   4.565   2.323 -2.8876 -1.0201 -1.9054
  660MOL0     H89039   4.764   4.617   2.538  2.3479 -0.0412 -1.0809
  660MOL0     H89040   4.810   4.443   2.577  0.7418  0.2720 -0.3822
  660MOL0     H89041   4.994   4.519   2.383 -0.5657  0.1103 -1.5160
  660MOL0     H89042   4.974   4.679   2.464 -3.1284  0.8705 -1.0479
  660MOL0     H89043   5.005   4.555   2.693 -1.7966  4.3084 -2.1372
  660MOL0     H89044   5.028   4.409   2.596 -3.1195  0.5055 -0.9802
  660MOL0     H89045   5.217   4.521   2.475 -0.4863 -0.5680  0.3261
  660MOL0     H89046   5.193   4.674   2.570  1.1706 -0.7032  1.1460
  660MOL0     H89047   5.281   4.407   2.681  0.4495  0.6574  2.0065
  660MOL0     H89048   5.393   4.525   2.634 -0.1705 -2.4397  0.9427
  660MOL0     H89049   5.359   4.516   2.883 -0.7958  1.5927  1.3627
  660MOL0     H89050   5.183   4.499   2.872 -2.2191  1.5605 -0.7036
  660MOL0     H89051   5.439   4.793   2.849 -0.6098  0.7519  0.1126
  660MOL0     H89052   5.421   5.049   2.840 -0.5985  2.7984 -0.7676
  660MOL0     H89053   5.277   5.088   2.751  0.2216 -0.1027 -0.7517
  660MOL0     H89054   5.298   5.086   3.053  0.4415 -1.5730 -1.1379
  660MOL0     H89055   5.145   5.114   2.959 -0.1737  0.0610  0.2713
  660MOL0     H89056   5.224   5.317   2.863  3.4135  1.3254 -2.3860
  660MOL0     H89057   5.389   5.295   2.934  0.2512  1.4700 -3.4819
  660MOL0     H89058   5.288   5.456   3.075  2.9685 -0.7473 -0.2121
  660MOL0     H89059   5.266   5.302   3.155  1.1655 -0.8610 -1.3623
  660MOL0     H89060   5.206   5.595   3.238 -0.4103 -1.7896  2.6218
  660MOL0     H89061   5.154   5.922   3.242  1.5381 -0.5035 -0.5185
  660MOL0     H89062   5.058   5.877   3.381  2.7387  3.4224  0.4319
  660MOL0     H89063   5.208   5.794   3.354 -1.5130  1.0649  3.2288
  660MOL0     H89064   4.474   5.834   3.230  0.1434 -0.1430 -1.8919
  660MOL0     H89065   4.287   5.990   3.255  1.6447 -3.1966  1.0986
  660MOL0     H89066   4.120   6.146   3.106  0.4556  0.0992  0.3490
  660MOL0     H89067   4.163   6.135   3.277  3.0709  2.3427  2.6205
  660MOL0     H89068   4.125   6.399   3.269 -0.4089  0.5426 -2.1724
  660MOL0     H89069   4.028   6.362   3.128  1.5746  2.1284 -0.0363
  660MOL0     H89070   3.973   6.265   3.414  0.0874 -0.2672  0.0985
  660MOL0     H89071   3.908   6.193   3.262  1.8910 -0.6300  0.0615
  660MOL0     H89072   3.870   6.490   3.322 -2.1658  1.5544 -1.1471
  660MOL0     H89073   3.784   6.382   3.207 -0.8912 -0.0181 -0.0695
  660MOL0     H89074   3.776   6.360   3.507 -0.2263 -0.2882  0.9360
  660MOL0     H89075   3.705   6.243   3.391  1.8297 -0.4960 -0.0379
  660MOL0     H89076   3.644   6.543   3.422  1.9430 -0.9824  1.0765
  660MOL0     H89077   3.551   6.442   3.304 -2.0065 -4.9187  1.3732
  660MOL0     H89078   3.406   6.470   3.520 -0.1362  0.3173  2.4164
  660MOL0     H89079   3.560   6.438   3.600 -1.3394 -0.2769  0.7738
  660MOL0     H89080   3.518   6.198   3.495  1.3147  1.1210  0.5141
  660MOL0     H89081   3.355   6.260   3.446 -0.3031 -1.5007 -0.6060
  660MOL0     H89082   4.533   6.290   3.072 -0.4429 -1.5545 -2.3518
  660MOL0     H89083   4.714   6.120   3.042  1.1466 -1.8112  0.2348
  660MOL0     H89084   4.728   5.632   3.110 -0.3888 -1.8390 -1.0895
  660MOL0     H89085   4.839   5.458   3.051 -2.8152 -0.9772  4.0030
  660MOL0     H89086   4.621   4.108   2.675  1.2593  0.9257 -2.9208
  660MOL0     H89087   4.435   3.970   2.771  4.3617 -0.6923 -2.1211
  660MOL0     H89088   4.074   3.769   2.810 -0.9679  0.3506 -0.2769
  660MOL0     H89089   3.880   3.635   2.888 -0.1588  0.6103 -3.5248
  660MOL0     H89090   3.629   3.667   2.881  0.7288  2.2148  1.8994
  660MOL0     H89091   3.720   3.528   2.957 -0.8225 -1.1483 -0.2310
  660MOL0     H89092   3.484   3.484   2.947 -1.5130  0.0982 -0.1673
  660MOL0     H89093   3.442   3.636   3.018 -0.3659 -0.3187 -1.1112
  660MOL0     H89094   3.574   3.584   3.230  1.2249 -1.8481  0.6680
  660MOL0     H89095   3.604   3.428   3.167  2.0964  1.8383 -1.7961
  660MOL0     H89096   3.318   3.515   3.203  2.2020  1.7174 -0.6966
  660MOL0     H89097   3.414   3.416   3.322  2.0563 -0.0937  0.7181
  660MOL0     H89098   3.305   3.153   3.008  1.2128 -0.2948  1.1135
  660MOL0     H89099   3.705   3.990   3.072 -1.3682 -0.2803 -1.3262
  660MOL0     H89100   3.876   4.122   2.944 -0.6084 -0.1978  2.0865
  661MOL0     O89101  10.946   3.244   9.988 -0.3802 -0.6185 -0.9439
  661MOL0     C89102  10.866   3.149   9.980  0.1340 -0.0404 -0.8881
  661MOL0     O89103  10.814   3.091   9.866  0.3366  0.0739 -0.1586
  661MOL0     C89104  10.843   3.159   9.754 -0.3959 -0.3922  0.1335
  661MOL0     C89105  10.936   3.100   9.656  0.8163 -0.6843 -1.2522
  661MOL0     C89106  10.961   3.159   9.534 -0.6381  0.4927  0.0490
  661MOL0     C89107  10.908   3.281   9.500  0.2676  0.1408  0.2282
  661MOL0     O89108  10.929   3.354   9.384  0.5195 -0.1637 -0.1618
  661MOL0     C89109  10.945   3.275   9.267 -0.8690  0.1244 -1.0334
  661MOL0     C89110  10.921   3.346   9.138 -0.5324  0.1028 -0.2200
  661MOL0     C89111  11.025   3.294   9.028 -0.1679 -0.9230  0.7286
  661MOL0     C89112  10.990   3.148   8.996 -0.5269  0.3933  0.4828
  661MOL0     C89113  11.068   3.078   8.889 -0.0341  0.7616 -0.7032
  661MOL0     C89114  11.204   3.022   8.945  0.2064 -0.0068 -0.0586
  661MOL0     C89115  11.295   2.937   8.857  0.5947  0.6633  0.1324
  661MOL0     C89116  11.357   2.999   8.736  0.2485 -0.5014 -0.5233
  661MOL0     N89117  11.304   3.125   8.671  0.2119  0.3420 -0.2512
  661MOL0     C89118  11.332   3.256   8.689 -1.4559  0.6360 -0.6392
  661MOL0     C89119  11.265   3.322   8.598 -0.1349 -0.3655 -0.5603
  661MOL0     C89120  11.259   3.471   8.589 -0.8715  0.5536 -0.4619
  661MOL0     C89121  11.182   3.528   8.711  1.7564 -0.3170  0.1678
  661MOL0     C89122  11.162   3.674   8.727  0.1638 -0.7582 -0.1564
  661MOL0     C89123  11.288   3.737   8.771 -0.6009  0.3172 -0.9334
  661MOL0     O89124  11.298   3.869   8.826  0.8079  0.0675  0.1666
  661MOL0     C89125  11.207   3.910   8.924 -1.4024  0.2477  0.5486
  661MOL0     C89126  11.180   3.823   9.030 -0.2349 -0.1880 -0.0971
  661MOL0     C89127  11.095   3.872   9.137 -1.3676  0.0395 -0.4135
  661MOL0     C89128  11.084   3.770   9.247  0.3414 -0.2941  1.2979
  661MOL0     C89129  11.049   4.004   9.137  0.7359  0.0589 -0.2775
  661MOL0     C89130  10.963   4.062   9.239  0.5818  0.9818 -0.2708
  661MOL0     O89131  10.864   4.141   9.203  0.0584 -0.3412  0.3560
  661MOL0     C89132  10.808   4.217   9.302 -0.2783 -0.1923  0.5512
  661MOL0     C89133  10.673   4.232   9.293  0.6713 -0.2775 -0.1849
  661MOL0     C89134  10.595   4.303   9.386  0.4726 -0.2595 -0.5604
  661MOL0     C89135  10.661   4.381   9.477  0.7100  1.2134  0.2510
  661MOL0     O89136  10.573   4.438   9.560  0.2184  0.1254 -0.2864
  661MOL0     C89137  10.593   4.580   9.590 -0.3059 -0.4723 -0.1484
  661MOL0     C89138  10.466   4.638   9.641 -0.0649 -0.5440  0.5214
  661MOL0     C89139  10.436   4.575   9.784 -0.6659 -0.4683 -0.5169
  661MOL0     C89140  10.300   4.504   9.784 -0.1498  0.5336 -0.1748
  661MOL0     C89141  10.271   4.465   9.933 -0.3511 -0.0605  0.7149
  661MOL0     C89142  10.374   4.378  10.015 -0.3303  0.4145  0.2077
  661MOL0     C89143  10.320   4.320  10.148 -0.8853  0.4910  0.7860
  661MOL0     C89144  10.261   4.423  10.239 -0.6103 -0.0444  0.3320
  661MOL0    Cl89145  10.259   4.384  10.410  0.2603 -0.3128  0.0344
  661MOL0     C89146  10.794   4.370   9.499  0.0569 -0.1738  0.3433
  661MOL0     C89147  10.873   4.281   9.409 -0.1161  0.1456  0.7880
  661MOL0     O89148  10.993   4.031   9.354  0.5578  0.3966 -0.5891
  661MOL0     C89149  11.073   4.085   9.020 -0.4226 -0.8892 -0.3597
  661MOL0     C89150  11.154   4.045   8.909  0.0197 -1.2790 -0.1343
  661MOL0     N89151  11.180   3.233   8.546  0.3187  0.1412  0.7596
  661MOL0     N89152  11.200   3.115   8.590  0.1770  1.0060  0.4271
  661MOL0     C89153  10.832   3.345   9.596 -0.2795  0.2045  0.4730
  661MOL0     C89154  10.792   3.290   9.716 -0.5638 -0.8871 -0.7711
  661MOL0     C89155  10.812   3.104  10.111  0.2614 -0.1639 -0.4096
  661MOL0     C89156  10.722   2.997  10.103 -0.0248  0.5570  0.1911
  661MOL0     C89157  10.666   2.949  10.225 -0.4268  0.4895 -0.2110
  661MOL0     C89158  10.697   3.003  10.346 -1.0585 -0.0708  0.0554
  661MOL0     O89159  10.630   2.944  10.456  0.3855  0.4093 -0.0926
  661MOL0     C89160  10.703   2.931  10.577  0.4338  0.0045  0.5004
  661MOL0     C89161  10.798   2.812  10.580  0.4338 -0.3413 -0.2375
  661MOL0     C89162  10.927   2.828  10.646 -0.2940 -0.5452 -0.6346
  661MOL0     C89163  11.012   2.697  10.657  0.2678  0.2793 -0.6664
  661MOL0     C89164  11.148   2.731  10.687 -0.0954 -0.6615 -0.6476
  661MOL0     C89165  11.263   2.768  10.693  0.4567  0.7687 -0.1735
  661MOL0     C89166  10.770   3.121  10.351  0.3696  0.5661 -0.2713
  661MOL0     C89167  10.837   3.170  10.235  0.2172 -0.2221  0.1888
  661MOL0     H89168  10.987   3.010   9.687 -1.2897 -2.5093 -2.8046
  661MOL0     H89169  11.037   3.120   9.467  2.8716  2.7062  2.3618
  661MOL0     H89170  11.049   3.242   9.271 -0.7051  0.7354 -0.1017
  661MOL0     H89171  10.883   3.185   9.267  0.3966 -0.9715  3.3337
  661MOL0     H89172  10.814   3.340   9.115 -1.5434  0.6253  3.7066
  661MOL0     H89173  10.944   3.451   9.160  0.3875 -0.9398  5.0322
  661MOL0     H89174  11.006   3.355   8.940 -0.7179  0.1043  1.5365
  661MOL0     H89175  11.128   3.302   9.062 -0.7655  2.0317  2.1727
  661MOL0     H89176  10.991   3.088   9.087 -1.9057 -0.5495 -0.0922
  661MOL0     H89177  10.886   3.159   8.963 -0.7757  0.7435  1.3532
  661MOL0     H89178  11.011   2.996   8.845 -1.1854  2.6603 -2.9933
  661MOL0     H89179  11.079   3.150   8.808 -2.4620  1.2817 -0.6388
  661MOL0     H89180  11.259   3.111   8.974 -0.1341  0.2756 -0.2722
  661MOL0     H89181  11.189   2.962   9.035  2.3952 -1.8390 -0.8259
  661MOL0     H89182  11.384   2.898   8.908  1.8230 -0.0194 -2.3656
  661MOL0     H89183  11.238   2.850   8.826 -0.3873  0.9970  0.9393
  661MOL0     H89184  11.354   2.918   8.663 -0.0414 -3.0254  2.1194
  661MOL0     H89185  11.460   3.020   8.764 -0.1738 -1.0831  1.6645
  661MOL0     H89186  11.404   3.285   8.766 -1.3116 -3.9411  1.2967
  661MOL0     H89187  11.364   3.500   8.595 -0.9315  2.3248 -4.5789
  661MOL0     H89188  11.226   3.516   8.495 -0.5253 -0.1721 -0.9398
  661MOL0     H89189  11.223   3.480   8.801 -2.5241 -4.8529  0.0901
  661MOL0     H89190  11.083   3.483   8.716  1.2785  0.6171 -0.6875
  661MOL0     H89191  11.085   3.698   8.801  0.0396  1.0453 -0.8488
  661MOL0     H89192  11.130   3.712   8.630 -2.1472 -1.6201  0.1912
  661MOL0     H89193  11.370   3.717   8.700  2.3799 -2.6054  2.8763
  661MOL0     H89194  11.327   3.667   8.845 -1.3500  0.9770  0.1088
  661MOL0     H89195  11.215   3.721   9.037 -0.5786 -0.2284  1.1706
  661MOL0     H89196  10.979   3.748   9.271 -1.0292  4.4689  0.6175
  661MOL0     H89197  11.131   3.672   9.231  3.2662  0.8494  2.1530
  661MOL0     H89198  11.143   3.804   9.333  0.9851  2.5140 -0.1439
  661MOL0     H89199  10.626   4.173   9.215 -0.2308  0.6153 -0.3240
  661MOL0     H89200  10.486   4.308   9.391  0.5526  1.5141  0.0998
  661MOL0     H89201  10.665   4.603   9.669  0.1701 -0.2583 -0.6343
  661MOL0     H89202  10.617   4.637   9.499  0.5780  2.9205  2.0325
  661MOL0     H89203  10.489   4.745   9.640  0.5996 -0.6758 -0.9238
  661MOL0     H89204  10.389   4.620   9.565  0.2683 -0.1927  0.0994
  661MOL0     H89205  10.433   4.657   9.857  1.4414  0.1933 -1.0967
  661MOL0     H89206  10.515   4.509   9.818 -0.3299  0.6793  1.0654
  661MOL0     H89207  10.223   4.571   9.743  0.9231  1.1115 -1.3367
  661MOL0     H89208  10.303   4.418   9.716  0.4554 -0.2022  0.7649
  661MOL0     H89209  10.184   4.400   9.939  0.3525 -1.3112 -1.3815
  661MOL0     H89210  10.243   4.561   9.979 -0.1988 -0.1873  1.0752
  661MOL0     H89211  10.397   4.290   9.955  1.0243 -0.0760  1.3875
  661MOL0     H89212  10.466   4.436  10.029 -1.3392  3.5375 -3.7854
  661MOL0     H89213  10.404   4.275  10.202 -1.7061 -2.1850  0.0261
  661MOL0     H89214  10.248   4.239  10.130  1.0693 -1.0458 -0.5866
  661MOL0     H89215  10.168   4.461  10.195  0.2889  2.0203  0.1085
  661MOL0     H89216  10.322   4.513  10.231 -0.3444 -0.3205 -0.9474
  661MOL0     H89217  10.841   4.415   9.586 -0.4557 -0.0550  0.5641
  661MOL0     H89218  10.979   4.271   9.430  0.1381  0.0630 -0.4981
  661MOL0     H89219  11.047   4.190   9.030 -1.3742 -1.2269  1.0253
  661MOL0     H89220  11.174   4.118   8.831  1.6246 -2.6982 -1.1208
  661MOL0     H89221  10.780   3.435   9.564  0.7572  1.0606  1.1187
  661MOL0     H89222  10.722   3.354   9.770  2.0068  0.6334  0.9536
  661MOL0     H89223  10.682   2.950  10.014 -1.8347 -0.6016  1.5547
  661MOL0     H89224  10.593   2.869  10.227  0.5107 -0.4690 -1.8829
  661MOL0     H89225  10.762   3.022  10.594  0.0104  0.5456 -0.8405
  661MOL0     H89226  10.630   2.921  10.658  0.7392  1.7245  1.0237
  661MOL0     H89227  10.814   2.772  10.480  0.6082  0.8515 -0.6995
  661MOL0     H89228  10.749   2.738  10.643  0.0297  2.3242  2.8690
  661MOL0     H89229  10.915   2.871  10.746  0.6450  0.7087 -1.0403
  661MOL0     H89230  10.985   2.906  10.598 -0.8149 -0.7594 -1.6370
  661MOL0     H89231  11.000   2.652  10.559 -2.8831  2.6985 -1.5890
  661MOL0     H89232  10.982   2.644  10.748  1.9718  1.9967  0.9986
  661MOL0     H89233  11.355   2.823  10.688  0.3622  0.9511  0.0364
  661MOL0     H89234  10.793   3.180  10.438 -2.2842 -0.5623  1.3210
  661MOL0     H89235  10.889   3.264  10.246 -0.4901  0.3473 -1.1342
  662MOL0     O89236   6.121   9.627   1.622 -0.4214 -0.5074  0.3469
  662MOL0     C89237   6.103   9.715   1.540  0.7824  0.3749 -0.3188
  662MOL0     O89238   5.983   9.741   1.487 -0.8002 -0.1930  0.2094
  662MOL0     C89239   5.874   9.676   1.532  0.0155  0.3671  0.3389
  662MOL0     C89240   5.785   9.736   1.619  0.7897  0.5156 -0.0048
  662MOL0     C89241   5.683   9.663   1.679 -0.4053 -0.0901 -0.6405
  662MOL0     C89242   5.668   9.524   1.647 -0.1896 -1.7215  0.3208
  662MOL0     O89243   5.553   9.461   1.699 -0.3261 -0.5360  0.4963
  662MOL0     C89244   5.534   9.319   1.682  0.6176  0.5314 -0.9677
  662MOL0     C89245   5.439   9.275   1.794 -0.9495 -0.6024  0.0434
  662MOL0     C89246   5.352   9.153   1.753  0.2469 -0.4848 -0.8052
  662MOL0     C89247   5.225   9.134   1.838 -0.7885  0.2955  0.1112
  662MOL0     C89248   5.270   9.062   1.969  0.1060  0.4374  0.1914
  662MOL0     C89249   5.153   9.008   2.048  0.6475 -0.1602  0.8008
  662MOL0     C89250   5.214   8.952   2.177 -0.6573  0.6453  0.2378
  662MOL0     C89251   5.093   8.910   2.255 -1.0124 -0.5052  0.5464
  662MOL0     N89252   5.103   8.841   2.382 -0.6811  0.3452  0.3863
  662MOL0     C89253   5.178   8.722   2.390 -0.1186 -0.0108 -0.4589
  662MOL0     C89254   5.205   8.726   2.521  0.6845 -0.0800  0.0224
  662MOL0     C89255   5.298   8.626   2.586 -0.6414  0.8453 -0.3244
  662MOL0     C89256   5.240   8.559   2.718  0.8677  0.1225 -0.7125
  662MOL0     C89257   5.141   8.452   2.678 -1.0912  0.2429 -0.1285
  662MOL0     C89258   5.064   8.403   2.801  0.4041  0.0805 -0.5199
  662MOL0     O89259   4.944   8.342   2.767 -0.0482 -0.2450 -0.0379
  662MOL0     C89260   4.877   8.282   2.870  0.6187  0.1921 -0.7951
  662MOL0     C89261   4.914   8.273   3.012  1.2411 -0.7167 -0.2380
  662MOL0     C89262   4.845   8.197   3.099  0.1608  0.2736 -0.1066
  662MOL0     C89263   4.900   8.181   3.239  0.4519 -0.0704  0.3743
  662MOL0     C89264   4.722   8.127   3.062  0.2104  0.8787  0.4074
  662MOL0     C89265   4.622   8.042   3.135  0.9314 -0.4882  0.4486
  662MOL0     O89266   4.511   8.003   3.062  0.2039  0.4379  0.1171
  662MOL0     C89267   4.415   7.923   3.125 -0.1040  0.3531 -0.1363
  662MOL0     C89268   4.331   7.980   3.218 -0.8595  0.2057 -0.5002
  662MOL0     C89269   4.225   7.910   3.283 -0.7087 -0.5326  1.0453
  662MOL0     C89270   4.206   7.779   3.253  0.5498  0.2770 -0.6132
  662MOL0     O89271   4.104   7.710   3.315 -0.1065  0.2672  0.6600
  662MOL0     C89272   4.103   7.568   3.336  0.0737  0.1485  0.2435
  662MOL0     C89273   4.021   7.536   3.456 -0.0438 -0.7625  0.0169
  662MOL0     C89274   3.867   7.562   3.449  0.0577  0.4442  0.3074
  662MOL0     C89275   3.797   7.495   3.573 -0.2098 -0.5458 -1.0591
  662MOL0     C89276   3.654   7.552   3.589 -0.3185 -0.9822  0.6339
  662MOL0     C89277   3.572   7.572   3.459 -0.1308 -0.0573  0.2450
  662MOL0     C89278   3.425   7.605   3.503  0.4687  1.2242 -0.3217
  662MOL0     C89279   3.334   7.632   3.384  0.6624  0.8018  0.1849
  662MOL0    Cl89280   3.302   7.481   3.297  0.3752  0.1776  0.2864
  662MOL0     C89281   4.300   7.716   3.163  0.3220 -0.3754 -0.0324
  662MOL0     C89282   4.399   7.792   3.099 -0.6747 -0.7699 -1.3832
  662MOL0     O89283   4.641   8.015   3.254 -0.4302 -0.5595 -0.1367
  662MOL0     C89284   4.697   8.132   2.928 -0.0410  0.8724  0.4856
  662MOL0     C89285   4.771   8.203   2.836 -0.4666  0.1712  0.0295
  662MOL0     N89286   5.130   8.819   2.594  0.0053 -0.4076 -0.1106
  662MOL0     N89287   5.068   8.891   2.509  0.0569  0.0012  0.6052
  662MOL0     C89288   5.753   9.467   1.561 -0.4182  0.5214  1.0251
  662MOL0     C89289   5.864   9.541   1.498  0.5779  0.3423  0.1928
  662MOL0     C89290   6.212   9.799   1.490 -0.6745 -0.1111  0.5711
  662MOL0     C89291   6.176   9.926   1.453  0.2416 -0.6279 -1.5775
  662MOL0     C89292   6.269  10.015   1.398 -0.7135 -0.6374  0.5525
  662MOL0     C89293   6.402   9.973   1.374  0.0500 -0.4627  0.4110
  662MOL0     O89294   6.488  10.071   1.329  0.1743 -0.1380  0.5013
  662MOL0     C89295   6.623  10.029   1.283  0.7885 -0.2190  0.8001
  662MOL0     C89296   6.708  10.144   1.219  0.0389 -0.0485 -1.1831
  662MOL0     C89297   6.730  10.245   1.331 -0.5850  1.0130  0.4296
  662MOL0     C89298   6.777  10.376   1.263  0.1173  0.4797 -0.4506
  662MOL0     C89299   6.903  10.370   1.195 -0.4476  0.5651  0.3929
  662MOL0     C89300   7.001  10.359   1.121  0.4923  0.4442  0.2089
  662MOL0     C89301   6.434   9.852   1.432 -0.3614  0.1858  0.8334
  662MOL0     C89302   6.348   9.764   1.488  0.0754  0.4852  0.1100
  662MOL0     H89303   5.779   9.843   1.636  0.2352  0.0684  3.2281
  662MOL0     H89304   5.603   9.712   1.735 -2.5391 -2.0342 -1.8082
  662MOL0     H89305   5.483   9.292   1.589  2.2896 -1.3318 -1.4035
  662MOL0     H89306   5.633   9.274   1.688 -0.9155 -3.3773 -2.0753
  662MOL0     H89307   5.483   9.271   1.894 -1.4702  2.5890  0.5051
  662MOL0     H89308   5.373   9.360   1.814  3.3398  3.4425 -1.2191
  662MOL0     H89309   5.323   9.170   1.649  1.3818  2.5420 -0.7238
  662MOL0     H89310   5.416   9.065   1.742  0.7662  0.1672 -3.9940
  662MOL0     H89311   5.177   9.226   1.872 -0.2148  0.7049 -0.1622
  662MOL0     H89312   5.157   9.061   1.795  0.7785 -1.4477  0.4643
  662MOL0     H89313   5.337   8.978   1.946 -0.1421  0.2907 -0.0086
  662MOL0     H89314   5.329   9.119   2.040  0.0794 -2.0698  2.4036
  662MOL0     H89315   5.083   9.088   2.070  1.7317  1.5376 -1.4775
  662MOL0     H89316   5.112   8.936   1.976  0.8090  0.6665 -0.1432
  662MOL0     H89317   5.288   8.871   2.172  1.5735  2.5874  0.1319
  662MOL0     H89318   5.270   9.032   2.226  1.0259  0.2093 -0.8896
  662MOL0     H89319   5.042   8.839   2.190 -0.1399 -1.1085  0.4911
  662MOL0     H89320   5.037   9.000   2.281  3.0253  2.2822  0.6498
  662MOL0     H89321   5.226   8.658   2.317 -0.2983 -0.0837 -0.5124
  662MOL0     H89322   5.337   8.552   2.516 -0.0273  0.0186  0.8664
  662MOL0     H89323   5.392   8.671   2.621 -0.7924 -0.2691  1.6710
  662MOL0     H89324   5.187   8.642   2.766 -0.5175 -1.0205 -0.1882
  662MOL0     H89325   5.322   8.525   2.782  0.0166 -0.3765  0.1377
  662MOL0     H89326   5.186   8.374   2.616 -0.0152  0.8612 -0.1538
  662MOL0     H89327   5.069   8.499   2.610 -3.9881 -4.1218 -0.5083
  662MOL0     H89328   5.037   8.491   2.860 -0.2286  0.0574 -0.7738
  662MOL0     H89329   5.130   8.341   2.863 -0.1520  0.1937  0.2021
  662MOL0     H89330   5.013   8.308   3.042 -0.0893  1.6313  1.7205
  662MOL0     H89331   4.904   8.274   3.297 -1.8101 -0.1389  0.7075
  662MOL0     H89332   4.854   8.105   3.302 -0.0147 -0.4253 -0.3841
  662MOL0     H89333   5.005   8.152   3.228  0.0930 -0.8903 -1.1227
  662MOL0     H89334   4.354   8.082   3.249 -0.3815  0.6829 -2.3103
  662MOL0     H89335   4.163   7.977   3.343 -0.8738  0.9768 -0.7289
  662MOL0     H89336   4.070   7.507   3.251  2.8873 -2.5756  0.9309
  662MOL0     H89337   4.195   7.526   3.377 -1.1591 -1.8503  1.1193
  662MOL0     H89338   4.027   7.427   3.461  4.9458 -0.7459 -0.5676
  662MOL0     H89339   4.063   7.581   3.547 -0.4658  0.1536 -0.2227
  662MOL0     H89340   3.841   7.515   3.353  1.1425  1.1604 -0.3595
  662MOL0     H89341   3.856   7.671   3.441  0.7305  0.3726 -3.8605
  662MOL0     H89342   3.790   7.388   3.552 -0.0269 -1.0991  1.4169
  662MOL0     H89343   3.862   7.515   3.659 -1.5243  1.7117 -0.4817
  662MOL0     H89344   3.662   7.653   3.632 -1.2066 -0.2185 -0.9402
  662MOL0     H89345   3.584   7.490   3.646 -3.0108  0.0542 -1.3415
  662MOL0     H89346   3.600   7.660   3.400 -2.8558 -0.3498 -1.7157
  662MOL0     H89347   3.585   7.488   3.391  1.7581 -1.2513  1.9931
  662MOL0     H89348   3.419   7.682   3.581  1.4054  0.9392  0.0433
  662MOL0     H89349   3.386   7.514   3.549  0.2261  0.1732 -2.4951
  662MOL0     H89350   3.383   7.699   3.313 -0.2890  1.6604  0.3192
  662MOL0     H89351   3.241   7.673   3.424 -0.5183  0.2602 -1.8278
  662MOL0     H89352   4.285   7.614   3.132 -0.2604 -0.6499  1.0968
  662MOL0     H89353   4.460   7.747   3.022 -0.3010  1.4054 -2.4241
  662MOL0     H89354   4.612   8.080   2.885  0.1955  0.2162  0.8012
  662MOL0     H89355   4.744   8.208   2.731 -0.1136  2.9567 -0.0168
  662MOL0     H89356   5.744   9.362   1.535  0.7540  1.0197 -1.7412
  662MOL0     H89357   5.938   9.497   1.431  0.8614  0.0721  0.6822
  662MOL0     H89358   6.080   9.955   1.496  0.7413 -1.5567  0.2727
  662MOL0     H89359   6.247  10.119   1.376 -1.3719 -0.7216  0.8004
  662MOL0     H89360   6.680  10.000   1.373 -3.0150 -0.3278  3.4162
  662MOL0     H89361   6.608   9.950   1.209  0.3185 -0.7151  1.4078
  662MOL0     H89362   6.648  10.195   1.143 -1.8853  1.1884  1.0589
  662MOL0     H89363   6.805  10.104   1.186 -1.5737 -1.3807 -4.8563
  662MOL0     H89364   6.806  10.218   1.404 -1.1632  0.0186  0.6963
  662MOL0     H89365   6.632  10.271   1.371 -0.7487 -0.7111  1.2574
  662MOL0     H89366   6.775  10.456   1.337  0.4954  1.6109 -1.6251
  662MOL0     H89367   6.703  10.413   1.192 -1.7021  0.5993  1.3910
  662MOL0     H89368   7.068  10.332   1.042  1.2165  0.6465  0.7448
  662MOL0     H89369   6.537   9.823   1.448 -0.4822 -1.1450 -0.5539
  662MOL0     H89370   6.393   9.666   1.502  2.9058  1.3941 -1.5671
  663MOL0     O89371   3.999  10.593   1.342 -0.3164 -0.2009  0.3060
  663MOL0     C89372   4.059  10.502   1.399  0.5892  0.4797  0.0852
  663MOL0     O89373   4.025  10.367   1.397  0.0640 -0.5261 -1.0888
  663MOL0     C89374   3.931  10.327   1.307  0.7677 -0.8359  0.3030
  663MOL0     C89375   3.960  10.282   1.174  0.7168 -0.6874 -0.6015
  663MOL0     C89376   3.854  10.252   1.081 -0.8031 -0.1190 -0.1769
  663MOL0     C89377   3.725  10.290   1.116  0.7198 -0.7056  0.3836
  663MOL0     O89378   3.634  10.273   1.020 -0.0411  0.2414  0.2718
  663MOL0     C89379   3.495  10.285   1.042 -0.5020 -0.3700 -0.2280
  663MOL0     C89380   3.462  10.434   1.011 -0.5608 -0.2074 -0.1478
  663MOL0     C89381   3.312  10.469   1.020  0.7196  0.3403 -0.0402
  663MOL0     C89382   3.239  10.385   1.121 -0.3368 -0.0256 -0.1133
  663MOL0     C89383   3.094  10.410   1.155  0.5880 -0.1059 -0.2577
  663MOL0     C89384   3.045  10.301   1.255  0.5905  0.3049 -0.5127
  663MOL0     C89385   2.888  10.296   1.245 -0.3184 -0.1352  0.1567
  663MOL0     C89386   2.806  10.200   1.336 -0.1346  0.7454 -0.3295
  663MOL0     N89387   2.819  10.226   1.483  0.0023  0.4465  0.3963
  663MOL0     C89388   2.779  10.339   1.548  0.1400  0.4041  0.6849
  663MOL0     C89389   2.831  10.326   1.674  0.1520  0.2748  0.3351
  663MOL0     C89390   2.833  10.441   1.777 -0.1889  0.4295 -0.0652
  663MOL0     C89391   2.949  10.535   1.755 -0.7798  0.0256 -0.3394
  663MOL0     C89392   2.946  10.655   1.850 -0.4296  0.1411 -0.9786
  663MOL0     C89393   2.851  10.756   1.793  0.3754 -0.5663  0.4107
  663MOL0     O89394   2.833  10.867   1.888  0.3929  0.3304  0.2735
  663MOL0     C89395   2.725  10.943   1.884  1.0614 -1.5709 -0.7572
  663MOL0     C89396   2.636  10.950   1.775 -0.6115  0.0676  0.4693
  663MOL0     C89397   2.522  11.020   1.776  0.5958 -1.0186 -0.1624
  663MOL0     C89398   2.451  11.040   1.640  0.4667  0.0731 -0.3558
  663MOL0     C89399   2.488  11.085   1.898  0.4426 -0.6926 -0.8751
  663MOL0     C89400   2.366  11.179   1.909 -0.0335  0.4324 -0.2962
  663MOL0     O89401   2.354  11.261   2.022  0.2463  0.2388  0.2382
  663MOL0     C89402   2.238  11.316   2.064 -0.9684  0.2013 -0.7003
  663MOL0     C89403   2.101  11.285   2.023  0.6076 -0.7696 -0.5747
  663MOL0     C89404   1.984  11.349   2.079 -0.1769 -0.5211  0.2502
  663MOL0     C89405   2.001  11.448   2.180  0.3678 -0.6251  0.1361
  663MOL0     O89406   1.897  11.506   2.243  0.3960 -0.7251 -0.1069
  663MOL0     C89407   1.910  11.626   2.314 -0.2690 -0.2889 -0.0132
  663MOL0     C89408   1.946  11.606   2.455  0.2295  0.0217 -0.4417
  663MOL0     C89409   2.029  11.727   2.512  0.3116  0.0118  0.0172
  663MOL0     C89410   1.931  11.845   2.530  0.2168 -0.1294  0.2195
  663MOL0     C89411   1.998  11.962   2.598 -0.1466  0.4916  0.1177
  663MOL0     C89412   2.002  11.946   2.757 -0.9269 -0.5028  1.0093
  663MOL0     C89413   2.045  12.070   2.834 -0.6641 -0.4773 -0.0522
  663MOL0     C89414   1.918  12.155   2.862  0.7553 -0.3204  0.1773
  663MOL0    Cl89415   1.868  12.149   3.025  0.0890  0.3725 -0.7791
  663MOL0     C89416   2.134  11.479   2.218  0.5009  0.5269 -0.5565
  663MOL0     C89417   2.245  11.423   2.163 -0.1851  0.6204  1.0936
  663MOL0     O89418   2.282  11.187   1.814  0.3194 -0.1120  0.4742
  663MOL0     C89419   2.582  11.083   2.003 -0.3790 -0.3016  0.1252
  663MOL0     C89420   2.697  11.010   1.995  0.4320  0.5564 -0.2541
  663MOL0     N89421   2.901  10.203   1.680 -0.8288 -0.0294 -0.0741
  663MOL0     N89422   2.904  10.157   1.559 -0.1839 -0.1512 -1.0899
  663MOL0     C89423   3.695  10.334   1.251  0.8882  1.4452  0.5291
  663MOL0     C89424   3.797  10.350   1.344  0.0222 -0.2409 -0.3054
  663MOL0     C89425   4.150  10.554   1.503  0.0883  0.2934 -1.4249
  663MOL0     C89426   4.182  10.461   1.613  0.2427 -0.1312 -0.4205
  663MOL0     C89427   4.262  10.513   1.717  0.4348 -0.4982  0.5905
  663MOL0     C89428   4.327  10.635   1.705  0.8198  0.5814  0.0656
  663MOL0     O89429   4.382  10.674   1.819  0.2026 -0.3724  0.0368
  663MOL0     C89430   4.519  10.640   1.830 -0.1454  0.4759  0.3152
  663MOL0     C89431   4.596  10.768   1.803 -0.6406  0.7588 -0.5981
  663MOL0     C89432   4.605  10.846   1.944 -0.1069 -0.1435  1.0604
  663MOL0     C89433   4.679  10.981   1.908 -0.2525  0.2329  0.6560
  663MOL0     C89434   4.807  10.962   1.833  0.4458  0.2968 -0.6576
  663MOL0     C89435   4.910  10.937   1.785  0.1012  0.6659  0.8788
  663MOL0     C89436   4.307  10.717   1.597 -0.2904  0.6301  0.5487
  663MOL0     C89437   4.221  10.674   1.495  0.5139  1.1929 -0.2408
  663MOL0     H89438   4.065  10.262   1.155  0.6303 -3.1728  1.0750
  663MOL0     H89439   3.884  10.230   0.979 -2.5677  1.5244 -1.1180
  663MOL0     H89440   3.434  10.222   0.976 -0.4852  0.0073 -0.6135
  663MOL0     H89441   3.462  10.252   1.141 -2.5080  2.6168  0.2356
  663MOL0     H89442   3.517  10.507   1.072  0.4063 -1.0421 -0.0004
  663MOL0     H89443   3.500  10.458   0.911  2.9482 -0.2888  1.0082
  663MOL0     H89444   3.304  10.573   1.051  2.1528  1.9022 -4.1443
  663MOL0     H89445   3.259  10.457   0.925  0.8849  3.9796 -0.7184
  663MOL0     H89446   3.246  10.286   1.076 -1.4370  0.4408 -1.3996
  663MOL0     H89447   3.293  10.381   1.216  0.6840 -0.4778 -0.6984
  663MOL0     H89448   3.080  10.505   1.207  2.7501 -0.3010  0.7872
  663MOL0     H89449   3.031  10.407   1.066 -0.1332  1.1557  0.1786
  663MOL0     H89450   3.085  10.205   1.222  0.2853 -0.6700  1.7979
  663MOL0     H89451   3.080  10.315   1.358  1.1604 -1.5347 -0.4299
  663MOL0     H89452   2.849  10.398   1.254 -0.1852  0.1446 -1.9532
  663MOL0     H89453   2.860  10.273   1.141  0.2665  0.2548 -0.0896
  663MOL0     H89454   2.847  10.102   1.309  0.8260  1.0705 -0.0870
  663MOL0     H89455   2.702  10.209   1.303  0.4039  1.7945 -1.8200
  663MOL0     H89456   2.729  10.427   1.510 -0.3854 -0.2442 -0.1455
  663MOL0     H89457   2.741  10.499   1.775 -0.1217  0.5198 -0.7011
  663MOL0     H89458   2.840  10.404   1.880 -0.4932 -1.1706 -0.5852
  663MOL0     H89459   2.937  10.573   1.654  0.2256  0.2091 -0.4074
  663MOL0     H89460   3.040  10.474   1.766 -1.1873 -0.7399 -1.1182
  663MOL0     H89461   3.042  10.697   1.880 -2.1312  2.8211  1.0683
  663MOL0     H89462   2.902  10.621   1.944 -0.5570  0.4870 -0.9123
  663MOL0     H89463   2.749  10.720   1.775 -0.2632  2.0977 -2.0847
  663MOL0     H89464   2.899  10.782   1.698 -1.1224 -2.5499 -0.9691
  663MOL0     H89465   2.668  10.901   1.683  3.4747  2.0698  0.5809
  663MOL0     H89466   2.350  10.999   1.633  1.2648 -1.8048 -1.8152
  663MOL0     H89467   2.438  11.146   1.619 -3.4577 -0.3859 -0.8997
  663MOL0     H89468   2.495  10.984   1.556  0.7314  2.4740 -1.9016
  663MOL0     H89469   2.097  11.213   1.942  2.6602 -3.9830  1.9295
  663MOL0     H89470   1.889  11.318   2.037  0.2185 -0.4748 -0.7083
  663MOL0     H89471   1.982  11.693   2.267 -3.0670  1.2333 -2.3622
  663MOL0     H89472   1.819  11.683   2.296 -0.4809 -0.6170  0.0030
  663MOL0     H89473   1.851  11.595   2.510  0.8732 -1.0344  0.4968
  663MOL0     H89474   2.003  11.514   2.464 -3.3499 -2.2535  1.2971
  663MOL0     H89475   2.107  11.756   2.441  0.3208  1.5473  0.6238
  663MOL0     H89476   2.063  11.693   2.610  0.0921 -2.1432 -0.6000
  663MOL0     H89477   1.902  11.887   2.433 -0.1769 -2.9591 -0.9742
  663MOL0     H89478   1.843  11.817   2.589 -0.3338 -1.5480 -1.1908
  663MOL0     H89479   1.949  12.057   2.579 -1.2766 -0.0371  0.3403
  663MOL0     H89480   2.104  11.967   2.570  0.4711  0.4532  2.2707
  663MOL0     H89481   1.907  11.920   2.805 -0.5559  2.2746  3.5664
  663MOL0     H89482   2.073  11.869   2.787  0.7684  2.1604  4.4528
  663MOL0     H89483   2.111  12.128   2.769 -2.4467  0.2359 -1.3080
  663MOL0     H89484   2.099  12.049   2.927 -0.3749  1.9331  0.3807
  663MOL0     H89485   1.835  12.123   2.798 -0.9407  0.6394  1.8019
  663MOL0     H89486   1.935  12.257   2.826 -1.7477 -0.1700 -0.7897
  663MOL0     H89487   2.144  11.564   2.285  1.2372  0.9617 -1.1972
  663MOL0     H89488   2.339  11.469   2.194  0.7344 -0.3491 -0.1352
  663MOL0     H89489   2.564  11.145   2.090  1.9340  2.0920 -0.9799
  663MOL0     H89490   2.757  10.996   2.084 -0.5670 -2.7128  0.0265
  663MOL0     H89491   3.591  10.353   1.275  0.0453 -0.8301 -1.0295
  663MOL0     H89492   3.772  10.381   1.445 -1.4447 -2.0709 -0.0375
  663MOL0     H89493   4.134  10.365   1.625 -2.1342  0.7810 -1.9323
  663MOL0     H89494   4.278  10.459   1.809  1.7073  2.4303  2.2429
  663MOL0     H89495   4.541  10.610   1.933 -0.8287 -1.7245 -0.1256
  663MOL0     H89496   4.552  10.553   1.772  0.8268  0.4478  0.8883
  663MOL0     H89497   4.551  10.824   1.721 -3.2247  1.4659  1.1793
  663MOL0     H89498   4.699  10.741   1.776 -1.5867 -0.8973 -2.8629
  663MOL0     H89499   4.662  10.788   2.017 -0.5339 -1.5222  0.3390
  663MOL0     H89500   4.506  10.871   1.984  0.0643 -1.1492  2.1536
  663MOL0     H89501   4.702  11.043   1.995  1.3881  1.3755 -0.5267
  663MOL0     H89502   4.617  11.050   1.849 -0.4229 -0.6432 -0.2255
  663MOL0     H89503   5.007  10.918   1.745  0.3448  0.6810  1.4526
  663MOL0     H89504   4.362  10.810   1.585  2.5617 -0.9423  0.3498
  663MOL0     H89505   4.198  10.735   1.409 -0.5692  0.4091 -0.5322
  664MOL0     O89506   7.395   0.065   9.565 -0.0801 -0.0598  0.4710
  664MOL0     C89507   7.326  -0.030   9.533  0.1889 -0.2575 -0.5544
  664MOL0     O89508   7.186  -0.040   9.549 -0.0852 -0.1093  0.7484
  664MOL0     C89509   7.130   0.073   9.600 -0.7612  0.1437 -0.0725
  664MOL0     C89510   7.114   0.192   9.524 -0.2189  0.2523  0.0878
  664MOL0     C89511   7.050   0.306   9.577 -1.1169 -0.1623  0.2287
  664MOL0     C89512   7.021   0.307   9.719  0.7212 -0.1486  0.8918
  664MOL0     O89513   6.966   0.415   9.779  0.1050 -0.1559  0.0762
  664MOL0     C89514   7.025   0.544   9.756  0.4680  0.5942  1.5189
  664MOL0     C89515   6.980   0.639   9.855  0.2069  0.7258  0.0493
  664MOL0     C89516   6.829   0.626   9.886  0.7939  0.4064  0.1148
  664MOL0     C89517   6.769   0.769   9.879 -0.2151 -0.2972  0.1477
  664MOL0     C89518   6.612   0.752   9.921 -0.3694 -0.0154 -0.4603
  664MOL0     C89519   6.589   0.787  10.074 -0.3229 -0.5835  0.6607
  664MOL0     C89520   6.444   0.749  10.125  0.3139 -0.1081  0.6289
  664MOL0     C89521   6.324   0.817  10.054 -0.6933 -0.1714 -0.0623
  664MOL0     N89522   6.213   0.844  10.155  0.4284 -0.1562 -0.2376
  664MOL0     C89523   6.208   0.933  10.251  0.7302 -0.1610 -0.0999
  664MOL0     C89524   6.093   0.918  10.315  0.6750 -0.2543 -1.2979
  664MOL0     C89525   6.042   0.991  10.432 -0.5654 -0.2575  0.7064
  664MOL0     C89526   6.132   0.994  10.558 -0.4780 -0.6730  0.7200
  664MOL0     C89527   6.067   1.085  10.661 -0.3556 -0.1695  1.0487
  664MOL0     C89528   5.956   1.016  10.729  0.5214 -0.1655 -0.4082
  664MOL0     O89529   5.826   1.009  10.657  0.0324 -0.9065  0.1103
  664MOL0     C89530   5.711   1.005  10.734  0.4101 -0.0301  0.1968
  664MOL0     C89531   5.703   0.996  10.876  0.1605  0.0853 -0.9531
  664MOL0     C89532   5.572   0.976  10.940 -1.0654 -0.4481 -0.0619
  664MOL0     C89533   5.571   0.973  11.086  0.5508 -0.0507  0.0627
  664MOL0     C89534   5.454   0.966  10.864 -0.9432 -0.4332  0.0406
  664MOL0     C89535   5.315   0.931  10.910  0.6258  0.9127  0.3575
  664MOL0     O89536   5.293   0.883  11.040  0.5744 -0.1989 -0.0995
  664MOL0     C89537   5.178   0.878  11.107  0.3500 -0.1990  0.0898
  664MOL0     C89538   5.185   0.843  11.242 -0.8701  0.4935 -0.3043
  664MOL0     C89539   5.078   0.836  11.336 -0.3127  0.0280  0.6546
  664MOL0     C89540   4.949   0.862  11.283  0.0800  1.1403 -0.3236
  664MOL0     O89541   4.845   0.844  11.368  0.9216  1.6919  0.2572
  664MOL0     C89542   4.760   0.954  11.380  0.3368 -0.0292  0.8840
  664MOL0     C89543   4.672   0.933  11.501 -0.1193  0.2922 -0.4183
  664MOL0     C89544   4.533   0.992  11.499 -0.4062 -0.7739 -0.1033
  664MOL0     C89545   4.431   0.911  11.403 -0.1640  0.6799 -0.3328
  664MOL0     C89546   4.293   0.966  11.375 -0.2107 -0.2251 -0.2109
  664MOL0     C89547   4.189   0.955  11.494  0.9109  0.9605  0.1203
  664MOL0     C89548   4.048   1.003  11.437 -0.4582  0.4385 -0.4941
  664MOL0     C89549   3.987   0.898  11.330  1.0007  0.5583  0.0147
  664MOL0    Cl89550   3.810   0.926  11.306 -0.1026 -0.0006  0.0236
  664MOL0     C89551   4.935   0.901  11.149 -0.3178  0.0555  0.1033
  664MOL0     C89552   5.049   0.899  11.061  0.1795  0.1968 -0.1784
  664MOL0     O89553   5.222   0.946  10.828 -0.8195  0.0551  0.8979
  664MOL0     C89554   5.470   0.994  10.723  0.7238 -0.4008 -0.1876
  664MOL0     C89555   5.595   1.018  10.662 -0.3737 -0.0486 -0.3344
  664MOL0     N89556   6.017   0.831  10.248 -0.3595 -0.2590  0.2749
  664MOL0     N89557   6.090   0.778  10.160 -0.0424 -0.2022 -0.4893
  664MOL0     C89558   7.039   0.188   9.796 -1.3642  0.2018  0.0103
  664MOL0     C89559   7.093   0.073   9.740  0.4598  0.3630  0.5624
  664MOL0     C89560   7.392  -0.128   9.446 -0.3810  0.8356  0.7578
  664MOL0     C89561   7.522  -0.112   9.404 -0.5101  0.1003  0.2781
  664MOL0     C89562   7.592  -0.207   9.326 -0.7108  0.6952  0.4487
  664MOL0     C89563   7.535  -0.328   9.285  0.5168 -0.7161 -0.5615
  664MOL0     O89564   7.595  -0.416   9.204 -0.7978  0.4554  0.5283
  664MOL0     C89565   7.708  -0.362   9.133 -0.9661  1.0172 -0.3470
  664MOL0     C89566   7.739  -0.447   9.011 -0.7316  0.8704  0.0181
  664MOL0     C89567   7.712  -0.596   9.028 -0.3642 -0.0935  0.0714
  664MOL0     C89568   7.828  -0.662   9.113 -0.4082  0.6022  0.4107
  664MOL0     C89569   7.816  -0.809   9.134  0.6347  1.1106  0.1518
  664MOL0     C89570   7.790  -0.927   9.129 -0.2413 -0.0888 -0.4771
  664MOL0     C89571   7.399  -0.353   9.321  0.7289  0.9283 -0.6987
  664MOL0     C89572   7.334  -0.248   9.396  0.0940  0.5888  0.2920
  664MOL0     H89573   7.133   0.179   9.418 -0.7764 -1.1465  0.1280
  664MOL0     H89574   7.048   0.398   9.519  2.8075  0.2040  0.3458
  664MOL0     H89575   7.132   0.526   9.747 -0.0257 -2.0306 -0.3227
  664MOL0     H89576   6.996   0.588   9.660  1.8881 -0.6386  0.4849
  664MOL0     H89577   7.022   0.628   9.955  1.6758  3.2224 -0.2040
  664MOL0     H89578   7.007   0.740   9.823 -3.0934  1.1874 -1.7022
  664MOL0     H89579   6.777   0.572   9.806  1.9964  1.2364 -1.2898
  664MOL0     H89580   6.810   0.575   9.980  0.4354  2.2613  1.1049
  664MOL0     H89581   6.831   0.829   9.946  1.8339 -0.8755 -1.1717
  664MOL0     H89582   6.779   0.817   9.781 -2.4006  1.3610  0.6549
  664MOL0     H89583   6.542   0.823   9.875 -3.7664 -1.1850  2.5164
  664MOL0     H89584   6.602   0.644   9.906 -0.4228 -0.6358  3.2227
  664MOL0     H89585   6.664   0.729  10.129  0.4959 -1.4748 -1.2825
  664MOL0     H89586   6.601   0.893  10.096 -0.4675 -0.0455 -1.6116
  664MOL0     H89587   6.434   0.641  10.113 -0.6731 -0.2627  2.4028
  664MOL0     H89588   6.439   0.770  10.232  1.3742 -0.5403  0.7761
  664MOL0     H89589   6.283   0.767   9.966  2.0376  1.3638 -2.3754
  664MOL0     H89590   6.359   0.906  10.000  1.5817 -1.1625 -0.3407
  664MOL0     H89591   6.276   1.009  10.289 -0.7201  0.9117  0.4467
  664MOL0     H89592   6.008   1.091  10.402 -2.0903 -0.7566  0.6634
  664MOL0     H89593   5.953   0.941  10.470 -0.2945  0.7522  2.7979
  664MOL0     H89594   6.232   1.030  10.529 -0.6853 -1.2459 -0.8227
  664MOL0     H89595   6.141   0.891  10.593 -0.4294 -1.3845 -1.2204
  664MOL0     H89596   6.038   1.179  10.612  0.9599 -1.5445 -2.7841
  664MOL0     H89597   6.139   1.107  10.740 -2.7158  2.1280  2.7339
  664MOL0     H89598   5.939   1.082  10.815  1.0983  1.2325 -1.3412
  664MOL0     H89599   5.986   0.913  10.751 -0.6496 -0.4253  0.0854
  664MOL0     H89600   5.797   0.980  10.928  0.8786  0.5518 -2.0849
  664MOL0     H89601   5.652   1.024  11.138 -1.4602 -0.0692  3.4842
  664MOL0     H89602   5.475   1.005  11.128  0.3827 -3.0498  2.2447
  664MOL0     H89603   5.589   0.868  11.111  0.1586 -0.7333 -2.2107
  664MOL0     H89604   5.291   0.834  11.265 -0.7886  1.1565 -0.4095
  664MOL0     H89605   5.099   0.812  11.440 -0.8049  0.7627  0.9366
  664MOL0     H89606   4.820   1.045  11.385 -0.1287  0.2670  1.1720
  664MOL0     H89607   4.701   0.964  11.287 -0.6127  0.9380  1.5620
  664MOL0     H89608   4.671   0.831  11.541 -0.0649  1.1927  2.0347
  664MOL0     H89609   4.732   0.991  11.572  0.9033  1.0344 -1.8410
  664MOL0     H89610   4.535   1.092  11.454 -0.2079 -0.6473  0.1849
  664MOL0     H89611   4.499   0.990  11.603 -1.3507 -0.0227 -0.3811
  664MOL0     H89612   4.467   0.920  11.300 -2.6780 -0.7771 -1.4281
  664MOL0     H89613   4.426   0.808  11.439  0.5077  0.9985  0.6967
  664MOL0     H89614   4.239   0.913  11.296  2.0782  0.0499 -2.0740
  664MOL0     H89615   4.301   1.072  11.349  1.8153 -0.3049 -0.0176
  664MOL0     H89616   4.174   0.849  11.517 -0.6880  1.0263 -0.4910
  664MOL0     H89617   4.226   1.011  11.580  1.6011  2.3112 -1.0243
  664MOL0     H89618   4.047   1.101  11.388  0.0137 -0.1031 -1.6227
  664MOL0     H89619   3.976   1.007  11.519 -0.5400 -1.5626 -0.4190
  664MOL0     H89620   3.996   0.796  11.369  0.2613 -0.0798 -1.4280
  664MOL0     H89621   4.038   0.912  11.234  0.3889  0.1377 -0.3780
  664MOL0     H89622   4.831   0.923  11.123 -0.6835 -3.1697 -1.6727
  664MOL0     H89623   5.024   0.920  10.958  0.6435  0.4651 -0.2388
  664MOL0     H89624   5.379   0.990  10.663  0.0004  2.7034  0.4902
  664MOL0     H89625   5.607   1.023  10.555 -1.0064  0.5972 -0.3810
  664MOL0     H89626   7.021   0.180   9.903  1.7802  1.6856  0.7773
  664MOL0     H89627   7.111  -0.016   9.801 -1.1212  0.3652  1.0893
  664MOL0     H89628   7.561  -0.012   9.423 -0.0657 -0.4030  2.2786
  664MOL0     H89629   7.689  -0.189   9.281  0.9900 -3.0297  2.1976
  664MOL0     H89630   7.698  -0.258   9.099  1.1333  1.2030 -0.5849
  664MOL0     H89631   7.794  -0.378   9.199  0.0183 -3.9652 -2.3982
  664MOL0     H89632   7.834  -0.424   8.961  0.8044 -0.5837  2.1157
  664MOL0     H89633   7.675  -0.411   8.930  2.2789  2.2264 -1.9930
  664MOL0     H89634   7.709  -0.657   8.937 -3.0002 -0.5558  0.3958
  664MOL0     H89635   7.617  -0.623   9.075  0.2557 -0.0071  1.4256
  664MOL0     H89636   7.839  -0.630   9.217 -0.6523  4.3496 -0.5890
  664MOL0     H89637   7.924  -0.637   9.068 -0.5556  2.6247  1.1087
  664MOL0     H89638   7.778  -1.033   9.134  1.9311 -0.3447  0.4448
  664MOL0     H89639   7.357  -0.448   9.290 -0.4613  0.0059  3.2146
  664MOL0     H89640   7.232  -0.275   9.425 -0.3832 -1.2213 -2.6331
  665MOL0     O89641   5.890   6.202   0.604 -0.1280  0.0262 -0.1146
  665MOL0     C89642   5.889   6.187   0.726  0.0737  0.0514  0.0884
  665MOL0     O89643   5.783   6.196   0.810 -0.4621  0.1717  0.0814
  665MOL0     C89644   5.653   6.184   0.776  0.1832  0.3409  0.1776
  665MOL0     C89645   5.556   6.273   0.822  0.0827 -0.5016  0.7563
  665MOL0     C89646   5.422   6.254   0.788 -0.1862  0.3988  0.0921
  665MOL0     C89647   5.381   6.147   0.709  0.1806 -0.3272 -0.8125
  665MOL0     O89648   5.247   6.142   0.673  0.2650  0.1732 -0.5150
  665MOL0     C89649   5.191   6.023   0.640 -0.8903 -0.5423 -0.1967
  665MOL0     C89650   5.040   6.026   0.637  0.1900  0.0356  0.4252
  665MOL0     C89651   4.992   6.007   0.784 -0.9682  0.2721  0.4088
  665MOL0     C89652   4.945   6.139   0.848  0.1877 -0.1872 -0.6356
  665MOL0     C89653   4.796   6.172   0.824 -0.7085 -0.0384  0.1415
  665MOL0     C89654   4.700   6.066   0.885 -0.0107 -0.6100 -0.1264
  665MOL0     C89655   4.566   6.135   0.904  0.7087  1.0352  0.1518
  665MOL0     C89656   4.474   6.036   0.971 -0.1252  0.2046 -0.1689
  665MOL0     N89657   4.337   6.062   0.931 -0.0299 -0.1628  0.7024
  665MOL0     C89658   4.263   6.005   0.833  0.4529  0.2674 -0.0843
  665MOL0     C89659   4.147   6.073   0.832  0.4897  0.0014  0.1822
  665MOL0     C89660   4.021   6.041   0.753  0.2911  0.3673  0.4039
  665MOL0     C89661   4.034   6.051   0.603  0.4592  0.2322 -0.6687
  665MOL0     C89662   4.071   6.195   0.551  0.3702 -1.5597  0.2600
  665MOL0     C89663   3.970   6.305   0.571  0.4322  0.5875 -0.4189
  665MOL0     O89664   3.856   6.283   0.490 -0.1124 -0.0107  0.0304
  665MOL0     C89665   3.747   6.369   0.499  0.2739 -0.9997 -0.9918
  665MOL0     C89666   3.628   6.331   0.447  0.6304  0.4287  0.7222
  665MOL0     C89667   3.515   6.410   0.448 -0.9816  0.5013 -0.0857
  665MOL0     C89668   3.385   6.351   0.404 -0.0190 -0.0090  0.5411
  665MOL0     C89669   3.523   6.547   0.494 -0.5378  0.1542 -0.0678
  665MOL0     C89670   3.413   6.650   0.482 -0.5783  0.2778 -0.0986
  665MOL0     O89671   3.409   6.746   0.585  0.6969  0.3739  0.3293
  665MOL0     C89672   3.314   6.848   0.563 -0.6623 -0.5718  0.0062
  665MOL0     C89673   3.324   6.936   0.457  0.6330 -0.7292 -0.0370
  665MOL0     C89674   3.233   7.052   0.462 -0.2868 -0.4681  0.5925
  665MOL0     C89675   3.136   7.075   0.556  0.1853 -0.0530  0.7619
  665MOL0     O89676   3.050   7.184   0.535 -0.3583 -0.6613  0.2887
  665MOL0     C89677   2.931   7.177   0.611 -0.1556 -0.4295 -0.0341
  665MOL0     C89678   2.854   7.273   0.524 -0.3320  0.3926  0.5242
  665MOL0     C89679   2.920   7.420   0.507  0.3548 -0.4606  0.1553
  665MOL0     C89680   2.825   7.530   0.474  0.1216 -0.5793 -0.0326
  665MOL0     C89681   2.735   7.573   0.590  0.7807  0.6213  0.2135
  665MOL0     C89682   2.651   7.688   0.545  0.8630 -0.3349 -0.6016
  665MOL0     C89683   2.558   7.728   0.659 -0.2167 -1.1026  0.2900
  665MOL0     C89684   2.504   7.868   0.637 -0.5800  0.6403  0.6868
  665MOL0    Cl89685   2.642   7.995   0.619  0.0826 -0.2524  0.4894
  665MOL0     C89686   3.135   6.984   0.658 -0.2605  0.6564 -0.1927
  665MOL0     C89687   3.213   6.871   0.660  1.0466 -0.1729  0.8116
  665MOL0     O89688   3.354   6.659   0.372  0.7178  0.6875  0.1402
  665MOL0     C89689   3.644   6.590   0.551 -0.3002  0.4094 -0.6464
  665MOL0     C89690   3.753   6.499   0.559  0.2352  0.1636  0.0184
  665MOL0     N89691   4.142   6.174   0.922  0.6927 -0.3072  0.3102
  665MOL0     N89692   4.259   6.161   0.979  0.5428 -0.2449 -0.3704
  665MOL0     C89693   5.480   6.062   0.657  0.1448  0.3612 -0.2098
  665MOL0     C89694   5.612   6.084   0.693  0.2485  0.1550 -0.1990
  665MOL0     C89695   6.016   6.152   0.790  0.7151  0.3858 -0.2968
  665MOL0     C89696   6.110   6.067   0.732 -0.3461 -0.2671 -0.1716
  665MOL0     C89697   6.218   6.021   0.815  0.0514 -0.0151 -0.7948
  665MOL0     C89698   6.242   6.079   0.947  0.2919 -0.2202  0.7644
  665MOL0     O89699   6.349   6.035   1.029 -0.2976 -0.6921 -0.0237
  665MOL0     C89700   6.462   5.969   0.962 -0.5510 -0.0629 -0.6082
  665MOL0     C89701   6.572   5.937   1.066  0.4270  0.4430 -0.7039
  665MOL0     C89702   6.662   6.053   1.087 -0.2503 -0.1198  0.5065
  665MOL0     C89703   6.629   6.141   1.210 -0.9066 -0.4513  0.4948
  665MOL0     C89704   6.660   6.064   1.326 -0.9189  0.5730  0.0014
  665MOL0     C89705   6.678   5.991   1.431 -0.2121 -0.7235 -0.4816
  665MOL0     C89706   6.158   6.176   0.992  0.0999  0.9993  0.0623
  665MOL0     C89707   6.046   6.206   0.916  0.2314 -0.6180 -0.7663
  665MOL0     H89708   5.581   6.360   0.882 -1.1500  0.7091 -0.4018
  665MOL0     H89709   5.364   6.318   0.854  2.4208  0.3575  2.6279
  665MOL0     H89710   5.220   5.999   0.538 -5.3799 -2.2583 -1.3325
  665MOL0     H89711   5.229   5.940   0.701 -0.1809 -2.2502 -2.8261
  665MOL0     H89712   4.989   6.109   0.586  1.8135  0.5059 -0.5207
  665MOL0     H89713   5.002   5.937   0.587 -0.4974  1.2336 -1.3059
  665MOL0     H89714   4.911   5.934   0.793 -0.5079 -0.6222 -2.0043
  665MOL0     H89715   5.084   5.972   0.832  0.2320  2.0655 -0.4762
  665MOL0     H89716   4.942   6.142   0.958 -3.0762  3.6082 -0.5797
  665MOL0     H89717   5.004   6.216   0.797 -0.4473  0.3277 -0.6108
  665MOL0     H89718   4.776   6.273   0.860 -1.7355  0.9202 -2.8217
  665MOL0     H89719   4.782   6.173   0.716  0.9041 -0.6759 -0.1125
  665MOL0     H89720   4.690   5.978   0.820  0.4764 -2.7054  2.4477
  665MOL0     H89721   4.736   6.024   0.979 -0.6055 -0.2986  0.2420
  665MOL0     H89722   4.561   6.221   0.972  1.2950 -0.8901  2.8013
  665MOL0     H89723   4.532   6.160   0.803 -2.3850 -0.0249  0.8233
  665MOL0     H89724   4.467   6.050   1.079  3.7810 -3.5722  0.8473
  665MOL0     H89725   4.504   5.932   0.957 -0.8794 -0.0090 -0.2769
  665MOL0     H89726   4.289   5.917   0.775  1.2405  0.6184 -0.2717
  665MOL0     H89727   3.982   5.941   0.774 -1.4157  1.1507  1.1523
  665MOL0     H89728   3.936   6.103   0.784 -0.0782  1.1021 -1.8567
  665MOL0     H89729   3.934   6.025   0.565  1.0587  0.3900 -2.4314
  665MOL0     H89730   4.099   5.970   0.571 -1.9710 -0.5482 -4.1697
  665MOL0     H89731   4.085   6.205   0.443 -3.2307  3.1770 -0.1135
  665MOL0     H89732   4.160   6.225   0.607  0.0676 -0.6929  0.2868
  665MOL0     H89733   4.019   6.400   0.550  4.2667 -0.4838  2.4163
  665MOL0     H89734   3.934   6.292   0.674  0.1879 -0.2631 -0.6004
  665MOL0     H89735   3.608   6.227   0.422 -1.2773  0.7164  0.9167
  665MOL0     H89736   3.380   6.253   0.453  0.7504  0.4295  1.5117
  665MOL0     H89737   3.292   6.403   0.426 -1.1401 -1.6225 -0.1626
  665MOL0     H89738   3.390   6.326   0.297 -2.4041 -5.4098  1.3486
  665MOL0     H89739   3.386   6.923   0.368  1.3972  1.7515  0.0356
  665MOL0     H89740   3.225   7.121   0.379  2.7057  1.6438  1.8562
  665MOL0     H89741   2.871   7.088   0.592 -0.1119 -0.4671  0.0062
  665MOL0     H89742   2.942   7.215   0.713 -0.4501  2.4638 -0.9799
  665MOL0     H89743   2.839   7.229   0.425 -0.0333  0.5270  0.4163
  665MOL0     H89744   2.752   7.270   0.562 -0.2799  1.1972  0.7341
  665MOL0     H89745   3.002   7.431   0.435 -0.9702 -0.4203 -1.4033
  665MOL0     H89746   2.955   7.448   0.606 -4.2537 -0.4306  2.0063
  665MOL0     H89747   2.887   7.615   0.443 -0.7559  0.1781  0.2532
  665MOL0     H89748   2.765   7.516   0.383  0.2107  0.8220 -0.3319
  665MOL0     H89749   2.801   7.606   0.671 -1.4294  1.6764  1.6747
  665MOL0     H89750   2.670   7.495   0.629 -0.2114  2.4927  2.5226
  665MOL0     H89751   2.708   7.769   0.499 -0.7032  0.2288 -1.6488
  665MOL0     H89752   2.583   7.658   0.464  0.9757  0.1543 -0.8837
  665MOL0     H89753   2.607   7.734   0.756 -2.3537 -0.2543  1.3548
  665MOL0     H89754   2.469   7.665   0.659 -0.7568 -0.6044 -3.3426
  665MOL0     H89755   2.436   7.890   0.720  0.1534  0.7842  1.2564
  665MOL0     H89756   2.442   7.857   0.548  0.5883 -0.4262 -0.0186
  665MOL0     H89757   3.064   6.995   0.739 -1.2794  0.8955 -1.0812
  665MOL0     H89758   3.213   6.806   0.747  1.5059 -0.4513  0.6107
  665MOL0     H89759   3.656   6.687   0.598 -1.3372  2.2844 -3.8946
  665MOL0     H89760   3.844   6.541   0.601  1.6524 -2.4748 -0.2051
  665MOL0     H89761   5.442   5.982   0.594 -0.9973  1.2145 -0.6376
  665MOL0     H89762   5.691   6.022   0.653  1.5191  1.7407 -0.2667
  665MOL0     H89763   6.098   6.035   0.629  0.8233  1.8868 -1.0436
  665MOL0     H89764   6.285   5.946   0.773  0.3752  0.2032 -0.6710
  665MOL0     H89765   6.422   5.870   0.935 -1.8613  0.3361 -0.2018
  665MOL0     H89766   6.490   6.020   0.870 -1.5688 -1.7704 -1.9378
  665MOL0     H89767   6.623   5.844   1.040 -2.1882 -0.8290 -1.6491
  665MOL0     H89768   6.514   5.911   1.155 -0.8714 -2.1516 -2.1973
  665MOL0     H89769   6.677   6.112   0.996  1.3912  2.5481  2.3963
  665MOL0     H89770   6.763   6.019   1.112  1.1918  2.4993 -1.2025
  665MOL0     H89771   6.523   6.166   1.211 -0.0929  3.9043  1.5536
  665MOL0     H89772   6.689   6.231   1.194 -2.6050  0.1552 -3.5739
  665MOL0     H89773   6.695   5.925   1.514 -1.0325 -1.2047 -0.6851
  665MOL0     H89774   6.168   6.220   1.091  0.8936  1.5429 -0.2532
  665MOL0     H89775   5.969   6.271   0.956  0.8937  0.0949 -0.6255
  666MOL0     O89776  10.922   8.345   5.066 -0.1255 -0.6297 -0.2771
  666MOL0     C89777  10.854   8.445   5.043 -0.4465  0.2248  0.4876
  666MOL0     O89778  10.906   8.567   5.010  0.9081 -0.3482  0.3222
  666MOL0     C89779  11.041   8.579   4.979 -0.0314  0.0163 -0.5437
  666MOL0     C89780  11.102   8.699   5.021  1.1443 -0.6742  0.8453
  666MOL0     C89781  11.235   8.715   4.977 -0.3597 -0.6112 -0.0147
  666MOL0     C89782  11.299   8.629   4.889 -0.4718 -0.3896 -0.2123
  666MOL0     O89783  11.424   8.652   4.836 -0.0907 -0.5359  1.7332
  666MOL0     C89784  11.520   8.729   4.933 -0.7300  0.2636  0.3271
  666MOL0     C89785  11.660   8.663   4.936 -0.7370  0.1298  0.2303
  666MOL0     C89786  11.728   8.665   4.802 -0.0986 -0.5333 -0.4659
  666MOL0     C89787  11.876   8.685   4.793  0.3392 -0.1166  0.9011
  666MOL0     C89788  11.936   8.636   4.654 -1.0745 -0.3574  0.3659
  666MOL0     C89789  12.076   8.682   4.638 -0.0412 -0.8882  0.3729
  666MOL0     C89790  12.135   8.652   4.506  0.1959 -0.4601  0.2555
  666MOL0     C89791  12.289   8.666   4.508  0.5065 -0.8127  0.0837
  666MOL0     N89792  12.310   8.803   4.541 -0.5405 -1.1336 -0.2585
  666MOL0     C89793  12.330   8.902   4.438  0.3923 -1.0660 -0.0796
  666MOL0     C89794  12.358   9.015   4.512  0.3108  0.2958  0.1854
  666MOL0     C89795  12.393   9.153   4.470 -0.3910  0.3547 -0.7282
  666MOL0     C89796  12.497   9.163   4.348 -1.0152 -0.4720 -0.1593
  666MOL0     C89797  12.643   9.154   4.397  0.6306  0.2797  0.0036
  666MOL0     C89798  12.680   9.012   4.429  0.1265  0.0915  0.0937
  666MOL0     O89799  12.686   8.950   4.302 -0.5562  0.0308 -0.5130
  666MOL0     C89800  12.749   8.830   4.308 -0.0493  0.3664 -0.0019
  666MOL0     C89801  12.866   8.816   4.233  1.6328 -0.9684 -0.3035
  666MOL0     C89802  12.958   8.712   4.248 -0.3958  1.1661 -0.0105
  666MOL0     C89803  13.085   8.707   4.174  0.1341  0.5147  0.1506
  666MOL0     C89804  12.924   8.608   4.340  0.0551 -0.0359  0.3949
  666MOL0     C89805  13.007   8.491   4.382 -0.7185  0.3103  0.2880
  666MOL0     O89806  12.951   8.410   4.477 -0.1105 -0.0006  0.0445
  666MOL0     C89807  13.029   8.302   4.523 -0.0954 -0.5987 -0.2762
  666MOL0     C89808  13.091   8.324   4.643 -0.5069  0.3106  0.5679
  666MOL0     C89809  13.168   8.222   4.698  0.1664 -0.5988  0.0317
  666MOL0     C89810  13.192   8.099   4.637  0.5028 -0.2208 -0.1094
  666MOL0     O89811  13.268   8.004   4.704 -0.1872 -0.6430 -0.1822
  666MOL0     C89812  13.333   7.894   4.636 -0.5524 -0.0216  0.2781
  666MOL0     C89813  13.439   7.829   4.723  0.2615  0.0101  0.1143
  666MOL0     C89814  13.563   7.921   4.740  0.2471 -0.2605  0.3120
  666MOL0     C89815  13.689   7.858   4.799 -0.1781 -0.1838 -0.1144
  666MOL0     C89816  13.792   7.968   4.819 -0.4046 -0.3570  0.4568
  666MOL0     C89817  13.935   7.923   4.861  0.5371  0.0785  0.2116
  666MOL0     C89818  14.037   8.033   4.830 -0.8252  0.2105  0.1326
  666MOL0     C89819  14.002   8.175   4.878  0.2874  0.3857  0.1595
  666MOL0    Cl89820  13.981   8.180   5.055 -0.1995 -0.3657  0.0972
  666MOL0     C89821  13.124   8.076   4.514 -0.5938 -0.3273  0.0319
  666MOL0     C89822  13.042   8.182   4.463 -0.2121 -0.7907  0.3138
  666MOL0     O89823  13.120   8.471   4.335  0.6801 -1.0992  0.1597
  666MOL0     C89824  12.793   8.613   4.400 -0.8575 -0.6878  0.3075
  666MOL0     C89825  12.711   8.732   4.393  0.2089  0.3848  0.3096
  666MOL0     N89826  12.345   8.984   4.649  0.1949 -0.2900 -0.1969
  666MOL0     N89827  12.320   8.862   4.662 -0.9257 -0.4635 -0.3816
  666MOL0     C89828  11.235   8.516   4.852 -0.1961  0.3929  0.1189
  666MOL0     C89829  11.107   8.489   4.893 -0.1198  0.4665  0.3342
  666MOL0     C89830  10.714   8.432   5.063  0.0086 -0.2909 -0.0239
  666MOL0     C89831  10.630   8.547   5.090 -0.0524  0.5518  0.8941
  666MOL0     C89832  10.495   8.543   5.118 -0.0285 -0.3961 -0.0602
  666MOL0     C89833  10.432   8.420   5.129 -0.2561 -0.7945  0.3559
  666MOL0     O89834  10.300   8.396   5.150  1.0235 -0.2592  0.4407
  666MOL0     C89835  10.194   8.484   5.100 -0.5935  0.9275  0.3347
  666MOL0     C89836  10.071   8.487   5.187  0.0856  0.4109  0.2218
  666MOL0     C89837  10.111   8.538   5.323  0.5339 -0.5007  0.1812
  666MOL0     C89838   9.997   8.562   5.426  0.0847  0.5031  0.1954
  666MOL0     C89839  10.025   8.660   5.529  0.7659 -0.4521 -0.3131
  666MOL0     C89840  10.038   8.748   5.610  0.3595  0.2523  0.5791
  666MOL0     C89841  10.514   8.307   5.107 -0.0468  0.3475 -0.0837
  666MOL0     C89842  10.645   8.313   5.072 -0.3766  0.3847  0.1642
  666MOL0     H89843  11.047   8.773   5.078  2.6210 -1.6144  3.6891
  666MOL0     H89844  11.296   8.801   5.003  0.7990 -1.6137  0.6438
  666MOL0     H89845  11.524   8.833   4.901 -0.1327  0.2793  0.4390
  666MOL0     H89846  11.489   8.730   5.037 -1.9447  2.1316 -0.0135
  666MOL0     H89847  11.722   8.736   4.988  0.7932 -0.9053 -0.0769
  666MOL0     H89848  11.665   8.573   4.998 -0.3916 -0.8007 -1.0949
  666MOL0     H89849  11.696   8.578   4.744  3.6411 -1.9625 -0.6667
  666MOL0     H89850  11.689   8.752   4.750 -2.2632 -0.1702  1.5585
  666MOL0     H89851  11.892   8.794   4.792 -0.2537  0.0252 -1.9372
  666MOL0     H89852  11.941   8.650   4.874  0.3900  0.1948  0.9986
  666MOL0     H89853  11.923   8.528   4.648 -4.1480  0.0245 -1.8490
  666MOL0     H89854  11.881   8.680   4.571 -0.1565  1.7138  0.7651
  666MOL0     H89855  12.077   8.788   4.664 -1.4916 -1.3266  2.4655
  666MOL0     H89856  12.125   8.632   4.722 -3.1123 -0.6064  2.5307
  666MOL0     H89857  12.111   8.548   4.480  1.8660 -1.1328  1.2044
  666MOL0     H89858  12.088   8.722   4.437  1.8137 -0.5880 -1.0445
  666MOL0     H89859  12.338   8.648   4.412  0.9158  1.5291 -0.2190
  666MOL0     H89860  12.333   8.606   4.588 -0.6898 -4.9099 -2.0768
  666MOL0     H89861  12.332   8.898   4.330  1.7881 -0.1832 -0.1019
  666MOL0     H89862  12.300   9.206   4.448 -0.5306 -0.5524 -2.5652
  666MOL0     H89863  12.438   9.198   4.559 -0.6603 -0.7609 -0.0174
  666MOL0     H89864  12.481   9.259   4.296 -0.6891 -0.9125 -1.0957
  666MOL0     H89865  12.480   9.083   4.276  4.2226 -3.0623  0.9703
  666MOL0     H89866  12.665   9.213   4.487 -0.4129  1.6438 -0.5824
  666MOL0     H89867  12.706   9.200   4.321  0.5524  1.0482  0.3878
  666MOL0     H89868  12.615   8.968   4.506  0.5844  0.6966  0.8416
  666MOL0     H89869  12.783   9.012   4.465 -0.2426 -0.6654  1.2186
  666MOL0     H89870  12.893   8.901   4.171 -4.0522  1.4667 -0.1356
  666MOL0     H89871  13.098   8.610   4.125 -2.6038 -1.7884  3.5433
  666MOL0     H89872  13.099   8.790   4.104 -1.5916  0.6775 -0.0401
  666MOL0     H89873  13.167   8.718   4.246 -1.7623  0.8723  2.3582
  666MOL0     H89874  13.096   8.419   4.696  2.8591 -0.1872  1.3893
  666MOL0     H89875  13.213   8.231   4.796 -3.1200  0.3286  1.5708
  666MOL0     H89876  13.264   7.812   4.609 -1.3527  0.1006  1.8197
  666MOL0     H89877  13.371   7.930   4.540  1.7396  1.1550  1.5584
  666MOL0     H89878  13.394   7.805   4.820  0.0763 -1.1929 -0.2581
  666MOL0     H89879  13.468   7.731   4.684 -1.1213 -0.6879  0.7582
  666MOL0     H89880  13.541   7.999   4.813 -0.8117  0.5068 -0.7974
  666MOL0     H89881  13.594   7.968   4.647  4.8947 -1.4511  0.9935
  666MOL0     H89882  13.674   7.812   4.898  1.5469  0.0712  0.3005
  666MOL0     H89883  13.721   7.773   4.738 -0.5071 -2.4261  2.6243
  666MOL0     H89884  13.752   8.042   4.888  0.5763 -1.0675  1.8221
  666MOL0     H89885  13.800   8.013   4.719 -4.8603 -0.3803 -0.1474
  666MOL0     H89886  13.932   7.906   4.969 -1.1064  1.3201  0.3973
  666MOL0     H89887  13.961   7.828   4.814 -0.1266  1.2842 -2.8246
  666MOL0     H89888  14.074   8.034   4.727  2.2486  3.9665  1.0186
  666MOL0     H89889  14.128   7.998   4.879  0.9690  1.7840 -1.8609
  666MOL0     H89890  13.915   8.213   4.823  0.6936 -0.0787 -0.8394
  666MOL0     H89891  14.086   8.232   4.838  0.8554 -1.5043 -1.5591
  666MOL0     H89892  13.141   7.980   4.468 -0.0201 -0.9617  1.5202
  666MOL0     H89893  12.985   8.168   4.371  2.3718  0.9469 -1.7078
  666MOL0     H89894  12.748   8.537   4.463  0.8142 -1.7231  0.3095
  666MOL0     H89895  12.627   8.750   4.460  0.8142 -0.2605  1.2682
  666MOL0     H89896  11.275   8.437   4.789 -2.6944 -1.5457  0.8047
  666MOL0     H89897  11.066   8.395   4.856  3.3638 -0.2033 -2.4429
  666MOL0     H89898  10.675   8.645   5.086 -0.3021  0.6789 -2.4905
  666MOL0     H89899  10.445   8.639   5.123  0.7123  0.0467 -0.8828
  666MOL0     H89900  10.233   8.583   5.075 -1.7448  0.9893 -1.4046
  666MOL0     H89901  10.160   8.447   5.003  2.7902  0.7232 -0.9182
  666MOL0     H89902  10.026   8.390   5.209  1.9690  0.0350  3.0067
  666MOL0     H89903   9.997   8.556   5.146 -3.3402 -0.6305  4.0824
  666MOL0     H89904  10.171   8.628   5.307 -0.5976  0.2859  0.2331
  666MOL0     H89905  10.172   8.467   5.379 -1.3384  0.7663  4.1947
  666MOL0     H89906   9.984   8.458   5.457  1.4887 -0.6593 -2.7486
  666MOL0     H89907   9.907   8.603   5.380 -2.1890 -3.9548  0.1390
  666MOL0     H89908  10.040   8.833   5.675  3.2199 -0.0781  1.0737
  666MOL0     H89909  10.474   8.206   5.095 -0.3001  0.8064 -4.9348
  666MOL0     H89910  10.706   8.225   5.058  1.7245  1.9869 -1.6496
  667MOL0     O89911   1.775   2.442   9.889  0.3259  0.2118 -0.0682
  667MOL0     C89912   1.662   2.391   9.863 -1.0417  0.1299 -0.2596
  667MOL0     O89913   1.610   2.285   9.918 -0.3526 -0.3793  0.4293
  667MOL0     C89914   1.660   2.241  10.038  0.2098 -0.1534  0.3702
  667MOL0     C89915   1.671   2.108  10.055  0.1932 -0.3546 -0.7954
  667MOL0     C89916   1.716   2.051  10.180  0.0625  0.1487  0.1606
  667MOL0     C89917   1.753   2.141  10.281 -0.4488  0.3995  0.0120
  667MOL0     O89918   1.795   2.104  10.412  0.8974  0.0233 -0.3845
  667MOL0     C89919   1.823   1.967  10.437 -0.2687 -0.3604 -0.2918
  667MOL0     C89920   1.865   1.945  10.582 -0.1140  0.2916 -0.5158
  667MOL0     C89921   1.760   1.995  10.677  0.1669  0.3607 -2.0353
  667MOL0     C89922   1.804   1.968  10.823  0.2429  0.5560 -0.1593
  667MOL0     C89923   1.701   2.018  10.926  0.2689 -0.0844  0.0101
  667MOL0     C89924   1.758   2.042  11.071  0.7744 -1.2225  0.3889
  667MOL0     C89925   1.845   1.927  11.122 -0.0219 -0.1473  0.6171
  667MOL0     C89926   1.902   1.942  11.264 -0.0807  0.4175  0.2171
  667MOL0     N89927   1.799   1.944  11.369 -0.7640  0.4129  0.5360
  667MOL0     C89928   1.680   1.884  11.369  0.2956  0.5598 -0.0964
  667MOL0     C89929   1.619   1.918  11.485 -0.8463 -0.8538  0.2204
  667MOL0     C89930   1.490   1.882  11.546  0.7470 -0.8287  0.2919
  667MOL0     C89931   1.455   1.734  11.509 -0.3157  0.0959 -0.1784
  667MOL0     C89932   1.329   1.682  11.565  0.0898 -0.1273  0.4985
  667MOL0     C89933   1.206   1.773  11.576  0.7201  0.1414 -0.6043
  667MOL0     O89934   1.084   1.689  11.585 -0.1706 -0.1159 -0.0664
  667MOL0     C89935   0.975   1.734  11.661 -0.5099 -0.1080 -0.0858
  667MOL0     C89936   0.856   1.672  11.636  0.5250 -0.5466  0.4781
  667MOL0     C89937   0.740   1.699  11.703  0.7449 -0.0555 -0.8533
  667MOL0     C89938   0.616   1.615  11.664 -0.2804  0.1774  0.1917
  667MOL0     C89939   0.739   1.810  11.785  0.6176 -0.3437 -1.2832
  667MOL0     C89940   0.614   1.874  11.834  0.1074 -0.8380 -0.5130
  667MOL0     O89941   0.527   1.931  11.744  0.2026 -0.1710  0.8533
  667MOL0     C89942   0.424   2.011  11.780  0.6290  0.1414  0.5517
  667MOL0     C89943   0.344   2.003  11.897  0.1518  0.0686  0.4850
  667MOL0     C89944   0.225   2.083  11.913  0.5146 -0.6265  0.4363
  667MOL0     C89945   0.179   2.172  11.810  0.1497 -0.2891 -0.1971
  667MOL0     O89946   0.059   2.241  11.831 -1.2363  0.5084 -0.1152
  667MOL0     C89947  -0.024   2.257  11.719 -0.2371  0.1577 -0.7171
  667MOL0     C89948  -0.147   2.156  11.716  0.1678 -1.0647 -1.1676
  667MOL0     C89949  -0.100   2.010  11.738  0.5927  0.5184 -0.0580
  667MOL0     C89950  -0.048   1.941  11.618 -0.2634 -0.3994  0.7476
  667MOL0     C89951   0.017   1.802  11.633 -0.1326  0.7148 -0.4717
  667MOL0     C89952   0.141   1.797  11.715 -0.4766 -0.0184 -0.6380
  667MOL0     C89953   0.220   1.666  11.699  0.1677 -0.5476 -0.4430
  667MOL0     C89954   0.266   1.629  11.556  1.1044  0.7274  0.5611
  667MOL0    Cl89955   0.337   1.766  11.493  0.1532 -0.1127  0.2072
  667MOL0     C89956   0.254   2.178  11.692 -0.1352  0.0045 -0.0975
  667MOL0     C89957   0.368   2.094  11.679  1.0390  0.0476  0.0212
  667MOL0     O89958   0.596   1.869  11.951  0.3888 -0.1645 -0.1270
  667MOL0     C89959   0.861   1.869  11.820  0.6822  0.2563  0.4475
  667MOL0     C89960   0.977   1.830  11.760  0.5657  0.5423  0.4014
  667MOL0     N89961   1.712   2.001  11.556  0.1283 -0.3015  0.7701
  667MOL0     N89962   1.812   2.016  11.481 -0.1147  0.5459  0.0126
  667MOL0     C89963   1.734   2.277  10.271 -0.1247 -0.2812  0.4105
  667MOL0     C89964   1.697   2.322  10.148  0.1534  0.1242 -0.1184
  667MOL0     C89965   1.599   2.456   9.742 -1.0202  0.5021 -1.0749
  667MOL0     C89966   1.678   2.547   9.666 -0.0364 -0.0272 -0.4751
  667MOL0     C89967   1.620   2.625   9.564  0.7349  0.1805 -0.9830
  667MOL0     C89968   1.482   2.610   9.538  0.8849 -0.0461 -0.4881
  667MOL0     O89969   1.405   2.684   9.444  0.4386  0.4010  1.0492
  667MOL0     C89970   1.481   2.773   9.362  0.5302  0.0781  0.2082
  667MOL0     C89971   1.389   2.834   9.264 -0.7343  0.6536 -0.8031
  667MOL0     C89972   1.271   2.920   9.326 -0.5129  0.6537  0.1279
  667MOL0     C89973   1.178   2.971   9.215 -0.5925  0.2421  1.3545
  667MOL0     C89974   1.225   3.098   9.153  0.2303 -0.1860  0.6508
  667MOL0     C89975   1.241   3.208   9.104  0.5656  0.4761 -0.2318
  667MOL0     C89976   1.413   2.520   9.614  0.6314  0.9052 -0.2038
  667MOL0     C89977   1.469   2.441   9.714  1.1837 -0.2311  0.8451
  667MOL0     H89978   1.642   2.032   9.984  0.3861  0.1735 -1.4583
  667MOL0     H89979   1.711   1.944  10.191 -2.5787  0.3210  1.3134
  667MOL0     H89980   1.739   1.900  10.419  2.1166 -3.4016 -0.9435
  667MOL0     H89981   1.900   1.935  10.366  1.2704  1.5663  0.3964
  667MOL0     H89982   1.898   1.842  10.595  0.7820  0.7333  0.9634
  667MOL0     H89983   1.961   1.993  10.605  0.3655 -1.0090  0.2705
  667MOL0     H89984   1.744   2.103  10.670  4.1375  1.2404 -0.2092
  667MOL0     H89985   1.670   1.934  10.663  0.5656 -0.0115 -3.0021
  667MOL0     H89986   1.834   1.864  10.841 -2.6234 -0.0279  2.1914
  667MOL0     H89987   1.896   2.023  10.843  0.6029 -0.0594 -0.0801
  667MOL0     H89988   1.655   2.111  10.891 -1.1395 -0.9573 -0.5459
  667MOL0     H89989   1.623   1.941  10.934  0.1320  0.2386  2.5463
  667MOL0     H89990   1.819   2.132  11.079 -1.2033  0.0890  1.3093
  667MOL0     H89991   1.676   2.058  11.141 -0.7134  1.4753 -1.8001
  667MOL0     H89992   1.791   1.833  11.108 -0.1067 -0.1955  1.2568
  667MOL0     H89993   1.934   1.927  11.057 -0.6284  0.5981 -0.2450
  667MOL0     H89994   1.973   2.024  11.281  0.1370  0.3490 -0.3667
  667MOL0     H89995   1.960   1.853  11.288  1.0245  0.4527 -2.1317
  667MOL0     H89996   1.648   1.819  11.288  0.7921 -0.6800  0.6750
  667MOL0     H89997   1.478   1.906  11.652 -1.9177  2.8074 -0.6362
  667MOL0     H89998   1.413   1.947  11.504  0.6003 -1.2421 -0.0975
  667MOL0     H89999   1.538   1.667  11.535  0.6066  2.4635  3.7731
  667MOL0     H90000   1.449   1.729  11.399  0.7968  0.1761 -0.2553
  667MOL0     H90001   1.354   1.633  11.660  2.4849 -1.8578 -0.9166
  667MOL0     H90002   1.305   1.594  11.505 -0.4480 -0.9988  1.9327
  667MOL0     H90003   1.193   1.823  11.480  1.3753  0.4957 -0.5122
  667MOL0     H90004   1.226   1.852  11.649  2.4961  0.1786 -1.1011
  667MOL0     H90005   0.854   1.603  11.552  0.8735 -2.5545  2.0450
  667MOL0     H90006   0.613   1.616  11.554  0.0630  2.8667  0.1285
  667MOL0     H90007   0.627   1.514  11.703  1.6066 -0.4288 -1.6677
  667MOL0     H90008   0.525   1.663  11.701  1.0189  2.9990 -0.0098
  667MOL0     H90009   0.362   1.923  11.967  2.5163  0.5460  0.5222
  667MOL0     H90010   0.163   2.067  12.000  1.4864  1.2268  1.5325
  667MOL0     H90011  -0.069   2.355  11.736 -1.0678  0.0692 -2.1820
  667MOL0     H90012   0.030   2.265  11.624 -0.4595 -0.0866 -0.8645
  667MOL0     H90013  -0.214   2.198  11.791 -0.2242  0.3663 -2.2664
  667MOL0     H90014  -0.218   2.169  11.633 -2.7037  1.2581  1.3802
  667MOL0     H90015  -0.179   1.949  11.782 -0.2071  3.0733  2.2846
  667MOL0     H90016  -0.020   2.011  11.813  1.5652  0.2607 -1.0566
  667MOL0     H90017  -0.142   1.921  11.567 -0.5830 -0.5866  1.4017
  667MOL0     H90018   0.018   2.013  11.569 -1.7734  0.4229 -0.1634
  667MOL0     H90019   0.028   1.772  11.529  0.5213 -1.8292  0.2656
  667MOL0     H90020  -0.060   1.733  11.670  0.3721 -0.0532 -0.8388
  667MOL0     H90021   0.207   1.880  11.691  0.6168  0.3448  3.0322
  667MOL0     H90022   0.132   1.797  11.824  1.4338  0.7871 -0.4408
  667MOL0     H90023   0.163   1.579  11.734  0.8763 -0.3126  1.4241
  667MOL0     H90024   0.309   1.671  11.762 -0.6699  2.7788  0.7392
  667MOL0     H90025   0.175   1.596  11.505  0.6343  1.4151  0.9266
  667MOL0     H90026   0.339   1.548  11.554 -0.6170 -0.9351  1.6692
  667MOL0     H90027   0.237   2.252  11.615 -0.4061  2.4216  2.1283
  667MOL0     H90028   0.429   2.091  11.589  0.9759 -3.7556 -0.0273
  667MOL0     H90029   0.859   1.956  11.885  0.6531  0.9923 -0.5196
  667MOL0     H90030   1.068   1.875  11.797  0.8066  0.5851 -0.2336
  667MOL0     H90031   1.753   2.333  10.362 -1.8921 -0.5770  1.0038
  667MOL0     H90032   1.656   2.423  10.148  1.6821  0.7936  1.0188
  667MOL0     H90033   1.784   2.553   9.688 -0.0608  2.9333 -0.7519
  667MOL0     H90034   1.676   2.689   9.495  0.8265  2.8147  1.3583
  667MOL0     H90035   1.515   2.845   9.438  1.2337 -3.2171  3.2901
  667MOL0     H90036   1.573   2.736   9.316  1.2648  1.0905  0.7999
  667MOL0     H90037   1.345   2.749   9.211 -1.0822 -0.3006  0.9292
  667MOL0     H90038   1.452   2.889   9.194  2.2230  1.9105  2.4719
  667MOL0     H90039   1.327   2.996   9.381 -0.3476  2.5159 -2.4092
  667MOL0     H90040   1.217   2.852   9.391  0.9013 -0.5735  0.0781
  667MOL0     H90041   1.075   2.972   9.252 -1.1941 -4.0410  0.3733
  667MOL0     H90042   1.170   2.890   9.142  3.5474  0.9438 -0.1306
  667MOL0     H90043   1.243   3.308   9.066 -2.9981 -0.4338 -3.3324
  667MOL0     H90044   1.306   2.516   9.598  0.4070 -1.8139  1.3179
  667MOL0     H90045   1.411   2.371   9.773  1.4873  0.6935  2.3016
  668MOL0     O90046   7.953   5.236   0.934 -0.2022  0.2561  0.5710
  668MOL0     C90047   7.846   5.201   0.881 -1.1373 -0.1026 -0.1633
  668MOL0     O90048   7.765   5.284   0.819  0.3875  0.7719  0.7442
  668MOL0     C90049   7.795   5.417   0.812  0.6395  0.1501  0.1847
  668MOL0     C90050   7.741   5.514   0.893  0.6956 -0.2126 -0.0422
  668MOL0     C90051   7.755   5.650   0.867  0.0820 -0.3662 -0.1255
  668MOL0     C90052   7.823   5.695   0.754 -0.3308  0.1740 -0.3113
  668MOL0     O90053   7.835   5.830   0.721 -0.2687 -0.2368 -0.0651
  668MOL0     C90054   7.714   5.900   0.709  0.2341 -0.4794 -0.5739
  668MOL0     C90055   7.750   6.024   0.628  0.1222 -0.3240 -0.5668
  668MOL0     C90056   7.635   6.119   0.597 -0.4063 -0.1849  0.5925
  668MOL0     C90057   7.707   6.256   0.542  0.9175  0.4433 -0.1891
  668MOL0     C90058   7.742   6.238   0.397  0.0383 -0.0332  1.1750
  668MOL0     C90059   7.792   6.378   0.352  0.4006 -0.2492 -0.6631
  668MOL0     C90060   7.881   6.353   0.225 -0.1949  0.1218 -0.0573
  668MOL0     C90061   7.982   6.474   0.218 -0.5330 -0.4880 -1.0802
  668MOL0     N90062   8.084   6.468   0.121 -0.5040  0.1382  0.1788
  668MOL0     C90063   8.111   6.551   0.013 -0.4429  0.4864 -0.1859
  668MOL0     C90064   8.231   6.506  -0.038  0.1012  0.2375 -0.3671
  668MOL0     C90065   8.311   6.544  -0.165  0.7099  0.0399 -0.5277
  668MOL0     C90066   8.419   6.441  -0.202 -0.1900  0.3349 -0.1126
  668MOL0     C90067   8.500   6.484  -0.318  0.2693  0.0681  0.0219
  668MOL0     C90068   8.603   6.382  -0.358  0.0229  0.1251  0.1949
  668MOL0     O90069   8.675   6.425  -0.469  0.0568 -0.1232 -0.8611
  668MOL0     C90070   8.782   6.355  -0.510 -0.0252  0.1384  0.4693
  668MOL0     C90071   8.824   6.235  -0.459 -0.5953  0.1327 -0.4599
  668MOL0     C90072   8.936   6.175  -0.514 -0.0334 -0.3774  0.2612
  668MOL0     C90073   8.975   6.032  -0.463 -0.2137  1.4581  0.3829
  668MOL0     C90074   9.006   6.233  -0.621 -0.4488  0.4401  0.6743
  668MOL0     C90075   9.131   6.177  -0.688  0.9567  0.0267  0.5814
  668MOL0     O90076   9.152   6.219  -0.815  0.3997 -0.2983 -0.1379
  668MOL0     C90077   9.231   6.158  -0.902 -0.5242  0.2567  0.2348
  668MOL0     C90078   9.186   6.126  -1.031  0.0646  0.5726  0.7125
  668MOL0     C90079   9.276   6.078  -1.123  0.7402 -0.4914  0.9285
  668MOL0     C90080   9.409   6.065  -1.097 -0.8545 -0.6194  0.3872
  668MOL0     O90081   9.482   6.017  -1.206 -0.5450  0.0363  0.4801
  668MOL0     C90082   9.622   6.001  -1.188 -0.7975  0.2096 -0.5308
  668MOL0     C90083   9.695   5.957  -1.316  0.1090 -0.0675 -0.1590
  668MOL0     C90084   9.670   6.067  -1.420  0.4687  0.5844 -0.3563
  668MOL0     C90085   9.762   6.071  -1.545 -0.4164 -0.4734  0.3661
  668MOL0     C90086   9.918   6.080  -1.503  0.5904 -0.5403 -0.2213
  668MOL0     C90087  10.014   6.105  -1.619  0.7802  1.0005 -0.6154
  668MOL0     C90088  10.159   6.091  -1.577  0.3301  0.0070  0.5663
  668MOL0     C90089  10.242   6.116  -1.709 -0.4579  0.5296 -0.3451
  668MOL0    Cl90090  10.415   6.095  -1.656  0.0761 -0.1935 -0.3988
  668MOL0     C90091   9.456   6.099  -0.970  0.6740 -0.1712  0.2187
  668MOL0     C90092   9.370   6.147  -0.875 -0.9192 -1.0875 -0.4254
  668MOL0     O90093   9.210   6.116  -0.627 -1.0700 -0.2463  0.2421
  668MOL0     C90094   8.963   6.353  -0.665  0.3209  0.4173  0.8849
  668MOL0     C90095   8.846   6.418  -0.612 -0.5209  0.4627  0.1630
  668MOL0     N90096   8.269   6.394   0.045 -0.2464 -0.1942  0.5311
  668MOL0     N90097   8.188   6.381   0.135  0.1141 -0.0216  0.2285
  668MOL0     C90098   7.872   5.595   0.663  0.1392  0.0411 -0.2128
  668MOL0     C90099   7.861   5.460   0.694  0.5077 -0.3905  0.5241
  668MOL0     C90100   7.809   5.067   0.894 -0.4435 -0.3610 -0.4364
  668MOL0     C90101   7.682   5.023   0.856 -0.6324  0.0297  0.3329
  668MOL0     C90102   7.648   4.885   0.872 -0.0676 -0.0871 -0.9596
  668MOL0     C90103   7.749   4.790   0.902  0.6568 -0.7447  0.0034
  668MOL0     O90104   7.729   4.654   0.892  0.4754 -0.2241  0.2291
  668MOL0     C90105   7.702   4.598   1.020 -0.0518 -0.5524 -0.3445
  668MOL0     C90106   7.549   4.614   1.050 -0.0118 -1.0725 -0.2126
  668MOL0     C90107   7.466   4.584   0.927 -0.3564 -0.6317  0.1507
  668MOL0     C90108   7.318   4.618   0.934 -1.0490  0.3353 -0.1718
  668MOL0     C90109   7.305   4.764   0.910 -0.0260  0.2824  0.1026
  668MOL0     C90110   7.301   4.887   0.890  0.1772 -0.4600 -0.8138
  668MOL0     C90111   7.866   4.832   0.945 -0.5665 -0.1507 -1.2383
  668MOL0     C90112   7.897   4.969   0.942  0.9807  0.1508 -0.4967
  668MOL0     H90113   7.688   5.488   0.984  1.0649  2.4377  1.0297
  668MOL0     H90114   7.707   5.715   0.939 -0.6086 -1.9149  0.8567
  668MOL0     H90115   7.642   5.838   0.655  0.9307 -3.2136  1.4171
  668MOL0     H90116   7.686   5.927   0.811  1.5620  1.3540 -0.6447
  668MOL0     H90117   7.827   6.080   0.683  1.1704 -1.3021 -0.9866
  668MOL0     H90118   7.794   5.985   0.536 -1.1096 -1.5174 -0.6586
  668MOL0     H90119   7.568   6.076   0.522 -0.9486  0.9207  0.4245
  668MOL0     H90120   7.576   6.149   0.684 -0.1359 -0.3909  0.8513
  668MOL0     H90121   7.633   6.337   0.541 -0.5053 -0.7341  1.9448
  668MOL0     H90122   7.793   6.289   0.599  1.4923 -0.8975 -0.2486
  668MOL0     H90123   7.824   6.167   0.386 -0.7810 -0.6178 -2.1448
  668MOL0     H90124   7.664   6.208   0.326  0.8253 -1.0582  0.7238
  668MOL0     H90125   7.705   6.441   0.332  0.1662 -1.2954 -3.2650
  668MOL0     H90126   7.848   6.427   0.432 -0.3029  2.1790 -1.5642
  668MOL0     H90127   7.939   6.260   0.233 -1.3876 -0.6741 -0.4382
  668MOL0     H90128   7.827   6.342   0.131  0.1232 -0.6355 -0.1598
  668MOL0     H90129   8.042   6.481   0.309 -2.0644  2.3071 -0.1976
  668MOL0     H90130   7.925   6.567   0.215  1.3003  0.8500  1.6985
  668MOL0     H90131   8.060   6.637  -0.030  0.9337  0.3806 -2.1811
  668MOL0     H90132   8.236   6.563  -0.243  1.8904 -2.0306 -2.2545
  668MOL0     H90133   8.366   6.631  -0.129 -1.4530  0.8597  1.0245
  668MOL0     H90134   8.374   6.343  -0.220 -0.6890  0.0163  2.4555
  668MOL0     H90135   8.479   6.413  -0.115  1.5806 -0.4878 -1.5458
  668MOL0     H90136   8.555   6.577  -0.301 -1.8423  1.5005 -0.5153
  668MOL0     H90137   8.428   6.502  -0.399  0.2193 -0.5736 -0.0817
  668MOL0     H90138   8.553   6.287  -0.381 -1.3817  1.0611 -0.8223
  668MOL0     H90139   8.670   6.370  -0.273  1.6232 -1.1447 -1.1675
  668MOL0     H90140   8.756   6.177  -0.398  0.3471 -1.6468 -1.0135
  668MOL0     H90141   8.909   6.003  -0.380 -0.1242  1.0017  0.3000
  668MOL0     H90142   8.970   5.955  -0.540  1.8911 -1.4489  2.8697
  668MOL0     H90143   9.080   6.038  -0.430 -0.4179 -3.7742  3.1555
  668MOL0     H90144   9.081   6.142  -1.052  0.6253  0.6745 -2.6675
  668MOL0     H90145   9.249   6.059  -1.226  3.9001  1.0671 -0.3207
  668MOL0     H90146   9.647   6.103  -1.158  1.2718  0.5766 -3.0537
  668MOL0     H90147   9.649   5.924  -1.116  0.5916  0.8450 -0.3364
  668MOL0     H90148   9.803   5.953  -1.296  0.1524 -0.2560 -0.4376
  668MOL0     H90149   9.675   5.856  -1.353  3.5369  0.6333 -4.8429
  668MOL0     H90150   9.682   6.164  -1.372 -0.3100  0.4429  0.1375
  668MOL0     H90151   9.567   6.066  -1.455  1.0709  1.3166 -2.2762
  668MOL0     H90152   9.733   5.987  -1.609 -0.3683  0.1870 -0.5454
  668MOL0     H90153   9.738   6.158  -1.607 -1.5427  0.1037  1.5640
  668MOL0     H90154   9.949   5.991  -1.447 -0.8895 -0.0957  1.3911
  668MOL0     H90155   9.924   6.167  -1.437 -0.4541 -0.4788 -0.1857
  668MOL0     H90156   9.981   6.043  -1.703  1.8356 -1.7769  0.8990
  668MOL0     H90157   9.991   6.210  -1.638 -1.0598  1.0018  1.2332
  668MOL0     H90158  10.191   5.991  -1.547  2.1887 -0.5123 -2.6478
  668MOL0     H90159  10.177   6.170  -1.504  1.5346 -1.8860  2.4529
  668MOL0     H90160  10.223   6.211  -1.760 -0.2581  0.2549 -0.9505
  668MOL0     H90161  10.215   6.039  -1.783 -1.9562  1.3644 -0.7157
  668MOL0     H90162   9.563   6.093  -0.953  0.8711  2.3767  0.3220
  668MOL0     H90163   9.405   6.186  -0.781 -0.7118 -1.2306 -0.4428
  668MOL0     H90164   9.021   6.412  -0.736  2.3153  0.1751  2.2220
  668MOL0     H90165   8.807   6.510  -0.655 -3.5581 -0.7282  0.1842
  668MOL0     H90166   7.919   5.622   0.569  1.2781  0.1103  0.3648
  668MOL0     H90167   7.904   5.386   0.627  0.9813 -0.0756  0.4714
  668MOL0     H90168   7.603   5.071   0.799 -2.3590 -4.1400 -1.2587
  668MOL0     H90169   7.551   4.848   0.841 -0.9148  2.9613 -2.2467
  668MOL0     H90170   7.726   4.492   1.009  2.0559  0.1177 -3.6982
  668MOL0     H90171   7.756   4.652   1.098 -0.7710  0.7788 -0.7405
  668MOL0     H90172   7.523   4.716   1.080  1.5415 -0.9492  0.8125
  668MOL0     H90173   7.513   4.550   1.132 -1.6808 -2.7486 -2.1402
  668MOL0     H90174   7.469   4.477   0.906 -0.9568 -0.2769 -1.9897
  668MOL0     H90175   7.504   4.625   0.833 -0.8570 -3.5757 -1.4489
  668MOL0     H90176   7.273   4.582   1.026 -2.2264 -5.8499 -2.6683
  668MOL0     H90177   7.267   4.564   0.854 -1.9380 -0.4907  0.9298
  668MOL0     H90178   7.300   4.985   0.848  2.9914  0.7059  1.4905
  668MOL0     H90179   7.944   4.771   0.989  0.2462  1.5478 -0.2040
  668MOL0     H90180   7.994   4.996   0.982  0.7287 -0.8379  0.8392
  669MOL0     O90181  10.452   2.770   9.489 -0.7372  1.3270  0.6610
  669MOL0     C90182  10.429   2.660   9.545 -0.1325  0.0690  0.3483
  669MOL0     O90183  10.526   2.568   9.582  0.0861  0.6471  0.2671
  669MOL0     C90184  10.661   2.595   9.592  0.3400  0.4898 -0.0414
  669MOL0     C90185  10.735   2.706   9.550 -0.6922 -0.3793 -0.1876
  669MOL0     C90186  10.870   2.706   9.549 -0.2805  0.1102 -0.0252
  669MOL0     C90187  10.936   2.596   9.593 -0.6722 -0.4702  0.0561
  669MOL0     O90188  11.080   2.598   9.580  0.7959 -0.3506 -0.1822
  669MOL0     C90189  11.146   2.547   9.693 -0.2012 -0.0083 -0.1584
  669MOL0     C90190  11.295   2.521   9.656 -0.0794 -0.4629 -0.3737
  669MOL0     C90191  11.381   2.584   9.762 -0.0068  0.1526 -0.3517
  669MOL0     C90192  11.527   2.530   9.765  0.8687 -0.0987  0.1278
  669MOL0     C90193  11.615   2.600   9.875  0.2549 -0.5478 -0.4462
  669MOL0     C90194  11.757   2.569   9.861 -0.4473  0.9553  0.1711
  669MOL0     C90195  11.833   2.661   9.763 -1.0979  0.2623  0.4926
  669MOL0     C90196  11.957   2.583   9.715  0.8451  0.3057 -0.2098
  669MOL0     N90197  12.069   2.609   9.798 -0.0356 -0.6646  0.2867
  669MOL0     C90198  12.082   2.579   9.933 -0.1474  0.1883  0.0121
  669MOL0     C90199  12.209   2.604   9.968  0.4949 -0.9647  0.1612
  669MOL0     C90200  12.275   2.606  10.096 -1.1300 -1.2472 -0.4976
  669MOL0     C90201  12.198   2.666  10.220 -0.0150 -0.0156  0.6662
  669MOL0     C90202  12.281   2.724  10.329  0.7943 -0.6007  0.1286
  669MOL0     C90203  12.202   2.800  10.447  0.0577 -1.1695 -0.3393
  669MOL0     O90204  12.227   2.744  10.581  0.5464 -0.5813  0.5215
  669MOL0     C90205  12.304   2.817  10.660 -0.2348 -0.1783  0.2952
  669MOL0     C90206  12.262   2.834  10.793 -0.2023  0.4005 -0.4644
  669MOL0     C90207  12.348   2.883  10.894  0.4436  0.0641 -0.2217
  669MOL0     C90208  12.290   2.873  11.034  0.0515 -0.4275  0.5798
  669MOL0     C90209  12.481   2.916  10.860  1.2017  0.7111 -0.2316
  669MOL0     C90210  12.582   2.960  10.963  0.0477 -0.0127  0.4707
  669MOL0     O90211  12.710   2.944  10.926 -0.3680 -0.1532  0.3538
  669MOL0     C90212  12.810   3.021  10.996  0.4761  0.9616  0.0148
  669MOL0     C90213  12.868   3.133  10.936 -0.2549  1.1126 -0.0984
  669MOL0     C90214  12.970   3.194  11.010  0.4475  0.2834 -0.5582
  669MOL0     C90215  13.003   3.159  11.147 -0.3466 -1.8959  0.2499
  669MOL0     O90216  13.107   3.225  11.210  0.3741  0.0359 -0.2957
  669MOL0     C90217  13.109   3.245  11.348  0.9225  0.4792  0.0506
  669MOL0     C90218  13.180   3.138  11.430  0.0214 -0.3499  0.3183
  669MOL0     C90219  13.133   3.158  11.580  0.0483  0.1379  0.0179
  669MOL0     C90220  13.164   3.035  11.663 -0.0261 -0.1108  0.6514
  669MOL0     C90221  13.090   3.062  11.802 -0.3998  0.7186  0.4054
  669MOL0     C90222  13.171   2.977  11.899 -0.3198  0.0005 -0.0007
  669MOL0     C90223  13.110   2.968  12.040 -0.0846 -0.2270 -0.3000
  669MOL0     C90224  13.217   2.916  12.143  0.9071 -1.1968  0.7289
  669MOL0    Cl90225  13.158   2.948  12.314  0.3843 -0.0216 -0.4278
  669MOL0     C90226  12.921   3.058  11.202  0.0012 -1.0253  0.2237
  669MOL0     C90227  12.828   2.990  11.127 -0.1661 -1.1069  0.5522
  669MOL0     O90228  12.540   3.028  11.058 -0.3626 -0.2456 -0.0653
  669MOL0     C90229  12.514   2.898  10.726 -1.0660 -0.3182 -0.4885
  669MOL0     C90230  12.435   2.846  10.626  0.1851  0.8711  0.1443
  669MOL0     N90231  12.271   2.642   9.853  0.8983  0.2542  0.4755
  669MOL0     N90232  12.191   2.635   9.747 -0.1030 -0.0980  0.7062
  669MOL0     C90233  10.868   2.481   9.647  1.0213 -0.4851  0.5302
  669MOL0     C90234  10.726   2.481   9.650 -0.7483  0.3606  0.8469
  669MOL0     C90235  10.290   2.627   9.578 -0.3776  0.5893  0.0057
  669MOL0     C90236  10.252   2.582   9.700 -0.4886 -0.4005 -0.2340
  669MOL0     C90237  10.122   2.575   9.739 -0.4593 -0.3051 -0.5436
  669MOL0     C90238  10.023   2.591   9.644  0.7684  0.6225 -0.3771
  669MOL0     O90239   9.887   2.603   9.668  0.4734 -0.5099 -0.7458
  669MOL0     C90240   9.838   2.602   9.802  0.6095 -0.2733  0.4948
  669MOL0     C90241   9.831   2.453   9.843 -0.1486 -0.8003 -0.5508
  669MOL0     C90242   9.842   2.428   9.993 -0.8359  0.0086  0.4311
  669MOL0     C90243   9.862   2.274  10.021 -0.0781  0.2293 -0.5608
  669MOL0     C90244   9.825   2.250  10.164 -0.0528 -0.6538 -0.3813
  669MOL0     C90245   9.800   2.230  10.276  0.9917  0.0478  0.3538
  669MOL0     C90246  10.057   2.616   9.517  0.4804 -0.7000 -0.1698
  669MOL0     C90247  10.192   2.646   9.482 -0.3203  0.2509 -0.6703
  669MOL0     H90248  10.687   2.798   9.519 -0.0694  0.5649  1.4882
  669MOL0     H90249  10.921   2.792   9.508 -0.0045 -0.1718 -0.2820
  669MOL0     H90250  11.140   2.615   9.778 -0.2823 -0.2413  0.0236
  669MOL0     H90251  11.098   2.454   9.724  0.7315  0.4784  3.0304
  669MOL0     H90252  11.314   2.414   9.650  0.6899 -0.3343 -0.3020
  669MOL0     H90253  11.312   2.569   9.559 -2.8268  2.1667  0.2769
  669MOL0     H90254  11.391   2.691   9.746 -1.8737  0.6685  1.5325
  669MOL0     H90255  11.340   2.562   9.861  2.4089 -2.0255  0.2823
  669MOL0     H90256  11.526   2.425   9.793  0.3700 -0.8153 -2.3358
  669MOL0     H90257  11.578   2.554   9.671 -1.3185  2.4642 -0.5542
  669MOL0     H90258  11.596   2.707   9.861 -0.7085 -0.2536  2.4895
  669MOL0     H90259  11.572   2.573   9.972  2.2645 -0.2310  0.5716
  669MOL0     H90260  11.800   2.594   9.958 -1.3938  4.3072 -0.1665
  669MOL0     H90261  11.759   2.460   9.846 -3.2723  1.1764 -3.2265
  669MOL0     H90262  11.775   2.677   9.672  2.2037  2.0257 -1.5161
  669MOL0     H90263  11.860   2.754   9.815  1.6172 -1.2750  2.1108
  669MOL0     H90264  11.987   2.610   9.613 -0.6609  0.7401 -0.5716
  669MOL0     H90265  11.942   2.475   9.705 -0.1667  0.5863 -2.2472
  669MOL0     H90266  12.003   2.545  10.000 -0.0793  1.0566  0.5474
  669MOL0     H90267  12.312   2.505  10.115  0.0950 -1.4293 -3.3349
  669MOL0     H90268  12.356   2.677  10.075 -2.4831  0.8768  1.0912
  669MOL0     H90269  12.143   2.585  10.269  0.3456 -0.6615  0.0100
  669MOL0     H90270  12.130   2.745  10.186  1.7210  1.2441 -0.0442
  669MOL0     H90271  12.343   2.801  10.281 -1.9600 -0.0904 -3.0578
  669MOL0     H90272  12.342   2.646  10.375  1.8301 -0.7961 -1.4605
  669MOL0     H90273  12.094   2.785  10.439 -0.4553  1.4734  0.8492
  669MOL0     H90274  12.219   2.907  10.438  0.6226 -0.7328  3.9844
  669MOL0     H90275  12.173   2.784  10.828  0.4888  0.9416  2.2865
  669MOL0     H90276  12.203   2.933  11.058 -0.8675 -2.0677  1.5670
  669MOL0     H90277  12.263   2.767  11.038  0.8361 -0.6563  0.0752
  669MOL0     H90278  12.372   2.892  11.104 -0.8438  0.5163  1.3842
  669MOL0     H90279  12.835   3.154  10.835 -2.3984 -1.7840 -0.1097
  669MOL0     H90280  13.013   3.286  10.973  0.3026  1.1482  1.3155
  669MOL0     H90281  13.154   3.337  11.387 -1.8337  1.1882  1.8603
  669MOL0     H90282  13.005   3.253  11.381  1.3324 -3.3277  3.0069
  669MOL0     H90283  13.150   3.038  11.400 -0.4574  0.1972 -1.1298
  669MOL0     H90284  13.287   3.160  11.438 -0.2400  0.2929  3.5141
  669MOL0     H90285  13.026   3.179  11.590  0.2798  0.4013  2.7186
  669MOL0     H90286  13.199   3.235  11.619 -0.5714  0.6460  0.0804
  669MOL0     H90287  13.119   2.950  11.611  2.1276 -0.8527 -0.0770
  669MOL0     H90288  13.273   3.038  11.666  0.1066  2.3589 -1.8919
  669MOL0     H90289  12.988   3.023  11.796 -0.7324  1.3915  1.5800
  669MOL0     H90290  13.077   3.167  11.826 -2.6040  0.2000  1.7880
  669MOL0     H90291  13.183   2.875  11.861  3.9696 -0.2158  1.3840
  669MOL0     H90292  13.273   3.016  11.905  0.6423 -2.5601  2.5547
  669MOL0     H90293  13.015   2.916  12.056 -0.1942  0.4784  1.7102
  669MOL0     H90294  13.075   3.066  12.072  2.5646  1.0984 -1.2284
  669MOL0     H90295  13.309   2.974  12.129  1.1743 -1.5595  0.9987
  669MOL0     H90296  13.238   2.813  12.115  0.0629 -1.2359  0.1790
  669MOL0     H90297  12.935   3.019  11.302 -0.0835 -2.0760 -0.1658
  669MOL0     H90298  12.765   2.912  11.169  0.1616 -1.1980  0.8770
  669MOL0     H90299  12.612   2.930  10.691 -1.7887 -1.0510 -3.4989
  669MOL0     H90300  12.471   2.819  10.527  0.3363 -0.0705  0.4526
  669MOL0     H90301  10.922   2.392   9.674  0.4005 -1.2120 -0.5418
  669MOL0     H90302  10.659   2.398   9.670 -1.4562  0.1154 -2.0048
  669MOL0     H90303  10.327   2.566   9.778 -1.0933  1.7719  0.8720
  669MOL0     H90304  10.090   2.552   9.840 -0.5296  0.7294 -0.3227
  669MOL0     H90305   9.903   2.658   9.870  1.6368  0.3686 -0.9840
  669MOL0     H90306   9.742   2.654   9.810  1.5405  1.5582  0.1808
  669MOL0     H90307   9.917   2.399   9.802  0.7178  1.3900 -1.8186
  669MOL0     H90308   9.735   2.415   9.808 -0.8893 -0.1666  0.7310
  669MOL0     H90309   9.754   2.471  10.042  0.0300  1.7246  0.5673
  669MOL0     H90310   9.929   2.475  10.039 -0.6894 -0.7681  0.9707
  669MOL0     H90311   9.964   2.238  10.004  0.6005  1.8647 -0.1896
  669MOL0     H90312   9.807   2.209   9.953  1.8019 -1.6518 -0.3914
  669MOL0     H90313   9.763   2.227  10.377 -3.1091  1.7723 -0.8738
  669MOL0     H90314   9.982   2.637   9.441  0.7618 -2.4667 -0.9924
  669MOL0     H90315  10.207   2.685   9.382  0.9785  0.4285 -0.4249
  670MOL0     O90316   0.745   8.303   8.618  0.0302 -0.2063 -0.1518
  670MOL0     C90317   0.648   8.333   8.687  0.2647  0.1569  0.3382
  670MOL0     O90318   0.572   8.238   8.763  0.1628 -0.0423  0.0639
  670MOL0     C90319   0.564   8.112   8.729 -0.0282 -0.1057  0.8615
  670MOL0     C90320   0.565   8.072   8.590 -0.2491 -0.4284  0.1003
  670MOL0     C90321   0.547   7.937   8.562 -0.8440 -0.3383 -0.2609
  670MOL0     C90322   0.524   7.841   8.664  0.5662 -0.6405  1.0461
  670MOL0     O90323   0.520   7.706   8.646  0.5388 -0.0706 -0.1317
  670MOL0     C90324   0.464   7.661   8.526  1.1369 -0.5139 -0.0508
  670MOL0     C90325   0.446   7.505   8.518  1.1881  0.3075 -0.7033
  670MOL0     C90326   0.364   7.455   8.398  0.3263  0.0017  0.2415
  670MOL0     C90327   0.215   7.446   8.434  0.4339  0.4732 -0.0987
  670MOL0     C90328   0.116   7.459   8.318  0.6945 -0.7113 -0.5482
  670MOL0     C90329  -0.031   7.466   8.351 -0.2829 -0.6031  0.6010
  670MOL0     C90330  -0.113   7.462   8.219 -0.7297 -0.2319  0.3565
  670MOL0     C90331  -0.100   7.329   8.156  0.1221  0.9096 -0.3396
  670MOL0     N90332  -0.199   7.314   8.048  0.1320  0.1986 -0.0505
  670MOL0     C90333  -0.330   7.266   8.049  0.0391 -0.2557 -0.2886
  670MOL0     C90334  -0.366   7.253   7.914  0.0680 -0.3477 -0.2315
  670MOL0     C90335  -0.482   7.182   7.841 -0.1308  0.0171 -0.4560
  670MOL0     C90336  -0.621   7.226   7.899 -0.1610  0.5195 -0.9659
  670MOL0     C90337  -0.666   7.369   7.844 -0.0834 -0.4455 -0.2654
  670MOL0     C90338  -0.802   7.424   7.875  0.0298  0.5973  0.3586
  670MOL0     O90339  -0.890   7.344   7.789 -0.2016  0.3193  0.0011
  670MOL0     C90340  -0.941   7.398   7.672 -0.1835 -0.0388  0.0102
  670MOL0     C90341  -1.062   7.343   7.626 -0.4701  0.2732  0.1548
  670MOL0     C90342  -1.132   7.412   7.520 -0.6469  0.4995  0.6601
  670MOL0     C90343  -1.272   7.362   7.495  0.3372  0.3565 -0.4471
  670MOL0     C90344  -1.083   7.529   7.465 -0.3705 -0.2117  0.1800
  670MOL0     C90345  -1.156   7.600   7.353  0.1001 -0.0342 -1.0319
  670MOL0     O90346  -1.290   7.608   7.375 -0.6149 -0.0975  0.3051
  670MOL0     C90347  -1.370   7.610   7.263 -0.6814 -0.5670  0.3009
  670MOL0     C90348  -1.486   7.686   7.280  0.4009 -0.4179 -0.1409
  670MOL0     C90349  -1.590   7.691   7.183  0.0377 -1.3439  0.0408
  670MOL0     C90350  -1.568   7.646   7.054 -0.3295 -0.6193 -0.8214
  670MOL0     O90351  -1.645   7.684   6.945 -0.0644  0.1717 -0.3022
  670MOL0     C90352  -1.783   7.646   6.967  0.5646  0.1052  0.3915
  670MOL0     C90353  -1.865   7.691   6.851 -0.0302  0.4025  0.0236
  670MOL0     C90354  -1.860   7.846   6.846 -0.0136  1.0904 -0.6863
  670MOL0     C90355  -1.951   7.899   6.736  0.8577  0.0553  0.3398
  670MOL0     C90356  -2.093   7.919   6.774  0.3171  0.2355 -1.3339
  670MOL0     C90357  -2.172   7.989   6.666  0.6878 -0.2457  0.2752
  670MOL0     C90358  -2.306   8.020   6.724 -0.5990  0.1471 -0.6871
  670MOL0     C90359  -2.400   8.087   6.628  0.2987 -0.8080  0.0691
  670MOL0    Cl90360  -2.330   8.217   6.506  0.3846 -0.6158  0.5421
  670MOL0     C90361  -1.459   7.559   7.036 -0.2870 -0.4217  0.0080
  670MOL0     C90362  -1.367   7.542   7.145 -0.2168  0.7661 -0.9954
  670MOL0     O90363  -1.094   7.640   7.261  0.1560  0.5754  0.1620
  670MOL0     C90364  -0.952   7.575   7.503 -0.1914  1.2369  0.6041
  670MOL0     C90365  -0.891   7.511   7.606  0.4198 -0.0988  0.1025
  670MOL0     N90366  -0.263   7.303   7.838 -0.1222  0.0167  0.7618
  670MOL0     N90367  -0.174   7.348   7.916  0.7525  0.1326 -0.0452
  670MOL0     C90368   0.513   7.889   8.791 -0.5856 -0.2298 -1.2217
  670MOL0     C90369   0.531   8.021   8.830 -0.2507 -0.1553 -0.4574
  670MOL0     C90370   0.616   8.477   8.687  0.1542 -0.3321 -0.2502
  670MOL0     C90371   0.696   8.569   8.618  0.1469 -0.7100 -0.2674
  670MOL0     C90372   0.674   8.708   8.626 -0.3144 -0.4563  0.9106
  670MOL0     C90373   0.567   8.756   8.692  0.3916  0.4927 -0.1396
  670MOL0     O90374   0.545   8.894   8.706  0.2805 -0.3318  0.3667
  670MOL0     C90375   0.590   8.976   8.604  0.2310  0.1606 -0.7055
  670MOL0     C90376   0.546   9.120   8.641 -0.5575 -0.1566 -0.5348
  670MOL0     C90377   0.433   9.157   8.548  0.4812  0.1893  0.4849
  670MOL0     C90378   0.361   9.287   8.589 -0.1717  0.2006  1.2445
  670MOL0     C90379   0.446   9.405   8.570  0.2125 -0.5128 -0.4115
  670MOL0     C90380   0.518   9.509   8.564 -0.1289  0.2324  0.7493
  670MOL0     C90381   0.482   8.670   8.766 -0.4223  0.5765 -0.1362
  670MOL0     C90382   0.515   8.533   8.761 -0.0109 -0.4050  0.3543
  670MOL0     H90383   0.589   8.146   8.514  1.1774 -0.0197  0.9151
  670MOL0     H90384   0.534   7.897   8.462 -0.2485 -2.8825  0.5982
  670MOL0     H90385   0.367   7.707   8.504  1.5185  0.5292  0.4409
  670MOL0     H90386   0.532   7.683   8.443  0.1215 -0.7781 -0.9964
  670MOL0     H90387   0.547   7.465   8.508  1.0357 -1.6156  3.3823
  670MOL0     H90388   0.404   7.465   8.610  0.9253 -0.6698 -1.2356
  670MOL0     H90389   0.385   7.524   8.316  2.5181  1.5763  2.0339
  670MOL0     H90390   0.402   7.356   8.371 -1.1905 -0.9135  1.2648
  670MOL0     H90391   0.194   7.351   8.485  0.3307  0.8322  0.5364
  670MOL0     H90392   0.189   7.524   8.506  2.4895 -0.3251  1.6039
  670MOL0     H90393   0.148   7.549   8.264  1.3270 -1.3478 -1.2492
  670MOL0     H90394   0.131   7.373   8.252  0.5703 -0.7374 -0.5430
  670MOL0     H90395  -0.043   7.374   8.409 -0.7136 -1.5538 -0.9278
  670MOL0     H90396  -0.061   7.550   8.414 -2.1837  0.0093 -1.0033
  670MOL0     H90397  -0.219   7.470   8.243 -0.3327  0.5839  1.9656
  670MOL0     H90398  -0.088   7.551   8.160  1.8786  0.2278  2.0215
  670MOL0     H90399  -0.110   7.243   8.223  0.2675  0.7727 -0.4935
  670MOL0     H90400  -0.004   7.318   8.104  0.0005 -0.6333 -0.2574
  670MOL0     H90401  -0.379   7.221   8.135 -1.9628  0.3593 -1.0474
  670MOL0     H90402  -0.475   7.196   7.733  1.2624 -2.0114 -0.6797
  670MOL0     H90403  -0.475   7.074   7.849 -2.2082 -0.2519 -1.4467
  670MOL0     H90404  -0.622   7.215   8.008  1.0414  1.8303 -0.7836
  670MOL0     H90405  -0.703   7.165   7.861 -1.7918 -0.3331  3.3610
  670MOL0     H90406  -0.657   7.371   7.734 -1.6244 -0.1111 -0.4093
  670MOL0     H90407  -0.590   7.437   7.885 -0.1628 -0.1101 -0.6600
  670MOL0     H90408  -0.802   7.533   7.871 -1.8692  0.5938 -1.5799
  670MOL0     H90409  -0.830   7.386   7.974 -0.6412 -2.5524 -0.9245
  670MOL0     H90410  -1.109   7.264   7.683 -0.1832  0.0555  0.0859
  670MOL0     H90411  -1.351   7.416   7.549  0.3740  1.1529 -1.1601
  670MOL0     H90412  -1.294   7.362   7.388  0.5241  4.2724 -0.6439
  670MOL0     H90413  -1.276   7.256   7.523  1.5295 -0.2454 -2.4170
  670MOL0     H90414  -1.499   7.749   7.367 -3.3640 -1.7666  0.4551
  670MOL0     H90415  -1.676   7.754   7.205  2.0698  1.1297  1.3048
  670MOL0     H90416  -1.790   7.537   6.961  1.5505  0.0919 -0.8232
  670MOL0     H90417  -1.831   7.681   7.059  0.3679 -1.4101  0.8979
  670MOL0     H90418  -1.842   7.649   6.753  0.0548  2.9031 -1.1148
  670MOL0     H90419  -1.970   7.669   6.872 -0.5805  2.3165 -0.4973
  670MOL0     H90420  -1.754   7.866   6.824 -0.0906 -0.4099 -2.8097
  670MOL0     H90421  -1.882   7.889   6.943 -1.4152  0.8361 -0.8679
  670MOL0     H90422  -1.911   7.985   6.681  1.3772  0.2795  1.0543
  670MOL0     H90423  -1.965   7.821   6.660  2.5703  1.2363 -1.2640
  670MOL0     H90424  -2.088   7.978   6.866  0.3225  0.0248 -1.1990
  670MOL0     H90425  -2.130   7.819   6.797  3.8796 -0.5255  2.1517
  670MOL0     H90426  -2.124   8.086   6.654 -0.3420  0.3799  1.0466
  670MOL0     H90427  -2.183   7.919   6.583  0.1805  0.9930 -0.7344
  670MOL0     H90428  -2.277   8.083   6.809  4.0895 -2.3779 -0.0769
  670MOL0     H90429  -2.369   7.936   6.754 -2.8807  1.1078 -2.4797
  670MOL0     H90430  -2.468   8.141   6.695  2.6199 -0.9554  2.6826
  670MOL0     H90431  -2.450   8.013   6.565  1.2484  0.5690 -2.4367
  670MOL0     H90432  -1.430   7.505   6.947  2.3069  3.1524 -1.5515
  670MOL0     H90433  -1.288   7.467   7.146 -0.2078  0.7798 -0.5769
  670MOL0     H90434  -0.902   7.648   7.441  0.4201 -2.4356 -3.7907
  670MOL0     H90435  -0.793   7.551   7.634  1.3409  0.9187 -3.9837
  670MOL0     H90436   0.489   7.817   8.869 -0.6594  0.0997 -0.9370
  670MOL0     H90437   0.501   8.055   8.929  1.7163  1.7845 -0.4617
  670MOL0     H90438   0.789   8.531   8.575  1.0055 -1.1832  1.8891
  670MOL0     H90439   0.754   8.765   8.581  0.2141 -1.2684  0.8211
  670MOL0     H90440   0.698   8.968   8.613  0.0751 -1.3724  0.1357
  670MOL0     H90441   0.570   8.943   8.502  1.1967 -1.0807 -0.5248
  670MOL0     H90442   0.627   9.189   8.616 -0.2879 -1.4080 -3.6056
  670MOL0     H90443   0.504   9.126   8.742 -0.9005  3.2560 -0.7622
  670MOL0     H90444   0.361   9.075   8.545  0.7596 -0.1814  2.5174
  670MOL0     H90445   0.465   9.165   8.444  1.2590 -2.6661  0.4318
  670MOL0     H90446   0.334   9.287   8.695  0.6255 -4.6240  1.6547
  670MOL0     H90447   0.281   9.302   8.516  1.1177  2.6407  0.2317
  670MOL0     H90448   0.584   9.592   8.575  3.6307 -2.4735  0.3933
  670MOL0     H90449   0.391   8.696   8.818 -0.2195 -0.3724  0.7186
  670MOL0     H90450   0.470   8.456   8.823  0.2323  0.1050  1.1924
  671MOL0     O90451   1.403   9.807   6.330  0.6774 -0.8017  0.0431
  671MOL0     C90452   1.404   9.767   6.216  0.7094 -1.1344  0.4533
  671MOL0     O90453   1.336   9.661   6.168 -0.7380  0.4616  0.0622
  671MOL0     C90454   1.275   9.562   6.246  0.1143 -0.4880 -0.0910
  671MOL0     C90455   1.210   9.458   6.173  0.0893  0.2442  0.2586
  671MOL0     C90456   1.142   9.356   6.245  0.1651  0.0663  0.0420
  671MOL0     C90457   1.142   9.360   6.388  0.2249  0.5105 -0.1872
  671MOL0     O90458   1.082   9.259   6.457 -0.5853  0.2289 -0.5989
  671MOL0     C90459   1.010   9.155   6.395 -0.0715  0.4387 -0.4413
  671MOL0     C90460   0.919   9.082   6.496  0.4303  0.0707 -0.1859
  671MOL0     C90461   0.837   9.187   6.582 -0.5783 -0.0553 -0.1061
  671MOL0     C90462   0.738   9.132   6.688  1.1671  0.0707  0.3982
  671MOL0     C90463   0.653   9.010   6.636  0.7704  0.0387  0.0652
  671MOL0     C90464   0.549   9.066   6.536  0.0547 -0.0334 -0.5490
  671MOL0     C90465   0.430   8.976   6.505  0.4703  0.5887 -0.4944
  671MOL0     C90466   0.335   8.942   6.626  0.8552 -0.5602 -0.1676
  671MOL0     N90467   0.225   8.858   6.562  0.2333  0.8340 -0.1854
  671MOL0     C90468   0.116   8.900   6.499 -0.1000 -0.3029  0.0997
  671MOL0     C90469   0.034   8.785   6.498 -0.2592 -0.1499  0.4016
  671MOL0     C90470  -0.098   8.784   6.427  0.4951  0.3388  0.8145
  671MOL0     C90471  -0.201   8.702   6.507 -0.1897 -1.1516 -0.2016
  671MOL0     C90472  -0.341   8.711   6.443  0.8228 -0.3764 -0.9121
  671MOL0     C90473  -0.452   8.669   6.550 -0.5199  0.2097 -0.8444
  671MOL0     O90474  -0.438   8.526   6.585  0.2677 -0.1733 -0.2433
  671MOL0     C90475  -0.555   8.482   6.652  0.0306 -0.4748 -0.1236
  671MOL0     C90476  -0.634   8.559   6.729  0.4092 -0.2979  0.2616
  671MOL0     C90477  -0.746   8.521   6.797 -0.7608  0.5445  0.6793
  671MOL0     C90478  -0.815   8.629   6.872  0.7648  0.0860  0.4017
  671MOL0     C90479  -0.772   8.375   6.815  0.3570  0.3231  0.1658
  671MOL0     C90480  -0.883   8.315   6.896  0.4856 -0.6030  0.5904
  671MOL0     O90481  -0.922   8.385   6.994  0.1214 -0.9143 -0.2229
  671MOL0     C90482  -1.047   8.372   7.038  0.4476  0.8690 -0.0135
  671MOL0     C90483  -1.065   8.360   7.173 -0.2228 -0.0131 -0.1833
  671MOL0     C90484  -1.193   8.364   7.234  0.2671 -0.0526 -0.1615
  671MOL0     C90485  -1.309   8.364   7.153  0.5234  0.0388 -0.3536
  671MOL0     O90486  -1.428   8.351   7.208 -0.0134  0.2339 -0.4767
  671MOL0     C90487  -1.530   8.446   7.177 -0.4908  0.0084 -0.1976
  671MOL0     C90488  -1.645   8.426   7.286 -0.8696 -0.2353 -0.2551
  671MOL0     C90489  -1.595   8.480   7.425  0.1617  0.7085 -0.6709
  671MOL0     C90490  -1.666   8.409   7.541  0.2015 -0.1351 -0.9678
  671MOL0     C90491  -1.588   8.453   7.673  1.0604 -0.6572 -0.7890
  671MOL0     C90492  -1.648   8.593   7.719 -1.7451  0.7924 -0.1454
  671MOL0     C90493  -1.685   8.594   7.866 -0.2139 -0.1063  0.3041
  671MOL0     C90494  -1.836   8.608   7.884  0.9887  0.4146  1.2512
  671MOL0    Cl90495  -1.893   8.779   7.861  0.0828 -0.4274  0.3623
  671MOL0     C90496  -1.291   8.373   7.014  0.8244 -0.9740 -0.3063
  671MOL0     C90497  -1.164   8.377   6.954 -0.1913  0.4134  0.2301
  671MOL0     O90498  -0.927   8.197   6.876 -0.1142  0.0565 -0.7558
  671MOL0     C90499  -0.685   8.291   6.737  0.4747  0.0915  0.7879
  671MOL0     C90500  -0.587   8.348   6.655 -0.3386 -0.0465  0.1096
  671MOL0     N90501   0.097   8.683   6.560 -0.1790  1.1602  0.1286
  671MOL0     N90502   0.217   8.725   6.588  0.0012  0.5969 -0.5868
  671MOL0     C90503   1.205   9.461   6.463 -0.5214 -0.3192  0.2397
  671MOL0     C90504   1.265   9.562   6.391 -0.3745  0.2942  0.1053
  671MOL0     C90505   1.466   9.847   6.110 -0.0070  0.2244 -0.3941
  671MOL0     C90506   1.427   9.836   5.973  0.2491 -0.8137  0.4028
  671MOL0     C90507   1.509   9.889   5.872  0.6715 -0.4148 -0.1746
  671MOL0     C90508   1.620   9.964   5.914 -0.4878  0.5491 -0.0235
  671MOL0     O90509   1.712  10.012   5.826  0.3057  0.4491 -0.2515
  671MOL0     C90510   1.665  10.050   5.695  0.0714  0.3885  1.1482
  671MOL0     C90511   1.789  10.090   5.609 -0.6791 -0.3605 -0.4851
  671MOL0     C90512   1.864  10.202   5.672 -0.8243  0.0644 -0.7256
  671MOL0     C90513   2.007  10.218   5.621  0.4150 -0.0978  0.6089
  671MOL0     C90514   1.997  10.227   5.479  0.9772 -0.8099  0.6955
  671MOL0     C90515   1.968  10.214   5.362 -0.5699  0.5128  0.0974
  671MOL0     C90516   1.654   9.976   6.044  0.3991 -0.5280  0.5171
  671MOL0     C90517   1.584   9.923   6.142 -0.2106 -0.3614 -0.0705
  671MOL0     H90518   1.228   9.442   6.067  4.6941 -0.1190  0.8680
  671MOL0     H90519   1.094   9.286   6.177 -0.1738  1.0309 -0.7428
  671MOL0     H90520   0.943   9.200   6.321 -2.5279 -1.1126  0.6905
  671MOL0     H90521   1.079   9.081   6.354 -1.3430 -2.2202  1.8625
  671MOL0     H90522   0.856   9.024   6.428 -0.0682  1.9788 -1.4470
  671MOL0     H90523   0.974   9.026   6.571 -0.1711 -0.3558 -0.0587
  671MOL0     H90524   0.907   9.250   6.637 -0.0857  1.4245 -2.2554
  671MOL0     H90525   0.788   9.259   6.514  0.2292 -1.3225 -2.1234
  671MOL0     H90526   0.806   9.093   6.764  1.4844 -1.8688 -0.8316
  671MOL0     H90527   0.669   9.208   6.728  2.6563  0.8368  1.6017
  671MOL0     H90528   0.716   8.933   6.590 -0.0889 -0.9849  0.5609
  671MOL0     H90529   0.601   8.970   6.724  2.8011  1.0780  1.8245
  671MOL0     H90530   0.495   9.153   6.576 -0.7383 -0.5434 -0.4848
  671MOL0     H90531   0.588   9.086   6.436 -1.8268 -1.9768 -1.7567
  671MOL0     H90532   0.373   9.016   6.420 -0.7812 -3.5104 -1.8064
  671MOL0     H90533   0.465   8.880   6.466 -2.2889  0.1562 -2.1385
  671MOL0     H90534   0.300   9.032   6.678  0.9771  1.2873 -3.0125
  671MOL0     H90535   0.391   8.886   6.701 -1.4689 -2.0303  0.5735
  671MOL0     H90536   0.091   8.994   6.452  2.0576 -0.0176 -0.5747
  671MOL0     H90537  -0.130   8.889   6.431  2.0267  1.0130 -1.9543
  671MOL0     H90538  -0.089   8.755   6.322 -1.8885 -1.2398  0.9707
  671MOL0     H90539  -0.197   8.747   6.606 -1.7440  2.5365 -1.6384
  671MOL0     H90540  -0.173   8.597   6.514  1.8791 -0.5658  0.8442
  671MOL0     H90541  -0.349   8.643   6.358 -3.7360  0.2628 -1.2093
  671MOL0     H90542  -0.371   8.813   6.417  0.5041 -0.9670 -3.0605
  671MOL0     H90543  -0.556   8.688   6.521 -1.4800 -2.0482  0.8473
  671MOL0     H90544  -0.438   8.735   6.636 -1.6385  1.8798 -1.8828
  671MOL0     H90545  -0.607   8.664   6.742 -1.1310  0.3159 -1.1158
  671MOL0     H90546  -0.833   8.725   6.824  1.4401 -1.2423 -2.7262
  671MOL0     H90547  -0.921   8.601   6.874 -0.0995  2.6809 -2.3138
  671MOL0     H90548  -0.775   8.634   6.974  0.8619  1.4098  0.3183
  671MOL0     H90549  -0.975   8.352   7.234 -1.1175  0.6144  1.2619
  671MOL0     H90550  -1.211   8.357   7.341 -1.1749  0.5292 -0.3389
  671MOL0     H90551  -1.482   8.544   7.189  0.9481 -0.6401 -0.4586
  671MOL0     H90552  -1.569   8.433   7.076  1.0193 -1.0636 -0.6660
  671MOL0     H90553  -1.732   8.482   7.252  0.8708  1.5503 -2.0230
  671MOL0     H90554  -1.657   8.318   7.292 -0.7329 -0.2187  0.3936
  671MOL0     H90555  -1.620   8.586   7.425 -1.5396  0.3511  0.4830
  671MOL0     H90556  -1.489   8.451   7.431 -0.2596 -1.2843 -1.9822
  671MOL0     H90557  -1.772   8.435   7.549  0.6421  1.2966  1.0561
  671MOL0     H90558  -1.659   8.300   7.529 -1.8265 -0.3114 -0.8522
  671MOL0     H90559  -1.480   8.463   7.658  1.0465 -0.4927 -0.7824
  671MOL0     H90560  -1.615   8.383   7.752 -0.4263 -0.6128 -1.2236
  671MOL0     H90561  -1.572   8.667   7.696 -1.9767  2.0104  2.5978
  671MOL0     H90562  -1.738   8.611   7.659 -1.0713 -0.1749 -1.4935
  671MOL0     H90563  -1.633   8.679   7.910 -3.0380  2.0789 -0.2595
  671MOL0     H90564  -1.662   8.502   7.921 -1.0500 -0.2481  0.4395
  671MOL0     H90565  -1.868   8.576   7.983 -0.1562 -0.5342  0.6032
  671MOL0     H90566  -1.895   8.550   7.813 -0.3520  3.4286 -0.2851
  671MOL0     H90567  -1.372   8.386   6.943  0.4347  0.5784  0.3958
  671MOL0     H90568  -1.146   8.382   6.847  2.5085  0.5548  0.6242
  671MOL0     H90569  -0.698   8.185   6.723 -1.5622  0.2047  1.5397
  671MOL0     H90570  -0.520   8.287   6.596  1.0401 -0.8057  2.3369
  671MOL0     H90571   1.217   9.466   6.571 -1.4626  0.9091  0.3193
  671MOL0     H90572   1.303   9.640   6.457 -2.1986 -0.7103  2.5079
  671MOL0     H90573   1.329   9.795   5.954 -0.8639  0.7205  2.4030
  671MOL0     H90574   1.485   9.877   5.766  0.0498 -1.0636  0.0322
  671MOL0     H90575   1.615   9.971   5.640 -1.6622 -0.8010  4.1642
  671MOL0     H90576   1.596  10.134   5.701  0.6509  0.8956  0.9037
  671MOL0     H90577   1.757  10.118   5.508  0.6012 -0.0060 -0.8086
  671MOL0     H90578   1.844   9.996   5.599  1.5362  0.0333  4.7882
  671MOL0     H90579   1.878  10.180   5.778 -1.7824  0.1016 -0.5873
  671MOL0     H90580   1.810  10.297   5.665  1.5483  1.5774 -0.0106
  671MOL0     H90581   2.065  10.129   5.650  2.5622  1.9855  3.2853
  671MOL0     H90582   2.059  10.303   5.666  1.4274 -0.1946 -0.3231
  671MOL0     H90583   1.957  10.193   5.258 -3.6342  1.1422  0.2092
  671MOL0     H90584   1.752  10.018   6.064  0.8717 -0.4684 -1.7095
  671MOL0     H90585   1.609   9.926   6.247  1.2073 -0.4992 -0.3696
  672MOL0     O90586   4.389   2.129  10.740  0.8704 -0.6916  0.1708
  672MOL0     C90587   4.387   2.246  10.769  0.3731  0.4087 -1.3148
  672MOL0     O90588   4.481   2.312  10.847  0.2508 -0.0031 -0.0881
  672MOL0     C90589   4.591   2.252  10.918 -0.2292 -1.3641  0.0653
  672MOL0     C90590   4.686   2.188  10.841 -0.4596  0.4344  0.3276
  672MOL0     C90591   4.788   2.119  10.910 -0.3089 -0.3400 -0.4769
  672MOL0     C90592   4.799   2.113  11.047 -0.3987  0.6618 -0.5127
  672MOL0     O90593   4.896   2.039  11.105  0.4586  0.3363  0.1006
  672MOL0     C90594   4.892   2.014  11.250  0.5436  0.3152 -0.0645
  672MOL0     C90595   4.994   1.905  11.272 -0.5631 -0.5121  0.5905
  672MOL0     C90596   4.960   1.832  11.413 -0.4578 -0.0523 -0.6408
  672MOL0     C90597   5.015   1.918  11.529 -0.0880 -0.6835 -0.3904
  672MOL0     C90598   5.002   1.853  11.664  0.0294 -0.6814 -0.0883
  672MOL0     C90599   4.853   1.844  11.706 -0.0740 -0.6808 -0.7534
  672MOL0     C90600   4.824   1.762  11.824 -0.1857 -0.1598 -0.5554
  672MOL0     C90601   4.669   1.764  11.850  0.2334 -0.6838 -0.5519
  672MOL0     N90602   4.619   1.657  11.946 -0.1351 -0.7005 -0.4220
  672MOL0     C90603   4.526   1.668  12.044 -0.4998  0.7577  0.2096
  672MOL0     C90604   4.511   1.550  12.095  0.5462 -0.2725 -1.2496
  672MOL0     C90605   4.432   1.518  12.224  0.0077 -0.4233  0.3075
  672MOL0     C90606   4.508   1.516  12.359 -0.1401 -1.2423 -0.4623
  672MOL0     C90607   4.578   1.392  12.386  0.4519 -0.3662 -0.2866
  672MOL0     C90608   4.680   1.406  12.496 -0.6297  1.3648 -0.4438
  672MOL0     O90609   4.713   1.267  12.537  0.4512 -0.2132  0.4474
  672MOL0     C90610   4.815   1.194  12.470  1.4430  0.2960 -0.2837
  672MOL0     C90611   4.911   1.252  12.386  0.7120 -0.2030 -0.3297
  672MOL0     C90612   5.017   1.174  12.330 -0.3238 -0.3369 -0.2621
  672MOL0     C90613   5.102   1.252  12.241  0.1185  0.2588 -0.1490
  672MOL0     C90614   5.030   1.034  12.371  0.0592  0.9795 -0.1269
  672MOL0     C90615   5.131   0.937  12.313  1.3997 -0.6209 -0.5260
  672MOL0     O90616   5.251   0.991  12.287  0.0195  0.4792 -0.1299
  672MOL0     C90617   5.349   0.923  12.221  0.6882  0.0549 -0.3627
  672MOL0     C90618   5.412   1.006  12.129 -0.2135  0.0306  0.7718
  672MOL0     C90619   5.514   0.960  12.049  0.2647 -0.3277 -0.2031
  672MOL0     C90620   5.554   0.824  12.058  0.1918 -0.0185 -0.0929
  672MOL0     O90621   5.657   0.772  11.982 -0.1135 -0.9989 -0.2507
  672MOL0     C90622   5.764   0.863  11.936  0.2748 -0.2900 -0.1984
  672MOL0     C90623   5.892   0.829  12.008 -1.0276  0.0541 -0.2927
  672MOL0     C90624   6.019   0.904  11.951  0.3772  0.7053 -0.3606
  672MOL0     C90625   6.145   0.851  12.021  0.5711  0.4328 -0.4727
  672MOL0     C90626   6.271   0.912  11.948 -0.2535  0.7908 -0.1017
  672MOL0     C90627   6.393   0.852  12.007 -0.0184  0.2598  0.1664
  672MOL0     C90628   6.529   0.900  11.942 -0.0946  0.2678 -0.4227
  672MOL0     C90629   6.624   0.785  11.920  0.5766 -0.3117 -0.1110
  672MOL0    Cl90630   6.641   0.699  12.068  0.0667  0.1625 -0.2856
  672MOL0     C90631   5.499   0.742  12.158  0.1462 -1.1480 -1.4349
  672MOL0     C90632   5.398   0.789  12.250 -0.2101  1.2561  0.5312
  672MOL0     O90633   5.096   0.821  12.286 -0.1044  0.7352 -0.4160
  672MOL0     C90634   4.936   0.982  12.457  0.0825  0.4444  0.3509
  672MOL0     C90635   4.829   1.062  12.495 -0.3228  1.0028 -0.0425
  672MOL0     N90636   4.594   1.461  12.030  0.3229 -0.2650  0.0480
  672MOL0     N90637   4.657   1.523  11.937 -0.0308 -0.3728 -0.2400
  672MOL0     C90638   4.707   2.184  11.118  0.1526 -0.1509  0.2456
  672MOL0     C90639   4.610   2.258  11.055  0.0685  0.1041 -1.2805
  672MOL0     C90640   4.283   2.328  10.708  0.0334  0.2409  0.7484
  672MOL0     C90641   4.172   2.259  10.647 -0.1928 -0.7953  1.0695
  672MOL0     C90642   4.072   2.342  10.586  0.3926 -0.0008 -0.6646
  672MOL0     C90643   4.071   2.481  10.585 -1.1695  0.2887 -0.3085
  672MOL0     O90644   3.958   2.550  10.544 -0.7942  0.0735  0.3006
  672MOL0     C90645   3.866   2.505  10.439 -1.2599  0.1575 -0.1833
  672MOL0     C90646   3.792   2.615  10.366  0.1078 -0.2337  0.2026
  672MOL0     C90647   3.706   2.693  10.463 -0.0106 -0.3079  0.0563
  672MOL0     C90648   3.649   2.808  10.377 -0.3960  0.9498 -0.2727
  672MOL0     C90649   3.600   2.915  10.464  0.4670  0.1810  0.7846
  672MOL0     C90650   3.567   3.014  10.531  0.1371 -0.1904  1.1737
  672MOL0     C90651   4.176   2.543  10.646  0.3166 -0.3469  0.2560
  672MOL0     C90652   4.283   2.466  10.710 -0.1273 -1.1117  0.4011
  672MOL0     H90653   4.687   2.209  10.734 -0.7053 -0.0592  0.2288
  672MOL0     H90654   4.871   2.077  10.854  0.9363  0.2855  0.8394
  672MOL0     H90655   4.913   2.100  11.314 -0.8564  0.1898  0.6070
  672MOL0     H90656   4.796   1.976  11.284  0.6119 -0.0828 -0.3125
  672MOL0     H90657   4.985   1.834  11.189  1.8920  1.3515 -1.4275
  672MOL0     H90658   5.089   1.959  11.271  0.5789 -2.2985 -2.7822
  672MOL0     H90659   4.851   1.826  11.420 -0.5788  0.7824 -1.5609
  672MOL0     H90660   5.002   1.733  11.431  0.1061  0.5038  1.3419
  672MOL0     H90661   5.124   1.926  11.515 -0.0401  0.6562  0.5915
  672MOL0     H90662   4.960   2.012  11.526 -2.0570 -1.7908 -0.2608
  672MOL0     H90663   5.036   1.749  11.659 -1.5364 -1.2149 -0.3947
  672MOL0     H90664   5.048   1.906  11.748 -1.0576 -1.4285  1.0131
  672MOL0     H90665   4.803   1.941  11.716 -3.7992 -2.3102 -1.9220
  672MOL0     H90666   4.796   1.796  11.626 -1.0658  0.4823 -0.7827
  672MOL0     H90667   4.854   1.658  11.807  0.9954  0.0018  0.3890
  672MOL0     H90668   4.868   1.800  11.916 -2.1378  0.9094 -0.0119
  672MOL0     H90669   4.625   1.739  11.753 -0.8752  0.2460 -0.3167
  672MOL0     H90670   4.639   1.867  11.875  1.0758 -0.5209 -0.1634
  672MOL0     H90671   4.480   1.765  12.061  2.1419  1.8788  1.4815
  672MOL0     H90672   4.341   1.579  12.225 -1.4849 -2.1489 -3.8075
  672MOL0     H90673   4.394   1.417  12.205  0.8497 -0.7074  0.0964
  672MOL0     H90674   4.437   1.534  12.441  0.0190  1.2466 -0.8101
  672MOL0     H90675   4.579   1.595  12.383 -0.4085 -1.2522  0.4063
  672MOL0     H90676   4.637   1.373  12.296  3.9933  1.5766  1.3954
  672MOL0     H90677   4.508   1.309  12.400 -0.3909  0.0484 -1.7670
  672MOL0     H90678   4.645   1.458  12.586  3.8410 -0.1068  2.5025
  672MOL0     H90679   4.768   1.466  12.470  0.1555  1.7316  2.6560
  672MOL0     H90680   4.905   1.355  12.352  0.6952  0.2103  0.8714
  672MOL0     H90681   5.173   1.182  12.196 -1.1194 -2.6059  2.0914
  672MOL0     H90682   5.032   1.286  12.164 -1.3033 -1.2124  0.4420
  672MOL0     H90683   5.151   1.332  12.298 -1.1228 -0.8647  2.6602
  672MOL0     H90684   5.383   1.107  12.103  2.0751  0.2723 -1.2074
  672MOL0     H90685   5.569   1.019  11.977  2.8847 -2.4533 -0.1088
  672MOL0     H90686   5.791   0.845  11.832 -0.3578 -0.8093 -0.2759
  672MOL0     H90687   5.754   0.970  11.955  1.0241  0.1985 -2.2724
  672MOL0     H90688   5.887   0.860  12.112 -0.3113  1.9665 -0.7718
  672MOL0     H90689   5.921   0.724  11.993  0.2715  0.3099  0.2635
  672MOL0     H90690   6.003   1.011  11.967  1.8151  0.6198  2.1400
  672MOL0     H90691   6.018   0.878  11.845 -4.4746  1.4434 -0.7190
  672MOL0     H90692   6.154   0.883  12.125 -1.6707 -1.4224  0.3706
  672MOL0     H90693   6.144   0.741  12.022 -1.7913  0.3969  1.2686
  672MOL0     H90694   6.270   1.021  11.962  0.4137  0.6931  0.7751
  672MOL0     H90695   6.266   0.876  11.845  1.2430 -1.7783  0.6373
  672MOL0     H90696   6.399   0.869  12.115 -1.8067 -0.9472  0.4817
  672MOL0     H90697   6.372   0.746  11.994 -0.0808  0.2332  0.4688
  672MOL0     H90698   6.576   0.978  12.002 -1.2865 -1.0181  2.3933
  672MOL0     H90699   6.503   0.941  11.844  2.4125 -0.4061 -1.4401
  672MOL0     H90700   6.718   0.834  11.891  1.3009 -0.3605  1.9886
  672MOL0     H90701   6.577   0.721  11.844 -1.8662  2.9112 -1.5423
  672MOL0     H90702   5.523   0.637  12.175 -0.3196 -0.7022  3.1117
  672MOL0     H90703   5.364   0.723  12.330  1.0869  2.0871  1.8235
  672MOL0     H90704   4.941   0.877  12.486 -0.7843  1.0626  3.0209
  672MOL0     H90705   4.765   1.018  12.571 -0.0591  1.8610  0.7005
  672MOL0     H90706   4.720   2.176  11.225  2.4009  4.1714  0.4946
  672MOL0     H90707   4.527   2.310  11.102 -0.2389 -0.0755 -1.6173
  672MOL0     H90708   4.153   2.153  10.636 -1.8524 -0.6431  2.0410
  672MOL0     H90709   3.989   2.290  10.538 -1.7904  3.2565 -0.7585
  672MOL0     H90710   3.923   2.446  10.367  2.9399  2.4376  0.9262
  672MOL0     H90711   3.787   2.453  10.495 -0.0624  0.0565  1.5041
  672MOL0     H90712   3.730   2.569  10.288  0.3694 -3.2602  1.6448
  672MOL0     H90713   3.861   2.683  10.316  0.8757 -2.3646 -1.8190
  672MOL0     H90714   3.774   2.736  10.537  0.3303 -0.2975 -0.2584
  672MOL0     H90715   3.632   2.626  10.510  1.7391 -1.4408  1.3237
  672MOL0     H90716   3.563   2.765  10.324 -2.0713 -1.1648  3.6901
  672MOL0     H90717   3.720   2.851  10.306  2.1662 -3.0479 -0.4436
  672MOL0     H90718   3.544   3.103  10.587  1.2299  0.6291  0.3550
  672MOL0     H90719   4.171   2.651  10.650 -1.4746 -0.3706 -0.4845
  672MOL0     H90720   4.361   2.527  10.755 -2.2482  1.4164  0.9147
  673MOL0     O90721  11.157  11.111   1.027 -0.8049 -1.1453  0.0174
  673MOL0     C90722  11.044  11.158   1.044  0.0331  0.7781  0.9594
  673MOL0     O90723  10.978  11.174   1.164  0.1035  0.0422 -0.2069
  673MOL0     C90724  11.039  11.106   1.274 -0.3702  0.6865  0.3190
  673MOL0     C90725  10.993  10.982   1.326 -0.3152 -0.4114  0.8685
  673MOL0     C90726  11.069  10.919   1.428  0.6761 -1.3154  0.1212
  673MOL0     C90727  11.168  10.992   1.491  0.1251  0.1319  0.2233
  673MOL0     O90728  11.228  10.931   1.603 -0.4686  0.2898  0.7811
  673MOL0     C90729  11.141  10.914   1.716 -0.0938  0.7312 -0.6143
  673MOL0     C90730  11.217  10.882   1.851 -0.3153  0.6729  0.6630
  673MOL0     C90731  11.329  10.990   1.884  1.0392  0.0540 -0.2725
  673MOL0     C90732  11.270  11.119   1.935 -0.2414  0.4988 -0.2820
  673MOL0     C90733  11.354  11.239   1.898 -0.4824 -0.8696  0.3303
  673MOL0     C90734  11.277  11.382   1.928  0.3515  0.4612  0.0223
  673MOL0     C90735  11.155  11.395   1.842  0.5358 -0.8120 -0.2859
  673MOL0     C90736  11.085  11.535   1.882  0.0389  0.9747 -0.5494
  673MOL0     N90737  10.980  11.581   1.787 -0.5206 -0.7343  0.4270
  673MOL0     C90738  10.906  11.502   1.709 -0.2604  0.1983 -0.5683
  673MOL0     C90739  10.852  11.594   1.617  0.0631 -0.6253  0.2642
  673MOL0     C90740  10.771  11.547   1.493 -0.8033 -0.4066  0.4383
  673MOL0     C90741  10.864  11.465   1.397  0.1522  0.3315  0.0682
  673MOL0     C90742  10.793  11.427   1.264  0.5460 -0.1035  0.0243
  673MOL0     C90743  10.707  11.303   1.288 -0.6624  0.0361 -0.4808
  673MOL0     O90744  10.644  11.264   1.166  0.0465  0.0384  0.0816
  673MOL0     C90745  10.549  11.350   1.106 -0.1181 -0.6080 -0.0999
  673MOL0     C90746  10.494  11.307   0.989  0.0366 -0.3287  0.1966
  673MOL0     C90747  10.393  11.368   0.912 -0.4674 -0.5310  0.3074
  673MOL0     C90748  10.356  11.305   0.779  0.8527  0.4973  0.7146
  673MOL0     C90749  10.339  11.489   0.970  0.0755  0.7371  1.3714
  673MOL0     C90750  10.231  11.569   0.900  0.4433 -0.9134  1.1714
  673MOL0     O90751  10.158  11.658   0.980 -0.2138  0.4516 -1.0710
  673MOL0     C90752  10.095  11.765   0.926 -0.6983 -0.0028  0.2687
  673MOL0     C90753  10.148  11.856   0.826  0.1506  0.3471  0.9537
  673MOL0     C90754  10.070  11.963   0.785 -0.2602 -0.6152 -0.7107
  673MOL0     C90755   9.938  11.976   0.835  0.3199  0.6112  0.7512
  673MOL0     O90756   9.846  12.063   0.792  0.3550 -0.1749  0.7201
  673MOL0     C90757   9.864  12.202   0.830 -0.0849  1.2179 -0.3230
  673MOL0     C90758   9.779  12.280   0.727 -0.4425 -0.6636  0.1717
  673MOL0     C90759   9.636  12.236   0.714 -0.0051 -0.1434 -0.1603
  673MOL0     C90760   9.535  12.346   0.658 -0.0790  0.8427 -0.6005
  673MOL0     C90761   9.408  12.273   0.618 -0.0688 -0.2070 -0.4062
  673MOL0     C90762   9.320  12.220   0.733  0.4364 -0.3814 -0.8654
  673MOL0     C90763   9.276  12.330   0.826 -0.1394  0.4009 -0.7591
  673MOL0     C90764   9.210  12.271   0.958 -0.1245 -0.2947  0.0965
  673MOL0    Cl90765   9.050  12.214   0.920  0.1581  0.0223 -0.0003
  673MOL0     C90766   9.893  11.887   0.926 -0.0665 -0.2537 -1.3293
  673MOL0     C90767   9.966  11.779   0.974  0.3615  0.9102  0.3050
  673MOL0     O90768  10.237  11.573   0.777 -0.5590 -0.2947 -0.4188
  673MOL0     C90769  10.392  11.539   1.089  0.3192  0.8301  1.1007
  673MOL0     C90770  10.489  11.467   1.161 -0.9760 -0.5469  0.7925
  673MOL0     N90771  10.906  11.725   1.644 -1.1292  0.2793 -1.1412
  673MOL0     N90772  10.988  11.710   1.739 -1.0427 -0.9755  0.2137
  673MOL0     C90773  11.198  11.119   1.455 -0.1396  0.7674  0.5295
  673MOL0     C90774  11.139  11.181   1.341 -0.5245  0.5011  0.3005
  673MOL0     C90775  10.978  11.200   0.913  0.8663  0.5040  0.1036
  673MOL0     C90776  11.057  11.175   0.793 -0.2313 -0.5068  0.4977
  673MOL0     C90777  11.007  11.199   0.667  0.4671 -0.4461 -0.0790
  673MOL0     C90778  10.881  11.258   0.653  0.5038 -0.0077 -0.0406
  673MOL0     O90779  10.845  11.268   0.518 -0.4574  0.0098 -1.2500
  673MOL0     C90780  10.739  11.365   0.494 -0.0946 -0.4296 -0.4637
  673MOL0     C90781  10.738  11.379   0.339 -0.3541 -0.4039 -0.4194
  673MOL0     C90782  10.838  11.493   0.297 -0.8751 -0.5630 -0.1892
  673MOL0     C90783  10.826  11.515   0.143 -0.5909 -0.0435  0.0623
  673MOL0     C90784  10.685  11.540   0.096 -1.0459 -0.0255 -0.0153
  673MOL0     C90785  10.576  11.556   0.035 -1.0174  0.0012 -0.5931
  673MOL0     C90786  10.804  11.287   0.766 -0.2514  0.1220 -1.0265
  673MOL0     C90787  10.858  11.255   0.892 -0.2943 -0.1254 -0.3425
  673MOL0     H90788  10.914  10.940   1.263 -0.4378  0.4665  0.4193
  673MOL0     H90789  11.054  10.818   1.465 -1.9361 -0.6482  1.1728
  673MOL0     H90790  11.087  11.007   1.739 -1.5422 -0.3797  0.6857
  673MOL0     H90791  11.065  10.838   1.696  0.9394 -0.1970 -1.0882
  673MOL0     H90792  11.144  10.898   1.931  0.3305 -1.7491  1.8532
  673MOL0     H90793  11.256  10.780   1.858 -0.2993  0.6654  0.4646
  673MOL0     H90794  11.415  10.950   1.939 -0.4966 -3.7664 -0.3355
  673MOL0     H90795  11.355  11.022   1.783  0.0558  3.0949  0.3100
  673MOL0     H90796  11.169  11.139   1.898 -0.2862  0.6310 -0.0922
  673MOL0     H90797  11.265  11.104   2.043  0.8340  1.4596 -0.0822
  673MOL0     H90798  11.439  11.227   1.966 -0.4890 -5.6602 -0.1163
  673MOL0     H90799  11.380  11.240   1.792 -0.7004  1.9111  0.2443
  673MOL0     H90800  11.254  11.377   2.035  0.6148 -2.1970  0.0254
  673MOL0     H90801  11.349  11.463   1.912 -0.9635  2.0646  1.8454
  673MOL0     H90802  11.176  11.404   1.735 -1.7719 -1.6093 -0.8585
  673MOL0     H90803  11.077  11.321   1.866 -0.8842  1.8241  4.4537
  673MOL0     H90804  11.158  11.617   1.882  1.8188 -0.5511  0.0315
  673MOL0     H90805  11.045  11.543   1.984  0.7412  2.6019 -0.3733
  673MOL0     H90806  10.887  11.396   1.697  1.3423  0.0924 -2.7469
  673MOL0     H90807  10.687  11.487   1.530 -1.6129 -0.4416 -1.3203
  673MOL0     H90808  10.744  11.641   1.443  1.9506  0.6074  0.7003
  673MOL0     H90809  10.905  11.376   1.445  1.8185  0.0333 -1.7850
  673MOL0     H90810  10.951  11.525   1.369  1.3459 -0.7705  1.2839
  673MOL0     H90811  10.872  11.403   1.192 -0.6462  0.8579 -1.7017
  673MOL0     H90812  10.742  11.516   1.227 -1.8335 -1.7776 -0.9807
  673MOL0     H90813  10.631  11.328   1.363 -0.5857  1.8481 -0.9553
  673MOL0     H90814  10.762  11.219   1.330  0.8276  0.4732 -1.4891
  673MOL0     H90815  10.525  11.211   0.947 -0.6818 -0.2839 -0.4559
  673MOL0     H90816  10.378  11.197   0.777 -1.4622 -0.1048  2.6983
  673MOL0     H90817  10.253  11.311   0.742  0.0811 -3.5794  1.6374
  673MOL0     H90818  10.423  11.348   0.705 -0.1169  0.7273 -0.0600
  673MOL0     H90819  10.251  11.836   0.799 -0.4295 -3.2805  0.9166
  673MOL0     H90820  10.104  12.013   0.694  0.1348  0.0678 -0.2002
  673MOL0     H90821   9.824  12.220   0.930 -1.0381  4.5621 -1.1961
  673MOL0     H90822   9.965  12.240   0.812 -0.3819  0.6704 -3.8873
  673MOL0     H90823   9.780  12.379   0.774  0.9351 -1.3776  1.7368
  673MOL0     H90824   9.826  12.285   0.628 -2.0155  0.2365 -0.5725
  673MOL0     H90825   9.600  12.190   0.807 -0.6128  2.6073  1.0623
  673MOL0     H90826   9.649  12.154   0.642 -1.7951 -0.5351 -0.0978
  673MOL0     H90827   9.525  12.425   0.732  2.0912 -1.2499  2.1717
  673MOL0     H90828   9.580  12.392   0.569  3.5517 -1.6773 -0.2941
  673MOL0     H90829   9.412  12.195   0.542 -0.7100 -0.2702 -0.3732
  673MOL0     H90830   9.343  12.353   0.580 -3.5897 -2.0197  1.4040
  673MOL0     H90831   9.226  12.182   0.691 -0.2176  0.2869 -0.0602
  673MOL0     H90832   9.370  12.137   0.782 -1.1199 -0.4335  0.7474
  673MOL0     H90833   9.216  12.409   0.780  2.5335  2.7657 -0.4331
  673MOL0     H90834   9.368  12.380   0.860 -0.4834  1.4455 -1.3149
  673MOL0     H90835   9.210  12.341   1.043 -1.3967 -1.8166  1.4207
  673MOL0     H90836   9.270  12.189   0.997  1.3400  1.1805  1.1002
  673MOL0     H90837   9.792  11.879   0.964  0.0645  1.2372 -0.6005
  673MOL0     H90838   9.923  11.708   1.045 -1.0062  0.3164 -1.0508
  673MOL0     H90839  10.366  11.640   1.119  1.4588  2.5930 -3.0125
  673MOL0     H90840  10.539  11.504   1.249 -3.6916  1.2203  1.7208
  673MOL0     H90841  11.270  11.183   1.505 -0.1355  2.0683 -1.0453
  673MOL0     H90842  11.167  11.281   1.307 -0.7291 -0.0662 -1.6749
  673MOL0     H90843  11.153  11.124   0.793  1.4400  2.0765 -4.0871
  673MOL0     H90844  11.058  11.172   0.576  0.5516  0.0734 -0.1901
  673MOL0     H90845  10.637  11.337   0.523  0.7182 -1.2843  1.8198
  673MOL0     H90846  10.763  11.469   0.518  2.8277 -0.4394 -2.8159
  673MOL0     H90847  10.633  11.408   0.326 -1.1799 -1.0127  3.6302
  673MOL0     H90848  10.757  11.283   0.291 -0.6999 -0.7751  0.1843
  673MOL0     H90849  10.945  11.477   0.310 -0.6065  0.3244 -1.1537
  673MOL0     H90850  10.827  11.590   0.347 -0.3667 -0.8905  0.5796
  673MOL0     H90851  10.864  11.425   0.094 -3.2774  0.1940 -2.7516
  673MOL0     H90852  10.886  11.597   0.101  0.2089 -0.3303  0.6108
  673MOL0     H90853  10.486  11.578  -0.018 -2.6022  0.8482  2.2248
  673MOL0     H90854  10.700  11.318   0.772  0.1147  1.2420 -0.1477
  673MOL0     H90855  10.798  11.278   0.980  2.3370  1.0686  1.2468
  674MOL0     O90856  10.798   5.112   2.388  0.4836 -0.6320 -0.3193
  674MOL0     C90857  10.764   5.198   2.309  0.4996 -1.1884  0.1195
  674MOL0     O90858  10.654   5.198   2.238 -0.4735 -0.6807  0.6763
  674MOL0     C90859  10.567   5.090   2.216 -0.1559 -0.1177  0.2122
  674MOL0     C90860  10.532   5.001   2.320 -0.2513  0.1041  0.7493
  674MOL0     C90861  10.432   4.915   2.301 -0.3373  0.6446  0.6002
  674MOL0     C90862  10.364   4.894   2.182  0.0321 -0.2247  0.1597
  674MOL0     O90863  10.265   4.798   2.182  0.2441 -0.4431  0.0561
  674MOL0     C90864  10.172   4.801   2.068 -0.1531 -0.5548  0.9410
  674MOL0     C90865  10.076   4.691   2.079  0.3827  0.3089  0.5970
  674MOL0     C90866   9.982   4.684   1.962 -0.8559 -0.6187  0.3638
  674MOL0     C90867   9.883   4.568   1.972  0.2655  0.5060 -0.5869
  674MOL0     C90868   9.792   4.550   1.852  0.2949 -0.2372 -0.0542
  674MOL0     C90869   9.695   4.667   1.835 -0.0202  0.3776 -0.1880
  674MOL0     C90870   9.593   4.644   1.717  0.0595  0.0300 -0.3928
  674MOL0     C90871   9.468   4.729   1.746 -0.4341 -0.4352  0.1007
  674MOL0     N90872   9.362   4.697   1.643  0.1796  0.2205  0.3034
  674MOL0     C90873   9.262   4.600   1.652 -0.0314 -0.5141 -0.8636
  674MOL0     C90874   9.187   4.628   1.547  0.1079 -0.3944  0.2450
  674MOL0     C90875   9.071   4.552   1.500  0.8995  0.3940 -0.0901
  674MOL0     C90876   9.106   4.477   1.369 -0.2126  0.0173 -0.2391
  674MOL0     C90877   8.988   4.421   1.296 -0.8014  0.3531  0.6567
  674MOL0     C90878   8.911   4.317   1.370 -0.0459  0.0333 -0.5337
  674MOL0     O90879   8.826   4.237   1.285  0.5609  0.0508  0.0339
  674MOL0     C90880   8.709   4.177   1.335  1.0904  1.3353 -0.5391
  674MOL0     C90881   8.616   4.146   1.234 -0.1931  1.1457  0.0784
  674MOL0     C90882   8.505   4.067   1.261  0.4493  0.4776  0.7309
  674MOL0     C90883   8.416   4.048   1.144  0.0324  0.2043 -0.3963
  674MOL0     C90884   8.486   4.018   1.394  0.1643 -0.3499  1.3454
  674MOL0     C90885   8.370   3.946   1.441 -0.1716  0.4444 -0.3638
  674MOL0     O90886   8.396   3.867   1.555  0.0393 -0.3269  0.5226
  674MOL0     C90887   8.307   3.769   1.593 -0.1897  0.3505  0.0591
  674MOL0     C90888   8.366   3.655   1.656  0.7515 -0.1958 -0.6755
  674MOL0     C90889   8.294   3.546   1.712  0.3928 -0.0078  0.1642
  674MOL0     C90890   8.156   3.560   1.703  0.1083  0.3255 -0.6092
  674MOL0     O90891   8.070   3.463   1.762 -0.4954 -0.5230  0.0331
  674MOL0     C90892   8.131   3.334   1.783 -0.0802  0.0815 -0.4002
  674MOL0     C90893   8.025   3.225   1.789 -0.2970 -0.5352  0.3218
  674MOL0     C90894   7.949   3.214   1.657  1.0676  1.0242  0.7045
  674MOL0     C90895   7.800   3.224   1.684  0.1477 -0.3539 -0.9633
  674MOL0     C90896   7.760   3.375   1.693 -0.1358  1.5065  0.4388
  674MOL0     C90897   7.608   3.381   1.736 -0.6664 -0.1268  0.6273
  674MOL0     C90898   7.521   3.465   1.633  0.4571 -0.6694  0.6990
  674MOL0     C90899   7.491   3.375   1.507 -0.3420  0.0480  0.0847
  674MOL0    Cl90900   7.348   3.452   1.416  0.4241  0.2454 -0.1891
  674MOL0     C90901   8.090   3.668   1.637  0.2314 -0.2026  0.7113
  674MOL0     C90902   8.167   3.772   1.589  0.6192 -0.2438 -0.0920
  674MOL0     O90903   8.264   3.951   1.377 -0.5908 -0.3716  0.5779
  674MOL0     C90904   8.575   4.059   1.491 -0.6844  0.6639  1.2512
  674MOL0     C90905   8.689   4.135   1.463 -0.4929 -0.0452  0.7712
  674MOL0     N90906   9.244   4.736   1.474 -0.6183  0.4038  0.7068
  674MOL0     N90907   9.353   4.777   1.532  0.9693  0.3336  0.0386
  674MOL0     C90908  10.383   4.997   2.088  0.3136  0.7484 -0.3004
  674MOL0     C90909  10.481   5.095   2.111 -0.4653 -0.2873 -0.8495
  674MOL0     C90910  10.846   5.319   2.299  0.1281  0.0187  0.1335
  674MOL0     C90911  10.971   5.326   2.357  0.7159 -0.8407  0.1670
  674MOL0     C90912  11.042   5.444   2.347 -0.7366 -0.0228  0.3713
  674MOL0     C90913  11.007   5.552   2.275 -0.1641  1.0962 -0.1213
  674MOL0     O90914  11.085   5.674   2.273  0.3830 -0.1757 -0.4932
  674MOL0     C90915  11.150   5.721   2.396 -0.3821 -0.4557  0.5385
  674MOL0     C90916  11.249   5.839   2.363  1.1176  0.0514 -0.5334
  674MOL0     C90917  11.172   5.976   2.347 -0.1220 -0.2979  0.5173
  674MOL0     C90918  11.054   5.986   2.248 -1.1466  0.8183  0.1633
  674MOL0     C90919  10.974   6.100   2.275  0.2971 -1.0044 -0.4282
  674MOL0     C90920  10.897   6.195   2.287 -0.3328  0.2461  0.8076
  674MOL0     C90921  10.878   5.540   2.219  0.0075 -1.1774 -0.5530
  674MOL0     C90922  10.795   5.433   2.228  0.3705 -0.0658 -0.3805
  674MOL0     H90923  10.582   4.996   2.416 -0.6496 -1.4277  0.8917
  674MOL0     H90924  10.396   4.846   2.377  0.1745 -1.2774 -0.8268
  674MOL0     H90925  10.109   4.890   2.064  0.9725  0.2199 -1.8392
  674MOL0     H90926  10.237   4.798   1.980  0.0339 -2.9828  1.0818
  674MOL0     H90927  10.141   4.603   2.084 -1.8417 -1.4694 -0.1327
  674MOL0     H90928  10.022   4.684   2.174  2.7737 -2.6229  1.8990
  674MOL0     H90929   9.924   4.777   1.958  1.4774  0.8672 -0.5621
  674MOL0     H90930  10.045   4.665   1.875 -0.9308 -0.6259  0.3098
  674MOL0     H90931   9.937   4.475   1.994  0.6496  0.9541  0.4314
  674MOL0     H90932   9.824   4.593   2.060  1.0736  0.1891  0.0598
  674MOL0     H90933   9.847   4.533   1.759  0.3597  0.5314 -0.1598
  674MOL0     H90934   9.721   4.467   1.864 -1.4653  1.4521  2.0565
  674MOL0     H90935   9.646   4.698   1.927  1.1976  2.7411 -0.2695
  674MOL0     H90936   9.749   4.760   1.814  0.6552 -0.2204 -1.1932
  674MOL0     H90937   9.633   4.680   1.621 -0.1768 -0.4264 -0.6692
  674MOL0     H90938   9.562   4.540   1.699 -1.2995  0.4466 -0.5307
  674MOL0     H90939   9.498   4.833   1.731 -1.3683 -0.0085  1.0332
  674MOL0     H90940   9.429   4.710   1.847 -0.5576  0.7570  0.2913
  674MOL0     H90941   9.265   4.523   1.729  0.1675  1.2601  0.9828
  674MOL0     H90942   9.036   4.480   1.574 -0.5131  0.8882 -0.2367
  674MOL0     H90943   8.986   4.617   1.475  0.5770  0.3555  0.8728
  674MOL0     H90944   9.182   4.399   1.378  0.3718  0.2725 -2.3568
  674MOL0     H90945   9.147   4.558   1.307  0.4258 -0.5774 -0.6044
  674MOL0     H90946   9.023   4.377   1.203  0.5010 -0.2551  1.4107
  674MOL0     H90947   8.922   4.505   1.269 -1.5059 -0.0858  0.9722
  674MOL0     H90948   8.850   4.362   1.450  1.5038  2.2071 -0.4875
  674MOL0     H90949   8.979   4.247   1.419 -0.4285 -2.0868 -2.8290
  674MOL0     H90950   8.641   4.189   1.137  0.6664 -1.9031 -1.1961
  674MOL0     H90951   8.429   3.945   1.112  0.7615 -0.2521  1.2562
  674MOL0     H90952   8.313   4.083   1.161  0.1920  0.7024 -0.4480
  674MOL0     H90953   8.452   4.115   1.065  1.7235 -0.0395  0.1508
  674MOL0     H90954   8.473   3.650   1.677  0.3282 -1.2690  1.5476
  674MOL0     H90955   8.354   3.471   1.763 -0.4413  0.0704  1.2933
  674MOL0     H90956   8.206   3.299   1.711  0.2973 -1.0472  0.4936
  674MOL0     H90957   8.185   3.341   1.878 -1.9671  2.0678  0.6032
  674MOL0     H90958   8.085   3.133   1.794  1.6087  0.4817 -2.0241
  674MOL0     H90959   7.955   3.242   1.871 -0.5187  1.9029 -0.2990
  674MOL0     H90960   7.966   3.120   1.604  3.5799  2.2382 -0.8085
  674MOL0     H90961   7.977   3.285   1.579 -0.8566  1.0152 -0.0556
  674MOL0     H90962   7.744   3.179   1.602  1.1595 -1.1756 -1.2307
  674MOL0     H90963   7.792   3.173   1.781  2.4612  2.7639  1.0808
  674MOL0     H90964   7.784   3.408   1.592 -0.4850 -0.0283 -0.1738
  674MOL0     H90965   7.812   3.416   1.780 -1.0604  0.4932  1.4976
  674MOL0     H90966   7.567   3.281   1.754  2.5825 -2.0569 -1.7253
  674MOL0     H90967   7.598   3.438   1.829 -2.2765 -0.7404  0.8769
  674MOL0     H90968   7.582   3.551   1.604  3.5025 -2.2018  2.1268
  674MOL0     H90969   7.425   3.498   1.675 -0.6973 -2.5817 -0.3065
  674MOL0     H90970   7.479   3.274   1.546 -0.2847 -0.4084 -1.0414
  674MOL0     H90971   7.580   3.379   1.444 -0.0707  1.0413  0.5026
  674MOL0     H90972   7.983   3.673   1.618  0.0648 -0.2547  1.6120
  674MOL0     H90973   8.106   3.853   1.551 -1.0534 -1.3963  0.0134
  674MOL0     H90974   8.565   4.039   1.597 -0.4979  0.7885  1.2923
  674MOL0     H90975   8.749   4.183   1.540  0.0107 -0.3896  0.6012
  674MOL0     H90976  10.312   5.009   2.007 -0.1354 -1.9097 -0.4176
  674MOL0     H90977  10.490   5.180   2.044  2.0695  0.0103 -0.2456
  674MOL0     H90978  11.010   5.237   2.406 -1.1023 -0.8520  1.7121
  674MOL0     H90979  11.144   5.450   2.384 -0.5210 -2.7467  0.3839
  674MOL0     H90980  11.078   5.767   2.465 -0.4607  2.9591 -1.5886
  674MOL0     H90981  11.196   5.636   2.447 -1.1562 -2.2050 -1.5027
  674MOL0     H90982  11.317   5.813   2.282 -0.7553 -3.6075 -1.1232
  674MOL0     H90983  11.297   5.846   2.462 -1.4872 -0.5978  0.8756
  674MOL0     H90984  11.257   6.039   2.321  2.4516 -3.0701  1.5989
  674MOL0     H90985  11.139   6.007   2.447  1.3268  0.6138  0.7469
  674MOL0     H90986  10.995   5.894   2.260  3.9821 -2.8850  0.7694
  674MOL0     H90987  11.091   6.002   2.147  2.1310  0.2427  1.1508
  674MOL0     H90988  10.830   6.278   2.280  0.9751  1.3055  0.6209
  674MOL0     H90989  10.858   5.625   2.154  1.9259  0.1521  0.4991
  674MOL0     H90990  10.708   5.446   2.163  2.0573 -3.4195 -3.6353
  675MOL0     O90991   1.363   2.765   6.329  0.4615 -0.7828  0.2225
  675MOL0     C90992   1.393   2.878   6.356  0.3947 -0.2174 -0.3980
  675MOL0     O90993   1.345   2.949   6.472 -0.0390  0.2165  0.6040
  675MOL0     C90994   1.219   2.909   6.494  0.4792  0.3986 -1.3311
  675MOL0     C90995   1.188   2.830   6.608  0.0532 -0.6507  0.7044
  675MOL0     C90996   1.050   2.813   6.638 -0.4409 -0.2777  0.4821
  675MOL0     C90997   0.950   2.875   6.563  0.4125 -0.2233 -0.7040
  675MOL0     O90998   0.818   2.836   6.594 -0.3547  0.7681 -0.0456
  675MOL0     C90999   0.712   2.905   6.530  0.0170 -0.5794  0.0129
  675MOL0     C91000   0.579   2.888   6.603 -0.5874 -0.0612  0.6170
  675MOL0     C91001   0.520   2.763   6.552  0.3640  0.3410  1.0545
  675MOL0     C91002   0.379   2.744   6.606 -0.0263 -0.7091 -0.0253
  675MOL0     C91003   0.315   2.608   6.578 -0.4692  0.0497 -0.1657
  675MOL0     C91004   0.188   2.583   6.654 -0.3717 -0.0255 -0.4390
  675MOL0     C91005   0.116   2.461   6.599 -0.1325  0.0979  0.0648
  675MOL0     C91006   0.071   2.469   6.447  0.2500 -0.0492 -0.1481
  675MOL0     N91007  -0.007   2.597   6.418 -0.9870 -0.0173 -0.1212
  675MOL0     C91008  -0.146   2.595   6.416 -1.0907 -0.0417  1.0016
  675MOL0     C91009  -0.165   2.733   6.406  1.5284  0.9368  0.5844
  675MOL0     C91010  -0.303   2.792   6.396  0.6522 -0.8427  1.0148
  675MOL0     C91011  -0.383   2.759   6.266  0.0013 -0.7253  0.1869
  675MOL0     C91012  -0.521   2.830   6.270 -0.1055  1.4822 -0.1964
  675MOL0     C91013  -0.598   2.798   6.149 -0.0543 -0.5836 -0.5204
  675MOL0     O91014  -0.646   2.665   6.166 -0.5202 -0.2549 -0.4344
  675MOL0     C91015  -0.777   2.627   6.193 -0.8849 -0.0264  0.0410
  675MOL0     C91016  -0.883   2.723   6.204  0.6830 -0.6292 -1.1264
  675MOL0     C91017  -1.006   2.699   6.263  0.1363  0.1036  0.1267
  675MOL0     C91018  -1.102   2.815   6.293  0.6422  0.8172  1.2287
  675MOL0     C91019  -1.036   2.561   6.285  0.9431  0.7357  0.2894
  675MOL0     C91020  -1.163   2.507   6.327  0.9757  0.0897  0.2597
  675MOL0     O91021  -1.204   2.397   6.262  0.2142  0.1286 -0.1488
  675MOL0     C91022  -1.318   2.319   6.296  0.3993 -0.5594  0.1934
  675MOL0     C91023  -1.342   2.262   6.427 -0.1421 -0.9145  1.4725
  675MOL0     C91024  -1.454   2.185   6.447  0.8493 -0.6860 -0.6660
  675MOL0     C91025  -1.550   2.163   6.354  0.9064  0.3354  1.2398
  675MOL0     O91026  -1.660   2.078   6.387  0.0397  0.3722  0.1308
  675MOL0     C91027  -1.760   2.047   6.289  0.0713  0.3912  0.2731
  675MOL0     C91028  -1.856   1.948   6.354 -0.3180 -0.5741 -0.2080
  675MOL0     C91029  -1.931   1.992   6.483 -0.4281  1.3985  0.1778
  675MOL0     C91030  -2.025   2.106   6.471 -0.3801 -0.3854  0.5192
  675MOL0     C91031  -2.115   2.104   6.601  0.0783 -0.6142  0.0855
  675MOL0     C91032  -2.224   2.212   6.597 -0.5046 -0.0711 -0.1233
  675MOL0     C91033  -2.347   2.166   6.671 -0.1825 -0.3368  0.4633
  675MOL0     C91034  -2.457   2.276   6.689 -0.3934  0.2870 -0.4440
  675MOL0    Cl91035  -2.387   2.411   6.786 -0.4696  0.1710  0.0614
  675MOL0     C91036  -1.520   2.206   6.221 -0.7737 -0.6135  0.4345
  675MOL0     C91037  -1.410   2.290   6.193  0.4550 -0.9374  0.2856
  675MOL0     O91038  -1.225   2.555   6.421 -0.7658  0.0492 -0.5268
  675MOL0     C91039  -0.936   2.465   6.273 -0.2361 -0.4367  0.1539
  675MOL0     C91040  -0.807   2.497   6.232  0.1592 -1.3295  0.2451
  675MOL0     N91041  -0.052   2.792   6.379  0.4215 -0.3458 -0.6291
  675MOL0     N91042   0.047   2.718   6.390  0.0447 -1.4551  0.4576
  675MOL0     C91043   0.980   2.953   6.454  0.2694 -0.5842  0.2488
  675MOL0     C91044   1.118   2.977   6.421  0.0489 -0.3099  0.3472
  675MOL0     C91045   1.492   2.951   6.278 -0.0803  0.8768  0.6057
  675MOL0     C91046   1.556   2.881   6.181  0.2038 -0.9156  0.7367
  675MOL0     C91047   1.652   2.952   6.097  0.3956  0.1944 -0.1765
  675MOL0     C91048   1.679   3.085   6.122  0.5650  1.0105 -0.4074
  675MOL0     O91049   1.783   3.142   6.056 -0.3538 -0.4399  0.1367
  675MOL0     C91050   1.916   3.128   6.100 -0.2488  0.2865  0.2964
  675MOL0     C91051   2.021   3.216   6.034  0.8167  0.3864  0.5033
  675MOL0     C91052   2.060   3.180   5.890 -1.1558 -0.7093  0.7069
  675MOL0     C91053   2.143   3.292   5.812  0.2386 -0.1276  0.0485
  675MOL0     C91054   2.282   3.286   5.844 -0.2145  0.1349 -0.5890
  675MOL0     C91055   2.400   3.272   5.841 -0.4853  0.5543 -1.0969
  675MOL0     C91056   1.615   3.144   6.223  0.1720 -0.1201 -0.2741
  675MOL0     C91057   1.521   3.079   6.304 -0.0634 -0.3089 -0.0851
  675MOL0     H91058   1.273   2.776   6.650  0.1518 -1.5309 -0.5459
  675MOL0     H91059   1.017   2.749   6.719 -3.6231  1.0099  0.3139
  675MOL0     H91060   0.745   3.009   6.534  1.7642 -1.1428  1.0318
  675MOL0     H91061   0.709   2.886   6.422 -0.6568  2.7790 -0.7058
  675MOL0     H91062   0.607   2.894   6.708 -1.5344  0.1710  0.8645
  675MOL0     H91063   0.513   2.973   6.582 -3.5193 -2.3998 -0.4633
  675MOL0     H91064   0.527   2.755   6.443  1.2971 -1.4025  1.2074
  675MOL0     H91065   0.592   2.686   6.583  1.1472 -0.2884 -2.0076
  675MOL0     H91066   0.388   2.764   6.713  2.1053 -0.1883 -0.2489
  675MOL0     H91067   0.326   2.825   6.557 -0.5225 -1.6831 -1.1562
  675MOL0     H91068   0.288   2.592   6.473 -0.5082 -1.7977  0.0989
  675MOL0     H91069   0.389   2.533   6.607 -0.5711  1.1665  3.5067
  675MOL0     H91070   0.213   2.576   6.760  0.8894  1.6219 -0.6028
  675MOL0     H91071   0.128   2.672   6.633  1.8579  1.1847 -2.1147
  675MOL0     H91072   0.187   2.378   6.609 -1.0673 -0.5805  1.5051
  675MOL0     H91073   0.030   2.428   6.659 -2.3995  0.0829 -2.9564
  675MOL0     H91074  -0.004   2.390   6.431 -0.3674  0.8530 -2.1015
  675MOL0     H91075   0.146   2.469   6.367 -3.2161  0.0719 -3.7601
  675MOL0     H91076  -0.208   2.510   6.443  2.2519 -2.9839  0.2098
  675MOL0     H91077  -0.355   2.753   6.484 -3.4841  2.2751  0.2892
  675MOL0     H91078  -0.298   2.901   6.398 -1.8154 -0.6768  1.8676
  675MOL0     H91079  -0.402   2.652   6.270 -1.4494 -0.4921  0.1384
  675MOL0     H91080  -0.316   2.783   6.183 -1.1064  0.1785 -0.4840
  675MOL0     H91081  -0.518   2.939   6.285 -0.6609  1.6655 -1.2874
  675MOL0     H91082  -0.587   2.789   6.347 -0.7990 -3.8825 -3.1915
  675MOL0     H91083  -0.532   2.808   6.062  2.3235 -0.3962  1.1973
  675MOL0     H91084  -0.676   2.875   6.151  0.7561  0.2566 -0.6391
  675MOL0     H91085  -0.865   2.821   6.162  2.7397 -0.8995 -0.9780
  675MOL0     H91086  -1.058   2.914   6.277  1.4574  0.0781 -1.6974
  675MOL0     H91087  -1.195   2.803   6.236  1.6763 -0.1574 -0.3186
  675MOL0     H91088  -1.117   2.826   6.401  4.0774  1.8062  1.7089
  675MOL0     H91089  -1.265   2.270   6.503  0.3834 -0.2329  0.8769
  675MOL0     H91090  -1.474   2.160   6.551  1.4759  1.4475  0.0250
  675MOL0     H91091  -1.807   2.137   6.248  2.6463  0.2847 -3.3792
  675MOL0     H91092  -1.708   1.995   6.208  3.3832  1.3467  1.6452
  675MOL0     H91093  -1.943   1.936   6.289 -0.5550 -1.6763  0.2771
  675MOL0     H91094  -1.807   1.855   6.387  0.9822 -0.3642 -1.4885
  675MOL0     H91095  -1.868   2.011   6.570  1.0904 -1.3215 -0.2127
  675MOL0     H91096  -1.983   1.900   6.512  2.8691 -0.4964  0.6042
  675MOL0     H91097  -1.977   2.203   6.458 -1.4960  0.0449 -0.6449
  675MOL0     H91098  -2.096   2.082   6.391 -2.1870  1.3054  1.5338
  675MOL0     H91099  -2.054   2.125   6.689 -2.1137  2.7445  1.0136
  675MOL0     H91100  -2.161   2.011   6.635 -0.1567  0.3302  2.6470
  675MOL0     H91101  -2.169   2.295   6.643 -0.1702 -0.2863 -0.1312
  675MOL0     H91102  -2.251   2.237   6.494  0.9894  1.2205 -0.2350
  675MOL0     H91103  -2.311   2.145   6.772  3.6185  4.7035  0.5106
  675MOL0     H91104  -2.394   2.081   6.620  0.3460 -0.2297 -0.2006
  675MOL0     H91105  -2.560   2.253   6.721 -0.8421  1.9463 -0.6142
  675MOL0     H91106  -2.469   2.332   6.596 -0.1500  2.0050  0.5244
  675MOL0     H91107  -1.568   2.167   6.132 -4.4714 -0.6555  2.2555
  675MOL0     H91108  -1.399   2.322   6.090  1.0241 -2.6631 -0.2228
  675MOL0     H91109  -0.951   2.358   6.287  0.4615 -0.4983  0.4751
  675MOL0     H91110  -0.739   2.414   6.218  2.4836  0.1007  2.1735
  675MOL0     H91111   0.911   3.005   6.388  0.8553 -2.4286 -1.9672
  675MOL0     H91112   1.128   3.047   6.339 -3.1841 -1.3251 -1.0784
  675MOL0     H91113   1.543   2.775   6.161  1.3929 -1.0884  0.7936
  675MOL0     H91114   1.711   2.907   6.017 -1.8721 -2.4183 -0.5441
  675MOL0     H91115   1.914   3.155   6.206  1.8535 -0.3099  0.5277
  675MOL0     H91116   1.931   3.020   6.088 -1.2261 -0.0915  2.1433
  675MOL0     H91117   2.118   3.203   6.083  1.2515 -0.4013 -0.5468
  675MOL0     H91118   1.980   3.317   6.042  2.5976  1.1971 -0.2815
  675MOL0     H91119   1.967   3.162   5.836 -0.3376 -2.5696 -0.1599
  675MOL0     H91120   2.115   3.086   5.882  1.8439  0.9912 -0.5213
  675MOL0     H91121   2.093   3.387   5.835  0.7267  0.1390  0.0195
  675MOL0     H91122   2.126   3.295   5.704  0.8718  1.2924 -0.0314
  675MOL0     H91123   2.491   3.218   5.862 -0.1457  0.2814 -3.0586
  675MOL0     H91124   1.643   3.246   6.248 -0.5766 -0.1198  0.6263
  675MOL0     H91125   1.490   3.147   6.382  3.4539  1.3449  0.0671
  676MOL0     O91126   1.831   4.937   4.761 -0.0539 -0.7777  0.0986
  676MOL0     C91127   1.854   5.059   4.760  0.5782  0.3791  0.2026
  676MOL0     O91128   1.776   5.147   4.810 -0.1775 -0.1042 -0.7562
  676MOL0     C91129   1.642   5.151   4.838 -0.7996  0.7673 -0.0317
  676MOL0     C91130   1.591   5.248   4.921  0.4414  0.4514  0.5207
  676MOL0     C91131   1.453   5.267   4.936 -0.5031  0.3455 -0.4812
  676MOL0     C91132   1.360   5.184   4.866 -0.4283  0.2656 -1.5213
  676MOL0     O91133   1.226   5.181   4.896  0.4791 -0.1292 -0.1373
  676MOL0     C91134   1.174   5.225   5.024  0.0658 -0.3134 -0.0511
  676MOL0     C91135   1.028   5.196   5.019  0.4471  1.0032  0.6463
  676MOL0     C91136   1.001   5.041   5.037 -0.1178 -0.2827  1.4703
  676MOL0     C91137   0.859   5.022   5.090  0.1653 -0.3687 -0.0376
  676MOL0     C91138   0.795   4.877   5.082 -0.2204 -0.4801  0.1656
  676MOL0     C91139   0.739   4.851   4.945 -0.8519 -0.1426 -0.2470
  676MOL0     C91140   0.670   4.713   4.932 -0.6565 -0.1721  0.1221
  676MOL0     C91141   0.767   4.604   4.987 -0.3122 -0.2314  0.1376
  676MOL0     N91142   0.708   4.468   4.986 -0.6153 -0.0604  0.9365
  676MOL0     C91143   0.766   4.357   4.938  0.1154 -1.4723  0.2154
  676MOL0     C91144   0.687   4.256   4.964 -1.0644  0.3960 -0.3392
  676MOL0     C91145   0.713   4.121   4.916 -0.0941  0.9859  0.4634
  676MOL0     C91146   0.858   4.066   4.957 -0.6809  0.0722 -0.2958
  676MOL0     C91147   0.870   3.914   4.921  0.3498 -0.6982 -0.1409
  676MOL0     C91148   1.018   3.872   4.945 -0.5348  0.1773  0.4338
  676MOL0     O91149   1.065   3.892   5.077  0.0535 -0.5923  0.5599
  676MOL0     C91150   1.147   3.793   5.122  0.7451  0.6303 -0.3682
  676MOL0     C91151   1.278   3.818   5.155  0.2033  0.6474 -0.2749
  676MOL0     C91152   1.370   3.718   5.187 -0.6199  0.5493  0.4986
  676MOL0     C91153   1.513   3.757   5.197 -0.6638  0.0758 -0.1412
  676MOL0     C91154   1.330   3.585   5.198 -0.0252  0.2144 -0.4345
  676MOL0     C91155   1.408   3.470   5.252  0.7479  0.7335 -0.5083
  676MOL0     O91156   1.360   3.339   5.228  0.0989  0.4108 -0.9135
  676MOL0     C91157   1.437   3.229   5.267 -0.0398  0.1224 -0.4332
  676MOL0     C91158   1.434   3.199   5.406  0.6207  0.5834  1.2409
  676MOL0     C91159   1.491   3.079   5.441  0.9797  0.2339  0.5346
  676MOL0     C91160   1.562   2.991   5.360  0.5166 -1.3287  1.2083
  676MOL0     O91161   1.602   2.868   5.413 -0.5754 -0.6823  0.0478
  676MOL0     C91162   1.640   2.753   5.326  0.4584  0.2532 -0.2334
  676MOL0     C91163   1.634   2.616   5.395 -0.9276  0.2713 -0.2278
  676MOL0     C91164   1.500   2.594   5.456  0.5074  1.2365 -0.0792
  676MOL0     C91165   1.479   2.447   5.503 -0.4325 -0.7327 -0.3618
  676MOL0     C91166   1.320   2.446   5.523 -0.2470  0.2621 -0.3580
  676MOL0     C91167   1.283   2.315   5.590 -0.6882 -0.1877  0.7226
  676MOL0     C91168   1.132   2.310   5.600  0.1481  0.2251 -0.4709
  676MOL0     C91169   1.084   2.202   5.695 -1.3179  0.2176  0.9923
  676MOL0    Cl91170   1.069   2.270   5.874  0.0517 -0.1858  0.1048
  676MOL0     C91171   1.564   3.021   5.215 -0.5910 -0.0381 -0.1848
  676MOL0     C91172   1.504   3.146   5.176  0.6641  0.7426  0.9286
  676MOL0     O91173   1.510   3.495   5.302 -0.8389  1.0676 -0.3701
  676MOL0     C91174   1.191   3.562   5.178  0.5327 -0.2084 -0.7993
  676MOL0     C91175   1.103   3.661   5.138 -0.3651 -0.2350  0.4613
  676MOL0     N91176   0.581   4.294   5.040 -0.2890  0.5823 -0.1221
  676MOL0     N91177   0.606   4.419   5.059  1.7463  0.3518 -0.3975
  676MOL0     C91178   1.414   5.097   4.779 -0.3606 -0.0678 -0.0247
  676MOL0     C91179   1.551   5.082   4.758 -0.2779 -0.2501  0.4154
  676MOL0     C91180   1.982   5.099   4.707 -0.2421  0.5052  0.3718
  676MOL0     C91181   2.005   5.232   4.688 -0.2645  0.1813 -0.4902
  676MOL0     C91182   2.110   5.285   4.617 -0.4459 -0.7279 -0.4118
  676MOL0     C91183   2.214   5.201   4.586 -0.0910  0.8562 -0.7903
  676MOL0     O91184   2.321   5.251   4.529 -0.1729 -1.3956  0.1339
  676MOL0     C91185   2.362   5.191   4.402  1.1411  0.0197 -0.3065
  676MOL0     C91186   2.474   5.258   4.310  0.1789 -0.3910 -0.8864
  676MOL0     C91187   2.590   5.305   4.408 -0.7112  0.5828  0.1289
  676MOL0     C91188   2.678   5.404   4.329  0.8864 -0.0885 -0.1444
  676MOL0     C91189   2.811   5.406   4.384  0.4190 -0.0795 -0.7681
  676MOL0     C91190   2.917   5.395   4.433 -0.6776  0.5332  0.3144
  676MOL0     C91191   2.211   5.063   4.632 -0.4711  0.2414  0.9166
  676MOL0     C91192   2.086   5.013   4.690 -0.5849 -0.1010  0.4765
  676MOL0     H91193   1.664   5.313   4.969  1.8534 -1.1353  0.6024
  676MOL0     H91194   1.424   5.342   5.009  2.0298  2.2797 -1.2768
  676MOL0     H91195   1.223   5.174   5.107  2.2412  0.6195 -0.6885
  676MOL0     H91196   1.195   5.331   5.009  0.6828 -0.7292 -2.5587
  676MOL0     H91197   0.994   5.261   5.101  0.3594  0.6313  0.9102
  676MOL0     H91198   0.982   5.226   4.925  0.8340 -0.9300 -0.2090
  676MOL0     H91199   1.008   5.002   4.936  1.4392  1.8890  0.6471
  676MOL0     H91200   1.080   4.990   5.093 -1.1605 -3.8596 -0.0886
  676MOL0     H91201   0.852   5.053   5.194 -3.3221  0.4381 -0.4103
  676MOL0     H91202   0.805   5.096   5.029 -1.2412  0.3244  1.9742
  676MOL0     H91203   0.880   4.819   5.118  0.7679  1.7557  1.6514
  676MOL0     H91204   0.716   4.866   5.157  0.7245 -0.1831  1.2263
  676MOL0     H91205   0.672   4.928   4.904  0.9645  0.9720 -1.2427
  676MOL0     H91206   0.819   4.832   4.872 -0.6815  0.4883 -0.2273
  676MOL0     H91207   0.585   4.728   4.999 -0.6648 -1.9147  0.5461
  676MOL0     H91208   0.642   4.690   4.829  0.9727  2.6105 -1.0761
  676MOL0     H91209   0.782   4.613   5.095  1.1988 -1.2278  0.0327
  676MOL0     H91210   0.865   4.617   4.940  0.5954  0.6312  2.1887
  676MOL0     H91211   0.853   4.358   4.873  0.8931  0.9593  1.1654
  676MOL0     H91212   0.634   4.059   4.959  1.9268 -1.6037  0.7213
  676MOL0     H91213   0.699   4.117   4.807 -0.1835  0.8689  0.4785
  676MOL0     H91214   0.871   4.083   5.064  0.4712 -1.1068 -0.2266
  676MOL0     H91215   0.932   4.112   4.891  0.4273  0.0794  0.9204
  676MOL0     H91216   0.844   3.909   4.815  1.3878  2.3500 -0.6430
  676MOL0     H91217   0.805   3.862   4.991 -1.4922  1.0572 -0.4547
  676MOL0     H91218   1.067   3.943   4.877 -1.1519 -2.4133 -3.0082
  676MOL0     H91219   1.023   3.769   4.908 -0.9630  0.0824  0.6278
  676MOL0     H91220   1.316   3.919   5.140  2.2006 -0.3886 -2.8166
  676MOL0     H91221   1.531   3.765   5.305 -0.3054 -1.2424 -0.0902
  676MOL0     H91222   1.590   3.684   5.170  0.9045  0.7324  2.1680
  676MOL0     H91223   1.525   3.849   5.139  1.3496 -0.5058 -0.7554
  676MOL0     H91224   1.378   3.268   5.468  0.0494  0.4282  0.9091
  676MOL0     H91225   1.505   3.053   5.546  2.7018  0.4746  0.3994
  676MOL0     H91226   1.571   2.750   5.241  0.2472 -2.0269 -0.0627
  676MOL0     H91227   1.745   2.769   5.297  0.9270  0.4402  1.4756
  676MOL0     H91228   1.638   2.547   5.310 -2.3314  0.5387 -0.5445
  676MOL0     H91229   1.712   2.627   5.471 -0.5766  1.5933 -0.7643
  676MOL0     H91230   1.417   2.618   5.389  1.2970  0.8053 -1.2556
  676MOL0     H91231   1.488   2.663   5.540 -3.5238 -1.3804  1.8300
  676MOL0     H91232   1.516   2.375   5.429 -3.0539 -2.2933 -0.2811
  676MOL0     H91233   1.533   2.428   5.596 -0.1111  1.5679 -0.0325
  676MOL0     H91234   1.287   2.460   5.419  3.7515  1.9051 -1.6312
  676MOL0     H91235   1.283   2.529   5.584 -2.1882  0.3840 -1.6287
  676MOL0     H91236   1.312   2.235   5.522 -3.7994 -1.2508  0.4918
  676MOL0     H91237   1.331   2.313   5.688 -3.1233  2.9302  2.1660
  676MOL0     H91238   1.089   2.297   5.501 -0.4319 -1.9058  0.0198
  676MOL0     H91239   1.099   2.407   5.639  1.5941 -1.1087  4.8897
  676MOL0     H91240   1.163   2.128   5.704 -0.5137  1.1214  1.6939
  676MOL0     H91241   0.986   2.160   5.669 -0.9228  0.3782 -0.8636
  676MOL0     H91242   1.601   2.948   5.144  1.0772  1.9912 -1.5080
  676MOL0     H91243   1.496   3.163   5.069 -1.5687  2.6281  1.3039
  676MOL0     H91244   1.144   3.467   5.199  0.5891  0.3796  2.5943
  676MOL0     H91245   1.004   3.620   5.124  0.3047 -1.7608  0.0057
  676MOL0     H91246   1.348   5.063   4.700  0.9653 -0.5310 -0.9681
  676MOL0     H91247   1.601   5.021   4.684 -2.0439  1.2652 -2.1883
  676MOL0     H91248   1.933   5.306   4.721  1.3709  1.2215  0.9281
  676MOL0     H91249   2.113   5.391   4.596 -1.6068 -0.0903  2.1832
  676MOL0     H91250   2.394   5.091   4.432 -1.0776 -1.2721 -1.9818
  676MOL0     H91251   2.276   5.183   4.336  1.1896  1.8066 -0.6257
  676MOL0     H91252   2.434   5.335   4.243 -0.3130  0.3091  0.1945
  676MOL0     H91253   2.509   5.171   4.253  0.5010  1.3752 -3.5668
  676MOL0     H91254   2.645   5.215   4.436  0.7711  0.3182 -3.1292
  676MOL0     H91255   2.548   5.357   4.495  1.0270  2.5379 -0.1268
  676MOL0     H91256   2.630   5.502   4.325 -0.6428 -0.6413  2.2509
  676MOL0     H91257   2.679   5.369   4.225  1.0160  1.7476 -0.7843
  676MOL0     H91258   3.022   5.410   4.449 -0.6315  0.4488  0.0927
  676MOL0     H91259   2.304   5.007   4.626 -0.4554  0.3995 -0.9424
  676MOL0     H91260   2.084   4.918   4.742  0.9691 -1.2022 -1.3583
  677MOL0     O91261   8.581   9.983   5.598  0.2208 -0.1736  0.9661
  677MOL0     C91262   8.564  10.064   5.684 -0.4175 -0.7248 -0.0769
  677MOL0     O91263   8.617  10.191   5.669 -0.6613  0.2632  0.0671
  677MOL0     C91264   8.699  10.225   5.559 -1.1149 -0.4015  0.0289
  677MOL0     C91265   8.647  10.229   5.429 -0.4628 -0.2884  0.7995
  677MOL0     C91266   8.733  10.229   5.313 -0.4474  0.1253  0.6024
  677MOL0     C91267   8.868  10.254   5.326 -1.0404  0.9846  0.6836
  677MOL0     O91268   8.964  10.266   5.238  0.0387  0.1511 -0.0881
  677MOL0     C91269   8.934  10.271   5.098 -0.9300 -0.9426  1.0485
  677MOL0     C91270   8.883  10.414   5.067 -1.0524  0.2957  0.2862
  677MOL0     C91271   8.895  10.447   4.923 -0.4677 -0.6332  0.2467
  677MOL0     C91272   8.830  10.587   4.911 -0.4138  0.1675  0.2713
  677MOL0     C91273   8.792  10.621   4.768 -0.3861  0.2943 -0.1281
  677MOL0     C91274   8.907  10.642   4.665  0.1630  0.7942  0.0577
  677MOL0     C91275   8.839  10.674   4.535 -0.7144  0.1786  0.0297
  677MOL0     C91276   8.933  10.685   4.411 -0.7442 -0.9578 -0.3341
  677MOL0     N91277   8.863  10.700   4.279 -0.4567 -0.3236  0.9099
  677MOL0     C91278   8.807  10.820   4.234  1.0651 -0.0045 -0.8308
  677MOL0     C91279   8.791  10.800   4.103 -0.0365 -0.6808  0.1991
  677MOL0     C91280   8.735  10.883   3.994  0.5307  0.1775 -0.8809
  677MOL0     C91281   8.623  10.816   3.920  0.4167  0.1357  0.3929
  677MOL0     C91282   8.585  10.883   3.794  0.0161  0.3030 -0.2179
  677MOL0     C91283   8.434  10.920   3.785  0.5354 -0.5941 -0.1975
  677MOL0     O91284   8.406  11.022   3.890  0.1502 -0.2424  0.6166
  677MOL0     C91285   8.278  11.068   3.907  0.1186  0.2519  0.1021
  677MOL0     C91286   8.190  10.986   3.977  0.1620 -0.1203 -0.6753
  677MOL0     C91287   8.069  11.034   4.022 -1.1172  0.4722  0.2134
  677MOL0     C91288   8.005  10.933   4.115 -0.1545 -0.3319 -0.0273
  677MOL0     C91289   8.024  11.166   3.990 -0.2394  0.4900 -0.2848
  677MOL0     C91290   7.891  11.229   4.031 -0.1340 -0.0752  0.1649
  677MOL0     O91291   7.875  11.366   4.021  1.0370  1.0130  0.3390
  677MOL0     C91292   7.755  11.426   4.066  0.5154  0.0941  0.2027
  677MOL0     C91293   7.637  11.392   3.999 -0.0607  0.0465  0.5874
  677MOL0     C91294   7.513  11.452   4.035 -0.2713  0.3449  0.8654
  677MOL0     C91295   7.511  11.545   4.141 -0.4422  0.0717  0.5121
  677MOL0     O91296   7.418  11.613   4.212  0.0475 -0.0776 -0.0547
  677MOL0     C91297   7.282  11.597   4.179  0.4598  0.4310 -0.0232
  677MOL0     C91298   7.228  11.473   4.246  0.9281  0.2088 -0.6378
  677MOL0     C91299   7.074  11.456   4.259  0.2566  0.9861 -0.6832
  677MOL0     C91300   6.997  11.420   4.131 -0.3154 -0.2353 -0.6930
  677MOL0     C91301   6.851  11.396   4.160  0.0361  0.4123 -0.7202
  677MOL0     C91302   6.778  11.367   4.025 -0.0798  0.3207 -0.3707
  677MOL0     C91303   6.627  11.323   4.028 -0.3795  0.2932 -0.7310
  677MOL0     C91304   6.564  11.304   3.894  0.0012 -0.0274  0.2063
  677MOL0    Cl91305   6.427  11.177   3.904  0.3669  0.0478  0.3396
  677MOL0     C91306   7.633  11.575   4.208 -0.3022  0.0181  0.7146
  677MOL0     C91307   7.756  11.522   4.165 -0.2807 -0.4293 -0.6906
  677MOL0     O91308   7.810  11.159   4.093 -0.1868 -0.0689  0.0259
  677MOL0     C91309   8.107  11.237   3.901 -0.0211 -0.6905  0.2413
  677MOL0     C91310   8.235  11.193   3.863 -0.2737  0.3071 -0.8829
  677MOL0     N91311   8.845  10.679   4.066  0.5287 -0.6701 -0.7936
  677MOL0     N91312   8.884  10.618   4.178 -0.6864 -0.0785 -0.5495
  677MOL0     C91313   8.922  10.252   5.459 -0.2104  1.3552 -0.4449
  677MOL0     C91314   8.837  10.247   5.568  0.4084 -0.7203  0.2490
  677MOL0     C91315   8.486  10.042   5.811  0.2144 -0.1454 -0.6266
  677MOL0     C91316   8.472   9.911   5.854 -0.0906 -0.3072  0.2134
  677MOL0     C91317   8.417   9.897   5.981 -0.4602 -0.2769  0.2489
  677MOL0     C91318   8.373  10.001   6.056 -0.2917 -0.3584 -0.2235
  677MOL0     O91319   8.320   9.994   6.181  0.7220 -0.6330 -0.4984
  677MOL0     C91320   8.219   9.897   6.191  1.1195 -0.1977 -0.2613
  677MOL0     C91321   8.220   9.856   6.348 -0.0971 -0.3346 -0.4025
  677MOL0     C91322   8.361   9.806   6.399  0.6093  0.2017  0.6061
  677MOL0     C91323   8.415   9.681   6.327 -0.8598 -0.6100 -0.2167
  677MOL0     C91324   8.508   9.601   6.406 -0.7210 -0.3924 -0.9553
  677MOL0     C91325   8.588   9.535   6.468  0.2409  0.4491 -0.2577
  677MOL0     C91326   8.384  10.129   6.011 -0.0089  0.3526 -0.1362
  677MOL0     C91327   8.440  10.150   5.884 -0.0087  0.5121  0.6520
  677MOL0     H91328   8.542  10.248   5.408  0.4563  2.5990 -1.8964
  677MOL0     H91329   8.702  10.200   5.213 -0.8029 -5.5720  2.0350
  677MOL0     H91330   9.031  10.240   5.056 -0.2987  0.6118  1.3040
  677MOL0     H91331   8.869  10.191   5.062 -0.9399 -0.9489  1.0803
  677MOL0     H91332   8.782  10.406   5.108 -1.2163 -7.1800 -0.1490
  677MOL0     H91333   8.952  10.479   5.120  1.2999 -2.1121  0.3980
  677MOL0     H91334   8.999  10.462   4.894 -0.3222 -2.0126 -0.0124
  677MOL0     H91335   8.837  10.375   4.864 -0.4735 -1.4565  1.2256
  677MOL0     H91336   8.738  10.602   4.967 -0.6105 -1.5645  0.4381
  677MOL0     H91337   8.909  10.656   4.944  2.0548 -1.3703 -2.0445
  677MOL0     H91338   8.728  10.538   4.738  1.5735 -3.0580  3.9761
  677MOL0     H91339   8.732  10.712   4.762 -2.7150 -0.9546  2.1857
  677MOL0     H91340   8.969  10.725   4.700  1.1337 -0.2126  0.7994
  677MOL0     H91341   8.968  10.553   4.649 -1.0405  0.3287 -2.5380
  677MOL0     H91342   8.764  10.596   4.522 -0.0982 -0.7438  1.7239
  677MOL0     H91343   8.773  10.761   4.548 -0.3376  0.2336  2.0269
  677MOL0     H91344   8.998  10.597   4.411  1.1009  0.3535 -1.3406
  677MOL0     H91345   9.005  10.766   4.419 -0.1720 -1.3770 -1.0652
  677MOL0     H91346   8.791  10.914   4.285 -0.3001 -1.6690  2.0745
  677MOL0     H91347   8.723  10.984   4.035 -0.0591 -0.7323  1.2791
  677MOL0     H91348   8.815  10.909   3.923  0.7237  2.1518 -0.0189
  677MOL0     H91349   8.540  10.810   3.990  0.0480 -2.7160 -0.1475
  677MOL0     H91350   8.642  10.710   3.898 -3.0729 -0.2615 -1.4382
  677MOL0     H91351   8.610  10.821   3.708 -1.0780 -1.5365  0.7302
  677MOL0     H91352   8.641  10.977   3.793 -1.7364  1.3955 -0.8315
  677MOL0     H91353   8.382  10.824   3.795  1.4449 -0.9030  2.2648
  677MOL0     H91354   8.401  10.967   3.692  0.7349 -0.6912 -0.3200
  677MOL0     H91355   8.245  10.899   4.011  1.0398  0.5324 -0.3803
  677MOL0     H91356   8.076  10.898   4.190 -0.7718  2.4624  2.0439
  677MOL0     H91357   7.922  10.975   4.173 -0.6848  0.1270 -1.1025
  677MOL0     H91358   7.961  10.859   4.048 -1.2687  1.7321 -1.7017
  677MOL0     H91359   7.639  11.317   3.920 -2.1516  2.9098 -2.4687
  677MOL0     H91360   7.427  11.417   3.978  0.2786 -1.1554  0.8918
  677MOL0     H91361   7.225  11.683   4.217 -0.8416 -0.4426  0.0938
  677MOL0     H91362   7.251  11.583   4.075 -1.2848 -2.1881  0.7232
  677MOL0     H91363   7.274  11.386   4.198  2.9485  0.3287  0.9544
  677MOL0     H91364   7.268  11.465   4.347  2.2072  1.4051 -1.0112
  677MOL0     H91365   7.033  11.543   4.312  0.9043  0.0030  1.5257
  677MOL0     H91366   7.057  11.379   4.335 -2.5459  1.1749 -1.0021
  677MOL0     H91367   7.002  11.506   4.063  2.1357  2.1393  2.1908
  677MOL0     H91368   7.044  11.335   4.080  1.0718  0.6714 -1.0044
  677MOL0     H91369   6.814  11.489   4.204 -3.8878 -1.3011  0.1136
  677MOL0     H91370   6.831  11.316   4.232  2.6915  1.8197  1.7903
  677MOL0     H91371   6.790  11.452   3.957  0.2693  0.8379  0.3274
  677MOL0     H91372   6.833  11.292   3.966  0.1973 -0.0456  0.3443
  677MOL0     H91373   6.564  11.399   4.074 -1.9660 -1.0257 -0.6132
  677MOL0     H91374   6.622  11.230   4.085 -2.7512 -0.7872 -2.5406
  677MOL0     H91375   6.640  11.265   3.826  0.3730  3.6301 -1.7343
  677MOL0     H91376   6.541  11.406   3.862 -1.9559  0.0347  1.6011
  677MOL0     H91377   7.629  11.645   4.291  0.7490  1.6914 -0.5843
  677MOL0     H91378   7.845  11.546   4.223  0.1592  0.8717 -1.8467
  677MOL0     H91379   8.075  11.331   3.858 -0.6452 -0.3221  1.4879
  677MOL0     H91380   8.301  11.254   3.802 -0.9389  1.7692 -0.1968
  677MOL0     H91381   9.031  10.250   5.457 -0.2296 -0.2078 -1.8065
  677MOL0     H91382   8.885  10.255   5.665  1.1667  1.8798 -0.2477
  677MOL0     H91383   8.511   9.823   5.803  0.7283  0.0687  0.1671
  677MOL0     H91384   8.435   9.802   6.031  0.7811 -0.4310 -0.4350
  677MOL0     H91385   8.118   9.928   6.162  1.2460  1.6435  1.0931
  677MOL0     H91386   8.244   9.805   6.136 -0.4349 -2.4516  2.5597
  677MOL0     H91387   8.143   9.782   6.370 -0.7649 -0.0114 -1.5393
  677MOL0     H91388   8.185   9.938   6.411  2.4131 -1.0357  2.0868
  677MOL0     H91389   8.349   9.786   6.506 -2.3528  0.8971  0.4931
  677MOL0     H91390   8.434   9.887   6.389  1.4568 -0.5695  0.4445
  677MOL0     H91391   8.466   9.706   6.234  2.5864 -1.2235  1.3829
  677MOL0     H91392   8.325   9.620   6.313 -1.7724  0.3881  1.0624
  677MOL0     H91393   8.654   9.469   6.521  2.2278 -1.3870 -4.4988
  677MOL0     H91394   8.343  10.206   6.076 -0.9044  1.0457 -1.4561
  677MOL0     H91395   8.448  10.254   5.854 -1.9308  0.4892 -0.0828
  678MOL0     O91396   0.036   3.012   7.865 -0.2407 -0.6132  0.1035
  678MOL0     C91397   0.057   3.127   7.842 -0.0515  0.0123 -0.3877
  678MOL0     O91398   0.188   3.179   7.838 -0.1678 -0.3019  0.1213
  678MOL0     C91399   0.301   3.113   7.887 -0.6833 -0.1271 -0.2127
  678MOL0     C91400   0.306   2.988   7.961 -0.8794  0.2226 -0.8062
  678MOL0     C91401   0.439   2.942   8.006  0.4231 -0.0810  0.1794
  678MOL0     C91402   0.556   3.009   7.977 -0.0287 -0.1522  0.4590
  678MOL0     O91403   0.668   2.937   8.006  0.8980 -0.3690 -0.4411
  678MOL0     C91404   0.787   2.982   7.947  0.2942  0.6827  0.3700
  678MOL0     C91405   0.913   2.916   7.999 -0.7722  0.0198  0.5437
  678MOL0     C91406   0.941   2.769   7.941 -1.1265  0.5549  0.6221
  678MOL0     C91407   1.086   2.735   7.920 -0.7066 -0.0433  0.7606
  678MOL0     C91408   1.159   2.823   7.815  0.5998 -1.0308  0.5353
  678MOL0     C91409   1.290   2.763   7.757 -0.0481 -0.0573  0.0586
  678MOL0     C91410   1.339   2.841   7.633 -0.6749  0.2376 -0.5231
  678MOL0     C91411   1.321   2.987   7.647  0.9658 -0.4002 -0.1409
  678MOL0     N91412   1.371   3.053   7.535 -0.0956 -0.7393  0.1172
  678MOL0     C91413   1.432   3.176   7.540 -0.6459  0.4783  0.3698
  678MOL0     C91414   1.497   3.193   7.429  0.4089 -0.8592 -0.2825
  678MOL0     C91415   1.571   3.315   7.386  0.8677  0.2844  0.3154
  678MOL0     C91416   1.718   3.307   7.423 -1.3704 -0.0759 -0.8452
  678MOL0     C91417   1.795   3.222   7.317  0.2249  0.6559  0.1053
  678MOL0     C91418   1.938   3.192   7.350  0.2463  0.2777  0.7149
  678MOL0     O91419   2.007   3.132   7.241  0.2282  0.6499  0.8438
  678MOL0     C91420   2.141   3.129   7.230 -0.1949 -0.8198  0.0206
  678MOL0     C91421   2.225   3.203   7.321 -0.1823  0.2144  0.6230
  678MOL0     C91422   2.363   3.208   7.309  0.0734 -0.9574  0.0101
  678MOL0     C91423   2.436   3.294   7.404 -0.8123  0.0355 -0.5486
  678MOL0     C91424   2.426   3.125   7.220  0.0244  0.5295  0.3664
  678MOL0     C91425   2.577   3.106   7.226  0.5249 -0.0318  0.7351
  678MOL0     O91426   2.653   3.217   7.228  0.1065  0.2428 -0.1196
  678MOL0     C91427   2.793   3.213   7.216  2.3593 -0.0634 -0.2491
  678MOL0     C91428   2.869   3.291   7.302 -0.4880 -0.1614 -0.1935
  678MOL0     C91429   3.007   3.309   7.280 -0.0755  0.3711  0.0516
  678MOL0     C91430   3.068   3.231   7.174 -0.2356 -0.3011 -0.0157
  678MOL0     O91431   3.204   3.223   7.169  0.9283  0.6223  0.1925
  678MOL0     C91432   3.271   3.115   7.095  0.3108 -0.5184 -0.6433
  678MOL0     C91433   3.423   3.124   7.109  0.1211 -0.3535  0.4570
  678MOL0     C91434   3.460   3.044   7.231  0.3616  0.1273  0.0924
  678MOL0     C91435   3.600   3.081   7.280  0.2127  0.3376 -1.0512
  678MOL0     C91436   3.633   3.019   7.412 -0.3213  0.3623  0.0744
  678MOL0     C91437   3.744   3.090   7.481  0.3366 -1.7719 -0.2308
  678MOL0     C91438   3.892   3.059   7.440  0.8068  0.1469  0.2587
  678MOL0     C91439   3.993   3.124   7.523  0.0372  0.2910 -0.7409
  678MOL0    Cl91440   3.986   3.041   7.682  0.1233  0.2004  0.3831
  678MOL0     C91441   2.983   3.158   7.094 -0.4310 -0.5820  0.3453
  678MOL0     C91442   2.851   3.141   7.114 -0.1501 -0.1390  0.3984
  678MOL0     O91443   2.623   2.995   7.206 -0.1585  0.3190 -0.7620
  678MOL0     C91444   2.351   3.047   7.137 -0.6028 -0.0775  0.3751
  678MOL0     C91445   2.213   3.051   7.144  0.0740  0.2214  0.4806
  678MOL0     N91446   1.458   3.083   7.350 -0.2620 -0.0889  1.5768
  678MOL0     N91447   1.384   3.006   7.414 -0.0172  0.2104  0.0097
  678MOL0     C91448   0.542   3.140   7.909  0.0678  0.2713  1.3212
  678MOL0     C91449   0.416   3.189   7.859 -0.7266 -0.0776  1.5048
  678MOL0     C91450  -0.052   3.213   7.800  0.0822  0.5402 -0.0917
  678MOL0     C91451  -0.182   3.160   7.801 -1.0806 -0.2858  0.3431
  678MOL0     C91452  -0.290   3.227   7.748  0.2499  0.2636 -0.7783
  678MOL0     C91453  -0.266   3.353   7.700 -0.0380 -1.1387 -0.4384
  678MOL0     O91454  -0.366   3.430   7.643  0.6795  0.6087 -0.2252
  678MOL0     C91455  -0.468   3.358   7.562  0.1275 -1.4860 -0.6199
  678MOL0     C91456  -0.596   3.349   7.648  0.5793 -0.2964  0.1302
  678MOL0     C91457  -0.687   3.224   7.629  0.2386  0.3090 -0.0442
  678MOL0     C91458  -0.656   3.095   7.708 -0.2222  0.2718  0.3817
  678MOL0     C91459  -0.619   3.111   7.850 -0.7037 -0.3369  0.7889
  678MOL0     C91460  -0.594   3.130   7.966  0.0550  0.3003  0.0010
  678MOL0     C91461  -0.135   3.413   7.705  0.7174 -0.2233  0.3304
  678MOL0     C91462  -0.023   3.338   7.746  0.3721  0.4140 -0.6388
  678MOL0     H91463   0.215   2.931   7.979 -0.9595  1.2074  2.6580
  678MOL0     H91464   0.442   2.849   8.060 -0.4480  0.2904  0.8922
  678MOL0     H91465   0.787   2.989   7.838  1.4765 -0.1030  0.2972
  678MOL0     H91466   0.787   3.089   7.969  2.9264  0.4097  2.0790
  678MOL0     H91467   0.997   2.975   7.961 -0.8739 -1.0912 -1.5734
  678MOL0     H91468   0.917   2.916   8.108 -0.8072 -0.1731  0.5451
  678MOL0     H91469   0.890   2.691   7.998  1.3925  0.4767  3.0319
  678MOL0     H91470   0.888   2.769   7.846  2.1149  1.1219 -1.3217
  678MOL0     H91471   1.125   2.738   8.022  1.8637 -2.2675 -0.0245
  678MOL0     H91472   1.098   2.633   7.882  1.2366 -0.1597  1.5626
  678MOL0     H91473   1.087   2.840   7.734  1.5458 -2.4040 -0.6309
  678MOL0     H91474   1.182   2.921   7.858 -1.5417  0.0076 -0.4763
  678MOL0     H91475   1.362   2.753   7.839 -0.2068 -1.7083  0.0232
  678MOL0     H91476   1.261   2.661   7.731  0.8548 -0.3732  0.2559
  678MOL0     H91477   1.444   2.824   7.609 -1.0270 -0.3200 -1.7169
  678MOL0     H91478   1.284   2.803   7.546  1.4684  0.6111 -2.1230
  678MOL0     H91479   1.378   3.020   7.734 -0.9835  1.0080  0.6735
  678MOL0     H91480   1.216   3.008   7.669  0.7321 -2.1122  0.5724
  678MOL0     H91481   1.442   3.238   7.629 -0.7861 -0.8835  1.3588
  678MOL0     H91482   1.558   3.344   7.281  0.0134 -0.8554  0.0875
  678MOL0     H91483   1.529   3.401   7.439  1.1653  2.4514 -2.6952
  678MOL0     H91484   1.729   3.270   7.526  0.9134 -0.6150 -1.2382
  678MOL0     H91485   1.759   3.408   7.420 -0.5491 -0.3557  0.2296
  678MOL0     H91486   1.793   3.276   7.223  0.0452 -1.0584 -0.9164
  678MOL0     H91487   1.744   3.127   7.294 -0.1777  1.5409 -3.1370
  678MOL0     H91488   1.932   3.119   7.432 -0.9825 -2.6816 -1.8484
  678MOL0     H91489   1.980   3.292   7.363  0.7355  0.2426 -0.4724
  678MOL0     H91490   2.179   3.261   7.401 -0.4239 -1.6978  1.9483
  678MOL0     H91491   2.523   3.239   7.441 -1.0631  0.3472  0.5645
  678MOL0     H91492   2.471   3.385   7.354  3.6724  0.4912  2.8104
  678MOL0     H91493   2.374   3.331   7.487  1.7126 -2.5276  2.7808
  678MOL0     H91494   2.820   3.332   7.389  0.1765 -2.1507  1.1608
  678MOL0     H91495   3.066   3.370   7.348  2.7218 -0.3335 -1.5956
  678MOL0     H91496   3.223   3.019   7.119 -2.7662  1.0843  0.1243
  678MOL0     H91497   3.257   3.126   6.987  1.1857 -0.9650 -0.8102
  678MOL0     H91498   3.459   3.075   7.019 -0.7420 -3.3315  1.6000
  678MOL0     H91499   3.460   3.227   7.114  1.1017 -0.7193  1.0567
  678MOL0     H91500   3.432   2.939   7.223 -0.6636  0.4888 -1.6566
  678MOL0     H91501   3.386   3.065   7.309 -1.6514 -0.5374 -1.5519
  678MOL0     H91502   3.682   3.056   7.212  0.7088  0.7776 -0.6282
  678MOL0     H91503   3.612   3.187   7.301  1.9832  0.5476 -2.9180
  678MOL0     H91504   3.674   2.920   7.391  0.9818  1.0659 -0.8533
  678MOL0     H91505   3.544   3.018   7.476  0.0763  1.8524  0.6704
  678MOL0     H91506   3.731   3.198   7.492 -1.6430 -1.9496 -0.4860
  678MOL0     H91507   3.724   3.053   7.582  2.3071 -0.7777  0.5799
  678MOL0     H91508   3.910   3.065   7.333  1.1021 -2.3595  0.1044
  678MOL0     H91509   3.905   2.950   7.441  0.4509  0.1050  0.4088
  678MOL0     H91510   3.968   3.229   7.538  1.6205  0.9213 -2.2050
  678MOL0     H91511   4.096   3.107   7.490  1.6437 -1.6391  4.3384
  678MOL0     H91512   3.021   3.108   7.006  2.3151  1.8997 -0.0191
  678MOL0     H91513   2.792   3.081   7.045 -1.2595 -0.7535  1.8134
  678MOL0     H91514   2.412   2.986   7.071 -1.8834 -0.9322 -0.0572
  678MOL0     H91515   2.159   2.992   7.071  2.8050 -0.0969 -1.4385
  678MOL0     H91516   0.632   3.197   7.888 -0.4531  0.1146 -1.7897
  678MOL0     H91517   0.412   3.285   7.809  1.3975 -0.7498 -0.0658
  678MOL0     H91518  -0.194   3.062   7.847  1.2413 -0.3590  0.9069
  678MOL0     H91519  -0.389   3.181   7.745 -0.8491  2.5416 -1.6048
  678MOL0     H91520  -0.490   3.422   7.476  0.1639  0.5533  0.7932
  678MOL0     H91521  -0.434   3.261   7.526  1.8334 -0.7936 -0.9830
  678MOL0     H91522  -0.646   3.446   7.639  0.8523 -0.2170 -0.6542
  678MOL0     H91523  -0.562   3.347   7.752  3.9848  0.5765 -0.8116
  678MOL0     H91524  -0.690   3.204   7.522  1.0363 -0.1820  0.0229
  678MOL0     H91525  -0.790   3.254   7.650  0.4438  0.9713  0.0321
  678MOL0     H91526  -0.572   3.049   7.655  2.7705 -0.1404  4.9432
  678MOL0     H91527  -0.741   3.029   7.685  0.2106  0.1243 -0.8862
  678MOL0     H91528  -0.577   3.139   8.071  2.3675 -2.1988 -0.0647
  678MOL0     H91529  -0.123   3.515   7.670  1.3354  0.8903  3.5091
  678MOL0     H91530   0.075   3.381   7.733  1.1059 -1.3957 -1.3882
  679MOL0     O91531   2.237   4.596  10.269  0.0856 -0.3542 -0.3169
  679MOL0     C91532   2.200   4.674  10.356  0.4351  0.3927 -0.5433
  679MOL0     O91533   2.281   4.759  10.432 -0.6078 -0.1747  0.4588
  679MOL0     C91534   2.414   4.779  10.401  0.1847 -0.1547 -0.0679
  679MOL0     C91535   2.483   4.740  10.288  1.2521  0.3290  0.0191
  679MOL0     C91536   2.607   4.790  10.259  1.2233 -0.2998  0.2614
  679MOL0     C91537   2.668   4.885  10.343  0.0713  0.6468  0.1974
  679MOL0     O91538   2.802   4.918  10.327  0.1810  0.4773 -0.7555
  679MOL0     C91539   2.888   4.950  10.435  0.8567 -0.8066  0.8625
  679MOL0     C91540   3.040   4.974  10.394  0.1953  0.0992  0.9856
  679MOL0     C91541   3.105   5.079  10.483 -0.2878 -1.0417  0.5031
  679MOL0     C91542   3.252   5.091  10.452  0.6912  0.0155 -0.2018
  679MOL0     C91543   3.322   5.201  10.541  0.2747 -0.7035 -0.4289
  679MOL0     C91544   3.476   5.191  10.534 -0.1442  0.3224  0.3928
  679MOL0     C91545   3.545   5.321  10.585 -0.1695  0.3451 -0.6056
  679MOL0     C91546   3.689   5.297  10.597  0.4218  0.3532  0.0154
  679MOL0     N91547   3.764   5.404  10.663 -0.7752 -0.3387  0.2583
  679MOL0     C91548   3.787   5.434  10.801 -0.3945  0.5224 -0.1172
  679MOL0     C91549   3.870   5.540  10.804 -0.7572  0.1464  0.4189
  679MOL0     C91550   3.941   5.584  10.930  0.2740 -0.0966 -0.5992
  679MOL0     C91551   4.055   5.488  10.968  0.0513 -0.0733  0.8546
  679MOL0     C91552   4.182   5.473  10.890  0.2596 -0.5536 -0.1600
  679MOL0     C91553   4.306   5.532  10.972 -1.0902 -0.7975  0.4190
  679MOL0     O91554   4.291   5.672  10.964  0.1310  0.0756 -0.6177
  679MOL0     C91555   4.343   5.760  11.060 -0.4751 -0.1068 -0.3014
  679MOL0     C91556   4.389   5.730  11.190  0.0632  0.9372 -0.4402
  679MOL0     C91557   4.455   5.829  11.264 -0.1933 -0.0739  0.1083
  679MOL0     C91558   4.508   5.789  11.405  0.1095  0.5547 -0.3620
  679MOL0     C91559   4.455   5.967  11.225 -0.5619  0.4366  0.4350
  679MOL0     C91560   4.497   6.087  11.310  0.1923  0.3330 -1.2110
  679MOL0     O91561   4.515   6.202  11.245  1.0902  0.6106  0.1703
  679MOL0     C91562   4.559   6.307  11.322 -1.0814 -0.3233  0.1595
  679MOL0     C91563   4.499   6.428  11.298  0.1155 -0.1514  0.0544
  679MOL0     C91564   4.531   6.551  11.365 -0.5721 -0.0487  0.5980
  679MOL0     C91565   4.645   6.557  11.450  0.0076  0.0873 -0.0044
  679MOL0     O91566   4.695   6.664  11.514 -0.3280  0.1067  0.9705
  679MOL0     C91567   4.633   6.712  11.631 -1.4460  0.9251 -0.1932
  679MOL0     C91568   4.728   6.710  11.748 -0.1954  0.0641  0.1688
  679MOL0     C91569   4.849   6.809  11.740 -0.1950  0.3806 -1.0924
  679MOL0     C91570   4.958   6.744  11.658 -0.8638 -0.3095 -1.1801
  679MOL0     C91571   5.083   6.833  11.637  0.5554  0.2442 -1.1564
  679MOL0     C91572   5.180   6.759  11.544  0.8879 -0.3130 -0.3498
  679MOL0     C91573   5.321   6.824  11.539  0.9276 -0.1224  0.7181
  679MOL0     C91574   5.406   6.801  11.418  0.4075  0.0689 -0.5161
  679MOL0    Cl91575   5.397   6.638  11.360  0.4539  0.3391  0.3553
  679MOL0     C91576   4.709   6.438  11.471  0.7131  0.4727 -0.7389
  679MOL0     C91577   4.667   6.316  11.412 -0.0621  0.2757  0.0253
  679MOL0     O91578   4.515   6.070  11.426  0.2217 -0.3815 -0.0184
  679MOL0     C91579   4.410   5.990  11.096 -0.1147 -0.0188  0.0556
  679MOL0     C91580   4.358   5.887  11.016 -0.5953 -1.4711  0.3603
  679MOL0     N91581   3.903   5.576  10.674 -0.2210 -0.8936  0.4722
  679MOL0     N91582   3.822   5.511  10.598  0.3103 -0.1417 -0.0644
  679MOL0     C91583   2.593   4.918  10.460  0.7672 -0.0169 -0.0696
  679MOL0     C91584   2.467   4.873  10.490  0.3483 -0.0800  0.1755
  679MOL0     C91585   2.060   4.653  10.376  0.0233 -0.2118  0.0744
  679MOL0     C91586   1.999   4.700  10.494 -0.2424 -0.5767 -0.4184
  679MOL0     C91587   1.865   4.700  10.516  0.0076 -0.1074  1.1502
  679MOL0     C91588   1.772   4.657  10.416 -0.5635  0.1262 -0.5151
  679MOL0     O91589   1.642   4.650  10.442  0.4642  0.1393  1.0054
  679MOL0     C91590   1.584   4.670  10.574 -0.7886 -0.9939  0.7504
  679MOL0     C91591   1.563   4.820  10.594 -0.7406 -0.0309  0.3616
  679MOL0     C91592   1.465   4.878  10.487  0.5485  0.2579  0.1066
  679MOL0     C91593   1.477   5.033  10.486 -0.5833  0.7308 -0.5736
  679MOL0     C91594   1.405   5.091  10.600 -0.2283  0.0439  0.2476
  679MOL0     C91595   1.357   5.159  10.689  0.2536  0.4677 -0.8748
  679MOL0     C91596   1.827   4.617  10.294  0.4898  0.8313 -0.5747
  679MOL0     C91597   1.969   4.609  10.277  0.6954 -0.2842  0.1243
  679MOL0     H91598   2.451   4.661  10.222 -1.4977  2.5147 -1.5003
  679MOL0     H91599   2.648   4.748  10.168 -0.0451 -2.8148  0.7399
  679MOL0     H91600   2.848   5.043  10.477 -2.4441 -1.8888  0.4257
  679MOL0     H91601   2.880   4.869  10.508 -5.4344 -0.2977  1.2544
  679MOL0     H91602   3.090   4.877  10.403 -1.2033 -0.7288  0.2284
  679MOL0     H91603   3.049   5.004  10.289  0.6977 -2.5749  0.1827
  679MOL0     H91604   3.056   5.173  10.458  0.5755 -0.1490  2.0107
  679MOL0     H91605   3.091   5.051  10.588 -3.9832  1.6023  0.9188
  679MOL0     H91606   3.309   4.998  10.461  1.1904  0.4785  2.1466
  679MOL0     H91607   3.265   5.123  10.349 -1.2911 -1.9328 -1.1358
  679MOL0     H91608   3.288   5.299  10.507  0.9495 -0.1649  0.4110
  679MOL0     H91609   3.290   5.192  10.646  0.7932  0.0879 -0.1944
  679MOL0     H91610   3.511   5.105  10.592 -1.7222 -0.5763  0.0537
  679MOL0     H91611   3.501   5.176  10.429  0.1776 -2.0468  0.7497
  679MOL0     H91612   3.532   5.405  10.517  1.2907  1.8278  0.8468
  679MOL0     H91613   3.496   5.344  10.680  0.0188 -1.2530 -0.0858
  679MOL0     H91614   3.735   5.296  10.498  1.5019  0.3787  0.5076
  679MOL0     H91615   3.695   5.203  10.652 -0.7569  1.3543  1.9947
  679MOL0     H91616   3.737   5.385  10.884  0.6414  0.7728  0.6851
  679MOL0     H91617   3.998   5.672  10.899  1.9414 -1.9849 -3.3267
  679MOL0     H91618   3.887   5.593  11.025 -0.2278 -1.7207 -0.6937
  679MOL0     H91619   4.015   5.387  10.980 -0.4113  0.3026  3.0629
  679MOL0     H91620   4.086   5.509  11.071 -0.2675 -1.8991  1.3522
  679MOL0     H91621   4.180   5.531  10.797  1.7726 -0.3007 -0.0473
  679MOL0     H91622   4.200   5.369  10.861 -2.6474 -1.2337  0.0996
  679MOL0     H91623   4.395   5.496  10.921 -2.8460  1.0021 -4.4953
  679MOL0     H91624   4.301   5.498  11.076 -1.8041 -0.5405  0.4780
  679MOL0     H91625   4.384   5.633  11.239  0.0378  0.3836 -1.4973
  679MOL0     H91626   4.604   5.838  11.426 -0.1566  1.7031 -1.7092
  679MOL0     H91627   4.454   5.780  11.500  0.0857  0.2615 -0.4009
  679MOL0     H91628   4.532   5.683  11.395 -1.8125  0.1840 -1.5538
  679MOL0     H91629   4.416   6.420  11.227  0.8750 -0.0898 -0.8671
  679MOL0     H91630   4.478   6.644  11.347  0.2523  0.2213 -0.5957
  679MOL0     H91631   4.612   6.819  11.621  0.0509  1.4256  1.4346
  679MOL0     H91632   4.538   6.668  11.663 -0.9606 -1.4123 -1.7456
  679MOL0     H91633   4.678   6.744  11.839  1.2786  1.5516  0.4788
  679MOL0     H91634   4.768   6.612  11.777 -2.1277 -0.8030  0.1164
  679MOL0     H91635   4.889   6.825  11.840 -3.2369  0.6468  0.1858
  679MOL0     H91636   4.832   6.911  11.705  0.8113  1.0444  0.2460
  679MOL0     H91637   4.985   6.652  11.711  3.1818  0.2108 -2.0355
  679MOL0     H91638   4.925   6.705  11.561 -2.8717 -0.9855 -0.3005
  679MOL0     H91639   5.130   6.852  11.734 -0.9543  1.7116 -0.6634
  679MOL0     H91640   5.064   6.929  11.589  1.0167  0.5491 -0.7397
  679MOL0     H91641   5.195   6.654  11.574 -1.1324  0.1366  2.6051
  679MOL0     H91642   5.131   6.757  11.447  0.1299  0.0742  0.0245
  679MOL0     H91643   5.379   6.782  11.622  0.2416 -0.5749  0.9743
  679MOL0     H91644   5.305   6.931  11.555 -1.5620 -0.4545  0.7388
  679MOL0     H91645   5.511   6.810  11.450 -0.1205 -1.3286  1.8270
  679MOL0     H91646   5.379   6.870  11.338 -2.2147 -0.8395 -0.4832
  679MOL0     H91647   4.788   6.442  11.546  1.6521  1.0676 -1.7400
  679MOL0     H91648   4.717   6.221  11.427 -2.3127 -0.6583  2.1277
  679MOL0     H91649   4.412   6.090  11.054 -0.1861  0.2824  0.7533
  679MOL0     H91650   4.347   5.901  10.909  3.8302 -0.5436 -0.1460
  679MOL0     H91651   2.638   4.991  10.526 -0.5360 -1.0845  2.1139
  679MOL0     H91652   2.400   4.917  10.562  0.1451 -1.2062  0.6983
  679MOL0     H91653   2.062   4.741  10.573 -1.6492  0.4148  0.2210
  679MOL0     H91654   1.840   4.734  10.616 -0.5628 -0.9331  1.3007
  679MOL0     H91655   1.489   4.621  10.552 -0.9393  0.4514 -2.2993
  679MOL0     H91656   1.641   4.635  10.661  1.4882 -0.9341 -0.6289
  679MOL0     H91657   1.661   4.869  10.592 -2.0318  2.7532 -0.0287
  679MOL0     H91658   1.520   4.833  10.694  0.3506  0.8044  0.7437
  679MOL0     H91659   1.359   4.857  10.501  0.0665  3.1465  1.6678
  679MOL0     H91660   1.490   4.849  10.385 -0.0321  0.6465 -0.1527
  679MOL0     H91661   1.442   5.067  10.387 -1.1324  0.8222 -0.3548
  679MOL0     H91662   1.583   5.059  10.488  0.1820 -2.0202 -1.2538
  679MOL0     H91663   1.320   5.201  10.781 -0.3716 -1.2955 -0.2698
  679MOL0     H91664   1.758   4.566  10.228 -0.5908  0.5844  0.7053
  679MOL0     H91665   1.995   4.581  10.175 -0.2278  0.4449 -0.3194
  680MOL0     O91666   3.948   5.561   9.737  0.2205  0.0414 -0.5831
  680MOL0     C91667   3.952   5.487   9.840  0.2749 -0.5683 -0.5163
  680MOL0     O91668   3.857   5.406   9.887 -0.4175 -0.1881  0.0284
  680MOL0     C91669   3.728   5.432   9.846  0.1423  0.5091 -0.1929
  680MOL0     C91670   3.631   5.323   9.864 -0.2826  0.2021 -0.9526
  680MOL0     C91671   3.498   5.345   9.825  0.0103 -0.1153 -0.5615
  680MOL0     C91672   3.451   5.472   9.787  0.3502  0.5190 -0.3474
  680MOL0     O91673   3.316   5.491   9.749 -0.4749  0.4543  0.3710
  680MOL0     C91674   3.216   5.411   9.800  0.0325  0.1014 -0.1927
  680MOL0     C91675   3.095   5.492   9.803  0.1154  0.1984 -0.0445
  680MOL0     C91676   3.108   5.616   9.895  0.4743  0.2903  0.2434
  680MOL0     C91677   2.970   5.678   9.929 -0.6622  0.1043  0.8466
  680MOL0     C91678   2.991   5.792  10.032 -0.1886  0.9676 -0.8140
  680MOL0     C91679   2.868   5.879  10.052 -0.3171  1.5680 -0.2803
  680MOL0     C91680   2.732   5.812  10.090 -0.0212  0.2483 -1.0246
  680MOL0     C91681   2.744   5.752  10.236  0.9624  0.9841 -0.1362
  680MOL0     N91682   2.772   5.855  10.337 -0.2984  0.4213  0.6471
  680MOL0     C91683   2.670   5.914  10.407 -0.0812 -0.2969  0.3971
  680MOL0     C91684   2.733   5.996  10.502 -0.0620  0.3473 -0.2513
  680MOL0     C91685   2.667   6.074  10.615 -0.7855 -0.4457  0.0425
  680MOL0     C91686   2.740   6.209  10.651  0.4943  0.0872  0.0104
  680MOL0     C91687   2.660   6.284  10.752  0.3812 -0.3933 -0.3735
  680MOL0     C91688   2.749   6.402  10.804  0.1282  0.7273 -0.2624
  680MOL0     O91689   2.671   6.481  10.892  0.7676  0.8341  0.1083
  680MOL0     C91690   2.733   6.584  10.948 -0.6170  0.0399 -0.3919
  680MOL0     C91691   2.743   6.715  10.899  0.2147  0.0606  0.4075
  680MOL0     C91692   2.783   6.817  10.991  0.1359  0.1823  0.0654
  680MOL0     C91693   2.782   6.957  10.926  0.0854 -0.3078 -0.5428
  680MOL0     C91694   2.810   6.798  11.125 -0.8662  1.5245  0.2697
  680MOL0     C91695   2.841   6.914  11.216 -1.5993  0.2850  0.2131
  680MOL0     O91696   2.836   7.045  11.187  0.1274 -0.1149 -0.0025
  680MOL0     C91697   2.865   7.151  11.275  0.2428 -0.1816 -0.0574
  680MOL0     C91698   2.860   7.280  11.217 -0.2919  0.1329  0.7446
  680MOL0     C91699   2.889   7.393  11.295  0.9887  0.5103 -0.3683
  680MOL0     C91700   2.945   7.379  11.422  0.1099  0.0934  0.4640
  680MOL0     O91701   2.996   7.485  11.486  0.7458  0.0792 -0.5961
  680MOL0     C91702   3.113   7.467  11.560  0.3010 -0.0339 -0.0947
  680MOL0     C91703   3.187   7.597  11.592  0.2430  0.5630  0.3881
  680MOL0     C91704   3.132   7.680  11.704  1.5263  0.0435  0.1862
  680MOL0     C91705   3.212   7.798  11.764 -0.2382  0.5995  1.0843
  680MOL0     C91706   3.134   7.884  11.852 -0.0997  0.6499  0.4367
  680MOL0     C91707   3.014   7.948  11.780  0.2290  0.3996  0.1325
  680MOL0     C91708   2.990   8.096  11.829 -0.3203  1.2287 -0.1019
  680MOL0     C91709   2.857   8.141  11.819  0.6013 -0.3569 -0.7441
  680MOL0    Cl91710   2.791   8.146  11.649 -0.3130 -0.1945 -0.8231
  680MOL0     C91711   2.942   7.245  11.477  0.1013 -0.0083  0.8831
  680MOL0     C91712   2.899   7.134  11.409  0.0291 -0.5812  0.6559
  680MOL0     O91713   2.880   6.872  11.325  0.4660 -0.2387 -0.1679
  680MOL0     C91714   2.820   6.666  11.165  0.5907  0.1007 -0.1493
  680MOL0     C91715   2.777   6.564  11.081 -0.9044 -0.2151  1.0670
  680MOL0     N91716   2.872   5.979  10.478 -0.4737  0.0157  0.0043
  680MOL0     N91717   2.895   5.888  10.384 -0.2335 -0.2328  0.1081
  680MOL0     C91718   3.541   5.576   9.766  0.0949  0.0786 -0.0287
  680MOL0     C91719   3.680   5.548   9.796  0.3498  0.1158  1.2621
  680MOL0     C91720   4.073   5.523   9.923 -0.1336  0.3287  0.1431
  680MOL0     C91721   4.056   5.543  10.059 -0.5280  0.4430 -0.6681
  680MOL0     C91722   4.172   5.562  10.148 -0.6855 -0.7541 -0.0424
  680MOL0     C91723   4.304   5.575  10.091 -0.4579 -0.9224 -0.1124
  680MOL0     O91724   4.396   5.619  10.178 -0.4310 -0.0031  0.2482
  680MOL0     C91725   4.530   5.631  10.120 -0.0756 -0.3683  1.7093
  680MOL0     C91726   4.613   5.502  10.086  0.4169 -0.7653  0.1410
  680MOL0     C91727   4.763   5.528  10.083  0.6109  0.3043 -1.0083
  680MOL0     C91728   4.791   5.634   9.978  0.0299  0.3044  0.3246
  680MOL0     C91729   4.794   5.576   9.842 -0.4695 -0.2323 -0.2530
  680MOL0     C91730   4.816   5.518   9.739 -0.2403  0.5684 -0.1789
  680MOL0     C91731   4.312   5.561   9.949  0.2903 -0.6554 -0.8939
  680MOL0     C91732   4.201   5.533   9.873 -0.7202 -0.4225  0.2537
  680MOL0     H91733   3.659   5.224   9.899  0.1782  1.1171  1.4880
  680MOL0     H91734   3.435   5.257   9.839  1.4404 -0.7784  2.5579
  680MOL0     H91735   3.188   5.324   9.738 -0.2360  0.2397 -0.2686
  680MOL0     H91736   3.238   5.375   9.901 -0.7831  2.2526  0.8013
  680MOL0     H91737   3.093   5.520   9.697 -2.7577 -2.5183 -0.8444
  680MOL0     H91738   3.007   5.432   9.826 -0.4324  0.7755 -0.5724
  680MOL0     H91739   3.160   5.596   9.989 -0.5048  1.8859  1.1844
  680MOL0     H91740   3.163   5.692   9.839 -1.2993  0.6381 -1.1374
  680MOL0     H91741   2.931   5.733   9.843 -3.7671 -1.7518  0.9144
  680MOL0     H91742   2.896   5.607   9.969 -0.4013 -0.1018  0.9748
  680MOL0     H91743   3.008   5.735  10.124 -0.9556  1.2335 -0.5017
  680MOL0     H91744   3.075   5.859  10.008 -0.0769 -0.0080 -3.4422
  680MOL0     H91745   2.887   5.955  10.129  1.2440  0.9545 -0.0195
  680MOL0     H91746   2.854   5.937   9.960 -2.0581  1.2174 -0.2568
  680MOL0     H91747   2.650   5.884  10.089 -1.2416 -1.0564  0.3356
  680MOL0     H91748   2.688   5.742  10.019 -2.2445  0.9048 -0.3494
  680MOL0     H91749   2.824   5.677  10.229  0.5957  0.6846 -1.2894
  680MOL0     H91750   2.651   5.707  10.271 -0.3099  2.7994 -1.0497
  680MOL0     H91751   2.565   5.889  10.393 -0.3651  1.0503 -0.1212
  680MOL0     H91752   2.568   6.097  10.575 -0.8004  2.4396  1.5117
  680MOL0     H91753   2.660   6.007  10.701  1.5039  0.1073  0.7102
  680MOL0     H91754   2.753   6.274  10.564  1.3464 -0.1427 -0.0464
  680MOL0     H91755   2.841   6.182  10.683  0.6020 -1.8244 -1.7015
  680MOL0     H91756   2.634   6.221  10.838  2.6292  1.3838  1.7652
  680MOL0     H91757   2.568   6.326  10.711 -0.3741 -1.1438  0.4918
  680MOL0     H91758   2.787   6.458  10.718  2.8406 -2.5967 -1.4702
  680MOL0     H91759   2.835   6.357  10.855  2.4568  3.9857 -1.0290
  680MOL0     H91760   2.748   6.730  10.792 -0.6697 -0.3491  0.3009
  680MOL0     H91761   2.704   7.020  10.968  0.6663 -1.5215  2.5971
  680MOL0     H91762   2.881   7.001  10.942 -0.7547  1.0437  1.3747
  680MOL0     H91763   2.757   6.949  10.820  3.0848 -1.0173 -1.3157
  680MOL0     H91764   2.821   7.292  11.116 -0.9964  0.7576  1.0841
  680MOL0     H91765   2.874   7.490  11.249  1.3042  1.0931  0.7219
  680MOL0     H91766   3.094   7.432  11.662 -2.4751  1.6809  0.0844
  680MOL0     H91767   3.175   7.406  11.494 -1.1862 -1.1110 -0.5392
  680MOL0     H91768   3.285   7.564  11.628  0.2292 -3.8223 -2.8140
  680MOL0     H91769   3.198   7.648  11.495  0.4006 -4.8530 -2.8393
  680MOL0     H91770   3.127   7.614  11.792 -0.4144  0.4737  0.4316
  680MOL0     H91771   3.034   7.706  11.665  0.7252 -3.8807 -0.8900
  680MOL0     H91772   3.300   7.753  11.810  0.4843  0.5773 -0.2787
  680MOL0     H91773   3.251   7.861  11.683 -0.5641 -0.9879 -0.3653
  680MOL0     H91774   3.197   7.964  11.891  2.1027  1.0966 -3.5413
  680MOL0     H91775   3.107   7.831  11.944 -0.3362 -0.0533 -0.0254
  680MOL0     H91776   3.039   7.951  11.674  1.1154 -0.7212  0.2907
  680MOL0     H91777   2.931   7.881  11.804  2.9674 -3.1390  0.7039
  680MOL0     H91778   3.057   8.163  11.774  1.3004 -2.0215 -2.4475
  680MOL0     H91779   3.022   8.096  11.933  0.2155 -0.8505 -0.2355
  680MOL0     H91780   2.847   8.243  11.857  1.3911 -0.7896  0.7075
  680MOL0     H91781   2.799   8.077  11.886 -0.0893 -1.1985 -2.1109
  680MOL0     H91782   2.971   7.243  11.581  0.3871  1.6737  0.8738
  680MOL0     H91783   2.896   7.043  11.469  1.0457  0.0316  1.6678
  680MOL0     H91784   2.857   6.636  11.263  1.5922  0.6773 -0.3278
  680MOL0     H91785   2.780   6.463  11.120  2.2020 -0.1281  1.2893
  680MOL0     H91786   3.507   5.671   9.726 -2.3594 -1.1327 -1.0499
  680MOL0     H91787   3.735   5.642   9.784 -1.3477  1.2778  2.1808
  680MOL0     H91788   3.960   5.544  10.111  0.5449  0.6840  1.4154
  680MOL0     H91789   4.165   5.577  10.256 -0.2440  2.6633 -0.3639
  680MOL0     H91790   4.526   5.694  10.030  0.2359 -0.9486  1.2817
  680MOL0     H91791   4.588   5.683  10.196  0.2619 -0.4392  1.5026
  680MOL0     H91792   4.580   5.456   9.993  0.8831 -0.4608 -0.1777
  680MOL0     H91793   4.588   5.437  10.171 -2.2134 -2.9380 -2.1001
  680MOL0     H91794   4.811   5.434  10.052 -0.5034 -1.2480  1.6395
  680MOL0     H91795   4.790   5.553  10.186 -2.0025  0.7570 -0.3690
  680MOL0     H91796   4.892   5.667  10.006 -1.0822  1.6850  3.1742
  680MOL0     H91797   4.731   5.725   9.976 -0.9166 -0.3044  0.4710
  680MOL0     H91798   4.847   5.472   9.648  0.3565 -0.8136  0.6960
  680MOL0     H91799   4.410   5.575   9.903  0.4761  0.1074 -0.3034
  680MOL0     H91800   4.215   5.533   9.766  3.1630 -0.7336  0.6088
  681MOL0     O91801   1.303  10.940   6.313  0.0277  0.7197 -0.1825
  681MOL0     C91802   1.321  10.825   6.337  0.8914  0.7610  0.3304
  681MOL0     O91803   1.222  10.733   6.377 -0.5264 -0.2309 -0.1250
  681MOL0     C91804   1.094  10.785   6.380 -0.7758  0.2728 -0.1896
  681MOL0     C91805   1.006  10.766   6.274 -0.7254 -0.3044  0.5895
  681MOL0     C91806   0.883  10.825   6.273  0.5593 -0.4055 -0.3790
  681MOL0     C91807   0.843  10.905   6.376  0.1180 -0.3700 -0.2275
  681MOL0     O91808   0.734  10.988   6.381  0.0806 -0.2437  0.6074
  681MOL0     C91809   0.629  10.975   6.289 -0.6723  0.3099 -0.7277
  681MOL0     C91810   0.536  10.851   6.311 -0.4570 -0.2459  0.2196
  681MOL0     C91811   0.456  10.860   6.444  0.0524  0.1006 -0.5668
  681MOL0     C91812   0.342  10.763   6.448  0.3510 -0.3146  0.2655
  681MOL0     C91813   0.281  10.760   6.581 -0.0212 -0.1132  0.3367
  681MOL0     C91814   0.150  10.686   6.575  0.1584 -0.1270  0.3226
  681MOL0     C91815   0.075  10.679   6.714 -0.1662  0.2703 -0.9998
  681MOL0     C91816  -0.034  10.569   6.723 -0.8727 -0.4511 -0.0648
  681MOL0     N91817  -0.136  10.570   6.614 -0.8210 -0.0712 -0.1436
  681MOL0     C91818  -0.124  10.541   6.479  0.2147  0.4549  0.2150
  681MOL0     C91819  -0.250  10.565   6.424 -0.4219 -0.1373 -0.4337
  681MOL0     C91820  -0.290  10.544   6.283  0.4771  0.6759 -0.1521
  681MOL0     C91821  -0.409  10.451   6.266 -0.0888  0.0707 -0.2069
  681MOL0     C91822  -0.461  10.421   6.124  0.0193 -0.1913  0.5537
  681MOL0     C91823  -0.495  10.557   6.063  0.4047  0.0864 -0.0716
  681MOL0     O91824  -0.512  10.543   5.916 -0.8063  0.1438  0.3172
  681MOL0     C91825  -0.411  10.521   5.825 -0.1523  0.0745 -0.2934
  681MOL0     C91826  -0.442  10.507   5.692  1.4823  1.4132  0.6924
  681MOL0     C91827  -0.351  10.462   5.601  0.2956 -0.1349 -0.0192
  681MOL0     C91828  -0.393  10.408   5.468 -0.7880  0.5865 -0.3660
  681MOL0     C91829  -0.212  10.461   5.629 -0.1752 -0.5733 -0.1712
  681MOL0     C91830  -0.114  10.417   5.542 -0.0187  0.7021  0.5056
  681MOL0     O91831  -0.090  10.498   5.445 -0.2275  0.2622 -0.9209
  681MOL0     C91832  -0.004  10.456   5.352  1.2444  0.2460 -0.2090
  681MOL0     C91833   0.135  10.461   5.359 -0.4881  0.1918 -0.3954
  681MOL0     C91834   0.208  10.423   5.245  0.4518 -0.1422 -1.3368
  681MOL0     C91835   0.144  10.401   5.126  1.4295 -0.1757 -0.2587
  681MOL0     O91836   0.231  10.365   5.018  0.4286 -0.6015  0.9616
  681MOL0     C91837   0.198  10.427   4.890 -0.1600 -0.7753  0.5087
  681MOL0     C91838   0.221  10.579   4.887  0.3864  0.5413  0.2150
  681MOL0     C91839   0.356  10.625   4.929 -0.6571  0.6115 -0.2069
  681MOL0     C91840   0.479  10.597   4.834  0.8121  0.2413 -0.3503
  681MOL0     C91841   0.601  10.672   4.881  0.2192 -0.9219  0.6285
  681MOL0     C91842   0.666  10.597   5.003  0.6077 -0.6948  0.4830
  681MOL0     C91843   0.814  10.609   5.008 -0.0757 -0.1713 -0.1956
  681MOL0     C91844   0.854  10.752   5.023 -0.5963 -0.3972  0.3053
  681MOL0    Cl91845   1.034  10.769   5.013  0.1625 -0.0771 -0.5112
  681MOL0     C91846   0.008  10.414   5.112  0.7800 -0.1806  0.6173
  681MOL0     C91847  -0.064  10.431   5.229  0.5608  0.0118  0.7810
  681MOL0     O91848  -0.047  10.316   5.577  0.2655  0.3242 -0.1682
  681MOL0     C91849  -0.178  10.497   5.765 -0.0819  0.1426  0.0356
  681MOL0     C91850  -0.272  10.531   5.859 -0.4617 -0.1090  0.2647
  681MOL0     N91851  -0.330  10.599   6.535 -0.0438 -0.7015  1.4674
  681MOL0     N91852  -0.267  10.595   6.642  0.8571 -0.3980 -0.1326
  681MOL0     C91853   0.938  10.927   6.482  0.6012 -0.8282  0.1243
  681MOL0     C91854   1.060  10.867   6.485  0.0378 -0.6527  0.3972
  681MOL0     C91855   1.458  10.779   6.328  0.1706 -0.1337  0.1957
  681MOL0     C91856   1.565  10.858   6.300 -0.2898 -0.8482  1.0265
  681MOL0     C91857   1.697  10.805   6.294  0.0593  0.5650  0.0158
  681MOL0     C91858   1.722  10.670   6.328  0.0647 -0.1066  0.3391
  681MOL0     O91859   1.853  10.627   6.335 -0.3206 -0.7563 -0.1324
  681MOL0     C91860   1.898  10.493   6.366  0.4648 -0.1611 -0.6244
  681MOL0     C91861   1.899  10.420   6.230  0.0682  0.0293  0.1615
  681MOL0     C91862   2.015  10.475   6.136  0.2589 -0.2174  0.1392
  681MOL0     C91863   2.008  10.396   5.994 -0.1776 -0.0707 -0.1514
  681MOL0     C91864   2.060  10.256   6.005 -0.6885 -0.8888  0.0821
  681MOL0     C91865   2.082  10.140   6.020 -0.5915 -0.0636  0.0068
  681MOL0     C91866   1.613  10.598   6.362 -0.3787 -0.2183 -0.6371
  681MOL0     C91867   1.484  10.647   6.364 -1.1011  0.7267  0.4327
  681MOL0     H91868   1.028  10.701   6.190 -0.6376  2.1430 -1.3959
  681MOL0     H91869   0.820  10.822   6.184  2.1419  1.4117 -1.6567
  681MOL0     H91870   0.571  11.068   6.293  0.4332  1.1780 -3.2109
  681MOL0     H91871   0.667  10.978   6.187  0.1998 -0.0935 -0.4195
  681MOL0     H91872   0.482  10.835   6.217  0.3077  3.1448 -0.9805
  681MOL0     H91873   0.595  10.760   6.303  0.8943  0.7208 -1.5980
  681MOL0     H91874   0.528  10.840   6.525 -1.9020 -1.5346  0.8761
  681MOL0     H91875   0.423  10.963   6.457 -1.3433 -0.4814  0.9089
  681MOL0     H91876   0.269  10.792   6.371  1.7939  0.9486 -0.6835
  681MOL0     H91877   0.379  10.661   6.435 -1.0362 -0.8940  0.6811
  681MOL0     H91878   0.345  10.710   6.654 -0.0213 -1.7042 -0.7095
  681MOL0     H91879   0.259  10.861   6.617  1.5859  0.2491  0.4135
  681MOL0     H91880   0.087  10.743   6.506  0.9487  0.5123  0.1139
  681MOL0     H91881   0.168  10.584   6.538  2.0113  0.6623 -1.1430
  681MOL0     H91882   0.129  10.645   6.803 -2.8655  0.3031  0.7461
  681MOL0     H91883   0.034  10.776   6.740  3.9901  2.2375 -0.9322
  681MOL0     H91884  -0.088  10.584   6.817  3.4561  0.2899  2.5314
  681MOL0     H91885   0.016  10.474   6.742  0.3881  0.3772  0.8807
  681MOL0     H91886  -0.027  10.526   6.430  0.9704 -1.0257  2.0443
  681MOL0     H91887  -0.318  10.646   6.254  0.6327  0.4758 -1.0103
  681MOL0     H91888  -0.198  10.512   6.235 -1.3754 -1.1468 -2.7961
  681MOL0     H91889  -0.488  10.492   6.331  0.4579  0.3701  0.2764
  681MOL0     H91890  -0.392  10.355   6.316 -2.1325 -0.5327 -0.5623
  681MOL0     H91891  -0.547  10.354   6.119  0.3121 -0.4732 -1.7175
  681MOL0     H91892  -0.386  10.372   6.062  1.1182  2.1872 -0.1106
  681MOL0     H91893  -0.410  10.624   6.068  1.2363 -0.7120 -2.2524
  681MOL0     H91894  -0.588  10.591   6.110  0.5892 -1.3254  1.4382
  681MOL0     H91895  -0.544  10.514   5.654  0.9586  1.4393  2.0272
  681MOL0     H91896  -0.410  10.494   5.402 -0.5255  0.5329 -0.5027
  681MOL0     H91897  -0.314  10.346   5.425  1.1709  2.1000  0.9356
  681MOL0     H91898  -0.480  10.342   5.471  0.4613 -1.1283 -0.3677
  681MOL0     H91899   0.190  10.474   5.451 -2.2767 -2.2442  1.1322
  681MOL0     H91900   0.316  10.417   5.251  0.8030  2.1384 -3.6990
  681MOL0     H91901   0.272  10.394   4.817 -0.8104  0.8946 -0.9904
  681MOL0     H91902   0.103  10.400   4.842  1.2626 -0.4752 -2.7593
  681MOL0     H91903   0.198  10.610   4.785  1.8995 -0.5157 -0.4782
  681MOL0     H91904   0.144  10.622   4.952  0.7432 -1.5487  2.1798
  681MOL0     H91905   0.388  10.579   5.023 -2.6131 -1.1431 -0.3048
  681MOL0     H91906   0.340  10.729   4.958  1.0005  0.5047  1.2186
  681MOL0     H91907   0.498  10.491   4.818 -2.2369 -0.9345  2.4948
  681MOL0     H91908   0.454  10.642   4.737 -1.1306 -0.2686 -0.1320
  681MOL0     H91909   0.578  10.778   4.899 -0.5922 -1.1683  1.1009
  681MOL0     H91910   0.665  10.669   4.793  0.9836 -0.1559  1.1400
  681MOL0     H91911   0.618  10.626   5.097 -0.8032  1.3914 -0.8063
  681MOL0     H91912   0.655  10.488   4.997  0.8527 -0.8697  2.5174
  681MOL0     H91913   0.862  10.564   4.920  2.1179 -1.9955  1.8071
  681MOL0     H91914   0.857  10.548   5.087  2.3115  0.5766 -0.8141
  681MOL0     H91915   0.815  10.801   5.112 -1.0842  0.1336 -0.1890
  681MOL0     H91916   0.816  10.804   4.934  0.2119 -0.1266  0.1126
  681MOL0     H91917  -0.052  10.414   5.021 -0.5410  3.3993  1.3262
  681MOL0     H91918  -0.172  10.441   5.230  0.3751 -1.6341  0.4517
  681MOL0     H91919  -0.073  10.489   5.789 -0.1407 -0.7240  0.0295
  681MOL0     H91920  -0.241  10.572   5.954 -1.5325 -0.2417  0.6799
  681MOL0     H91921   0.910  11.000   6.557 -0.2173  0.1667 -1.0993
  681MOL0     H91922   1.116  10.881   6.577 -2.8808 -3.1320  2.7730
  681MOL0     H91923   1.556  10.963   6.271 -1.2381 -1.1165  0.3113
  681MOL0     H91924   1.783  10.868   6.275  1.5546 -0.8402  1.7945
  681MOL0     H91925   1.998  10.491   6.411  0.2397  2.4798  0.1780
  681MOL0     H91926   1.829  10.446   6.437  1.6482 -0.5257  0.3270
  681MOL0     H91927   1.805  10.418   6.173  0.6798 -1.7403 -0.8462
  681MOL0     H91928   1.923  10.316   6.252 -1.4111  0.0535  2.1724
  681MOL0     H91929   2.105  10.452   6.195 -0.7710 -2.7599  0.8522
  681MOL0     H91930   2.005  10.582   6.116 -3.1207 -0.2522  1.1405
  681MOL0     H91931   2.058  10.461   5.922  0.4237  2.3904  2.2748
  681MOL0     H91932   1.903  10.394   5.964 -0.6645 -0.0953  1.4366
  681MOL0     H91933   2.091  10.034   6.030 -1.6030 -0.2431 -0.8598
  681MOL0     H91934   1.629  10.496   6.395 -0.6680  0.4589  1.8354
  681MOL0     H91935   1.394  10.590   6.387 -0.8279  0.6732  1.4157
  682MOL0     O91936  10.455  11.409   4.750 -0.5527  0.2775  0.1149
  682MOL0     C91937  10.380  11.492   4.783 -0.7339 -0.3746 -0.4600
  682MOL0     O91938  10.251  11.510   4.738 -0.9268  1.0649 -0.2416
  682MOL0     C91939  10.189  11.401   4.667 -0.0770 -0.5951 -0.7479
  682MOL0     C91940  10.147  11.288   4.736 -0.1732  0.7294 -0.8338
  682MOL0     C91941  10.064  11.188   4.673  0.1298 -0.2745 -0.2871
  682MOL0     C91942  10.003  11.204   4.549 -1.2032  0.0946 -0.2796
  682MOL0     O91943   9.914  11.116   4.481 -0.4296 -0.1477 -0.5059
  682MOL0     C91944   9.858  10.999   4.547  0.3423 -1.5793  0.3901
  682MOL0     C91945   9.760  10.922   4.454 -0.1647 -0.4389 -0.1941
  682MOL0     C91946   9.827  10.868   4.332 -0.4157 -0.1578 -0.7496
  682MOL0     C91947   9.730  10.784   4.248  0.4735 -0.1135 -0.1653
  682MOL0     C91948   9.787  10.764   4.116 -0.2951  0.2690  0.4614
  682MOL0     C91949   9.701  10.685   4.019 -0.2222 -0.2907  0.0413
  682MOL0     C91950   9.657  10.538   4.066 -0.0415 -0.5774 -0.4144
  682MOL0     C91951   9.644  10.446   3.941 -0.5232 -0.7945  0.4270
  682MOL0     N91952   9.501  10.427   3.913  0.2851  0.3066 -0.5003
  682MOL0     C91953   9.399  10.369   3.985  0.2581  0.5113  0.2066
  682MOL0     C91954   9.287  10.408   3.915  0.5520  1.2982 -0.0471
  682MOL0     C91955   9.147  10.355   3.932  0.6197  0.2437  0.6407
  682MOL0     C91956   9.065  10.366   3.813 -0.0806  0.5224 -0.6113
  682MOL0     C91957   8.921  10.306   3.820 -0.9158 -0.3760  0.5508
  682MOL0     C91958   8.846  10.377   3.930  0.2860  0.9216  0.5354
  682MOL0     O91959   8.729  10.299   3.928  0.1317 -0.4863 -0.1763
  682MOL0     C91960   8.615  10.371   3.920 -0.5365 -0.0086  0.0545
  682MOL0     C91961   8.585  10.462   4.018 -0.4118 -0.0683  0.1448
  682MOL0     C91962   8.460  10.518   4.029 -1.4129  0.6026 -0.1732
  682MOL0     C91963   8.436  10.573   4.173 -0.2845  0.1215  0.4356
  682MOL0     C91964   8.369  10.507   3.928  0.6453 -0.9265  0.4921
  682MOL0     C91965   8.233  10.563   3.927  0.1126 -0.7719 -0.6512
  682MOL0     O91966   8.177  10.566   3.804  0.1290 -0.2269 -0.4804
  682MOL0     C91967   8.044  10.575   3.792 -0.4953  0.3649 -0.5480
  682MOL0     C91968   7.967  10.465   3.739 -0.8306 -0.7945  0.0353
  682MOL0     C91969   7.832  10.495   3.698 -0.4701 -0.3991  0.2859
  682MOL0     C91970   7.762  10.616   3.724 -0.5110  1.1187  0.8200
  682MOL0     O91971   7.626  10.633   3.696 -0.5969 -0.4362 -0.2931
  682MOL0     C91972   7.526  10.524   3.692  0.0638  0.0791  0.8721
  682MOL0     C91973   7.379  10.565   3.688 -0.0035  0.0131  1.0257
  682MOL0     C91974   7.330  10.635   3.561  0.1159  0.5352  0.3951
  682MOL0     C91975   7.302  10.783   3.571 -0.1837 -0.2834 -0.2737
  682MOL0     C91976   7.247  10.836   3.442  0.8030  0.3713 -0.6563
  682MOL0     C91977   7.218  10.991   3.463  0.1152  0.7345  0.1644
  682MOL0     C91978   7.107  11.040   3.551  0.1605 -0.6556  0.7426
  682MOL0     C91979   7.059  11.184   3.524 -0.2873  0.4412 -0.1145
  682MOL0    Cl91980   6.959  11.182   3.374  0.6865  0.6760 -0.2201
  682MOL0     C91981   7.841  10.711   3.781  0.5944 -0.4236  0.5347
  682MOL0     C91982   7.975  10.695   3.807  1.0935 -0.3336 -0.5358
  682MOL0     O91983   8.183  10.604   4.032  0.7790 -0.3118  0.0959
  682MOL0     C91984   8.405  10.429   3.820  0.1083 -0.0601  0.6730
  682MOL0     C91985   8.523  10.359   3.811  0.0683 -0.0979 -0.0203
  682MOL0     N91986   9.321  10.476   3.801 -0.1801  0.0413  0.5476
  682MOL0     N91987   9.450  10.479   3.800 -0.4811  0.2505 -1.0174
  682MOL0     C91988  10.029  11.328   4.482  0.1140 -0.6234  0.2214
  682MOL0     C91989  10.129  11.421   4.546 -0.6153  0.0492 -0.2017
  682MOL0     C91990  10.440  11.595   4.875  0.6848  0.9904 -0.1396
  682MOL0     C91991  10.574  11.590   4.908 -0.6246 -0.1265  0.6682
  682MOL0     C91992  10.643  11.680   4.995 -0.4339  0.0145 -0.2661
  682MOL0     C91993  10.562  11.771   5.060 -0.0866 -1.1686 -0.2498
  682MOL0     O91994  10.615  11.867   5.147  0.1344  0.2387 -0.0373
  682MOL0     C91995  10.755  11.901   5.144 -0.5288 -0.2935  0.4338
  682MOL0     C91996  10.779  12.040   5.196  0.7694 -0.3281  1.3115
  682MOL0     C91997  10.702  12.139   5.090  0.9564 -0.9332  0.1472
  682MOL0     C91998  10.706  12.284   5.120 -1.0413 -0.3069 -1.3910
  682MOL0     C91999  10.842  12.335   5.088  0.1434  0.1941  0.5288
  682MOL0     C92000  10.954  12.380   5.063  0.2594  0.4124  0.3196
  682MOL0     C92001  10.418  11.762   5.042  0.2409  0.0059  0.0035
  682MOL0     C92002  10.367  11.685   4.944 -0.3006  0.1052 -0.9709
  682MOL0     H92003  10.161  11.264   4.841  0.1782  2.6094 -0.4263
  682MOL0     H92004  10.036  11.099   4.729 -0.1792 -0.5232 -0.8238
  682MOL0     H92005   9.941  10.933   4.574 -1.0068 -1.6157  5.3726
  682MOL0     H92006   9.810  11.017   4.643  3.1366 -2.6132  2.0945
  682MOL0     H92007   9.708  10.841   4.506 -0.5113  0.3559  0.7230
  682MOL0     H92008   9.686  10.995   4.420 -0.1401 -0.1288  0.4105
  682MOL0     H92009   9.868  10.952   4.275  0.4120 -1.7071 -2.5223
  682MOL0     H92010   9.918  10.820   4.369 -0.3595 -0.1449 -0.8723
  682MOL0     H92011   9.712  10.685   4.290  0.3052 -0.0986 -0.2014
  682MOL0     H92012   9.629  10.823   4.238  0.9182  1.1660  0.2334
  682MOL0     H92013   9.804  10.861   4.067  0.4367 -0.2780 -0.3864
  682MOL0     H92014   9.880  10.710   4.134  1.0413  2.4420  0.4649
  682MOL0     H92015   9.611  10.743   3.997  0.4973  0.6519 -0.5027
  682MOL0     H92016   9.750  10.675   3.922 -0.4787 -0.8419 -0.0326
  682MOL0     H92017   9.728  10.489   4.133 -2.4443 -0.3158  2.5218
  682MOL0     H92018   9.560  10.555   4.112  0.0484 -1.4365  0.1265
  682MOL0     H92019   9.682  10.345   3.958  1.8313  0.0731  0.7207
  682MOL0     H92020   9.703  10.474   3.853 -0.6391 -3.9673 -0.7858
  682MOL0     H92021   9.410  10.301   4.069  0.4167 -0.1091 -0.3092
  682MOL0     H92022   9.151  10.248   3.954 -1.3929 -0.1731 -0.7551
  682MOL0     H92023   9.105  10.415   4.014  0.5206  1.4163 -0.2578
  682MOL0     H92024   9.120  10.320   3.730 -0.9079 -1.6945 -0.0203
  682MOL0     H92025   9.056  10.470   3.783 -0.6793  0.2527 -1.3873
  682MOL0     H92026   8.938  10.199   3.834 -1.0333 -0.7072 -1.4567
  682MOL0     H92027   8.882  10.323   3.719  1.6059  0.4941 -0.3743
  682MOL0     H92028   8.830  10.482   3.904  2.6536  1.3038  0.3434
  682MOL0     H92029   8.899  10.371   4.025  3.3117  1.7453 -0.9403
  682MOL0     H92030   8.655  10.487   4.097 -1.8557  2.5899  0.6771
  682MOL0     H92031   8.351  10.514   4.208 -0.8886  0.4321 -0.4788
  682MOL0     H92032   8.518  10.571   4.246 -1.5124 -0.5463  1.8459
  682MOL0     H92033   8.409  10.678   4.155 -1.5043 -0.3709 -0.8093
  682MOL0     H92034   8.006  10.367   3.715 -1.5052 -0.8672 -0.7828
  682MOL0     H92035   7.775  10.415   3.652 -0.3668 -0.0639 -0.4389
  682MOL0     H92036   7.541  10.464   3.601  2.9666  1.8111  0.0693
  682MOL0     H92037   7.548  10.457   3.776  1.1575  0.0814  0.6098
  682MOL0     H92038   7.315  10.477   3.677 -1.8251  1.6164 -2.8789
  682MOL0     H92039   7.364  10.625   3.779  1.3238 -0.2375  1.4388
  682MOL0     H92040   7.246  10.584   3.514  1.5402  0.5053 -2.3722
  682MOL0     H92041   7.403  10.627   3.479 -0.2465 -1.2844  0.2083
  682MOL0     H92042   7.237  10.806   3.656 -3.7386 -0.8637 -2.6154
  682MOL0     H92043   7.396  10.835   3.593  0.4351 -2.1458  1.8607
  682MOL0     H92044   7.153  10.788   3.412  0.0431  2.0189 -1.0477
  682MOL0     H92045   7.318  10.835   3.358  3.0050  2.4207  1.0259
  682MOL0     H92046   7.315  11.031   3.493 -0.1806 -0.6930  3.4439
  682MOL0     H92047   7.180  11.025   3.366 -3.2624 -1.2919  0.5821
  682MOL0     H92048   7.152  11.042   3.650  1.6321  1.4874  0.0987
  682MOL0     H92049   7.010  10.989   3.549 -0.4813  0.4052  2.3174
  682MOL0     H92050   7.129  11.268   3.515 -2.6664  2.3190 -3.5010
  682MOL0     H92051   6.997  11.215   3.609  1.3278 -0.4166  1.4516
  682MOL0     H92052   7.803  10.810   3.803  2.2325  0.5659 -0.8212
  682MOL0     H92053   8.032  10.783   3.831 -0.7332  0.6359  0.4775
  682MOL0     H92054   8.342  10.423   3.731  2.7420 -1.2115 -1.2265
  682MOL0     H92055   8.543  10.301   3.722  1.0753 -2.7636  1.7939
  682MOL0     H92056   9.974  11.349   4.391 -2.1399  0.0023  1.6411
  682MOL0     H92057  10.153  11.511   4.490  1.6155 -0.1297  0.3943
  682MOL0     H92058  10.631  11.506   4.870  0.4498  0.6764  0.4454
  682MOL0     H92059  10.750  11.676   5.009  0.1338  2.8147 -2.8393
  682MOL0     H92060  10.815  11.833   5.205  0.5903  1.5814  1.5648
  682MOL0     H92061  10.798  11.894   5.043 -0.5604  1.7146  0.2271
  682MOL0     H92062  10.886  12.062   5.187  0.9755 -0.6829  2.7074
  682MOL0     H92063  10.749  12.071   5.297 -0.1211  1.9845  0.4198
  682MOL0     H92064  10.599  12.102   5.091  1.3989 -2.2624 -0.9219
  682MOL0     H92065  10.744  12.116   4.992 -1.7912 -4.2397 -0.4487
  682MOL0     H92066  10.686  12.299   5.227 -0.3693 -2.6016 -0.9008
  682MOL0     H92067  10.628  12.339   5.067 -0.3812 -0.4723 -2.5640
  682MOL0     H92068  11.048  12.428   5.048 -0.8297  2.2862 -0.9706
  682MOL0     H92069  10.360  11.829   5.105  0.4867  1.5363 -1.3268
  682MOL0     H92070  10.260  11.698   4.929 -1.0298  0.6805  3.4590
  683MOL0     O92071   9.827   1.286   1.148 -0.9029 -0.6271 -0.1308
  683MOL0     C92072   9.732   1.297   1.081  0.7741  0.1427  0.7562
  683MOL0     O92073   9.730   1.306   0.943  0.1921 -0.2367  0.6814
  683MOL0     C92074   9.846   1.265   0.875  0.4465 -0.9404  0.3282
  683MOL0     C92075   9.932   1.361   0.809 -0.5202 -0.3034  0.5990
  683MOL0     C92076  10.044   1.309   0.747 -0.5848  1.0461 -0.1031
  683MOL0     C92077  10.085   1.176   0.757 -0.2301 -0.2748 -0.9143
  683MOL0     O92078  10.215   1.145   0.710  0.6914 -0.4342 -0.3547
  683MOL0     C92079  10.278   1.010   0.695  0.3477 -0.0599  0.3884
  683MOL0     C92080  10.351   0.971   0.819 -0.7383  0.0132  0.1131
  683MOL0     C92081  10.405   0.832   0.811 -0.0075 -0.1274 -0.5361
  683MOL0     C92082  10.508   0.817   0.910  0.2067 -0.5537  0.2563
  683MOL0     C92083  10.573   0.680   0.883 -0.4153  0.7623  0.7182
  683MOL0     C92084  10.631   0.631   1.013  0.3782 -0.5381  0.0270
  683MOL0     C92085  10.679   0.487   1.020 -0.1735 -0.1341  0.9868
  683MOL0     C92086  10.565   0.378   1.030 -0.0361  0.1665 -0.4644
  683MOL0     N92087  10.492   0.402   1.157 -0.1077  0.0918  0.2056
  683MOL0     C92088  10.359   0.450   1.156  0.1895  1.0993  0.0099
  683MOL0     C92089  10.318   0.417   1.278  1.4200 -0.1410  0.0100
  683MOL0     C92090  10.171   0.442   1.325 -0.7958  0.9879 -0.2085
  683MOL0     C92091  10.148   0.508   1.462 -0.0980 -0.4677 -0.1693
  683MOL0     C92092  10.015   0.585   1.470  0.0858 -0.9588 -0.4215
  683MOL0     C92093   9.977   0.647   1.609  0.0527 -0.2667 -0.2339
  683MOL0     O92094  10.052   0.765   1.644 -0.0936  0.2709 -0.5908
  683MOL0     C92095  10.009   0.845   1.747  0.5380 -0.6880 -1.0019
  683MOL0     C92096   9.908   0.812   1.840 -0.6172  0.6282  0.9141
  683MOL0     C92097   9.863   0.896   1.947 -0.7006  0.9939  0.3761
  683MOL0     C92098   9.743   0.856   2.022 -0.7240  0.4329  0.1410
  683MOL0     C92099   9.928   1.018   1.973 -1.5987  0.2907 -1.5213
  683MOL0     C92100   9.894   1.110   2.087  0.0628 -0.9142  0.5010
  683MOL0     O92101   9.987   1.204   2.119 -0.0599 -0.7148 -0.2744
  683MOL0     C92102   9.993   1.291   2.223 -0.8579  0.0128  0.4414
  683MOL0     C92103   9.894   1.327   2.314  0.3284  0.4867  0.1607
  683MOL0     C92104   9.917   1.410   2.430 -1.6547  0.4586 -0.2367
  683MOL0     C92105  10.046   1.451   2.454  1.3414  0.2704 -0.3415
  683MOL0     O92106  10.077   1.513   2.568  0.7045 -0.0812  0.3010
  683MOL0     C92107   9.973   1.585   2.639  0.2713  0.7583 -0.9921
  683MOL0     C92108  10.048   1.670   2.743  0.3282 -0.0082  0.2863
  683MOL0     C92109  10.045   1.606   2.890  0.1149 -0.6824  0.5032
  683MOL0     C92110  10.110   1.705   2.988 -0.0395  1.1775  0.5197
  683MOL0     C92111  10.134   1.633   3.125  0.5141 -0.2849 -0.0405
  683MOL0     C92112  10.212   1.716   3.228 -0.3935  0.0635  0.2964
  683MOL0     C92113  10.234   1.627   3.348 -0.0153  0.4078 -0.2766
  683MOL0     C92114  10.375   1.657   3.418  0.5956 -0.0725 -0.1163
  683MOL0    Cl92115  10.382   1.515   3.514 -0.0933  0.2143  0.0145
  683MOL0     C92116  10.147   1.418   2.365  0.3959  0.0552  0.4712
  683MOL0     C92117  10.123   1.339   2.250 -0.1612 -0.5707  0.4576
  683MOL0     O92118   9.797   1.078   2.152  0.4724 -0.1388 -0.2123
  683MOL0     C92119  10.044   1.041   1.900 -1.3694 -0.0526 -0.0139
  683MOL0     C92120  10.078   0.960   1.786  0.5672  0.2728  0.2311
  683MOL0     N92121  10.414   0.347   1.344 -0.8874 -0.0707 -0.0114
  683MOL0     N92122  10.524   0.338   1.271 -1.0500 -0.8166  0.5939
  683MOL0     C92123   9.999   1.086   0.816 -0.1821 -0.6596  0.4140
  683MOL0     C92124   9.883   1.136   0.887  0.3140 -0.0736  0.5032
  683MOL0     C92125   9.598   1.308   1.147 -0.2189  0.3073  0.0852
  683MOL0     C92126   9.477   1.271   1.084 -0.0364  0.1470 -0.6818
  683MOL0     C92127   9.359   1.290   1.146  0.2324  0.6528  0.2874
  683MOL0     C92128   9.350   1.333   1.277  0.4712  0.1040  0.4244
  683MOL0     O92129   9.221   1.340   1.327 -0.0443  0.3237 -0.7725
  683MOL0     C92130   9.205   1.416   1.449  0.4084  0.1868 -0.0925
  683MOL0     C92131   9.071   1.383   1.515  0.9275 -0.4463  0.5375
  683MOL0     C92132   9.064   1.233   1.559 -0.6427  0.0140  0.2554
  683MOL0     C92133   8.936   1.216   1.632  0.4665 -0.6667 -0.1113
  683MOL0     C92134   8.896   1.084   1.664  0.5712  0.1200 -0.4895
  683MOL0     C92135   8.840   0.975   1.684 -0.2327 -0.5677  0.2049
  683MOL0     C92136   9.463   1.375   1.343  0.8219 -0.7971  0.0272
  683MOL0     C92137   9.588   1.358   1.286 -0.3921 -0.8307  0.4853
  683MOL0     H92138   9.921   1.468   0.817  1.6362  0.2155 -1.9102
  683MOL0     H92139  10.115   1.378   0.701 -3.2289  2.0936 -2.9931
  683MOL0     H92140  10.209   0.939   0.648 -2.6596  3.0599 -0.2943
  683MOL0     H92141  10.343   1.032   0.610  1.6254  0.3115  1.4178
  683MOL0     H92142  10.426   1.051   0.824 -0.3541 -0.3733  0.7310
  683MOL0     H92143  10.272   0.968   0.894 -0.8686 -1.7497 -0.0474
  683MOL0     H92144  10.318   0.765   0.820  1.1074 -1.6974 -1.0015
  683MOL0     H92145  10.444   0.813   0.711  2.9916  1.9274  0.1038
  683MOL0     H92146  10.577   0.901   0.915  1.0442 -1.1960 -0.1786
  683MOL0     H92147  10.457   0.808   1.006 -0.3386 -0.9770 -0.0683
  683MOL0     H92148  10.497   0.610   0.846 -0.8170 -0.0949  3.0048
  683MOL0     H92149  10.658   0.695   0.817  0.5300 -1.4973  1.3458
  683MOL0     H92150  10.715   0.698   1.034 -1.0816  0.7242  2.2803
  683MOL0     H92151  10.566   0.657   1.097 -0.4426  3.6734 -1.6968
  683MOL0     H92152  10.752   0.471   0.941 -0.6248  1.3279  0.2335
  683MOL0     H92153  10.727   0.471   1.117 -1.3283  0.7165  1.7328
  683MOL0     H92154  10.614   0.280   1.019 -0.0342  0.2702 -1.4949
  683MOL0     H92155  10.498   0.396   0.945 -1.8248 -2.2716  0.3249
  683MOL0     H92156  10.295   0.491   1.079 -0.6052 -0.0029  0.0599
  683MOL0     H92157  10.123   0.503   1.247 -1.9014 -1.9624 -2.0126
  683MOL0     H92158  10.121   0.345   1.317 -1.4858  1.4543 -2.6452
  683MOL0     H92159  10.225   0.585   1.473 -1.9375  1.6567 -1.5189
  683MOL0     H92160  10.157   0.441   1.549 -0.2277  0.4006  0.5295
  683MOL0     H92161   9.930   0.520   1.445  0.0871 -2.2249  2.5015
  683MOL0     H92162  10.025   0.668   1.399  0.6950 -0.7533 -0.0938
  683MOL0     H92163   9.988   0.579   1.694 -0.6631  0.6562  0.6294
  683MOL0     H92164   9.872   0.675   1.606  0.3187  0.9428  0.5440
  683MOL0     H92165   9.861   0.715   1.831  0.3202  0.1080  1.4833
  683MOL0     H92166   9.770   0.851   2.127 -2.5428  0.5103  0.6569
  683MOL0     H92167   9.647   0.908   2.012 -1.4320 -1.1817 -2.6672
  683MOL0     H92168   9.736   0.750   1.995  3.2713  0.0005  0.2996
  683MOL0     H92169   9.795   1.294   2.284 -0.0381  0.1222  1.6461
  683MOL0     H92170   9.834   1.428   2.497 -0.8578  0.7718  0.6857
  683MOL0     H92171   9.920   1.647   2.566 -2.5346 -2.1022 -1.6111
  683MOL0     H92172   9.916   1.510   2.695  0.4221  1.8564  0.7035
  683MOL0     H92173  10.153   1.687   2.718  0.2367 -1.7291 -1.5153
  683MOL0     H92174   9.990   1.763   2.741  0.2244  0.0350  2.5550
  683MOL0     H92175  10.106   1.515   2.890  1.8800  0.3848 -1.3674
  683MOL0     H92176   9.943   1.573   2.912 -0.7774 -1.4218 -3.8839
  683MOL0     H92177  10.207   1.738   2.950  0.3729 -0.6951 -0.1765
  683MOL0     H92178  10.041   1.789   3.005  0.5095  1.9537 -0.8653
  683MOL0     H92179  10.187   1.539   3.112 -1.5826 -1.9255  2.2920
  683MOL0     H92180  10.036   1.620   3.172 -0.1489 -0.0509 -1.3124
  683MOL0     H92181  10.308   1.747   3.185  0.4994 -1.5397  1.0669
  683MOL0     H92182  10.162   1.810   3.255  2.2031  1.6586 -0.1199
  683MOL0     H92183  10.235   1.522   3.319 -3.2135  0.2300 -0.0672
  683MOL0     H92184  10.145   1.644   3.410 -1.6836  2.8908 -3.0343
  683MOL0     H92185  10.363   1.745   3.481  0.4703  0.1654 -0.4705
  683MOL0     H92186  10.449   1.660   3.338 -0.1868 -0.6544 -0.8819
  683MOL0     H92187  10.244   1.460   2.388  0.5433  0.7679 -1.3484
  683MOL0     H92188  10.203   1.321   2.179 -0.2216 -1.6246  0.6432
  683MOL0     H92189  10.103   1.131   1.914 -2.1583  0.6420 -0.9880
  683MOL0     H92190  10.172   0.991   1.741  0.3690 -0.2335 -0.5489
  683MOL0     H92191  10.027   0.981   0.811  2.9035  0.0620  0.7899
  683MOL0     H92192   9.819   1.076   0.950  1.3788 -3.9722 -1.7650
  683MOL0     H92193   9.459   1.242   0.981 -2.6595  1.9519 -0.8278
  683MOL0     H92194   9.271   1.252   1.093 -0.5053  2.5585  0.0714
  683MOL0     H92195   9.280   1.379   1.519 -0.4562  2.4582  2.1938
  683MOL0     H92196   9.206   1.525   1.434 -2.0462  0.4010  0.8517
  683MOL0     H92197   8.987   1.405   1.448 -0.1417 -0.3203  1.8831
  683MOL0     H92198   9.044   1.452   1.595 -0.3643 -0.2920 -0.0160
  683MOL0     H92199   9.155   1.214   1.618  2.0981  5.1849 -1.6478
  683MOL0     H92200   9.062   1.177   1.465  1.6112 -1.9941  1.2952
  683MOL0     H92201   8.853   1.259   1.575 -2.1372 -0.5887  3.4119
  683MOL0     H92202   8.936   1.265   1.730 -1.1109 -0.7667 -0.0431
  683MOL0     H92203   8.779   0.889   1.706  0.7316 -1.8817 -1.9074
  683MOL0     H92204   9.456   1.415   1.444 -0.7571 -0.5581 -0.1515
  683MOL0     H92205   9.677   1.393   1.337  0.1311 -1.1052 -0.2178
  684MOL0     O92206   3.392   0.953  10.362 -0.0188  0.3098 -0.5751
  684MOL0     C92207   3.403   1.073  10.380  0.6444 -0.7385  0.1710
  684MOL0     O92208   3.517   1.141  10.411 -0.3533  0.1229  0.5866
  684MOL0     C92209   3.647   1.085  10.394 -0.2741  0.4298  0.0240
  684MOL0     C92210   3.752   1.151  10.319  0.4743  0.3873 -0.1518
  684MOL0     C92211   3.871   1.093  10.309  0.6599 -0.1458  0.2670
  684MOL0     C92212   3.904   0.974  10.368  0.1404 -0.9569 -0.0625
  684MOL0     O92213   4.031   0.926  10.353 -1.2770  0.3966  0.4305
  684MOL0     C92214   4.097   0.867  10.466 -0.1022  0.5916  0.0130
  684MOL0     C92215   4.242   0.844  10.411 -0.5397 -0.5649  0.2664
  684MOL0     C92216   4.317   0.974  10.401  0.5511 -0.1477 -1.2576
  684MOL0     C92217   4.458   0.959  10.375  0.3815  0.4664  0.4037
  684MOL0     C92218   4.490   0.933  10.222  0.2094  0.2537 -0.2861
  684MOL0     C92219   4.630   0.884  10.198 -1.0521 -0.5636  0.4034
  684MOL0     C92220   4.754   0.972  10.237 -0.2145 -0.1402 -0.8107
  684MOL0     C92221   4.745   1.115  10.193  0.1360 -0.0910 -1.5899
  684MOL0     N92222   4.803   1.211  10.289 -0.5428  0.1614  0.5097
  684MOL0     C92223   4.931   1.197  10.331  0.3940  0.1997  0.4714
  684MOL0     C92224   4.948   1.316  10.393  0.2113 -0.6914  0.6587
  684MOL0     C92225   5.063   1.373  10.458 -0.8002  0.1062 -0.0906
  684MOL0     C92226   5.121   1.282  10.567 -0.3974  0.1907  1.0880
  684MOL0     C92227   5.029   1.261  10.684  0.1499 -0.7118 -1.2948
  684MOL0     C92228   4.976   1.386  10.757  0.0774  1.2844 -0.7956
  684MOL0     O92229   4.914   1.331  10.876  0.4696 -0.1605  0.0550
  684MOL0     C92230   4.795   1.380  10.933 -0.4539  0.0652 -0.2984
  684MOL0     C92231   4.750   1.514  10.919  0.3557  0.1408  0.8399
  684MOL0     C92232   4.625   1.557  10.970 -0.3746 -0.1009 -0.1164
  684MOL0     C92233   4.577   1.692  10.929  1.1490  0.5249  0.6125
  684MOL0     C92234   4.551   1.465  11.051 -0.7191  0.0977  0.6659
  684MOL0     C92235   4.421   1.508  11.110 -0.0286 -1.3583  0.4184
  684MOL0     O92236   4.319   1.415  11.079  0.5184 -0.1066 -0.0321
  684MOL0     C92237   4.192   1.444  11.118  0.3320  0.2114 -0.1795
  684MOL0     C92238   4.106   1.335  11.150 -0.7966  0.7524  0.5083
  684MOL0     C92239   3.963   1.365  11.174  0.1382  0.3291 -0.2628
  684MOL0     C92240   3.914   1.494  11.176  0.0758  0.1942  0.0919
  684MOL0     O92241   3.780   1.507  11.184 -0.2198 -0.0242  0.2381
  684MOL0     C92242   3.736   1.629  11.251  0.4980 -0.5457 -0.3021
  684MOL0     C92243   3.589   1.605  11.293 -0.3240 -0.8660 -0.0913
  684MOL0     C92244   3.518   1.748  11.302 -0.2184  0.0538  0.2643
  684MOL0     C92245   3.367   1.713  11.302  0.7699 -1.0293 -0.1501
  684MOL0     C92246   3.287   1.838  11.301 -0.5086 -0.5249 -0.1511
  684MOL0     C92247   3.141   1.796  11.304  1.4688 -0.0401 -0.9008
  684MOL0     C92248   3.038   1.910  11.306  0.1646 -1.3321  0.0472
  684MOL0     C92249   2.892   1.865  11.300  0.0501 -0.0731 -0.1824
  684MOL0    Cl92250   2.843   1.845  11.132  0.5880 -0.4720  0.3884
  684MOL0     C92251   4.001   1.599  11.148 -0.8782  0.6368 -1.0280
  684MOL0     C92252   4.135   1.573  11.121  1.0160 -0.5489  0.3010
  684MOL0     O92253   4.420   1.601  11.188 -1.4366 -0.4189 -0.4506
  684MOL0     C92254   4.601   1.335  11.065 -1.0806 -0.5095 -1.1509
  684MOL0     C92255   4.723   1.290  11.012  0.6697  0.2431  0.5927
  684MOL0     N92256   4.824   1.376  10.415  0.3556  0.0958 -0.1549
  684MOL0     N92257   4.737   1.319  10.336 -1.1134 -0.4798 -0.5496
  684MOL0     C92258   3.808   0.904  10.440 -0.5160  0.0302  0.0477
  684MOL0     C92259   3.681   0.955  10.449 -0.1121 -0.8027 -0.0338
  684MOL0     C92260   3.277   1.158  10.383 -0.3445  0.5086  0.5139
  684MOL0     C92261   3.272   1.269  10.464  0.8006  0.1907  0.1875
  684MOL0     C92262   3.162   1.358  10.454 -0.9752  0.3408  0.5247
  684MOL0     C92263   3.052   1.332  10.365 -0.8832  0.6065  0.1023
  684MOL0     O92264   2.934   1.397  10.364 -1.3573 -0.3276  0.1695
  684MOL0     C92265   2.926   1.487  10.471 -0.4849  0.5533  0.4350
  684MOL0     C92266   2.786   1.524  10.506  0.9059 -0.7704 -0.2202
  684MOL0     C92267   2.714   1.576  10.384  0.3120 -0.0467  0.6391
  684MOL0     C92268   2.567   1.601  10.414  0.7182  1.0699  0.3553
  684MOL0     C92269   2.541   1.734  10.471  0.3532 -0.1995  0.5359
  684MOL0     C92270   2.525   1.857  10.498 -0.3625  0.9970 -0.3310
  684MOL0     C92271   3.055   1.209  10.297 -0.1635 -0.0151 -0.3322
  684MOL0     C92272   3.174   1.132  10.294  0.3261 -0.0160 -1.0455
  684MOL0     H92273   3.727   1.244  10.268  3.8860  1.3145 -0.4142
  684MOL0     H92274   3.950   1.135  10.248  1.2585  3.4308  3.1818
  684MOL0     H92275   4.097   0.925  10.558  2.4110 -0.7005  0.9262
  684MOL0     H92276   4.056   0.767  10.484 -1.0279  0.9757  0.1104
  684MOL0     H92277   4.294   0.782  10.485  0.2777  0.9996  1.0610
  684MOL0     H92278   4.239   0.789  10.317  0.3506 -0.0266 -0.0927
  684MOL0     H92279   4.265   1.026  10.320 -3.9800 -0.9570  0.8455
  684MOL0     H92280   4.313   1.040  10.488 -1.1264  1.0575 -2.1857
  684MOL0     H92281   4.514   1.051  10.390  1.1662  0.1251 -0.3417
  684MOL0     H92282   4.504   0.874  10.427  0.4694 -2.2326 -3.6132
  684MOL0     H92283   4.418   0.855  10.194 -0.6243  1.0421 -0.3836
  684MOL0     H92284   4.462   1.019  10.160 -3.1508 -1.0169 -0.7187
  684MOL0     H92285   4.645   0.787  10.247 -0.3422 -0.4254  0.4708
  684MOL0     H92286   4.652   0.872  10.092  1.2023 -1.6104  0.9207
  684MOL0     H92287   4.743   0.973  10.346 -3.1836  0.7490 -1.0291
  684MOL0     H92288   4.847   0.931  10.196  0.2349  1.7159 -1.7369
  684MOL0     H92289   4.642   1.148  10.177  0.7143  0.4861 -4.5985
  684MOL0     H92290   4.796   1.115  10.096 -0.3531  0.1585 -1.8496
  684MOL0     H92291   5.010   1.123  10.318  0.0463 -0.4855  1.9841
  684MOL0     H92292   5.138   1.397  10.382 -2.1017 -0.7303 -1.7180
  684MOL0     H92293   5.034   1.463  10.513 -2.0026 -0.8612  0.9272
  684MOL0     H92294   5.210   1.328  10.610  1.1599 -1.7527  0.1222
  684MOL0     H92295   5.143   1.187  10.516 -0.4959  1.2709 -1.0698
  684MOL0     H92296   5.084   1.200  10.757 -0.6660 -2.1598 -1.8571
  684MOL0     H92297   4.944   1.198  10.657 -0.2554 -0.4979 -0.5271
  684MOL0     H92298   4.908   1.449  10.700  0.8826  3.8441  0.8841
  684MOL0     H92299   5.063   1.441  10.795 -0.5283  2.1512 -0.6329
  684MOL0     H92300   4.805   1.591  10.866 -0.3878  0.5759  0.6902
  684MOL0     H92301   4.644   1.778  10.917 -1.2598  2.3309 -0.8369
  684MOL0     H92302   4.508   1.687  10.844  1.9883  1.5739 -0.1710
  684MOL0     H92303   4.510   1.735  11.004  0.2255 -0.4940  0.3892
  684MOL0     H92304   4.138   1.234  11.173 -0.8629 -0.2812 -3.3032
  684MOL0     H92305   3.883   1.292  11.177  1.1908 -0.8792 -0.7289
  684MOL0     H92306   3.801   1.659  11.333  1.6084 -1.3228 -0.8660
  684MOL0     H92307   3.740   1.714  11.182  0.4867  0.3686  0.8046
  684MOL0     H92308   3.542   1.550  11.211  0.3091 -2.1246  0.3491
  684MOL0     H92309   3.586   1.548  11.387  0.5580  1.9477  1.7518
  684MOL0     H92310   3.548   1.818  11.224  0.5140 -0.2656  0.2499
  684MOL0     H92311   3.551   1.782  11.401 -0.2827 -1.9758  1.0400
  684MOL0     H92312   3.333   1.651  11.219  0.3743 -1.5922  0.4190
  684MOL0     H92313   3.344   1.658  11.394  0.0940 -0.2692  0.1423
  684MOL0     H92314   3.308   1.886  11.205 -1.7838 -3.8003 -2.2467
  684MOL0     H92315   3.304   1.914  11.377  4.6779 -0.0229 -1.4480
  684MOL0     H92316   3.122   1.757  11.203  4.2165  0.8548 -1.8533
  684MOL0     H92317   3.121   1.731  11.389 -0.2925 -0.3686 -1.5206
  684MOL0     H92318   3.055   1.990  11.234 -1.1422 -0.3149  0.8242
  684MOL0     H92319   3.049   1.963  11.401 -0.8451  2.4373 -1.7700
  684MOL0     H92320   2.824   1.939  11.344  2.4870  0.4297  3.2277
  684MOL0     H92321   2.877   1.771  11.353  1.3452 -2.4641 -3.7213
  684MOL0     H92322   3.974   1.704  11.139 -2.6614  0.3815  0.8126
  684MOL0     H92323   4.180   1.668  11.094 -1.0552  0.0767 -1.2120
  684MOL0     H92324   4.531   1.265  11.108 -1.5010 -0.5323 -1.8689
  684MOL0     H92325   4.762   1.189  11.007  1.0515  0.4110  0.0417
  684MOL0     H92326   3.830   0.806  10.480 -2.8033 -0.8438 -0.6592
  684MOL0     H92327   3.596   0.911  10.500  1.2689  0.7061  3.9039
  684MOL0     H92328   3.353   1.290  10.533  1.1994  0.3941 -0.3367
  684MOL0     H92329   3.168   1.445  10.519 -3.2789 -0.5084  1.9867
  684MOL0     H92330   2.983   1.452  10.558  1.7457 -2.3693 -1.9885
  684MOL0     H92331   2.986   1.573  10.441  0.8521  0.0725  1.6229
  684MOL0     H92332   2.799   1.608  10.576 -1.0398  0.3276 -1.1053
  684MOL0     H92333   2.726   1.444  10.551  1.0516  0.8880  3.2432
  684MOL0     H92334   2.726   1.508  10.299 -3.6764 -1.5335  1.0434
  684MOL0     H92335   2.749   1.672  10.345  2.3268 -0.9124  0.2149
  684MOL0     H92336   2.519   1.516  10.464 -0.7371  1.9557  0.5011
  684MOL0     H92337   2.514   1.592  10.319  0.4493 -2.7265  0.6811
  684MOL0     H92338   2.527   1.961  10.525 -2.3246  0.8109  0.7603
  684MOL0     H92339   2.970   1.182  10.234 -0.4161  0.8327 -0.3621
  684MOL0     H92340   3.173   1.042  10.234 -2.8223 -0.4559 -0.5250
  685MOL0     O92341   7.808   1.537   1.046 -0.5808 -0.1516  0.0018
  685MOL0     C92342   7.807   1.605   1.148  0.8431  0.2046 -0.2100
  685MOL0     O92343   7.824   1.560   1.275  0.6601 -0.2556 -1.0005
  685MOL0     C92344   7.841   1.423   1.288 -0.0957  0.4620 -0.3315
  685MOL0     C92345   7.729   1.347   1.327  0.5330 -0.3678 -0.3452
  685MOL0     C92346   7.746   1.211   1.345 -0.0731 -0.3246 -0.0865
  685MOL0     C92347   7.869   1.147   1.341  0.9988 -0.1398  0.2837
  685MOL0     O92348   7.881   1.012   1.369  0.0952  0.0097  0.1303
  685MOL0     C92349   7.927   0.998   1.503  0.0386 -0.3365 -0.2288
  685MOL0     C92350   7.939   0.855   1.543 -0.6313  0.3236 -1.1291
  685MOL0     C92351   7.811   0.774   1.555 -0.1016  0.6543 -0.7075
  685MOL0     C92352   7.826   0.638   1.623 -0.2694  1.0884  0.8640
  685MOL0     C92353   7.701   0.572   1.649 -0.3143  0.7878  0.7410
  685MOL0     C92354   7.715   0.435   1.708 -0.3236  0.3233  0.4187
  685MOL0     C92355   7.795   0.340   1.617 -0.2650  0.2582 -0.2259
  685MOL0     C92356   7.793   0.197   1.662 -0.8071 -0.2896 -0.4164
  685MOL0     N92357   7.907   0.133   1.593  0.3917  0.8545 -0.4419
  685MOL0     C92358   7.910   0.106   1.456 -0.4204  0.3824  0.1377
  685MOL0     C92359   8.036   0.044   1.432 -0.3144  0.4971  0.1225
  685MOL0     C92360   8.106   0.022   1.303 -0.1132 -0.5694 -0.4323
  685MOL0     C92361   8.107  -0.112   1.239  0.5678 -0.8010 -0.3224
  685MOL0     C92362   8.179  -0.216   1.320 -0.2486 -1.0141 -0.4888
  685MOL0     C92363   8.215  -0.353   1.274 -0.2053  1.0074  0.3940
  685MOL0     O92364   8.089  -0.407   1.224  0.4592  0.0556 -0.5290
  685MOL0     C92365   8.082  -0.538   1.171  0.1536  0.1499  0.0998
  685MOL0     C92366   7.950  -0.580   1.137 -0.5516 -0.9204 -0.3578
  685MOL0     C92367   7.924  -0.711   1.087 -0.2322  0.2949  0.0600
  685MOL0     C92368   7.790  -0.732   1.032 -0.0029  0.9583 -0.1865
  685MOL0     C92369   8.025  -0.803   1.093 -0.2039  0.1991 -0.1876
  685MOL0     C92370   8.012  -0.944   1.057  0.1323  0.2495 -0.4715
  685MOL0     O92371   7.897  -1.009   1.098 -0.1234 -0.4788  0.2533
  685MOL0     C92372   7.885  -1.125   1.028 -0.6424  0.6818 -0.9878
  685MOL0     C92373   7.951  -1.238   1.075  0.3093  0.3155 -0.4166
  685MOL0     C92374   7.929  -1.366   1.019  0.5916 -0.6281  0.0022
  685MOL0     C92375   7.837  -1.365   0.910 -0.4191  0.4599  0.6198
  685MOL0     O92376   7.814  -1.484   0.844  0.3728  0.0999  0.1220
  685MOL0     C92377   7.920  -1.580   0.810 -0.3152  0.4920 -0.2219
  685MOL0     C92378   7.856  -1.706   0.727 -0.6429 -0.6289 -0.0339
  685MOL0     C92379   7.779  -1.813   0.820 -0.2955 -1.0160 -0.0117
  685MOL0     C92380   7.833  -1.838   0.961 -1.0382 -0.2460  0.0612
  685MOL0     C92381   7.750  -1.931   1.045 -0.0045 -1.0753  0.3170
  685MOL0     C92382   7.815  -1.950   1.177  0.1529 -0.5340  0.2795
  685MOL0     C92383   7.711  -2.033   1.266 -0.3599 -0.2470 -0.5266
  685MOL0     C92384   7.744  -2.026   1.418  0.0504 -0.2554  0.1447
  685MOL0    Cl92385   7.634  -2.122   1.517 -0.1155 -0.2793  0.1462
  685MOL0     C92386   7.772  -1.254   0.856  0.8081 -0.1416  0.5298
  685MOL0     C92387   7.798  -1.137   0.924  0.9609  1.0691 -0.0623
  685MOL0     O92388   8.105  -0.995   0.994  0.2174  0.4981 -1.4094
  685MOL0     C92389   8.156  -0.762   1.133  0.3756 -0.3323  0.4627
  685MOL0     C92390   8.189  -0.629   1.163  0.2097  0.1115  0.8788
  685MOL0     N92391   8.082   0.011   1.559  0.6067  0.1447  0.2396
  685MOL0     N92392   8.007   0.069   1.648 -0.1313 -0.3299 -0.0522
  685MOL0     C92393   7.982   1.227   1.302  0.3340  0.4642 -0.2494
  685MOL0     C92394   7.965   1.358   1.271 -0.3029 -0.9041 -0.4857
  685MOL0     C92395   7.759   1.743   1.140 -0.0589 -0.4228 -0.1343
  685MOL0     C92396   7.757   1.811   1.259 -0.3400  0.1559  0.3174
  685MOL0     C92397   7.687   1.935   1.275 -0.7254  0.1964 -0.4804
  685MOL0     C92398   7.632   1.998   1.168 -0.6584 -0.9100  0.6568
  685MOL0     O92399   7.573   2.119   1.186 -0.3099  0.6275  0.1913
  685MOL0     C92400   7.508   2.186   1.084 -1.3836  0.5066  0.6607
  685MOL0     C92401   7.430   2.297   1.132 -0.3180  0.2513  1.0071
  685MOL0     C92402   7.508   2.416   1.198  0.1959 -0.3080 -0.4576
  685MOL0     C92403   7.560   2.522   1.096  0.2615  0.5504  0.4769
  685MOL0     C92404   7.446   2.585   1.017  1.5385 -0.2535 -0.1017
  685MOL0     C92405   7.350   2.637   0.973 -0.0307 -0.0851  0.3598
  685MOL0     C92406   7.647   1.932   1.049  0.5680  0.4725 -0.1664
  685MOL0     C92407   7.707   1.808   1.035  0.0037 -0.2771  0.1142
  685MOL0     H92408   7.634   1.394   1.350  1.0338  0.4222  0.1793
  685MOL0     H92409   7.655   1.154   1.357  0.7490 -1.5727  0.3475
  685MOL0     H92410   8.021   1.053   1.516 -1.8893  2.8789  1.6428
  685MOL0     H92411   7.862   1.042   1.580  4.2967 -1.0949  4.3563
  685MOL0     H92412   7.992   0.801   1.464 -0.7650 -3.5788  1.1768
  685MOL0     H92413   8.004   0.842   1.629  0.3670 -0.4836 -1.9741
  685MOL0     H92414   7.739   0.834   1.612 -0.7241 -1.6400  1.0740
  685MOL0     H92415   7.766   0.749   1.459  2.4712 -4.1787 -0.9390
  685MOL0     H92416   7.885   0.577   1.554 -1.6957 -1.0836  1.4729
  685MOL0     H92417   7.893   0.641   1.709  2.4861 -1.4053 -1.0008
  685MOL0     H92418   7.639   0.633   1.715 -0.1202 -0.2971  1.9630
  685MOL0     H92419   7.645   0.568   1.555  0.3154  2.5649  0.2459
  685MOL0     H92420   7.755   0.431   1.810 -1.4624 -0.3546  0.8630
  685MOL0     H92421   7.617   0.388   1.720  1.4774 -3.6262  1.0360
  685MOL0     H92422   7.752   0.351   1.516 -0.0121  3.0850 -0.0971
  685MOL0     H92423   7.894   0.385   1.614 -1.3670  2.8337 -1.5391
  685MOL0     H92424   7.694   0.153   1.648 -0.0011 -1.8037 -1.6154
  685MOL0     H92425   7.811   0.183   1.769 -1.5251 -0.2077 -0.2757
  685MOL0     H92426   7.848   0.155   1.382 -0.2723 -0.6900 -0.7225
  685MOL0     H92427   8.054   0.084   1.230  1.0843 -2.4207 -3.0217
  685MOL0     H92428   8.209   0.058   1.317 -0.6731  1.6098 -1.4754
  685MOL0     H92429   8.161  -0.101   1.145  1.1175  1.7969  0.2177
  685MOL0     H92430   8.003  -0.138   1.218  0.2473  0.0261  0.1929
  685MOL0     H92431   8.106  -0.229   1.401  1.5038  0.0080  1.3479
  685MOL0     H92432   8.267  -0.174   1.370 -1.8503  0.5619  1.1762
  685MOL0     H92433   8.228  -0.424   1.356 -0.2343  1.9236  1.2020
  685MOL0     H92434   8.294  -0.373   1.201 -1.4612 -0.4870 -0.6565
  685MOL0     H92435   7.874  -0.505   1.117  2.3424  1.8097 -2.0656
  685MOL0     H92436   7.796  -0.710   0.925 -2.1556 -0.0144 -0.5646
  685MOL0     H92437   7.752  -0.835   1.037  0.5368  0.8035  0.8550
  685MOL0     H92438   7.715  -0.663   1.072  2.0093  1.9517  2.0775
  685MOL0     H92439   8.010  -1.230   1.166 -0.9348  0.2862  0.4254
  685MOL0     H92440   7.960  -1.460   1.064  2.2516 -0.4556 -0.7247
  685MOL0     H92441   7.985  -1.528   0.739  0.7369 -1.6717 -0.9202
  685MOL0     H92442   7.980  -1.615   0.894  2.4692 -0.0112 -2.2784
  685MOL0     H92443   7.789  -1.658   0.655 -2.9423 -1.9624  1.0865
  685MOL0     H92444   7.947  -1.751   0.686  0.5721 -2.9393  4.4998
  685MOL0     H92445   7.777  -1.901   0.754  0.1608 -0.0548 -1.3585
  685MOL0     H92446   7.674  -1.786   0.833 -0.7277 -2.3585 -0.5698
  685MOL0     H92447   7.937  -1.869   0.949 -0.6301  0.4663  1.5675
  685MOL0     H92448   7.853  -1.741   1.009  3.5165  0.2160 -2.1852
  685MOL0     H92449   7.736  -2.029   0.997 -0.2388 -0.7028 -0.3982
  685MOL0     H92450   7.652  -1.888   1.067 -1.2086 -2.1335 -2.5128
  685MOL0     H92451   7.906  -2.010   1.186  1.5221  1.4139  0.0196
  685MOL0     H92452   7.835  -1.852   1.221  0.0154  0.3694 -1.5855
  685MOL0     H92453   7.733  -2.137   1.239  2.8588  1.1055 -3.9580
  685MOL0     H92454   7.609  -2.004   1.242 -0.2540  0.1796 -0.4785
  685MOL0     H92455   7.731  -1.921   1.448  1.9079 -0.3846  1.5847
  685MOL0     H92456   7.841  -2.062   1.452 -0.1489 -1.0731 -0.1349
  685MOL0     H92457   7.714  -1.265   0.765  2.3831 -2.0789 -0.3113
  685MOL0     H92458   7.751  -1.042   0.899 -0.1567  0.4453 -0.4170
  685MOL0     H92459   8.228  -0.840   1.157  0.4478  0.4845  3.3388
  685MOL0     H92460   8.290  -0.609   1.195  0.7151 -1.7003  0.5587
  685MOL0     H92461   8.076   1.173   1.301 -0.3162 -0.7603  1.2808
  685MOL0     H92462   8.042   1.420   1.227 -0.0388 -0.4433  0.6052
  685MOL0     H92463   7.786   1.764   1.353 -2.6771  2.1284  2.1346
  685MOL0     H92464   7.683   1.988   1.370  0.4582  2.0182 -1.3763
  685MOL0     H92465   7.564   2.226   1.000 -0.3113 -0.0067  1.1166
  685MOL0     H92466   7.437   2.115   1.042 -2.3874 -1.0064  4.4884
  685MOL0     H92467   7.365   2.263   1.213 -1.4742  3.9189  1.8036
  685MOL0     H92468   7.373   2.340   1.049  3.4391  0.4325 -1.7058
  685MOL0     H92469   7.606   2.386   1.237  0.0914  1.1533  1.0242
  685MOL0     H92470   7.449   2.476   1.267 -2.5689 -1.2451 -1.8433
  685MOL0     H92471   7.631   2.470   1.030  1.4079 -1.0290  2.7976
  685MOL0     H92472   7.612   2.602   1.150 -1.0696  0.2336  2.3320
  685MOL0     H92473   7.280   2.706   0.931  1.4285  1.8391  0.9641
  685MOL0     H92474   7.608   1.987   0.964 -3.2521  1.5777  2.0382
  685MOL0     H92475   7.700   1.763   0.936  0.3530  0.0318 -0.0517
  686MOL0     O92476   6.514   7.729   7.213  0.0338 -0.6466  0.2603
  686MOL0     C92477   6.608   7.707   7.289 -0.2626  0.2264 -0.4826
  686MOL0     O92478   6.644   7.782   7.400 -0.3042  0.3437  0.5658
  686MOL0     C92479   6.542   7.864   7.449 -0.9185 -0.0728 -0.4207
  686MOL0     C92480   6.415   7.814   7.484 -0.4405  0.5864 -0.9437
  686MOL0     C92481   6.314   7.880   7.545 -0.6466 -0.4561  0.0635
  686MOL0     C92482   6.340   8.013   7.577  0.1821  0.6786 -0.5509
  686MOL0     O92483   6.258   8.101   7.636  0.1017 -0.0326 -0.1450
  686MOL0     C92484   6.125   8.065   7.663 -0.2547  0.0970 -0.6869
  686MOL0     C92485   6.063   8.176   7.726  0.0289  0.1073 -0.6216
  686MOL0     C92486   5.918   8.147   7.756  1.1192 -0.3160  0.2392
  686MOL0     C92487   5.857   8.259   7.858 -0.0497  1.0112  0.3600
  686MOL0     C92488   5.730   8.207   7.912 -0.3104 -0.4563 -0.2598
  686MOL0     C92489   5.637   8.323   7.952  0.0004 -0.6858  0.8033
  686MOL0     C92490   5.660   8.383   8.092  0.3623 -0.3518 -0.3532
  686MOL0     C92491   5.785   8.472   8.109  1.1085  0.2946 -0.3646
  686MOL0     N92492   5.796   8.551   8.234 -0.0003  0.3808 -0.3189
  686MOL0     C92493   5.713   8.644   8.288  0.1906  0.0122 -0.4067
  686MOL0     C92494   5.775   8.678   8.407  0.3621 -0.3877  0.8324
  686MOL0     C92495   5.736   8.789   8.496 -0.2733  0.6580 -0.9763
  686MOL0     C92496   5.585   8.815   8.487 -0.0761 -0.0006 -0.1357
  686MOL0     C92497   5.542   8.928   8.575 -0.4952 -0.2802 -0.1406
  686MOL0     C92498   5.595   8.920   8.726  0.1859  0.4410  0.4462
  686MOL0     O92499   5.604   8.776   8.770 -1.0253 -0.4107 -0.0560
  686MOL0     C92500   5.489   8.713   8.826 -0.3281 -0.1070 -0.2072
  686MOL0     C92501   5.378   8.776   8.885  0.2840 -0.1082 -0.4921
  686MOL0     C92502   5.269   8.711   8.946  0.0376  0.3969 -0.1976
  686MOL0     C92503   5.174   8.781   9.029 -0.0187  0.8228 -0.0445
  686MOL0     C92504   5.257   8.568   8.927 -0.7552 -0.3834  0.8911
  686MOL0     C92505   5.136   8.485   8.965  0.8046 -0.3730  1.4337
  686MOL0     O92506   5.130   8.367   8.887 -0.3267  0.1922 -0.3977
  686MOL0     C92507   5.043   8.273   8.929 -0.9823 -0.4406  0.0197
  686MOL0     C92508   4.936   8.223   8.854 -0.4664  1.0683 -1.0176
  686MOL0     C92509   4.854   8.130   8.911  0.5568 -1.1494 -0.9509
  686MOL0     C92510   4.870   8.078   9.041 -0.2787 -0.8803  0.3762
  686MOL0     O92511   4.800   7.977   9.097 -0.4722 -0.0063 -0.4351
  686MOL0     C92512   4.673   7.948   9.056  0.4573 -0.3736  0.0430
  686MOL0     C92513   4.574   8.053   9.109  0.6710 -0.3351  0.1358
  686MOL0     C92514   4.433   8.010   9.085  0.1648 -0.3223 -1.0592
  686MOL0     C92515   4.321   8.106   9.138 -0.3572 -0.0805  0.4082
  686MOL0     C92516   4.179   8.077   9.090 -0.3223  0.4603 -0.0612
  686MOL0     C92517   4.130   7.933   9.121  0.5537 -0.3317  0.2723
  686MOL0     C92518   3.985   7.931   9.152  0.0346  0.8352 -0.0612
  686MOL0     C92519   3.896   7.983   9.036 -0.0490  0.2495  0.3156
  686MOL0    Cl92520   3.890   7.858   8.894  0.6071 -0.2817 -0.4860
  686MOL0     C92521   4.976   8.120   9.108 -0.6448 -0.3952 -0.2897
  686MOL0     C92522   5.066   8.221   9.058  0.6734  0.4575 -0.4344
  686MOL0     O92523   5.064   8.519   9.062 -0.2717  0.4783 -0.3684
  686MOL0     C92524   5.368   8.505   8.874 -0.2928  0.6962 -0.2671
  686MOL0     C92525   5.479   8.571   8.831 -0.2505  0.2436  0.9141
  686MOL0     N92526   5.904   8.626   8.411 -0.0966 -0.0824 -0.4643
  686MOL0     N92527   5.910   8.540   8.309 -1.1358  0.0133 -0.7632
  686MOL0     C92528   6.478   8.068   7.562 -0.6186  0.8013  0.1669
  686MOL0     C92529   6.572   7.990   7.490 -0.2240 -0.0513  0.2617
  686MOL0     C92530   6.703   7.595   7.242  0.4458 -0.2306  0.0569
  686MOL0     C92531   6.712   7.550   7.105  0.1385  0.3239  0.8365
  686MOL0     C92532   6.782   7.435   7.073  0.0960 -0.3756 -0.4090
  686MOL0     C92533   6.860   7.373   7.171 -0.6559  0.8388 -0.2956
  686MOL0     O92534   6.931   7.259   7.132 -0.1689 -0.1921  0.3688
  686MOL0     C92535   7.053   7.221   7.208  0.0730 -0.1837  0.0015
  686MOL0     C92536   7.116   7.101   7.133 -0.5428 -0.1645  0.4031
  686MOL0     C92537   7.035   6.978   7.102 -0.3091  0.2521 -1.1119
  686MOL0     C92538   6.939   6.942   7.214  0.8137 -0.3334  0.5717
  686MOL0     C92539   7.010   6.886   7.325 -0.2393  0.2774  0.2800
  686MOL0     C92540   7.078   6.842   7.417  0.2434 -0.2011  0.3275
  686MOL0     C92541   6.857   7.417   7.295  0.5998 -0.3319  0.1713
  686MOL0     C92542   6.778   7.526   7.338  0.6199  0.1899 -0.0754
  686MOL0     H92543   6.404   7.707   7.474 -2.4002  0.9476 -3.8460
  686MOL0     H92544   6.223   7.832   7.581 -0.1069 -2.6108 -1.2146
  686MOL0     H92545   6.086   8.043   7.563  0.6699 -1.9919 -0.6625
  686MOL0     H92546   6.127   7.971   7.720  0.1558  1.0830  0.9803
  686MOL0     H92547   6.115   8.191   7.821 -0.5925  2.6964 -0.6157
  686MOL0     H92548   6.071   8.259   7.655 -0.4612 -1.6344 -2.8231
  686MOL0     H92549   5.868   8.148   7.658  2.4015 -0.0078 -0.4335
  686MOL0     H92550   5.908   8.042   7.783 -1.1523 -0.8883 -2.3265
  686MOL0     H92551   5.935   8.283   7.931  2.9354 -1.1210 -1.8793
  686MOL0     H92552   5.842   8.350   7.799  2.5441 -1.3226 -4.4313
  686MOL0     H92553   5.669   8.149   7.843 -2.0672  0.5509  0.3795
  686MOL0     H92554   5.756   8.139   7.993  2.0915 -1.1210 -1.4909
  686MOL0     H92555   5.644   8.411   7.887  1.6064 -0.1150  1.6855
  686MOL0     H92556   5.535   8.283   7.953  0.0019 -0.7160  3.1055
  686MOL0     H92557   5.571   8.443   8.116  0.2102  0.0854 -1.8989
  686MOL0     H92558   5.657   8.298   8.160 -0.5881 -2.3318 -2.7475
  686MOL0     H92559   5.786   8.539   8.022  0.6982  0.0930 -0.5287
  686MOL0     H92560   5.881   8.419   8.105  1.9140  1.7373 -0.8239
  686MOL0     H92561   5.624   8.690   8.247 -1.0616  1.1976  3.2716
  686MOL0     H92562   5.763   8.742   8.591  0.3591 -1.3869 -2.0983
  686MOL0     H92563   5.791   8.884   8.491 -0.2091  0.7088  0.2855
  686MOL0     H92564   5.530   8.728   8.526 -0.1762  0.5808  1.0642
  686MOL0     H92565   5.546   8.833   8.387  3.9340 -1.9770 -2.2781
  686MOL0     H92566   5.434   8.945   8.574 -0.3218  0.9708  0.3315
  686MOL0     H92567   5.595   9.015   8.533  2.2020 -2.4267 -1.4970
  686MOL0     H92568   5.531   8.976   8.795  1.1754 -1.4574  3.0828
  686MOL0     H92569   5.691   8.970   8.711 -1.0313  1.9485 -3.8214
  686MOL0     H92570   5.393   8.879   8.916  0.4029 -0.9445  2.6694
  686MOL0     H92571   5.082   8.781   8.971 -1.1911  1.0172  1.7295
  686MOL0     H92572   5.151   8.735   9.125 -0.3159  1.0279 -0.0151
  686MOL0     H92573   5.205   8.885   9.049 -1.9460  0.8321  3.9372
  686MOL0     H92574   4.928   8.246   8.748 -1.1044 -1.4945 -1.6035
  686MOL0     H92575   4.768   8.107   8.850  1.3024  0.6047 -2.7591
  686MOL0     H92576   4.666   7.944   8.947 -2.2944 -0.5405  0.1436
  686MOL0     H92577   4.643   7.847   9.086  2.0729 -0.4089  1.6644
  686MOL0     H92578   4.594   8.072   9.215 -0.8393 -1.6614  0.6959
  686MOL0     H92579   4.600   8.151   9.067  0.7012  0.0213  0.9762
  686MOL0     H92580   4.419   7.916   9.140  4.6643  0.2219  1.4602
  686MOL0     H92581   4.422   7.994   8.977 -1.4027 -1.5323 -0.7612
  686MOL0     H92582   4.329   8.100   9.247  0.2790  3.3085  0.6816
  686MOL0     H92583   4.342   8.213   9.128  1.1560 -0.1581  2.2557
  686MOL0     H92584   4.193   8.094   8.982 -1.0997 -0.5655 -0.3450
  686MOL0     H92585   4.106   8.148   9.130 -1.0284 -0.0323 -0.4363
  686MOL0     H92586   4.135   7.872   9.030  1.2558  1.5736 -1.0263
  686MOL0     H92587   4.191   7.901   9.205  1.6005  2.7218  0.8057
  686MOL0     H92588   3.968   7.993   9.240  1.3737  2.4979 -0.9186
  686MOL0     H92589   3.957   7.829   9.181 -1.3964  0.2970 -2.9778
  686MOL0     H92590   3.917   8.088   9.015 -2.8898  0.7412 -0.4485
  686MOL0     H92591   3.793   7.995   9.072 -0.4957  0.5297 -1.0274
  686MOL0     H92592   4.997   8.074   9.204  0.3036  0.7646  0.0818
  686MOL0     H92593   5.150   8.250   9.120  0.2150  2.0842 -0.5462
  686MOL0     H92594   5.368   8.397   8.871  2.5257  0.6569 -2.1126
  686MOL0     H92595   5.562   8.517   8.787 -0.1808  2.4290 -1.9612
  686MOL0     H92596   6.506   8.168   7.593  1.1574  1.0616 -2.0216
  686MOL0     H92597   6.665   8.044   7.479 -0.9278  0.9886 -0.9540
  686MOL0     H92598   6.649   7.598   7.031 -0.7680 -2.2348 -0.1699
  686MOL0     H92599   6.775   7.397   6.971 -1.6764  0.7021 -0.7200
  686MOL0     H92600   7.120   7.307   7.219  0.0076  0.2151 -2.2542
  686MOL0     H92601   7.024   7.193   7.310  0.0564  1.7993  0.5909
  686MOL0     H92602   7.200   7.064   7.191  0.7612 -0.8755 -1.7974
  686MOL0     H92603   7.160   7.129   7.037 -0.5947 -2.8614 -0.4969
  686MOL0     H92604   7.095   6.890   7.079 -0.3941 -0.2656  0.5519
  686MOL0     H92605   6.976   7.007   7.014 -2.7106 -1.5487 -0.2095
  686MOL0     H92606   6.859   6.877   7.178 -1.7560  0.4283  4.3402
  686MOL0     H92607   6.890   7.034   7.248  1.2655 -0.5363  1.8323
  686MOL0     H92608   7.146   6.794   7.484  0.6071 -2.7527 -1.7010
  686MOL0     H92609   6.915   7.372   7.375 -0.5829  0.1711  1.3730
  686MOL0     H92610   6.773   7.545   7.445 -0.6834  1.7593 -0.3777
  687MOL0     O92611  10.688   6.225   6.635 -0.0274 -1.0651  0.1151
  687MOL0     C92612  10.653   6.277   6.740  0.4169  0.6501  1.0619
  687MOL0     O92613  10.523   6.311   6.779  0.3866  0.5638 -0.9135
  687MOL0     C92614  10.419   6.293   6.693  0.0832 -0.7409  0.0093
  687MOL0     C92615  10.317   6.391   6.689 -0.8085  0.4191 -0.1207
  687MOL0     C92616  10.199   6.370   6.628  0.7438  0.6229 -0.9779
  687MOL0     C92617  10.171   6.252   6.563  0.9703  0.0217 -0.6916
  687MOL0     O92618  10.047   6.248   6.501  0.2824  0.1641  0.3148
  687MOL0     C92619  10.038   6.190   6.366  0.1036 -0.5130 -0.3630
  687MOL0     C92620   9.945   6.276   6.287  0.4593  0.2178  0.5240
  687MOL0     C92621   9.806   6.288   6.331 -0.0168 -0.8548  0.5394
  687MOL0     C92622   9.727   6.402   6.258 -0.0586 -0.6722 -1.2993
  687MOL0     C92623   9.578   6.411   6.296 -0.6942 -0.3388  0.2435
  687MOL0     C92624   9.476   6.436   6.177 -0.4263  0.7987 -0.6339
  687MOL0     C92625   9.337   6.431   6.235  0.5295 -0.3190 -0.2100
  687MOL0     C92626   9.251   6.556   6.194 -0.8025  0.1561  0.2664
  687MOL0     N92627   9.194   6.556   6.062  0.1861 -0.0084 -0.3747
  687MOL0     C92628   9.243   6.496   5.949 -0.6811  0.7306  0.5963
  687MOL0     C92629   9.160   6.529   5.854 -0.3760 -0.2393  0.3181
  687MOL0     C92630   9.160   6.494   5.705 -0.6756 -0.4922  0.3941
  687MOL0     C92631   9.103   6.351   5.687  0.7003  0.2919  0.2314
  687MOL0     C92632   8.989   6.336   5.572  0.3068 -0.0186  0.1425
  687MOL0     C92633   8.879   6.447   5.585 -0.6263  0.1289  1.1890
  687MOL0     O92634   8.763   6.406   5.520 -0.1426 -0.5652  0.1777
  687MOL0     C92635   8.679   6.311   5.564 -0.0579 -0.1830 -0.4671
  687MOL0     C92636   8.679   6.270   5.694 -0.1321 -0.2585  0.8292
  687MOL0     C92637   8.605   6.165   5.733 -0.3390 -0.3436 -0.7515
  687MOL0     C92638   8.646   6.116   5.875  0.3904  0.0948  0.5665
  687MOL0     C92639   8.503   6.111   5.655  0.4677 -0.5405 -0.5342
  687MOL0     C92640   8.411   6.001   5.709 -0.0759 -0.2436  0.1596
  687MOL0     O92641   8.353   5.931   5.608 -0.7648 -0.2402  0.0263
  687MOL0     C92642   8.296   5.810   5.640  0.6508 -1.1045  0.1632
  687MOL0     C92643   8.171   5.795   5.694 -0.2865  0.4481 -0.0954
  687MOL0     C92644   8.135   5.677   5.764 -0.4477 -0.0065 -0.4057
  687MOL0     C92645   8.207   5.549   5.735  0.6710 -0.1429  0.1665
  687MOL0     O92646   8.159   5.432   5.798 -0.0864 -0.0169 -0.0055
  687MOL0     C92647   8.248   5.360   5.880 -0.3618  0.0324 -0.4653
  687MOL0     C92648   8.224   5.219   5.833 -0.1610 -0.9549  0.3397
  687MOL0     C92649   8.285   5.182   5.700 -0.7798  0.0761 -0.2324
  687MOL0     C92650   8.301   5.030   5.686 -0.7728  0.2831  0.3067
  687MOL0     C92651   8.405   4.984   5.592  0.1912  0.0478  0.3163
  687MOL0     C92652   8.391   5.048   5.442 -0.6563  0.6657 -0.8160
  687MOL0     C92653   8.464   4.962   5.344  0.3625  0.2579  0.7169
  687MOL0     C92654   8.491   5.042   5.211  0.9935 -0.5780 -0.5950
  687MOL0    Cl92655   8.320   5.070   5.126  0.2359  0.3799  0.0448
  687MOL0     C92656   8.329   5.566   5.661 -0.9991 -1.5846  0.4063
  687MOL0     C92657   8.373   5.697   5.617 -0.3358 -0.1687 -0.1410
  687MOL0     O92658   8.383   5.993   5.829  0.2294 -1.1512 -0.0061
  687MOL0     C92659   8.489   6.164   5.522 -0.3504  0.9183  0.1677
  687MOL0     C92660   8.572   6.259   5.480 -1.3491 -0.5964 -0.4753
  687MOL0     N92661   9.067   6.625   5.904 -0.4511  0.8041 -0.3094
  687MOL0     N92662   9.089   6.629   6.029  0.5694 -0.2250 -0.2586
  687MOL0     C92663  10.263   6.154   6.561 -0.6869 -0.0370 -0.7876
  687MOL0     C92664  10.392   6.178   6.619  0.5375  0.1941  0.7222
  687MOL0     C92665  10.756   6.295   6.838 -0.7221 -0.8426 -0.0855
  687MOL0     C92666  10.889   6.253   6.806  0.5819 -0.6313  0.3934
  687MOL0     C92667  10.988   6.271   6.903  0.4020  0.1968 -0.0327
  687MOL0     C92668  10.962   6.299   7.038 -0.0914  0.2658 -1.0696
  687MOL0     O92669  11.070   6.308   7.123 -0.2430 -0.8288  0.1443
  687MOL0     C92670  11.098   6.438   7.185  0.1638  0.2371  0.5365
  687MOL0     C92671  11.163   6.413   7.321  0.0036  0.9011 -0.5229
  687MOL0     C92672  11.268   6.299   7.317 -0.5230 -0.0847 -0.0378
  687MOL0     C92673  11.358   6.281   7.449  0.5788 -0.1886 -0.6893
  687MOL0     C92674  11.447   6.394   7.480  0.2775  0.5783  0.5108
  687MOL0     C92675  11.514   6.492   7.497  0.2192  0.5683 -0.2223
  687MOL0     C92676  10.829   6.339   7.068 -1.4678 -0.0784 -0.3390
  687MOL0     C92677  10.724   6.329   6.977 -0.1655  1.4940  0.2072
  687MOL0     H92678  10.329   6.479   6.752  5.1652  0.4709 -0.7139
  687MOL0     H92679  10.118   6.438   6.655  0.7084 -0.3156  1.5771
  687MOL0     H92680  10.133   6.178   6.313 -0.5275 -2.3342 -1.1725
  687MOL0     H92681   9.983   6.096   6.376 -1.0082  0.0543 -0.9277
  687MOL0     H92682   9.991   6.372   6.265  0.6925 -0.3259 -1.5933
  687MOL0     H92683   9.936   6.238   6.184 -0.5318 -3.7417  1.8816
  687MOL0     H92684   9.760   6.189   6.318  0.8065 -1.2988  0.9731
  687MOL0     H92685   9.805   6.306   6.439 -0.9728 -3.0866  0.9642
  687MOL0     H92686   9.775   6.493   6.295  2.3110 -1.2881 -2.6741
  687MOL0     H92687   9.739   6.408   6.149 -1.0055 -1.0075 -1.4273
  687MOL0     H92688   9.546   6.330   6.363 -2.4271 -0.4720 -0.6908
  687MOL0     H92689   9.564   6.503   6.353  1.1552  2.6341 -3.6439
  687MOL0     H92690   9.507   6.528   6.127 -2.0989  1.4982 -0.4597
  687MOL0     H92691   9.480   6.353   6.105 -1.1684  1.2454 -1.2077
  687MOL0     H92692   9.281   6.340   6.216  0.3457 -0.4946  1.0741
  687MOL0     H92693   9.344   6.441   6.344  0.1155 -1.2245 -0.0999
  687MOL0     H92694   9.309   6.645   6.219  0.9955 -0.9941  0.3145
  687MOL0     H92695   9.165   6.567   6.261 -1.4451  0.3694 -0.5814
  687MOL0     H92696   9.337   6.444   5.932  0.1237  2.3316  0.0223
  687MOL0     H92697   9.087   6.567   5.669 -0.7667  0.8402  3.0699
  687MOL0     H92698   9.256   6.507   5.654 -0.1117 -5.6586 -0.3744
  687MOL0     H92699   9.063   6.325   5.785 -1.0730  1.7573 -0.0587
  687MOL0     H92700   9.187   6.285   5.662  0.6210 -0.8749  2.7343
  687MOL0     H92701   8.943   6.238   5.589 -1.6573  0.8988  0.4090
  687MOL0     H92702   9.025   6.345   5.470  2.4887  2.0291  0.9908
  687MOL0     H92703   8.920   6.539   5.542 -0.6961  1.7383  4.2670
  687MOL0     H92704   8.859   6.473   5.689 -1.4030  3.1125  0.3812
  687MOL0     H92705   8.739   6.303   5.779 -1.7549 -0.5277  2.1323
  687MOL0     H92706   8.634   6.007   5.883  0.2963  0.1528  1.2614
  687MOL0     H92707   8.748   6.138   5.907  0.9618  0.6573 -1.4520
  687MOL0     H92708   8.580   6.160   5.950  0.1553  4.6134 -1.9636
  687MOL0     H92709   8.100   5.877   5.700 -1.7284 -0.8288  1.2736
  687MOL0     H92710   8.058   5.673   5.840  0.9946 -0.5361  1.0735
  687MOL0     H92711   8.349   5.396   5.857 -0.7814  2.4800  1.1542
  687MOL0     H92712   8.224   5.370   5.986  1.6257  0.6197 -0.0179
  687MOL0     H92713   8.264   5.157   5.913 -0.4182  0.8404  1.9279
  687MOL0     H92714   8.115   5.205   5.828  0.0348 -2.1720 -2.5210
  687MOL0     H92715   8.379   5.235   5.684  0.3967 -2.3413 -2.1194
  687MOL0     H92716   8.215   5.215   5.622  0.9448  2.0919 -1.0020
  687MOL0     H92717   8.339   4.986   5.779 -0.4160  1.0530  0.5326
  687MOL0     H92718   8.210   4.971   5.670  1.0064 -2.9469  1.2181
  687MOL0     H92719   8.413   4.875   5.584 -0.6723 -0.0184  0.2838
  687MOL0     H92720   8.499   5.023   5.631 -1.0645  0.6821  2.9306
  687MOL0     H92721   8.285   5.046   5.415 -0.4184  0.4454 -1.7686
  687MOL0     H92722   8.410   5.156   5.436  0.7869  0.7824  2.9631
  687MOL0     H92723   8.395   4.879   5.328  1.2614 -0.2812 -0.5263
  687MOL0     H92724   8.560   4.926   5.382  0.3081 -0.7216 -0.0383
  687MOL0     H92725   8.554   4.981   5.146  0.3113 -0.4349 -1.4155
  687MOL0     H92726   8.530   5.140   5.240 -3.0735  0.7526  1.0978
  687MOL0     H92727   8.394   5.482   5.640 -0.5370 -1.0127 -0.5038
  687MOL0     H92728   8.472   5.718   5.579  0.0054  0.4811  1.0695
  687MOL0     H92729   8.411   6.123   5.459  0.7985  0.5851 -1.0758
  687MOL0     H92730   8.554   6.321   5.392 -3.2049 -0.7222 -0.2255
  687MOL0     H92731  10.232   6.066   6.506  3.0740 -1.4368 -0.9607
  687MOL0     H92732  10.471   6.103   6.617  0.5778  0.2116  1.2786
  687MOL0     H92733  10.926   6.222   6.709 -1.0711  0.4056 -0.6091
  687MOL0     H92734  11.095   6.271   6.882  0.5854  2.0744  0.6676
  687MOL0     H92735  11.157   6.504   7.120 -0.9013 -0.0441 -0.7583
  687MOL0     H92736  11.011   6.503   7.200  0.8937  1.4218 -0.1779
  687MOL0     H92737  11.086   6.390   7.395  0.5920 -3.0033 -0.8795
  687MOL0     H92738  11.217   6.503   7.351  3.9204 -0.6977 -2.0488
  687MOL0     H92739  11.337   6.328   7.238  2.7133 -1.7488  1.9734
  687MOL0     H92740  11.215   6.208   7.288 -1.3253  0.8864 -1.7841
  687MOL0     H92741  11.425   6.195   7.441  1.5010  0.6116 -2.1488
  687MOL0     H92742  11.288   6.270   7.532  2.9924 -1.9219  1.2463
  687MOL0     H92743  11.569   6.582   7.512 -2.4702  1.9775  2.1498
  687MOL0     H92744  10.801   6.373   7.167 -1.6171  2.4374 -1.1761
  687MOL0     H92745  10.623   6.353   7.006  0.1689  1.2407  1.6781
  688MOL0     O92746   6.035  11.356   6.198  0.5232 -0.5868  0.5856
  688MOL0     C92747   6.104  11.443   6.246  0.4167 -0.5735  0.0992
  688MOL0     O92748   6.052  11.555   6.305 -1.0828 -0.1595 -0.2723
  688MOL0     C92749   5.916  11.568   6.320 -0.4001 -0.9206  1.1350
  688MOL0     C92750   5.835  11.497   6.404  0.6222  0.4258 -0.5205
  688MOL0     C92751   5.694  11.531   6.414 -0.6882  0.8351  0.3037
  688MOL0     C92752   5.630  11.626   6.343 -0.2329  0.1788  0.1847
  688MOL0     O92753   5.490  11.628   6.357 -0.1302  0.2048 -0.3031
  688MOL0     C92754   5.420  11.694   6.238  0.1086  0.4607  0.7365
  688MOL0     C92755   5.278  11.693   6.280  0.1878  0.0237 -0.1158
  688MOL0     C92756   5.185  11.718   6.159  0.2119 -0.5405 -0.3945
  688MOL0     C92757   5.161  11.865   6.118 -0.7642  0.5158 -0.0193
  688MOL0     C92758   5.076  11.876   5.994  0.0065  0.5525 -1.3857
  688MOL0     C92759   5.016  12.019   5.977 -0.6072  0.8087 -0.0383
  688MOL0     C92760   4.940  12.038   5.851 -1.0430  0.1775 -0.6141
  688MOL0     C92761   4.822  11.937   5.847 -0.6411 -0.2869 -0.0128
  688MOL0     N92762   4.697  11.985   5.796 -0.4335  0.4022 -0.6509
  688MOL0     C92763   4.676  12.091   5.708  0.9652 -0.4178 -0.4906
  688MOL0     C92764   4.542  12.115   5.706  0.5470  0.1730  1.3741
  688MOL0     C92765   4.464  12.203   5.619  0.3116  0.0242 -0.2901
  688MOL0     C92766   4.539  12.327   5.572  0.0264 -0.1837 -0.3174
  688MOL0     C92767   4.610  12.413   5.681  1.0648  0.5179 -0.2675
  688MOL0     C92768   4.693  12.527   5.618 -0.2918  0.0128  0.1595
  688MOL0     O92769   4.822  12.479   5.577 -0.8371  0.0453  0.1185
  688MOL0     C92770   4.921  12.459   5.676 -0.3945 -0.5762  0.1049
  688MOL0     C92771   4.906  12.486   5.809 -0.1850  0.1465 -1.0270
  688MOL0     C92772   5.012  12.457   5.896 -0.0415 -0.2296  0.0672
  688MOL0     C92773   4.991  12.488   6.047  0.0174  0.5985  0.4112
  688MOL0     C92774   5.133  12.408   5.840 -0.7293  0.2754 -0.0049
  688MOL0     C92775   5.246  12.358   5.932  0.1390  0.7239  0.3228
  688MOL0     O92776   5.379  12.350   5.881 -0.7147 -0.1099 -0.4409
  688MOL0     C92777   5.462  12.272   5.960 -0.3320  1.2497  0.3301
  688MOL0     C92778   5.452  12.137   5.981  0.0312  0.9331 -0.4274
  688MOL0     C92779   5.554  12.070   6.052 -0.0503  0.9517 -0.4764
  688MOL0     C92780   5.659  12.141   6.111 -0.1958 -0.4298  0.0736
  688MOL0     O92781   5.760  12.082   6.180 -0.4660  0.1852  0.3558
  688MOL0     C92782   5.890  12.121   6.156 -0.8252 -0.3853  0.0879
  688MOL0     C92783   5.957  11.995   6.172  0.1204 -0.1467  0.9132
  688MOL0     C92784   6.108  12.018   6.145  0.5094 -0.4663 -0.3794
  688MOL0     C92785   6.193  11.888   6.149  0.1854  0.0429  0.6943
  688MOL0     C92786   6.350  11.920   6.175  0.5149 -0.3483  0.0365
  688MOL0     C92787   6.417  12.050   6.110  0.0597  0.6073  0.6183
  688MOL0     C92788   6.560  12.089   6.162  0.8226  0.5786 -0.3082
  688MOL0     C92789   6.629  12.211   6.094 -0.1071  0.3009 -0.2288
  688MOL0    Cl92790   6.799  12.247   6.144 -0.0268 -0.1499  0.2541
  688MOL0     C92791   5.660  12.276   6.090 -0.6014 -0.1263  0.0801
  688MOL0     C92792   5.570  12.337   6.012  0.1506  0.0456 -0.7335
  688MOL0     O92793   5.214  12.325   6.046  1.0099  0.3329 -0.4717
  688MOL0     C92794   5.151  12.405   5.704 -0.1812 -0.2557 -0.3359
  688MOL0     C92795   5.042  12.422   5.630 -0.1149  0.6015  1.2147
  688MOL0     N92796   4.484  12.011   5.781  0.4268  0.0233 -0.0393
  688MOL0     N92797   4.569  11.945   5.847 -0.1387  0.2429  0.2485
  688MOL0     C92798   5.719  11.694   6.256 -0.4449 -0.3318 -0.0117
  688MOL0     C92799   5.853  11.668   6.244  0.3284  0.1508  0.1339
  688MOL0     C92800   6.252  11.442   6.235  0.5979  0.0994  0.3463
  688MOL0     C92801   6.321  11.331   6.190 -0.4182  0.1324 -1.0257
  688MOL0     C92802   6.456  11.327   6.164  0.0068 -0.2144  0.2724
  688MOL0     C92803   6.532  11.442   6.196  0.9525  0.6444  0.1756
  688MOL0     O92804   6.670  11.456   6.194  0.5502 -0.2951  0.3198
  688MOL0     C92805   6.732  11.351   6.118 -0.9576  0.1560  1.2031
  688MOL0     C92806   6.882  11.389   6.093 -0.0758 -0.8365 -0.3088
  688MOL0     C92807   6.948  11.325   5.969  0.3835  0.1651 -0.0136
  688MOL0     C92808   6.967  11.173   5.965  1.0921  0.2416 -0.7388
  688MOL0     C92809   7.046  11.136   6.077 -0.3460  0.1589 -0.4322
  688MOL0     C92810   7.107  11.094   6.178  0.2155 -0.2385 -0.5011
  688MOL0     C92811   6.473  11.547   6.254 -0.1587 -0.2321 -1.0410
  688MOL0     C92812   6.333  11.550   6.267 -0.8962 -0.7942  0.5070
  688MOL0     H92813   5.878  11.421   6.469  1.8621  0.2075 -1.5530
  688MOL0     H92814   5.624  11.477   6.478 -0.5215 -2.2574 -1.8717
  688MOL0     H92815   5.462  11.795   6.227  0.8392  0.5536  3.5914
  688MOL0     H92816   5.439  11.624   6.157  1.2884  2.1588 -0.5375
  688MOL0     H92817   5.261  11.590   6.314  0.0320  0.4114  1.0139
  688MOL0     H92818   5.264  11.768   6.358  0.3268  0.8613 -0.8837
  688MOL0     H92819   5.217  11.655   6.076 -1.3105 -0.7129 -0.8828
  688MOL0     H92820   5.088  11.678   6.192 -0.2529  0.4403 -0.5451
  688MOL0     H92821   5.107  11.917   6.198  1.9618 -0.3054  2.5330
  688MOL0     H92822   5.257  11.915   6.103 -0.8367  1.0971  1.3071
  688MOL0     H92823   5.152  11.857   5.918  2.2607 -0.6909  0.9820
  688MOL0     H92824   5.004  11.794   5.989  0.8171 -0.2735 -0.2597
  688MOL0     H92825   4.947  12.030   6.062 -0.5796  1.8572 -0.1425
  688MOL0     H92826   5.099  12.088   5.996 -0.3753  0.1991  1.3514
  688MOL0     H92827   4.910  12.142   5.839 -1.1498  0.0756 -1.2748
  688MOL0     H92828   5.007  12.013   5.768  1.3497 -1.5032  1.6585
  688MOL0     H92829   4.809  11.899   5.949  0.9761  1.4691  0.9239
  688MOL0     H92830   4.851  11.850   5.788 -0.4760 -1.2644  1.4642
  688MOL0     H92831   4.747  12.139   5.640  2.3642 -1.3833  0.2364
  688MOL0     H92832   4.430  12.152   5.528 -3.5584  1.5331  0.1587
  688MOL0     H92833   4.374  12.234   5.672 -0.8746 -4.0484  0.3732
  688MOL0     H92834   4.469  12.392   5.517  0.8469  1.3326  0.3824
  688MOL0     H92835   4.610  12.296   5.495 -0.2431  0.5791 -0.8913
  688MOL0     H92836   4.681  12.352   5.738  1.6273 -0.8664 -2.3623
  688MOL0     H92837   4.524  12.454   5.735 -2.0508 -2.0319 -2.8532
  688MOL0     H92838   4.698  12.612   5.687  1.5306  0.7645 -0.8410
  688MOL0     H92839   4.643  12.563   5.527  1.0569  0.3075 -0.4866
  688MOL0     H92840   4.812  12.517   5.855  0.9682  0.5897  1.1266
  688MOL0     H92841   4.999  12.398   6.109 -0.9897 -0.0267 -0.3293
  688MOL0     H92842   5.067  12.560   6.078  1.6955  0.6573 -3.3753
  688MOL0     H92843   4.893  12.535   6.058  0.1535  1.1286 -0.5686
  688MOL0     H92844   5.369  12.079   5.941  1.1510 -1.4659  0.5339
  688MOL0     H92845   5.564  11.962   6.055  1.6731  1.0992  0.0944
  688MOL0     H92846   5.909  12.157   6.055  0.4855 -0.3909  0.3184
  688MOL0     H92847   5.925  12.200   6.223  1.6264 -1.1277 -0.2467
  688MOL0     H92848   5.927  11.961   6.272  0.3743 -0.1586  0.9861
  688MOL0     H92849   5.915  11.920   6.104  1.3386  0.2415 -0.3222
  688MOL0     H92850   6.142  12.103   6.205  1.3412 -0.4589 -0.8466
  688MOL0     H92851   6.119  12.051   6.042  2.3277 -2.0910 -0.7584
  688MOL0     H92852   6.164  11.816   6.226  0.5552 -2.0322 -1.0321
  688MOL0     H92853   6.173  11.843   6.052 -1.6291  0.7359  0.7089
  688MOL0     H92854   6.414  11.835   6.151  1.7497  0.9390 -1.4275
  688MOL0     H92855   6.343  11.939   6.283 -1.8476 -2.3201  0.3373
  688MOL0     H92856   6.432  12.028   6.003  3.3002  0.4462  0.9937
  688MOL0     H92857   6.352  12.137   6.118 -0.4079  0.2436  0.8473
  688MOL0     H92858   6.615  11.994   6.158 -1.4863 -1.0289  2.2808
  688MOL0     H92859   6.550  12.112   6.269  4.8468  2.4358 -0.1446
  688MOL0     H92860   6.572  12.304   6.097 -0.5701  0.0507 -0.9100
  688MOL0     H92861   6.644  12.194   5.987  2.9786  0.2837  0.1366
  688MOL0     H92862   5.733  12.338   6.142  0.3255 -2.5650  1.8901
  688MOL0     H92863   5.581  12.443   5.991  2.3958  0.1031  0.3458
  688MOL0     H92864   5.251  12.385   5.665  0.7634 -3.0519  2.9300
  688MOL0     H92865   5.046  12.423   5.521  1.5607  2.4196  1.2399
  688MOL0     H92866   5.681  11.772   6.191 -0.9818 -0.9729 -0.4850
  688MOL0     H92867   5.920  11.720   6.176 -0.6893  0.5797 -0.5604
  688MOL0     H92868   6.254  11.247   6.174 -3.7807  2.6295 -0.9922
  688MOL0     H92869   6.501  11.234   6.131  0.0254 -0.5096  1.0958
  688MOL0     H92870   6.731  11.252   6.163  1.5932  0.1329  1.3127
  688MOL0     H92871   6.688  11.334   6.019 -0.4719 -1.2843  1.2168
  688MOL0     H92872   6.942  11.353   6.177 -0.1271 -3.5120 -1.3078
  688MOL0     H92873   6.892  11.497   6.088 -2.7970 -0.5087 -0.2709
  688MOL0     H92874   7.052  11.357   5.958  0.1028  0.3724 -2.4502
  688MOL0     H92875   6.891  11.353   5.880  0.0968  0.2648  0.2005
  688MOL0     H92876   7.018  11.153   5.870 -1.2457 -0.3082 -1.9733
  688MOL0     H92877   6.869  11.127   5.980  0.8718  1.6344  3.0150
  688MOL0     H92878   7.159  11.054   6.263  0.6186  0.5404 -0.3726
  688MOL0     H92879   6.529  11.637   6.276  2.6095 -0.3150 -6.1429
  688MOL0     H92880   6.298  11.648   6.299 -0.7103 -0.6364  0.2278
  689MOL0     O92881   6.275   9.061  11.192  0.1098  0.1216 -0.5441
  689MOL0     C92882   6.217   9.160  11.243  0.6800  1.5995  0.3894
  689MOL0     O92883   6.257   9.285  11.231  0.0939  0.0004 -0.7014
  689MOL0     C92884   6.372   9.318  11.168 -0.3201 -0.1853 -0.5288
  689MOL0     C92885   6.461   9.395  11.239 -0.3570 -0.2543 -0.3698
  689MOL0     C92886   6.569   9.467  11.171  0.4602  0.6618  0.7573
  689MOL0     C92887   6.590   9.457  11.040  0.2709  0.4151  0.8036
  689MOL0     O92888   6.694   9.512  10.969  0.9825  0.1955 -0.5409
  689MOL0     C92889   6.739   9.427  10.860  0.3208 -0.2059 -0.1104
  689MOL0     C92890   6.887   9.430  10.837  0.1931 -0.7935 -0.5996
  689MOL0     C92891   6.962   9.369  10.953 -0.0344 -0.1943 -0.3827
  689MOL0     C92892   7.102   9.319  10.924 -0.8469  0.9080  0.6506
  689MOL0     C92893   7.185   9.305  11.048  0.0356 -0.0941 -0.3065
  689MOL0     C92894   7.339   9.296  11.023 -0.0351 -0.0500 -0.8533
  689MOL0     C92895   7.361   9.177  10.932  0.5144 -0.2709 -0.7590
  689MOL0     C92896   7.500   9.133  10.913 -0.3851  0.0967 -0.0754
  689MOL0     N92897   7.571   9.240  10.835 -0.4845 -0.1043  0.3425
  689MOL0     C92898   7.666   9.325  10.882 -0.9519  0.0436  0.2576
  689MOL0     C92899   7.740   9.363  10.770  0.5702 -0.7965  0.2009
  689MOL0     C92900   7.869   9.435  10.769  0.0657 -0.6092  0.2186
  689MOL0     C92901   7.857   9.581  10.808  0.2143  0.5823 -0.0822
  689MOL0     C92902   7.817   9.675  10.690  0.0830 -0.4171 -0.9533
  689MOL0     C92903   7.739   9.790  10.742  0.7415 -0.6149 -0.4235
  689MOL0     O92904   7.654   9.846  10.644 -0.5824  0.0088 -0.6578
  689MOL0     C92905   7.538   9.790  10.591 -0.2648 -0.3491 -0.0830
  689MOL0     C92906   7.469   9.683  10.644  0.3064 -0.2259 -0.4668
  689MOL0     C92907   7.347   9.640  10.594 -0.7655 -1.1073  1.1713
  689MOL0     C92908   7.298   9.515  10.653  0.1309 -0.0469 -0.0007
  689MOL0     C92909   7.288   9.704  10.482 -1.2759 -0.3543 -0.4589
  689MOL0     C92910   7.147   9.687  10.435 -0.3121  0.7975 -0.5146
  689MOL0     O92911   7.070   9.628  10.528 -0.1336  0.3936 -0.0503
  689MOL0     C92912   6.951   9.570  10.505  0.3273  0.5104 -0.9619
  689MOL0     C92913   6.834   9.625  10.566 -0.5202  0.5955 -0.5615
  689MOL0     C92914   6.709   9.567  10.536  0.0736  1.5078 -0.2072
  689MOL0     C92915   6.695   9.455  10.458 -0.3721 -0.2726  0.1538
  689MOL0     O92916   6.577   9.395  10.437  0.6013  1.2266 -0.8151
  689MOL0     C92917   6.574   9.325  10.310  0.2752 -1.0166  0.1346
  689MOL0     C92918   6.430   9.285  10.285 -0.1111 -0.0009 -0.0524
  689MOL0     C92919   6.404   9.223  10.146  0.4168  0.4574 -0.2348
  689MOL0     C92920   6.256   9.200  10.123 -1.1518 -0.0101 -0.9383
  689MOL0     C92921   6.213   9.164   9.985  0.0241 -0.0662  1.0799
  689MOL0     C92922   6.054   9.138   9.971 -1.1200  0.4820 -0.6343
  689MOL0     C92923   6.022   9.042   9.852  0.0990  0.0430  0.1278
  689MOL0     C92924   6.034   8.889   9.864 -0.4714  0.9544 -0.0302
  689MOL0    Cl92925   5.950   8.785   9.741  0.1288  0.0627  0.0144
  689MOL0     C92926   6.812   9.405  10.407 -0.8096  0.1278  0.4342
  689MOL0     C92927   6.938   9.462  10.425 -0.2752  0.2913  0.0967
  689MOL0     O92928   7.111   9.723  10.325  0.0770  0.2970  0.7154
  689MOL0     C92929   7.372   9.801  10.421  0.3310 -0.3940  0.0393
  689MOL0     C92930   7.493   9.851  10.473  0.6154  0.5859  0.0028
  689MOL0     N92931   7.691   9.303  10.662 -0.7517  0.5113 -0.1786
  689MOL0     N92932   7.597   9.229  10.702 -0.0016 -0.1199  0.2532
  689MOL0     C92933   6.493   9.375  10.968 -0.2444  0.1085 -0.0086
  689MOL0     C92934   6.386   9.311  11.035  0.9612  0.1031  0.2320
  689MOL0     C92935   6.091   9.146  11.313 -0.4560  0.2301 -0.1857
  689MOL0     C92936   6.041   9.253  11.399  0.0630 -0.8984 -0.1507
  689MOL0     C92937   5.916   9.248  11.453 -0.2164 -0.9474  0.2652
  689MOL0     C92938   5.840   9.127  11.429  0.5539 -0.4721  0.8809
  689MOL0     O92939   5.721   9.108  11.488 -0.3223  0.2188 -0.1829
  689MOL0     C92940   5.603   9.125  11.413 -0.6867  0.4298  0.4158
  689MOL0     C92941   5.509   9.207  11.500  0.1442 -1.1262 -0.4419
  689MOL0     C92942   5.416   9.293  11.409 -0.3219 -0.0727 -1.2966
  689MOL0     C92943   5.339   9.387  11.495  0.1287  0.4680  0.2263
  689MOL0     C92944   5.261   9.313  11.598  0.2708  0.0071 -0.0142
  689MOL0     C92945   5.214   9.242  11.684 -0.6348 -0.6404 -0.5725
  689MOL0     C92946   5.884   9.029  11.350 -0.4486  0.2456  1.2355
  689MOL0     C92947   6.012   9.034  11.288  0.3617  0.8094 -0.7282
  689MOL0     H92948   6.444   9.389  11.346 -0.8800 -4.0732 -0.5211
  689MOL0     H92949   6.639   9.533  11.221  3.0850 -0.3114 -1.4260
  689MOL0     H92950   6.724   9.318  10.864  0.7850 -0.2293  1.7862
  689MOL0     H92951   6.681   9.469  10.778 -1.5185  0.7548  1.5832
  689MOL0     H92952   6.900   9.377  10.742  1.3877 -2.4791  0.4565
  689MOL0     H92953   6.927   9.531  10.822 -0.3966 -0.0886  2.0561
  689MOL0     H92954   6.972   9.441  11.036  2.9134 -0.9663  0.0685
  689MOL0     H92955   6.916   9.277  10.990 -0.3411 -0.3904 -1.2495
  689MOL0     H92956   7.105   9.222  10.873  2.5743  0.8295  0.7880
  689MOL0     H92957   7.159   9.388  10.860 -1.0405 -1.4290 -2.2703
  689MOL0     H92958   7.165   9.403  11.091 -3.2518  0.5314 -2.8474
  689MOL0     H92959   7.149   9.233  11.122  1.7821 -0.4168  0.2935
  689MOL0     H92960   7.370   9.393  10.984 -2.7493  1.2296 -0.0710
  689MOL0     H92961   7.394   9.284  11.117  1.5397 -2.1572 -1.9543
  689MOL0     H92962   7.298   9.091  10.958  1.1430 -0.0421  1.8696
  689MOL0     H92963   7.314   9.199  10.836 -0.0452 -1.7692 -0.8602
  689MOL0     H92964   7.506   9.041  10.853  2.8327  0.3375 -0.3175
  689MOL0     H92965   7.559   9.114  11.003  1.3613 -0.8021 -1.3302
  689MOL0     H92966   7.698   9.342  10.984 -4.3350 -1.5011  1.7430
  689MOL0     H92967   7.935   9.400  10.849  2.1629 -0.3125 -1.3127
  689MOL0     H92968   7.910   9.409  10.671 -1.5374 -2.4295 -0.0465
  689MOL0     H92969   7.959   9.609  10.834  0.0226  2.0041 -0.7579
  689MOL0     H92970   7.788   9.589  10.892  0.9639 -0.3630  0.6467
  689MOL0     H92971   7.766   9.614  10.614 -2.3461 -1.2483  1.1763
  689MOL0     H92972   7.904   9.717  10.639  0.0546  0.4343 -0.3137
  689MOL0     H92973   7.808   9.867  10.777  0.3271  0.5016 -1.9938
  689MOL0     H92974   7.671   9.752  10.819 -1.7360  1.9263 -1.2091
  689MOL0     H92975   7.513   9.623  10.723  2.3648 -0.3846 -1.6597
  689MOL0     H92976   7.230   9.537  10.735 -1.3243  2.5103 -1.7431
  689MOL0     H92977   7.246   9.459  10.575  0.4571 -1.2674  0.6399
  689MOL0     H92978   7.380   9.454  10.692 -1.6466 -2.2152  0.5258
  689MOL0     H92979   6.848   9.696  10.648  0.6091 -0.2435 -0.0013
  689MOL0     H92980   6.618   9.596  10.588 -0.7397 -3.2543  1.5136
  689MOL0     H92981   6.607   9.394  10.232  0.6591  1.0726  2.0471
  689MOL0     H92982   6.625   9.228  10.310  0.0827 -1.1318  1.2726
  689MOL0     H92983   6.379   9.225  10.361 -3.2952 -0.1339 -2.0950
  689MOL0     H92984   6.372   9.377  10.278 -0.5464 -0.3249 -0.8689
  689MOL0     H92985   6.458   9.129  10.134  0.1090  0.4154 -1.4114
  689MOL0     H92986   6.447   9.284  10.066 -0.3555  0.9158 -0.3035
  689MOL0     H92987   6.235   9.115  10.188  0.6644  0.6760  0.6391
  689MOL0     H92988   6.201   9.282  10.172 -1.1730 -1.9521  2.6227
  689MOL0     H92989   6.266   9.074   9.953  0.5142 -0.5915  3.1702
  689MOL0     H92990   6.232   9.243   9.912 -1.6553  1.2147  1.9402
  689MOL0     H92991   6.031   9.096  10.069  2.9120  2.7216  1.5371
  689MOL0     H92992   6.001   9.234   9.970 -1.8922  0.0665 -0.3325
  689MOL0     H92993   6.084   9.075   9.768 -0.3905  1.6740  0.3572
  689MOL0     H92994   5.918   9.070   9.835  0.3521  0.6893 -0.4225
  689MOL0     H92995   5.989   8.862   9.960 -1.7343  0.4431 -0.7370
  689MOL0     H92996   6.141   8.871   9.870 -0.0308  2.6760 -1.7682
  689MOL0     H92997   6.823   9.318  10.342  3.8373 -0.3883  1.5322
  689MOL0     H92998   7.020   9.429  10.362 -0.1008 -0.6640  0.8077
  689MOL0     H92999   7.328   9.864  10.345  0.8771  1.5334  1.2558
  689MOL0     H93000   7.549   9.928  10.422 -0.5636 -0.1752 -2.6405
  689MOL0     H93001   6.503   9.357  10.861  0.8239 -1.0092  0.2616
  689MOL0     H93002   6.324   9.251  10.969 -0.4067  1.5570  0.1095
  689MOL0     H93003   6.107   9.337  11.416  0.3358 -1.1746  0.1729
  689MOL0     H93004   5.889   9.336  11.509  2.8409  0.2148  0.1167
  689MOL0     H93005   5.613   9.165  11.311 -1.0088 -1.2725 -0.3264
  689MOL0     H93006   5.560   9.026  11.394 -1.6367  0.7525  0.8208
  689MOL0     H93007   5.575   9.275  11.555  0.8958 -2.1280 -0.0823
  689MOL0     H93008   5.456   9.139  11.567  1.7991 -1.1193  0.9578
  689MOL0     H93009   5.341   9.226  11.367 -1.0517 -0.7041  0.9164
  689MOL0     H93010   5.464   9.352  11.330 -2.8428  1.9757 -1.4590
  689MOL0     H93011   5.265   9.449  11.443  2.0224  2.3124 -0.4299
  689MOL0     H93012   5.407   9.462  11.536  0.1072  0.4862  0.2286
  689MOL0     H93013   5.185   9.201  11.779 -1.8873 -0.5707 -0.9139
  689MOL0     H93014   5.812   8.952  11.325  0.4137 -0.7776  1.8386
  689MOL0     H93015   6.047   8.959  11.217 -0.7994  1.3198 -1.8925
  690MOL0     O93016   6.890  10.297   1.675  0.1808 -0.7980 -0.1829
  690MOL0     C93017   6.829  10.405   1.675  0.2666  0.2914  0.0667
  690MOL0     O93018   6.879  10.529   1.694 -0.1552  0.2838 -0.2889
  690MOL0     C93019   7.004  10.551   1.723 -0.3689 -0.2971 -0.0168
  690MOL0     C93020   7.110  10.523   1.622  0.3484 -0.0668 -0.3925
  690MOL0     C93021   7.238  10.531   1.656 -0.0511 -0.0380  0.3840
  690MOL0     C93022   7.276  10.581   1.779 -0.0509 -0.3644 -0.5838
  690MOL0     O93023   7.411  10.586   1.803 -0.2050 -0.3482 -0.0410
  690MOL0     C93024   7.457  10.717   1.832 -0.1925  0.2648 -0.5106
  690MOL0     C93025   7.609  10.726   1.834 -0.2091 -0.4710  0.1994
  690MOL0     C93026   7.658  10.871   1.812  0.8837 -0.3593 -0.3293
  690MOL0     C93027   7.699  10.944   1.945 -0.1632  0.8691 -0.2326
  690MOL0     C93028   7.780  11.067   1.925 -0.9787 -0.7466  0.1504
  690MOL0     C93029   7.844  11.128   2.046 -0.6711 -0.0792 -0.7589
  690MOL0     C93030   7.952  11.220   1.996 -0.1826 -0.7026  0.2410
  690MOL0     C93031   8.005  11.305   2.099 -0.2037 -0.1185 -0.8085
  690MOL0     N93032   8.098  11.417   2.066  0.5048  0.1579  0.6841
  690MOL0     C93033   8.060  11.530   1.994 -0.8765  0.5918  0.0250
  690MOL0     C93034   8.181  11.586   1.965 -0.5609 -0.2170 -0.2983
  690MOL0     C93035   8.203  11.723   1.903 -0.6766 -0.1277 -0.5870
  690MOL0     C93036   8.145  11.841   1.993  0.3696  1.1860  0.0651
  690MOL0     C93037   7.994  11.857   1.980 -0.3150 -0.2694 -0.3026
  690MOL0     C93038   7.932  11.902   2.109 -0.7156  0.3592  0.0311
  690MOL0     O93039   7.993  12.027   2.158 -0.8234  0.6002 -0.3390
  690MOL0     C93040   7.973  12.149   2.090 -0.5671  0.4101  0.0747
  690MOL0     C93041   8.051  12.256   2.120 -0.9515  0.6156  0.0990
  690MOL0     C93042   8.032  12.383   2.067  0.8162  0.5687 -0.1454
  690MOL0     C93043   8.106  12.495   2.135  0.6226  0.2383  0.1466
  690MOL0     C93044   7.923  12.404   1.980 -0.0339 -0.1417 -0.9864
  690MOL0     C93045   7.877  12.536   1.930 -0.7567 -0.5106 -0.5501
  690MOL0     O93046   7.776  12.535   1.833  0.1775  0.0600 -0.1142
  690MOL0     C93047   7.721  12.663   1.796 -0.0610 -1.1452  0.0157
  690MOL0     C93048   7.788  12.751   1.708  0.5267  0.1256  0.5232
  690MOL0     C93049   7.727  12.877   1.676  0.7956  0.0513  0.1328
  690MOL0     C93050   7.606  12.921   1.732  0.6735 -0.2262  0.5027
  690MOL0     O93051   7.550  13.045   1.711  0.4949 -0.7555  0.0026
  690MOL0     C93052   7.584  13.114   1.588  0.2432  0.8033  0.1498
  690MOL0     C93053   7.521  13.254   1.590  0.0026 -0.3755  0.1447
  690MOL0     C93054   7.371  13.263   1.622  0.2667 -0.4406  0.3666
  690MOL0     C93055   7.304  13.400   1.579 -0.0796 -0.4062  0.4966
  690MOL0     C93056   7.145  13.398   1.617 -0.2341 -0.9954  0.0203
  690MOL0     C93057   7.072  13.308   1.517  0.2666 -0.7448  0.4568
  690MOL0     C93058   6.916  13.310   1.522 -0.0509 -0.2241  0.6085
  690MOL0     C93059   6.844  13.378   1.394 -1.3295  0.5384 -0.1016
  690MOL0    Cl93060   6.684  13.298   1.384 -0.0561 -0.1512  0.5739
  690MOL0     C93061   7.546  12.830   1.825 -0.1578 -0.1760 -0.0182
  690MOL0     C93062   7.602  12.703   1.852  0.2555 -0.1316 -0.0680
  690MOL0     O93063   7.925  12.644   1.977  0.0592  0.4015 -0.6027
  690MOL0     C93064   7.865  12.288   1.930 -0.4074  0.8136  0.3328
  690MOL0     C93065   7.880  12.165   1.988  0.3802 -0.6020  0.0126
  690MOL0     N93066   8.287  11.503   2.015 -0.2796  1.3024 -0.6669
  690MOL0     N93067   8.231  11.401   2.073 -0.6547 -0.8575 -0.6106
  690MOL0     C93068   7.183  10.613   1.880 -0.0215 -0.2294  0.1452
  690MOL0     C93069   7.051  10.596   1.848  0.4080 -0.4781  0.2484
  690MOL0     C93070   6.680  10.387   1.651 -0.7171  0.1750 -0.6815
  690MOL0     C93071   6.599  10.502   1.668 -0.0985 -1.0102 -0.1784
  690MOL0     C93072   6.468  10.492   1.622 -0.6522 -0.5424  0.0533
  690MOL0     C93073   6.404  10.370   1.600 -0.8944 -0.0846  0.0568
  690MOL0     O93074   6.274  10.363   1.559  0.8474  0.1622 -0.2947
  690MOL0     C93075   6.165  10.415   1.648 -0.1385 -0.0459 -0.7595
  690MOL0     C93076   6.112  10.552   1.596 -0.0039 -0.0454 -0.3721
  690MOL0     C93077   5.970  10.581   1.648  1.1888  0.4511  0.1725
  690MOL0     C93078   5.900  10.706   1.576 -0.2039 -0.3527 -0.1241
  690MOL0     C93079   5.822  10.674   1.457 -0.0956 -1.0229 -0.0311
  690MOL0     C93080   5.774  10.668   1.351  0.2686  0.0372  0.0159
  690MOL0     C93081   6.484  10.261   1.591 -0.6756  0.8452 -0.8070
  690MOL0     C93082   6.620  10.262   1.621  0.7839 -0.1718 -0.2354
  690MOL0     H93083   7.079  10.496   1.522 -1.6520  1.1931 -0.1599
  690MOL0     H93084   7.306  10.499   1.578 -1.9058 -0.9306 -0.9544
  690MOL0     H93085   7.412  10.785   1.758 -0.7944  1.0664  0.5749
  690MOL0     H93086   7.420  10.746   1.930 -3.1380 -2.5210 -0.6283
  690MOL0     H93087   7.641  10.687   1.931 -1.0088  0.3547  0.7984
  690MOL0     H93088   7.644  10.659   1.753 -0.4707 -0.7002  0.2758
  690MOL0     H93089   7.753  10.859   1.759  1.9980 -0.4162  1.5961
  690MOL0     H93090   7.582  10.924   1.752 -0.2846  0.9530  2.1295
  690MOL0     H93091   7.624  10.961   2.023 -1.6033  0.5514 -1.5075
  690MOL0     H93092   7.770  10.879   1.997 -1.0995 -0.0878 -0.1336
  690MOL0     H93093   7.853  11.029   1.853  0.6374  0.2478  1.1759
  690MOL0     H93094   7.725  11.150   1.880 -1.1124 -1.4075 -0.9406
  690MOL0     H93095   7.768  11.187   2.099  0.2280 -0.5404  1.1195
  690MOL0     H93096   7.885  11.052   2.113  0.4327  0.0848 -1.2310
  690MOL0     H93097   8.033  11.161   1.951 -2.1079 -2.3506 -1.2106
  690MOL0     H93098   7.918  11.284   1.914  0.8095 -0.7787 -0.2494
  690MOL0     H93099   8.044  11.240   2.177 -5.3336  0.5977  2.9045
  690MOL0     H93100   7.932  11.369   2.149 -0.0591  0.9520 -1.9322
  690MOL0     H93101   7.960  11.557   1.961 -0.0654  0.3519 -2.9073
  690MOL0     H93102   8.312  11.729   1.897 -0.5502 -1.1798  0.3147
  690MOL0     H93103   8.152  11.714   1.807  0.1633  2.5371 -1.3849
  690MOL0     H93104   8.197  11.932   1.963  1.0252  0.6175 -0.5622
  690MOL0     H93105   8.164  11.821   2.099 -2.1332  0.0124  0.3514
  690MOL0     H93106   7.933  11.771   1.950 -0.9108  1.2433 -4.0345
  690MOL0     H93107   7.992  11.925   1.894  0.6114 -1.8589 -1.6263
  690MOL0     H93108   7.934  11.828   2.190 -1.6600 -0.4143 -0.6202
  690MOL0     H93109   7.826  11.921   2.088 -1.7835 -1.6496  2.9539
  690MOL0     H93110   8.136  12.238   2.185 -0.0473 -0.2549 -1.2560
  690MOL0     H93111   8.050  12.578   2.179  0.8545  0.3951  0.1489
  690MOL0     H93112   8.157  12.458   2.224  0.4861  0.2965  0.2488
  690MOL0     H93113   8.190  12.531   2.075  2.2092 -3.7327 -0.3533
  690MOL0     H93114   7.874  12.715   1.652 -0.1415  1.3387 -1.3718
  690MOL0     H93115   7.789  12.940   1.613 -2.9148  1.8170 -2.1113
  690MOL0     H93116   7.690  13.122   1.564 -0.1117 -0.5960 -2.2508
  690MOL0     H93117   7.539  13.059   1.505 -0.1683  0.6240  0.4836
  690MOL0     H93118   7.570  13.315   1.666 -0.2042 -0.5442  0.4170
  690MOL0     H93119   7.550  13.293   1.492  0.5325 -0.2175  0.3616
  690MOL0     H93120   7.353  13.260   1.730 -2.9392  2.2354  0.0964
  690MOL0     H93121   7.317  13.176   1.585  1.0164 -1.2383  1.1118
  690MOL0     H93122   7.357  13.470   1.644 -0.4540  0.0857  0.2686
  690MOL0     H93123   7.335  13.423   1.477  3.8122 -4.3436  0.4731
  690MOL0     H93124   7.117  13.502   1.599  1.0904 -0.8673 -1.5489
  690MOL0     H93125   7.129  13.377   1.724  3.8860  1.7171  1.3945
  690MOL0     H93126   7.105  13.350   1.421 -0.3745  0.5378  0.7708
  690MOL0     H93127   7.103  13.204   1.525 -2.9344 -1.7072  2.1015
  690MOL0     H93128   6.882  13.365   1.610 -0.2129  0.8233 -0.0896
  690MOL0     H93129   6.874  13.212   1.546 -0.2909  0.0364  1.2649
  690MOL0     H93130   6.904  13.346   1.308 -0.5326  0.8361  0.3299
  690MOL0     H93131   6.831  13.487   1.394 -2.2764  0.6214 -4.2880
  690MOL0     H93132   7.456  12.863   1.875 -0.0599  0.1151 -0.0345
  690MOL0     H93133   7.557  12.641   1.930 -2.8811  1.6309 -0.3390
  690MOL0     H93134   7.807  12.301   1.839  2.2485  1.1680 -1.4050
  690MOL0     H93135   7.825  12.086   1.937  0.5690  1.5827 -3.8984
  690MOL0     H93136   7.213  10.627   1.984 -0.4740  1.8604  0.0404
  690MOL0     H93137   6.977  10.617   1.925 -0.2629  0.8253 -0.7136
  690MOL0     H93138   6.657  10.592   1.688 -0.3801 -1.0634  1.0157
  690MOL0     H93139   6.398  10.574   1.608  0.1399  0.1424  0.0620
  690MOL0     H93140   6.081  10.345   1.659 -0.8297  1.1200  3.4076
  690MOL0     H93141   6.197  10.423   1.753 -1.5126  1.0629 -0.3829
  690MOL0     H93142   6.120  10.555   1.487  0.6822  0.6783 -0.3064
  690MOL0     H93143   6.169  10.636   1.637 -1.8800  1.3590 -0.5208
  690MOL0     H93144   5.968  10.585   1.758  2.2633 -2.1937  0.3647
  690MOL0     H93145   5.907  10.494   1.629 -1.2685  1.7414  1.8397
  690MOL0     H93146   5.968  10.788   1.553  2.1467 -2.0498  0.3161
  690MOL0     H93147   5.831  10.748   1.650 -1.7450 -2.1915 -0.4400
  690MOL0     H93148   5.751  10.668   1.246 -2.9849  1.6884  0.6040
  690MOL0     H93149   6.433  10.171   1.557 -1.4600  1.7060 -1.9795
  690MOL0     H93150   6.684  10.176   1.607  2.4106  0.1159  4.1149
  691MOL0     O93151   4.702   5.156   9.662 -0.3102  0.1299  0.1962
  691MOL0     C93152   4.648   5.115   9.762 -0.7226 -0.6523 -0.0843
  691MOL0     O93153   4.520   5.136   9.788 -0.3550 -0.5294 -0.5130
  691MOL0     C93154   4.431   5.202   9.710 -0.1806  1.0853  0.5748
  691MOL0     C93155   4.473   5.308   9.617  0.1133 -0.2400  0.5053
  691MOL0     C93156   4.370   5.358   9.533  0.0153 -0.4337 -0.1163
  691MOL0     C93157   4.242   5.304   9.532  0.1256 -0.2678 -0.8759
  691MOL0     O93158   4.175   5.352   9.419  0.4331  0.7363 -0.0588
  691MOL0     C93159   4.048   5.291   9.388  0.2796 -0.3601  0.6252
  691MOL0     C93160   3.936   5.361   9.452 -0.4908  0.1648  0.4658
  691MOL0     C93161   3.805   5.335   9.384 -0.2099  0.5970 -0.4500
  691MOL0     C93162   3.686   5.386   9.460  0.1708 -0.0134 -0.5891
  691MOL0     C93163   3.565   5.347   9.377  0.2689 -0.1659  1.3128
  691MOL0     C93164   3.431   5.391   9.433 -0.5469 -0.5692 -0.5562
  691MOL0     C93165   3.315   5.370   9.335  0.1373  0.3624  0.3635
  691MOL0     C93166   3.184   5.427   9.392  0.6395 -0.0128  0.5353
  691MOL0     N93167   3.069   5.398   9.304 -0.0112 -0.7417  0.0395
  691MOL0     C93168   3.045   5.481   9.197  0.1041  0.7293  0.8228
  691MOL0     C93169   2.923   5.452   9.158 -0.4048  1.2735  0.2086
  691MOL0     C93170   2.835   5.497   9.046  0.2534  0.5078  0.1507
  691MOL0     C93171   2.715   5.565   9.102 -0.4684 -0.1338  0.5597
  691MOL0     C93172   2.610   5.564   8.990 -1.0977 -1.0025  0.2941
  691MOL0     C93173   2.490   5.657   9.014  0.0652 -0.2731  0.1992
  691MOL0     O93174   2.366   5.588   8.995 -0.0863  0.2165 -0.5677
  691MOL0     C93175   2.261   5.668   8.962  0.3712  0.0836 -0.1110
  691MOL0     C93176   2.154   5.588   8.919 -0.1100  0.0031  0.9636
  691MOL0     C93177   2.041   5.650   8.865 -0.8782  0.0013  0.3266
  691MOL0     C93178   1.931   5.556   8.809  0.3589 -0.6358 -0.6808
  691MOL0     C93179   2.023   5.791   8.866 -0.5618 -0.8556  0.5826
  691MOL0     C93180   1.905   5.858   8.818 -0.5578  0.5655  0.2508
  691MOL0     O93181   1.916   5.992   8.810  0.0155 -0.2195 -0.7645
  691MOL0     C93182   1.807   6.058   8.769 -0.2513  0.2029 -0.5663
  691MOL0     C93183   1.767   6.168   8.843  1.3896  0.2747  0.9165
  691MOL0     C93184   1.656   6.247   8.802 -0.1374 -1.8157  0.1048
  691MOL0     C93185   1.581   6.211   8.687  0.5314  0.0364  0.8656
  691MOL0     O93186   1.471   6.279   8.646  0.3263 -0.4520  0.8355
  691MOL0     C93187   1.489   6.386   8.558 -1.3995 -0.2086 -0.3353
  691MOL0     C93188   1.342   6.432   8.526  0.3566 -0.4598  0.3234
  691MOL0     C93189   1.339   6.496   8.383  0.1836  0.2661 -0.0160
  691MOL0     C93190   1.192   6.519   8.340 -0.2550  0.0715 -0.7146
  691MOL0     C93191   1.182   6.660   8.276 -0.6229  0.0612 -0.2006
  691MOL0     C93192   1.039   6.671   8.219 -0.2531 -0.1305  0.0347
  691MOL0     C93193   1.042   6.792   8.124  0.1851  0.5351 -0.5856
  691MOL0     C93194   0.906   6.804   8.046 -0.5156  0.5741  0.2951
  691MOL0    Cl93195   0.765   6.819   8.157  0.7644 -0.1590 -0.0056
  691MOL0     C93196   1.620   6.104   8.612  0.1318  0.3290 -0.2601
  691MOL0     C93197   1.739   6.031   8.648 -0.3385 -0.3539  0.2611
  691MOL0     O93198   1.804   5.788   8.807  0.2791  0.0714  0.4476
  691MOL0     C93199   2.132   5.867   8.916  0.5875 -1.2955 -0.3617
  691MOL0     C93200   2.245   5.806   8.970 -0.4217 -0.2965  0.4610
  691MOL0     N93201   2.881   5.345   9.236  0.3971 -0.2111 -0.4836
  691MOL0     N93202   2.962   5.327   9.334 -0.5336  0.2320 -0.5059
  691MOL0     C93203   4.207   5.206   9.623  0.9972  0.4758 -0.0851
  691MOL0     C93204   4.300   5.156   9.717  0.0535 -0.2237  0.3887
  691MOL0     C93205   4.729   5.032   9.862 -1.0657 -0.0528  0.4271
  691MOL0     C93206   4.852   4.976   9.820  0.1846  0.0506 -0.5161
  691MOL0     C93207   4.912   4.897   9.914 -0.1403  0.2379 -0.4124
  691MOL0     C93208   4.869   4.876  10.043 -0.0850 -0.6437 -1.3756
  691MOL0     O93209   4.949   4.812  10.132  0.2559 -0.3892 -0.1587
  691MOL0     C93210   4.924   4.840  10.273 -0.0452  0.2369  0.0643
  691MOL0     C93211   5.021   4.786  10.356 -0.4682 -0.0520 -0.9070
  691MOL0     C93212   5.169   4.832  10.333  0.5518 -0.1844 -0.2260
  691MOL0     C93213   5.233   4.791  10.205 -0.7517  0.3440 -0.2191
  691MOL0     C93214   5.363   4.858  10.179 -0.5752 -0.2893  0.2242
  691MOL0     C93215   5.468   4.908  10.153 -0.5711 -0.1263 -0.5017
  691MOL0     C93216   4.749   4.924  10.078 -0.4970  0.3500 -0.5843
  691MOL0     C93217   4.673   5.004   9.991 -0.3334 -1.0610 -0.6397
  691MOL0     H93218   4.577   5.340   9.615  0.7902 -1.2080  5.8795
  691MOL0     H93219   4.397   5.428   9.454 -2.2128  1.2690  0.5279
  691MOL0     H93220   4.030   5.295   9.281 -2.5155 -1.2569  0.9934
  691MOL0     H93221   4.044   5.188   9.426  1.6714 -0.3257  0.9189
  691MOL0     H93222   3.931   5.330   9.557  0.0801 -2.7473 -0.2647
  691MOL0     H93223   3.948   5.470   9.448 -0.6171  0.1668  0.1586
  691MOL0     H93224   3.809   5.391   9.290 -3.6551  0.9260 -0.5292
  691MOL0     H93225   3.796   5.228   9.366  2.1033  0.7543 -3.1799
  691MOL0     H93226   3.680   5.334   9.556 -2.6267  0.0576 -0.6462
  691MOL0     H93227   3.697   5.493   9.480 -0.3258  0.0399 -0.6018
  691MOL0     H93228   3.577   5.398   9.281  2.3942 -1.3486  0.8939
  691MOL0     H93229   3.558   5.240   9.358 -1.2978  0.1267 -0.0473
  691MOL0     H93230   3.418   5.337   9.527  2.7411  0.9449  0.9339
  691MOL0     H93231   3.426   5.491   9.478 -4.2478 -0.2926 -1.2711
  691MOL0     H93232   3.335   5.429   9.245 -1.1681 -1.0041 -0.8833
  691MOL0     H93233   3.300   5.265   9.308 -1.7914  0.6593  0.1409
  691MOL0     H93234   3.195   5.536   9.390  0.6635 -0.0335 -1.3324
  691MOL0     H93235   3.177   5.396   9.497  0.7166  1.0542  0.8748
  691MOL0     H93236   3.104   5.567   9.168 -0.0367  2.8582  5.7806
  691MOL0     H93237   2.885   5.560   8.973 -2.0799 -0.2476 -2.2715
  691MOL0     H93238   2.809   5.411   8.983  1.8883 -0.0289  0.1692
  691MOL0     H93239   2.753   5.664   9.130 -1.1604  0.1692  0.4493
  691MOL0     H93240   2.678   5.515   9.192 -0.8848 -1.1735 -0.1691
  691MOL0     H93241   2.575   5.464   8.963 -0.4847 -0.4356 -2.9852
  691MOL0     H93242   2.663   5.602   8.902  0.1758  0.0134  1.4554
  691MOL0     H93243   2.491   5.727   8.930 -2.1870 -1.7881 -1.1985
  691MOL0     H93244   2.482   5.701   9.113 -0.3038 -1.3153  0.6437
  691MOL0     H93245   2.167   5.480   8.914  4.1532  0.3671 -0.2466
  691MOL0     H93246   1.897   5.602   8.716 -0.8104  1.5376  0.7411
  691MOL0     H93247   1.977   5.458   8.793 -0.8284 -1.3543  0.1797
  691MOL0     H93248   1.842   5.558   8.873  0.2140  1.5042 -0.8788
  691MOL0     H93249   1.819   6.194   8.934 -0.8647  2.7359  1.6139
  691MOL0     H93250   1.621   6.330   8.862  2.3340 -0.9766  0.4966
  691MOL0     H93251   1.538   6.472   8.605 -1.2791  0.4895 -1.6941
  691MOL0     H93252   1.547   6.349   8.473 -1.8609 -0.4443 -0.5498
  691MOL0     H93253   1.277   6.345   8.533 -1.2390  0.6729  0.2097
  691MOL0     H93254   1.309   6.509   8.596  0.1749 -0.1214 -0.1311
  691MOL0     H93255   1.373   6.428   8.304 -2.7930  0.5588 -1.7071
  691MOL0     H93256   1.388   6.594   8.380  2.6965 -0.8274 -4.1726
  691MOL0     H93257   1.149   6.443   8.274  0.4304 -1.6796  0.7678
  691MOL0     H93258   1.131   6.519   8.430  0.5625 -0.7619 -0.1382
  691MOL0     H93259   1.268   6.680   8.211  2.1977 -2.9740  2.2552
  691MOL0     H93260   1.181   6.741   8.349 -3.4163  3.2102 -3.3667
  691MOL0     H93261   1.018   6.572   8.177 -0.3948 -0.4422  0.8142
  691MOL0     H93262   0.966   6.692   8.298  0.9336  3.9283  0.2597
  691MOL0     H93263   1.119   6.771   8.050 -1.6347 -1.0359 -2.1469
  691MOL0     H93264   1.061   6.884   8.180  1.5538  0.3460 -0.6961
  691MOL0     H93265   0.880   6.721   7.981 -0.5401  2.4934 -2.3106
  691MOL0     H93266   0.914   6.900   7.994  2.2322 -0.7475 -1.9546
  691MOL0     H93267   1.553   6.086   8.529  0.6625  1.1838 -0.8924
  691MOL0     H93268   1.773   5.954   8.580  0.1233  0.6977 -0.7180
  691MOL0     H93269   2.141   5.975   8.922  3.3911 -1.4785  0.1436
  691MOL0     H93270   2.320   5.873   9.011 -0.1002  0.3443 -1.0945
  691MOL0     H93271   4.103   5.175   9.623  1.2157 -0.7178  3.5122
  691MOL0     H93272   4.282   5.076   9.788  1.6723 -1.7175 -0.8135
  691MOL0     H93273   4.891   4.991   9.720 -2.4091  0.6963 -1.5109
  691MOL0     H93274   5.006   4.846   9.896 -0.3819 -0.6371  0.6527
  691MOL0     H93275   4.912   4.947  10.293  3.5273  0.5896  1.0986
  691MOL0     H93276   4.841   4.780  10.311  1.2725  0.8209  4.4971
  691MOL0     H93277   5.039   4.679  10.347  2.0255  0.2462 -0.3173
  691MOL0     H93278   5.003   4.815  10.460 -0.9459  3.4002 -1.8371
  691MOL0     H93279   5.239   4.800  10.411  1.3855  1.5252 -0.2209
  691MOL0     H93280   5.173   4.941  10.338  3.0483 -0.2554  0.8644
  691MOL0     H93281   5.175   4.832  10.123  0.4826  3.4815  0.3437
  691MOL0     H93282   5.247   4.683  10.199 -0.6576  0.4619 -3.1393
  691MOL0     H93283   5.565   4.947  10.127  0.8639 -2.0919  1.5024
  691MOL0     H93284   4.706   4.888  10.171  0.3094 -0.4408 -0.5013
  691MOL0     H93285   4.578   5.041  10.028 -0.1161 -2.7115  1.7627
  692MOL0     O93286  10.901   7.418   0.718  0.2500  0.5833  0.3696
  692MOL0     C93287  10.869   7.441   0.834 -0.1290  0.4796  0.2193
  692MOL0     O93288  10.752   7.411   0.896  0.4769 -1.0201  0.0730
  692MOL0     C93289  10.654   7.332   0.838  0.2386 -0.7011  0.2736
  692MOL0     C93290  10.525   7.371   0.812 -0.4802  0.5577  0.6025
  692MOL0     C93291  10.432   7.286   0.751  0.1566  0.4116 -0.6777
  692MOL0     C93292  10.473   7.165   0.709 -0.6690  0.0961  0.5925
  692MOL0     O93293  10.372   7.094   0.652  0.0034  0.4842  0.7427
  692MOL0     C93294  10.403   6.977   0.575  0.3380 -0.4859 -0.5474
  692MOL0     C93295  10.289   6.929   0.484 -0.8678  0.0881 -0.2857
  692MOL0     C93296  10.153   6.913   0.548  0.3420  1.0968 -0.1429
  692MOL0     C93297  10.059   6.843   0.448 -0.4009 -0.1435  0.9446
  692MOL0     C93298   9.914   6.851   0.507  0.2613 -0.4629 -1.0107
  692MOL0     C93299   9.825   6.792   0.399 -0.5408 -0.8010 -0.0033
  692MOL0     C93300   9.682   6.781   0.441  0.1956 -0.9036 -0.9682
  692MOL0     C93301   9.589   6.742   0.331  0.3576 -0.5535  1.1015
  692MOL0     N93302   9.462   6.695   0.386  0.7669 -0.5936  0.0798
  692MOL0     C93303   9.445   6.583   0.461  0.0751 -0.1732  0.1243
  692MOL0     C93304   9.311   6.565   0.481  0.5323  0.4937 -0.2003
  692MOL0     C93305   9.234   6.455   0.552  0.1603 -0.3616 -0.3426
  692MOL0     C93306   9.278   6.439   0.698 -0.4354 -0.1992 -0.9645
  692MOL0     C93307   9.239   6.567   0.781 -0.8701  0.9880 -0.1189
  692MOL0     C93308   9.247   6.548   0.934 -0.1296 -0.2567 -0.5300
  692MOL0     O93309   9.349   6.477   0.996 -0.2103 -0.3338 -0.0926
  692MOL0     C93310   9.467   6.523   1.025  0.3778 -0.2177 -0.7675
  692MOL0     C93311   9.553   6.423   1.059 -0.1401 -1.0546 -0.0508
  692MOL0     C93312   9.685   6.452   1.101  0.0989 -0.4907 -0.7480
  692MOL0     C93313   9.774   6.340   1.147 -0.3810  0.4833 -0.1114
  692MOL0     C93314   9.726   6.588   1.101  0.4559  0.1610 -0.5046
  692MOL0     C93315   9.853   6.638   1.154 -0.7242 -0.3894  0.2092
  692MOL0     O93316   9.900   6.580   1.267  0.4074 -0.3595  0.4994
  692MOL0     C93317   9.993   6.641   1.349  0.4694  0.5892  0.2824
  692MOL0     C93318  10.087   6.740   1.318 -0.0756  1.2715 -0.8099
  692MOL0     C93319  10.184   6.776   1.416 -0.3146 -0.0774  0.0702
  692MOL0     C93320  10.163   6.740   1.549 -0.7941  0.0296 -0.6401
  692MOL0     O93321  10.243   6.802   1.643 -0.1021 -0.6153 -0.6465
  692MOL0     C93322  10.196   6.789   1.777  0.3717 -0.1455 -0.1436
  692MOL0     C93323  10.254   6.901   1.873  0.1925  0.6287  0.3015
  692MOL0     C93324  10.405   6.868   1.900 -0.3709 -0.3553 -0.6718
  692MOL0     C93325  10.454   6.970   2.000 -0.1546 -0.2378 -1.2611
  692MOL0     C93326  10.571   6.914   2.088  0.1919 -0.5830 -0.2948
  692MOL0     C93327  10.599   7.018   2.196  0.3875  0.1421 -0.7643
  692MOL0     C93328  10.731   6.975   2.264  0.0107 -0.6474 -0.2696
  692MOL0     C93329  10.750   7.025   2.407 -0.2184  0.7457  0.8264
  692MOL0    Cl93330  10.926   7.039   2.453  0.2640  0.1200  0.0205
  692MOL0     C93331  10.067   6.636   1.581 -0.0087  0.2766  0.0943
  692MOL0     C93332   9.988   6.592   1.480 -0.4811  0.0518 -0.0319
  692MOL0     O93333   9.920   6.703   1.080 -0.1042  0.4697  0.5788
  692MOL0     C93334   9.634   6.690   1.070  0.4083 -0.3934 -0.5785
  692MOL0     C93335   9.505   6.664   1.034  0.2469  0.3732  0.3097
  692MOL0     N93336   9.242   6.667   0.422 -0.0241 -0.0669  0.6178
  692MOL0     N93337   9.333   6.750   0.373  0.9343 -0.2321  0.2520
  692MOL0     C93338  10.606   7.119   0.739  0.4515  0.5617  0.5155
  692MOL0     C93339  10.696   7.203   0.805  0.3204  0.5445  0.5938
  692MOL0     C93340  10.963   7.524   0.921  0.4647 -0.3013  0.1887
  692MOL0     C93341  10.947   7.523   1.065 -0.8348 -0.1862 -1.0920
  692MOL0     C93342  11.038   7.597   1.147 -0.0637 -0.0784  0.6121
  692MOL0     C93343  11.142   7.672   1.088  0.1188  0.1491 -0.4016
  692MOL0     O93344  11.235   7.758   1.142 -0.0197 -0.1448 -0.0373
  692MOL0     C93345  11.265   7.742   1.283 -0.3401  0.1537  1.1013
  692MOL0     C93346  11.370   7.625   1.313  0.8440 -0.4018 -0.1674
  692MOL0     C93347  11.507   7.662   1.262  0.8910 -0.5231  0.8499
  692MOL0     C93348  11.599   7.544   1.221  0.2060  0.1818 -0.1815
  692MOL0     C93349  11.592   7.502   1.081  0.1912  0.0460  0.6730
  692MOL0     C93350  11.596   7.479   0.962  0.6898 -0.9167  1.4069
  692MOL0     C93351  11.157   7.652   0.950 -0.2629 -0.3731  0.3374
  692MOL0     C93352  11.074   7.579   0.862 -0.8398  0.3502  0.7514
  692MOL0     H93353  10.492   7.470   0.843  5.2453  2.4136  1.8691
  692MOL0     H93354  10.333   7.326   0.730  0.5969  1.5322 -0.6796
  692MOL0     H93355  10.487   6.986   0.506  0.2509 -6.2677 -1.8746
  692MOL0     H93356  10.428   6.906   0.654  0.1335  3.4552  3.4946
  692MOL0     H93357  10.283   6.997   0.399 -0.8196 -1.0792 -1.2521
  692MOL0     H93358  10.326   6.832   0.449  0.8376 -0.7765  3.3778
  692MOL0     H93359  10.174   6.858   0.640  3.1389  0.7437 -0.8847
  692MOL0     H93360  10.123   7.014   0.578  2.8360  2.5853 -2.3152
  692MOL0     H93361  10.057   6.899   0.354  0.3877  0.5307  1.3156
  692MOL0     H93362  10.101   6.745   0.425  4.1593  2.4251 -4.1283
  692MOL0     H93363   9.896   6.803   0.604  1.2322  1.8353  0.4015
  692MOL0     H93364   9.878   6.955   0.514  2.9978  0.6482 -2.1151
  692MOL0     H93365   9.824   6.860   0.313  0.1589 -0.3518  0.3383
  692MOL0     H93366   9.864   6.697   0.360  3.4500  1.8143 -3.2400
  692MOL0     H93367   9.692   6.704   0.519 -0.0948  1.5707  1.6585
  692MOL0     H93368   9.645   6.870   0.491 -1.4558 -3.2614  2.4222
  692MOL0     H93369   9.642   6.683   0.256  0.5496  1.8434 -0.7435
  692MOL0     H93370   9.556   6.830   0.277 -1.1949  1.0685  4.3706
  692MOL0     H93371   9.524   6.509   0.473  0.9959  0.8485  0.6282
  692MOL0     H93372   9.128   6.473   0.533 -0.2714 -1.2746  1.0645
  692MOL0     H93373   9.256   6.356   0.509  2.8748 -0.2116  0.4849
  692MOL0     H93374   9.385   6.416   0.701  0.0162  1.5320 -2.0230
  692MOL0     H93375   9.233   6.346   0.733 -2.3236  0.4459 -1.5597
  692MOL0     H93376   9.141   6.590   0.738 -0.4694  0.4367 -1.3645
  692MOL0     H93377   9.296   6.658   0.760 -0.4302  1.0165  1.1106
  692MOL0     H93378   9.157   6.487   0.947 -0.4773 -0.2538 -2.5699
  692MOL0     H93379   9.237   6.647   0.980 -0.0821  0.6829 -2.4528
  692MOL0     H93380   9.518   6.321   1.069 -1.3040 -0.6586  0.1511
  692MOL0     H93381   9.758   6.243   1.099  2.5769 -1.8074  3.0372
  692MOL0     H93382   9.879   6.360   1.126 -0.5715 -1.0360 -3.0458
  692MOL0     H93383   9.741   6.334   1.251 -1.0902  2.5658 -0.1702
  692MOL0     H93384  10.079   6.788   1.222 -0.2629  3.2497  0.1435
  692MOL0     H93385  10.272   6.831   1.385 -0.9713  0.9266 -0.0705
  692MOL0     H93386  10.089   6.809   1.774  0.4970  0.5671 -0.0145
  692MOL0     H93387  10.213   6.685   1.808  2.8934 -0.8919 -3.3816
  692MOL0     H93388  10.243   6.990   1.811 -0.1918 -0.4017 -1.1741
  692MOL0     H93389  10.197   6.897   1.966 -0.2473 -5.2130  0.1690
  692MOL0     H93390  10.471   6.863   1.813 -2.6567 -0.4504 -2.4842
  692MOL0     H93391  10.400   6.766   1.938 -0.3851 -0.6607 -1.4693
  692MOL0     H93392  10.487   7.054   1.939 -0.1257 -0.5238 -1.6403
  692MOL0     H93393  10.374   7.011   2.063 -0.1221  0.0960 -1.4365
  692MOL0     H93394  10.650   6.898   2.013 -1.6862  2.0715 -3.1330
  692MOL0     H93395  10.544   6.817   2.130 -2.6090 -0.4666 -1.6214
  692MOL0     H93396  10.617   7.112   2.143  2.5882 -0.1020 -0.5326
  692MOL0     H93397  10.526   7.044   2.274  2.2125  0.5910  0.8718
  692MOL0     H93398  10.812   7.015   2.202  0.2034  2.5081  1.8040
  692MOL0     H93399  10.730   6.865   2.264  0.5868 -0.6591 -0.4733
  692MOL0     H93400  10.691   6.960   2.472 -3.0226  1.3682 -0.9480
  692MOL0     H93401  10.693   7.119   2.411 -1.3991  0.0297  1.0550
  692MOL0     H93402  10.059   6.585   1.677  1.4147  1.6492  0.9837
  692MOL0     H93403   9.911   6.523   1.513  0.8052 -1.9624 -1.0191
  692MOL0     H93404   9.670   6.791   1.087 -3.1979  0.9349  0.0681
  692MOL0     H93405   9.443   6.752   1.020 -1.0985 -0.9822 -3.2320
  692MOL0     H93406  10.628   7.015   0.718  2.4620  1.5074 -2.8917
  692MOL0     H93407  10.792   7.166   0.840  1.2776  2.5432  0.2458
  692MOL0     H93408  10.872   7.464   1.116  0.3648 -0.9220 -0.1447
  692MOL0     H93409  11.031   7.595   1.255 -0.3001 -0.7017  0.5895
  692MOL0     H93410  11.308   7.829   1.333 -0.5112  2.9327 -3.0574
  692MOL0     H93411  11.170   7.733   1.336 -0.9565  0.2511  0.0472
  692MOL0     H93412  11.317   7.540   1.268 -0.9225  0.0637  0.9295
  692MOL0     H93413  11.361   7.609   1.420 -0.6614  1.3799  0.0219
  692MOL0     H93414  11.554   7.718   1.344  1.9940  0.1700 -0.2222
  692MOL0     H93415  11.514   7.729   1.176 -2.6400 -0.6080  0.3521
  692MOL0     H93416  11.568   7.464   1.289 -0.6450  0.5223 -0.1496
  692MOL0     H93417  11.704   7.563   1.244  0.5797 -3.0096  1.3342
  692MOL0     H93418  11.596   7.481   0.855 -2.4068  4.5170  1.1289
  692MOL0     H93419  11.247   7.696   0.910 -0.2548  0.8114  1.5932
  692MOL0     H93420  11.101   7.578   0.757 -0.3111  4.5991  0.6837
  693MOL0     O93421  10.780   9.465   3.038  0.1496 -0.0102 -0.2648
  693MOL0     C93422  10.887   9.521   3.063 -0.1149  0.8359  0.8431
  693MOL0     O93423  10.897   9.633   3.128  0.0792  0.1814 -0.1040
  693MOL0     C93424  10.790   9.708   3.177  0.3859  0.1398 -1.5345
  693MOL0     C93425  10.818   9.797   3.287 -0.0339  0.8495  1.0130
  693MOL0     C93426  10.718   9.872   3.344 -0.4700 -0.4440  0.8647
  693MOL0     C93427  10.586   9.870   3.292 -0.1208 -0.2934 -0.4801
  693MOL0     O93428  10.503   9.936   3.377  0.2055  0.3626 -0.7073
  693MOL0     C93429  10.375   9.969   3.325  0.9550 -0.1781  0.2932
  693MOL0     C93430  10.368  10.069   3.202  0.1555 -0.0265  0.7324
  693MOL0     C93431  10.249  10.048   3.105  0.0762 -0.2959  0.5985
  693MOL0     C93432  10.252  10.143   2.984  0.9957 -0.4804  0.3035
  693MOL0     C93433  10.158  10.268   2.988  0.8490 -0.9471  0.3889
  693MOL0     C93434  10.188  10.376   2.876  0.1824 -0.4582 -0.4043
  693MOL0     C93435  10.229  10.319   2.740  0.1818  0.6193  0.7610
  693MOL0     C93436  10.265  10.439   2.654 -0.5016  0.1448  0.5559
  693MOL0     N93437  10.309  10.390   2.509  1.0201  0.9680  0.0899
  693MOL0     C93438  10.226  10.368   2.399 -0.3150 -0.0940  0.2382
  693MOL0     C93439  10.307  10.340   2.300 -0.1650  0.7297 -1.1409
  693MOL0     C93440  10.258  10.305   2.166  0.0343  0.1236  0.2023
  693MOL0     C93441  10.203  10.419   2.082 -0.5730  0.4022 -0.3505
  693MOL0     C93442  10.305  10.525   2.047  0.1185 -0.0678 -0.1321
  693MOL0     C93443  10.239  10.645   1.984  0.3674 -0.6117 -0.5473
  693MOL0     O93444  10.322  10.722   1.892 -0.1957  0.1442  0.0028
  693MOL0     C93445  10.432  10.788   1.943 -0.3373  0.0301  0.8109
  693MOL0     C93446  10.533  10.803   1.847 -0.6748  0.0357  0.3160
  693MOL0     C93447  10.653  10.866   1.881 -0.1819  0.6683 -0.8309
  693MOL0     C93448  10.751  10.885   1.770  0.4472  0.1041  0.3608
  693MOL0     C93449  10.666  10.922   2.009 -0.0883 -0.7405 -0.3938
  693MOL0     C93450  10.785  11.013   2.049 -0.3604 -0.1410 -0.2384
  693MOL0     O93451  10.785  11.035   2.181  0.1776  0.3101  0.3316
  693MOL0     C93452  10.876  11.123   2.235  0.1874  0.3351 -0.1025
  693MOL0     C93453  10.887  11.258   2.197 -0.0205  0.1761  0.0435
  693MOL0     C93454  10.961  11.345   2.278  0.5242  0.2859  0.9560
  693MOL0     C93455  11.012  11.308   2.394  0.9476 -0.0573 -0.7535
  693MOL0     O93456  11.064  11.406   2.474  0.3878  0.4005  0.4921
  693MOL0     C93457  11.097  11.369   2.615  0.4744 -0.5943 -0.2899
  693MOL0     C93458  11.166  11.500   2.652 -1.0794 -0.0734 -0.3461
  693MOL0     C93459  11.179  11.529   2.801 -0.1813  0.6504 -0.0825
  693MOL0     C93460  11.273  11.424   2.857  0.2224  0.1873 -0.0679
  693MOL0     C93461  11.304  11.451   3.010  0.3980  0.6304 -0.4466
  693MOL0     C93462  11.428  11.363   3.054  0.5017  0.5102 -0.1553
  693MOL0     C93463  11.457  11.355   3.207 -0.0195  0.3672 -0.6245
  693MOL0     C93464  11.403  11.228   3.279  0.1457 -0.2556 -0.7312
  693MOL0    Cl93465  11.454  11.071   3.203  0.1441  0.0958  0.0532
  693MOL0     C93466  10.991  11.171   2.436 -0.0871  0.4737  0.3658
  693MOL0     C93467  10.925  11.076   2.354  0.3846 -0.9832  0.4303
  693MOL0     O93468  10.858  11.072   1.967  0.0158  0.5080 -0.1481
  693MOL0     C93469  10.566  10.904   2.102  0.3307 -0.2151 -0.4120
  693MOL0     C93470  10.453  10.822   2.077 -0.9317 -0.4777  0.3088
  693MOL0     N93471  10.443  10.343   2.351  0.1517 -0.6546 -0.1364
  693MOL0     N93472  10.437  10.378   2.475 -0.6572 -0.5551  0.3370
  693MOL0     C93473  10.548   9.770   3.199 -0.6519  0.2469  0.1573
  693MOL0     C93474  10.655   9.695   3.138 -0.1323  0.2102 -0.1013
  693MOL0     C93475  11.005   9.452   3.019  0.6244 -0.6318 -0.9710
  693MOL0     C93476  10.998   9.364   2.916 -0.2549  0.2233  0.3860
  693MOL0     C93477  11.121   9.329   2.853  0.6540  0.8486  0.3628
  693MOL0     C93478  11.243   9.385   2.883 -0.2846 -0.7407 -0.0398
  693MOL0     O93479  11.356   9.345   2.818 -0.2802 -0.4279  0.0601
  693MOL0     C93480  11.376   9.402   2.681 -0.0786  0.7367 -0.3870
  693MOL0     C93481  11.455   9.534   2.683  0.0377  0.7772  0.1299
  693MOL0     C93482  11.459   9.594   2.553  0.2073 -0.1678 -0.9082
  693MOL0     C93483  11.513   9.502   2.444  0.0204 -0.3010 -0.5819
  693MOL0     C93484  11.645   9.439   2.479  1.1437 -0.1296  0.9711
  693MOL0     C93485  11.754   9.398   2.510 -0.4336 -1.0091 -0.5988
  693MOL0     C93486  11.242   9.494   2.970 -1.0826  0.0587  0.1145
  693MOL0     C93487  11.133   9.511   3.043  0.2092  0.4443 -0.7224
  693MOL0     H93488  10.918   9.824   3.320  0.4796  0.0242  0.1941
  693MOL0     H93489  10.743   9.937   3.427  2.4065 -3.1969  2.4071
  693MOL0     H93490  10.336   9.874   3.288 -1.2663  2.2469 -4.5744
  693MOL0     H93491  10.305  10.005   3.401  0.8585  2.1473 -0.7893
  693MOL0     H93492  10.362  10.172   3.239  0.5825  0.8802 -1.5765
  693MOL0     H93493  10.467  10.056   3.158  0.5539 -0.8927  1.8470
  693MOL0     H93494  10.256   9.952   3.053 -0.9454  0.7843 -1.6674
  693MOL0     H93495  10.158  10.039   3.166  1.3640 -2.1975  2.3841
  693MOL0     H93496  10.355  10.178   2.971  0.7917 -0.5699 -1.8845
  693MOL0     H93497  10.227  10.081   2.898  2.0147 -1.9274  1.0107
  693MOL0     H93498  10.056  10.231   2.972 -0.3937  3.0385 -2.5009
  693MOL0     H93499  10.176  10.324   3.081  1.3029  1.9415 -1.3078
  693MOL0     H93500  10.097  10.436   2.871 -0.6441 -1.3557  2.2354
  693MOL0     H93501  10.253  10.457   2.909 -0.8109  0.7691 -1.3887
  693MOL0     H93502  10.310  10.245   2.744 -1.3358 -1.7627 -4.3651
  693MOL0     H93503  10.158  10.258   2.685  1.5436  0.8650 -1.4276
  693MOL0     H93504  10.336  10.517   2.684 -0.7665  1.4779 -2.0022
  693MOL0     H93505  10.171  10.494   2.646 -0.3940  0.3791  0.8743
  693MOL0     H93506  10.117  10.362   2.395 -0.7561  4.7256 -2.1419
  693MOL0     H93507  10.333  10.258   2.101 -0.7070 -1.3203  0.3524
  693MOL0     H93508  10.177  10.232   2.170 -2.9555  3.1707 -0.1921
  693MOL0     H93509  10.123  10.462   2.143  0.5759  0.0132  1.4876
  693MOL0     H93510  10.160  10.375   1.991 -0.3029  1.3569 -0.9641
  693MOL0     H93511  10.377  10.493   1.971 -1.0140  0.1596 -1.3363
  693MOL0     H93512  10.371  10.555   2.130 -3.0355  2.0279  1.8586
  693MOL0     H93513  10.201  10.705   2.067 -2.1258 -2.3532 -0.3064
  693MOL0     H93514  10.148  10.621   1.928 -1.5049 -1.2558  2.5442
  693MOL0     H93515  10.517  10.776   1.743  1.7431 -0.7813  0.0869
  693MOL0     H93516  10.856  10.876   1.800 -0.3684 -3.2112  2.7538
  693MOL0     H93517  10.738  10.807   1.695  0.2949 -1.1144  1.6224
  693MOL0     H93518  10.740  10.984   1.725 -1.8883  0.4776  1.6119
  693MOL0     H93519  10.836  11.295   2.108 -1.4837  0.8661  1.1317
  693MOL0     H93520  10.953  11.448   2.242  1.5671  0.5625  1.4755
  693MOL0     H93521  11.006  11.346   2.669 -0.4852  2.7381 -0.2660
  693MOL0     H93522  11.170  11.288   2.621  1.3243  0.2029  0.3822
  693MOL0     H93523  11.268  11.512   2.613 -1.9846  0.3493 -2.7169
  693MOL0     H93524  11.119  11.582   2.597  0.1514 -1.3733 -3.5915
  693MOL0     H93525  11.077  11.521   2.839  0.9904 -3.0902  2.8509
  693MOL0     H93526  11.229  11.626   2.812 -0.4857  0.7909  0.0620
  693MOL0     H93527  11.238  11.323   2.833  1.6546  0.2021 -2.5738
  693MOL0     H93528  11.365  11.421   2.797  1.5379  0.2188  1.8612
  693MOL0     H93529  11.212  11.438   3.067  1.0221  2.0734  0.9716
  693MOL0     H93530  11.322  11.558   3.023 -4.3155  1.5655  0.4272
  693MOL0     H93531  11.416  11.265   3.009  2.9778 -0.4817  1.1799
  693MOL0     H93532  11.509  11.423   3.013  0.6605  0.4368  0.0469
  693MOL0     H93533  11.415  11.448   3.246 -1.8853 -0.4884 -0.4675
  693MOL0     H93534  11.564  11.341   3.223 -0.2244 -0.9345 -0.2952
  693MOL0     H93535  11.295  11.235   3.288  0.1623 -0.9959  0.1762
  693MOL0     H93536  11.444  11.217   3.379  0.1897 -1.6954 -0.8766
  693MOL0     H93537  11.034  11.143   2.532  1.5159 -1.6728 -0.9168
  693MOL0     H93538  10.898  10.972   2.370  1.0401 -0.9818  1.6013
  693MOL0     H93539  10.573  10.941   2.204 -2.1039  1.3331 -0.7042
  693MOL0     H93540  10.381  10.812   2.157 -0.5402  2.6670  1.1855
  693MOL0     H93541  10.443   9.747   3.184 -0.8295  1.0690  0.0975
  693MOL0     H93542  10.633   9.635   3.050  2.0506 -0.2948 -0.3586
  693MOL0     H93543  10.909   9.311   2.884  1.3117 -2.5408  0.3094
  693MOL0     H93544  11.124   9.251   2.777 -0.2640 -3.5986  4.3527
  693MOL0     H93545  11.429   9.326   2.622 -2.7710 -1.4597 -0.2057
  693MOL0     H93546  11.284   9.411   2.622 -0.2075 -3.1173 -1.0246
  693MOL0     H93547  11.553   9.515   2.726  0.5150 -0.9080 -1.5520
  693MOL0     H93548  11.413   9.604   2.756  0.8705 -2.2738  3.8538
  693MOL0     H93549  11.528   9.678   2.561 -0.1281  0.0564 -0.2659
  693MOL0     H93550  11.362   9.642   2.533  1.9002  3.7261 -0.5111
  693MOL0     H93551  11.523   9.556   2.349  0.2430 -0.9413 -0.9299
  693MOL0     H93552  11.429   9.435   2.427 -0.4053 -0.8946  3.1005
  693MOL0     H93553  11.856   9.366   2.518  0.1693  0.9593  0.0366
  693MOL0     H93554  11.330   9.554   2.988  0.7822 -2.1199 -1.2088
  693MOL0     H93555  11.149   9.598   3.107  1.1025  0.2877 -0.7098
  694MOL0     O93556   4.382  10.867  10.330  0.2030 -0.2134 -0.5264
  694MOL0     C93557   4.440  10.966  10.271  0.2638  0.9270 -0.8634
  694MOL0     O93558   4.379  11.053  10.188 -0.5529 -0.1311 -0.1151
  694MOL0     C93559   4.252  11.015  10.158 -0.1886 -0.2601 -0.0890
  694MOL0     C93560   4.155  11.080  10.224  0.5440  0.1370  0.3200
  694MOL0     C93561   4.017  11.046  10.215 -0.6966 -0.2075  0.5631
  694MOL0     C93562   3.992  10.937  10.131  0.3781 -0.2355 -0.3598
  694MOL0     O93563   3.863  10.898  10.094  0.6010 -0.0803  0.2936
  694MOL0     C93564   3.758  10.989  10.068 -0.3405 -0.8232 -0.3147
  694MOL0     C93565   3.646  10.951  10.162  0.1418  0.2261 -0.8244
  694MOL0     C93566   3.691  10.942  10.316 -0.1118 -0.6420 -1.4207
  694MOL0     C93567   3.710  11.086  10.375  0.3420 -0.5674  0.4101
  694MOL0     C93568   3.815  11.082  10.495  0.2655  0.5813 -0.3019
  694MOL0     C93569   3.835  11.234  10.531  0.1951 -0.5188 -0.4181
  694MOL0     C93570   3.901  11.256  10.670  0.5380  1.2625  0.3425
  694MOL0     C93571   3.840  11.387  10.729 -0.5093 -0.9578 -0.4924
  694MOL0     N93572   3.894  11.501  10.658  0.0346  0.0750 -0.0591
  694MOL0     C93573   4.026  11.511  10.624 -0.6447  0.7745 -0.6863
  694MOL0     C93574   4.038  11.617  10.538 -0.6289  1.0694 -0.0038
  694MOL0     C93575   4.158  11.670  10.468 -0.3598  0.9993 -0.4647
  694MOL0     C93576   4.240  11.756  10.563 -0.7832  0.4663 -0.0809
  694MOL0     C93577   4.379  11.779  10.514  0.1408 -0.6214 -0.4856
  694MOL0     C93578   4.441  11.878  10.619  0.2521  0.4259  0.6009
  694MOL0     O93579   4.468  12.007  10.545  0.5130 -0.6529 -0.2252
  694MOL0     C93580   4.598  12.039  10.516 -0.4260  0.4816 -0.0779
  694MOL0     C93581   4.648  12.145  10.592 -0.4362  0.2590  0.1736
  694MOL0     C93582   4.772  12.205  10.570 -0.1221  0.0099  0.4356
  694MOL0     C93583   4.817  12.309  10.667  0.2600 -0.1798  0.1737
  694MOL0     C93584   4.856  12.160  10.457 -0.5877  0.0292 -1.0172
  694MOL0     C93585   4.989  12.206  10.420  0.2914 -0.4134  0.5331
  694MOL0     O93586   5.069  12.131  10.337  0.5269 -0.7243 -0.5136
  694MOL0     C93587   5.187  12.177  10.288  0.0618 -0.5256 -0.0818
  694MOL0     C93588   5.224  12.157  10.152  0.1922 -0.5000 -0.6046
  694MOL0     C93589   5.348  12.208  10.105 -0.6321  0.7550  0.4276
  694MOL0     C93590   5.435  12.276  10.193  0.2750  0.3862 -0.3563
  694MOL0     O93591   5.528  12.356  10.126 -0.6650  0.5824  0.4272
  694MOL0     C93592   5.647  12.284  10.078  0.2301 -0.4852 -0.2275
  694MOL0     C93593   5.728  12.379   9.999 -0.3060 -0.1626  0.4995
  694MOL0     C93594   5.850  12.310   9.938  0.4144  0.2527 -0.9282
  694MOL0     C93595   5.811  12.225   9.812  0.1340 -0.3403  0.0985
  694MOL0     C93596   5.945  12.185   9.743  0.4553 -0.6514 -0.2992
  694MOL0     C93597   6.023  12.293   9.650 -0.2294 -0.5166 -0.4070
  694MOL0     C93598   6.115  12.221   9.555 -0.3314 -0.0272 -0.3981
  694MOL0     C93599   6.227  12.313   9.498  0.1163  0.8673  0.5888
  694MOL0    Cl93600   6.311  12.404   9.634 -0.2357 -0.1136  0.2444
  694MOL0     C93601   5.408  12.288  10.333  0.3597 -0.1727  1.2681
  694MOL0     C93602   5.285  12.237  10.371 -0.7698 -0.0726  0.0970
  694MOL0     O93603   5.019  12.318  10.457  0.3166 -0.3474 -0.1389
  694MOL0     C93604   4.806  12.055  10.380 -0.6564 -1.2402 -0.3292
  694MOL0     C93605   4.676  12.001  10.403 -0.8819 -0.5947  0.0374
  694MOL0     N93606   3.913  11.664  10.522  0.9117  0.2918  0.7495
  694MOL0     N93607   3.832  11.603  10.598  0.0715  0.4082 -0.2894
  694MOL0     C93608   4.095  10.860  10.069  0.5681  0.2448  0.8636
  694MOL0     C93609   4.233  10.904  10.084 -0.7809 -0.7296  0.2669
  694MOL0     C93610   4.587  10.997  10.295  1.1542 -0.4265  0.4341
  694MOL0     C93611   4.656  11.113  10.258  0.3968 -0.8968 -0.7560
  694MOL0     C93612   4.789  11.123  10.283 -0.0606 -1.0455 -0.2087
  694MOL0     C93613   4.869  11.026  10.352  0.1779 -0.9085 -0.2813
  694MOL0     O93614   5.006  11.020  10.365  0.7472  0.6141  0.5443
  694MOL0     C93615   5.074  11.147  10.349  0.4512 -0.0198 -0.4872
  694MOL0     C93616   5.132  11.162  10.206 -0.2739 -0.0329 -0.1214
  694MOL0     C93617   5.211  11.295  10.193 -0.3286 -0.8040 -0.1522
  694MOL0     C93618   5.337  11.295  10.104 -0.4108 -1.0555 -0.0155
  694MOL0     C93619   5.316  11.240   9.969 -0.1748 -0.1084  0.3287
  694MOL0     C93620   5.296  11.187   9.863 -0.1512 -0.8729  0.2366
  694MOL0     C93621   4.799  10.914  10.388  0.3578  0.4255 -0.5374
  694MOL0     C93622   4.655  10.896  10.370 -0.1231  0.2174 -0.3036
  694MOL0     H93623   4.181  11.153  10.301 -1.0307  1.3010 -0.2135
  694MOL0     H93624   3.938  11.100  10.264 -0.4842 -1.1232  1.9648
  694MOL0     H93625   3.791  11.092  10.088  1.5344 -1.7413  1.7091
  694MOL0     H93626   3.726  10.974   9.964 -0.2908 -0.3557 -0.4005
  694MOL0     H93627   3.551  11.004  10.152  0.7163  1.5140  0.2724
  694MOL0     H93628   3.616  10.850  10.131 -0.7154  0.8676 -2.1492
  694MOL0     H93629   3.609  10.901  10.376  1.3544 -2.7956 -0.7824
  694MOL0     H93630   3.775  10.874  10.330 -1.6905 -2.1331  2.1054
  694MOL0     H93631   3.752  11.152  10.299  0.2599 -1.7137 -0.6528
  694MOL0     H93632   3.608  11.116  10.401 -0.5255 -0.4512 -2.7424
  694MOL0     H93633   3.766  11.035  10.581 -3.6131  2.6715 -1.1076
  694MOL0     H93634   3.911  11.040  10.468  0.3267  0.4213  0.1480
  694MOL0     H93635   3.898  11.277  10.453  1.5340  0.5525  1.1660
  694MOL0     H93636   3.735  11.277  10.535  0.4536  0.1138 -0.6587
  694MOL0     H93637   3.867  11.176  10.737  0.4119  2.0616  1.2474
  694MOL0     H93638   4.006  11.227  10.666 -0.0541 -1.1210  0.3206
  694MOL0     H93639   3.876  11.382  10.832 -2.2970  1.9713  0.4201
  694MOL0     H93640   3.733  11.413  10.732 -0.3111 -0.2119  1.1403
  694MOL0     H93641   4.106  11.449  10.662 -0.5765  0.4576 -1.3379
  694MOL0     H93642   4.214  11.579  10.446 -0.1323  1.2284 -0.8471
  694MOL0     H93643   4.125  11.730  10.382  0.2296  1.4590 -0.3725
  694MOL0     H93644   4.235  11.710  10.661 -3.3398  3.1985  1.2500
  694MOL0     H93645   4.189  11.851  10.583 -0.1977  0.2727  2.7190
  694MOL0     H93646   4.384  11.807  10.409  0.4591 -0.8641 -0.5389
  694MOL0     H93647   4.440  11.688  10.520  2.3223  0.8126  0.6828
  694MOL0     H93648   4.536  11.835  10.652 -0.0904 -0.4213  0.5154
  694MOL0     H93649   4.387  11.888  10.714  0.7265 -0.5705  0.9856
  694MOL0     H93650   4.588  12.172  10.679 -0.4585 -2.1189  0.9578
  694MOL0     H93651   4.849  12.400  10.616  1.3162 -2.5753 -3.8495
  694MOL0     H93652   4.741  12.337  10.741  0.7757  1.4039  0.1484
  694MOL0     H93653   4.907  12.273  10.717 -0.3807  0.2087  1.7053
  694MOL0     H93654   5.160  12.112  10.077 -0.2269  1.3332 -1.4279
  694MOL0     H93655   5.366  12.224   9.999 -1.8057  3.6127  0.5729
  694MOL0     H93656   5.703  12.225  10.151 -2.1895 -3.2600 -0.3964
  694MOL0     H93657   5.616  12.198  10.017  0.6431 -0.5968 -0.2835
  694MOL0     H93658   5.683  12.444   9.923 -0.2303  2.2286  2.3780
  694MOL0     H93659   5.757  12.450  10.078  0.2069 -0.3283  0.4618
  694MOL0     H93660   5.900  12.251  10.016 -0.4715 -1.2198 -1.4536
  694MOL0     H93661   5.907  12.399   9.909 -1.3628  1.2303 -1.5314
  694MOL0     H93662   5.726  12.157   9.823 -0.0253 -0.1193  0.2561
  694MOL0     H93663   5.782  12.303   9.741  4.0135  1.6800  0.4552
  694MOL0     H93664   5.912  12.115   9.666 -2.6245  3.1671 -2.8810
  694MOL0     H93665   6.001  12.142   9.827  0.7282  0.9592  0.3823
  694MOL0     H93666   5.954  12.353   9.589  1.9155  0.4141 -2.0698
  694MOL0     H93667   6.072  12.366   9.715 -2.4641  1.3080 -0.6387
  694MOL0     H93668   6.062  12.180   9.469 -0.6758 -1.0254  0.2752
  694MOL0     H93669   6.161  12.137   9.607  0.0843  0.4619  0.0320
  694MOL0     H93670   6.180  12.383   9.429  0.2001  1.1620  0.8296
  694MOL0     H93671   6.299  12.243   9.454 -0.4587  2.0138 -2.4078
  694MOL0     H93672   5.471  12.340  10.404 -1.8334  1.4904  2.1114
  694MOL0     H93673   5.252  12.240  10.474 -2.9022 -3.3885 -0.3129
  694MOL0     H93674   4.865  12.013  10.299 -0.8951 -1.7902 -0.2169
  694MOL0     H93675   4.639  11.914  10.348 -0.5537 -0.9591  0.3846
  694MOL0     H93676   4.067  10.796   9.987  0.0353  1.8588 -0.2605
  694MOL0     H93677   4.314  10.865  10.022 -0.2462  0.0583  0.4609
  694MOL0     H93678   4.596  11.199  10.228  3.4987  2.8988  2.6155
  694MOL0     H93679   4.835  11.207  10.233 -1.1887  1.0456  2.0810
  694MOL0     H93680   5.008  11.233  10.368 -1.2524 -0.6270 -3.1415
  694MOL0     H93681   5.160  11.151  10.416  0.0684  0.5563 -0.0199
  694MOL0     H93682   5.047  11.161  10.136  1.8117 -0.7983 -2.8113
  694MOL0     H93683   5.194  11.079  10.171 -0.9313  0.5459 -2.9226
  694MOL0     H93684   5.218  11.343  10.291 -0.6239  1.7689 -1.3201
  694MOL0     H93685   5.134  11.357  10.146  1.1515  0.3591 -1.1366
  694MOL0     H93686   5.417  11.232  10.145  2.3976  2.5335  0.4990
  694MOL0     H93687   5.365  11.400  10.090 -1.3240 -0.0440  4.2344
  694MOL0     H93688   5.273  11.137   9.771 -0.7933  1.7319 -1.1114
  694MOL0     H93689   4.847  10.828  10.434 -0.5267  0.3969  0.3660
  694MOL0     H93690   4.610  10.803  10.402  0.7197  0.2483  1.0666
  695MOL0     O93691   8.650   4.418   2.606 -0.1520  0.2286 -0.8184
  695MOL0     C93692   8.685   4.323   2.538 -0.2774 -0.5423  0.1361
  695MOL0     O93693   8.669   4.317   2.401 -0.0000 -0.2304 -0.8864
  695MOL0     C93694   8.595   4.408   2.342  0.2821 -0.3505  0.0194
  695MOL0     C93695   8.643   4.539   2.360  0.0976 -0.6261  0.1450
  695MOL0     C93696   8.564   4.641   2.310  0.0482  0.0465 -0.0460
  695MOL0     C93697   8.444   4.607   2.235  0.5629  0.6195  0.0374
  695MOL0     O93698   8.368   4.693   2.156  0.9415 -0.7147  0.0465
  695MOL0     C93699   8.424   4.822   2.117 -1.1844  0.9200 -0.7465
  695MOL0     C93700   8.549   4.814   2.018  0.5567 -0.4121  0.2847
  695MOL0     C93701   8.581   4.964   1.964  0.6529  0.0103  1.0389
  695MOL0     C93702   8.719   4.966   1.897  0.1494 -1.1336 -0.4279
  695MOL0     C93703   8.753   5.086   1.806 -0.2574 -0.3696 -0.0170
  695MOL0     C93704   8.906   5.093   1.773 -0.3709 -0.4507  0.0724
  695MOL0     C93705   8.977   4.967   1.721  0.3594  0.2206  0.0136
  695MOL0     C93706   9.130   4.980   1.692  0.6687 -0.3142  0.2792
  695MOL0     N93707   9.204   5.067   1.778  0.6062  0.0817 -0.0783
  695MOL0     C93708   9.276   5.018   1.885 -0.2915 -0.1010 -0.5682
  695MOL0     C93709   9.360   5.125   1.919  1.0850  0.1292  0.1418
  695MOL0     C93710   9.470   5.115   2.021  0.6290 -0.0864 -0.4991
  695MOL0     C93711   9.599   5.067   1.969  0.9144 -0.0698 -0.0838
  695MOL0     C93712   9.709   5.050   2.074 -0.5492 -0.6295  1.0998
  695MOL0     C93713   9.676   4.939   2.172  0.6010 -0.5902  0.9524
  695MOL0     O93714   9.784   4.864   2.206  0.1266  0.4481  0.0436
  695MOL0     C93715   9.757   4.795   2.324 -0.2851  0.6572  0.5527
  695MOL0     C93716   9.858   4.768   2.405 -0.2543  0.0657 -0.8077
  695MOL0     C93717   9.845   4.701   2.526  0.0571 -0.7256  0.1411
  695MOL0     C93718   9.973   4.670   2.593 -0.2268  0.0944 -0.4229
  695MOL0     C93719   9.721   4.670   2.577  0.0548  0.3781 -0.3142
  695MOL0     C93720   9.700   4.606   2.711 -0.4593  0.2734  0.5503
  695MOL0     O93721   9.569   4.553   2.731  0.0991  0.3327 -0.2063
  695MOL0     C93722   9.543   4.486   2.845  0.2065  0.0100  0.1807
  695MOL0     C93723   9.508   4.353   2.821 -0.3622 -0.9266 -0.3664
  695MOL0     C93724   9.471   4.270   2.935  0.0930 -0.1461  0.0855
  695MOL0     C93725   9.500   4.314   3.067 -0.6069  0.4444 -0.7431
  695MOL0     O93726   9.478   4.221   3.173 -0.9789 -0.1323 -0.2881
  695MOL0     C93727   9.423   4.278   3.296 -0.4959  0.7242  0.2939
  695MOL0     C93728   9.351   4.164   3.369  0.1526 -0.1045 -0.0807
  695MOL0     C93729   9.322   4.231   3.508  0.6755 -0.4351  0.4109
  695MOL0     C93730   9.277   4.123   3.610 -0.2688  0.1125 -0.0052
  695MOL0     C93731   9.240   4.167   3.754 -0.4923 -0.2178  0.2116
  695MOL0     C93732   9.142   4.283   3.755 -0.1164  0.4224  1.0988
  695MOL0     C93733   9.118   4.325   3.902 -0.2220  0.9776 -0.7080
  695MOL0     C93734   9.012   4.443   3.897  0.3812 -0.4348 -1.0208
  695MOL0    Cl93735   8.997   4.503   4.066  0.0047 -0.1833 -0.0055
  695MOL0     C93736   9.554   4.441   3.087 -0.0661 -0.2943  0.7959
  695MOL0     C93737   9.559   4.532   2.976 -0.1519  0.1702  0.2560
  695MOL0     O93738   9.791   4.597   2.798  0.2777 -0.1984  0.9310
  695MOL0     C93739   9.610   4.692   2.499  0.2023 -0.0920  0.7446
  695MOL0     C93740   9.624   4.751   2.369 -0.4887 -0.9641  0.7144
  695MOL0     N93741   9.329   5.236   1.841 -0.2573 -0.2561 -0.5878
  695MOL0     N93742   9.238   5.189   1.759  0.0867 -0.8491 -0.3213
  695MOL0     C93743   8.402   4.473   2.213  0.1755  0.1107 -0.4725
  695MOL0     C93744   8.475   4.378   2.271  0.0910 -0.2486 -0.3855
  695MOL0     C93745   8.775   4.224   2.598 -0.6107  0.8167  0.0055
  695MOL0     C93746   8.878   4.168   2.521 -0.3321 -0.2463  0.5429
  695MOL0     C93747   8.965   4.077   2.586 -0.5515 -0.3176  0.0770
  695MOL0     C93748   8.954   4.053   2.725  0.8140  0.7004  0.1868
  695MOL0     O93749   9.059   3.985   2.778  0.1122  0.3444  0.3823
  695MOL0     C93750   9.068   3.978   2.914  0.5278 -0.5925 -0.1908
  695MOL0     C93751   9.203   3.921   2.942  0.4667 -0.1767 -0.8145
  695MOL0     C93752   9.249   3.909   3.096  0.4243 -0.0039 -0.7290
  695MOL0     C93753   9.233   3.769   3.148 -0.6013 -0.3346 -0.4195
  695MOL0     C93754   9.251   3.760   3.294 -1.1629 -0.5918  0.6594
  695MOL0     C93755   9.278   3.751   3.410 -0.5475  0.3032 -0.0777
  695MOL0     C93756   8.840   4.094   2.795 -0.4743  0.4338  1.0630
  695MOL0     C93757   8.759   4.186   2.731  0.1238 -0.0706 -0.2178
  695MOL0     H93758   8.741   4.561   2.401 -1.5527  1.8478  3.2600
  695MOL0     H93759   8.598   4.743   2.299 -1.5744  0.4460 -2.2012
  695MOL0     H93760   8.347   4.885   2.071 -1.3934  0.2088 -1.3838
  695MOL0     H93761   8.474   4.859   2.207  3.2874 -1.2998 -2.0666
  695MOL0     H93762   8.624   4.755   2.070 -0.0384 -0.3776  1.1997
  695MOL0     H93763   8.501   4.756   1.939 -3.5332  1.2326  1.2904
  695MOL0     H93764   8.500   4.999   1.899  0.2978 -0.4046  1.2614
  695MOL0     H93765   8.582   5.033   2.049 -1.5260 -1.4697  2.3467
  695MOL0     H93766   8.801   4.963   1.969 -0.9983  1.5070  1.1549
  695MOL0     H93767   8.729   4.866   1.854  3.5268 -0.4602 -1.4551
  695MOL0     H93768   8.701   5.075   1.710  0.8991  0.4342 -0.7613
  695MOL0     H93769   8.731   5.186   1.846 -1.0137 -1.3282  2.0898
  695MOL0     H93770   8.924   5.171   1.699 -0.1301 -1.3262 -0.8125
  695MOL0     H93771   8.964   5.118   1.863 -0.4665 -0.1846  0.0601
  695MOL0     H93772   8.966   4.884   1.792 -0.2271 -0.0286 -0.3627
  695MOL0     H93773   8.919   4.922   1.640  3.1560 -3.2898 -0.3117
  695MOL0     H93774   9.128   5.038   1.599 -1.3304 -0.9860 -0.1385
  695MOL0     H93775   9.186   4.888   1.674  0.0694 -0.3968 -1.3771
  695MOL0     H93776   9.276   4.927   1.945 -0.7065 -0.1098 -0.5750
  695MOL0     H93777   9.488   5.219   2.050 -0.0659  0.0250 -0.4679
  695MOL0     H93778   9.437   5.057   2.108  0.3784  0.5047 -0.1945
  695MOL0     H93779   9.627   5.140   1.893 -2.1832  0.3813 -0.9067
  695MOL0     H93780   9.586   4.974   1.914  0.4373 -0.3934  0.5648
  695MOL0     H93781   9.721   5.143   2.130 -0.6053  0.0700 -0.0108
  695MOL0     H93782   9.799   5.022   2.018 -1.4973 -0.9244 -0.3184
  695MOL0     H93783   9.609   4.879   2.109  1.0321  1.9608 -2.1706
  695MOL0     H93784   9.616   4.978   2.255 -0.4689  0.5828 -0.3250
  695MOL0     H93785   9.958   4.799   2.373 -0.2314 -1.0634 -1.9332
  695MOL0     H93786  10.068   4.694   2.545  0.9615 -0.4681  1.5474
  695MOL0     H93787   9.972   4.725   2.688  1.6662 -3.1944  1.6742
  695MOL0     H93788   9.979   4.565   2.622 -1.5602  0.3877  1.0641
  695MOL0     H93789   9.487   4.308   2.725 -2.4047 -1.5173  0.3052
  695MOL0     H93790   9.410   4.181   2.928 -1.4835  0.9121 -0.0073
  695MOL0     H93791   9.500   4.316   3.364 -0.0417  0.2418  0.0588
  695MOL0     H93792   9.354   4.362   3.285  0.3616  1.5058  0.7683
  695MOL0     H93793   9.263   4.141   3.308 -0.0064  2.5736 -1.0108
  695MOL0     H93794   9.415   4.078   3.390  0.5379  0.1019 -0.4005
  695MOL0     H93795   9.239   4.301   3.496  1.2449  0.4401  1.3591
  695MOL0     H93796   9.402   4.292   3.551 -0.6381  2.9370 -1.5020
  695MOL0     H93797   9.187   4.089   3.556  0.8096 -1.2325 -1.0245
  695MOL0     H93798   9.347   4.040   3.609 -1.2506 -0.8224 -3.0700
  695MOL0     H93799   9.340   4.188   3.793  0.6426 -3.2684 -0.7376
  695MOL0     H93800   9.208   4.087   3.822 -3.0164 -0.7926 -1.5089
  695MOL0     H93801   9.172   4.370   3.696 -2.0158  0.3417 -0.0805
  695MOL0     H93802   9.057   4.242   3.699  0.3220  1.0369 -0.0570
  695MOL0     H93803   9.208   4.359   3.953  1.2787 -1.7336 -1.3781
  695MOL0     H93804   9.079   4.246   3.967  1.9806  2.2723  2.4439
  695MOL0     H93805   8.920   4.402   3.855  0.3179 -0.3635 -0.9529
  695MOL0     H93806   9.055   4.528   3.843  2.3940 -1.3087 -0.8992
  695MOL0     H93807   9.565   4.486   3.186  2.2708 -1.4534  1.1311
  695MOL0     H93808   9.594   4.634   2.984 -1.9519  0.7368  1.5177
  695MOL0     H93809   9.511   4.661   2.532 -0.5090 -1.0214 -1.9621
  695MOL0     H93810   9.534   4.767   2.312 -0.2078 -1.6113  0.0631
  695MOL0     H93811   8.311   4.461   2.155  0.7426 -0.2263 -1.3090
  695MOL0     H93812   8.443   4.276   2.253 -1.3793  0.8586 -5.7000
  695MOL0     H93813   8.888   4.193   2.416 -0.0448 -0.1067  0.6038
  695MOL0     H93814   9.048   4.040   2.527 -0.7392  1.2418 -1.2236
  695MOL0     H93815   9.064   4.071   2.972  2.0636 -0.4315 -0.2832
  695MOL0     H93816   8.991   3.919   2.964 -1.7186  1.3075 -1.2589
  695MOL0     H93817   9.275   3.992   2.901  1.0062 -0.0812  0.2642
  695MOL0     H93818   9.205   3.818   2.904  1.0871 -1.0847  1.5201
  695MOL0     H93819   9.190   3.976   3.159  0.4607 -1.5950  1.0958
  695MOL0     H93820   9.354   3.927   3.122 -0.0317 -2.9153  4.5195
  695MOL0     H93821   9.309   3.700   3.111  2.3123  1.9567  0.8825
  695MOL0     H93822   9.138   3.721   3.124 -1.1532 -0.0113  1.0081
  695MOL0     H93823   9.317   3.731   3.508  1.0823  0.3879 -0.6771
  695MOL0     H93824   8.829   4.075   2.901 -0.5982 -0.4848  0.8974
  695MOL0     H93825   8.676   4.233   2.782 -0.9110 -0.3436 -1.6128
  696MOL0     O93826   0.982  10.626   6.851 -0.4284 -0.7542  1.0205
  696MOL0     C93827   0.938  10.588   6.740 -1.1860 -0.8149  0.3756
  696MOL0     O93828   0.814  10.594   6.708 -0.4208  0.0235 -0.1051
  696MOL0     C93829   0.720  10.634   6.799  0.5292  0.4297  0.3081
  696MOL0     C93830   0.632  10.529   6.823 -0.0721 -0.2099  0.7369
  696MOL0     C93831   0.529  10.529   6.928 -0.6963  1.0170  0.1408
  696MOL0     C93832   0.507  10.654   6.987  0.1266 -0.7945  0.2646
  696MOL0     O93833   0.406  10.685   7.084  0.7298 -0.5037  0.4340
  696MOL0     C93834   0.300  10.590   7.100 -0.4308  0.6351 -0.3130
  696MOL0     C93835   0.187  10.655   7.187 -1.0695  0.7810  0.1447
  696MOL0     C93836   0.206  10.675   7.344 -0.3769 -0.5535  1.1574
  696MOL0     C93837   0.096  10.760   7.397 -0.5142 -0.8343 -0.8286
  696MOL0     C93838  -0.038  10.699   7.403  0.1965 -0.0944 -0.7267
  696MOL0     C93839  -0.123  10.771   7.510  1.1127  0.0268  0.1828
  696MOL0     C93840  -0.269  10.723   7.522 -0.7180  0.5195 -0.8709
  696MOL0     C93841  -0.361  10.775   7.407  0.0742  1.1610  0.7703
  696MOL0     N93842  -0.382  10.915   7.433  0.2607 -0.5193 -0.4660
  696MOL0     C93843  -0.323  11.018   7.370 -0.8060 -0.3597  0.9032
  696MOL0     C93844  -0.348  11.133   7.438 -0.0472 -0.3646  0.2666
  696MOL0     C93845  -0.306  11.267   7.408  0.1938 -0.3853  0.3680
  696MOL0     C93846  -0.410  11.351   7.344 -0.4282 -0.3330 -0.5417
  696MOL0     C93847  -0.351  11.497   7.334  0.1960 -0.0456  0.1038
  696MOL0     C93848  -0.254  11.523   7.221 -0.6344  0.8127 -0.4140
  696MOL0     O93849  -0.302  11.638   7.148  0.7888 -0.2256 -0.0072
  696MOL0     C93850  -0.213  11.707   7.066 -0.2020  0.2701 -0.3992
  696MOL0     C93851  -0.075  11.732   7.100 -1.1155 -0.0154 -0.6588
  696MOL0     C93852   0.017  11.779   7.009  0.3300 -0.4693  0.0126
  696MOL0     C93853   0.155  11.809   7.054 -0.4387  0.9011  0.2616
  696MOL0     C93854  -0.019  11.797   6.872  0.6813 -0.2038  0.1786
  696MOL0     C93855   0.077  11.860   6.778 -0.1314  0.9303 -0.5404
  696MOL0     O93856   0.082  11.798   6.658  1.0088 -0.0778  0.2611
  696MOL0     C93857   0.188  11.843   6.584  0.4237  0.2922 -0.5643
  696MOL0     C93858   0.180  11.947   6.487  0.2942 -1.1311  0.3575
  696MOL0     C93859   0.293  11.995   6.412  0.7576 -0.1968  0.0103
  696MOL0     C93860   0.413  11.924   6.423  0.1374 -0.0141 -0.3731
  696MOL0     O93861   0.518  11.962   6.338 -0.0306 -0.8750 -0.1926
  696MOL0     C93862   0.507  12.081   6.246  0.2058  0.5825 -0.5217
  696MOL0     C93863   0.636  12.071   6.168 -0.3185  0.5107 -0.0847
  696MOL0     C93864   0.731  12.174   6.229  0.8585 -0.7393 -0.7205
  696MOL0     C93865   0.873  12.157   6.173 -0.4278  0.3138  0.2033
  696MOL0     C93866   0.976  12.267   6.198 -0.1132  0.0231  0.3908
  696MOL0     C93867   1.019  12.257   6.341  0.0969  0.0897  0.5005
  696MOL0     C93868   1.145  12.353   6.355 -0.7861 -0.2981 -0.2780
  696MOL0     C93869   1.196  12.345   6.498  0.2708 -0.6531 -0.1988
  696MOL0    Cl93870   1.254  12.177   6.523  0.0811  0.0619  0.1986
  696MOL0     C93871   0.423  11.816   6.511 -0.1528  0.3201  0.5228
  696MOL0     C93872   0.312  11.773   6.596  0.8829  0.4862 -0.1261
  696MOL0     O93873   0.155  11.943   6.820 -0.0388 -0.6448  0.2663
  696MOL0     C93874  -0.150  11.775   6.843 -1.1376 -0.3290 -0.2300
  696MOL0     C93875  -0.248  11.741   6.939 -0.5643 -0.0060  0.0320
  696MOL0     N93876  -0.421  11.083   7.550 -0.2778 -0.5764  0.4942
  696MOL0     N93877  -0.439  10.957   7.543  0.5645  0.3402 -0.4264
  696MOL0     C93878   0.597  10.756   6.967  0.7057  0.2530  0.0157
  696MOL0     C93879   0.700  10.753   6.872 -0.9402  0.5129  0.2492
  696MOL0     C93880   1.040  10.548   6.639 -0.7552 -0.7389  1.0943
  696MOL0     C93881   1.173  10.551   6.674  0.5922 -1.3407 -0.0400
  696MOL0     C93882   1.260  10.483   6.588  0.3068  0.1318  0.1427
  696MOL0     C93883   1.216  10.402   6.484 -0.2198 -0.6346 -0.3296
  696MOL0     O93884   1.313  10.315   6.441  0.0767  0.0780  0.4889
  696MOL0     C93885   1.283  10.216   6.336  0.9390  1.5955 -0.4870
  696MOL0     C93886   1.248  10.275   6.195  0.3594  0.5914  0.3688
  696MOL0     C93887   1.354  10.253   6.091 -0.3962  0.3528  0.1943
  696MOL0     C93888   1.477  10.331   6.117  0.0857 -0.3911  0.0996
  696MOL0     C93889   1.541  10.373   5.993 -0.4324 -0.1843  1.3668
  696MOL0     C93890   1.614  10.393   5.894 -0.3325  0.0040 -0.4832
  696MOL0     C93891   1.082  10.403   6.452 -0.0730  0.1496 -0.9915
  696MOL0     C93892   0.992  10.481   6.527 -0.6071  0.8023 -0.0925
  696MOL0     H93893   0.639  10.445   6.755 -2.2241  0.6891 -0.7165
  696MOL0     H93894   0.468  10.444   6.955 -1.4331  1.4487 -0.1454
  696MOL0     H93895   0.246  10.557   7.011  0.6842  1.8943 -1.5255
  696MOL0     H93896   0.340  10.504   7.154  1.2650  1.4297 -0.2239
  696MOL0     H93897   0.156  10.751   7.146 -0.4409  0.1902 -1.7949
  696MOL0     H93898   0.102  10.589   7.165 -0.2972 -0.1599 -0.0820
  696MOL0     H93899   0.225  10.586   7.404  0.8378 -0.7691  0.4823
  696MOL0     H93900   0.297  10.736   7.345 -0.6460  0.3300 -3.6708
  696MOL0     H93901   0.127  10.803   7.493 -0.5087  2.2192 -2.1056
  696MOL0     H93902   0.078  10.849   7.337 -1.9305 -1.9467 -2.1371
  696MOL0     H93903  -0.094  10.697   7.309 -2.5182 -1.4503  0.7834
  696MOL0     H93904  -0.025  10.594   7.429  1.4771 -0.4658 -2.6341
  696MOL0     H93905  -0.082  10.772   7.612 -2.0768  0.6841  1.6049
  696MOL0     H93906  -0.117  10.879   7.490 -3.9183  0.9352  2.0149
  696MOL0     H93907  -0.268  10.614   7.517 -0.9775  0.5151 -0.8101
  696MOL0     H93908  -0.312  10.747   7.620  0.2627 -1.7210  0.1690
  696MOL0     H93909  -0.455  10.718   7.410  1.2223 -0.8405  0.9545
  696MOL0     H93910  -0.335  10.766   7.301 -1.3309 -0.5199  0.5254
  696MOL0     H93911  -0.267  11.002   7.278 -1.3613 -2.3236  0.8470
  696MOL0     H93912  -0.269  11.316   7.498 -1.8078 -0.5329  1.3240
  696MOL0     H93913  -0.224  11.260   7.336 -1.6013  0.0705 -1.8317
  696MOL0     H93914  -0.501  11.343   7.404 -0.6776 -1.0913 -1.0107
  696MOL0     H93915  -0.426  11.310   7.244  0.4057  0.5884 -1.0745
  696MOL0     H93916  -0.310  11.530   7.430  0.6091 -0.9760  0.2599
  696MOL0     H93917  -0.441  11.559   7.335  1.4864  1.9487  2.3615
  696MOL0     H93918  -0.244  11.434   7.159  2.3260  0.7547  0.0045
  696MOL0     H93919  -0.155  11.535   7.265 -2.4033  0.3390  4.2394
  696MOL0     H93920  -0.046  11.698   7.199 -2.1680  1.2957  0.1325
  696MOL0     H93921   0.182  11.914   7.039  1.7155  0.1417 -2.0745
  696MOL0     H93922   0.178  11.787   7.158 -0.2882  0.6660  0.1815
  696MOL0     H93923   0.220  11.739   7.000 -0.5256  0.6049  0.5384
  696MOL0     H93924   0.089  12.006   6.484  2.0523  1.9474  2.0238
  696MOL0     H93925   0.282  12.084   6.350  2.2890 -0.4656 -0.6822
  696MOL0     H93926   0.420  12.067   6.181  0.6721 -1.2289 -0.8233
  696MOL0     H93927   0.501  12.177   6.298  1.0911  1.1082 -1.3595
  696MOL0     H93928   0.681  11.972   6.166  1.2326  1.1899 -0.7645
  696MOL0     H93929   0.615  12.094   6.063  1.6275 -0.2362 -0.6803
  696MOL0     H93930   0.719  12.188   6.337 -1.4117  3.7854 -1.3236
  696MOL0     H93931   0.692  12.272   6.200 -0.3769 -0.7647  0.7137
  696MOL0     H93932   0.906  12.057   6.203 -1.4759  0.0396  0.4801
  696MOL0     H93933   0.865  12.148   6.064  0.8120  3.4854 -0.2599
  696MOL0     H93934   0.925  12.361   6.176 -1.9061 -0.8306  0.6916
  696MOL0     H93935   1.060  12.258   6.129 -0.6735  2.8359 -0.8157
  696MOL0     H93936   0.941  12.288   6.411  0.3427  2.2586 -0.1201
  696MOL0     H93937   1.051  12.154   6.356 -2.3422 -0.6892  0.7642
  696MOL0     H93938   1.116  12.453   6.322  2.4032 -0.0491 -2.7330
  696MOL0     H93939   1.218  12.320   6.281 -2.1496  0.3159 -1.9660
  696MOL0     H93940   1.109  12.371   6.558  0.4958  0.1085 -0.1962
  696MOL0     H93941   1.276  12.419   6.513 -0.8762 -0.0418  3.9097
  696MOL0     H93942   0.515  11.764   6.537  0.7062  2.2893  1.6696
  696MOL0     H93943   0.332  11.685   6.657  0.3491  0.2102 -0.3410
  696MOL0     H93944  -0.177  11.787   6.739 -1.3169 -4.4536 -0.8104
  696MOL0     H93945  -0.351  11.733   6.905  0.2479  1.2302 -3.1236
  696MOL0     H93946   0.590  10.854   7.015 -0.4787  0.1345  0.1017
  696MOL0     H93947   0.752  10.844   6.841 -0.7304  0.0879 -0.6679
  696MOL0     H93948   1.213  10.603   6.760 -0.5762 -2.1074  1.0142
  696MOL0     H93949   1.367  10.469   6.603  0.1878 -4.1520 -1.8564
  696MOL0     H93950   1.375  10.158   6.326  1.2669  2.2369 -1.2824
  696MOL0     H93951   1.207  10.146   6.374  0.5894  1.7614 -0.8729
  696MOL0     H93952   1.225  10.382   6.205 -2.3662 -0.0457  1.9048
  696MOL0     H93953   1.155  10.229   6.161  1.4102 -1.1834 -0.2358
  696MOL0     H93954   1.324  10.288   5.992  0.7200  2.5006  0.5390
  696MOL0     H93955   1.365  10.145   6.089 -0.2017  0.3607 -2.4406
  696MOL0     H93956   1.541  10.272   6.184  2.0424  3.3187  1.8056
  696MOL0     H93957   1.443  10.421   6.169 -1.1535 -0.3546 -0.7369
  696MOL0     H93958   1.691  10.398   5.820  1.3275 -0.5446  1.1197
  696MOL0     H93959   1.042  10.348   6.367 -2.3743  1.1947 -0.6769
  696MOL0     H93960   0.885  10.484   6.508 -0.5749  3.5513 -0.2031
  697MOL0     O93961   8.180  11.352   7.189  0.2602  0.3463  0.1337
  697MOL0     C93962   8.183  11.281   7.082 -0.9095 -0.3591 -0.5256
  697MOL0     O93963   8.072  11.241   7.015  0.1538 -0.0469  0.1981
  697MOL0     C93964   7.960  11.316   7.051 -0.2683  0.1252 -0.0538
  697MOL0     C93965   7.856  11.259   7.126  0.3545  0.3978  0.0769
  697MOL0     C93966   7.736  11.325   7.130  0.1413 -0.0002 -0.5457
  697MOL0     C93967   7.718  11.448   7.075  0.3563  0.5466 -0.4073
  697MOL0     O93968   7.600  11.528   7.069  0.2282 -0.3042 -0.4305
  697MOL0     C93969   7.600  11.640   7.165 -1.0712  0.2285  0.0254
  697MOL0     C93970   7.480  11.626   7.252 -0.1494 -0.2409 -0.6733
  697MOL0     C93971   7.357  11.644   7.170 -0.2663  0.0343 -0.2730
  697MOL0     C93972   7.226  11.616   7.251 -0.0355 -0.7006 -0.3718
  697MOL0     C93973   7.103  11.597   7.159  0.8708 -0.1762  0.0155
  697MOL0     C93974   6.975  11.577   7.245  0.7238  0.0633  1.3672
  697MOL0     C93975   6.856  11.557   7.139  0.3657 -0.5171 -0.4105
  697MOL0     C93976   6.749  11.455   7.180 -0.9406 -0.1165  0.3663
  697MOL0     N93977   6.650  11.434   7.071  0.4009 -0.6169  0.3925
  697MOL0     C93978   6.669  11.342   6.978  0.1501  0.0090 -0.0006
  697MOL0     C93979   6.602  11.374   6.867  0.0285 -0.6981  0.3205
  697MOL0     C93980   6.620  11.313   6.730 -0.3355  0.7235 -0.0288
  697MOL0     C93981   6.702  11.410   6.642 -0.4482  0.5612  0.0118
  697MOL0     C93982   6.720  11.353   6.503 -1.1955  0.8654  0.3546
  697MOL0     C93983   6.845  11.270   6.484  0.9318  0.0622 -0.9388
  697MOL0     O93984   6.944  11.364   6.475 -0.3963 -0.0167 -0.5925
  697MOL0     C93985   7.073  11.324   6.497 -0.6020 -0.0476 -0.4165
  697MOL0     C93986   7.109  11.187   6.513  0.1079  0.0082 -0.3841
  697MOL0     C93987   7.248  11.151   6.542  0.4411  0.8148  0.4595
  697MOL0     C93988   7.281  11.005   6.561  0.1088  0.5975 -0.0681
  697MOL0     C93989   7.339  11.255   6.536 -0.3301 -0.5215  0.4112
  697MOL0     C93990   7.479  11.230   6.540  0.3949 -0.4080  1.2605
  697MOL0     O93991   7.551  11.316   6.615  0.1281  0.7172 -0.1686
  697MOL0     C93992   7.687  11.312   6.607 -0.0114  0.6200  0.5007
  697MOL0     C93993   7.747  11.426   6.561 -0.6437 -0.0428 -0.4859
  697MOL0     C93994   7.886  11.426   6.539 -0.3919 -0.0942  0.8958
  697MOL0     C93995   7.963  11.308   6.563  0.8657 -0.3162  0.3908
  697MOL0     O93996   8.097  11.306   6.555 -0.4513 -0.1332 -0.1001
  697MOL0     C93997   8.170  11.423   6.606  1.4853  0.1934 -0.0695
  697MOL0     C93998   8.304  11.375   6.662  0.6065  0.6802  0.6284
  697MOL0     C93999   8.389  11.279   6.577  0.5257  0.0492  0.0566
  697MOL0     C94000   8.513  11.229   6.654 -0.0267 -0.9360 -0.3350
  697MOL0     C94001   8.575  11.103   6.604 -0.0500  0.2639  0.2750
  697MOL0     C94002   8.471  10.989   6.600  0.6834 -0.4192  0.5573
  697MOL0     C94003   8.527  10.844   6.615 -0.5070 -0.8338  0.4742
  697MOL0     C94004   8.420  10.740   6.636  0.0308  0.1942 -0.4718
  697MOL0    Cl94005   8.356  10.733   6.800 -0.0401 -0.0525  0.0947
  697MOL0     C94006   7.905  11.191   6.608 -0.3847 -0.9235  0.5563
  697MOL0     C94007   7.765  11.195   6.638 -0.4846 -0.5390 -0.0837
  697MOL0     O94008   7.523  11.126   6.487 -0.2331  0.3658  0.1321
  697MOL0     C94009   7.307  11.383   6.495  0.7352  0.1039 -0.6045
  697MOL0     C94010   7.174  11.419   6.494 -0.8863 -0.9936  1.0404
  697MOL0     N94011   6.522  11.482   6.896  0.5703 -0.5495 -0.1946
  697MOL0     N94012   6.557  11.522   7.016  0.7599 -0.2424 -0.5383
  697MOL0     C94013   7.831  11.502   7.011 -0.1498 -0.6144 -0.5425
  697MOL0     C94014   7.948  11.443   6.991 -0.2377  0.4226 -0.0201
  697MOL0     C94015   8.313  11.232   7.047 -0.0273 -0.5798 -0.2091
  697MOL0     C94016   8.433  11.289   7.098 -0.5381 -0.8549 -0.6093
  697MOL0     C94017   8.558  11.238   7.063 -0.6642  0.8049  0.2566
  697MOL0     C94018   8.572  11.111   6.995 -0.0921  0.3437  1.0685
  697MOL0     O94019   8.688  11.041   6.968 -0.2140  0.3004 -0.2519
  697MOL0     C94020   8.794  11.118   6.914  0.2390 -0.5798  0.1677
  697MOL0     C94021   8.882  11.020   6.850 -0.2047  0.2750 -0.7866
  697MOL0     C94022   8.991  10.962   6.945  0.0119  0.3743 -0.3646
  697MOL0     C94023   9.040  10.826   6.877  0.0481 -0.4770  0.3531
  697MOL0     C94024   9.116  10.766   6.979 -0.3432  0.3556 -0.1836
  697MOL0     C94025   9.186  10.704   7.060  0.2326 -0.6288 -0.2437
  697MOL0     C94026   8.452  11.048   6.955  0.6363  0.2324  0.4413
  697MOL0     C94027   8.330  11.106   6.975 -0.8520 -0.0013 -1.0382
  697MOL0     H94028   7.873  11.160   7.168 -0.4403 -0.1599 -0.8760
  697MOL0     H94029   7.651  11.276   7.176 -1.0622  3.6535  1.5276
  697MOL0     H94030   7.686  11.642   7.231 -1.5249 -2.2309  0.7772
  697MOL0     H94031   7.584  11.736   7.114 -2.2972 -0.8539 -1.7628
  697MOL0     H94032   7.481  11.528   7.302  0.4089 -2.2678 -4.2797
  697MOL0     H94033   7.496  11.701   7.330  1.6910  0.4413 -1.6353
  697MOL0     H94034   7.358  11.744   7.125  0.6471  0.2613  0.2399
  697MOL0     H94035   7.361  11.570   7.089  1.2736 -0.4710  0.2432
  697MOL0     H94036   7.232  11.533   7.321 -2.5514 -1.2205 -0.6753
  697MOL0     H94037   7.199  11.706   7.307  3.4647 -2.1760  4.2463
  697MOL0     H94038   7.081  11.671   7.082  1.9360  2.3215  1.9681
  697MOL0     H94039   7.113  11.501   7.108 -0.5427  0.0096 -0.6669
  697MOL0     H94040   6.976  11.486   7.305 -2.1603 -2.1012 -1.5400
  697MOL0     H94041   6.966  11.663   7.312  2.1895  0.7777  0.7004
  697MOL0     H94042   6.815  11.653   7.106 -1.1609 -1.1109 -0.3311
  697MOL0     H94043   6.888  11.507   7.047  1.2707 -1.3492  0.3322
  697MOL0     H94044   6.698  11.476   7.274  0.1354 -2.5969  1.6046
  697MOL0     H94045   6.809  11.364   7.188  2.9190  2.2011  0.2386
  697MOL0     H94046   6.729  11.252   6.974  0.4897  0.1654  1.2108
  697MOL0     H94047   6.668  11.216   6.743  0.9889  1.1061 -1.7637
  697MOL0     H94048   6.524  11.300   6.679 -0.7223  1.8579  0.3649
  697MOL0     H94049   6.799  11.429   6.688 -2.1763  0.8556  3.9518
  697MOL0     H94050   6.662  11.512   6.647  2.6028  1.9023 -1.0757
  697MOL0     H94051   6.727  11.441   6.438 -1.2663  0.7744  0.2221
  697MOL0     H94052   6.638  11.290   6.468 -1.6682  1.2351  0.7841
  697MOL0     H94053   6.828  11.229   6.383 -3.1393  3.5491 -1.9550
  697MOL0     H94054   6.863  11.201   6.567  4.6987  0.1774 -1.4882
  697MOL0     H94055   7.033  11.110   6.502  0.7986 -0.6403 -0.7508
  697MOL0     H94056   7.350  10.996   6.645 -1.7213  2.0013  1.7044
  697MOL0     H94057   7.193  10.947   6.588 -0.0227  0.6337 -0.4114
  697MOL0     H94058   7.312  10.959   6.467  0.9203  1.5545 -0.2895
  697MOL0     H94059   7.680  11.511   6.550 -0.4333  0.3047  0.7678
  697MOL0     H94060   7.942  11.516   6.514  1.8527 -2.0421 -1.6474
  697MOL0     H94061   8.174  11.494   6.523 -0.4416 -0.3054 -0.6448
  697MOL0     H94062   8.100  11.461   6.681 -1.0744 -0.4680 -1.9606
  697MOL0     H94063   8.362  11.465   6.681 -0.1060  0.8350  2.2575
  697MOL0     H94064   8.271  11.333   6.758 -0.2611  0.3403  0.1954
  697MOL0     H94065   8.423  11.323   6.482  0.5979  1.2083  0.6015
  697MOL0     H94066   8.330  11.191   6.550  1.1720 -0.7222  1.0676
  697MOL0     H94067   8.587  11.309   6.640 -1.2255 -0.1488 -2.8261
  697MOL0     H94068   8.482  11.215   6.758  1.1651 -3.4877 -0.2472
  697MOL0     H94069   8.658  11.076   6.670 -1.3252 -1.3927  1.2790
  697MOL0     H94070   8.613  11.114   6.502 -3.2043 -0.0399 -1.0448
  697MOL0     H94071   8.403  10.999   6.686  0.5598  2.2491  0.2454
  697MOL0     H94072   8.422  11.000   6.503  1.4070  0.1264  0.2438
  697MOL0     H94073   8.603  10.838   6.694  0.3986  0.8085 -0.2118
  697MOL0     H94074   8.582  10.827   6.522  3.6344  3.6763  1.6721
  697MOL0     H94075   8.474  10.646   6.622 -0.9085 -0.2237 -1.3939
  697MOL0     H94076   8.339  10.747   6.563 -0.4129 -1.0839 -0.1179
  697MOL0     H94077   7.964  11.100   6.603 -0.0659 -0.8222  2.0357
  697MOL0     H94078   7.712  11.102   6.655 -2.5644  0.6890  0.5135
  697MOL0     H94079   7.384  11.458   6.480  2.0933 -0.2693  3.4613
  697MOL0     H94080   7.161  11.523   6.467 -3.6830 -2.0824 -2.4614
  697MOL0     H94081   7.822  11.606   6.978 -0.3333 -0.2595  0.5836
  697MOL0     H94082   8.026  11.478   6.924 -2.1467  5.2676 -0.1528
  697MOL0     H94083   8.418  11.382   7.151 -1.0781 -0.1313 -1.9799
  697MOL0     H94084   8.640  11.297   7.103  1.4391 -0.6196 -1.7098
  697MOL0     H94085   8.761  11.189   6.837  3.5462  0.1410 -0.7168
  697MOL0     H94086   8.840  11.187   6.986  3.0169  0.3347 -2.2645
  697MOL0     H94087   8.938  11.082   6.780  0.7021  1.6123  1.0544
  697MOL0     H94088   8.825  10.939   6.804 -0.8203 -0.0209  0.4476
  697MOL0     H94089   8.949  10.949   7.046  0.5622  0.8377 -0.0685
  697MOL0     H94090   9.082  11.022   6.950  1.5951 -1.9226 -0.1297
  697MOL0     H94091   9.108  10.855   6.796  0.5397  0.0556  0.9492
  697MOL0     H94092   8.956  10.765   6.841 -0.4783  2.0901 -3.4078
  697MOL0     H94093   9.252  10.654   7.127 -0.8619 -0.3555  1.0945
  697MOL0     H94094   8.461  10.955   6.901 -2.6130  0.6773 -1.1098
  697MOL0     H94095   8.238  11.069   6.930 -3.7989  1.3541  3.2017
  698MOL0     O94096  10.922   7.331   4.870  0.6179  0.0585  1.3732
  698MOL0     C94097  10.874   7.341   4.989 -0.1148 -0.1800  0.1880
  698MOL0     O94098  10.761   7.280   5.039 -0.1776  0.2656 -0.0415
  698MOL0     C94099  10.665   7.248   4.947  0.3913  0.2461 -0.4003
  698MOL0     C94100  10.605   7.351   4.875 -2.0380 -0.6464  0.0663
  698MOL0     C94101  10.503   7.315   4.785 -0.8160  0.5836 -0.5678
  698MOL0     C94102  10.458   7.182   4.779  0.4123 -0.1508  0.0934
  698MOL0     O94103  10.355   7.137   4.696 -0.5445  0.7807 -0.4342
  698MOL0     C94104  10.270   7.240   4.642  0.2091 -1.0362  0.3312
  698MOL0     C94105  10.147   7.173   4.589  0.4320  0.0271 -0.3877
  698MOL0     C94106  10.160   7.093   4.457  0.5308  0.3033  0.9420
  698MOL0     C94107  10.041   7.079   4.365 -0.5576  0.2430 -0.9335
  698MOL0     C94108   9.930   7.009   4.440  0.6394 -0.2543  0.1637
  698MOL0     C94109   9.812   6.962   4.356  0.5554 -0.2973  0.4397
  698MOL0     C94110   9.695   6.943   4.447 -0.3497 -1.2534 -0.1961
  698MOL0     C94111   9.583   6.856   4.384 -0.4337 -1.0021  0.6197
  698MOL0     N94112   9.521   6.787   4.496  0.7625 -0.3115 -0.3976
  698MOL0     C94113   9.576   6.693   4.574 -0.7478 -0.0394  0.1862
  698MOL0     C94114   9.491   6.668   4.676  1.0629  0.2003  0.3537
  698MOL0     C94115   9.502   6.569   4.783  0.0538 -0.8667  0.2252
  698MOL0     C94116   9.492   6.423   4.736 -0.9026  0.3759 -0.7506
  698MOL0     C94117   9.618   6.338   4.774 -0.1324  0.6424 -0.9345
  698MOL0     C94118   9.750   6.386   4.709  0.4897 -0.8406  0.2794
  698MOL0     O94119   9.751   6.403   4.565 -0.0087  0.2451  0.2751
  698MOL0     C94120   9.869   6.439   4.499  0.3364 -0.0563 -1.1458
  698MOL0     C94121   9.854   6.482   4.368 -0.0502  1.1645  0.1824
  698MOL0     C94122   9.958   6.535   4.292  1.2077  0.5308 -0.9409
  698MOL0     C94123   9.907   6.597   4.169  0.4620  0.1917 -0.4046
  698MOL0     C94124  10.091   6.533   4.347 -0.6949 -0.5897 -0.6383
  698MOL0     C94125  10.203   6.598   4.272  0.8897  1.0264 -0.4332
  698MOL0     O94126  10.172   6.688   4.167  1.0992 -0.4054  0.2108
  698MOL0     C94127  10.276   6.750   4.106  0.1474  0.0685  0.0521
  698MOL0     C94128  10.275   6.882   4.079  0.5485  0.2940  0.3003
  698MOL0     C94129  10.386   6.951   4.016  0.4940  0.7052 -0.8443
  698MOL0     C94130  10.492   6.877   3.963  0.1099 -0.2955 -0.2456
  698MOL0     O94131  10.589   6.960   3.907 -0.2076  0.3066  0.1026
  698MOL0     C94132  10.696   6.907   3.820  0.3442 -0.0459  0.4251
  698MOL0     C94133  10.811   7.002   3.791  0.1510  0.2084  0.2112
  698MOL0     C94134  10.878   7.058   3.913  0.1335  0.9695  0.1266
  698MOL0     C94135  11.028   7.041   3.919 -0.1849  0.2164  0.5279
  698MOL0     C94136  11.079   6.897   3.918 -0.9972 -0.5210 -0.0136
  698MOL0     C94137  11.078   6.825   4.052 -0.5510  0.4729 -0.1359
  698MOL0     C94138  11.117   6.676   4.046  0.1607  0.1559 -0.0871
  698MOL0     C94139  11.169   6.634   4.185  1.0002  0.4815  0.1684
  698MOL0    Cl94140  11.326   6.714   4.218 -0.3191 -0.0051  0.1546
  698MOL0     C94141  10.488   6.741   3.981 -0.1318 -0.2384 -0.1765
  698MOL0     C94142  10.385   6.675   4.056 -0.3262  0.2254  0.5711
  698MOL0     O94143  10.314   6.572   4.307 -1.0377 -0.8537 -0.1734
  698MOL0     C94144  10.107   6.484   4.482 -0.0542  0.1113  0.5411
  698MOL0     C94145   9.998   6.440   4.557  1.0187 -0.0069  0.1299
  698MOL0     N94146   9.385   6.749   4.648  0.5189 -0.7540 -0.0853
  698MOL0     N94147   9.399   6.819   4.538  0.2664  0.7114  0.6381
  698MOL0     C94148  10.509   7.083   4.857  0.1186  0.4766 -0.5460
  698MOL0     C94149  10.615   7.112   4.941  0.2940  0.4304 -0.6591
  698MOL0     C94150  10.939   7.441   5.075  0.5768  0.2098  0.5823
  698MOL0     C94151  10.953   7.425   5.208  0.0688 -0.3826 -0.4495
  698MOL0     C94152  11.036   7.516   5.282  0.1116 -0.5269 -0.0473
  698MOL0     C94153  11.090   7.637   5.216  0.3408  0.0618 -0.5501
  698MOL0     O94154  11.148   7.742   5.280 -0.4330  0.3538 -0.3180
  698MOL0     C94155  11.221   7.722   5.398 -0.4119 -0.8919  0.3541
  698MOL0     C94156  11.278   7.854   5.450  0.9010 -0.0486 -0.0670
  698MOL0     C94157  11.352   7.823   5.581 -1.1861 -0.1744 -0.4348
  698MOL0     C94158  11.477   7.896   5.627 -0.0324  0.5560  0.7947
  698MOL0     C94159  11.438   8.036   5.634 -0.3998  0.0990 -0.7870
  698MOL0     C94160  11.393   8.146   5.662  0.6949  0.1192  0.4659
  698MOL0     C94161  11.066   7.648   5.076  0.1041  0.5264 -0.0007
  698MOL0     C94162  10.992   7.546   5.006 -0.3026 -1.2590  0.3730
  698MOL0     H94163  10.642   7.452   4.885 -3.3278 -0.0461 -0.8960
  698MOL0     H94164  10.471   7.405   4.733  0.0392  1.4923  0.4656
  698MOL0     H94165  10.230   7.311   4.716  0.1970 -2.4569  1.7385
  698MOL0     H94166  10.326   7.298   4.568 -1.9026 -1.9446 -2.1018
  698MOL0     H94167  10.109   7.106   4.666 -0.2956  1.1339  0.2382
  698MOL0     H94168  10.077   7.255   4.570  0.1132 -0.3233 -0.7465
  698MOL0     H94169  10.230   7.150   4.395  0.0162  0.4488  0.4905
  698MOL0     H94170  10.199   6.992   4.472 -0.0669 -0.0485  0.1845
  698MOL0     H94171  10.011   7.179   4.334  1.2817  2.3320  3.2020
  698MOL0     H94172  10.086   7.036   4.274 -0.2112 -0.3344 -0.4992
  698MOL0     H94173   9.966   6.917   4.486 -0.9344 -0.7099  0.5466
  698MOL0     H94174   9.906   7.084   4.516 -0.5672  2.2756 -2.5243
  698MOL0     H94175   9.782   7.018   4.267  1.4143 -3.2430 -1.8712
  698MOL0     H94176   9.851   6.871   4.309  3.5819  2.0928 -2.1357
  698MOL0     H94177   9.721   6.910   4.548 -3.8013 -3.5114  0.1166
  698MOL0     H94178   9.664   7.047   4.458  5.7573  1.5024 -3.8303
  698MOL0     H94179   9.624   6.784   4.312  1.4777 -2.0192  2.6092
  698MOL0     H94180   9.502   6.913   4.338 -1.1150 -2.0897  0.4393
  698MOL0     H94181   9.674   6.651   4.553 -0.3405  0.1415  1.6089
  698MOL0     H94182   9.596   6.571   4.838 -0.3585 -5.1389  1.4929
  698MOL0     H94183   9.420   6.588   4.853 -0.6165  1.9642 -1.1943
  698MOL0     H94184   9.475   6.423   4.627 -1.0084 -0.2052 -0.7412
  698MOL0     H94185   9.407   6.371   4.782  1.2331 -1.2865  1.5875
  698MOL0     H94186   9.594   6.237   4.739 -0.6688  0.1924  0.6257
  698MOL0     H94187   9.631   6.323   4.881 -0.0724 -0.3206 -1.0649
  698MOL0     H94188   9.836   6.325   4.736  0.2681 -1.1311  0.3239
  698MOL0     H94189   9.773   6.488   4.741 -1.6193 -0.3778  0.4632
  698MOL0     H94190   9.752   6.479   4.330  0.2476 -1.4151 -0.5982
  698MOL0     H94191   9.920   6.705   4.178  0.2239  0.0637  2.3826
  698MOL0     H94192   9.966   6.553   4.088  1.3847  1.7338 -0.5907
  698MOL0     H94193   9.800   6.575   4.159 -0.0488  2.2822  0.1233
  698MOL0     H94194  10.189   6.942   4.106  1.6262  1.2127  1.9315
  698MOL0     H94195  10.390   7.059   4.010  0.8597  0.7284 -0.2622
  698MOL0     H94196  10.744   6.815   3.855  0.8808 -0.0872 -0.3820
  698MOL0     H94197  10.656   6.875   3.723  0.7553  0.4488  0.0896
  698MOL0     H94198  10.890   6.957   3.729  0.0516  1.5507 -0.9474
  698MOL0     H94199  10.779   7.092   3.739  1.6158  1.1069  0.7985
  698MOL0     H94200  10.853   6.989   3.994  3.5482 -0.9833 -0.3190
  698MOL0     H94201  10.837   7.155   3.943  2.3617  1.8252  0.6086
  698MOL0     H94202  11.077   7.101   3.842 -0.7693  0.7149  0.5377
  698MOL0     H94203  11.062   7.082   4.014 -0.5710 -1.8089  1.6044
  698MOL0     H94204  11.183   6.892   3.885 -0.8057  0.1674  0.4819
  698MOL0     H94205  11.018   6.836   3.851 -1.5501 -3.0721  2.5620
  698MOL0     H94206  11.139   6.871   4.131  1.5199 -3.1004  0.5352
  698MOL0     H94207  10.983   6.835   4.106  0.3994  0.7412  1.5741
  698MOL0     H94208  11.201   6.642   3.985 -0.3368  0.2849 -0.8468
  698MOL0     H94209  11.033   6.610   4.025 -0.8846  1.6273 -0.7097
  698MOL0     H94210  11.189   6.527   4.177  3.7872  0.9243  0.1327
  698MOL0     H94211  11.094   6.644   4.264  1.8381  0.4832  0.9774
  698MOL0     H94212  10.564   6.681   3.933  1.8492  0.9353  1.3428
  698MOL0     H94213  10.380   6.567   4.070  0.5354 -0.0115 -0.7372
  698MOL0     H94214  10.204   6.480   4.531 -0.7592  0.1209  2.0061
  698MOL0     H94215  10.012   6.419   4.663 -1.8479  2.1416  1.0459
  698MOL0     H94216  10.464   6.985   4.854 -1.4783  1.1965 -1.1817
  698MOL0     H94217  10.671   7.036   4.996  3.0825 -0.3209 -4.2098
  698MOL0     H94218  10.895   7.345   5.253 -4.8721  2.3788 -1.1149
  698MOL0     H94219  11.041   7.484   5.386  0.1234  0.9413  0.4206
  698MOL0     H94220  11.151   7.691   5.476 -0.6621 -0.6537  0.2245
  698MOL0     H94221  11.286   7.635   5.379  0.6010 -0.4497  1.6548
  698MOL0     H94222  11.201   7.930   5.465  0.2848 -0.2840 -1.8189
  698MOL0     H94223  11.346   7.879   5.368 -0.0818 -3.2914 -2.0610
  698MOL0     H94224  11.391   7.721   5.590  2.0809  1.1705  4.0601
  698MOL0     H94225  11.270   7.833   5.652 -1.6170  2.0019 -1.1619
  698MOL0     H94226  11.550   7.877   5.548 -1.7001 -3.4245  0.0088
  698MOL0     H94227  11.500   7.861   5.727  2.2986  1.4211  0.6383
  698MOL0     H94228  11.355   8.241   5.695 -0.3309 -0.5413  1.2694
  698MOL0     H94229  11.123   7.723   5.022 -0.5914  0.9468 -0.1615
  698MOL0     H94230  10.990   7.546   4.897  1.3294 -1.7921  0.3088
  699MOL0     O94231   6.538   4.916   3.746  0.2529 -0.3755  0.0106
  699MOL0     C94232   6.559   4.808   3.704 -1.0329 -0.2401  0.2673
  699MOL0     O94233   6.668   4.731   3.740  0.0808 -0.1373 -0.0244
  699MOL0     C94234   6.783   4.795   3.796  0.5118  0.1077 -1.2310
  699MOL0     C94235   6.900   4.808   3.721  0.2450  0.1427 -0.0312
  699MOL0     C94236   7.010   4.869   3.777 -0.4554 -0.7366  0.9296
  699MOL0     C94237   7.013   4.919   3.910 -0.3175  0.8252  0.0651
  699MOL0     O94238   7.133   4.972   3.957 -0.0111 -0.1128 -0.6441
  699MOL0     C94239   7.143   4.984   4.099  0.5674 -0.0004 -0.5977
  699MOL0     C94240   7.285   5.029   4.148  0.0129 -0.4789  0.7063
  699MOL0     C94241   7.308   5.054   4.299 -0.2074 -0.2739 -0.0447
  699MOL0     C94242   7.233   4.956   4.384  0.2781 -0.2781 -0.2191
  699MOL0     C94243   7.307   4.822   4.397 -0.4401  0.4276  0.0903
  699MOL0     C94244   7.221   4.723   4.467  0.6862  0.4777  0.0396
  699MOL0     C94245   7.303   4.603   4.503  0.4752 -0.4859 -0.0539
  699MOL0     C94246   7.197   4.496   4.565 -0.8279  0.6711 -0.2342
  699MOL0     N94247   7.124   4.547   4.690 -0.8744 -0.3703  0.1545
  699MOL0     C94248   7.178   4.594   4.814 -1.1796  0.1145  0.7181
  699MOL0     C94249   7.069   4.616   4.887 -0.2646 -0.0906 -0.0784
  699MOL0     C94250   7.071   4.672   5.029 -0.2699  0.2169 -0.2088
  699MOL0     C94251   7.128   4.564   5.127 -0.2098  0.3071 -0.3550
  699MOL0     C94252   7.047   4.423   5.127  0.0129 -0.6754 -1.2027
  699MOL0     C94253   6.890   4.436   5.146  0.5033  0.9406  0.0484
  699MOL0     O94254   6.879   4.523   5.256 -0.3347 -0.4959 -0.8103
  699MOL0     C94255   6.752   4.540   5.297 -0.0175 -0.0359 -0.4950
  699MOL0     C94256   6.720   4.668   5.328  0.2814 -0.1208 -0.9301
  699MOL0     C94257   6.595   4.708   5.383 -0.0613 -0.6901 -0.1423
  699MOL0     C94258   6.584   4.838   5.451  0.3365  0.4094  0.7036
  699MOL0     C94259   6.493   4.616   5.369 -0.3319  1.2116  0.1998
  699MOL0     C94260   6.344   4.647   5.367  0.3263  0.6208  0.5961
  699MOL0     O94261   6.262   4.544   5.382  0.2122 -0.3497  0.2412
  699MOL0     C94262   6.125   4.569   5.368 -0.0741 -0.9069 -0.5771
  699MOL0     C94263   6.047   4.665   5.437  0.1834  0.6784 -0.4828
  699MOL0     C94264   5.907   4.668   5.443  0.1442 -1.3684  0.1628
  699MOL0     C94265   5.837   4.590   5.347  0.2403 -0.1421 -0.5693
  699MOL0     O94266   5.698   4.600   5.340  0.1099 -0.1255  0.0878
  699MOL0     C94267   5.624   4.579   5.221  0.7137  0.1220  1.4807
  699MOL0     C94268   5.489   4.643   5.239 -1.3339 -0.7490  0.4515
  699MOL0     C94269   5.400   4.662   5.111 -0.8891 -0.3000  0.3839
  699MOL0     C94270   5.264   4.692   5.155 -0.3946  0.2422  0.6351
  699MOL0     C94271   5.180   4.731   5.022 -0.3876 -0.9732  0.1457
  699MOL0     C94272   5.022   4.749   5.051  0.2820 -0.4255  0.5445
  699MOL0     C94273   4.994   4.899   5.094  1.0240 -0.0830 -0.8364
  699MOL0     C94274   4.846   4.928   5.106  0.7285 -0.2719  0.6456
  699MOL0    Cl94275   4.752   4.904   4.962 -0.0237 -0.2249  0.3404
  699MOL0     C94276   5.918   4.509   5.257  0.4066 -0.2258 -0.4784
  699MOL0     C94277   6.055   4.497   5.272  0.2970  0.4478 -0.3544
  699MOL0     O94278   6.311   4.766   5.358  0.5961 -0.2646 -0.2362
  699MOL0     C94279   6.529   4.479   5.362 -0.2877 -0.3326 -0.1691
  699MOL0     C94280   6.657   4.443   5.314 -0.5154 -0.1705 -0.5486
  699MOL0     N94281   6.954   4.592   4.813  0.1258  0.3848  0.4691
  699MOL0     N94282   6.985   4.542   4.700 -0.0505  0.0738  0.0915
  699MOL0     C94283   6.901   4.906   3.991 -0.2365  0.2133 -0.0367
  699MOL0     C94284   6.789   4.841   3.929  0.5443  0.1553  0.6451
  699MOL0     C94285   6.459   4.755   3.608  0.1946  0.6991 -0.4159
  699MOL0     C94286   6.452   4.612   3.605  0.1002  0.4511  0.2713
  699MOL0     C94287   6.351   4.559   3.522 -0.6485  0.3991 -0.6180
  699MOL0     C94288   6.266   4.632   3.444 -0.1313 -0.1870  0.3996
  699MOL0     O94289   6.167   4.589   3.362  0.4293  0.2777 -0.2061
  699MOL0     C94290   6.114   4.456   3.400 -0.6792  0.5263  0.7852
  699MOL0     C94291   5.984   4.466   3.479 -0.2892  0.3161  0.4632
  699MOL0     C94292   5.944   4.329   3.536  0.0007 -0.4530 -1.1920
  699MOL0     C94293   5.831   4.260   3.455  0.6273  0.5272 -0.5973
  699MOL0     C94294   5.708   4.343   3.461 -0.1818  0.0194 -0.1173
  699MOL0     C94295   5.600   4.398   3.464  0.1741  0.6126 -0.3341
  699MOL0     C94296   6.280   4.767   3.455 -0.2510 -0.4713  0.5986
  699MOL0     C94297   6.373   4.834   3.533  1.0489  0.3704 -0.7156
  699MOL0     H94298   6.909   4.778   3.617  1.3234 -2.4047  0.7171
  699MOL0     H94299   7.101   4.871   3.719 -0.2684  1.6751  1.1752
  699MOL0     H94300   7.073   5.060   4.135 -0.5311  1.2067 -4.7112
  699MOL0     H94301   7.115   4.888   4.142 -1.5319  0.8449  0.0742
  699MOL0     H94302   7.354   4.949   4.119 -0.2415 -0.2841 -0.5085
  699MOL0     H94303   7.310   5.121   4.095 -0.7849  1.6403  3.7604
  699MOL0     H94304   7.414   5.060   4.326 -0.3007 -1.4570  0.7034
  699MOL0     H94305   7.263   5.150   4.323  2.4463  1.1317 -0.3027
  699MOL0     H94306   7.236   4.992   4.488  4.2522  1.1659 -0.6670
  699MOL0     H94307   7.127   4.949   4.356  0.0945 -0.3513  0.4503
  699MOL0     H94308   7.345   4.782   4.303  0.5553 -0.2644  0.7682
  699MOL0     H94309   7.395   4.837   4.460  1.0654  0.3291 -1.8912
  699MOL0     H94310   7.174   4.765   4.557 -2.8399 -0.5383 -1.1694
  699MOL0     H94311   7.139   4.699   4.399 -1.1834  1.2874  1.8902
  699MOL0     H94312   7.356   4.562   4.417  3.2675  0.7801  0.9364
  699MOL0     H94313   7.384   4.619   4.574  1.5407 -2.4778 -0.7473
  699MOL0     H94314   7.249   4.404   4.594 -1.4199  0.4672  0.1930
  699MOL0     H94315   7.125   4.465   4.488  1.7352 -2.2209 -1.6977
  699MOL0     H94316   7.282   4.609   4.840  0.6820 -3.4103 -3.2382
  699MOL0     H94317   7.129   4.764   5.020 -0.4505  0.1752 -2.1454
  699MOL0     H94318   6.971   4.704   5.060  0.1627  1.1121  0.3183
  699MOL0     H94319   7.131   4.607   5.227 -2.9195  0.1120 -0.1046
  699MOL0     H94320   7.232   4.539   5.103 -0.7767 -1.0400 -1.5059
  699MOL0     H94321   7.087   4.360   5.207  4.2325  1.9845 -0.8675
  699MOL0     H94322   7.054   4.372   5.030  0.6718 -1.3960 -0.7904
  699MOL0     H94323   6.841   4.339   5.155 -0.0291  1.0760 -1.1860
  699MOL0     H94324   6.850   4.485   5.057 -1.9780  0.5436  0.8710
  699MOL0     H94325   6.805   4.735   5.323  0.6076 -0.5948 -2.0556
  699MOL0     H94326   6.514   4.911   5.407 -1.9043 -0.2708  2.9356
  699MOL0     H94327   6.560   4.816   5.555 -1.9312  0.1044  0.1814
  699MOL0     H94328   6.681   4.886   5.434  0.1769  0.5378  0.1295
  699MOL0     H94329   6.109   4.719   5.509  1.8622 -3.8444  1.8691
  699MOL0     H94330   5.856   4.737   5.510 -0.7343 -2.2534  0.4244
  699MOL0     H94331   5.675   4.632   5.140 -3.5066  0.6135 -1.1024
  699MOL0     H94332   5.616   4.473   5.197 -0.0533  0.5026 -0.0267
  699MOL0     H94333   5.438   4.601   5.326 -1.3525 -0.0983  0.7535
  699MOL0     H94334   5.506   4.743   5.279 -2.6295  1.1329 -3.2010
  699MOL0     H94335   5.407   4.576   5.043 -0.1482 -0.1557  0.2732
  699MOL0     H94336   5.434   4.748   5.053  0.3985 -0.8989  0.2189
  699MOL0     H94337   5.216   4.613   5.213  0.0541  1.0628  2.1903
  699MOL0     H94338   5.272   4.781   5.218  0.4190  0.5640  0.0932
  699MOL0     H94339   5.200   4.661   4.941  1.6276  0.4866 -0.6961
  699MOL0     H94340   5.218   4.825   4.981 -3.4466 -0.6108 -2.2146
  699MOL0     H94341   4.958   4.735   4.964  1.0000  1.0074 -0.2603
  699MOL0     H94342   4.989   4.677   5.127 -0.2863 -0.6179  0.1201
  699MOL0     H94343   5.034   4.963   5.015 -0.5974 -0.9923 -2.4825
  699MOL0     H94344   5.050   4.917   5.186  0.9920 -0.0071 -0.8320
  699MOL0     H94345   4.832   5.035   5.123  1.2440  0.4706 -2.8195
  699MOL0     H94346   4.808   4.860   5.183  2.2345 -3.1365 -0.9768
  699MOL0     H94347   5.869   4.463   5.172 -1.0374 -0.3694  0.3865
  699MOL0     H94348   6.113   4.434   5.206  1.2284  3.4109 -2.5965
  699MOL0     H94349   6.456   4.400   5.376 -2.0783  1.4190  0.8399
  699MOL0     H94350   6.659   4.335   5.304 -0.5693 -0.6118  2.9838
  699MOL0     H94351   6.890   4.954   4.088 -0.2084  0.1616 -0.0076
  699MOL0     H94352   6.693   4.836   3.980 -0.7097 -3.1966 -1.7244
  699MOL0     H94353   6.516   4.546   3.662  0.2677 -1.7403 -2.2763
  699MOL0     H94354   6.354   4.450   3.523 -0.3781  0.3891  1.5873
  699MOL0     H94355   6.074   4.409   3.310  0.0136 -2.1933  1.7950
  699MOL0     H94356   6.191   4.390   3.440  0.0979 -0.6414 -2.3500
  699MOL0     H94357   5.909   4.526   3.427  1.5100  1.5463 -0.8708
  699MOL0     H94358   6.007   4.531   3.564 -0.9147  0.2864  0.6536
  699MOL0     H94359   5.914   4.347   3.639 -0.3156  2.1261 -1.6569
  699MOL0     H94360   6.024   4.255   3.540 -1.2049 -1.7381  0.8956
  699MOL0     H94361   5.815   4.153   3.472 -0.3291  0.7060 -0.3099
  699MOL0     H94362   5.863   4.260   3.351 -2.1322 -1.3817 -1.5732
  699MOL0     H94363   5.511   4.458   3.458 -2.2855 -2.4744  1.9066
  699MOL0     H94364   6.220   4.829   3.389  1.2994  2.3087  1.6264
  699MOL0     H94365   6.386   4.941   3.545 -1.3128  0.5209  1.1568
  700MOL0     O94366   1.957   5.442   0.739 -0.1733 -0.1975 -0.6119
  700MOL0     C94367   1.858   5.429   0.673  0.6373 -0.6795  1.2901
  700MOL0     O94368   1.835   5.470   0.549 -0.2927 -1.1683 -0.4397
  700MOL0     C94369   1.936   5.543   0.476 -0.4553  0.5555 -0.9290
  700MOL0     C94370   1.985   5.665   0.526  0.1604  0.9842  0.1978
  700MOL0     C94371   2.089   5.731   0.462  0.1559 -0.1264  0.7266
  700MOL0     C94372   2.148   5.678   0.345  0.5437  0.3398 -0.2888
  700MOL0     O94373   2.248   5.733   0.270 -0.8936 -0.0557  0.7180
  700MOL0     C94374   2.371   5.754   0.336  0.5885 -0.2729  0.5461
  700MOL0     C94375   2.430   5.633   0.410  0.6378 -0.1943 -0.0148
  700MOL0     C94376   2.479   5.537   0.305 -0.0878  0.8066 -0.2927
  700MOL0     C94377   2.518   5.402   0.371  0.6846  0.7402 -1.5985
  700MOL0     C94378   2.398   5.300   0.387 -0.2075  0.1303  0.4193
  700MOL0     C94379   2.369   5.230   0.259 -0.1675 -0.8662 -0.5235
  700MOL0     C94380   2.251   5.125   0.296  0.1706  0.0654 -0.3094
  700MOL0     C94381   2.118   5.194   0.333  0.0127 -0.7248 -0.5987
  700MOL0     N94382   1.995   5.113   0.348  0.1292  0.4278  0.0536
  700MOL0     C94383   1.899   5.138   0.441 -0.3851 -0.4692 -0.0716
  700MOL0     C94384   1.832   5.021   0.446 -0.8494 -0.2562  0.8463
  700MOL0     C94385   1.723   4.996   0.544 -0.1610  0.6625  0.3609
  700MOL0     C94386   1.629   4.881   0.493  0.0999  0.3885 -0.0066
  700MOL0     C94387   1.485   4.915   0.533  0.3714 -0.3994  0.5582
  700MOL0     C94388   1.392   4.792   0.514  0.5752  0.1197 -0.8256
  700MOL0     O94389   1.258   4.837   0.525  0.0942 -0.5967 -0.5058
  700MOL0     C94390   1.157   4.758   0.470 -0.8229 -0.6130 -0.1419
  700MOL0     C94391   1.018   4.795   0.486 -0.3762  0.0823 -0.2988
  700MOL0     C94392   0.914   4.727   0.430  0.2365 -0.3333  0.2811
  700MOL0     C94393   0.779   4.800   0.434  0.5264  0.8840  1.6781
  700MOL0     C94394   0.937   4.608   0.352  0.4142 -0.9734 -0.3450
  700MOL0     C94395   0.827   4.527   0.283  0.2525  0.3349 -0.3364
  700MOL0     O94396   0.703   4.524   0.342  0.3244 -0.3620  0.0719
  700MOL0     C94397   0.635   4.405   0.329  0.3561  1.4178  0.2272
  700MOL0     C94398   0.643   4.296   0.225  0.1502 -0.2924  0.7952
  700MOL0     C94399   0.558   4.184   0.228  0.0564  0.5225 -0.8500
  700MOL0     C94400   0.467   4.168   0.337  0.1020 -0.1976  0.5199
  700MOL0     O94401   0.400   4.047   0.356 -0.4661 -0.3322  0.4078
  700MOL0     C94402   0.392   3.953   0.248  0.5248 -0.5371  0.5601
  700MOL0     C94403   0.321   3.823   0.279 -0.6112  0.0165 -0.6493
  700MOL0     C94404   0.275   3.758   0.150 -0.1917  0.0335  0.0629
  700MOL0     C94405   0.388   3.671   0.092  0.5378 -0.5417 -1.0474
  700MOL0     C94406   0.348   3.614  -0.045  0.0542  0.1908 -0.3096
  700MOL0     C94407   0.457   3.539  -0.123  0.2853 -0.3308 -0.7505
  700MOL0     C94408   0.560   3.629  -0.187 -0.5447 -0.0994 -0.4381
  700MOL0     C94409   0.674   3.558  -0.264 -0.0717  0.1452  0.1085
  700MOL0    Cl94410   0.774   3.689  -0.319  0.2834 -0.5650 -0.1344
  700MOL0     C94411   0.463   4.257   0.443  0.4197 -0.7277  0.0019
  700MOL0     C94412   0.549   4.372   0.438 -0.4681 -0.3110  0.3483
  700MOL0     O94413   0.855   4.471   0.176 -0.2233  0.3832  0.3960
  700MOL0     C94414   1.074   4.561   0.338 -0.3947 -0.1558  0.2043
  700MOL0     C94415   1.170   4.634   0.404 -0.2589  0.3296 -0.3137
  700MOL0     N94416   1.885   4.922   0.364  0.0525 -0.2281 -0.8245
  700MOL0     N94417   1.976   4.992   0.288  0.8182 -0.2472 -0.4898
  700MOL0     C94418   2.082   5.568   0.282  0.3130 -0.5369  0.1146
  700MOL0     C94419   1.977   5.510   0.354 -0.4798 -0.3248  0.2113
  700MOL0     C94420   1.750   5.344   0.711  0.3485  1.5609 -0.3038
  700MOL0     C94421   1.619   5.364   0.663 -0.5452 -0.0620 -0.3897
  700MOL0     C94422   1.512   5.287   0.709  0.0110  0.0141 -0.1353
  700MOL0     C94423   1.528   5.199   0.814  0.2931 -0.4276  0.9320
  700MOL0     O94424   1.425   5.119   0.863 -0.6511  0.5422 -0.2237
  700MOL0     C94425   1.295   5.117   0.808  0.8879  0.9681  0.8999
  700MOL0     C94426   1.205   5.045   0.901 -0.0910  0.5769  0.1301
  700MOL0     C94427   1.067   4.999   0.844 -0.5833 -0.5728 -0.6463
  700MOL0     C94428   0.966   5.004   0.961  0.9746  0.5571 -0.2216
  700MOL0     C94429   0.885   5.132   0.969  0.0802 -0.2765 -0.1298
  700MOL0     C94430   0.801   5.219   0.973 -1.3144  0.7225  0.4721
  700MOL0     C94431   1.657   5.177   0.862  0.2271  0.3933  0.4220
  700MOL0     C94432   1.765   5.247   0.810  0.3774 -0.5321 -0.9389
  700MOL0     H94433   1.944   5.711   0.615  1.3394 -1.5738  2.2039
  700MOL0     H94434   2.121   5.829   0.496 -0.6269  0.4384 -0.1316
  700MOL0     H94435   2.453   5.782   0.269  0.9191 -0.0049  1.0599
  700MOL0     H94436   2.367   5.838   0.405  2.6712 -0.0896  0.5033
  700MOL0     H94437   2.515   5.678   0.461 -0.1150  1.4804 -0.1672
  700MOL0     H94438   2.360   5.589   0.482 -0.3209 -3.4427 -2.7110
  700MOL0     H94439   2.412   5.517   0.221  1.1115  1.1328 -1.3670
  700MOL0     H94440   2.575   5.573   0.267  0.0234  0.9464  0.1253
  700MOL0     H94441   2.601   5.364   0.312 -0.9253 -2.3541 -2.1121
  700MOL0     H94442   2.553   5.429   0.471 -0.1916  3.5536 -1.9789
  700MOL0     H94443   2.447   5.233   0.459 -0.9299  1.3714  2.1403
  700MOL0     H94444   2.315   5.342   0.444  0.6570  1.6257  0.6363
  700MOL0     H94445   2.327   5.290   0.178 -0.8800  0.0971  0.5177
  700MOL0     H94446   2.467   5.196   0.226  0.7418  1.9659 -0.9655
  700MOL0     H94447   2.235   5.056   0.213  2.2633 -0.2930 -0.4736
  700MOL0     H94448   2.288   5.077   0.387 -2.0699  3.6244  2.8264
  700MOL0     H94449   2.103   5.272   0.257  3.1472  1.3233  0.6746
  700MOL0     H94450   2.132   5.245   0.428 -2.8365 -3.0215  1.2020
  700MOL0     H94451   1.877   5.230   0.495  1.4888  0.4978 -0.8277
  700MOL0     H94452   1.761   4.969   0.643 -0.9580 -0.0377  0.4864
  700MOL0     H94453   1.667   5.087   0.570 -1.3119 -0.1360  0.7612
  700MOL0     H94454   1.662   4.785   0.532 -1.1869  0.0532  0.3042
  700MOL0     H94455   1.643   4.881   0.384 -0.1114 -2.5439 -0.1043
  700MOL0     H94456   1.450   5.003   0.479  1.3801 -1.4125 -1.8902
  700MOL0     H94457   1.493   4.950   0.637 -0.5113  1.8207 -0.0661
  700MOL0     H94458   1.409   4.714   0.588 -1.5987 -0.8336 -1.2578
  700MOL0     H94459   1.415   4.755   0.414  2.6129  0.3829 -0.4986
  700MOL0     H94460   1.006   4.878   0.556  1.1989 -0.6798  0.9416
  700MOL0     H94461   0.705   4.731   0.476  1.9457 -2.9098 -1.4262
  700MOL0     H94462   0.778   4.893   0.491 -0.9259  0.4271  2.4509
  700MOL0     H94463   0.758   4.824   0.329  3.6962 -1.6976  0.2638
  700MOL0     H94464   0.708   4.289   0.139 -1.8635 -3.6511 -0.6443
  700MOL0     H94465   0.562   4.115   0.145  0.6455 -0.6392  0.1082
  700MOL0     H94466   0.357   4.009   0.162  1.5260 -2.7769 -1.4138
  700MOL0     H94467   0.493   3.916   0.225  0.7900  1.9312 -3.0303
  700MOL0     H94468   0.379   3.750   0.335 -1.2341 -0.3124 -0.4221
  700MOL0     H94469   0.225   3.824   0.332  0.5638 -2.9520  1.8513
  700MOL0     H94470   0.238   3.840   0.087 -3.3133  0.4619  2.1892
  700MOL0     H94471   0.184   3.699   0.164 -1.2153  1.4736 -0.3605
  700MOL0     H94472   0.479   3.729   0.075 -0.3932  1.9530  1.5158
  700MOL0     H94473   0.404   3.592   0.166  1.7062 -1.3902 -2.1702
  700MOL0     H94474   0.294   3.689  -0.103 -0.9427  0.4360  0.8697
  700MOL0     H94475   0.267   3.541  -0.028 -0.5192  1.0539  0.8071
  700MOL0     H94476   0.494   3.462  -0.055 -1.6070 -2.0024 -1.5391
  700MOL0     H94477   0.403   3.485  -0.201 -4.3348  0.5079  1.5573
  700MOL0     H94478   0.592   3.684  -0.098  0.7024 -3.7664  1.5893
  700MOL0     H94479   0.507   3.696  -0.255 -0.0297  2.0464  1.1866
  700MOL0     H94480   0.625   3.510  -0.349 -1.1860  0.6089  0.4794
  700MOL0     H94481   0.733   3.485  -0.208  1.4573  0.6670 -0.7422
  700MOL0     H94482   0.392   4.242   0.524 -2.2632  1.9414 -1.6445
  700MOL0     H94483   0.542   4.443   0.520 -5.6796  0.3580 -0.3764
  700MOL0     H94484   1.099   4.473   0.279 -2.9565  0.3292 -1.7837
  700MOL0     H94485   1.271   4.596   0.401 -0.2000  0.5394 -1.7639
  700MOL0     H94486   2.119   5.534   0.186  0.2938 -2.5030  0.7549
  700MOL0     H94487   1.933   5.427   0.300  0.4088 -1.1823  0.7944
  700MOL0     H94488   1.608   5.428   0.576 -1.2904  0.1025 -0.1856
  700MOL0     H94489   1.413   5.306   0.670 -0.3564 -1.4968  0.0111
  700MOL0     H94490   1.260   5.219   0.788 -1.3310  0.4423  1.7897
  700MOL0     H94491   1.279   5.071   0.710 -0.4603  1.9310  0.6256
  700MOL0     H94492   1.193   5.121   0.979  1.8273  1.9283 -0.8048
  700MOL0     H94493   1.252   4.958   0.947 -3.9400 -1.6003  0.3965
  700MOL0     H94494   1.080   4.899   0.801  0.8971  0.5685 -3.0482
  700MOL0     H94495   1.037   5.066   0.763 -0.9009 -1.3827 -1.2128
  700MOL0     H94496   1.008   4.988   1.061 -0.5752 -1.4626  0.1694
  700MOL0     H94497   0.901   4.918   0.945  0.7323 -0.2574  3.8979
  700MOL0     H94498   0.730   5.292   1.008 -1.7304 -0.0873  1.3437
  700MOL0     H94499   1.665   5.105   0.942 -0.1625  0.8226  0.8557
  700MOL0     H94500   1.857   5.221   0.861 -0.5928 -0.1753  1.1285
  701MOL0     O94501   3.331   4.111   8.800 -0.7376  0.4193 -0.1544
  701MOL0     C94502   3.340   4.206   8.718  0.6185  0.8008 -0.3344
  701MOL0     O94503   3.408   4.198   8.597  1.0657 -0.0726 -0.2642
  701MOL0     C94504   3.437   4.079   8.556  0.6746  0.7278  0.6672
  701MOL0     C94505   3.576   4.048   8.549  0.0350  0.1463 -0.9067
  701MOL0     C94506   3.626   3.922   8.522 -0.0653  0.4901 -0.2607
  701MOL0     C94507   3.529   3.824   8.513  0.2227 -0.2742  1.4854
  701MOL0     O94508   3.556   3.684   8.505 -0.2873  0.2303  0.0069
  701MOL0     C94509   3.686   3.644   8.534 -0.5827 -0.2074  0.5999
  701MOL0     C94510   3.697   3.502   8.506  0.5204 -0.2699 -0.2066
  701MOL0     C94511   3.619   3.422   8.602 -0.0801  0.4098 -0.3003
  701MOL0     C94512   3.672   3.281   8.605 -0.0694  0.2933  0.6562
  701MOL0     C94513   3.578   3.171   8.677 -0.3587 -0.1690 -0.0883
  701MOL0     C94514   3.545   3.200   8.828 -0.6868  0.4340  0.1537
  701MOL0     C94515   3.681   3.240   8.901 -0.1650  0.8656 -0.5107
  701MOL0     C94516   3.779   3.123   8.934 -0.0708 -0.1565  0.8767
  701MOL0     N94517   3.705   3.009   8.994 -0.1612 -0.0743 -0.3247
  701MOL0     C94518   3.674   2.885   8.944 -0.0253  0.4824  0.0437
  701MOL0     C94519   3.624   2.820   9.042  0.3856  0.2558  0.8473
  701MOL0     C94520   3.551   2.687   9.039 -0.4141  0.1925  0.4752
  701MOL0     C94521   3.618   2.584   9.115  0.9571 -0.9094  0.5896
  701MOL0     C94522   3.776   2.581   9.083  0.6853  0.5219 -0.7917
  701MOL0     C94523   3.803   2.542   8.938 -0.3148  0.6408 -0.6230
  701MOL0     O94524   3.750   2.416   8.901 -0.0446 -0.1242 -0.8755
  701MOL0     C94525   3.720   2.369   8.772 -0.2384 -0.2520  1.0227
  701MOL0     C94526   3.696   2.449   8.652 -0.1949 -0.1424  0.5305
  701MOL0     C94527   3.670   2.391   8.525  0.5445  0.0094 -0.0525
  701MOL0     C94528   3.637   2.484   8.412  0.6524 -0.9273  0.2596
  701MOL0     C94529   3.674   2.255   8.513  0.7325  0.2072  0.7047
  701MOL0     C94530   3.643   2.191   8.379  0.4159  0.5187  0.4193
  701MOL0     O94531   3.702   2.072   8.361 -0.0022 -0.2083  0.1835
  701MOL0     C94532   3.684   2.025   8.233 -0.0884 -0.5245  0.7675
  701MOL0     C94533   3.581   1.934   8.208  0.0280  0.4377 -0.7591
  701MOL0     C94534   3.560   1.882   8.072 -0.0468 -0.1076  0.0605
  701MOL0     C94535   3.641   1.929   7.966  1.1744  0.0624  0.9743
  701MOL0     O94536   3.610   1.875   7.838 -0.2069 -0.0627  0.4264
  701MOL0     C94537   3.592   1.983   7.746  0.4314  0.3064  0.8150
  701MOL0     C94538   3.477   1.927   7.656 -0.0306 -0.0227 -0.2640
  701MOL0     C94539   3.441   2.039   7.559 -0.3594 -0.7746 -0.2251
  701MOL0     C94540   3.366   1.961   7.445 -0.6617 -0.5582 -0.8885
  701MOL0     C94541   3.253   1.865   7.473 -0.1016 -0.7981  0.7810
  701MOL0     C94542   3.206   1.801   7.339 -0.1511 -0.5961  0.1292
  701MOL0     C94543   3.096   1.882   7.275 -0.1027  0.3959 -0.1428
  701MOL0     C94544   3.044   1.816   7.140 -0.1625  0.0295 -0.4353
  701MOL0    Cl94545   2.938   1.678   7.194 -0.6186 -0.1674 -0.2022
  701MOL0     C94546   3.745   2.020   7.992  0.5321  0.2945 -0.4136
  701MOL0     C94547   3.760   2.068   8.120 -0.2244 -0.6652  0.8304
  701MOL0     O94548   3.565   2.244   8.301 -0.4254 -0.3613 -0.2716
  701MOL0     C94549   3.708   2.180   8.623  0.0673 -0.3215 -0.4571
  701MOL0     C94550   3.730   2.233   8.748 -0.4279 -1.7990  0.6988
  701MOL0     N94551   3.647   2.897   9.153  0.7795 -0.0641 -1.1198
  701MOL0     N94552   3.685   3.015   9.127 -0.2178  0.0864  0.0797
  701MOL0     C94553   3.393   3.856   8.501  0.6821 -0.2670 -0.3740
  701MOL0     C94554   3.346   3.986   8.522 -0.2035 -0.3257  0.0332
  701MOL0     C94555   3.305   4.342   8.769 -0.9024  0.3606  0.3069
  701MOL0     C94556   3.284   4.450   8.681 -0.9721  0.1178  0.0722
  701MOL0     C94557   3.239   4.577   8.722  0.3956  0.8587  0.8283
  701MOL0     C94558   3.228   4.614   8.856  0.1712  0.2251 -0.0890
  701MOL0     O94559   3.183   4.736   8.877 -0.4788 -0.3963 -0.3152
  701MOL0     C94560   3.126   4.778   9.010  0.1150  0.2226  0.1528
  701MOL0     C94561   3.172   4.919   9.034 -0.0288 -0.9248  0.1964
  701MOL0     C94562   3.107   5.021   8.940  0.2097 -0.8727 -0.9184
  701MOL0     C94563   3.115   5.170   9.001  0.1969 -0.6403  1.4182
  701MOL0     C94564   3.252   5.217   9.012  0.3072  0.4424  0.0317
  701MOL0     C94565   3.377   5.218   9.032  0.0154  0.2718  0.3007
  701MOL0     C94566   3.252   4.506   8.942 -0.3247 -0.0444 -0.5909
  701MOL0     C94567   3.283   4.371   8.904 -0.5320 -0.3543  0.4932
  701MOL0     H94568   3.639   4.134   8.571 -3.0762  1.7831  2.9199
  701MOL0     H94569   3.732   3.900   8.535  0.3015  0.9303 -2.1147
  701MOL0     H94570   3.750   3.700   8.466 -3.7029  0.8037 -1.6918
  701MOL0     H94571   3.717   3.673   8.635  1.4842  2.0393 -0.5714
  701MOL0     H94572   3.669   3.482   8.403  4.6033 -0.2380 -1.5179
  701MOL0     H94573   3.801   3.467   8.510 -0.1871 -2.5275 -0.2515
  701MOL0     H94574   3.642   3.444   8.707  0.2906 -2.2630  0.2496
  701MOL0     H94575   3.511   3.434   8.589 -0.8525  0.3990  4.4511
  701MOL0     H94576   3.669   3.243   8.502 -2.6914 -1.9917  1.4377
  701MOL0     H94577   3.775   3.274   8.640 -0.0073  1.4161  0.7242
  701MOL0     H94578   3.488   3.150   8.618 -0.9449 -1.2698  1.1352
  701MOL0     H94579   3.637   3.080   8.687 -2.0332 -1.0339  3.7818
  701MOL0     H94580   3.475   3.284   8.830 -0.0205  1.0339  2.6137
  701MOL0     H94581   3.505   3.104   8.861 -0.8420  0.4366 -0.0314
  701MOL0     H94582   3.747   3.313   8.854  0.2296  1.2015  0.5254
  701MOL0     H94583   3.663   3.284   9.000 -1.1146 -0.3222 -0.1378
  701MOL0     H94584   3.863   3.160   8.994 -0.1305 -0.1152  0.9341
  701MOL0     H94585   3.821   3.082   8.841 -1.8926 -5.0273  1.8745
  701MOL0     H94586   3.671   2.855   8.839 -2.0819 -2.6835  0.8787
  701MOL0     H94587   3.445   2.696   9.063 -0.8496 -0.7415 -0.9690
  701MOL0     H94588   3.562   2.656   8.935 -5.0458  1.4825 -0.6233
  701MOL0     H94589   3.572   2.486   9.099  0.8608 -0.6999 -0.5016
  701MOL0     H94590   3.594   2.597   9.221  0.1187  1.6130  0.1465
  701MOL0     H94591   3.823   2.510   9.151  0.3002  2.8511  2.0949
  701MOL0     H94592   3.820   2.678   9.109  0.9262  0.1648  0.1836
  701MOL0     H94593   3.912   2.543   8.924 -0.3014 -0.6646 -0.6875
  701MOL0     H94594   3.778   2.624   8.870 -2.6447  1.1746  0.7791
  701MOL0     H94595   3.687   2.557   8.664  1.3828  0.3298 -1.7782
  701MOL0     H94596   3.534   2.467   8.379 -0.8767  1.7119  3.1255
  701MOL0     H94597   3.628   2.589   8.439 -0.7248 -0.9480 -0.0788
  701MOL0     H94598   3.707   2.479   8.328 -0.5846  1.7475 -1.0185
  701MOL0     H94599   3.521   1.902   8.292  1.5247 -2.2825 -0.5977
  701MOL0     H94600   3.471   1.822   8.061  0.6634 -1.0802 -0.5528
  701MOL0     H94601   3.553   2.067   7.804 -0.0686  0.8965 -0.3473
  701MOL0     H94602   3.685   2.007   7.694 -1.2653 -0.4995 -2.8515
  701MOL0     H94603   3.521   1.844   7.599 -0.9268 -1.9444  1.6956
  701MOL0     H94604   3.403   1.884   7.724  2.1032 -3.1724  0.3018
  701MOL0     H94605   3.532   2.079   7.515 -1.5245  1.2427 -0.9512
  701MOL0     H94606   3.380   2.115   7.609  2.0312  2.9990 -2.5458
  701MOL0     H94607   3.341   2.035   7.369 -3.0747 -1.8409 -1.4587
  701MOL0     H94608   3.447   1.909   7.393 -0.8984 -1.4837 -0.3700
  701MOL0     H94609   3.173   1.923   7.520  0.1600  1.7546 -1.6594
  701MOL0     H94610   3.302   1.788   7.533  1.2111 -0.7247 -0.1651
  701MOL0     H94611   3.282   1.785   7.262  0.5459 -0.6262  0.8072
  701MOL0     H94612   3.171   1.698   7.351  1.1804 -1.7022 -3.8031
  701MOL0     H94613   3.119   1.986   7.250  0.7906 -0.5858 -3.9535
  701MOL0     H94614   3.010   1.890   7.342  0.6322  0.8546  0.7686
  701MOL0     H94615   3.134   1.785   7.086  0.2479 -0.8805  0.7135
  701MOL0     H94616   2.990   1.887   7.077  1.3155  0.3695 -1.3686
  701MOL0     H94617   3.811   2.064   7.918  1.3256  0.7263  0.5331
  701MOL0     H94618   3.845   2.129   8.150  0.2301 -0.2854 -1.0693
  701MOL0     H94619   3.722   2.073   8.613  1.8334 -0.1456 -0.2221
  701MOL0     H94620   3.768   2.175   8.832  3.3431 -0.1370  0.3473
  701MOL0     H94621   3.312   3.788   8.478  0.2277  0.3564 -0.6420
  701MOL0     H94622   3.243   4.022   8.524  0.8508  3.3024 -1.9282
  701MOL0     H94623   3.317   4.446   8.578 -2.2432  2.9460 -0.5471
  701MOL0     H94624   3.215   4.654   8.650 -2.3157  0.1695  0.9019
  701MOL0     H94625   3.018   4.761   9.013  0.5339 -3.0350  0.9682
  701MOL0     H94626   3.161   4.711   9.090  0.1036 -6.2126 -4.4509
  701MOL0     H94627   3.281   4.928   9.034 -0.0744 -0.2518 -0.3894
  701MOL0     H94628   3.145   4.942   9.137  2.6236  2.8306  0.2720
  701MOL0     H94629   3.001   4.994   8.938 -0.3211  0.5494  1.8682
  701MOL0     H94630   3.149   5.020   8.840  0.2908  0.1583 -0.9079
  701MOL0     H94631   3.061   5.184   9.095 -1.4858 -1.6703  0.6688
  701MOL0     H94632   3.065   5.235   8.929  1.7389 -1.3467 -0.3728
  701MOL0     H94633   3.480   5.201   9.052 -0.6965 -3.9187  1.1939
  701MOL0     H94634   3.247   4.526   9.049 -4.2129 -1.6704 -0.3189
  701MOL0     H94635   3.296   4.288   8.972  0.8822 -2.2333 -1.9062
  702MOL0     O94636  10.481   8.685   1.200  0.4491 -0.5967 -0.1812
  702MOL0     C94637  10.497   8.595   1.281 -0.2668 -0.5543 -0.9088
  702MOL0     O94638  10.414   8.567   1.389  0.0629 -0.2318 -0.9593
  702MOL0     C94639  10.297   8.631   1.419  0.3513 -0.3006 -1.0148
  702MOL0     C94640  10.282   8.703   1.545  0.2034  0.2489  0.6386
  702MOL0     C94641  10.160   8.765   1.564  0.0762 -0.5245 -0.2630
  702MOL0     C94642  10.055   8.755   1.462 -0.1001 -0.1943 -0.6078
  702MOL0     O94643   9.934   8.812   1.479  0.0029 -0.0938 -0.3305
  702MOL0     C94644   9.894   8.815   1.616  0.1570 -0.1372  0.1239
  702MOL0     C94645   9.747   8.849   1.620  1.1008  0.3131  0.0274
  702MOL0     C94646   9.695   8.900   1.754  0.0832  0.1064  0.5277
  702MOL0     C94647   9.732   9.043   1.774  0.0536 -0.5067 -0.4560
  702MOL0     C94648   9.685   9.089   1.909 -0.3175 -0.0951 -0.6565
  702MOL0     C94649   9.777   9.046   2.026  1.4646 -0.2356  0.4060
  702MOL0     C94650   9.897   9.144   2.034 -0.0946  0.3282 -0.2153
  702MOL0     C94651   9.976   9.123   2.156 -0.1372  0.3111  0.3849
  702MOL0     N94652  10.047   9.243   2.199 -0.7548 -0.4930  0.0693
  702MOL0     C94653  10.167   9.292   2.144  0.6463  0.8264 -0.5645
  702MOL0     C94654  10.195   9.412   2.207  0.3829  0.1099  0.4960
  702MOL0     C94655  10.313   9.511   2.188  0.6202 -0.2775  0.2509
  702MOL0     C94656  10.248   9.628   2.109  0.0446  0.2963 -0.0856
  702MOL0     C94657  10.352   9.744   2.072 -0.5504 -0.9745  0.0934
  702MOL0     C94658  10.318   9.868   1.976  0.0149  0.9110  0.0146
  702MOL0     O94659  10.429   9.950   1.947  0.6835 -0.2760 -0.2946
  702MOL0     C94660  10.414  10.070   1.876  0.0425  0.0081  0.2890
  702MOL0     C94661  10.526  10.155   1.860  0.3309 -0.7181 -0.2046
  702MOL0     C94662  10.524  10.274   1.788  0.7185  0.8097 -0.0217
  702MOL0     C94663  10.641  10.362   1.774 -0.6453 -0.0013 -0.2324
  702MOL0     C94664  10.406  10.299   1.716 -0.2926 -0.6497  0.1410
  702MOL0     C94665  10.398  10.416   1.618  0.0638 -0.7911 -0.2458
  702MOL0     O94666  10.270  10.463   1.589  1.2357  0.1766 -0.8011
  702MOL0     C94667  10.252  10.558   1.484 -0.2474  0.5197  0.2321
  702MOL0     C94668  10.243  10.517   1.348  0.9070 -0.2204 -0.0890
  702MOL0     C94669  10.213  10.607   1.242  0.8821  0.4765 -0.7321
  702MOL0     C94670  10.210  10.739   1.273  1.1432 -0.3419 -0.3808
  702MOL0     O94671  10.193  10.827   1.171  0.2545  0.2838 -0.5122
  702MOL0     C94672  10.058  10.828   1.145  0.7375  0.6383 -0.0224
  702MOL0     C94673  10.045  10.966   1.072 -0.7742  0.7171 -0.9997
  702MOL0     C94674   9.918  10.979   0.998  0.1321 -1.0071  0.1881
  702MOL0     C94675   9.888  11.130   0.980 -0.1399  0.5276  0.0963
  702MOL0     C94676   9.744  11.155   0.936  1.5599  0.5844  0.3388
  702MOL0     C94677   9.704  11.286   0.864 -1.3374 -0.2763  0.4786
  702MOL0     C94678   9.775  11.407   0.934  0.7115  0.3312  0.1546
  702MOL0     C94679   9.717  11.535   0.902 -0.7125 -0.5154  0.1596
  702MOL0    Cl94680   9.766  11.601   0.746 -0.1073 -0.3960 -0.1979
  702MOL0     C94681  10.207  10.785   1.406  0.2102 -0.2196 -0.2554
  702MOL0     C94682  10.230  10.696   1.512  0.7743 -1.5546  0.6143
  702MOL0     O94683  10.502  10.455   1.553  0.9158 -0.5066 -0.4291
  702MOL0     C94684  10.293  10.230   1.741  0.1067  0.5376  0.3411
  702MOL0     C94685  10.290  10.122   1.830 -0.5954  0.0333  0.0305
  702MOL0     N94686  10.087   9.439   2.289  0.0728  0.8983  0.1174
  702MOL0     N94687   9.998   9.346   2.281  0.2564 -0.9504 -0.2920
  702MOL0     C94688  10.076   8.677   1.355  0.8272  0.9607  0.2905
  702MOL0     C94689  10.191   8.611   1.336 -0.3935  0.6744 -0.5438
  702MOL0     C94690  10.631   8.532   1.275  0.5744 -0.1767 -0.3217
  702MOL0     C94691  10.658   8.430   1.367  0.6290  1.2365  0.3657
  702MOL0     C94692  10.778   8.353   1.353  0.8124 -0.4542 -0.2686
  702MOL0     C94693  10.866   8.387   1.255  0.1974 -0.3764  0.6098
  702MOL0     O94694  10.984   8.318   1.246  0.0662 -0.1813 -0.0509
  702MOL0     C94695  10.978   8.212   1.157  0.1049  0.0931  0.5894
  702MOL0     C94696  11.112   8.161   1.112  0.8024 -0.0351  0.2309
  702MOL0     C94697  11.210   8.147   1.238  0.0355  0.7154  0.6015
  702MOL0     C94698  11.348   8.108   1.175  0.5064  0.3331 -0.2514
  702MOL0     C94699  11.448   8.069   1.273  0.2350  0.5402  0.6704
  702MOL0     C94700  11.534   8.055   1.349  0.2817 -0.0503 -0.4409
  702MOL0     C94701  10.847   8.501   1.172  0.3826 -0.2351 -0.2326
  702MOL0     C94702  10.723   8.566   1.175 -0.0983  0.0452  0.6435
  702MOL0     H94703  10.370   8.725   1.605  0.5122 -2.8148  1.4832
  702MOL0     H94704  10.152   8.838   1.643  0.5241 -0.6255 -0.1216
  702MOL0     H94705   9.920   8.719   1.661  0.1066 -0.7286 -1.0772
  702MOL0     H94706   9.945   8.897   1.668  1.7372 -1.9052  1.4942
  702MOL0     H94707   9.724   8.929   1.549  1.0060 -0.3931 -0.7505
  702MOL0     H94708   9.686   8.768   1.581  2.1408 -1.7524  2.4594
  702MOL0     H94709   9.585   8.897   1.758  0.0062  2.0223  0.7309
  702MOL0     H94710   9.738   8.855   1.844  2.2853 -0.8250 -0.9035
  702MOL0     H94711   9.840   9.053   1.767 -0.0762  0.6271 -1.1973
  702MOL0     H94712   9.681   9.103   1.698 -1.6965 -3.3971 -1.7307
  702MOL0     H94713   9.672   9.197   1.916  4.7496  0.6788  1.0147
  702MOL0     H94714   9.585   9.052   1.934  0.9236 -1.6084  2.8375
  702MOL0     H94715   9.722   9.047   2.121  0.3224  0.1890 -0.2486
  702MOL0     H94716   9.813   8.943   2.017 -0.0058 -0.6580 -1.1028
  702MOL0     H94717   9.958   9.133   1.944  0.9039 -0.0413  0.4904
  702MOL0     H94718   9.869   9.249   2.027  1.4832  0.8154  0.4918
  702MOL0     H94719  10.051   9.044   2.143  1.7268  2.2935 -2.1304
  702MOL0     H94720   9.915   9.076   2.233 -1.8528  2.3392  0.3570
  702MOL0     H94721  10.233   9.250   2.069  0.0060  0.8115 -1.1371
  702MOL0     H94722  10.364   9.535   2.281 -0.7257 -0.0217  0.9468
  702MOL0     H94723  10.388   9.474   2.117  0.8498 -1.6685  1.1993
  702MOL0     H94724  10.175   9.682   2.169  1.3322 -0.3839  2.2033
  702MOL0     H94725  10.188   9.586   2.027 -1.7478  0.1286  1.2545
  702MOL0     H94726  10.439   9.691   2.031 -0.2717 -0.2172 -0.3104
  702MOL0     H94727  10.400   9.790   2.159 -1.8252 -1.9250  1.3427
  702MOL0     H94728  10.237   9.922   2.026 -0.8650 -0.6398  0.3386
  702MOL0     H94729  10.285   9.821   1.882  2.1102 -0.4451 -0.1120
  702MOL0     H94730  10.608  10.124   1.924 -0.2342  0.1152  0.9630
  702MOL0     H94731  10.715  10.361   1.855 -1.5823  0.1835  0.6389
  702MOL0     H94732  10.689  10.334   1.680 -2.6535 -0.1231 -1.2684
  702MOL0     H94733  10.618  10.468   1.763 -0.9091 -0.0978 -0.6294
  702MOL0     H94734  10.256  10.411   1.327  2.3016 -0.2162  0.6425
  702MOL0     H94735  10.205  10.567   1.142  3.0962 -1.3268 -0.2713
  702MOL0     H94736  10.041  10.748   1.072 -1.3560 -1.1302  2.2278
  702MOL0     H94737   9.991  10.813   1.230  2.8537  1.6087  1.9186
  702MOL0     H94738  10.071  11.057   1.126 -1.9762  1.3670 -1.4912
  702MOL0     H94739  10.108  10.971   0.982  2.5432  0.9030  1.1291
  702MOL0     H94740   9.839  10.922   1.048  0.0688 -0.4522  0.7449
  702MOL0     H94741   9.926  10.936   0.898  0.6335  1.1425 -0.7541
  702MOL0     H94742   9.903  11.177   1.078  2.1769  1.0482 -0.4444
  702MOL0     H94743   9.968  11.165   0.914  0.9698 -2.5150 -0.3296
  702MOL0     H94744   9.684  11.140   1.026  2.3998  4.0048  1.6203
  702MOL0     H94745   9.724  11.074   0.866  1.7330  0.5586  0.3195
  702MOL0     H94746   9.742  11.286   0.761  0.7226  0.8846  1.1737
  702MOL0     H94747   9.596  11.302   0.857 -1.5562 -0.9530  2.0202
  702MOL0     H94748   9.885  11.408   0.928  1.0317  2.5556  3.3761
  702MOL0     H94749   9.746  11.398   1.039 -1.3914  0.1027 -0.4072
  702MOL0     H94750   9.752  11.602   0.980 -2.4547  0.4277  0.1740
  702MOL0     H94751   9.608  11.538   0.908 -0.9061  0.5550 -2.4739
  702MOL0     H94752  10.184  10.891   1.418 -0.5360 -0.4121  0.0771
  702MOL0     H94753  10.223  10.733   1.613  0.8817  1.2556 -0.3298
  702MOL0     H94754  10.203  10.264   1.690 -0.2162 -1.0558 -0.2170
  702MOL0     H94755  10.197  10.073   1.859 -0.7814 -0.3144 -1.1212
  702MOL0     H94756   9.993   8.665   1.285  0.2501  1.8406  0.8064
  702MOL0     H94757  10.195   8.546   1.249  0.9607  0.7896 -0.5952
  702MOL0     H94758  10.584   8.388   1.434  0.2784  0.8091 -0.2773
  702MOL0     H94759  10.793   8.277   1.430 -1.6721  1.3502  2.2299
  702MOL0     H94760  10.931   8.121   1.193 -0.0170  0.3100  0.9790
  702MOL0     H94761  10.925   8.250   1.069 -0.9318  0.2498  1.2701
  702MOL0     H94762  11.154   8.239   1.046  3.1813  0.3987  2.0834
  702MOL0     H94763  11.101   8.062   1.068  1.7681 -0.7110  1.4363
  702MOL0     H94764  11.175   8.072   1.309 -0.0817  1.6437  1.5671
  702MOL0     H94765  11.216   8.245   1.288 -2.6528  2.8997 -2.8744
  702MOL0     H94766  11.394   8.191   1.121 -0.7605 -0.1531 -2.1797
  702MOL0     H94767  11.336   8.021   1.110  0.8744 -0.8566  1.2106
  702MOL0     H94768  11.620   8.050   1.412 -1.6573 -1.6693  2.3174
  702MOL0     H94769  10.914   8.539   1.096  0.4689 -2.3066 -1.2826
  702MOL0     H94770  10.702   8.653   1.114 -1.8868 -1.4508 -0.9980
  703MOL0     O94771  10.646   5.513   2.931 -0.2342 -0.4550 -0.0650
  703MOL0     C94772  10.520   5.520   2.934 -0.3980 -0.1168 -0.5699
  703MOL0     O94773  10.452   5.543   3.043  0.3566  0.5714 -0.0515
  703MOL0     C94774  10.516   5.599   3.158 -0.4273  0.3943  0.7443
  703MOL0     C94775  10.629   5.683   3.164 -0.7851  0.1547  0.4774
  703MOL0     C94776  10.691   5.723   3.279  0.7854  0.1200 -0.3690
  703MOL0     C94777  10.634   5.692   3.406  0.4499 -0.5861  1.0881
  703MOL0     O94778  10.702   5.742   3.513  0.6282 -0.2801 -0.3942
  703MOL0     C94779  10.740   5.643   3.619 -0.9231 -0.9485  0.9238
  703MOL0     C94780  10.815   5.714   3.739  0.5581 -0.5691  0.4233
  703MOL0     C94781  10.861   5.610   3.841 -0.2889 -0.3709  0.4279
  703MOL0     C94782  10.917   5.676   3.973 -0.0349  0.4690  0.1087
  703MOL0     C94783  10.907   5.574   4.087 -0.1924  0.3557 -0.6899
  703MOL0     C94784  10.975   5.643   4.211 -0.0467  0.1634 -0.4068
  703MOL0     C94785  11.035   5.546   4.324  0.0678 -0.3892  0.6653
  703MOL0     C94786  11.155   5.466   4.263  0.4392  0.2189  0.2620
  703MOL0     N94787  11.212   5.388   4.372 -0.4205 -0.3542  0.0283
  703MOL0     C94788  11.311   5.432   4.456  0.1456 -0.3849 -0.8448
  703MOL0     C94789  11.339   5.335   4.554 -0.0133 -0.7653 -0.1311
  703MOL0     C94790  11.448   5.354   4.655 -0.7235  0.8569  0.2326
  703MOL0     C94791  11.574   5.318   4.573  0.1597  0.7219 -0.5126
  703MOL0     C94792  11.704   5.357   4.646  0.1420 -0.3239  0.3115
  703MOL0     C94793  11.825   5.298   4.563  0.3877 -0.4015  1.5106
  703MOL0     O94794  11.959   5.323   4.610 -0.7493  0.8956  0.0511
  703MOL0     C94795  12.016   5.445   4.593  0.4310 -0.2904 -0.0227
  703MOL0     C94796  11.996   5.534   4.492  0.0026 -0.2467  0.7078
  703MOL0     C94797  12.033   5.675   4.493 -0.4340  0.5691 -0.1325
  703MOL0     C94798  12.013   5.757   4.369  0.4735 -1.1528  0.0220
  703MOL0     C94799  12.102   5.712   4.617 -0.4446 -0.1119 -0.0592
  703MOL0     C94800  12.157   5.846   4.631  0.7943  0.7478 -0.6309
  703MOL0     O94801  12.279   5.866   4.680 -0.5875  0.0604 -0.1641
  703MOL0     C94802  12.356   5.984   4.685 -0.2059 -0.4673  0.7211
  703MOL0     C94803  12.326   6.095   4.607 -0.0407 -0.3961  0.1839
  703MOL0     C94804  12.417   6.208   4.617  0.8506  0.3854  0.3148
  703MOL0     C94805  12.528   6.209   4.700 -1.9270  0.8413 -0.0892
  703MOL0     O94806  12.617   6.321   4.707  0.6708 -0.0267 -0.2476
  703MOL0     C94807  12.661   6.383   4.586 -0.5806 -0.6557 -0.4608
  703MOL0     C94808  12.787   6.300   4.555 -0.7712  0.0135  0.8334
  703MOL0     C94809  12.863   6.350   4.430 -0.2138 -0.8906  0.4266
  703MOL0     C94810  12.986   6.267   4.393 -0.4519 -0.6624 -1.3131
  703MOL0     C94811  13.119   6.327   4.449  0.4604  0.0575  0.3554
  703MOL0     C94812  13.236   6.228   4.434 -0.2531 -0.4122 -0.1114
  703MOL0     C94813  13.369   6.290   4.471 -0.4699 -0.1161  0.6976
  703MOL0     C94814  13.460   6.179   4.516  0.0687 -0.9139 -1.1308
  703MOL0    Cl94815  13.420   6.121   4.690 -0.3744  0.3111 -0.4509
  703MOL0     C94816  12.552   6.104   4.785  0.8037  0.1997 -0.0401
  703MOL0     C94817  12.471   5.984   4.770 -0.1798 -0.6015  0.0184
  703MOL0     O94818  12.074   5.935   4.611 -0.8656  0.3136 -0.6332
  703MOL0     C94819  12.138   5.615   4.715  0.2516  0.1757  0.2195
  703MOL0     C94820  12.086   5.483   4.702 -1.4527 -0.6366 -0.3034
  703MOL0     N94821  11.263   5.223   4.520  0.1674  0.2273 -0.2067
  703MOL0     N94822  11.185   5.260   4.418 -0.5229  0.1182 -0.8389
  703MOL0     C94823  10.516   5.616   3.409 -0.7895  0.6579  0.6903
  703MOL0     C94824  10.461   5.569   3.289  0.0059 -0.2449  1.0188
  703MOL0     C94825  10.461   5.489   2.799  0.0355 -0.4465 -0.6334
  703MOL0     C94826  10.328   5.519   2.800  0.5217 -0.2460  0.4384
  703MOL0     C94827  10.257   5.521   2.677  0.2111 -0.5200  0.1794
  703MOL0     C94828  10.305   5.469   2.559  0.4784  0.0662 -0.3540
  703MOL0     O94829  10.234   5.446   2.442  0.2629  0.0217  0.2915
  703MOL0     C94830  10.116   5.537   2.427  0.3340  0.5408  0.1779
  703MOL0     C94831  10.142   5.689   2.434  0.9674 -0.8041  0.5597
  703MOL0     C94832  10.177   5.755   2.297  0.7854  0.1532 -0.1449
  703MOL0     C94833  10.161   5.912   2.302  0.3837 -0.1451  0.0560
  703MOL0     C94834  10.021   5.962   2.295 -0.1025  0.3128  0.5499
  703MOL0     C94835   9.905   5.991   2.305 -0.0609 -0.3636 -0.4040
  703MOL0     C94836  10.438   5.421   2.565  0.3768  0.0534 -0.2753
  703MOL0     C94837  10.517   5.434   2.682 -0.3975  0.0572 -0.1046
  703MOL0     H94838  10.678   5.728   3.078  2.0611 -0.0816  1.8624
  703MOL0     H94839  10.779   5.787   3.285 -0.3765  1.6740  1.1190
  703MOL0     H94840  10.651   5.595   3.661 -1.5405 -1.9454 -1.3571
  703MOL0     H94841  10.809   5.574   3.571 -1.0566 -0.3072 -0.2448
  703MOL0     H94842  10.900   5.773   3.703  2.1719 -3.4632 -0.9007
  703MOL0     H94843  10.735   5.769   3.789  1.8189  1.7050  0.0482
  703MOL0     H94844  10.770   5.549   3.851  0.7503 -1.9635  0.5111
  703MOL0     H94845  10.938   5.546   3.799  0.6886  1.1175 -0.1203
  703MOL0     H94846  11.013   5.712   3.936 -1.0370  0.9323 -2.1403
  703MOL0     H94847  10.877   5.774   4.000  1.6179  0.7875  1.5879
  703MOL0     H94848  10.812   5.525   4.109  2.2802 -5.1186 -0.4808
  703MOL0     H94849  10.960   5.480   4.067 -1.2214 -0.5353  0.6088
  703MOL0     H94850  11.060   5.704   4.179  3.6737 -3.9964  0.5897
  703MOL0     H94851  10.911   5.709   4.272  5.0376  1.2158  4.6837
  703MOL0     H94852  11.068   5.614   4.403  2.3982  0.0398 -0.5973
  703MOL0     H94853  10.954   5.487   4.367 -1.3091 -0.0602 -1.3237
  703MOL0     H94854  11.226   5.530   4.211  0.4684  2.4260  2.7935
  703MOL0     H94855  11.106   5.395   4.196 -0.6331 -1.7439  2.9008
  703MOL0     H94856  11.357   5.530   4.459 -0.0012 -0.1081  5.4866
  703MOL0     H94857  11.446   5.450   4.707  1.3018 -0.7203  3.5006
  703MOL0     H94858  11.440   5.297   4.747 -2.2606 -3.2138 -2.1571
  703MOL0     H94859  11.584   5.368   4.476  1.0866 -1.0409 -1.3759
  703MOL0     H94860  11.571   5.214   4.541 -0.4768  0.1087  1.3940
  703MOL0     H94861  11.718   5.349   4.754  2.1453  1.5303  0.2620
  703MOL0     H94862  11.707   5.465   4.634 -1.9309 -0.2835 -0.1343
  703MOL0     H94863  11.817   5.323   4.457 -1.8163 -2.4997  1.0944
  703MOL0     H94864  11.816   5.189   4.574 -0.2783 -0.5741 -0.2982
  703MOL0     H94865  11.935   5.505   4.407  1.6455  0.2533 -0.6932
  703MOL0     H94866  12.106   5.788   4.321 -0.0151 -0.3324 -0.4124
  703MOL0     H94867  11.959   5.697   4.295 -0.4101 -1.2160  0.7125
  703MOL0     H94868  11.957   5.846   4.400  1.2616 -0.3611 -0.7401
  703MOL0     H94869  12.245   6.106   4.536  0.8371  0.2105 -0.7612
  703MOL0     H94870  12.395   6.300   4.563 -1.1328 -1.0865 -1.5656
  703MOL0     H94871  12.589   6.369   4.505 -1.5903 -2.8254  0.7059
  703MOL0     H94872  12.677   6.489   4.605  0.5048 -1.2614  2.6066
  703MOL0     H94873  12.861   6.294   4.635  1.3175 -0.9038 -1.0743
  703MOL0     H94874  12.756   6.195   4.547 -5.3723  1.1787  0.6410
  703MOL0     H94875  12.878   6.458   4.441  3.1012 -1.2187  0.1083
  703MOL0     H94876  12.794   6.328   4.348 -0.3421 -3.1983  1.0908
  703MOL0     H94877  12.969   6.167   4.435  1.8179 -0.7950 -0.5994
  703MOL0     H94878  12.996   6.259   4.284  3.3200  3.2354 -1.4665
  703MOL0     H94879  13.127   6.365   4.551  2.8594  0.8892 -0.0785
  703MOL0     H94880  13.121   6.413   4.380 -3.5040 -0.0381 -0.1280
  703MOL0     H94881  13.214   6.153   4.511  0.6752  0.2730  0.8485
  703MOL0     H94882  13.234   6.184   4.334  0.0436  3.1897 -1.8717
  703MOL0     H94883  13.348   6.358   4.554  0.0215  0.1906  0.5804
  703MOL0     H94884  13.402   6.342   4.381 -1.1360 -2.8116 -1.2252
  703MOL0     H94885  13.556   6.227   4.537 -1.2805  0.3651  3.2400
  703MOL0     H94886  13.459   6.090   4.453 -2.0928 -0.3993 -1.9113
  703MOL0     H94887  12.632   6.112   4.858  2.1412 -1.9681 -1.1432
  703MOL0     H94888  12.472   5.896   4.833  1.1957 -0.1745  0.6265
  703MOL0     H94889  12.200   5.632   4.803  2.0705 -0.6927 -0.8382
  703MOL0     H94890  12.108   5.416   4.784 -1.0601 -3.0886 -2.2780
  703MOL0     H94891  10.472   5.603   3.507 -0.5614  1.4852  0.9114
  703MOL0     H94892  10.365   5.517   3.293  0.7811 -1.6698  2.9872
  703MOL0     H94893  10.265   5.548   2.883 -1.6050 -1.0924 -0.8157
  703MOL0     H94894  10.163   5.575   2.684  1.1708  1.3897 -0.7079
  703MOL0     H94895  10.077   5.511   2.328 -1.9995  0.5253  1.0496
  703MOL0     H94896  10.043   5.505   2.501  1.1133 -2.6130 -0.2449
  703MOL0     H94897  10.210   5.717   2.515 -0.6607 -0.0463  1.7392
  703MOL0     H94898  10.041   5.726   2.454  1.2959  0.2038  0.4057
  703MOL0     H94899  10.113   5.715   2.218 -0.3994 -2.1460  1.8572
  703MOL0     H94900  10.281   5.731   2.278  2.0599  2.8471  2.4930
  703MOL0     H94901  10.210   5.939   2.208 -1.9555 -1.0971 -1.5167
  703MOL0     H94902  10.216   5.959   2.384  0.9888  2.2208 -1.6119
  703MOL0     H94903   9.799   6.007   2.307 -0.2838 -0.7208 -4.0116
  703MOL0     H94904  10.478   5.376   2.474 -2.2567 -0.6170 -1.1980
  703MOL0     H94905  10.621   5.403   2.685 -0.2903  0.5028  0.9855
  704MOL0     O94906   6.261  11.137   5.079  0.8311 -0.0150  0.5103
  704MOL0     C94907   6.329  11.187   5.167  0.1160 -0.4194  0.5950
  704MOL0     O94908   6.350  11.123   5.286  0.0231  0.5676 -0.0305
  704MOL0     C94909   6.288  11.000   5.302  0.6415 -0.5639 -0.7465
  704MOL0     C94910   6.183  10.989   5.388  0.3180 -0.1706 -0.6490
  704MOL0     C94911   6.117  10.870   5.407  1.2434 -0.0296  0.1172
  704MOL0     C94912   6.156  10.754   5.340 -1.2172 -0.3745  0.5869
  704MOL0     O94913   6.090  10.636   5.357 -0.7020  0.3446 -0.5765
  704MOL0     C94914   5.946  10.638   5.378 -0.1842  0.3844 -0.0196
  704MOL0     C94915   5.893  10.523   5.298 -0.5870  0.1699  0.7373
  704MOL0     C94916   5.749  10.494   5.320 -0.0424 -0.0121 -0.3873
  704MOL0     C94917   5.666  10.560   5.210 -0.0114  1.3762  0.7328
  704MOL0     C94918   5.701  10.706   5.176  0.8974  0.7661  0.7396
  704MOL0     C94919   5.594  10.772   5.097 -0.0523  0.1331 -0.4523
  704MOL0     C94920   5.626  10.921   5.058 -0.3445 -0.5315  1.1491
  704MOL0     C94921   5.495  10.986   4.995 -0.5416 -0.0934  0.0386
  704MOL0     N94922   5.397  11.012   5.090  0.4019 -0.4620  0.5620
  704MOL0     C94923   5.264  10.998   5.063  0.2510 -0.3328 -0.2244
  704MOL0     C94924   5.201  11.062   5.162  0.1976 -0.1130 -0.0597
  704MOL0     C94925   5.053  11.084   5.177  0.1570 -0.5669 -0.1912
  704MOL0     C94926   5.007  11.199   5.079  0.3628  1.1222  0.5895
  704MOL0     C94927   5.007  11.335   5.152  0.1728  0.3359 -0.0357
  704MOL0     C94928   4.905  11.417   5.063 -0.2821 -0.4222  0.4440
  704MOL0     O94929   4.770  11.372   5.070  0.2861 -0.9875 -0.8405
  704MOL0     C94930   4.675  11.443   5.005  0.5740  0.3411  0.5061
  704MOL0     C94931   4.690  11.565   4.946  0.0880 -0.6200 -0.4425
  704MOL0     C94932   4.588  11.622   4.874 -0.0173  1.2742  1.6769
  704MOL0     C94933   4.597  11.764   4.839  0.6877 -0.9110  0.6041
  704MOL0     C94934   4.464  11.545   4.854  0.2975 -0.3869 -1.3665
  704MOL0     C94935   4.347  11.603   4.785 -0.0966  0.1540 -0.5040
  704MOL0     O94936   4.235  11.573   4.844 -0.2041  0.4436 -0.8519
  704MOL0     C94937   4.114  11.606   4.795  0.9911  0.2304  0.5916
  704MOL0     C94938   4.051  11.534   4.693 -0.2266  0.3573 -0.3414
  704MOL0     C94939   3.916  11.573   4.651  0.5863  0.1217 -0.0186
  704MOL0     C94940   3.844  11.678   4.714  0.0476  0.6203  0.6262
  704MOL0     O94941   3.716  11.715   4.685  0.1373  0.8998 -0.6768
  704MOL0     C94942   3.654  11.644   4.578  0.5658 -0.8206  0.8304
  704MOL0     C94943   3.517  11.710   4.566  0.7097  0.2784  0.2168
  704MOL0     C94944   3.422  11.674   4.687  0.2090  0.1190  0.3707
  704MOL0     C94945   3.286  11.739   4.664 -0.5576  0.4224 -0.3255
  704MOL0     C94946   3.178  11.663   4.744  0.0823 -0.1343 -0.0326
  704MOL0     C94947   3.041  11.737   4.712  0.5474  0.4961  1.6063
  704MOL0     C94948   3.027  11.886   4.767 -0.2957  0.5428  0.9484
  704MOL0     C94949   2.897  11.934   4.703  0.6580  0.6725 -1.0306
  704MOL0    Cl94950   2.804  12.062   4.789 -0.2508  0.2201 -0.7153
  704MOL0     C94951   3.919  11.747   4.811 -0.5399 -0.9391  0.4436
  704MOL0     C94952   4.051  11.718   4.845  0.1029 -0.4186 -0.4544
  704MOL0     O94953   4.354  11.662   4.679  0.0716  1.3267 -0.1313
  704MOL0     C94954   4.450  11.421   4.913 -0.4867 -0.2028 -1.0662
  704MOL0     C94955   4.553  11.374   4.993 -0.8758  0.6394 -0.6037
  704MOL0     N94956   5.298  11.101   5.257 -0.4628 -0.2332  0.7205
  704MOL0     N94957   5.422  11.081   5.208  0.5904  0.2636  0.8239
  704MOL0     C94958   6.277  10.755   5.268  0.0967  0.0399 -0.5335
  704MOL0     C94959   6.336  10.884   5.250  0.2708 -0.8748 -0.2380
  704MOL0     C94960   6.407  11.303   5.130  0.1889  0.3624 -0.0169
  704MOL0     C94961   6.472  11.382   5.227  2.1041 -0.1009 -0.1200
  704MOL0     C94962   6.554  11.492   5.184  0.3384 -0.1380 -0.7561
  704MOL0     C94963   6.557  11.525   5.055 -1.1201 -0.4779  0.5309
  704MOL0     O94964   6.644  11.627   5.021 -0.0088 -0.1193 -0.9399
  704MOL0     C94965   6.575  11.742   4.967 -0.3211 -0.6289  0.0557
  704MOL0     C94966   6.685  11.838   4.914 -0.4457 -0.2143 -0.0320
  704MOL0     C94967   6.753  11.775   4.793 -0.7994  0.2029  0.5717
  704MOL0     C94968   6.847  11.877   4.730 -0.1486  0.2424  0.7611
  704MOL0     C94969   6.877  11.830   4.591  0.2623 -0.9725  0.2055
  704MOL0     C94970   6.902  11.806   4.479  1.0005  0.9189 -0.8369
  704MOL0     C94971   6.492  11.446   4.948 -0.6774 -0.8744 -0.7694
  704MOL0     C94972   6.412  11.336   4.992  0.2407  0.2275  0.0278
  704MOL0     H94973   6.165  11.078   5.448  0.0022 -1.2775  0.9380
  704MOL0     H94974   6.040  10.863   5.483  0.8342  0.6500 -0.2282
  704MOL0     H94975   5.904  10.622   5.478 -0.7375 -1.1086 -0.4564
  704MOL0     H94976   5.906  10.727   5.328  1.6840  0.2756 -1.8191
  704MOL0     H94977   5.916  10.538   5.192 -0.0036 -3.3545  0.2399
  704MOL0     H94978   5.948  10.429   5.317 -1.2334 -0.6586 -1.2841
  704MOL0     H94979   5.724  10.387   5.315  1.2318 -0.2871 -1.4514
  704MOL0     H94980   5.712  10.534   5.415  1.5417  1.5629 -0.3854
  704MOL0     H94981   5.670  10.497   5.120 -0.8395  1.6171  0.5229
  704MOL0     H94982   5.563  10.549   5.246 -0.1006  3.0397  1.0290
  704MOL0     H94983   5.709  10.749   5.276  3.9774  0.1939  0.8634
  704MOL0     H94984   5.793  10.727   5.120 -1.2447  1.2712 -2.9008
  704MOL0     H94985   5.576  10.715   5.006  1.3235 -1.2197  0.0658
  704MOL0     H94986   5.506  10.772   5.162 -0.0957  1.0233 -0.5001
  704MOL0     H94987   5.647  10.978   5.149 -0.4945  0.0170  0.8368
  704MOL0     H94988   5.714  10.937   4.996 -0.0235  0.1571  1.7633
  704MOL0     H94989   5.460  10.932   4.906  1.5568  1.4277 -1.8454
  704MOL0     H94990   5.529  11.081   4.953 -0.9217  0.4220  0.8775
  704MOL0     H94991   5.214  10.965   4.973 -0.5236 -0.9787  0.4302
  704MOL0     H94992   5.002  10.988   5.175  0.3210 -0.7242  1.6037
  704MOL0     H94993   5.037  11.130   5.275 -1.7043  1.2225 -1.2491
  704MOL0     H94994   4.909  11.167   5.044 -0.6169  3.4094  1.0777
  704MOL0     H94995   5.073  11.199   4.992 -0.8633  1.8994 -0.3666
  704MOL0     H94996   5.108  11.378   5.151  0.2143  0.3199  1.3388
  704MOL0     H94997   4.968  11.329   5.254 -0.1003  0.8274 -0.1131
  704MOL0     H94998   4.947  11.421   4.962  0.4370  0.6252  0.7687
  704MOL0     H94999   4.902  11.519   5.103 -1.3110 -0.2408 -0.0374
  704MOL0     H95000   4.777  11.630   4.951 -0.6085  0.3032 -0.1867
  704MOL0     H95001   4.665  11.816   4.908  2.8027  0.3203 -2.2010
  704MOL0     H95002   4.649  11.769   4.743 -0.0650 -0.1478  0.2249
  704MOL0     H95003   4.513  11.827   4.809  1.7810  0.7540  0.8681
  704MOL0     H95004   4.096  11.448   4.644  1.7221  0.8007  0.5889
  704MOL0     H95005   3.870  11.520   4.569 -2.1169 -0.4083  1.7029
  704MOL0     H95006   3.714  11.665   4.489 -0.8441  3.2193  0.6252
  704MOL0     H95007   3.649  11.538   4.605  1.5225 -0.7460  1.3279
  704MOL0     H95008   3.535  11.817   4.556  0.5801  0.4370  1.5636
  704MOL0     H95009   3.467  11.661   4.481  3.6119 -1.8633 -0.4104
  704MOL0     H95010   3.468  11.711   4.779 -1.0962 -1.0964  1.5664
  704MOL0     H95011   3.409  11.565   4.687  0.0334  0.1372 -0.5904
  704MOL0     H95012   3.276  11.842   4.697 -3.5353 -0.1155  0.7228
  704MOL0     H95013   3.253  11.728   4.560 -2.0702  1.0253  0.0635
  704MOL0     H95014   3.206  11.662   4.850 -1.3525  1.0512  0.3911
  704MOL0     H95015   3.169  11.560   4.707 -2.8863  0.4882 -1.3913
  704MOL0     H95016   3.035  11.737   4.603  0.1579  1.4950  1.6241
  704MOL0     H95017   2.963  11.680   4.764 -2.2923  0.5195 -2.2178
  704MOL0     H95018   3.111  11.950   4.740  0.7967 -2.0232 -2.5765
  704MOL0     H95019   3.013  11.884   4.875  1.3557  0.9488  1.1886
  704MOL0     H95020   2.827  11.852   4.684  0.3410  1.1456 -1.9053
  704MOL0     H95021   2.926  11.982   4.610  0.5323  0.0136 -1.4171
  704MOL0     H95022   3.880  11.833   4.865 -1.1134 -1.3845  0.7486
  704MOL0     H95023   4.100  11.775   4.924  0.1605  1.4454 -1.7617
  704MOL0     H95024   4.356  11.368   4.926  0.2254 -0.8029  3.0517
  704MOL0     H95025   4.546  11.277   5.040 -1.7407  0.6992 -0.5995
  704MOL0     H95026   6.326  10.669   5.222  0.3221 -0.9893  1.5176
  704MOL0     H95027   6.431  10.884   5.198  1.0676  0.4722  1.1005
  704MOL0     H95028   6.446  11.349   5.327  0.0629 -1.5583 -1.0346
  704MOL0     H95029   6.598  11.560   5.256  1.3959 -0.6243 -0.9254
  704MOL0     H95030   6.503  11.714   4.890 -2.0975  2.7470  0.3118
  704MOL0     H95031   6.529  11.790   5.054  1.4660  2.5525 -0.6220
  704MOL0     H95032   6.763  11.856   4.988  0.5577  2.8601 -1.6558
  704MOL0     H95033   6.645  11.940   4.908  1.7400  1.5040  6.3745
  704MOL0     H95034   6.683  11.729   4.722  1.4788 -0.1251 -1.6444
  704MOL0     H95035   6.816  11.692   4.828  0.9918  1.1692 -0.2358
  704MOL0     H95036   6.939  11.890   4.788  0.6316 -0.3326 -0.3265
  704MOL0     H95037   6.795  11.973   4.735 -0.4544  0.0503  1.4560
  704MOL0     H95038   6.923  11.777   4.378  0.1715  0.5993 -0.9266
  704MOL0     H95039   6.478  11.475   4.845 -0.2053  1.1994 -0.2879
  704MOL0     H95040   6.353  11.288   4.914  2.0731  1.0545 -1.9663
  705MOL0     O95041   3.681   3.664  10.395 -0.1972 -0.1598 -0.0082
  705MOL0     C95042   3.690   3.605  10.497  0.2103  0.7528  0.6205
  705MOL0     O95043   3.592   3.532  10.554 -0.7362  0.0495 -0.9641
  705MOL0     C95044   3.466   3.523  10.501 -0.9480 -0.8889 -0.4973
  705MOL0     C95045   3.417   3.394  10.499 -0.3509  0.1428 -0.1912
  705MOL0     C95046   3.287   3.373  10.461  0.0164  0.0969 -1.1626
  705MOL0     C95047   3.216   3.471  10.399  0.7779  0.2183  0.7040
  705MOL0     O95048   3.092   3.450  10.345  0.2578  0.2768  0.6010
  705MOL0     C95049   3.049   3.312  10.319  0.4253  0.3190 -0.1775
  705MOL0     C95050   2.933   3.331  10.219 -0.1654 -0.0066 -0.3396
  705MOL0     C95051   2.970   3.392  10.082 -0.2793 -0.0380 -0.8059
  705MOL0     C95052   3.019   3.539  10.078  0.2830 -0.0967 -0.0025
  705MOL0     C95053   2.927   3.652  10.141 -0.0896 -0.0965 -0.8808
  705MOL0     C95054   2.996   3.793  10.123  0.5295  1.0898 -0.7195
  705MOL0     C95055   2.930   3.899  10.196  0.1079 -0.5361  0.0058
  705MOL0     C95056   2.996   3.898  10.347 -0.0661 -0.0448  0.0943
  705MOL0     N95057   2.968   4.018  10.426  0.5248  0.1500  0.0268
  705MOL0     C95058   2.943   4.022  10.568 -0.3724  0.4381  0.1048
  705MOL0     C95059   2.970   4.148  10.604  0.4328 -0.8068  0.4089
  705MOL0     C95060   3.001   4.206  10.745 -0.2360 -0.4440  0.4771
  705MOL0     C95061   2.973   4.111  10.862  0.4504 -0.7602 -0.6675
  705MOL0     C95062   2.816   4.088  10.879  0.2853  1.0529 -0.3308
  705MOL0     C95063   2.772   3.942  10.915 -1.0898 -0.1277  0.3229
  705MOL0     O95064   2.632   3.931  10.937 -0.6892  0.4958 -0.1730
  705MOL0     C95065   2.539   3.938  10.834  0.1154  0.2067  0.5995
  705MOL0     C95066   2.567   3.947  10.702  0.8910 -0.8175 -0.4906
  705MOL0     C95067   2.475   3.946  10.594 -0.9399  0.2010  0.3985
  705MOL0     C95068   2.520   3.962  10.451  0.0699 -0.6770  0.6048
  705MOL0     C95069   2.334   3.919  10.632 -0.0676 -0.9684  0.5598
  705MOL0     C95070   2.216   3.903  10.535 -0.0084  0.8342  0.4227
  705MOL0     O95071   2.118   3.821  10.587  0.1422 -0.1027  0.2966
  705MOL0     C95072   2.024   3.777  10.499  0.1643 -0.6111  0.1663
  705MOL0     C95073   2.007   3.638  10.478 -0.3721  0.6123  0.7713
  705MOL0     C95074   1.896   3.589  10.401  0.6941  0.4945  0.4631
  705MOL0     C95075   1.811   3.671  10.344 -0.0868  0.2170  0.1765
  705MOL0     O95076   1.707   3.636  10.258 -0.3176 -0.3921  0.0935
  705MOL0     C95077   1.583   3.648  10.316  0.7283 -0.2366 -0.8750
  705MOL0     C95078   1.462   3.653  10.234  0.0429 -0.1664  0.7920
  705MOL0     C95079   1.446   3.802  10.191  0.7527 -0.0569 -0.5733
  705MOL0     C95080   1.383   3.899  10.294 -0.1835  0.2381 -0.5746
  705MOL0     C95081   1.373   4.040  10.229  0.1234 -0.1347 -0.3892
  705MOL0     C95082   1.306   4.141  10.312  0.1778 -0.1208  0.4108
  705MOL0     C95083   1.313   4.272  10.233 -0.1926  0.0841 -0.0509
  705MOL0     C95084   1.230   4.370  10.312  0.5283  0.4284  0.4908
  705MOL0    Cl95085   1.337   4.414  10.451  0.7726 -0.1413 -0.3465
  705MOL0     C95086   1.828   3.806  10.360 -0.7834  0.1360 -0.1451
  705MOL0     C95087   1.931   3.865  10.437 -0.2004  0.9058 -0.0278
  705MOL0     O95088   2.228   3.937  10.418 -0.3346  0.0223  0.9275
  705MOL0     C95089   2.298   3.920  10.770 -0.0523 -0.8324 -0.1935
  705MOL0     C95090   2.401   3.931  10.867  0.7010  0.0221 -0.7177
  705MOL0     N95091   2.993   4.225  10.492  0.5447 -0.5730 -0.0136
  705MOL0     N95092   2.989   4.147  10.386  0.0907 -0.2428 -0.1756
  705MOL0     C95093   3.264   3.596  10.396 -0.9183  0.0752  0.6809
  705MOL0     C95094   3.393   3.629  10.438 -0.8110  0.7405 -1.1208
  705MOL0     C95095   3.816   3.614  10.573  0.7901  0.4921  0.9827
  705MOL0     C95096   3.807   3.594  10.711 -1.0727 -0.6026 -0.2566
  705MOL0     C95097   3.922   3.613  10.791  0.2878 -0.3750  0.0748
  705MOL0     C95098   4.045   3.639  10.723  1.0334  0.0222 -0.7001
  705MOL0     O95099   4.152   3.664  10.811  0.7147  0.7038  0.3655
  705MOL0     C95100   4.236   3.778  10.787  0.2130 -0.0884  0.1414
  705MOL0     C95101   4.377   3.745  10.746 -0.1182  0.0887  0.1606
  705MOL0     C95102   4.480   3.703  10.855  0.2104 -0.3828 -0.1288
  705MOL0     C95103   4.618   3.669  10.796 -0.6121 -0.1886 -0.6076
  705MOL0     C95104   4.699   3.792  10.758  1.2172  0.5351  1.1598
  705MOL0     C95105   4.774   3.885  10.724  0.4244  0.3679  1.2387
  705MOL0     C95106   4.057   3.630  10.585  0.3021  0.0592 -0.8511
  705MOL0     C95107   3.941   3.620  10.504  0.2934  0.4346 -0.2251
  705MOL0     H95108   3.462   3.311  10.553 -0.9851  2.9739  5.3280
  705MOL0     H95109   3.252   3.270  10.466  1.6846 -0.4922 -0.7134
  705MOL0     H95110   3.135   3.254  10.284 -1.6176 -1.1220 -3.1835
  705MOL0     H95111   3.003   3.263  10.406 -0.8258  1.6670 -0.0425
  705MOL0     H95112   2.891   3.231  10.202  1.0199 -0.4403 -0.8173
  705MOL0     H95113   2.853   3.394  10.259 -0.3156  1.1233 -2.3044
  705MOL0     H95114   3.046   3.329  10.035  1.1549 -0.7061  2.1574
  705MOL0     H95115   2.878   3.386  10.022 -1.7156  3.5367  0.7826
  705MOL0     H95116   3.124   3.554  10.106  0.4925 -0.2766 -0.6676
  705MOL0     H95117   3.002   3.562   9.972 -1.6326 -0.7893  0.1126
  705MOL0     H95118   2.830   3.641  10.093  0.7934 -2.3723 -2.3268
  705MOL0     H95119   2.925   3.635  10.249  3.3113 -0.2714 -0.7288
  705MOL0     H95120   3.104   3.802  10.137  0.4123 -1.3777  3.1804
  705MOL0     H95121   2.977   3.822  10.019 -2.2306 -0.4150 -0.7253
  705MOL0     H95122   2.934   3.992  10.140 -0.5289 -1.3814 -1.5016
  705MOL0     H95123   2.823   3.878  10.206 -0.6617  0.6650 -3.9838
  705MOL0     H95124   3.104   3.895  10.331 -0.4836  1.1114 -4.5708
  705MOL0     H95125   2.962   3.808  10.399 -2.3085 -1.0891 -2.8805
  705MOL0     H95126   2.933   3.949  10.648 -0.8590  0.5601  0.1552
  705MOL0     H95127   3.109   4.219  10.740 -0.3180  1.2341  2.0842
  705MOL0     H95128   2.946   4.301  10.755 -0.2736 -0.3486 -0.4808
  705MOL0     H95129   3.012   4.160  10.952  0.1596 -1.1379 -0.3284
  705MOL0     H95130   3.016   4.016  10.827 -0.3878 -1.1285 -0.7411
  705MOL0     H95131   2.773   4.101  10.779  1.5985  0.2397 -1.0506
  705MOL0     H95132   2.777   4.172  10.936 -0.1414  0.6479 -0.0156
  705MOL0     H95133   2.828   3.902  11.000  0.5483 -0.3474 -0.8112
  705MOL0     H95134   2.801   3.875  10.834 -0.4760  1.9673 -1.2720
  705MOL0     H95135   2.672   3.958  10.677  0.0352 -0.2326 -4.5400
  705MOL0     H95136   2.624   3.997  10.449 -0.8660  2.4049  0.6352
  705MOL0     H95137   2.525   3.873  10.387  0.4795 -0.2353  0.0151
  705MOL0     H95138   2.465   4.041  10.399  2.2883 -0.0322 -0.9256
  705MOL0     H95139   2.075   3.560  10.512  4.0257  4.3587  1.5946
  705MOL0     H95140   1.869   3.484  10.389 -3.6449  1.6150 -1.6351
  705MOL0     H95141   1.570   3.566  10.387 -0.6886  0.5291 -0.2042
  705MOL0     H95142   1.581   3.741  10.374 -1.5958  0.8719 -2.6033
  705MOL0     H95143   1.478   3.591  10.145  1.3760  4.1923 -2.3329
  705MOL0     H95144   1.386   3.617  10.304 -0.8589  2.4288  1.2455
  705MOL0     H95145   1.371   3.809  10.111 -0.0208 -0.9921  0.0481
  705MOL0     H95146   1.547   3.837  10.170  0.9033  0.6243  1.1474
  705MOL0     H95147   1.279   3.869  10.311  0.4729 -1.4301  0.7926
  705MOL0     H95148   1.434   3.897  10.390 -1.9409 -2.8504  0.4428
  705MOL0     H95149   1.339   4.028  10.126  1.5909 -2.3852 -0.7008
  705MOL0     H95150   1.476   4.077  10.218 -0.5971  1.5592 -1.8895
  705MOL0     H95151   1.201   4.114  10.326 -0.9820  3.7164  0.3177
  705MOL0     H95152   1.350   4.153  10.411 -1.7735 -2.0780  1.6274
  705MOL0     H95153   1.273   4.241  10.136 -0.4430 -0.9125  0.3558
  705MOL0     H95154   1.413   4.316  10.224 -0.9378  1.7360 -0.7270
  705MOL0     H95155   1.135   4.326  10.345 -0.0351 -1.2154 -2.9263
  705MOL0     H95156   1.195   4.460  10.262  0.6249 -0.4761 -1.2607
  705MOL0     H95157   1.763   3.880  10.315  0.8980  0.0528 -2.9303
  705MOL0     H95158   1.935   3.969  10.469 -0.4259  0.9062  0.0065
  705MOL0     H95159   2.196   3.936  10.805  0.1968  0.2700  0.0627
  705MOL0     H95160   2.378   3.906  10.970 -1.2271 -2.4027 -1.6314
  705MOL0     H95161   3.197   3.662  10.340 -0.9497  1.7543  2.6067
  705MOL0     H95162   3.422   3.733  10.437 -0.2516  0.6557  0.8411
  705MOL0     H95163   3.716   3.568  10.763  1.1203 -2.7876  2.8429
  705MOL0     H95164   3.921   3.607  10.900  5.6545  3.4162  0.7403
  705MOL0     H95165   4.192   3.834  10.704  1.3631  0.7666  0.0918
  705MOL0     H95166   4.230   3.838  10.878 -1.9086  0.1082 -0.0639
  705MOL0     H95167   4.419   3.829  10.689  0.4321 -1.4636 -1.8396
  705MOL0     H95168   4.372   3.664  10.673 -1.9429  0.8543 -0.6198
  705MOL0     H95169   4.454   3.617  10.916 -0.0392 -0.8340 -0.8599
  705MOL0     H95170   4.481   3.794  10.916  0.7883  0.8186 -1.8494
  705MOL0     H95171   4.604   3.599  10.713  0.8607  1.5105 -2.3804
  705MOL0     H95172   4.681   3.626  10.875  0.4212  2.3617  0.0383
  705MOL0     H95173   4.843   3.957  10.685  1.9851 -1.9746 -0.6399
  705MOL0     H95174   4.154   3.640  10.536  2.2337 -0.5870  2.4735
  705MOL0     H95175   3.949   3.633  10.397 -1.5838  1.5487 -0.2800
  706MOL0     O95176   0.432   8.576   9.891 -0.3590  0.4689 -0.0107
  706MOL0     C95177   0.458   8.511   9.795 -0.6008  1.1918 -0.5704
  706MOL0     O95178   0.392   8.391   9.766 -0.3759  0.0469 -0.1406
  706MOL0     C95179   0.292   8.348   9.849 -0.7819  0.4562 -0.1016
  706MOL0     C95180   0.194   8.428   9.911 -0.0725 -0.5773 -0.3855
  706MOL0     C95181   0.081   8.381   9.991 -0.1333  0.5299 -0.2052
  706MOL0     C95182   0.074   8.241  10.012 -0.5475  1.0581 -0.4528
  706MOL0     O95183  -0.025   8.187  10.082 -0.3238  1.8258  0.9235
  706MOL0     C95184  -0.155   8.260  10.094  0.5460 -0.3590 -0.4973
  706MOL0     C95185  -0.226   8.330   9.979  0.6956 -0.1210 -0.2293
  706MOL0     C95186  -0.378   8.353   9.993  1.1387 -0.4571 -0.5563
  706MOL0     C95187  -0.419   8.389   9.845  0.1150 -0.3052  0.3712
  706MOL0     C95188  -0.567   8.368   9.818 -0.4681  0.4072 -0.0228
  706MOL0     C95189  -0.663   8.448   9.907 -1.0471  0.5921 -1.3517
  706MOL0     C95190  -0.811   8.435   9.868  0.3345  0.2163 -0.2082
  706MOL0     C95191  -0.887   8.561   9.885  0.1501 -0.8021 -0.7182
  706MOL0     N95192  -0.914   8.576  10.029  0.1729 -0.2336  0.6007
  706MOL0     C95193  -0.825   8.609  10.132  0.2495 -0.0618 -0.3560
  706MOL0     C95194  -0.901   8.605  10.250 -0.4645 -0.7567 -0.1434
  706MOL0     C95195  -0.858   8.630  10.387  0.2309 -0.1927 -0.1373
  706MOL0     C95196  -0.780   8.758  10.403  0.1804 -0.8939  0.3226
  706MOL0     C95197  -0.860   8.884  10.398  0.6563 -0.8924  0.4425
  706MOL0     C95198  -0.801   8.983  10.287  0.5583 -0.1738  0.7706
  706MOL0     O95199  -0.890   9.101  10.304 -0.3569 -0.3809  0.1870
  706MOL0     C95200  -0.997   9.105  10.218 -0.2387  0.7544  0.1136
  706MOL0     C95201  -1.037   9.001  10.126 -0.4584 -0.0877 -0.2406
  706MOL0     C95202  -1.159   9.014  10.063 -0.0241  0.4108  1.3854
  706MOL0     C95203  -1.181   8.900   9.964 -0.2592 -0.1750 -0.3843
  706MOL0     C95204  -1.252   9.114  10.088 -0.3098 -0.0880 -0.4332
  706MOL0     C95205  -1.396   9.129  10.036  0.4620 -0.2657 -0.4833
  706MOL0     O95206  -1.470   9.237  10.077  0.4801 -0.0082 -0.2160
  706MOL0     C95207  -1.601   9.242  10.041 -1.4772  0.8857  0.5433
  706MOL0     C95208  -1.694   9.188  10.130 -0.4672 -0.3382 -0.1682
  706MOL0     C95209  -1.828   9.204  10.101  1.2017  0.6655  0.5952
  706MOL0     C95210  -1.880   9.271   9.987 -0.4490  0.2576  0.9658
  706MOL0     O95211  -2.004   9.278   9.933 -0.3122  0.0997  0.6322
  706MOL0     C95212  -2.123   9.217   9.999 -0.4168 -0.4674  0.2086
  706MOL0     C95213  -2.181   9.106   9.912 -0.3000  0.2671  0.3897
  706MOL0     C95214  -2.265   9.144   9.790 -0.1131 -0.4150 -0.0607
  706MOL0     C95215  -2.304   9.034   9.700  0.3694  0.4019 -0.0559
  706MOL0     C95216  -2.399   9.073   9.585  0.2318 -0.0632  0.3442
  706MOL0     C95217  -2.474   8.957   9.527  0.0393  0.8776 -0.5875
  706MOL0     C95218  -2.399   8.824   9.496 -0.0703 -0.4703 -0.2660
  706MOL0     C95219  -2.486   8.740   9.414  0.2818  0.3028  0.2037
  706MOL0    Cl95220  -2.397   8.587   9.385 -0.0666 -0.2741  0.2869
  706MOL0     C95221  -1.780   9.323   9.899 -0.2378 -1.0030  0.2943
  706MOL0     C95222  -1.645   9.311   9.924 -1.3614  0.8295 -0.0062
  706MOL0     O95223  -1.438   9.044   9.968 -0.2640  0.3062  0.2410
  706MOL0     C95224  -1.210   9.214  10.179  0.1284 -0.0306 -0.3340
  706MOL0     C95225  -1.087   9.208  10.234  0.5363 -0.2776 -0.0249
  706MOL0     N95226  -1.023   8.564  10.209  0.0856  0.0800 -0.6578
  706MOL0     N95227  -1.029   8.543  10.083 -0.7826 -0.1290  0.8247
  706MOL0     C95228   0.168   8.160   9.946  0.5932 -0.2018 -0.2835
  706MOL0     C95229   0.276   8.211   9.870 -0.0242 -0.2269  0.3674
  706MOL0     C95230   0.576   8.548   9.708  0.0116  0.4720  0.3622
  706MOL0     C95231   0.609   8.685   9.708 -0.8953 -0.1421 -0.1900
  706MOL0     C95232   0.710   8.728   9.619 -0.1665  0.0674  0.2220
  706MOL0     C95233   0.781   8.647   9.529 -0.2942 -0.4150 -0.1900
  706MOL0     O95234   0.880   8.714   9.445  0.3099  0.0675  0.3317
  706MOL0     C95235   0.938   8.648   9.338  0.7320 -0.7442 -0.6913
  706MOL0     C95236   0.844   8.645   9.212 -0.0772 -0.6400  0.1802
  706MOL0     C95237   0.926   8.623   9.084 -0.3990  0.5426 -0.3806
  706MOL0     C95238   0.843   8.572   8.969 -0.3110 -0.2794  0.0342
  706MOL0     C95239   0.786   8.443   8.990 -0.8206  1.7009  0.1725
  706MOL0     C95240   0.744   8.321   8.999 -0.6638  0.3005 -0.5678
  706MOL0     C95241   0.743   8.513   9.528 -0.6249  0.0547  0.6211
  706MOL0     C95242   0.642   8.465   9.613  0.4978 -0.6153  0.0726
  706MOL0     H95243   0.198   8.537   9.914  0.3903 -0.6036  1.8989
  706MOL0     H95244   0.020   8.447  10.052  0.3316  2.4820 -1.7516
  706MOL0     H95245  -0.227   8.185  10.128  0.1798 -0.1594 -0.8192
  706MOL0     H95246  -0.133   8.334  10.171 -0.1447 -0.6771  0.0119
  706MOL0     H95247  -0.179   8.428   9.965  0.2812  0.5770  2.6505
  706MOL0     H95248  -0.198   8.261   9.899  1.2804 -1.6472  1.2456
  706MOL0     H95249  -0.429   8.264  10.031 -0.2512  0.5994  0.1762
  706MOL0     H95250  -0.406   8.426  10.070 -0.3658 -0.2496 -1.2679
  706MOL0     H95251  -0.396   8.495   9.838  1.5154 -0.4373  2.1588
  706MOL0     H95252  -0.358   8.334   9.772 -1.3157  1.0806 -1.9876
  706MOL0     H95253  -0.600   8.389   9.715 -3.0279 -1.5251  0.3034
  706MOL0     H95254  -0.600   8.266   9.838 -1.9851  0.5680 -1.4672
  706MOL0     H95255  -0.639   8.421  10.010 -1.1922  0.8458 -1.2500
  706MOL0     H95256  -0.642   8.554   9.893  2.1038 -0.0189 -1.9774
  706MOL0     H95257  -0.830   8.411   9.763 -2.2071  1.6482 -0.1697
  706MOL0     H95258  -0.874   8.371   9.931 -1.6830  3.2880  1.1933
  706MOL0     H95259  -0.984   8.548   9.837  0.0547  0.0913 -0.7819
  706MOL0     H95260  -0.831   8.651   9.858 -0.5223 -0.6123 -1.5306
  706MOL0     H95261  -0.717   8.615  10.122  0.1656  0.0928 -1.3733
  706MOL0     H95262  -0.940   8.622  10.458 -1.1091 -0.6806 -1.6672
  706MOL0     H95263  -0.803   8.542  10.423 -1.8336 -1.5993 -0.2667
  706MOL0     H95264  -0.715   8.775  10.316 -0.0614  1.9763  0.6007
  706MOL0     H95265  -0.721   8.743  10.494  0.0686  1.5075  0.8829
  706MOL0     H95266  -0.870   8.936  10.493 -5.3728 -1.3805  0.5114
  706MOL0     H95267  -0.967   8.867  10.381  0.2579  1.0499  0.7545
  706MOL0     H95268  -0.783   8.941  10.188  3.1147  0.4550  0.8963
  706MOL0     H95269  -0.695   9.006  10.302  0.8333  0.6219 -1.9304
  706MOL0     H95270  -0.977   8.912  10.111 -0.6766 -0.0747 -1.2653
  706MOL0     H95271  -1.251   8.828  10.006  0.8825 -1.7195 -1.0324
  706MOL0     H95272  -1.222   8.941   9.871 -4.1297 -3.3334 -0.3417
  706MOL0     H95273  -1.087   8.855   9.932  0.5617  1.2542 -0.0729
  706MOL0     H95274  -1.649   9.134  10.213  0.3975  0.4976 -0.0606
  706MOL0     H95275  -1.909   9.174  10.167 -0.1962  0.6113 -1.0969
  706MOL0     H95276  -2.115   9.162  10.093 -1.0121 -3.8790 -1.5697
  706MOL0     H95277  -2.201   9.293  10.010 -0.5793 -0.4680 -0.8748
  706MOL0     H95278  -2.101   9.038   9.882 -1.2199  0.4046 -2.6493
  706MOL0     H95279  -2.242   9.055   9.988  1.0500 -1.6913  0.2278
  706MOL0     H95280  -2.211   9.222   9.737 -1.2666  0.7699  0.4644
  706MOL0     H95281  -2.362   9.181   9.824  0.7593  3.0874 -1.0776
  706MOL0     H95282  -2.212   8.995   9.654  0.0090  0.4762 -0.8592
  706MOL0     H95283  -2.349   8.951   9.755  2.7242  1.4276  3.8620
  706MOL0     H95284  -2.331   9.116   9.511  1.3225  2.5254  2.6534
  706MOL0     H95285  -2.472   9.143   9.625  0.8763  0.8237  0.0177
  706MOL0     H95286  -2.560   8.935   9.591 -0.5726  2.4141 -0.8420
  706MOL0     H95287  -2.525   8.997   9.439  2.5382  0.6081 -2.2676
  706MOL0     H95288  -2.362   8.770   9.584 -0.0861  1.9654  1.3081
  706MOL0     H95289  -2.310   8.837   9.434 -0.2812 -1.6617 -0.8529
  706MOL0     H95290  -2.518   8.789   9.322 -2.7279 -0.4762  0.7271
  706MOL0     H95291  -2.565   8.709   9.483 -0.3758 -2.8765 -1.7771
  706MOL0     H95292  -1.815   9.382   9.815  0.5643 -3.0670 -1.5974
  706MOL0     H95293  -1.565   9.350   9.862 -1.8601 -1.2623 -2.1151
  706MOL0     H95294  -1.271   9.301  10.201 -1.3943 -0.6974 -1.6754
  706MOL0     H95295  -1.055   9.291  10.297 -2.3582  0.1315  1.0276
  706MOL0     H95296   0.158   8.054   9.964 -0.2107 -0.0611  0.1323
  706MOL0     H95297   0.344   8.143   9.821 -1.1911 -0.3432 -1.1673
  706MOL0     H95298   0.549   8.752   9.767 -3.2498 -0.4114 -2.1424
  706MOL0     H95299   0.725   8.835   9.630 -2.2305  0.2156  2.6011
  706MOL0     H95300   1.027   8.708   9.314  0.8268 -0.2841  0.7210
  706MOL0     H95301   0.979   8.551   9.366  0.3719 -0.8269 -0.4558
  706MOL0     H95302   0.792   8.738   9.188  0.6491 -0.7485 -2.1535
  706MOL0     H95303   0.774   8.561   9.217  1.5301 -1.9707  1.2619
  706MOL0     H95304   1.009   8.556   9.110  1.1591  2.7528  0.6688
  706MOL0     H95305   0.970   8.718   9.051  0.2622 -0.3496 -2.1614
  706MOL0     H95306   0.901   8.580   8.877 -1.5991  1.6306 -0.6716
  706MOL0     H95307   0.759   8.641   8.954 -0.0457  0.5398  2.0011
  706MOL0     H95308   0.725   8.217   8.985  0.2780  0.0789 -0.2963
  706MOL0     H95309   0.778   8.443   9.453  1.0804  1.1358  0.3452
  706MOL0     H95310   0.611   8.361   9.616  0.5836 -0.6380  2.4646
  707MOL0     O95311   5.751   7.352   2.463  0.4844  0.0297 -0.7703
  707MOL0     C95312   5.778   7.320   2.580  1.0331  0.2178 -0.4550
  707MOL0     O95313   5.718   7.221   2.650 -0.0495  0.0041  0.2714
  707MOL0     C95314   5.617   7.147   2.595  0.4438 -0.2953  0.5863
  707MOL0     C95315   5.478   7.189   2.594  1.2072  0.2789 -0.4447
  707MOL0     C95316   5.380   7.086   2.555  0.0863  0.0380 -0.5138
  707MOL0     C95317   5.423   6.958   2.523  0.0484 -0.1915  0.3464
  707MOL0     O95318   5.329   6.861   2.497  0.3256  0.4540 -0.1438
  707MOL0     C95319   5.233   6.886   2.393  0.1049 -0.1586  0.1812
  707MOL0     C95320   5.145   6.770   2.360 -0.5256 -0.1335 -0.5476
  707MOL0     C95321   5.210   6.656   2.279 -0.3186 -0.0068 -0.0795
  707MOL0     C95322   5.327   6.588   2.355  0.5486 -0.2362 -0.0477
  707MOL0     C95323   5.374   6.488   2.262  0.0746 -0.2502  1.1977
  707MOL0     C95324   5.472   6.384   2.330  0.1382 -0.2401 -0.6847
  707MOL0     C95325   5.559   6.440   2.444  0.9171 -0.1418  0.2106
  707MOL0     C95326   5.665   6.539   2.395  0.3453  0.0596 -0.6067
  707MOL0     N95327   5.778   6.541   2.488 -0.6337 -0.2532  0.4358
  707MOL0     C95328   5.764   6.526   2.621  0.0521  0.1987  1.1224
  707MOL0     C95329   5.877   6.590   2.670  0.1845  0.1132 -0.3946
  707MOL0     C95330   5.926   6.592   2.817  1.3132 -0.6972 -1.0380
  707MOL0     C95331   6.043   6.682   2.833 -1.2515 -0.3159 -0.5550
  707MOL0     C95332   6.086   6.678   2.977 -0.0137 -0.4391 -0.2255
  707MOL0     C95333   6.203   6.780   3.002  0.6555 -0.1077 -0.6836
  707MOL0     O95334   6.315   6.779   2.917 -0.2005 -0.4918  0.4120
  707MOL0     C95335   6.429   6.842   2.958 -0.1942 -0.2842  0.1228
  707MOL0     C95336   6.548   6.815   2.889 -0.3398 -0.3915  0.4235
  707MOL0     C95337   6.679   6.852   2.926 -0.2502 -0.1493  0.5032
  707MOL0     C95338   6.795   6.818   2.833 -0.4422  1.4993  0.1743
  707MOL0     C95339   6.693   6.938   3.034 -0.3391  0.1189 -0.0194
  707MOL0     C95340   6.822   6.978   3.098 -1.0401 -0.0434  0.6274
  707MOL0     O95341   6.942   6.960   3.026 -0.7062  0.2348 -0.0486
  707MOL0     C95342   7.065   6.994   3.087  0.2207 -0.0800 -0.4686
  707MOL0     C95343   7.163   7.058   3.007 -0.5949 -0.4500 -0.7195
  707MOL0     C95344   7.284   7.103   3.057  0.0648 -0.6986  0.2302
  707MOL0     C95345   7.319   7.082   3.191  0.7269  0.9466  0.3067
  707MOL0     O95346   7.443   7.135   3.222 -0.5064  0.2132 -0.9384
  707MOL0     C95347   7.491   7.121   3.357 -0.4329  0.2357 -0.0162
  707MOL0     C95348   7.617   7.211   3.374  0.3667  0.0202 -0.7429
  707MOL0     C95349   7.695   7.202   3.503  0.2757 -1.0376 -0.4210
  707MOL0     C95350   7.610   7.235   3.625  0.1713  0.0815  0.7829
  707MOL0     C95351   7.699   7.258   3.756 -0.2469  0.9128  0.1469
  707MOL0     C95352   7.622   7.343   3.857 -0.1280 -0.6098 -1.0611
  707MOL0     C95353   7.705   7.357   3.991  0.1172 -0.1114 -0.1345
  707MOL0     C95354   7.660   7.480   4.072  0.0018  0.4948 -0.3983
  707MOL0    Cl95355   7.737   7.503   4.238  0.0745  0.1521  0.2439
  707MOL0     C95356   7.232   6.994   3.262 -0.0118 -0.0371 -0.3367
  707MOL0     C95357   7.108   6.957   3.221  0.0177  0.4560 -0.5473
  707MOL0     O95358   6.812   7.035   3.200  0.2964  0.0026 -0.4146
  707MOL0     C95359   6.575   6.994   3.088 -0.5037  0.3608  0.1792
  707MOL0     C95360   6.446   6.939   3.056  0.6044  0.3687  0.1669
  707MOL0     N95361   5.946   6.645   2.562  1.0004  0.5179  1.0379
  707MOL0     N95362   5.884   6.616   2.459 -0.1637  0.2746  0.4233
  707MOL0     C95363   5.561   6.929   2.523 -1.0199 -1.0115  0.7984
  707MOL0     C95364   5.659   7.017   2.556  0.2896  0.3135 -0.3567
  707MOL0     C95365   5.899   7.377   2.650 -0.2088  0.0464 -0.1259
  707MOL0     C95366   6.010   7.425   2.580  0.3296  1.0212  0.7878
  707MOL0     C95367   6.107   7.492   2.659 -0.9753 -0.5208  0.7184
  707MOL0     C95368   6.101   7.498   2.793 -0.8614 -0.2667 -0.1660
  707MOL0     O95369   6.226   7.533   2.861  0.4038 -0.0781 -0.1599
  707MOL0     C95370   6.223   7.659   2.931  0.5608 -0.0524  0.0322
  707MOL0     C95371   6.310   7.664   3.056 -0.0445  0.9221 -0.1844
  707MOL0     C95372   6.238   7.572   3.171 -0.1452 -1.2940 -0.2692
  707MOL0     C95373   6.162   7.646   3.278  0.0695 -0.3625  0.4407
  707MOL0     C95374   6.076   7.541   3.333 -0.2806  0.2976  0.0426
  707MOL0     C95375   5.999   7.459   3.373 -0.9330  0.3303 -1.1594
  707MOL0     C95376   5.988   7.442   2.863  0.3987 -0.5279  0.1947
  707MOL0     C95377   5.888   7.390   2.785 -0.1685 -0.0051 -0.8107
  707MOL0     H95378   5.460   7.295   2.608  2.1737  0.0788  3.3065
  707MOL0     H95379   5.279   7.127   2.557 -0.5691 -1.4834 -0.9808
  707MOL0     H95380   5.171   6.970   2.425  0.1403  0.1161 -0.4487
  707MOL0     H95381   5.282   6.916   2.299 -1.0976 -2.1483 -1.1585
  707MOL0     H95382   5.101   6.732   2.453 -2.6118 -1.2184 -1.9033
  707MOL0     H95383   5.058   6.812   2.309 -0.1496  0.4510 -0.7217
  707MOL0     H95384   5.142   6.576   2.249  0.9044 -1.2447  0.3296
  707MOL0     H95385   5.239   6.692   2.180 -1.1280 -1.7453 -0.9809
  707MOL0     H95386   5.401   6.664   2.380 -1.3747  1.6964  0.1521
  707MOL0     H95387   5.300   6.535   2.447  1.4216 -1.3555 -0.4156
  707MOL0     H95388   5.297   6.424   2.219  0.5480 -0.0455  0.0118
  707MOL0     H95389   5.427   6.539   2.181 -1.0693 -0.1303  0.5032
  707MOL0     H95390   5.417   6.301   2.375  0.6787 -0.2818 -0.0803
  707MOL0     H95391   5.518   6.339   2.242  2.2247  3.2003 -1.5396
  707MOL0     H95392   5.499   6.483   2.524  0.5866  0.2029 -0.2180
  707MOL0     H95393   5.596   6.348   2.491 -0.4896 -1.6703 -1.5414
  707MOL0     H95394   5.616   6.636   2.390 -1.6350 -0.6610  2.4807
  707MOL0     H95395   5.698   6.514   2.294 -1.9105 -0.0907 -1.3389
  707MOL0     H95396   5.707   6.454   2.677  0.6861 -0.7293  0.6008
  707MOL0     H95397   5.841   6.625   2.878  1.1926 -2.9557  0.1117
  707MOL0     H95398   5.938   6.485   2.837 -0.6135 -0.5408  1.4405
  707MOL0     H95399   6.020   6.786   2.808  0.1715  0.1574  0.0442
  707MOL0     H95400   6.127   6.650   2.771 -2.3510 -3.2081 -0.7335
  707MOL0     H95401   6.112   6.573   2.997  1.1444 -0.6400 -2.4066
  707MOL0     H95402   6.002   6.694   3.044  1.6359  0.8172  1.6564
  707MOL0     H95403   6.230   6.792   3.108 -2.2207  5.4424 -0.2265
  707MOL0     H95404   6.155   6.876   2.980  0.2752 -0.4781 -1.4704
  707MOL0     H95405   6.537   6.754   2.800  0.5952 -3.4947  2.2761
  707MOL0     H95406   6.758   6.754   2.753  0.1392  1.1329  0.1869
  707MOL0     H95407   6.849   6.906   2.796  0.9005 -0.5318 -3.1681
  707MOL0     H95408   6.853   6.753   2.900 -2.0345  0.2550  0.3924
  707MOL0     H95409   7.123   7.071   2.907 -1.3382  1.1692 -0.2399
  707MOL0     H95410   7.347   7.157   2.987  1.4133 -1.2760  0.9630
  707MOL0     H95411   7.418   7.150   3.433  0.5435 -1.8026  1.8140
  707MOL0     H95412   7.533   7.022   3.375  0.0507  0.6600  1.3109
  707MOL0     H95413   7.683   7.186   3.290  0.1669 -3.2805 -0.0340
  707MOL0     H95414   7.582   7.315   3.365  0.4502  0.0502 -0.7227
  707MOL0     H95415   7.772   7.279   3.494  0.4099 -1.1010  0.1385
  707MOL0     H95416   7.735   7.100   3.505  0.1667 -1.1155 -1.6096
  707MOL0     H95417   7.565   7.331   3.601  1.6628  0.2910 -1.3852
  707MOL0     H95418   7.540   7.152   3.638  0.4542  0.1617  3.2880
  707MOL0     H95419   7.785   7.318   3.726 -0.0414  0.3681 -0.3721
  707MOL0     H95420   7.729   7.162   3.801 -1.2374 -0.2309 -1.5339
  707MOL0     H95421   7.603   7.437   3.806  1.3035 -2.2497 -5.0172
  707MOL0     H95422   7.525   7.295   3.871 -1.5400  1.7311 -2.2305
  707MOL0     H95423   7.814   7.360   3.983  0.2410  0.9673  1.5504
  707MOL0     H95424   7.680   7.268   4.049  2.0672 -1.2319 -0.8824
  707MOL0     H95425   7.551   7.479   4.074 -0.0511  1.2055 -1.5977
  707MOL0     H95426   7.694   7.566   4.013  1.6837 -0.7657 -1.3645
  707MOL0     H95427   7.265   6.945   3.353  1.8246  3.9844  1.4040
  707MOL0     H95428   7.052   6.878   3.271  2.3267 -0.1801  1.1682
  707MOL0     H95429   6.586   7.066   3.169  2.4072 -1.9511  2.0469
  707MOL0     H95430   6.354   6.966   3.107  1.2908  0.3301  1.4614
  707MOL0     H95431   5.589   6.828   2.494 -1.5046 -1.8004  2.8772
  707MOL0     H95432   5.761   6.980   2.556  0.6557  1.1609  1.7922
  707MOL0     H95433   6.017   7.404   2.474  1.3425  1.0572  0.8299
  707MOL0     H95434   6.193   7.543   2.615 -1.3329 -1.6130 -1.4359
  707MOL0     H95435   6.252   7.745   2.870  1.5803  1.1394  2.0741
  707MOL0     H95436   6.120   7.687   2.956  1.2422  1.9589  0.7701
  707MOL0     H95437   6.320   7.760   3.106  4.2828 -0.2350  1.5832
  707MOL0     H95438   6.412   7.641   3.025 -0.6205 -2.4861  0.0853
  707MOL0     H95439   6.321   7.519   3.218  2.8743  3.9319  0.9960
  707MOL0     H95440   6.173   7.498   3.122 -0.0132 -1.4874 -0.1504
  707MOL0     H95441   6.107   7.723   3.225 -0.5266 -1.4971 -0.6414
  707MOL0     H95442   6.227   7.694   3.352 -1.1460 -0.0684  1.3611
  707MOL0     H95443   5.956   7.369   3.414 -0.2979 -0.5815 -2.4349
  707MOL0     H95444   5.992   7.449   2.971 -1.6873  2.8417  0.1900
  707MOL0     H95445   5.800   7.363   2.841 -1.7770  2.4493 -1.9546
  708MOL0     O95446   9.508  11.120   9.030 -0.3484  1.0321  0.3633
  708MOL0     C95447   9.484  11.007   8.992  0.2334  0.9870 -0.6144
  708MOL0     O95448   9.353  10.949   9.002  0.0008  0.0092 -0.1738
  708MOL0     C95449   9.237  11.025   9.004  0.8876 -0.4231 -0.7772
  708MOL0     C95450   9.210  11.124   8.917 -0.1195  0.2718  0.1576
  708MOL0     C95451   9.087  11.186   8.917 -0.1189  0.2549 -0.1946
  708MOL0     C95452   8.991  11.157   9.003 -0.2987 -0.6298 -0.0235
  708MOL0     O95453   8.872  11.224   9.007  0.6961 -0.2648 -0.5355
  708MOL0     C95454   8.755  11.160   9.065 -0.1087 -0.6629 -0.2800
  708MOL0     C95455   8.654  11.277   9.067 -0.8196 -0.2822 -1.0325
  708MOL0     C95456   8.582  11.286   8.932 -0.1305 -0.0686 -0.0558
  708MOL0     C95457   8.508  11.414   8.910 -0.1072 -1.3150 -0.1075
  708MOL0     C95458   8.414  11.416   8.788 -0.1537  0.3378 -0.7590
  708MOL0     C95459   8.358  11.554   8.747 -1.1216 -0.1622 -0.4311
  708MOL0     C95460   8.247  11.532   8.646 -0.6363  0.5392  0.6855
  708MOL0     C95461   8.172  11.665   8.620 -1.0338  0.7621  0.5624
  708MOL0     N95462   8.068  11.658   8.521 -0.3124 -0.0388  0.8307
  708MOL0     C95463   8.077  11.618   8.388  0.4982  0.2594  0.6348
  708MOL0     C95464   7.957  11.661   8.334 -0.1506  0.0198  0.0581
  708MOL0     C95465   7.912  11.649   8.188 -0.0738 -0.8123 -0.6548
  708MOL0     C95466   7.975  11.752   8.101 -0.0341  0.0663  0.4266
  708MOL0     C95467   7.961  11.713   7.955  0.3305  1.2628  0.6850
  708MOL0     C95468   8.063  11.782   7.864  0.9018 -0.0171  1.5539
  708MOL0     O95469   8.032  11.918   7.845  0.1806 -0.6775 -0.7354
  708MOL0     C95470   7.926  11.964   7.771 -0.3701 -0.4290  0.8329
  708MOL0     C95471   7.890  12.093   7.789 -0.0405  0.1488  0.2436
  708MOL0     C95472   7.794  12.161   7.713  0.1533 -0.5745  0.5205
  708MOL0     C95473   7.776  12.311   7.725 -0.3689 -0.0702  0.2230
  708MOL0     C95474   7.706  12.077   7.640  0.2181  0.7674  0.5040
  708MOL0     C95475   7.578  12.120   7.561 -0.1561 -0.7920  0.0945
  708MOL0     O95476   7.548  12.255   7.552  0.2212 -0.6047 -0.9898
  708MOL0     C95477   7.427  12.276   7.479  0.1753  0.9736 -0.2271
  708MOL0     C95478   7.308  12.286   7.555  0.6344 -0.7300  0.0218
  708MOL0     C95479   7.190  12.296   7.477 -0.1406 -0.8349 -0.5223
  708MOL0     C95480   7.192  12.301   7.344  0.3038  0.0709  0.2694
  708MOL0     O95481   7.089  12.329   7.264 -0.4180  0.5472 -0.4500
  708MOL0     C95482   6.955  12.268   7.282  0.4792 -1.5385  0.5309
  708MOL0     C95483   6.853  12.385   7.313 -0.3225  0.0626 -1.0568
  708MOL0     C95484   6.721  12.315   7.330 -0.0651 -0.9264  0.7283
  708MOL0     C95485   6.612  12.419   7.330  0.1514  0.2668  0.0504
  708MOL0     C95486   6.474  12.378   7.355 -0.9585  0.2216 -0.3617
  708MOL0     C95487   6.379  12.500   7.334  0.4103  0.1194 -0.0111
  708MOL0     C95488   6.236  12.449   7.348  0.3306  0.2693 -0.2964
  708MOL0     C95489   6.141  12.571   7.370  0.0788  0.7683  0.8746
  708MOL0    Cl95490   5.976  12.518   7.359 -0.4850  0.4378 -0.1655
  708MOL0     C95491   7.320  12.320   7.278 -0.3322  0.6088  0.2582
  708MOL0     C95492   7.435  12.320   7.352 -0.1385  1.2108 -0.4047
  708MOL0     O95493   7.496  12.033   7.537  0.1347 -0.7000  0.0465
  708MOL0     C95494   7.746  11.936   7.612 -0.6110 -0.0843  0.3189
  708MOL0     C95495   7.859  11.886   7.681 -0.1203  0.4980 -0.0416
  708MOL0     N95496   7.880  11.703   8.442 -0.0890 -0.5798  0.2303
  708MOL0     N95497   7.944  11.695   8.548  0.8797 -0.4240 -0.0373
  708MOL0     C95498   9.017  11.055   9.098  0.7119  0.3916 -0.9080
  708MOL0     C95499   9.140  10.996   9.101 -0.2140  0.7087 -0.2375
  708MOL0     C95500   9.595  10.926   8.929  0.4438 -0.8422 -0.2574
  708MOL0     C95501   9.727  10.968   8.918 -0.5516  0.8358  0.1396
  708MOL0     C95502   9.829  10.891   8.875 -0.0137 -0.4508  0.5317
  708MOL0     C95503   9.801  10.769   8.808  0.9411  0.0804 -0.0014
  708MOL0     O95504   9.909  10.720   8.738 -0.3366 -0.6128 -1.2545
  708MOL0     C95505   9.892  10.599   8.655  0.3448 -0.0520 -0.2570
  708MOL0     C95506   9.918  10.477   8.746 -0.7572 -0.1918 -0.2536
  708MOL0     C95507  10.062  10.446   8.784 -1.1948  0.0299  0.0543
  708MOL0     C95508  10.152  10.447   8.654  0.0916 -0.3930  0.9218
  708MOL0     C95509  10.280  10.383   8.676 -0.0640  0.0414  0.7119
  708MOL0     C95510  10.389  10.340   8.706 -0.5874  0.1635 -0.1310
  708MOL0     C95511   9.668  10.723   8.812  0.0117  0.1895 -0.6658
  708MOL0     C95512   9.565  10.793   8.883  0.9705 -0.9938  0.2939
  708MOL0     H95513   9.278  11.160   8.841  0.2860 -1.1816 -0.1924
  708MOL0     H95514   9.073  11.260   8.839 -1.9284 -0.8011 -0.9495
  708MOL0     H95515   8.715  11.083   8.999 -0.4648 -0.0745 -0.7587
  708MOL0     H95516   8.765  11.128   9.169  3.0956  0.4288 -0.1086
  708MOL0     H95517   8.596  11.249   9.155  2.0596 -2.6991  0.2685
  708MOL0     H95518   8.697  11.375   9.089 -2.2522  0.0962  0.2161
  708MOL0     H95519   8.665  11.284   8.860  0.2849 -0.4387  0.4225
  708MOL0     H95520   8.512  11.202   8.933  0.0388 -0.3305 -2.7019
  708MOL0     H95521   8.448  11.444   8.997  0.5030  2.0491 -0.7167
  708MOL0     H95522   8.585  11.488   8.889  1.7579 -2.3633  2.4886
  708MOL0     H95523   8.464  11.363   8.706  1.6121  0.5837  0.1093
  708MOL0     H95524   8.328  11.354   8.815  0.1234  0.7893  1.3616
  708MOL0     H95525   8.313  11.596   8.838 -3.8483 -3.8580  0.1537
  708MOL0     H95526   8.443  11.613   8.712 -0.0863 -1.6118 -0.4300
  708MOL0     H95527   8.298  11.486   8.561  1.7735  2.2779  1.0538
  708MOL0     H95528   8.175  11.459   8.683  0.2110 -0.6531  0.0266
  708MOL0     H95529   8.251  11.736   8.595 -0.8495  0.3638 -0.0139
  708MOL0     H95530   8.134  11.706   8.714  2.3305  0.5504  2.1629
  708MOL0     H95531   8.155  11.566   8.333  0.7166 -0.0802  1.2425
  708MOL0     H95532   7.930  11.546   8.156 -0.3112 -1.1615  0.3359
  708MOL0     H95533   7.805  11.661   8.171 -0.0265 -0.7896 -0.9471
  708MOL0     H95534   8.081  11.762   8.122 -0.2152  0.5932  1.1113
  708MOL0     H95535   7.927  11.849   8.116 -1.7265 -0.7829  0.8323
  708MOL0     H95536   7.861  11.731   7.915  0.7067 -0.9027 -1.4786
  708MOL0     H95537   7.992  11.609   7.943 -1.1053  0.9600 -0.7151
  708MOL0     H95538   8.059  11.749   7.760  2.0292  1.6649  0.9379
  708MOL0     H95539   8.164  11.766   7.902  1.2475  0.8161  0.9957
  708MOL0     H95540   7.957  12.145   7.858  1.4778  0.0518 -1.0845
  708MOL0     H95541   7.674  12.351   7.723 -0.2789  0.2034  0.9981
  708MOL0     H95542   7.820  12.346   7.819 -0.4377 -0.1098  0.2694
  708MOL0     H95543   7.835  12.355   7.644  0.9037  0.7407  1.5380
  708MOL0     H95544   7.317  12.264   7.661  1.3347  0.2584  0.1784
  708MOL0     H95545   7.097  12.290   7.532 -0.8009  0.6678 -1.3972
  708MOL0     H95546   6.927  12.226   7.186  0.2731 -1.3778  0.5174
  708MOL0     H95547   6.939  12.192   7.359 -0.9403 -2.1228 -0.2979
  708MOL0     H95548   6.875  12.433   7.409 -2.7785 -0.2662 -0.2742
  708MOL0     H95549   6.849  12.453   7.226  0.5307  1.2063 -0.2374
  708MOL0     H95550   6.717  12.261   7.425 -1.9225 -3.6449 -0.7663
  708MOL0     H95551   6.705  12.250   7.243  0.0080  0.9296 -0.7321
  708MOL0     H95552   6.636  12.506   7.391 -1.7923  0.1876  1.0104
  708MOL0     H95553   6.613  12.448   7.225  3.3433  0.6171  0.0680
  708MOL0     H95554   6.476  12.343   7.459 -0.4857 -1.6422 -0.9518
  708MOL0     H95555   6.450  12.314   7.269 -0.1939  1.8428 -1.8346
  708MOL0     H95556   6.404  12.566   7.418  3.0177 -0.9751  0.1784
  708MOL0     H95557   6.393  12.550   7.238 -2.5782  1.5841  0.2089
  708MOL0     H95558   6.226  12.376   7.428  1.2343 -0.8345 -1.1636
  708MOL0     H95559   6.212  12.398   7.254  1.1918 -2.0171  0.6556
  708MOL0     H95560   6.170  12.648   7.297 -0.6032  0.4630  0.2641
  708MOL0     H95561   6.152  12.615   7.469 -1.6252  2.0451  0.5438
  708MOL0     H95562   7.318  12.337   7.171 -2.0286  2.5332  0.5232
  708MOL0     H95563   7.524  12.339   7.292  0.3737 -2.4827 -1.0179
  708MOL0     H95564   7.692  11.866   7.548  0.0661 -2.7840  2.4902
  708MOL0     H95565   7.878  11.782   7.660  0.3279  0.5161  0.2655
  708MOL0     H95566   8.950  11.026   9.179  2.9206  2.4434  1.8664
  708MOL0     H95567   9.150  10.914   9.172 -0.1196  0.1108 -0.9382
  708MOL0     H95568   9.753  11.066   8.956  1.7058  0.2243  0.2990
  708MOL0     H95569   9.931  10.923   8.891 -0.8354  1.6802  1.9965
  708MOL0     H95570   9.788  10.597   8.622 -1.1928  0.2929  3.9427
  708MOL0     H95571   9.956  10.605   8.567 -2.8475 -1.9185 -2.9353
  708MOL0     H95572   9.876  10.398   8.682  2.1971 -0.7572 -1.6377
  708MOL0     H95573   9.863  10.479   8.841  0.2944 -2.6474  0.4899
  708MOL0     H95574  10.057  10.344   8.823 -1.6255  0.3656  0.9033
  708MOL0     H95575  10.097  10.514   8.863 -0.7966 -0.5295  0.3673
  708MOL0     H95576  10.181  10.549   8.628 -0.5989 -0.0845  1.3396
  708MOL0     H95577  10.107  10.408   8.562  1.1196 -1.3086  0.7806
  708MOL0     H95578  10.483  10.304   8.743 -0.5249  0.8425  0.4014
  708MOL0     H95579   9.658  10.623   8.772  1.1739  0.1209 -0.8154
  708MOL0     H95580   9.469  10.745   8.900  1.6474 -1.9238  1.7890
  709MOL0     O95581  10.074   5.739   8.356  0.0432 -0.4267 -0.0457
  709MOL0     C95582  10.163   5.806   8.298 -0.9061 -1.0181  0.0967
  709MOL0     O95583  10.142   5.907   8.215 -0.5717  0.5119 -0.1099
  709MOL0     C95584  10.021   5.968   8.197  0.4318 -0.3349 -0.5637
  709MOL0     C95585   9.897   5.909   8.188  0.0184 -0.4700 -0.0443
  709MOL0     C95586   9.785   5.985   8.165 -0.5553  0.5757 -0.1079
  709MOL0     C95587   9.790   6.126   8.152  0.6528  0.1060  0.1307
  709MOL0     O95588   9.675   6.191   8.136  0.2965 -0.1955 -0.1793
  709MOL0     C95589   9.655   6.340   8.147 -0.3898 -0.4925  0.5361
  709MOL0     C95590   9.505   6.373   8.123  0.8757  0.3507 -0.6448
  709MOL0     C95591   9.448   6.323   7.995 -0.2410  0.0776  0.5133
  709MOL0     C95592   9.310   6.358   7.987  0.0596  0.1014 -1.0098
  709MOL0     C95593   9.266   6.322   7.848 -0.7397 -1.0355  0.1839
  709MOL0     C95594   9.111   6.309   7.830  0.0318 -0.2637  0.5280
  709MOL0     C95595   9.084   6.284   7.683  0.5612  0.2935 -0.0071
  709MOL0     C95596   8.945   6.226   7.655  0.2844  0.7844 -0.0217
  709MOL0     N95597   8.942   6.174   7.517  0.1723 -0.8783 -0.7177
  709MOL0     C95598   8.895   6.051   7.476 -0.0465  0.1667  0.1188
  709MOL0     C95599   8.883   6.064   7.342  0.3040  0.0533  0.4074
  709MOL0     C95600   8.842   5.952   7.243 -0.1110 -0.9878  0.3998
  709MOL0     C95601   8.874   5.990   7.101 -0.3235  0.4047  0.5376
  709MOL0     C95602   8.821   5.866   7.014 -0.1047  0.5386 -0.3233
  709MOL0     C95603   8.866   5.858   6.872  0.1467  0.1029 -0.4825
  709MOL0     O95604   9.016   5.856   6.866 -0.3860 -0.1551 -0.9293
  709MOL0     C95605   9.087   5.911   6.766  0.4932 -0.3401 -0.0165
  709MOL0     C95606   9.218   5.882   6.752 -1.0115  0.6286  0.1415
  709MOL0     C95607   9.301   5.933   6.654  0.0304  0.1904 -0.7033
  709MOL0     C95608   9.440   5.896   6.652 -0.9302 -0.2421  0.0482
  709MOL0     C95609   9.242   6.027   6.560  0.1935 -0.6978  0.3542
  709MOL0     C95610   9.310   6.073   6.445  0.4517 -0.0848 -0.5341
  709MOL0     O95611   9.419   6.009   6.404  0.5089 -0.4033  1.0990
  709MOL0     C95612   9.477   6.022   6.277  0.5352  0.6345 -0.0959
  709MOL0     C95613   9.410   6.069   6.159 -0.5334 -0.3451 -0.1764
  709MOL0     C95614   9.466   6.070   6.032  0.8916  0.1063 -0.3721
  709MOL0     C95615   9.590   6.024   6.013  1.1501  0.1573  0.1570
  709MOL0     O95616   9.652   6.011   5.890  0.5773  0.1550 -0.1595
  709MOL0     C95617   9.658   6.132   5.814  0.4782  0.4774 -0.6147
  709MOL0     C95618   9.781   6.147   5.743 -0.4793 -0.2202  0.5166
  709MOL0     C95619   9.882   6.208   5.842 -0.1085  0.0553  0.3603
  709MOL0     C95620  10.030   6.195   5.795  0.9235 -0.4100 -0.2621
  709MOL0     C95621  10.117   6.205   5.918 -0.6870  0.0072  0.6343
  709MOL0     C95622  10.251   6.131   5.890  0.6934 -0.0771 -0.0434
  709MOL0     C95623  10.242   5.975   5.901  0.0416 -1.2540  0.9212
  709MOL0     C95624  10.193   5.923   6.041 -0.4818  0.1356  1.3436
  709MOL0    Cl95625  10.016   5.917   6.051  0.1917  0.3673 -0.2191
  709MOL0     C95626   9.658   5.965   6.119 -0.4006 -0.2970 -0.4201
  709MOL0     C95627   9.602   5.970   6.252  0.7654  0.5932  0.6441
  709MOL0     O95628   9.256   6.173   6.400  0.5430  0.2724  0.0277
  709MOL0     C95629   9.108   6.065   6.586 -0.5803 -0.7564  0.0551
  709MOL0     C95630   9.042   6.010   6.685  0.3871 -0.0392  0.2720
  709MOL0     N95631   8.926   6.191   7.310 -0.2361 -0.1810 -0.0351
  709MOL0     N95632   8.962   6.262   7.413 -0.1923  0.1257 -0.0399
  709MOL0     C95633   9.916   6.186   8.151 -0.7580 -0.0587  0.0187
  709MOL0     C95634  10.031   6.105   8.175 -0.0688  0.3526 -0.4882
  709MOL0     C95635  10.306   5.786   8.332 -0.5282  1.3464 -0.2092
  709MOL0     C95636  10.409   5.883   8.306  0.0963 -0.6354  0.4140
  709MOL0     C95637  10.541   5.853   8.345  1.1639 -0.2266  0.2566
  709MOL0     C95638  10.584   5.738   8.409 -0.8444 -0.7712  0.4599
  709MOL0     O95639  10.719   5.718   8.427 -0.4065  0.2096 -0.0430
  709MOL0     C95640  10.745   5.626   8.542 -0.8519 -0.8583  0.0822
  709MOL0     C95641  10.893   5.656   8.576 -0.3726  0.2759 -0.1195
  709MOL0     C95642  10.919   5.805   8.618  0.4771 -0.7056 -0.4280
  709MOL0     C95643  11.016   5.828   8.737 -0.9957  0.0453 -0.0640
  709MOL0     C95644  11.148   5.767   8.714 -0.5114 -0.1134 -0.2287
  709MOL0     C95645  11.256   5.715   8.694 -0.3476  0.0135 -0.1658
  709MOL0     C95646  10.483   5.644   8.427 -0.6723  0.8177  0.2598
  709MOL0     C95647  10.349   5.670   8.397  0.6592 -0.1336 -0.5027
  709MOL0     H95648   9.891   5.804   8.216  1.4580 -0.1088  1.9006
  709MOL0     H95649   9.682   5.949   8.163 -0.6256 -0.1420  4.6853
  709MOL0     H95650   9.706   6.373   8.238  1.9492  1.8038 -1.4352
  709MOL0     H95651   9.710   6.394   8.069  0.7037 -1.1004  0.8614
  709MOL0     H95652   9.453   6.324   8.206  1.6242 -1.7189 -1.3511
  709MOL0     H95653   9.474   6.478   8.136 -2.8552 -0.7690  0.9183
  709MOL0     H95654   9.507   6.367   7.914 -0.3649  2.8497  1.8132
  709MOL0     H95655   9.456   6.214   7.993 -1.6139 -0.0303  0.4922
  709MOL0     H95656   9.252   6.320   8.071  2.3171  0.4431  0.8046
  709MOL0     H95657   9.294   6.466   7.984 -3.0298 -0.1939  0.8334
  709MOL0     H95658   9.283   6.399   7.772 -2.9632 -1.3250 -0.6972
  709MOL0     H95659   9.328   6.246   7.799 -1.2485 -1.2408 -0.1571
  709MOL0     H95660   9.065   6.231   7.892 -4.3793  1.3063 -0.3403
  709MOL0     H95661   9.083   6.413   7.852  5.1625  1.3502  0.5883
  709MOL0     H95662   9.093   6.385   7.643  1.6644 -0.4882 -1.8450
  709MOL0     H95663   9.159   6.221   7.634 -0.9410 -2.7830  1.3668
  709MOL0     H95664   8.860   6.289   7.682 -0.4442 -0.9603  2.0440
  709MOL0     H95665   8.938   6.142   7.726  0.5786  1.7808  1.2110
  709MOL0     H95666   8.870   5.964   7.534  0.7641  2.3814  4.1308
  709MOL0     H95667   8.893   5.862   7.281  1.5709 -0.0883  0.3837
  709MOL0     H95668   8.735   5.936   7.256 -1.2002  2.2315 -3.0502
  709MOL0     H95669   8.979   6.014   7.081  0.3365 -3.4765 -1.6641
  709MOL0     H95670   8.800   6.068   7.080 -2.2037 -1.0848  1.3201
  709MOL0     H95671   8.712   5.872   7.021 -0.0799  2.1262 -0.7851
  709MOL0     H95672   8.851   5.779   7.073 -1.0913  1.1834  1.1913
  709MOL0     H95673   8.838   5.956   6.832  1.4195 -0.1577 -2.1200
  709MOL0     H95674   8.804   5.783   6.820 -1.1054 -0.0206  1.1054
  709MOL0     H95675   9.261   5.813   6.823 -1.6455 -2.6965 -2.4745
  709MOL0     H95676   9.500   5.983   6.625 -0.4620  0.5395  3.2993
  709MOL0     H95677   9.464   5.854   6.750 -1.5207 -0.0757  0.2716
  709MOL0     H95678   9.450   5.817   6.577  1.4594 -0.3363  0.3966
  709MOL0     H95679   9.318   6.127   6.171 -0.5868 -0.0946 -1.6297
  709MOL0     H95680   9.400   6.095   5.950  0.5856  0.0629 -0.1421
  709MOL0     H95681   9.570   6.145   5.751 -0.1080 -0.4214  0.0007
  709MOL0     H95682   9.655   6.211   5.888 -1.3606 -1.1667  1.1774
  709MOL0     H95683   9.800   6.056   5.686 -0.7875 -0.3690  0.6494
  709MOL0     H95684   9.743   6.221   5.672 -3.8055 -2.4352 -0.2749
  709MOL0     H95685   9.871   6.161   5.940  3.9681 -0.2590  0.8551
  709MOL0     H95686   9.858   6.312   5.864 -0.5129 -0.4479  2.4440
  709MOL0     H95687  10.048   6.100   5.744 -0.0066  1.2588 -4.0115
  709MOL0     H95688  10.057   6.264   5.715  1.5385  0.8197  0.9744
  709MOL0     H95689  10.060   6.163   6.002 -3.3500 -1.4248 -1.7196
  709MOL0     H95690  10.127   6.313   5.935 -2.8937  0.3024  0.3119
  709MOL0     H95691  10.282   6.150   5.787 -0.4077 -0.8987 -0.5478
  709MOL0     H95692  10.324   6.172   5.961  1.0363 -1.4942  0.4546
  709MOL0     H95693  10.339   5.930   5.880  0.0987 -0.3756 -0.9132
  709MOL0     H95694  10.182   5.930   5.821  0.8104 -1.1328  0.2631
  709MOL0     H95695  10.228   5.963   6.136 -2.1483 -0.9774  2.4827
  709MOL0     H95696  10.222   5.818   6.049 -2.6065 -0.7144 -0.8316
  709MOL0     H95697   9.754   5.922   6.098 -0.7415 -0.0867 -2.6288
  709MOL0     H95698   9.654   5.915   6.330  0.0519 -0.7625  0.2028
  709MOL0     H95699   9.067   6.146   6.526 -0.7569 -1.7152 -1.1672
  709MOL0     H95700   8.948   6.057   6.714  1.3953  2.7892 -0.7069
  709MOL0     H95701   9.937   6.292   8.141 -1.0482  0.0820  0.7950
  709MOL0     H95702  10.125   6.160   8.173 -1.3921  2.8297  0.7802
  709MOL0     H95703  10.380   5.970   8.248  1.5681 -2.0724 -2.7387
  709MOL0     H95704  10.611   5.928   8.312 -0.0881 -0.6315 -3.9495
  709MOL0     H95705  10.686   5.654   8.630  2.0959  1.0945  1.6228
  709MOL0     H95706  10.752   5.520   8.517  0.0690 -0.8514  0.3154
  709MOL0     H95707  10.968   5.619   8.506  1.5402 -1.2936  2.5916
  709MOL0     H95708  10.919   5.599   8.665  2.1080  0.0530 -0.9274
  709MOL0     H95709  10.826   5.849   8.653  0.3812 -2.6744  2.1480
  709MOL0     H95710  10.943   5.863   8.529 -2.0518  1.1113 -0.0210
  709MOL0     H95711  10.970   5.785   8.827  1.7810 -0.3160  1.3050
  709MOL0     H95712  11.021   5.936   8.750 -0.8383  0.8945 -5.0792
  709MOL0     H95713  11.344   5.662   8.664 -0.9010 -0.2256 -1.4491
  709MOL0     H95714  10.512   5.543   8.454  1.3558  0.8893 -1.3425
  709MOL0     H95715  10.277   5.597   8.432  1.2420  0.0974  1.2867
  710MOL0     O95716  11.413   3.524   6.112  0.0720 -0.3475 -0.0390
  710MOL0     C95717  11.407   3.613   6.019 -0.5584  0.1620 -0.2144
  710MOL0     O95718  11.298   3.674   5.981  0.3159  1.1247 -0.2399
  710MOL0     C95719  11.178   3.634   6.034  0.0738  0.5987  0.3736
  710MOL0     C95720  11.116   3.507   5.999 -0.1117  0.0660  0.4611
  710MOL0     C95721  10.986   3.481   6.037 -0.0596  0.7100  0.0806
  710MOL0     C95722  10.922   3.575   6.106 -0.7752 -0.4910 -0.5274
  710MOL0     O95723  10.790   3.556   6.133  0.2694  0.0237  0.7043
  710MOL0     C95724  10.700   3.499   6.030  0.2692 -0.0640 -0.0738
  710MOL0     C95725  10.546   3.507   6.072 -0.5876  0.6986 -0.8730
  710MOL0     C95726  10.482   3.641   6.055 -0.4430 -0.2542  0.3824
  710MOL0     C95727  10.459   3.669   5.903  0.5643  0.2989 -0.0169
  710MOL0     C95728  10.411   3.805   5.866 -0.0279 -0.1335 -0.4885
  710MOL0     C95729  10.500   3.916   5.920  0.0586  0.1391  0.1640
  710MOL0     C95730  10.635   3.916   5.843 -0.1406 -0.0283 -0.1110
  710MOL0     C95731  10.721   4.039   5.879 -0.1545 -0.6376  0.3412
  710MOL0     N95732  10.845   4.047   5.796  0.1730  0.9187  0.1854
  710MOL0     C95733  10.960   3.969   5.821 -0.2557 -0.1833 -0.3205
  710MOL0     C95734  11.049   4.002   5.724 -0.0614 -0.8963 -0.6101
  710MOL0     C95735  11.200   4.000   5.728 -0.0641  0.4036 -0.5209
  710MOL0     C95736  11.274   3.949   5.604  0.2188  0.2318 -0.0142
  710MOL0     C95737  11.242   3.806   5.570 -0.8910  0.8759  0.9684
  710MOL0     C95738  11.351   3.744   5.474 -0.1867  0.9340  0.2568
  710MOL0     O95739  11.443   3.675   5.553 -0.2472 -0.5297 -0.5053
  710MOL0     C95740  11.561   3.615   5.504  0.1107 -0.0206 -1.0609
  710MOL0     C95741  11.598   3.603   5.369  0.5517  0.3514 -0.8874
  710MOL0     C95742  11.719   3.533   5.343 -0.5347  0.0563  0.6670
  710MOL0     C95743  11.749   3.515   5.198 -0.3949  0.6107 -0.1669
  710MOL0     C95744  11.795   3.477   5.445  0.0475  0.5608  0.7625
  710MOL0     C95745  11.908   3.384   5.418 -0.3988 -0.3719  0.4349
  710MOL0     O95746  12.024   3.409   5.487 -0.4496  0.1697  0.6139
  710MOL0     C95747  12.131   3.323   5.489  0.7512  0.0401 -0.3368
  710MOL0     C95748  12.245   3.370   5.435  0.0424 -0.0101 -0.7615
  710MOL0     C95749  12.360   3.288   5.433 -0.6581  0.0439  0.2518
  710MOL0     C95750  12.369   3.165   5.497  0.3106 -0.0999  0.6265
  710MOL0     O95751  12.494   3.087   5.487 -0.1065 -0.4713 -0.3736
  710MOL0     C95752  12.513   2.966   5.564  0.2104 -0.4781  0.3269
  710MOL0     C95753  12.440   2.847   5.496 -0.4554 -0.3465 -0.3069
  710MOL0     C95754  12.469   2.821   5.346 -0.7826  0.1337 -0.5462
  710MOL0     C95755  12.617   2.849   5.311 -0.6932 -0.0018  0.0518
  710MOL0     C95756  12.669   2.821   5.171  0.0983  0.4975  0.4114
  710MOL0     C95757  12.685   2.676   5.131  0.4930  0.3251  0.2923
  710MOL0     C95758  12.699   2.644   4.980 -0.2628 -0.8220  0.0308
  710MOL0     C95759  12.847   2.647   4.923  0.2762  0.9021  0.6695
  710MOL0    Cl95760  12.938   2.793   4.969  0.1359 -0.1188 -0.0826
  710MOL0     C95761  12.249   3.128   5.559  0.0729  0.0647  1.0580
  710MOL0     C95762  12.130   3.205   5.562 -0.3789 -0.0080 -0.0845
  710MOL0     O95763  11.888   3.297   5.337 -0.0665  0.1192 -0.0582
  710MOL0     C95764  11.753   3.495   5.575 -0.5466  0.3402  0.0733
  710MOL0     C95765  11.643   3.564   5.608  0.4384  0.3879 -0.1221
  710MOL0     N95766  10.980   4.076   5.627  0.2362  0.0679 -0.2784
  710MOL0     N95767  10.855   4.101   5.672  0.1256  0.4772  1.5263
  710MOL0     C95768  10.976   3.698   6.151 -0.4374 -0.3304  0.5746
  710MOL0     C95769  11.112   3.720   6.123  0.8575 -1.1646  0.2007
  710MOL0     C95770  11.527   3.676   5.964 -0.3265 -0.4811 -0.0356
  710MOL0     C95771  11.645   3.638   6.010  0.2790 -0.4928  0.5753
  710MOL0     C95772  11.760   3.676   5.943 -0.0022  0.2067 -0.2179
  710MOL0     C95773  11.765   3.769   5.842 -0.3569 -1.0210  0.5896
  710MOL0     O95774  11.875   3.814   5.771 -0.3056 -0.5225 -0.4944
  710MOL0     C95775  12.006   3.767   5.807 -0.7375  0.6068 -0.3125
  710MOL0     C95776  12.116   3.851   5.743  0.1892 -0.9780 -0.6123
  710MOL0     C95777  12.153   3.799   5.603  0.1271  0.4954  0.8570
  710MOL0     C95778  12.039   3.806   5.499 -1.1009  0.1442  0.3546
  710MOL0     C95779  12.070   3.767   5.361 -0.6295 -0.0539  1.0777
  710MOL0     C95780  12.116   3.734   5.257 -0.2978 -0.0598  0.1616
  710MOL0     C95781  11.644   3.809   5.800 -0.2151 -0.7528  0.1086
  710MOL0     C95782  11.528   3.769   5.861  0.3086 -0.5637 -0.6763
  710MOL0     H95783  11.160   3.433   5.933 -0.2367 -0.9011  1.4282
  710MOL0     H95784  10.946   3.386   6.004  4.1806 -0.8377 -1.3290
  710MOL0     H95785  10.713   3.551   5.934  1.9045 -0.9221 -0.3692
  710MOL0     H95786  10.727   3.394   6.013  1.6309 -0.4468  3.5860
  710MOL0     H95787  10.477   3.434   6.029 -2.0281 -1.0550  3.7717
  710MOL0     H95788  10.550   3.491   6.181  0.9530  3.5214 -0.4046
  710MOL0     H95789  10.391   3.658   6.114  1.1793  0.9090  2.7088
  710MOL0     H95790  10.540   3.726   6.092 -2.1831  2.0359 -1.8120
  710MOL0     H95791  10.562   3.656   5.867  0.8929  3.5590 -0.5172
  710MOL0     H95792  10.394   3.593   5.860 -0.5709  0.7944  0.7930
  710MOL0     H95793  10.401   3.821   5.758 -1.8032  0.9407 -0.2084
  710MOL0     H95794  10.311   3.815   5.908  0.4209 -0.5613  0.7372
  710MOL0     H95795  10.442   4.008   5.907 -0.7053 -0.5616 -1.8536
  710MOL0     H95796  10.520   3.911   6.027  1.0069  1.3596  0.0623
  710MOL0     H95797  10.690   3.824   5.866  1.8096  0.3281 -2.8967
  710MOL0     H95798  10.611   3.925   5.737 -0.2278 -1.1571 -0.2008
  710MOL0     H95799  10.764   4.028   5.979  2.9823  0.7787 -0.7076
  710MOL0     H95800  10.663   4.131   5.870  0.0361 -0.6029 -0.6831
  710MOL0     H95801  10.984   3.918   5.914 -5.8015 -0.2862  1.3877
  710MOL0     H95802  11.240   4.099   5.754 -0.3326  0.0998  1.1776
  710MOL0     H95803  11.238   3.934   5.807  1.5988  0.4582 -1.2332
  710MOL0     H95804  11.379   3.959   5.633  0.5781 -1.8687 -0.4075
  710MOL0     H95805  11.248   4.015   5.521  0.8277  0.1025 -0.3085
  710MOL0     H95806  11.153   3.803   5.507 -0.1355  1.2516 -0.1535
  710MOL0     H95807  11.229   3.731   5.649  2.0242  3.5908  4.3908
  710MOL0     H95808  11.397   3.817   5.406  1.3308  0.4373  0.7115
  710MOL0     H95809  11.306   3.674   5.403 -0.2705  0.8929  0.3492
  710MOL0     H95810  11.534   3.641   5.290 -0.4771 -0.0649 -0.2665
  710MOL0     H95811  11.718   3.427   5.142 -0.3217  1.0390 -0.8944
  710MOL0     H95812  11.702   3.600   5.147 -1.1775 -1.7264 -3.6689
  710MOL0     H95813  11.858   3.516   5.194 -0.3283 -0.3695  0.8701
  710MOL0     H95814  12.246   3.460   5.375  0.7887  0.3651 -0.1916
  710MOL0     H95815  12.443   3.328   5.375 -2.1800  2.1638 -0.5926
  710MOL0     H95816  12.621   2.947   5.567  0.2292 -0.3068  0.8732
  710MOL0     H95817  12.476   2.973   5.667 -2.0439 -2.4102 -0.2636
  710MOL0     H95818  12.485   2.758   5.542  1.7556  0.9068  0.0821
  710MOL0     H95819  12.332   2.857   5.512 -0.3552  0.0713  0.1043
  710MOL0     H95820  12.411   2.893   5.288 -1.9822  0.9166  1.5367
  710MOL0     H95821  12.440   2.721   5.312 -2.8473  0.8169 -0.9049
  710MOL0     H95822  12.627   2.953   5.343 -0.9531 -0.7538  2.8673
  710MOL0     H95823  12.674   2.790   5.383 -1.3838  0.0163  0.6221
  710MOL0     H95824  12.768   2.867   5.166  1.2518 -1.9537 -1.3913
  710MOL0     H95825  12.605   2.869   5.097  0.0015  1.7250  1.2676
  710MOL0     H95826  12.759   2.621   5.189 -1.1469 -1.5712  0.7125
  710MOL0     H95827  12.584   2.633   5.128 -0.9922  3.5295 -0.8412
  710MOL0     H95828  12.645   2.723   4.927 -1.9786  0.1409  2.9358
  710MOL0     H95829  12.651   2.549   4.958  0.1948 -0.6298 -1.9542
  710MOL0     H95830  12.845   2.609   4.821 -0.7193 -0.6239  1.2255
  710MOL0     H95831  12.897   2.562   4.970  1.1262 -0.3430 -2.2523
  710MOL0     H95832  12.245   3.035   5.615  4.3785 -1.0818 -0.1200
  710MOL0     H95833  12.041   3.173   5.616 -0.8523  0.9747 -0.2576
  710MOL0     H95834  11.811   3.453   5.657 -0.1146  2.2734  0.8166
  710MOL0     H95835  11.606   3.567   5.710 -0.4010 -6.7909  0.3192
  710MOL0     H95836  10.919   3.764   6.215  0.1485  1.7892 -1.0091
  710MOL0     H95837  11.149   3.816   6.155 -0.9843  0.4376 -2.1388
  710MOL0     H95838  11.645   3.563   6.088  1.2984 -1.7626 -0.5829
  710MOL0     H95839  11.848   3.624   5.980  0.0223 -0.9137 -1.7759
  710MOL0     H95840  12.015   3.803   5.910 -0.7632  0.6622 -0.3300
  710MOL0     H95841  12.036   3.662   5.806  0.3421  0.9081 -0.8070
  710MOL0     H95842  12.212   3.859   5.795 -1.6755 -2.8954  3.6858
  710MOL0     H95843  12.084   3.955   5.733 -0.3910 -1.0121  0.6792
  710MOL0     H95844  12.198   3.699   5.604  1.0363  0.8945  1.3992
  710MOL0     H95845  12.227   3.862   5.553  0.2101  1.2246  1.8554
  710MOL0     H95846  12.001   3.908   5.491  1.0294  1.1300  1.9275
  710MOL0     H95847  11.955   3.748   5.539 -0.8617 -3.1571 -3.3566
  710MOL0     H95848  12.161   3.701   5.166  1.3920  1.7964  0.2441
  710MOL0     H95849  11.631   3.864   5.707  0.9259 -0.0019  0.3731
  710MOL0     H95850  11.436   3.807   5.818  0.7004 -1.7089 -2.6709
  711MOL0     O95851  11.342  10.231   6.972  0.0217 -0.0442  0.0155
  711MOL0     C95852  11.415  10.281   7.048 -0.5750 -0.7432 -0.5392
  711MOL0     O95853  11.370  10.336   7.172 -0.2042  0.3829  0.1550
  711MOL0     C95854  11.240  10.359   7.195 -0.2445  0.5500  0.3058
  711MOL0     C95855  11.161  10.262   7.246  0.6292  0.5477 -1.0880
  711MOL0     C95856  11.018  10.281   7.262 -0.0490 -0.6403 -0.5103
  711MOL0     C95857  10.965  10.406   7.223  0.3377 -0.3014  0.0046
  711MOL0     O95858  10.829  10.420   7.225  0.5254 -1.0849 -0.2696
  711MOL0     C95859  10.776  10.548   7.257  0.6392 -0.9813  0.7538
  711MOL0     C95860  10.635  10.532   7.313  0.1333 -0.2195 -0.0109
  711MOL0     C95861  10.548  10.660   7.317  0.9607 -0.4456  1.3263
  711MOL0     C95862  10.622  10.785   7.366 -0.4053 -0.0289 -1.1603
  711MOL0     C95863  10.533  10.881   7.431  0.9343 -0.2988 -0.2475
  711MOL0     C95864  10.591  11.018   7.462  0.0829 -0.8231 -0.7509
  711MOL0     C95865  10.657  11.089   7.343  0.2202  0.9895  0.1305
  711MOL0     C95866  10.706  11.235   7.370  0.9237 -0.2882 -0.0126
  711MOL0     N95867  10.586  11.316   7.397 -0.6437 -0.0088 -0.7151
  711MOL0     C95868  10.502  11.352   7.296  0.1167 -0.2186  0.4164
  711MOL0     C95869  10.413  11.442   7.342 -0.0997 -1.0495  0.2744
  711MOL0     C95870  10.317  11.525   7.258  0.4207 -0.3257  0.6834
  711MOL0     C95871  10.182  11.548   7.331  0.4013  0.2097 -0.1675
  711MOL0     C95872  10.074  11.618   7.245 -0.6168  0.6086 -0.3740
  711MOL0     C95873  10.007  11.533   7.141 -0.3766 -0.2420  0.0694
  711MOL0     O95874   9.899  11.597   7.083  0.3228  0.6342 -1.1097
  711MOL0     C95875   9.813  11.526   6.989 -0.5950  0.3165 -0.0451
  711MOL0     C95876   9.834  11.399   6.939  0.0042  1.2585 -0.4119
  711MOL0     C95877   9.754  11.331   6.845  0.0107 -0.2469 -0.9630
  711MOL0     C95878   9.780  11.189   6.799  0.1383  0.6136  0.4171
  711MOL0     C95879   9.642  11.399   6.788 -0.6108 -0.6328  0.5559
  711MOL0     C95880   9.535  11.354   6.695 -0.0615  0.0084 -0.7124
  711MOL0     O95881   9.501  11.448   6.601  0.4202  0.4273 -0.5356
  711MOL0     C95882   9.420  11.429   6.489 -0.7913 -0.3059 -0.2901
  711MOL0     C95883   9.315  11.331   6.471 -0.0072  0.1999  0.1495
  711MOL0     C95884   9.222  11.346   6.370  0.2696 -0.1917 -0.8017
  711MOL0     C95885   9.237  11.437   6.267  0.5014 -0.0830  0.4156
  711MOL0     O95886   9.137  11.434   6.178 -0.0744  0.5118 -0.1926
  711MOL0     C95887   9.159  11.503   6.055 -0.5345 -0.3527 -1.0427
  711MOL0     C95888   9.051  11.473   5.953  0.6502 -0.2012 -0.4209
  711MOL0     C95889   8.909  11.510   6.002 -0.0189  0.5760 -0.0741
  711MOL0     C95890   8.803  11.517   5.898  0.4767 -0.0864  0.4461
  711MOL0     C95891   8.747  11.386   5.844 -0.7383  0.1593  0.0676
  711MOL0     C95892   8.607  11.410   5.778 -0.3474 -0.2418  0.1485
  711MOL0     C95893   8.488  11.406   5.883  0.4033  0.0872 -0.5270
  711MOL0     C95894   8.347  11.438   5.832  0.5809  0.6323 -0.5931
  711MOL0    Cl95895   8.347  11.625   5.831 -0.3952  0.0460  0.7084
  711MOL0     C95896   9.347  11.522   6.276  0.3039 -0.5529  0.4516
  711MOL0     C95897   9.438  11.523   6.389  0.2173 -0.5545  0.5127
  711MOL0     O95898   9.489  11.241   6.706 -0.5646 -0.1069 -0.8600
  711MOL0     C95899   9.620  11.530   6.842  0.0799  0.0154 -0.3510
  711MOL0     C95900   9.702  11.589   6.938  0.3005 -0.6704  0.2916
  711MOL0     N95901  10.456  11.461   7.477 -0.5122  0.3265  0.1513
  711MOL0     N95902  10.570  11.394   7.504  0.5232 -0.0680  0.4447
  711MOL0     C95903  11.050  10.510   7.183 -1.0960  0.3842  0.9673
  711MOL0     C95904  11.188  10.486   7.161 -0.0114  0.1931  0.3294
  711MOL0     C95905  11.561  10.255   7.048 -0.3821 -0.0574 -0.8885
  711MOL0     C95906  11.632  10.259   7.172  0.1330 -0.2576 -0.2556
  711MOL0     C95907  11.769  10.234   7.168 -0.5717  0.5162 -0.4163
  711MOL0     C95908  11.838  10.197   7.048  0.0474 -0.2609 -0.5959
  711MOL0     O95909  11.973  10.176   7.055  0.2602  0.3730  0.6096
  711MOL0     C95910  12.049  10.155   7.177 -0.5400 -0.1377  0.3768
  711MOL0     C95911  12.195  10.156   7.141 -0.2995  0.5667 -0.2297
  711MOL0     C95912  12.241  10.294   7.090  0.4304  1.4435 -0.2735
  711MOL0     C95913  12.376  10.310   7.020  0.2392 -0.4897  0.4416
  711MOL0     C95914  12.370  10.256   6.892  0.0405  0.2853 -0.6968
  711MOL0     C95915  12.367  10.198   6.783  0.1261 -0.2309 -0.2792
  711MOL0     C95916  11.766  10.197   6.932  0.2199  0.1819 -0.3156
  711MOL0     C95917  11.630  10.223   6.934  0.6524 -0.2327  0.1919
  711MOL0     H95918  11.182  10.159   7.273  0.0729  0.0630 -2.4388
  711MOL0     H95919  10.954  10.215   7.320  0.7548 -0.3995  0.6840
  711MOL0     H95920  10.834  10.602   7.333  0.5989  3.6179 -2.0743
  711MOL0     H95921  10.768  10.613   7.170  1.1152 -0.9672  0.7162
  711MOL0     H95922  10.580  10.474   7.239 -2.2675  0.2577  1.2957
  711MOL0     H95923  10.629  10.490   7.414 -1.2610  2.2052  1.0142
  711MOL0     H95924  10.513  10.681   7.216  2.3551 -4.0901 -0.0734
  711MOL0     H95925  10.463  10.647   7.385 -2.6419 -1.5111 -2.9525
  711MOL0     H95926  10.710  10.760   7.426 -0.1031 -3.6325 -2.8489
  711MOL0     H95927  10.662  10.830   7.275  1.1101  1.7512  0.2916
  711MOL0     H95928  10.442  10.886   7.372  1.7639 -0.3234 -1.5660
  711MOL0     H95929  10.510  10.834   7.527 -0.2436  1.6758  0.4808
  711MOL0     H95930  10.513  11.089   7.489  0.4661  0.3904 -2.6381
  711MOL0     H95931  10.655  11.005   7.550 -0.5791 -1.8134 -0.3983
  711MOL0     H95932  10.739  11.031   7.300 -2.2032 -1.5852 -1.3860
  711MOL0     H95933  10.578  11.082   7.268  1.3842  1.0913 -1.1386
  711MOL0     H95934  10.761  11.273   7.284  1.1522  1.1628  0.7328
  711MOL0     H95935  10.756  11.244   7.467 -2.1565 -0.4488  1.7221
  711MOL0     H95936  10.495  11.314   7.195  2.2605  3.4989 -1.3151
  711MOL0     H95937  10.354  11.623   7.228 -3.3697  1.0729 -0.0505
  711MOL0     H95938  10.315  11.474   7.161  0.9213  0.9127  0.0121
  711MOL0     H95939  10.211  11.607   7.419  1.9103  0.2412 -0.6642
  711MOL0     H95940  10.144  11.447   7.352 -1.6793 -0.1622 -4.5582
  711MOL0     H95941  10.125  11.702   7.198  2.6990 -0.7748  0.5039
  711MOL0     H95942   9.995  11.655   7.311 -0.6785 -0.0018 -0.1006
  711MOL0     H95943   9.966  11.443   7.187  0.0228 -0.9317 -0.8768
  711MOL0     H95944  10.085  11.506   7.069  0.6918 -0.6596  1.3421
  711MOL0     H95945   9.918  11.349   6.986  1.7102  1.5163 -2.9785
  711MOL0     H95946   9.809  11.129   6.886 -0.1144 -0.9837 -0.5655
  711MOL0     H95947   9.687  11.144   6.761  1.3747  1.4865 -4.2513
  711MOL0     H95948   9.867  11.173   6.735  0.5791 -1.6683  1.4597
  711MOL0     H95949   9.297  11.262   6.553 -2.0458  0.1603 -0.2868
  711MOL0     H95950   9.141  11.274   6.373  2.2413 -2.5397 -0.7418
  711MOL0     H95951   9.143  11.610   6.073 -2.7315 -1.3157  4.8822
  711MOL0     H95952   9.257  11.474   6.017  0.9900  2.3530  0.4839
  711MOL0     H95953   9.074  11.518   5.856  2.5014  3.8736  1.6485
  711MOL0     H95954   9.051  11.365   5.936  0.1450 -0.2399 -0.2019
  711MOL0     H95955   8.909  11.608   6.051  1.0098  0.2119  0.6925
  711MOL0     H95956   8.886  11.449   6.090  3.6001  0.3857  0.8968
  711MOL0     H95957   8.718  11.567   5.945 -0.5871 -1.0538 -0.3875
  711MOL0     H95958   8.820  11.577   5.808 -0.8572 -2.6377 -1.6309
  711MOL0     H95959   8.749  11.308   5.921 -3.3771  0.2628  0.3177
  711MOL0     H95960   8.821  11.345   5.774  1.6074 -0.9032  2.9481
  711MOL0     H95961   8.616  11.510   5.733  4.2654  0.5573  2.2589
  711MOL0     H95962   8.599  11.334   5.700  0.4248 -1.1128  0.8904
  711MOL0     H95963   8.512  11.472   5.966  0.6413 -1.1041  0.3788
  711MOL0     H95964   8.474  11.303   5.918 -1.3189 -0.4841 -2.6623
  711MOL0     H95965   8.273  11.404   5.906 -0.2093  0.3448 -1.5013
  711MOL0     H95966   8.326  11.384   5.740  1.2816 -1.8476  0.6174
  711MOL0     H95967   9.363  11.600   6.202 -1.1147 -2.7606 -2.3337
  711MOL0     H95968   9.506  11.607   6.398 -1.4034  0.6881  1.9783
  711MOL0     H95969   9.532  11.587   6.813 -2.4707 -3.0531  0.7785
  711MOL0     H95970   9.670  11.689   6.963  3.2419  0.6038 -0.6710
  711MOL0     H95971  11.007  10.608   7.164  2.1308  1.2984 -3.0750
  711MOL0     H95972  11.252  10.571   7.142  1.6034  0.2165  4.8426
  711MOL0     H95973  11.597  10.276   7.274 -0.1453 -1.9883 -0.0295
  711MOL0     H95974  11.818  10.232   7.265  0.5002 -0.5242 -0.9475
  711MOL0     H95975  12.023  10.227   7.255  0.7338  1.5590 -0.6973
  711MOL0     H95976  12.030  10.051   7.204  1.3057 -0.6018  0.0185
  711MOL0     H95977  12.218  10.087   7.059  0.1472 -0.1133  0.4587
  711MOL0     H95978  12.268  10.127   7.217  1.2832  2.9391 -0.7500
  711MOL0     H95979  12.257  10.357   7.178  0.8196 -3.3858  3.5338
  711MOL0     H95980  12.167  10.323   7.015  0.0814 -1.6009 -1.2399
  711MOL0     H95981  12.457  10.265   7.078  1.4545  1.9836  0.8032
  711MOL0     H95982  12.406  10.415   7.015  0.7844 -0.6958 -1.2552
  711MOL0     H95983  12.371  10.149   6.688  4.0776  1.6440 -1.2740
  711MOL0     H95984  11.813  10.172   6.837 -3.0195 -2.6299 -1.3985
  711MOL0     H95985  11.568  10.212   6.846  2.0287 -0.0130 -0.8335
  712MOL0     O95986   5.893   7.751   1.187 -0.0438  0.2916  0.3181
  712MOL0     C95987   5.894   7.657   1.107  0.1268  0.4409 -0.4299
  712MOL0     O95988   5.796   7.619   1.030  0.3011  0.4255 -0.6435
  712MOL0     C95989   5.680   7.680   1.057 -0.5216 -0.2090 -0.5494
  712MOL0     C95990   5.589   7.623   1.143  0.2355 -0.2161 -0.0825
  712MOL0     C95991   5.465   7.680   1.161  0.5538 -0.0548  1.0012
  712MOL0     C95992   5.431   7.796   1.098  0.4095 -0.1290 -0.2592
  712MOL0     O95993   5.314   7.855   1.146  0.1781  0.0603 -0.2588
  712MOL0     C95994   5.230   7.905   1.042 -0.1207  0.4749  0.5733
  712MOL0     C95995   5.084   7.904   1.083  0.9109  0.2057  0.5470
  712MOL0     C95996   5.050   8.002   1.197  0.6339  0.6669 -0.5765
  712MOL0     C95997   4.904   7.990   1.246 -1.6901 -0.2635  0.6474
  712MOL0     C95998   4.847   8.112   1.331  0.1701 -0.2992  0.3291
  712MOL0     C95999   4.689   8.096   1.352  0.6121  0.3172 -0.2725
  712MOL0     C96000   4.614   8.229   1.362 -0.2861  0.0596  0.6773
  712MOL0     C96001   4.658   8.307   1.491  0.1404  0.2016  0.0481
  712MOL0     N96002   4.587   8.431   1.497 -0.1126  0.0773  0.8500
  712MOL0     C96003   4.460   8.466   1.545  0.3949  0.6966 -0.1782
  712MOL0     C96004   4.459   8.602   1.559 -0.2695  0.0032  0.5084
  712MOL0     C96005   4.353   8.686   1.615  0.3110 -0.0754  0.7626
  712MOL0     C96006   4.252   8.756   1.522 -0.8100  0.1931  0.3515
  712MOL0     C96007   4.314   8.842   1.408 -0.2301  0.3413  0.6205
  712MOL0     C96008   4.401   8.957   1.463 -0.2091  0.2742  0.0586
  712MOL0     O96009   4.350   9.018   1.578 -0.1597 -0.0309 -0.3369
  712MOL0     C96010   4.408   9.144   1.611 -0.4802  0.0746  0.3387
  712MOL0     C96011   4.329   9.248   1.658  0.8939  0.1456 -0.2208
  712MOL0     C96012   4.377   9.367   1.715  0.0008 -0.0575 -0.1117
  712MOL0     C96013   4.281   9.478   1.759  0.6360  0.4766  0.5425
  712MOL0     C96014   4.523   9.377   1.715 -0.0682  0.6801  0.4056
  712MOL0     C96015   4.591   9.497   1.735  0.7490  0.2974 -0.5678
  712MOL0     O96016   4.598   9.533   1.863  0.1419 -0.2921  0.4707
  712MOL0     C96017   4.710   9.593   1.897  0.2387 -0.8743 -0.5307
  712MOL0     C96018   4.795   9.523   1.973  0.4720  0.4511  0.3460
  712MOL0     C96019   4.921   9.572   1.996  0.0629  0.7972 -0.6159
  712MOL0     C96020   4.954   9.703   1.957  0.3265 -0.4931  0.5976
  712MOL0     O96021   5.070   9.765   1.992 -0.1136  0.2134  0.1696
  712MOL0     C96022   5.181   9.698   1.927 -0.8142  0.4076 -0.2384
  712MOL0     C96023   5.317   9.757   1.977  0.6753 -0.1246  0.5763
  712MOL0     C96024   5.350   9.889   1.900  0.0092  0.9096 -0.4680
  712MOL0     C96025   5.484   9.941   1.934 -0.2348  0.0462  0.0478
  712MOL0     C96026   5.527  10.058   1.847  0.0338  0.0700  0.2680
  712MOL0     C96027   5.543  10.036   1.698 -0.0990 -0.3099 -0.1866
  712MOL0     C96028   5.583  10.174   1.631 -0.1486 -0.3411 -0.2445
  712MOL0     C96029   5.630  10.150   1.482 -0.4618 -0.2101  0.2709
  712MOL0    Cl96030   5.739  10.277   1.410 -0.2172  0.2011  0.1082
  712MOL0     C96031   4.850   9.787   1.893 -0.4475 -0.6559 -0.5382
  712MOL0     C96032   4.732   9.731   1.860  0.3109  0.4348 -0.2195
  712MOL0     O96033   4.620   9.562   1.635  0.7934  1.3537 -0.0968
  712MOL0     C96034   4.604   9.273   1.655  0.5888  0.5642 -0.2515
  712MOL0     C96035   4.546   9.152   1.614 -0.0872 -0.2693  0.0147
  712MOL0     N96036   4.590   8.641   1.526 -0.3674  0.7017 -1.1907
  712MOL0     N96037   4.663   8.544   1.487  0.8050 -0.7103  0.4541
  712MOL0     C96038   5.518   7.861   1.014 -0.2244 -0.5780  0.3135
  712MOL0     C96039   5.639   7.797   0.991 -0.2405  0.6669 -0.0927
  712MOL0     C96040   6.009   7.571   1.094  0.1191  0.0320 -1.2658
  712MOL0     C96041   6.016   7.477   0.989 -0.1455 -0.4821 -0.4539
  712MOL0     C96042   6.128   7.407   0.959  0.1900 -0.0005  0.1067
  712MOL0     C96043   6.236   7.417   1.038 -0.7395 -0.3183  1.1872
  712MOL0     O96044   6.352   7.344   1.008 -0.1722 -0.3111  0.5135
  712MOL0     C96045   6.478   7.404   1.050  0.4284 -0.2611 -0.1579
  712MOL0     C96046   6.601   7.329   0.984 -0.2151 -0.9539 -0.2901
  712MOL0     C96047   6.580   7.178   1.023  0.3719  0.1136  0.8932
  712MOL0     C96048   6.666   7.081   0.940 -0.1856 -0.2309  0.6570
  712MOL0     C96049   6.676   6.944   0.991 -0.1822 -0.1834  0.2092
  712MOL0     C96050   6.679   6.844   1.055  0.2017  0.8614 -0.0437
  712MOL0     C96051   6.236   7.497   1.150  0.8988  0.3859 -0.5087
  712MOL0     C96052   6.127   7.577   1.179  0.1683 -0.5804  1.3444
  712MOL0     H96053   5.592   7.529   1.197 -3.5977 -0.3678  0.1760
  712MOL0     H96054   5.380   7.636   1.212 -1.8096 -0.6183 -2.9840
  712MOL0     H96055   5.270   8.003   1.016  1.7820  0.8123  4.0940
  712MOL0     H96056   5.241   7.832   0.962  0.0085 -0.1670  1.1636
  712MOL0     H96057   5.015   7.926   1.001 -0.1266 -3.1444  0.3836
  712MOL0     H96058   5.056   7.803   1.114 -1.7987  0.7925  0.2347
  712MOL0     H96059   5.113   7.982   1.284  2.2848 -0.7776 -2.0334
  712MOL0     H96060   5.080   8.099   1.156  3.4045  0.3847  0.5613
  712MOL0     H96061   4.836   7.969   1.162 -1.5509  0.2659  0.4000
  712MOL0     H96062   4.903   7.902   1.312 -0.4280 -0.2913  0.6527
  712MOL0     H96063   4.906   8.130   1.422 -3.7561  3.3895  2.5318
  712MOL0     H96064   4.857   8.208   1.280  0.5144  2.0322  4.3519
  712MOL0     H96065   4.645   8.044   1.266 -0.6035  3.4402 -1.6999
  712MOL0     H96066   4.665   8.028   1.434  0.0617  0.5032 -0.2743
  712MOL0     H96067   4.650   8.273   1.268 -0.1819 -0.3374  0.5265
  712MOL0     H96068   4.507   8.214   1.351  0.0743 -1.4527 -1.6295
  712MOL0     H96069   4.766   8.322   1.493  0.1999  0.4059 -2.5039
  712MOL0     H96070   4.627   8.240   1.572  0.3257 -0.6380 -0.5643
  712MOL0     H96071   4.382   8.394   1.566  1.4779 -0.0229  1.5870
  712MOL0     H96072   4.285   8.623   1.673 -1.6177  1.7065  0.5162
  712MOL0     H96073   4.393   8.763   1.681 -1.1442  1.6534 -0.3000
  712MOL0     H96074   4.180   8.807   1.586 -0.9810 -0.2550  0.5226
  712MOL0     H96075   4.196   8.678   1.469 -0.5232  1.1328 -1.3964
  712MOL0     H96076   4.229   8.886   1.354 -0.8175 -1.6955 -0.2214
  712MOL0     H96077   4.368   8.775   1.341 -0.3121  0.1949  0.6998
  712MOL0     H96078   4.419   9.035   1.389 -1.5790  1.4828  0.9216
  712MOL0     H96079   4.493   8.911   1.499 -0.8214 -1.4196 -0.4887
  712MOL0     H96080   4.224   9.226   1.644  1.5027 -2.0550 -1.9890
  712MOL0     H96081   4.192   9.468   1.697  2.7819 -3.9878 -2.3521
  712MOL0     H96082   4.270   9.468   1.868 -1.1948  2.3534  0.5876
  712MOL0     H96083   4.326   9.575   1.738  0.0085  1.0332  1.6497
  712MOL0     H96084   4.771   9.425   2.013 -0.9496  0.9519  0.7985
  712MOL0     H96085   4.985   9.508   2.056 -2.4380 -1.0238  0.2865
  712MOL0     H96086   5.179   9.592   1.956 -0.3156 -0.3629 -2.8065
  712MOL0     H96087   5.150   9.698   1.822 -3.2490  0.1252  0.4255
  712MOL0     H96088   5.326   9.762   2.085 -1.2373  0.1030  0.7661
  712MOL0     H96089   5.394   9.689   1.939  0.2110  0.2094 -1.0765
  712MOL0     H96090   5.278   9.971   1.906  0.3623  1.2177 -0.3645
  712MOL0     H96091   5.358   9.867   1.793 -0.9692  0.1325 -0.3897
  712MOL0     H96092   5.485   9.960   2.042 -0.3018 -0.9520  0.2283
  712MOL0     H96093   5.547   9.854   1.915 -1.4923 -0.3208 -2.9181
  712MOL0     H96094   5.617  10.103   1.890  0.5796 -0.4914 -0.2695
  712MOL0     H96095   5.447  10.132   1.855  1.3633  1.5034  0.7784
  712MOL0     H96096   5.621   9.968   1.663  3.1672  3.9391 -2.0028
  712MOL0     H96097   5.442  10.006   1.666 -1.1557  0.7173  1.9466
  712MOL0     H96098   5.663  10.215   1.692 -0.9363 -0.2604  0.7721
  712MOL0     H96099   5.499  10.244   1.630 -0.9513 -1.2659  0.3168
  712MOL0     H96100   5.543  10.153   1.415 -0.0289  1.2345 -0.2638
  712MOL0     H96101   5.672  10.048   1.480  1.4653  0.5421 -1.2495
  712MOL0     H96102   4.873   9.889   1.864  3.1647 -1.4807 -1.0202
  712MOL0     H96103   4.652   9.792   1.819  0.5187  1.0380  0.2571
  712MOL0     H96104   4.709   9.289   1.635  0.4591  1.8759 -0.0304
  712MOL0     H96105   4.613   9.068   1.595  0.7004 -0.0617  1.6924
  712MOL0     H96106   5.481   7.952   0.967  4.7142  0.8658 -1.4940
  712MOL0     H96107   5.709   7.835   0.917  0.1224  0.7118  0.2723
  712MOL0     H96108   5.940   7.475   0.913  1.9090  3.5990 -2.9687
  712MOL0     H96109   6.127   7.346   0.869  0.6430  0.3469 -0.1374
  712MOL0     H96110   6.489   7.506   1.010 -0.2642 -0.1826 -0.1641
  712MOL0     H96111   6.486   7.409   1.159 -2.9044 -1.3432  0.2659
  712MOL0     H96112   6.694   7.377   1.016 -2.0947  2.2972  0.8040
  712MOL0     H96113   6.598   7.350   0.877  0.5760  1.4261  0.0904
  712MOL0     H96114   6.476   7.146   1.031  0.4533 -0.5647 -0.5398
  712MOL0     H96115   6.608   7.163   1.128  0.9595  0.9654  0.8689
  712MOL0     H96116   6.772   7.110   0.941 -0.0962 -0.5595  0.8989
  712MOL0     H96117   6.632   7.074   0.837 -1.4386  1.5372  0.8949
  712MOL0     H96118   6.648   6.760   1.113 -2.0449  0.5458 -1.5537
  712MOL0     H96119   6.322   7.511   1.214  1.2225  0.8473 -1.0452
  712MOL0     H96120   6.130   7.643   1.265  0.9819 -3.0844  3.3821
  713MOL0     O96121   3.605   0.467   1.754  0.3211  0.0591  0.1734
  713MOL0     C96122   3.638   0.471   1.636  0.7020  0.5884  0.9213
  713MOL0     O96123   3.558   0.491   1.518  0.0529 -0.2093 -0.1124
  713MOL0     C96124   3.425   0.443   1.526 -0.4417 -0.0538  0.6648
  713MOL0     C96125   3.411   0.323   1.459 -0.4205  0.0231  0.7633
  713MOL0     C96126   3.288   0.256   1.451  0.7303 -0.0567  0.0259
  713MOL0     C96127   3.171   0.316   1.504 -0.4494 -0.7572  0.2070
  713MOL0     O96128   3.049   0.262   1.465  0.1263  0.1978 -0.2685
  713MOL0     C96129   2.934   0.343   1.483 -0.4065 -0.0416 -0.5559
  713MOL0     C96130   2.819   0.241   1.442 -0.3597 -0.4532 -0.0584
  713MOL0     C96131   2.807   0.249   1.292 -0.2630 -0.0352 -0.0854
  713MOL0     C96132   2.710   0.148   1.239 -0.0450  0.4356 -0.4026
  713MOL0     C96133   2.714   0.126   1.084 -0.7804  0.3386  0.4788
  713MOL0     C96134   2.689   0.245   1.003  0.7960 -0.4319  0.0436
  713MOL0     C96135   2.690   0.252   0.850  0.1990  0.3399 -0.5120
  713MOL0     C96136   2.817   0.196   0.800  0.5756  0.1494  0.0318
  713MOL0     N96137   2.919   0.300   0.820 -0.9303  0.2849  0.7308
  713MOL0     C96138   2.956   0.405   0.739 -0.2992  0.5163 -0.8131
  713MOL0     C96139   3.066   0.453   0.790 -1.1624 -0.5929  0.1937
  713MOL0     C96140   3.156   0.559   0.730 -0.0962  0.7252 -0.7046
  713MOL0     C96141   3.268   0.486   0.651  0.4524  0.1268  0.2524
  713MOL0     C96142   3.332   0.588   0.556  0.1890  0.1987 -0.8000
  713MOL0     C96143   3.263   0.608   0.419 -0.0406 -0.5321  0.0145
  713MOL0     O96144   3.139   0.683   0.413 -0.1218  0.5032  0.4067
  713MOL0     C96145   3.028   0.614   0.410 -0.0980 -0.1316 -0.0016
  713MOL0     C96146   3.016   0.476   0.374 -0.1066 -0.2115 -0.0629
  713MOL0     C96147   2.900   0.400   0.386  0.0442 -0.5679 -0.4580
  713MOL0     C96148   2.917   0.253   0.351 -1.1656  0.1158  0.7575
  713MOL0     C96149   2.776   0.471   0.417  0.2795  0.3257 -0.0880
  713MOL0     C96150   2.636   0.406   0.438 -0.0804  0.4375  0.1726
  713MOL0     O96151   2.608   0.288   0.374 -0.4667 -0.4776 -0.4807
  713MOL0     C96152   2.488   0.226   0.404 -0.7885 -0.8268 -0.6241
  713MOL0     C96153   2.470   0.114   0.489 -0.5599  0.3503  0.8697
  713MOL0     C96154   2.361   0.028   0.490  0.6570 -0.1315  0.4971
  713MOL0     C96155   2.255   0.054   0.405 -0.0971 -1.1517 -0.8396
  713MOL0     O96156   2.148  -0.038   0.420  0.1168 -1.3986  0.3720
  713MOL0     C96157   2.057  -0.050   0.305  0.5807  0.2015 -0.0745
  713MOL0     C96158   1.983  -0.183   0.309 -0.5092 -0.0154  0.3777
  713MOL0     C96159   1.880  -0.200   0.416 -0.1631 -0.0883  0.3065
  713MOL0     C96160   1.806  -0.329   0.394  0.0546 -0.0990 -0.0772
  713MOL0     C96161   1.696  -0.357   0.496  0.3911  0.5303  0.5237
  713MOL0     C96162   1.627  -0.495   0.469  0.2129 -0.3000  0.3005
  713MOL0     C96163   1.571  -0.552   0.596 -0.2906  0.1586 -0.5501
  713MOL0     C96164   1.483  -0.669   0.590  0.1978  0.1988  0.9382
  713MOL0    Cl96165   1.582  -0.817   0.541 -0.2939  0.1084 -0.1305
  713MOL0     C96166   2.260   0.172   0.323 -0.6196  0.1611 -0.1729
  713MOL0     C96167   2.371   0.257   0.328 -0.6006  0.2485 -0.0234
  713MOL0     O96168   2.565   0.460   0.523  0.3242  0.1966 -0.3365
  713MOL0     C96169   2.785   0.609   0.447  0.4971 -0.1108  0.4558
  713MOL0     C96170   2.909   0.677   0.448  1.0820 -0.4982 -0.7201
  713MOL0     N96171   3.110   0.370   0.897  0.1744  0.0347  0.7304
  713MOL0     N96172   3.017   0.287   0.910 -0.2229  0.5765 -0.4368
  713MOL0     C96173   3.186   0.442   1.567 -0.5337 -0.2932  0.3829
  713MOL0     C96174   3.309   0.498   1.577 -0.6994  0.0703 -0.2317
  713MOL0     C96175   3.781   0.457   1.607  0.5141  0.2171 -0.0218
  713MOL0     C96176   3.844   0.525   1.499 -0.6477  0.4071  0.5511
  713MOL0     C96177   3.980   0.510   1.471 -0.1987  1.1331  1.2923
  713MOL0     C96178   4.064   0.433   1.559  0.5379  0.2684  0.5939
  713MOL0     O96179   4.198   0.400   1.546 -0.2878 -0.0646 -0.4747
  713MOL0     C96180   4.277   0.499   1.486  0.4039  0.9391 -0.2904
  713MOL0     C96181   4.426   0.469   1.538  0.3205  0.1236 -0.6562
  713MOL0     C96182   4.527   0.594   1.500 -0.3340  0.5446  0.2409
  713MOL0     C96183   4.667   0.547   1.470 -0.6772  0.1292  0.8021
  713MOL0     C96184   4.759   0.627   1.388  0.1102 -0.3964 -0.0955
  713MOL0     C96185   4.830   0.717   1.353  0.6480  0.0804 -0.6802
  713MOL0     C96186   3.993   0.365   1.666 -0.9094  0.3067 -0.5457
  713MOL0     C96187   3.858   0.374   1.691  0.1580 -1.3565 -0.4795
  713MOL0     H96188   3.497   0.269   1.421  0.3212 -1.2161  3.9115
  713MOL0     H96189   3.277   0.165   1.392  1.2920 -0.4687  0.5454
  713MOL0     H96190   2.922   0.370   1.589 -0.5831 -0.8402 -0.3607
  713MOL0     H96191   2.939   0.436   1.426 -1.8045 -0.5741 -1.5835
  713MOL0     H96192   2.852   0.141   1.473  1.1571  0.2454  0.6908
  713MOL0     H96193   2.723   0.272   1.483 -1.3870 -0.7293 -2.0986
  713MOL0     H96194   2.773   0.351   1.273 -2.8267 -0.4884  1.5286
  713MOL0     H96195   2.903   0.232   1.243  0.3523 -1.6710  1.5660
  713MOL0     H96196   2.736   0.059   1.297  0.4206  1.7162  1.4640
  713MOL0     H96197   2.610   0.184   1.264 -1.1772 -2.7264  0.0946
  713MOL0     H96198   2.816   0.088   1.070 -1.5384 -1.7394  0.2604
  713MOL0     H96199   2.643   0.045   1.065  1.7554 -2.3400  1.7572
  713MOL0     H96200   2.587   0.282   1.022  2.0638  3.9495 -0.6146
  713MOL0     H96201   2.752   0.329   1.030  2.5345 -1.2102 -1.4071
  713MOL0     H96202   2.602   0.203   0.808  1.7568 -0.2246 -3.3949
  713MOL0     H96203   2.690   0.356   0.817  0.2515 -0.0973 -1.9760
  713MOL0     H96204   2.808   0.166   0.695  0.4262 -1.9400  0.5808
  713MOL0     H96205   2.831   0.101   0.853 -0.5463 -1.1547 -1.8665
  713MOL0     H96206   2.910   0.432   0.645  0.4318 -0.0771 -1.3615
  713MOL0     H96207   3.083   0.607   0.663 -2.1933 -0.6945  0.4523
  713MOL0     H96208   3.195   0.627   0.806 -1.1325 -0.7469  1.2329
  713MOL0     H96209   3.221   0.401   0.601  0.3705 -0.8016  1.8332
  713MOL0     H96210   3.328   0.449   0.735  0.3934  0.1548  0.3075
  713MOL0     H96211   3.429   0.539   0.542 -0.6564 -3.0338  2.6923
  713MOL0     H96212   3.350   0.685   0.603  3.5506 -2.1441  3.5460
  713MOL0     H96213   3.259   0.515   0.361 -1.8416  0.6051 -1.7927
  713MOL0     H96214   3.335   0.669   0.364 -1.8512  1.1294 -0.5788
  713MOL0     H96215   3.104   0.427   0.334  0.4690  0.2481  0.6165
  713MOL0     H96216   2.965   0.195   0.431 -1.0126 -0.0606  0.5407
  713MOL0     H96217   2.827   0.202   0.315 -0.6720  0.7818 -1.5541
  713MOL0     H96218   2.988   0.251   0.268 -0.2775  1.5403  1.4468
  713MOL0     H96219   2.556   0.089   0.550  0.2611 -2.3031 -1.2063
  713MOL0     H96220   2.349  -0.062   0.550  1.5294 -1.7343 -1.5845
  713MOL0     H96221   1.980   0.025   0.324  3.2576  2.6135  2.1257
  713MOL0     H96222   2.111  -0.045   0.209  2.1804 -2.5422  0.5480
  713MOL0     H96223   1.929  -0.186   0.214 -0.5067  0.9348  0.3378
  713MOL0     H96224   2.050  -0.269   0.317 -0.5383 -0.6471 -3.9825
  713MOL0     H96225   1.807  -0.120   0.395 -2.4497 -1.3799  2.7454
  713MOL0     H96226   1.923  -0.187   0.516  0.3231 -0.5559  0.1632
  713MOL0     H96227   1.765  -0.324   0.292  0.8632 -2.8945 -0.6195
  713MOL0     H96228   1.882  -0.407   0.401  0.7926  0.7004  0.9800
  713MOL0     H96229   1.622  -0.279   0.513 -0.4902  1.6554 -5.9236
  713MOL0     H96230   1.756  -0.370   0.587  1.6546 -1.0413 -0.4637
  713MOL0     H96231   1.558  -0.476   0.386  1.4209  2.6199 -0.1827
  713MOL0     H96232   1.701  -0.565   0.430  0.2812  0.3625 -0.7953
  713MOL0     H96233   1.511  -0.474   0.644  1.4608  0.9961  0.3714
  713MOL0     H96234   1.656  -0.573   0.661  0.2680 -0.1181 -1.3509
  713MOL0     H96235   1.406  -0.658   0.513  0.7955 -2.1428 -0.0904
  713MOL0     H96236   1.452  -0.698   0.691  2.8705 -0.2828  1.7180
  713MOL0     H96237   2.183   0.189   0.248 -2.2525  1.5446  1.6645
  713MOL0     H96238   2.384   0.323   0.243 -2.4573 -2.3541 -2.5381
  713MOL0     H96239   2.691   0.658   0.471 -0.4866 -1.0896 -1.2362
  713MOL0     H96240   2.908   0.783   0.469  1.2274  0.1054 -3.4090
  713MOL0     H96241   3.101   0.495   1.608  1.5008  1.0794  3.1657
  713MOL0     H96242   3.324   0.594   1.626  2.9772 -1.2793  1.6387
  713MOL0     H96243   3.789   0.589   1.432  0.5768  0.2159 -0.6857
  713MOL0     H96244   4.023   0.552   1.381  1.1301 -0.6867  1.0224
  713MOL0     H96245   4.274   0.482   1.378 -3.8921 -0.8222 -0.0711
  713MOL0     H96246   4.245   0.595   1.528 -2.7785  0.8693 -2.2203
  713MOL0     H96247   4.461   0.377   1.490  5.0920  1.8916 -1.1245
  713MOL0     H96248   4.417   0.456   1.646 -1.3491  3.8404 -0.1922
  713MOL0     H96249   4.529   0.664   1.584  1.0475  1.3289 -0.4174
  713MOL0     H96250   4.503   0.648   1.408 -3.3044 -0.2997  0.4234
  713MOL0     H96251   4.669   0.448   1.425  4.3744 -0.2488  1.3394
  713MOL0     H96252   4.717   0.522   1.564 -0.6541 -0.3062  0.6761
  713MOL0     H96253   4.902   0.791   1.326  2.4904 -0.2829  2.6855
  713MOL0     H96254   4.051   0.305   1.735 -0.5890 -0.6023 -1.5652
  713MOL0     H96255   3.809   0.335   1.780 -1.2613  2.3223  0.5499
  714MOL0     O96256   0.458   8.481   1.849 -0.5497  0.6619  0.1587
  714MOL0     C96257   0.373   8.406   1.790 -0.0658 -0.7806  0.1287
  714MOL0     O96258   0.280   8.325   1.854  0.1487 -1.2174  0.2148
  714MOL0     C96259   0.274   8.314   1.989  0.1767  0.0597 -0.4558
  714MOL0     C96260   0.382   8.320   2.078 -0.0540 -0.4297  0.3589
  714MOL0     C96261   0.364   8.306   2.214  0.8180  1.0085 -0.6570
  714MOL0     C96262   0.239   8.265   2.261  0.2035 -0.1670 -0.1006
  714MOL0     O96263   0.215   8.223   2.386 -0.6530  0.0164  0.3481
  714MOL0     C96264   0.277   8.296   2.487  0.1179  0.2424  0.2095
  714MOL0     C96265   0.211   8.278   2.619  0.5782 -0.2914 -1.4032
  714MOL0     C96266   0.248   8.138   2.671 -0.5446  0.2814  0.3121
  714MOL0     C96267   0.267   8.120   2.813  0.3132 -0.1234  0.7387
  714MOL0     C96268   0.298   7.977   2.852 -0.3781 -0.0924  0.4966
  714MOL0     C96269   0.331   7.946   2.996  0.1905 -0.3750 -0.1476
  714MOL0     C96270   0.456   7.863   3.003  0.5882  0.4397  0.1454
  714MOL0     C96271   0.418   7.720   2.960 -0.4006  0.0009 -0.4852
  714MOL0     N96272   0.527   7.646   2.891  0.2094 -0.4267 -0.6702
  714MOL0     C96273   0.636   7.578   2.949  0.7982 -0.8863 -0.8029
  714MOL0     C96274   0.680   7.495   2.853  0.4535  0.3013 -0.5053
  714MOL0     C96275   0.807   7.406   2.858 -0.7809 -0.1111  0.5748
  714MOL0     C96276   0.936   7.472   2.816 -0.4365  0.6180  0.5928
  714MOL0     C96277   0.925   7.537   2.676  0.3746  0.1100 -1.0299
  714MOL0     C96278   1.021   7.655   2.659 -0.4738 -0.1707 -0.3448
  714MOL0     O96279   1.150   7.596   2.690 -0.7801 -0.7264 -0.7360
  714MOL0     C96280   1.265   7.679   2.704  0.5586 -0.6246  0.9627
  714MOL0     C96281   1.264   7.808   2.658 -0.1133 -0.9382  0.2574
  714MOL0     C96282   1.384   7.887   2.672  0.1388 -0.2879  0.1294
  714MOL0     C96283   1.383   8.028   2.619  0.2889  0.1010  0.1730
  714MOL0     C96284   1.501   7.828   2.718 -1.1450  0.4064  0.0237
  714MOL0     C96285   1.633   7.896   2.725 -0.0809 -0.3514  0.6063
  714MOL0     O96286   1.743   7.824   2.708  0.3435  0.7574  0.0056
  714MOL0     C96287   1.864   7.886   2.724 -0.3911 -0.6326 -0.7897
  714MOL0     C96288   1.949   7.917   2.617 -0.1434  0.2194 -0.0465
  714MOL0     C96289   2.078   7.968   2.644 -0.2329 -0.5407 -0.1115
  714MOL0     C96290   2.125   7.988   2.775  0.1655 -0.3546 -0.4752
  714MOL0     O96291   2.237   8.057   2.803  0.4632 -0.1053 -0.0684
  714MOL0     C96292   2.358   8.031   2.729  0.2170  0.8917  0.0355
  714MOL0     C96293   2.471   8.004   2.830  1.1481  0.0397 -0.0892
  714MOL0     C96294   2.497   8.127   2.930  0.1413 -0.1251 -0.8060
  714MOL0     C96295   2.639   8.108   2.996  0.8897  0.6309 -0.5558
  714MOL0     C96296   2.653   7.979   3.078  0.3368  0.0853 -0.8201
  714MOL0     C96297   2.785   7.993   3.161  0.5690 -0.8106  0.2070
  714MOL0     C96298   2.817   7.868   3.242  0.6439  0.0030  0.0783
  714MOL0     C96299   2.967   7.865   3.293  0.2272  0.2269  0.6109
  714MOL0    Cl96300   3.074   7.812   3.147 -0.0667 -0.0705  0.2132
  714MOL0     C96301   2.029   7.982   2.880 -0.0510 -0.7460  0.6348
  714MOL0     C96302   1.903   7.926   2.854  0.2225  0.3346 -0.2977
  714MOL0     O96303   1.632   8.012   2.764 -0.3951  0.0383  0.0670
  714MOL0     C96304   1.498   7.694   2.745 -0.7678  0.2713  0.2026
  714MOL0     C96305   1.376   7.624   2.738  0.5190  0.2754 -0.2367
  714MOL0     N96306   0.600   7.497   2.746  0.5792  0.3422  0.2221
  714MOL0     N96307   0.508   7.586   2.769 -0.3997 -0.1295  0.1537
  714MOL0     C96308   0.134   8.238   2.167  0.2549 -0.3585 -0.0462
  714MOL0     C96309   0.154   8.256   2.029 -1.0337  0.0086  0.0064
  714MOL0     C96310   0.359   8.419   1.646 -0.1014 -0.4973  0.6236
  714MOL0     C96311   0.273   8.337   1.566  0.0226  0.2065 -0.4438
  714MOL0     C96312   0.258   8.354   1.424 -0.6028  0.5272  0.1659
  714MOL0     C96313   0.327   8.459   1.358  1.1874  1.0700 -0.4532
  714MOL0     O96314   0.322   8.491   1.226  0.6711  0.1543 -0.5006
  714MOL0     C96315   0.226   8.429   1.139  0.0875 -0.3664  0.4921
  714MOL0     C96316   0.218   8.488   0.996 -0.3744  0.6729  0.6115
  714MOL0     C96317   0.335   8.445   0.901 -0.1109  0.0935 -0.2415
  714MOL0     C96318   0.345   8.518   0.778 -0.2413  0.0646  0.2782
  714MOL0     C96319   0.292   8.434   0.665 -0.7906 -0.4562 -0.1868
  714MOL0     C96320   0.252   8.372   0.574  0.1033 -0.0693 -0.5845
  714MOL0     C96321   0.412   8.544   1.426  0.2324 -0.4942  0.1090
  714MOL0     C96322   0.424   8.516   1.565 -0.7614  0.0259 -0.4774
  714MOL0     H96323   0.482   8.350   2.049  0.6761 -0.8970  2.2625
  714MOL0     H96324   0.450   8.311   2.280  0.1347 -0.4655  0.3976
  714MOL0     H96325   0.380   8.261   2.489 -0.3782 -1.3477  0.3411
  714MOL0     H96326   0.264   8.400   2.457 -0.5672  0.3307  0.7915
  714MOL0     H96327   0.261   8.354   2.680  0.3247  0.7053 -2.3999
  714MOL0     H96328   0.104   8.296   2.607  0.6068  2.3347  1.1376
  714MOL0     H96329   0.162   8.077   2.643 -0.3679  0.7971 -1.4565
  714MOL0     H96330   0.343   8.112   2.622  0.2671  2.2694  0.7446
  714MOL0     H96331   0.337   8.184   2.867 -0.5268 -0.6938  2.5989
  714MOL0     H96332   0.168   8.147   2.852  0.5127  0.4016  0.8875
  714MOL0     H96333   0.217   7.915   2.813 -1.1136  1.5158 -0.6747
  714MOL0     H96334   0.382   7.946   2.789 -1.2417 -0.0783 -0.6987
  714MOL0     H96335   0.349   8.039   3.050 -1.4734 -1.1058  1.8087
  714MOL0     H96336   0.255   7.905   3.064 -2.1983  2.0804 -1.1580
  714MOL0     H96337   0.538   7.915   2.952  0.0332  0.9855 -0.1987
  714MOL0     H96338   0.487   7.866   3.108  1.5836  0.4924 -0.1394
  714MOL0     H96339   0.338   7.716   2.886 -0.2698  0.8560 -0.6770
  714MOL0     H96340   0.377   7.667   3.047 -0.0671 -2.2122 -1.6012
  714MOL0     H96341   0.679   7.601   3.046  0.0175 -0.8480 -0.4539
  714MOL0     H96342   0.826   7.356   2.954  1.5275 -1.9632 -0.7516
  714MOL0     H96343   0.790   7.322   2.791 -0.2286 -0.2669  0.6221
  714MOL0     H96344   1.013   7.395   2.824 -3.5761 -2.7078  1.1130
  714MOL0     H96345   0.964   7.554   2.883 -2.1912  2.2360 -0.5362
  714MOL0     H96346   0.832   7.594   2.672  0.2264  0.1820  1.7062
  714MOL0     H96347   0.921   7.470   2.590  0.6800  0.2123 -1.1254
  714MOL0     H96348   1.007   7.751   2.710  1.8253  0.1012 -0.1074
  714MOL0     H96349   1.018   7.684   2.554  1.7800  2.0013  0.0877
  714MOL0     H96350   1.176   7.851   2.613  0.6263  0.1632 -0.1696
  714MOL0     H96351   1.469   8.041   2.554  1.0392 -0.3739  1.0358
  714MOL0     H96352   1.285   8.051   2.576  0.2088 -0.2393  0.1704
  714MOL0     H96353   1.402   8.086   2.710  1.1908  0.2120 -0.0743
  714MOL0     H96354   1.915   7.904   2.514  1.0721  0.0745 -0.4489
  714MOL0     H96355   2.136   8.002   2.559 -0.6449  0.4023 -0.0290
  714MOL0     H96356   2.352   7.949   2.657 -0.4475  2.7685 -2.1692
  714MOL0     H96357   2.404   8.114   2.676  2.5885 -0.5480 -0.2936
  714MOL0     H96358   2.452   7.922   2.899 -1.9818  0.2283 -0.5813
  714MOL0     H96359   2.567   7.985   2.780  2.2640  3.8804  0.2781
  714MOL0     H96360   2.408   8.140   2.992  0.3716 -2.2154  0.0169
  714MOL0     H96361   2.505   8.213   2.863  3.3557 -2.1119 -3.2580
  714MOL0     H96362   2.715   8.114   2.917 -0.0294 -3.0069 -1.8869
  714MOL0     H96363   2.654   8.194   3.062 -0.3605 -0.3447  1.0604
  714MOL0     H96364   2.636   7.884   3.026  2.6828  0.0866 -1.7117
  714MOL0     H96365   2.572   7.970   3.151  2.1633  2.6681  1.7579
  714MOL0     H96366   2.862   8.019   3.088  0.8924  1.9385  1.4000
  714MOL0     H96367   2.783   8.069   3.239  2.6968 -1.6406  1.1725
  714MOL0     H96368   2.783   7.776   3.195 -1.2972 -0.2685  1.8711
  714MOL0     H96369   2.748   7.882   3.325 -3.2129  0.0565 -2.8890
  714MOL0     H96370   2.988   7.805   3.381  0.3970 -0.0768  0.3657
  714MOL0     H96371   2.988   7.970   3.313 -1.6249  0.9572 -0.9848
  714MOL0     H96372   2.050   8.032   2.973 -0.5942  1.3412 -0.3027
  714MOL0     H96373   1.835   7.920   2.938 -1.2831  2.1051 -1.3315
  714MOL0     H96374   1.587   7.642   2.777  1.2917  2.6456 -1.3233
  714MOL0     H96375   1.371   7.520   2.769 -1.2260  0.6551  0.8380
  714MOL0     H96376   0.042   8.195   2.204 -1.3341  2.1055 -0.9587
  714MOL0     H96377   0.069   8.229   1.967  0.5468 -0.1758 -2.2053
  714MOL0     H96378   0.224   8.253   1.615  2.3537 -1.1118 -0.2492
  714MOL0     H96379   0.201   8.280   1.367 -0.3356 -0.6873  1.4171
  714MOL0     H96380   0.249   8.323   1.125  0.9009 -0.2992  1.2891
  714MOL0     H96381   0.131   8.432   1.194 -0.6609 -0.2975 -0.7588
  714MOL0     H96382   0.203   8.596   1.004 -0.8277  0.5498  1.5389
  714MOL0     H96383   0.130   8.433   0.963  0.3199 -1.3683  1.9895
  714MOL0     H96384   0.323   8.337   0.888 -1.9019 -0.1017  2.3299
  714MOL0     H96385   0.423   8.470   0.960 -1.1528  0.1838  1.3279
  714MOL0     H96386   0.450   8.545   0.766 -1.3177  4.9699 -0.4078
  714MOL0     H96387   0.292   8.612   0.797  0.8463  0.1971  3.2468
  714MOL0     H96388   0.215   8.293   0.510 -1.3766 -0.9130  1.2094
  714MOL0     H96389   0.452   8.635   1.382 -3.1543  0.6108 -0.9785
  714MOL0     H96390   0.505   8.576   1.607 -1.9270  0.0863  1.8194
  715MOL0     O96391   7.031   2.491   9.523  0.3195 -0.1330 -0.3208
  715MOL0     C96392   7.032   2.377   9.483  0.0449 -0.6138 -0.3844
  715MOL0     O96393   7.132   2.308   9.422  0.3716  0.1168  0.4565
  715MOL0     C96394   7.239   2.387   9.385 -0.0207  0.7797  0.5214
  715MOL0     C96395   7.252   2.432   9.255 -0.3865 -0.5525  0.2155
  715MOL0     C96396   7.367   2.507   9.216  0.7097 -0.9589 -0.3434
  715MOL0     C96397   7.471   2.538   9.309 -0.3890  0.7636  0.1927
  715MOL0     O96398   7.588   2.604   9.269 -0.4474  0.2578  0.2167
  715MOL0     C96399   7.600   2.652   9.131 -1.1398 -0.0560  0.2528
  715MOL0     C96400   7.730   2.720   9.118  0.1415  0.1455  0.2391
  715MOL0     C96401   7.845   2.615   9.105 -0.1399 -0.0208 -0.4930
  715MOL0     C96402   7.969   2.697   9.064  0.8027 -1.1589 -0.0676
  715MOL0     C96403   8.103   2.660   9.126  0.1335  0.7658  0.8088
  715MOL0     C96404   8.105   2.677   9.272  0.2532 -0.6771 -0.0340
  715MOL0     C96405   8.122   2.827   9.314  0.5020  0.5177  0.4655
  715MOL0     C96406   8.273   2.863   9.319 -0.7781  0.1673  0.5289
  715MOL0     N96407   8.282   3.009   9.336  0.0019 -0.3485 -0.2806
  715MOL0     C96408   8.266   3.078   9.455  0.9715  0.2555 -0.2097
  715MOL0     C96409   8.322   3.197   9.431 -0.2192  0.7745  1.2662
  715MOL0     C96410   8.337   3.306   9.530  0.3080  0.4702  0.0103
  715MOL0     C96411   8.437   3.408   9.483  1.2607 -0.0454  0.7259
  715MOL0     C96412   8.443   3.525   9.585  0.0529 -0.5201  0.0106
  715MOL0     C96413   8.550   3.625   9.551 -0.5336 -1.1158  0.1871
  715MOL0     O96414   8.676   3.550   9.568  0.6769  0.6807  0.1674
  715MOL0     C96415   8.800   3.609   9.554 -0.2387  0.1837  0.1397
  715MOL0     C96416   8.910   3.538   9.591  0.1014  0.6878 -0.2090
  715MOL0     C96417   9.036   3.569   9.549 -0.3296  0.3244  0.6955
  715MOL0     C96418   9.152   3.477   9.552  0.0141 -0.3589 -0.8590
  715MOL0     C96419   9.062   3.700   9.492  0.0209 -0.7921 -0.2779
  715MOL0     C96420   9.197   3.740   9.446 -0.1738 -0.2363 -0.0595
  715MOL0     O96421   9.312   3.706   9.515  0.2705  0.8337  0.4927
  715MOL0     C96422   9.429   3.777   9.487  0.2242  0.8231  0.0291
  715MOL0     C96423   9.471   3.896   9.543 -0.8867 -0.2920  0.1135
  715MOL0     C96424   9.604   3.942   9.525 -0.1840  0.3244  0.0668
  715MOL0     C96425   9.693   3.872   9.437 -0.4157 -0.3353  0.4754
  715MOL0     O96426   9.827   3.916   9.428  0.5806 -0.1293  0.1549
  715MOL0     C96427   9.900   3.878   9.313  0.1779  0.1994 -0.4510
  715MOL0     C96428  10.041   3.919   9.321  0.9220  0.4498 -0.5053
  715MOL0     C96429  10.135   3.836   9.405 -0.5276 -0.5018  0.2567
  715MOL0     C96430  10.275   3.904   9.407 -0.7580 -0.0493  0.9099
  715MOL0     C96431  10.377   3.827   9.496 -0.2947  0.2812  0.8402
  715MOL0     C96432  10.511   3.882   9.466 -0.0846 -0.0991 -0.8603
  715MOL0     C96433  10.623   3.783   9.509  0.3650  0.2484 -0.5870
  715MOL0     C96434  10.752   3.867   9.491  1.0015  0.4476 -0.4493
  715MOL0    Cl96435  10.788   3.955   9.646  0.1318  0.0042  0.1958
  715MOL0     C96436   9.644   3.772   9.366  0.5364  0.4742  0.8164
  715MOL0     C96437   9.517   3.715   9.397 -0.8942  0.3509  0.6214
  715MOL0     O96438   9.198   3.820   9.350  0.2059  0.4023 -0.2878
  715MOL0     C96439   8.953   3.792   9.476 -0.0746  0.8231 -0.8333
  715MOL0     C96440   8.821   3.750   9.519 -1.1901  0.2077  1.0870
  715MOL0     N96441   8.352   3.206   9.293  0.0232  0.2224 -0.4723
  715MOL0     N96442   8.339   3.086   9.242 -0.0507 -0.2671  0.9916
  715MOL0     C96443   7.465   2.493   9.442  0.8180  0.1727 -0.9195
  715MOL0     C96444   7.349   2.423   9.477 -0.3889  0.6177 -0.1370
  715MOL0     C96445   6.914   2.296   9.511 -0.4701 -0.4319 -0.1007
  715MOL0     C96446   6.786   2.351   9.511  0.1501  0.1068  0.1301
  715MOL0     C96447   6.681   2.264   9.535 -0.2341 -0.4077 -0.0746
  715MOL0     C96448   6.693   2.129   9.565  0.0356  0.5038 -0.1225
  715MOL0     O96449   6.577   2.059   9.597  0.0532 -0.2224 -0.2749
  715MOL0     C96450   6.579   1.920   9.620 -0.8389 -0.4897  0.4343
  715MOL0     C96451   6.450   1.863   9.670  0.3375 -0.2848  0.9879
  715MOL0     C96452   6.406   1.944   9.797  0.6232 -0.5756 -0.1469
  715MOL0     C96453   6.509   1.943   9.915  0.0201 -0.8370  0.8965
  715MOL0     C96454   6.518   1.806   9.965 -0.5153 -0.3215  0.6665
  715MOL0     C96455   6.513   1.691   9.996  0.5927  0.6692  0.7143
  715MOL0     C96456   6.817   2.072   9.565  0.3567  0.5685 -0.8060
  715MOL0     C96457   6.925   2.157   9.537  0.0908 -1.0755 -0.1170
  715MOL0     H96458   7.176   2.414   9.180 -2.0185  2.5857  0.9485
  715MOL0     H96459   7.371   2.541   9.113 -2.9541 -1.7565 -0.8836
  715MOL0     H96460   7.592   2.563   9.068  0.2334 -2.1362  2.8411
  715MOL0     H96461   7.516   2.720   9.117 -0.0349  1.7090  1.7685
  715MOL0     H96462   7.740   2.776   9.025  2.3297 -0.4805  0.0307
  715MOL0     H96463   7.737   2.779   9.209  1.3112 -1.0020  0.9272
  715MOL0     H96464   7.856   2.570   9.204 -0.5242  3.0854  1.0853
  715MOL0     H96465   7.820   2.536   9.034 -1.7178 -2.0665  2.1627
  715MOL0     H96466   7.973   2.684   8.955  1.1103 -1.4022 -0.0284
  715MOL0     H96467   7.955   2.805   9.075 -0.2194 -1.0061 -2.2482
  715MOL0     H96468   8.137   2.558   9.106  0.8534  0.8849  1.3854
  715MOL0     H96469   8.169   2.733   9.078  0.1573  1.0271  1.2265
  715MOL0     H96470   8.016   2.633   9.319 -0.9235  2.1790  0.6460
  715MOL0     H96471   8.197   2.634   9.313  1.1962  0.1225 -1.2417
  715MOL0     H96472   8.070   2.895   9.246  1.0314  1.4056  0.9331
  715MOL0     H96473   8.074   2.844   9.410 -1.4609  0.2291 -0.4253
  715MOL0     H96474   8.318   2.826   9.226 -3.2590  0.5417 -0.9029
  715MOL0     H96475   8.323   2.809   9.400 -2.8988 -1.6490  0.7088
  715MOL0     H96476   8.222   3.030   9.541  0.7488 -0.0275 -0.4810
  715MOL0     H96477   8.249   3.368   9.547  1.2697  1.2429  2.9121
  715MOL0     H96478   8.368   3.269   9.628  1.3360 -0.4371 -0.6345
  715MOL0     H96479   8.408   3.442   9.383  1.8134 -0.0006  0.5738
  715MOL0     H96480   8.532   3.357   9.465  1.9864  0.8865  1.7892
  715MOL0     H96481   8.451   3.497   9.690 -0.9849 -0.4016  0.1314
  715MOL0     H96482   8.347   3.576   9.592  0.2331 -0.1531 -0.1426
  715MOL0     H96483   8.551   3.710   9.620  1.1501 -0.3452 -0.7368
  715MOL0     H96484   8.529   3.666   9.452  1.7810  2.2104  0.8984
  715MOL0     H96485   8.885   3.442   9.634  2.8666 -0.6122 -1.1894
  715MOL0     H96486   9.118   3.374   9.545 -0.4848 -0.3672  1.1914
  715MOL0     H96487   9.221   3.485   9.467  1.0922 -0.9535 -0.0580
  715MOL0     H96488   9.204   3.507   9.643 -1.2470  1.1169 -0.5877
  715MOL0     H96489   9.412   3.938   9.625 -0.7573  2.1271 -0.9365
  715MOL0     H96490   9.642   4.027   9.581 -2.6935  2.2615 -0.9555
  715MOL0     H96491   9.895   3.769   9.305  1.0376  0.0785  0.5157
  715MOL0     H96492   9.856   3.935   9.230 -1.3390  1.4175  1.0969
  715MOL0     H96493  10.070   3.912   9.216  1.1583 -2.1968 -0.3431
  715MOL0     H96494  10.027   4.022   9.354 -4.1585  0.1000 -0.7233
  715MOL0     H96495  10.143   3.744   9.347 -1.0626  0.4711 -1.4314
  715MOL0     H96496  10.100   3.815   9.507 -0.1100 -1.8375  0.1350
  715MOL0     H96497  10.317   3.886   9.308  0.0365 -2.3907  1.5820
  715MOL0     H96498  10.267   4.009   9.436  1.3173  0.3706  0.1739
  715MOL0     H96499  10.365   3.722   9.469 -2.7888  1.0689 -1.5353
  715MOL0     H96500  10.358   3.836   9.603 -0.7051  0.2963  0.7653
  715MOL0     H96501  10.524   3.909   9.360  1.1295  0.3476 -0.6032
  715MOL0     H96502  10.520   3.979   9.516 -2.5816 -0.3742  0.2797
  715MOL0     H96503  10.624   3.692   9.448  1.9799  0.3079 -0.7075
  715MOL0     H96504  10.612   3.748   9.612 -2.9173 -0.6646 -1.1199
  715MOL0     H96505  10.737   3.946   9.417 -2.6674  3.5497  3.0975
  715MOL0     H96506  10.844   3.810   9.473  1.8597 -0.0048  4.1633
  715MOL0     H96507   9.701   3.708   9.298  3.0272  1.9701  1.3488
  715MOL0     H96508   9.485   3.627   9.342  3.3354  1.1027 -3.8158
  715MOL0     H96509   8.972   3.885   9.423  3.0254  2.0886  2.1065
  715MOL0     H96510   8.740   3.820   9.501 -1.7730 -0.7241 -0.1189
  715MOL0     H96511   7.545   2.514   9.512  0.1888 -2.3825  0.7294
  715MOL0     H96512   7.322   2.376   9.571 -0.8633  0.2709 -0.4425
  715MOL0     H96513   6.775   2.458   9.500  3.4045  0.7539  2.0349
  715MOL0     H96514   6.578   2.298   9.526 -0.9569 -1.8758  1.8001
  715MOL0     H96515   6.608   1.865   9.530 -0.5375  0.9228 -0.3570
  715MOL0     H96516   6.653   1.904   9.699  1.0022 -1.0645 -1.3245
  715MOL0     H96517   6.469   1.757   9.691  1.5162 -0.1062  0.8827
  715MOL0     H96518   6.367   1.873   9.599 -0.5066 -2.8754  1.5113
  715MOL0     H96519   6.312   1.895   9.826 -0.1490  0.5220 -0.7227
  715MOL0     H96520   6.392   2.048   9.765  3.0414 -0.1634 -0.0301
  715MOL0     H96521   6.480   2.005  10.000  2.9765  0.2189  1.2526
  715MOL0     H96522   6.606   1.979   9.880 -0.2584  0.0966  1.0706
  715MOL0     H96523   6.497   1.590  10.028  2.1276  0.4977  1.0489
  715MOL0     H96524   6.834   1.968   9.593  1.7201  0.6111 -1.3878
  715MOL0     H96525   7.024   2.114   9.545  0.2846 -0.7932 -0.8334
  716MOL0     O96526   2.075   5.754   8.069  0.4501 -1.2066 -0.0530
  716MOL0     C96527   2.030   5.646   8.028  0.4127 -0.3218  0.0293
  716MOL0     O96528   1.928   5.644   7.932 -0.3358 -0.2686  0.6203
  716MOL0     C96529   1.847   5.742   7.917 -0.5008  0.9980  0.2915
  716MOL0     C96530   1.894   5.870   7.879  0.5434  0.1049  0.1600
  716MOL0     C96531   1.799   5.974   7.844  0.0573  0.7551  0.6149
  716MOL0     C96532   1.663   5.950   7.855 -0.4985  0.2217  0.2738
  716MOL0     O96533   1.571   6.047   7.806  0.1877 -0.0481 -1.5283
  716MOL0     C96534   1.439   6.007   7.763 -0.5659 -0.3710 -0.7845
  716MOL0     C96535   1.358   6.119   7.693 -0.6601  0.9408 -0.1685
  716MOL0     C96536   1.218   6.070   7.646  0.1523 -0.2450 -0.3640
  716MOL0     C96537   1.151   6.169   7.545 -0.1888 -1.3085  0.4422
  716MOL0     C96538   1.006   6.120   7.515 -0.5656 -0.1844  1.1485
  716MOL0     C96539   0.932   6.208   7.415 -0.6889 -0.2613  0.9155
  716MOL0     C96540   0.781   6.178   7.410 -0.5245 -0.3118 -0.0002
  716MOL0     C96541   0.705   6.272   7.309 -0.1006 -0.1811  0.3194
  716MOL0     N96542   0.762   6.272   7.173  0.4048  0.4061  0.3064
  716MOL0     C96543   0.710   6.192   7.071 -1.0181 -0.5991 -0.0094
  716MOL0     C96544   0.801   6.219   6.974 -0.6539  0.4030  0.0711
  716MOL0     C96545   0.787   6.145   6.839  0.8025  0.2615 -0.1501
  716MOL0     C96546   0.739   6.231   6.719 -0.5288 -0.4604  1.1373
  716MOL0     C96547   0.616   6.315   6.731  0.7234  0.8751  0.3278
  716MOL0     C96548   0.611   6.410   6.611  0.8058  0.0214  0.1903
  716MOL0     O96549   0.621   6.345   6.485  0.3834 -0.3533 -0.3291
  716MOL0     C96550   0.653   6.433   6.383 -0.2798  0.6689 -0.2021
  716MOL0     C96551   0.560   6.529   6.340  0.0959 -0.1420  0.6231
  716MOL0     C96552   0.586   6.613   6.235  1.0725 -1.3389 -1.5792
  716MOL0     C96553   0.465   6.710   6.194 -0.2327 -0.8605 -0.2837
  716MOL0     C96554   0.717   6.605   6.182  0.0883 -1.0625 -0.6946
  716MOL0     C96555   0.764   6.703   6.078  0.2221 -0.4719  0.1006
  716MOL0     O96556   0.900   6.695   6.051 -0.2775 -0.8408  0.9411
  716MOL0     C96557   0.942   6.745   5.927 -0.7576  0.3088  0.1351
  716MOL0     C96558   0.955   6.650   5.816  0.1819  1.0972  0.0739
  716MOL0     C96559   1.008   6.694   5.692 -0.1876 -0.7255 -0.4862
  716MOL0     C96560   1.057   6.822   5.678  0.0219  0.0156  0.0083
  716MOL0     O96561   1.106   6.862   5.555  0.0172 -0.0167  0.5187
  716MOL0     C96562   1.069   6.792   5.439 -0.1020  0.3998 -0.6602
  716MOL0     C96563   1.113   6.883   5.320  1.0009  0.9661  0.1805
  716MOL0     C96564   1.049   6.859   5.184 -1.1881 -0.9551  0.7605
  716MOL0     C96565   1.075   6.973   5.077  0.8917 -0.8830 -0.3469
  716MOL0     C96566   1.059   6.950   4.930  0.3999  0.6839  0.0049
  716MOL0     C96567   1.072   7.086   4.849 -0.8301  0.2099 -1.0353
  716MOL0     C96568   1.215   7.151   4.846  0.0078 -0.5180 -0.5311
  716MOL0     C96569   1.201   7.290   4.782 -0.4390 -0.1415  0.4569
  716MOL0    Cl96570   1.139   7.408   4.904  0.0251  0.0212  0.1221
  716MOL0     C96571   1.051   6.915   5.780  0.4190  0.9484  0.4681
  716MOL0     C96572   1.000   6.877   5.908  0.6643  0.7476  0.5966
  716MOL0     O96573   0.685   6.778   6.027  0.0844  0.3538  1.0365
  716MOL0     C96574   0.817   6.517   6.235  0.3730 -0.9837  0.5464
  716MOL0     C96575   0.782   6.435   6.336 -0.4229  0.7564 -0.8869
  716MOL0     N96576   0.880   6.327   7.011 -0.0208  0.3725 -0.3516
  716MOL0     N96577   0.859   6.352   7.131 -0.3596 -0.7143  0.3773
  716MOL0     C96578   1.621   5.828   7.907 -0.1142 -0.8038  0.0308
  716MOL0     C96579   1.710   5.725   7.929 -0.5849  0.9959  0.9672
  716MOL0     C96580   2.095   5.525   8.069 -0.8733 -0.0885 -0.7177
  716MOL0     C96581   2.189   5.526   8.171  1.0674  1.0167  0.1163
  716MOL0     C96582   2.267   5.407   8.194  0.2135 -0.2697 -1.1314
  716MOL0     C96583   2.227   5.288   8.124 -0.4729 -0.4016 -0.6194
  716MOL0     O96584   2.292   5.177   8.152  0.1945  0.3974 -0.9754
  716MOL0     C96585   2.363   5.110   8.051  0.4933  0.3946 -0.2834
  716MOL0     C96586   2.377   4.966   8.097  0.1245 -0.5920 -0.6462
  716MOL0     C96587   2.237   4.883   8.096 -0.0438 -0.7686 -0.8899
  716MOL0     C96588   2.164   4.871   8.243 -0.3739 -0.0043 -0.4372
  716MOL0     C96589   2.088   4.744   8.242 -0.1671 -0.0780 -0.2055
  716MOL0     C96590   2.020   4.642   8.231 -0.1255  0.2586 -0.3946
  716MOL0     C96591   2.120   5.289   8.040  0.5607  1.0488  0.1038
  716MOL0     C96592   2.057   5.409   8.002  0.1055 -0.1402  0.3931
  716MOL0     H96593   2.000   5.895   7.872  0.2049  1.2800 -1.2089
  716MOL0     H96594   1.841   6.060   7.792  1.4672 -1.2779 -1.8111
  716MOL0     H96595   1.443   5.927   7.689  1.3524  0.2648 -1.4165
  716MOL0     H96596   1.382   5.956   7.842 -0.1488 -1.3597 -1.1082
  716MOL0     H96597   1.354   6.207   7.758 -2.8304  2.5521 -2.3053
  716MOL0     H96598   1.419   6.149   7.608 -0.7612  2.6877  0.3377
  716MOL0     H96599   1.226   5.969   7.603 -1.5467 -2.3930  3.7939
  716MOL0     H96600   1.158   6.062   7.737  2.8702  2.8930  1.9442
  716MOL0     H96601   1.145   6.269   7.590  0.6887 -1.6849  1.4609
  716MOL0     H96602   1.207   6.162   7.452 -0.8876 -4.4103  0.1405
  716MOL0     H96603   0.998   6.020   7.472  0.1581 -0.0923  0.7898
  716MOL0     H96604   0.959   6.120   7.614  1.7592 -1.5576  2.3309
  716MOL0     H96605   0.947   6.312   7.447  0.4097 -0.6773  1.8351
  716MOL0     H96606   0.980   6.198   7.318 -1.0397  2.6292  0.3545
  716MOL0     H96607   0.760   6.074   7.385 -1.7054 -0.4570  1.5104
  716MOL0     H96608   0.738   6.192   7.509 -2.9628 -0.1600 -1.0239
  716MOL0     H96609   0.707   6.378   7.339 -2.4111 -0.0009  0.0326
  716MOL0     H96610   0.598   6.249   7.313 -0.9357  3.2700  2.6765
  716MOL0     H96611   0.628   6.124   7.049 -1.7668  1.2144 -3.7684
  716MOL0     H96612   0.884   6.101   6.812  2.1003  2.1228  1.1784
  716MOL0     H96613   0.709   6.071   6.860  1.0249  0.5301  1.8184
  716MOL0     H96614   0.736   6.169   6.629 -0.5765 -1.1844  1.6255
  716MOL0     H96615   0.827   6.296   6.714  0.8364 -2.1485  1.9365
  716MOL0     H96616   0.614   6.372   6.825  1.0711 -1.4889  1.8351
  716MOL0     H96617   0.528   6.251   6.726  0.9160  0.6459 -0.0978
  716MOL0     H96618   0.703   6.469   6.619 -0.5925  2.4593 -0.8026
  716MOL0     H96619   0.529   6.482   6.612  1.8734  1.2737  0.2872
  716MOL0     H96620   0.463   6.523   6.389  0.4235 -2.3010  1.1250
  716MOL0     H96621   0.483   6.802   6.138  1.5250  0.3198  2.0911
  716MOL0     H96622   0.400   6.642   6.137 -0.2400 -2.8010  1.9001
  716MOL0     H96623   0.402   6.738   6.278  0.7497 -0.3254  0.2907
  716MOL0     H96624   0.929   6.545   5.820 -1.0187  1.3617 -0.3453
  716MOL0     H96625   1.035   6.617   5.621  2.6195  2.1880 -2.8825
  716MOL0     H96626   1.117   6.694   5.439 -0.5298  0.1857 -0.0867
  716MOL0     H96627   0.960   6.780   5.444  0.1319 -1.6023  1.1216
  716MOL0     H96628   1.092   6.986   5.350  1.0349  1.4746 -1.4502
  716MOL0     H96629   1.220   6.870   5.299  1.4051  0.6413  2.2438
  716MOL0     H96630   0.940   6.858   5.194 -1.4819  2.3185 -0.8954
  716MOL0     H96631   1.078   6.761   5.144  4.5087  0.1313  1.4263
  716MOL0     H96632   1.013   7.054   5.117  0.3065 -0.8139 -1.3761
  716MOL0     H96633   1.177   7.010   5.092  0.0536  0.9190  1.3571
  716MOL0     H96634   0.965   6.904   4.897  1.3965  0.2701 -2.4817
  716MOL0     H96635   1.143   6.889   4.893 -1.3649 -1.7329 -0.2531
  716MOL0     H96636   1.030   7.064   4.751 -1.2578  0.5800 -0.9390
  716MOL0     H96637   0.998   7.162   4.877 -1.3992 -0.4788 -0.6537
  716MOL0     H96638   1.291   7.098   4.787  0.2237 -1.0497  0.2113
  716MOL0     H96639   1.260   7.169   4.944  1.7943  1.6861 -1.6502
  716MOL0     H96640   1.138   7.287   4.693  2.2360 -1.3798 -1.5662
  716MOL0     H96641   1.293   7.322   4.732  0.0713 -2.9243 -0.6051
  716MOL0     H96642   1.092   7.015   5.768  0.0235  1.0235 -0.3847
  716MOL0     H96643   0.997   6.945   5.992 -1.7535  2.3375 -0.6536
  716MOL0     H96644   0.921   6.512   6.202  0.7136 -2.2099  1.7266
  716MOL0     H96645   0.837   6.348   6.370  2.3506  0.9550 -4.2411
  716MOL0     H96646   1.516   5.804   7.922 -0.5659 -0.2157 -1.8411
  716MOL0     H96647   1.684   5.628   7.969  0.9865  0.8559  1.7340
  716MOL0     H96648   2.202   5.619   8.225 -0.2180  0.8945  0.6856
  716MOL0     H96649   2.346   5.388   8.265  2.5711 -2.2198 -4.0102
  716MOL0     H96650   2.324   5.103   7.949  2.1174 -2.7352 -0.7959
  716MOL0     H96651   2.461   5.158   8.048 -0.1266  1.7476  0.0969
  716MOL0     H96652   2.415   4.970   8.199 -0.3960  1.9098 -0.4947
  716MOL0     H96653   2.448   4.911   8.035  2.0396 -0.6505  1.4882
  716MOL0     H96654   2.251   4.784   8.053  0.8109 -0.8582 -0.4253
  716MOL0     H96655   2.164   4.925   8.027  1.1867 -1.1151 -2.4491
  716MOL0     H96656   2.115   4.965   8.271  1.4997  1.1945 -1.0019
  716MOL0     H96657   2.252   4.869   8.307 -1.2560 -4.2169  0.9824
  716MOL0     H96658   1.974   4.546   8.227  2.7008 -1.1710 -1.0135
  716MOL0     H96659   2.086   5.198   7.991 -1.4321  0.6264  2.1436
  716MOL0     H96660   1.989   5.419   7.918  2.7668  2.5439 -1.6370
  717MOL0     O96661   9.914   1.293   9.079 -0.0729 -0.0481  0.1661
  717MOL0     C96662   9.922   1.414   9.097  0.2318  0.4142  0.3300
  717MOL0     O96663  10.016   1.487   9.036 -0.0146 -0.3934 -0.7991
  717MOL0     C96664  10.105   1.425   8.958 -0.3778 -0.5568  1.0490
  717MOL0     C96665  10.236   1.407   9.008  0.1844  0.3736  0.7751
  717MOL0     C96666  10.339   1.357   8.931 -0.4535 -0.3900  0.2787
  717MOL0     C96667  10.307   1.310   8.803  0.2360 -0.5193  0.3306
  717MOL0     O96668  10.394   1.250   8.716  0.2132 -0.3328 -0.5742
  717MOL0     C96669  10.430   1.320   8.592  0.8242  0.1935  0.2523
  717MOL0     C96670  10.480   1.470   8.612  0.0161  0.6870 -0.6475
  717MOL0     C96671  10.602   1.482   8.693 -0.5668  0.0615 -0.3685
  717MOL0     C96672  10.733   1.439   8.615 -0.4630  0.2915 -0.7766
  717MOL0     C96673  10.848   1.515   8.679  0.0211  0.8380 -0.5085
  717MOL0     C96674  10.995   1.486   8.620  1.0566 -0.0230 -0.9521
  717MOL0     C96675  11.019   1.558   8.481  0.1481 -0.5086  0.5553
  717MOL0     C96676  11.012   1.709   8.490 -0.3105 -0.7083 -0.5677
  717MOL0     N96677  11.047   1.783   8.368  0.0071  0.2780 -0.0782
  717MOL0     C96678  11.176   1.814   8.333 -0.2773  0.5128 -0.1020
  717MOL0     C96679  11.173   1.855   8.203  0.7103  0.0913 -0.1684
  717MOL0     C96680  11.287   1.887   8.115 -0.2032 -0.6611  1.0090
  717MOL0     C96681  11.330   2.034   8.145 -0.3004  0.5582 -0.5293
  717MOL0     C96682  11.416   2.100   8.045  0.2484  0.4012 -0.7252
  717MOL0     C96683  11.544   2.015   8.043  0.0783 -0.3267  0.0293
  717MOL0     O96684  11.632   2.100   7.964 -0.0442  0.7144 -0.3199
  717MOL0     C96685  11.757   2.050   7.935  0.0452 -0.9614 -0.7947
  717MOL0     C96686  11.878   2.103   7.987  0.0905  0.4374  1.0041
  717MOL0     C96687  12.002   2.065   7.923 -0.4698  0.0996  0.2080
  717MOL0     C96688  12.128   2.130   7.982 -0.7975  0.1873  0.1707
  717MOL0     C96689  12.011   1.968   7.822 -0.2749 -0.0326  0.2923
  717MOL0     C96690  12.125   1.908   7.757  0.3702  0.0418  0.3091
  717MOL0     O96691  12.117   1.772   7.736 -0.2674 -1.4281 -0.3414
  717MOL0     C96692  12.214   1.699   7.677  0.4850  0.6227 -0.4614
  717MOL0     C96693  12.236   1.581   7.737 -0.7712 -0.1984 -0.7116
  717MOL0     C96694  12.343   1.495   7.699  0.5472  1.3503  0.1673
  717MOL0     C96695  12.425   1.536   7.596 -0.3407 -0.4785 -0.2273
  717MOL0     O96696  12.528   1.451   7.562 -0.5492 -0.1048 -0.1668
  717MOL0     C96697  12.644   1.518   7.502  0.9230 -0.2867 -0.7840
  717MOL0     C96698  12.762   1.426   7.521 -0.5804  0.2993 -0.0259
  717MOL0     C96699  12.898   1.500   7.515  0.2759  0.6797  0.1951
  717MOL0     C96700  12.942   1.501   7.376  0.7041  0.4975 -0.4376
  717MOL0     C96701  13.071   1.581   7.362  0.8420  0.2352  0.3417
  717MOL0     C96702  13.087   1.641   7.216 -0.3746  0.1009  0.7168
  717MOL0     C96703  13.203   1.734   7.193  0.3523 -1.2568 -0.0599
  717MOL0     C96704  13.184   1.814   7.063  0.0002  0.6092  0.2944
  717MOL0    Cl96705  13.246   1.719   6.938 -0.1890 -0.0010  0.2871
  717MOL0     C96706  12.401   1.656   7.530 -0.8831 -0.8898 -0.8686
  717MOL0     C96707  12.290   1.744   7.570 -1.0046 -0.0227 -0.6272
  717MOL0     O96708  12.210   1.983   7.712  0.0033 -0.1296  0.4949
  717MOL0     C96709  11.888   1.914   7.772  0.2739 -1.1461 -0.7439
  717MOL0     C96710  11.769   1.954   7.832  0.5591 -0.4321 -0.9603
  717MOL0     N96711  11.037   1.839   8.167 -0.7310 -1.0163 -0.1071
  717MOL0     N96712  10.962   1.798   8.264 -0.0964  0.0797  0.0528
  717MOL0     C96713  10.174   1.327   8.756  0.4128 -0.8863  0.4530
  717MOL0     C96714  10.073   1.383   8.829  0.4120  0.4736 -0.8635
  717MOL0     C96715   9.844   1.481   9.192  0.2310 -1.0219 -0.4691
  717MOL0     C96716   9.729   1.420   9.243  0.1526 -0.7501  0.4508
  717MOL0     C96717   9.653   1.497   9.336  0.0523 -0.6678  0.5051
  717MOL0     C96718   9.687   1.626   9.380 -0.2912  0.2970  0.6800
  717MOL0     O96719   9.609   1.698   9.468 -0.5770  0.3001 -0.1259
  717MOL0     C96720   9.546   1.630   9.581  0.0093  0.0226 -0.0264
  717MOL0     C96721   9.389   1.603   9.569  0.4429 -0.0411 -0.4121
  717MOL0     C96722   9.340   1.544   9.695  0.9450 -0.5719  0.7011
  717MOL0     C96723   9.191   1.570   9.730 -0.0229  0.3900  0.1759
  717MOL0     C96724   9.096   1.535   9.621 -0.9663  0.3727 -0.0609
  717MOL0     C96725   9.004   1.497   9.555 -0.2317  0.1057 -0.0807
  717MOL0     C96726   9.809   1.681   9.338 -0.1825  0.6511  0.6352
  717MOL0     C96727   9.884   1.615   9.246 -0.5460  0.1172 -0.1607
  717MOL0     H96728  10.264   1.448   9.105  1.3736  1.0136  0.1789
  717MOL0     H96729  10.444   1.349   8.958 -0.5490 -1.3976  0.3864
  717MOL0     H96730  10.509   1.256   8.551  0.0220 -0.2668 -0.6036
  717MOL0     H96731  10.352   1.320   8.516  2.4707  1.1397 -1.5181
  717MOL0     H96732  10.514   1.520   8.521  2.2817 -0.2495 -0.3783
  717MOL0     H96733  10.407   1.532   8.664 -0.3003 -1.1552  1.2627
  717MOL0     H96734  10.617   1.589   8.708 -3.6475  0.8068 -1.9316
  717MOL0     H96735  10.592   1.439   8.793 -0.4287  3.4660  1.2545
  717MOL0     H96736  10.752   1.331   8.614  0.9181  0.5146 -1.0410
  717MOL0     H96737  10.706   1.472   8.515 -4.4668  1.2591  0.4660
  717MOL0     H96738  10.832   1.623   8.674 -1.2272  0.6114 -3.0900
  717MOL0     H96739  10.849   1.481   8.783  0.2645 -0.8302 -1.0298
  717MOL0     H96740  11.069   1.516   8.695 -0.1472  0.7176 -0.0056
  717MOL0     H96741  11.001   1.377   8.608 -2.2124 -0.6211  1.3126
  717MOL0     H96742  11.107   1.519   8.429  1.4368  3.6449 -0.7833
  717MOL0     H96743  10.941   1.537   8.407 -0.8002 -0.2776  1.4616
  717MOL0     H96744  11.072   1.747   8.573  0.2437 -0.9028 -0.8735
  717MOL0     H96745  10.906   1.732   8.505 -0.2141  1.7167 -2.8053
  717MOL0     H96746  11.265   1.799   8.393  0.6422  2.3502 -0.9107
  717MOL0     H96747  11.369   1.816   8.135  1.8735  1.1685 -0.4764
  717MOL0     H96748  11.247   1.876   8.013 -1.5235  1.8207  1.2012
  717MOL0     H96749  11.380   2.034   8.242 -0.0365  1.1472 -0.6635
  717MOL0     H96750  11.238   2.092   8.151 -1.2316 -1.0221  1.4756
  717MOL0     H96751  11.428   2.204   8.077 -0.6966  0.7446 -1.4585
  717MOL0     H96752  11.363   2.100   7.949 -1.6439 -2.2318  0.2159
  717MOL0     H96753  11.536   1.932   7.973  0.9299  1.8056 -2.8207
  717MOL0     H96754  11.587   1.986   8.140  1.9891 -2.3227 -1.3170
  717MOL0     H96755  11.868   2.174   8.068 -2.7625  0.4434  0.7441
  717MOL0     H96756  12.226   2.091   7.951 -1.3245  0.6875 -2.2932
  717MOL0     H96757  12.117   2.234   7.950  0.1866  0.2277 -0.0810
  717MOL0     H96758  12.122   2.143   8.090 -0.7758 -1.7320  0.4506
  717MOL0     H96759  12.172   1.543   7.816  1.8451 -1.1454  1.0831
  717MOL0     H96760  12.355   1.404   7.757  2.6728  1.9382  0.7195
  717MOL0     H96761  12.616   1.517   7.396 -0.5509 -3.2677 -0.4702
  717MOL0     H96762  12.672   1.619   7.534  2.2528 -0.6606 -0.6758
  717MOL0     H96763  12.733   1.376   7.614 -2.5792  0.1846 -0.6568
  717MOL0     H96764  12.764   1.349   7.442  2.9829  1.5771 -1.3762
  717MOL0     H96765  12.969   1.443   7.576 -3.1643 -2.9378  1.2216
  717MOL0     H96766  12.884   1.601   7.555 -1.0508  2.3565 -3.9557
  717MOL0     H96767  12.968   1.399   7.346 -2.0586 -0.0682 -1.2524
  717MOL0     H96768  12.860   1.538   7.313 -1.6434 -3.3158  0.0792
  717MOL0     H96769  13.154   1.524   7.404  1.7814  0.7135 -0.8073
  717MOL0     H96770  13.067   1.675   7.418  1.8025  0.6751 -0.2997
  717MOL0     H96771  13.088   1.558   7.145  0.6542  0.9318 -0.2713
  717MOL0     H96772  13.005   1.713   7.211  0.3460  1.0650  2.1479
  717MOL0     H96773  13.300   1.685   7.182  0.9414 -0.0129 -0.6688
  717MOL0     H96774  13.199   1.806   7.275 -1.5260 -0.2598 -0.9647
  717MOL0     H96775  13.224   1.916   7.065 -3.2652  2.0416 -0.5286
  717MOL0     H96776  13.078   1.822   7.036 -0.3508 -2.0124  0.6979
  717MOL0     H96777  12.462   1.679   7.443  0.6445 -0.4099  0.2851
  717MOL0     H96778  12.277   1.836   7.513 -1.0802 -0.2410 -0.9641
  717MOL0     H96779  11.898   1.859   7.679  0.3583  3.6264 -3.8933
  717MOL0     H96780  11.680   1.910   7.790  1.6813 -1.4890 -2.3578
  717MOL0     H96781  10.161   1.308   8.650  0.3788  0.8556  0.1131
  717MOL0     H96782   9.978   1.404   8.782  1.5533  3.5563 -2.0325
  717MOL0     H96783   9.685   1.334   9.193 -2.9839  0.9350  0.0872
  717MOL0     H96784   9.561   1.457   9.378 -1.3143  1.8006  0.0245
  717MOL0     H96785   9.599   1.544   9.622 -0.8084 -1.6786 -2.3085
  717MOL0     H96786   9.561   1.705   9.659 -1.6071 -0.1508  0.4828
  717MOL0     H96787   9.378   1.525   9.493 -1.1069 -0.9940  0.7142
  717MOL0     H96788   9.332   1.688   9.530  0.8798  0.5122  0.1299
  717MOL0     H96789   9.394   1.600   9.772 -0.1169 -0.2992  1.2646
  717MOL0     H96790   9.375   1.440   9.703  2.5554  0.0177  2.1789
  717MOL0     H96791   9.182   1.676   9.753  1.2731  0.1205  2.1329
  717MOL0     H96792   9.157   1.519   9.820 -3.1003  1.3207 -0.3535
  717MOL0     H96793   8.916   1.452   9.513  0.2712 -3.4130  2.2358
  717MOL0     H96794   9.844   1.774   9.381 -1.9186  0.6144  2.2537
  717MOL0     H96795   9.974   1.655   9.203  0.6909 -1.1923  1.0943
  718MOL0     O96796   9.175   2.729   3.406  0.3757 -0.3224 -0.2794
  718MOL0     C96797   9.174   2.696   3.285 -0.7750 -0.3294 -0.5008
  718MOL0     O96798   9.092   2.736   3.186  0.0506  0.2411  0.1093
  718MOL0     C96799   9.002   2.835   3.202 -1.0674  0.0955  0.1783
  718MOL0     C96800   8.883   2.818   3.138 -0.9863  0.8297  0.7490
  718MOL0     C96801   8.793   2.919   3.138 -0.1235 -0.2283 -0.6403
  718MOL0     C96802   8.818   3.038   3.209  0.2993  0.7387  0.5159
  718MOL0     O96803   8.729   3.143   3.220  0.8068 -0.0898  0.8695
  718MOL0     C96804   8.652   3.181   3.106 -0.2385  0.1944 -0.8491
  718MOL0     C96805   8.555   3.290   3.152  0.6070 -0.2141 -0.0867
  718MOL0     C96806   8.430   3.305   3.064  0.7310 -0.0157 -0.8076
  718MOL0     C96807   8.327   3.405   3.125 -0.0239 -0.4544  0.7150
  718MOL0     C96808   8.194   3.388   3.054 -0.1232  0.3864  0.4862
  718MOL0     C96809   8.079   3.458   3.117  0.4702 -0.6637 -0.1927
  718MOL0     C96810   7.966   3.483   3.012  0.6899 -0.1415  0.1929
  718MOL0     C96811   7.828   3.492   3.080  1.5396  0.1728  0.0413
  718MOL0     N96812   7.717   3.510   2.986  0.0983 -0.3761  0.2598
  718MOL0     C96813   7.674   3.436   2.876  0.0108  0.5442  0.3575
  718MOL0     C96814   7.606   3.524   2.796  0.8532  0.6042 -1.0736
  718MOL0     C96815   7.571   3.500   2.653 -0.3938 -0.2163 -0.2835
  718MOL0     C96816   7.442   3.418   2.639 -0.0884  0.1333 -0.2211
  718MOL0     C96817   7.328   3.456   2.745 -0.1530  0.2573  1.3550
  718MOL0     C96818   7.186   3.439   2.688  0.1987  1.1440 -0.1287
  718MOL0     O96819   7.161   3.302   2.646  0.1979  0.0032 -0.2256
  718MOL0     C96820   7.098   3.255   2.529  0.3326 -0.0375 -0.0426
  718MOL0     C96821   7.066   3.336   2.417  0.8509  0.4755  0.1228
  718MOL0     C96822   6.986   3.282   2.315 -1.6140  0.2562 -0.3043
  718MOL0     C96823   6.947   3.373   2.197 -0.4544  0.5509  0.1655
  718MOL0     C96824   6.945   3.149   2.318 -0.8563 -1.7328 -0.2135
  718MOL0     C96825   6.853   3.098   2.225 -0.1829  0.7807 -0.0641
  718MOL0     O96826   6.882   2.977   2.159  0.3441 -0.0206 -0.8360
  718MOL0     C96827   6.787   2.935   2.065 -0.3539 -0.1350 -0.0102
  718MOL0     C96828   6.716   2.815   2.093  0.2098  0.3311  0.5409
  718MOL0     C96829   6.629   2.767   1.989 -0.3090 -0.4987  0.1030
  718MOL0     C96830   6.604   2.841   1.878  0.0427  0.8055  0.5479
  718MOL0     O96831   6.502   2.807   1.790  0.5688 -0.1675  0.2505
  718MOL0     C96832   6.408   2.700   1.821 -0.1842  0.3192  0.2655
  718MOL0     C96833   6.473   2.559   1.775  0.2412  0.1969  0.3155
  718MOL0     C96834   6.520   2.542   1.637  0.3233 -0.3501  0.5734
  718MOL0     C96835   6.514   2.402   1.580 -0.3169  0.2523 -0.5772
  718MOL0     C96836   6.626   2.367   1.484  0.5315  0.5183 -0.0399
  718MOL0     C96837   6.761   2.365   1.558 -0.1072 -0.1279  0.5978
  718MOL0     C96838   6.873   2.398   1.453  0.3964 -0.0632  0.5414
  718MOL0     C96839   7.025   2.385   1.499  0.5173 -0.2999  0.4423
  718MOL0    Cl96840   7.146   2.365   1.358  0.2182 -0.5128 -0.3501
  718MOL0     C96841   6.668   2.959   1.852  0.5823 -0.2347 -0.5126
  718MOL0     C96842   6.764   3.001   1.945  0.0750  0.5961  0.3409
  718MOL0     O96843   6.746   3.159   2.216 -0.0723 -0.3302 -0.9831
  718MOL0     C96844   6.991   3.067   2.418 -0.0505  0.7699  0.3165
  718MOL0     C96845   7.063   3.119   2.524 -0.2211  1.0550 -0.1414
  718MOL0     N96846   7.599   3.647   2.865  0.1275  0.5606 -0.0751
  718MOL0     N96847   7.652   3.630   2.982  0.2690 -1.1905 -0.4803
  718MOL0     C96848   8.935   3.052   3.281 -0.6395  0.4513 -0.3114
  718MOL0     C96849   9.023   2.949   3.273 -0.2793  0.3054 -0.0379
  718MOL0     C96850   9.265   2.592   3.238  0.8086  0.7832 -1.5624
  718MOL0     C96851   9.373   2.559   3.319  0.2258  0.6442  0.1025
  718MOL0     C96852   9.449   2.455   3.284  0.6529  0.9182 -0.7380
  718MOL0     C96853   9.416   2.372   3.168  0.0466  0.4987 -1.0854
  718MOL0     O96854   9.509   2.275   3.131  0.0091 -0.5089  1.1008
  718MOL0     C96855   9.488   2.185   3.029 -0.1813  0.2299  0.4746
  718MOL0     C96856   9.624   2.099   3.026  0.5467  0.0682 -0.4728
  718MOL0     C96857   9.638   2.018   3.156 -0.4983  0.1034 -0.1373
  718MOL0     C96858   9.759   1.919   3.145  0.4396  0.1347  0.8451
  718MOL0     C96859   9.706   1.797   3.079 -0.3505  0.5685 -0.2637
  718MOL0     C96860   9.665   1.698   3.027  0.3983 -0.1413 -0.0488
  718MOL0     C96861   9.314   2.413   3.092  0.0836  0.4192  0.2619
  718MOL0     C96862   9.228   2.509   3.128  0.3422  0.1323  1.0716
  718MOL0     H96863   8.884   2.726   3.082 -0.4428  1.0571  0.3685
  718MOL0     H96864   8.695   2.914   3.093 -0.5773  1.2131  0.1171
  718MOL0     H96865   8.723   3.219   3.032 -0.7145  0.4846 -1.1646
  718MOL0     H96866   8.596   3.097   3.063  0.2502 -0.6375  0.1060
  718MOL0     H96867   8.517   3.249   3.246  1.3114  1.7269  1.0934
  718MOL0     H96868   8.603   3.383   3.182  1.5050 -0.8418  0.4805
  718MOL0     H96869   8.458   3.334   2.963  1.7194 -1.1004 -0.8675
  718MOL0     H96870   8.388   3.205   3.062 -0.4196  0.2716  2.4025
  718MOL0     H96871   8.326   3.385   3.233  3.0304  0.2572  0.9816
  718MOL0     H96872   8.374   3.502   3.108  0.6592 -0.5579  1.8780
  718MOL0     H96873   8.193   3.416   2.948 -0.5924 -0.0975  0.3652
  718MOL0     H96874   8.162   3.285   3.065 -0.6219  0.3694 -0.9248
  718MOL0     H96875   8.038   3.400   3.200 -0.8082  1.9378  1.1205
  718MOL0     H96876   8.110   3.551   3.167  2.3230 -0.5176 -1.5018
  718MOL0     H96877   7.985   3.571   2.949  1.0929 -1.0595 -1.0057
  718MOL0     H96878   7.967   3.394   2.949  1.9825  0.6302 -0.9318
  718MOL0     H96879   7.844   3.563   3.162  6.5239 -1.2176  0.6540
  718MOL0     H96880   7.822   3.393   3.126  2.3962  0.4177  0.7196
  718MOL0     H96881   7.701   3.333   2.856 -2.0136 -0.0664  0.4631
  718MOL0     H96882   7.553   3.596   2.603 -2.4756 -1.2713 -1.7355
  718MOL0     H96883   7.658   3.454   2.605  1.0236  3.2026 -1.3276
  718MOL0     H96884   7.467   3.315   2.664  0.6378 -0.4624 -3.0156
  718MOL0     H96885   7.405   3.417   2.536 -0.6687 -0.3775 -0.0140
  718MOL0     H96886   7.322   3.564   2.763  1.1103  0.4659  0.6560
  718MOL0     H96887   7.336   3.409   2.843 -3.9994  1.1728  2.2972
  718MOL0     H96888   7.181   3.503   2.599  1.3591 -1.5332 -2.2744
  718MOL0     H96889   7.120   3.483   2.763  0.4807 -2.5344  2.5630
  718MOL0     H96890   7.088   3.443   2.417 -2.8253  1.3670  1.8970
  718MOL0     H96891   6.990   3.332   2.105  4.1176  3.4765  0.6831
  718MOL0     H96892   6.838   3.370   2.191 -0.4712  1.8842 -0.6846
  718MOL0     H96893   6.977   3.478   2.207  1.2758  0.2805 -1.5372
  718MOL0     H96894   6.740   2.769   2.189 -2.6970 -3.4239 -0.3102
  718MOL0     H96895   6.582   2.672   2.016  0.9361 -0.7820  1.4173
  718MOL0     H96896   6.385   2.696   1.928 -0.2215 -1.4320  0.2167
  718MOL0     H96897   6.312   2.721   1.771 -1.0490  0.0698  1.7698
  718MOL0     H96898   6.562   2.547   1.838 -0.2357 -4.1388  0.5097
  718MOL0     H96899   6.395   2.488   1.804  0.0632  0.5346  0.6614
  718MOL0     H96900   6.621   2.584   1.633 -0.1915  0.7922 -2.0550
  718MOL0     H96901   6.460   2.606   1.573  0.8814 -0.8407 -0.4588
  718MOL0     H96902   6.514   2.332   1.664  0.0832  0.8567 -0.0660
  718MOL0     H96903   6.423   2.386   1.522 -0.0655 -2.5354 -0.3132
  718MOL0     H96904   6.620   2.433   1.397 -0.1701  0.3793 -0.1042
  718MOL0     H96905   6.607   2.262   1.459  0.8060  0.6415 -0.7903
  718MOL0     H96906   6.774   2.448   1.628  0.0527 -0.1310  0.5725
  718MOL0     H96907   6.768   2.270   1.612  0.1500 -1.2455 -1.3141
  718MOL0     H96908   6.863   2.502   1.419 -0.9648 -0.9268 -1.9550
  718MOL0     H96909   6.852   2.335   1.366 -2.1171  0.5739  0.5872
  718MOL0     H96910   7.039   2.303   1.570 -0.4471 -2.2607 -1.5336
  718MOL0     H96911   7.048   2.473   1.560 -2.7620  0.7298  0.3738
  718MOL0     H96912   6.630   3.000   1.759  0.4723 -0.5802 -0.6201
  718MOL0     H96913   6.811   3.096   1.922  2.3318 -0.5689 -0.0736
  718MOL0     H96914   6.947   2.968   2.424  1.8700 -0.0974  1.0677
  718MOL0     H96915   7.097   3.064   2.612 -3.0407  0.2780  0.5699
  718MOL0     H96916   8.960   3.147   3.327  2.7954  0.3158 -1.6452
  718MOL0     H96917   9.118   2.948   3.326  1.6136 -3.5542 -2.9452
  718MOL0     H96918   9.399   2.610   3.411 -2.2620  1.4190  0.4764
  718MOL0     H96919   9.529   2.427   3.353 -2.1044  2.6424  3.5495
  718MOL0     H96920   9.398   2.125   3.046  0.4533 -0.2286  2.4350
  718MOL0     H96921   9.490   2.240   2.934 -1.4147 -0.3785  0.0667
  718MOL0     H96922   9.705   2.171   3.008  0.1936  0.4468 -0.5504
  718MOL0     H96923   9.618   2.027   2.943 -0.0664  1.4303 -1.6541
  718MOL0     H96924   9.545   1.968   3.183  0.7828 -0.7504  3.1817
  718MOL0     H96925   9.649   2.088   3.238 -0.6366  0.3422 -0.3220
  718MOL0     H96926   9.781   1.899   3.250 -1.5356  1.2449  1.5016
  718MOL0     H96927   9.842   1.962   3.087 -1.1992  0.6359 -1.2360
  718MOL0     H96928   9.601   1.630   2.973 -0.5642  1.2960 -0.7915
  718MOL0     H96929   9.291   2.371   2.995 -0.1802 -0.3806  0.6651
  718MOL0     H96930   9.144   2.537   3.064  1.1284  4.7847  1.7172
  719MOL0     O96931   7.375   3.865   1.762  0.3834 -0.2723  0.1812
  719MOL0     C96932   7.318   3.897   1.869  0.1557  1.1376 -0.2221
  719MOL0     O96933   7.337   4.010   1.950  0.5603  0.3412  0.4251
  719MOL0     C96934   7.403   4.113   1.883  0.6645 -0.2596 -0.4647
  719MOL0     C96935   7.499   4.185   1.956  0.6597  0.0418  0.1199
  719MOL0     C96936   7.568   4.285   1.892 -0.1043 -0.0200 -0.1704
  719MOL0     C96937   7.518   4.341   1.774  0.2226 -0.3077  0.1382
  719MOL0     O96938   7.580   4.432   1.695 -0.5962 -1.0186 -0.5221
  719MOL0     C96939   7.600   4.564   1.755  0.1944 -0.0541 -1.2647
  719MOL0     C96940   7.643   4.661   1.648  0.3690  0.3556  0.0621
  719MOL0     C96941   7.555   4.684   1.526 -1.6780 -0.9817  0.1795
  719MOL0     C96942   7.439   4.765   1.567  0.5671  0.1412  0.0495
  719MOL0     C96943   7.355   4.795   1.440 -0.4130 -0.7320  0.2583
  719MOL0     C96944   7.214   4.852   1.465 -0.4326 -0.3203  0.8427
  719MOL0     C96945   7.131   4.861   1.337 -0.6664 -0.3639  0.3643
  719MOL0     C96946   7.012   4.942   1.379  0.0888  0.2941  0.2124
  719MOL0     N96947   7.031   5.090   1.411  0.2809 -0.6351  0.3836
  719MOL0     C96948   7.071   5.193   1.330 -0.0224 -0.7797  0.2919
  719MOL0     C96949   7.085   5.307   1.408  1.0652 -0.4455 -0.0570
  719MOL0     C96950   7.130   5.445   1.367  0.0036 -0.0856  0.5905
  719MOL0     C96951   7.015   5.553   1.368  1.0585  0.0594 -0.0353
  719MOL0     C96952   6.913   5.519   1.250  0.7931  0.9012  0.3131
  719MOL0     C96953   6.801   5.629   1.228 -0.2793  0.1526  0.6595
  719MOL0     O96954   6.748   5.676   1.352 -0.2800 -0.1819  0.7048
  719MOL0     C96955   6.676   5.591   1.430 -0.1273 -0.0715  0.6452
  719MOL0     C96956   6.642   5.634   1.558 -0.3241 -0.0102  0.4323
  719MOL0     C96957   6.559   5.564   1.651 -0.1771 -0.4823  0.9533
  719MOL0     C96958   6.513   5.636   1.778 -0.6753  0.9106  0.2095
  719MOL0     C96959   6.506   5.443   1.620 -0.0595 -0.5693  0.5004
  719MOL0     C96960   6.418   5.370   1.697  1.2105  0.3045 -0.1707
  719MOL0     O96961   6.466   5.247   1.733  0.1541 -0.7117  0.7237
  719MOL0     C96962   6.392   5.170   1.823 -0.2670 -0.1542 -0.5286
  719MOL0     C96963   6.318   5.053   1.802  0.6005  0.4585  0.0503
  719MOL0     C96964   6.236   4.997   1.900 -0.7320 -0.6654  0.3637
  719MOL0     C96965   6.211   5.075   2.015  0.2141  0.8129  0.1352
  719MOL0     O96966   6.103   5.049   2.097  0.4051 -0.0365 -0.5707
  719MOL0     C96967   5.973   5.023   2.046  0.0629 -0.4557  0.5767
  719MOL0     C96968   5.890   4.954   2.156 -0.3831  0.1066  0.5254
  719MOL0     C96969   5.864   5.067   2.259 -0.0149 -0.4281 -0.2232
  719MOL0     C96970   5.803   5.016   2.392  0.2849  0.5908 -0.4687
  719MOL0     C96971   5.792   5.135   2.497 -0.6655  0.8470 -0.9545
  719MOL0     C96972   5.674   5.230   2.471  0.0540 -0.4302 -0.3637
  719MOL0     C96973   5.678   5.328   2.590 -0.7961 -0.1210 -0.9336
  719MOL0     C96974   5.619   5.461   2.566  0.4565 -0.2378  0.0750
  719MOL0    Cl96975   5.444   5.456   2.533 -0.4697  0.0824 -0.0345
  719MOL0     C96976   6.293   5.179   2.048  0.6816  0.0012  0.7457
  719MOL0     C96977   6.386   5.220   1.953 -0.1800  0.4056 -0.2283
  719MOL0     O96978   6.309   5.421   1.732  0.0788  0.9271  0.1658
  719MOL0     C96979   6.528   5.400   1.495  0.1777 -0.4577  0.9419
  719MOL0     C96980   6.613   5.465   1.405  0.1853 -0.3862  0.2559
  719MOL0     N96981   7.050   5.262   1.537 -0.5765  0.4401  0.3209
  719MOL0     N96982   7.020   5.140   1.534  0.1551 -0.8895 -0.4665
  719MOL0     C96983   7.415   4.285   1.706  0.7586  0.2608 -0.1011
  719MOL0     C96984   7.354   4.170   1.764  0.1661  0.0399  0.2162
  719MOL0     C96985   7.200   3.809   1.896 -0.2474  0.4683 -0.5815
  719MOL0     C96986   7.130   3.808   2.016 -1.2629  0.0577  0.7457
  719MOL0     C96987   7.019   3.738   2.040 -1.3107  1.0501  0.4177
  719MOL0     C96988   6.970   3.651   1.945 -0.8731  0.5469  0.0337
  719MOL0     O96989   6.855   3.580   1.967  0.5178 -0.5035 -0.1414
  719MOL0     C96990   6.774   3.537   1.849 -0.4351  0.3094 -0.8378
  719MOL0     C96991   6.795   3.387   1.811  0.4399  0.3062  0.4024
  719MOL0     C96992   6.738   3.356   1.672  0.6008 -0.0769  0.8556
  719MOL0     C96993   6.779   3.220   1.606  0.1787 -1.3789  0.0370
  719MOL0     C96994   6.689   3.174   1.498  0.4559 -0.4664  0.6303
  719MOL0     C96995   6.606   3.178   1.409  0.0963 -0.2549 -0.4802
  719MOL0     C96996   7.046   3.640   1.825  0.2505  0.8679  0.2132
  719MOL0     C96997   7.156   3.727   1.799  1.0911  0.3244 -0.0741
  719MOL0     H96998   7.541   4.145   2.048  3.7444  2.8316  0.0852
  719MOL0     H96999   7.642   4.349   1.939 -2.2077  1.5204  1.2464
  719MOL0     H97000   7.505   4.610   1.784 -0.0752  0.6038 -3.0652
  719MOL0     H97001   7.674   4.556   1.836 -0.6072  1.4733 -0.3367
  719MOL0     H97002   7.655   4.759   1.696 -1.5775  0.3727  0.5763
  719MOL0     H97003   7.733   4.610   1.612  0.9162 -0.3635  2.3253
  719MOL0     H97004   7.616   4.739   1.454  0.6827 -2.3651  1.0114
  719MOL0     H97005   7.524   4.588   1.484 -0.1772 -1.0509 -0.8404
  719MOL0     H97006   7.367   4.708   1.627 -2.6806  1.7533 -2.0301
  719MOL0     H97007   7.469   4.855   1.621 -1.7673  1.3196 -0.4608
  719MOL0     H97008   7.411   4.862   1.374  0.0875 -1.6949 -0.3201
  719MOL0     H97009   7.344   4.700   1.388  0.8473 -1.3436  1.0374
  719MOL0     H97010   7.158   4.789   1.534 -1.3551 -2.3437 -1.6193
  719MOL0     H97011   7.222   4.949   1.516  0.2854  0.0863 -0.0189
  719MOL0     H97012   7.188   4.909   1.257 -0.3959 -2.0027 -0.4661
  719MOL0     H97013   7.089   4.765   1.304  0.7008 -1.4364  1.5904
  719MOL0     H97014   6.962   4.888   1.461 -1.8212 -0.4376 -1.3496
  719MOL0     H97015   6.936   4.940   1.301  0.4174 -1.2160 -0.1004
  719MOL0     H97016   7.075   5.186   1.221 -4.3206 -1.0076 -0.0082
  719MOL0     H97017   7.198   5.486   1.443 -1.0042 -0.5441  1.7804
  719MOL0     H97018   7.187   5.443   1.274 -0.5023 -2.3814  0.2801
  719MOL0     H97019   7.051   5.651   1.336 -1.0540  1.0614  0.4559
  719MOL0     H97020   6.969   5.558   1.467  0.8466 -1.7719 -0.0165
  719MOL0     H97021   6.852   5.434   1.280 -0.4019  2.6811  3.3926
  719MOL0     H97022   6.967   5.486   1.162 -0.2067 -0.6216  0.2354
  719MOL0     H97023   6.721   5.587   1.166 -0.2703 -0.5102  1.0849
  719MOL0     H97024   6.858   5.709   1.179  1.8540 -2.6903 -1.9083
  719MOL0     H97025   6.690   5.729   1.582  1.3571 -1.2409  2.3049
  719MOL0     H97026   6.409   5.671   1.775 -0.5004  1.5582  1.2009
  719MOL0     H97027   6.536   5.570   1.863  0.1925 -1.6178 -1.8714
  719MOL0     H97028   6.575   5.723   1.804  1.3248 -0.9066  1.9697
  719MOL0     H97029   6.334   5.006   1.706 -3.5604  1.2121 -1.2116
  719MOL0     H97030   6.175   4.909   1.880 -1.5133  0.2157 -1.2813
  719MOL0     H97031   5.920   5.114   2.015  1.4371  0.2531  0.2155
  719MOL0     H97032   5.971   4.956   1.960  0.8699  1.8198 -1.3287
  719MOL0     H97033   5.792   4.933   2.111  0.0018  0.6383 -0.5924
  719MOL0     H97034   5.935   4.862   2.194  0.4304  0.0642 -0.4905
  719MOL0     H97035   5.800   5.145   2.216 -1.7843 -1.8469 -0.2578
  719MOL0     H97036   5.954   5.120   2.293 -1.9183  1.4198  2.3006
  719MOL0     H97037   5.706   4.968   2.376  0.0921 -0.9677  3.8759
  719MOL0     H97038   5.864   4.938   2.438 -0.1293  1.0068  0.8373
  719MOL0     H97039   5.888   5.185   2.485  2.3655 -3.8971  0.6298
  719MOL0     H97040   5.778   5.095   2.598  0.6234  0.1055 -1.0568
  719MOL0     H97041   5.675   5.275   2.371 -1.2574  1.6124  0.5023
  719MOL0     H97042   5.581   5.174   2.479  0.0534 -0.3091  0.5215
  719MOL0     H97043   5.782   5.349   2.617 -1.7337  0.8378  2.3684
  719MOL0     H97044   5.629   5.285   2.679 -0.3826  2.0729  0.4167
  719MOL0     H97045   5.661   5.510   2.478  0.5748 -2.1783 -1.0184
  719MOL0     H97046   5.639   5.512   2.660 -0.0830 -0.0985  0.1179
  719MOL0     H97047   6.274   5.225   2.145 -0.5260 -1.9245  1.4725
  719MOL0     H97048   6.444   5.310   1.973 -1.3353  1.4719 -1.4918
  719MOL0     H97049   6.497   5.298   1.470 -0.7299 -0.5634  2.3951
  719MOL0     H97050   6.630   5.423   1.306  1.2163  1.5665 -0.4438
  719MOL0     H97051   7.395   4.333   1.611  2.8286  2.8926  0.6689
  719MOL0     H97052   7.275   4.118   1.710  1.4753 -0.9440 -0.8187
  719MOL0     H97053   7.178   3.868   2.093  1.0455 -0.6004 -0.1120
  719MOL0     H97054   6.962   3.754   2.131  0.1410  0.5853  1.4492
  719MOL0     H97055   6.667   3.551   1.865 -0.8702 -2.3439 -0.8893
  719MOL0     H97056   6.815   3.599   1.769  0.7172  0.0473 -0.4717
  719MOL0     H97057   6.746   3.317   1.879 -2.7143 -0.1448 -2.1141
  719MOL0     H97058   6.901   3.364   1.802  0.0372 -0.9919 -1.8246
  719MOL0     H97059   6.757   3.441   1.605  2.9059 -0.3756  1.0801
  719MOL0     H97060   6.629   3.347   1.682  0.4017  2.1938  1.3592
  719MOL0     H97061   6.795   3.157   1.694  2.5818  2.4859  2.6810
  719MOL0     H97062   6.877   3.240   1.561  0.2616  0.0269  0.7801
  719MOL0     H97063   6.527   3.170   1.337 -0.6566 -1.9324  0.4855
  719MOL0     H97064   7.022   3.562   1.753  1.7367 -1.2749  1.9059
  719MOL0     H97065   7.211   3.703   1.708  0.1484 -2.2875 -0.0246
  720MOL0     O97066   6.539   5.548  10.166  0.7574 -0.3627  0.0030
  720MOL0     C97067   6.652   5.596  10.170  0.2365 -0.5482 -0.1310
  720MOL0     O97068   6.681   5.730  10.128 -0.0970 -0.1950 -0.5398
  720MOL0     C97069   6.577   5.809  10.081 -0.7936 -0.2182  0.3816
  720MOL0     C97070   6.531   5.916  10.147 -0.2868 -0.1165 -1.0454
  720MOL0     C97071   6.433   6.004  10.095 -0.3977 -0.0625 -0.0084
  720MOL0     C97072   6.380   5.982   9.969 -0.4517 -0.3662  0.7745
  720MOL0     O97073   6.262   6.041   9.929 -0.6002 -0.0600 -0.0969
  720MOL0     C97074   6.247   6.191   9.935  0.0078  0.4735  0.1085
  720MOL0     C97075   6.117   6.225   9.869  0.4261  0.0841  0.6881
  720MOL0     C97076   6.115   6.374   9.842 -0.5220  0.3731 -0.5885
  720MOL0     C97077   5.975   6.421   9.872 -0.0316  1.2194  0.5440
  720MOL0     C97078   5.957   6.570   9.873 -0.4920 -0.0565  0.7929
  720MOL0     C97079   5.825   6.621   9.907 -0.2823 -0.7378 -0.5509
  720MOL0     C97080   5.827   6.775   9.910 -0.2190 -0.1828  0.0184
  720MOL0     C97081   5.690   6.844   9.895 -0.0227 -0.0739 -0.7187
  720MOL0     N97082   5.649   6.961   9.982  0.0626 -0.2356 -0.0205
  720MOL0     C97083   5.660   7.087   9.937  0.3229  0.1849  0.5486
  720MOL0     C97084   5.593   7.155  10.035 -0.0815 -0.4284 -0.4137
  720MOL0     C97085   5.563   7.303  10.032  0.2140  0.4166 -0.2477
  720MOL0     C97086   5.460   7.351   9.936 -0.1130  0.1684  0.1841
  720MOL0     C97087   5.331   7.281   9.965  0.2067 -0.0456 -0.0006
  720MOL0     C97088   5.207   7.328   9.891  0.2538  0.1831 -0.5324
  720MOL0     O97089   5.083   7.262   9.957 -0.1869 -0.2238 -0.1028
  720MOL0     C97090   4.958   7.256   9.905 -0.2498  0.3369  0.4549
  720MOL0     C97091   4.933   7.266   9.764 -0.7002 -0.0680  0.0667
  720MOL0     C97092   4.808   7.240   9.704 -0.1301  0.6068 -0.8017
  720MOL0     C97093   4.796   7.256   9.551  0.0779  0.6681  0.2582
  720MOL0     C97094   4.704   7.200   9.791 -0.7987  0.4359  0.4134
  720MOL0     C97095   4.566   7.174   9.746  0.1031 -0.1565 -0.2271
  720MOL0     O97096   4.492   7.090   9.823  0.5677  0.0681 -0.3334
  720MOL0     C97097   4.361   7.067   9.807  0.4731 -0.1422  0.6915
  720MOL0     C97098   4.304   6.947   9.863 -0.0243 -0.4136 -0.8788
  720MOL0     C97099   4.163   6.921   9.852 -0.8974  0.7089 -0.1125
  720MOL0     C97100   4.085   6.992   9.766  0.4985  0.3511 -0.5285
  720MOL0     O97101   3.954   6.966   9.727 -0.2294  0.4315 -0.2255
  720MOL0     C97102   3.917   6.818   9.727 -0.3795 -0.4722 -0.5295
  720MOL0     C97103   3.767   6.801   9.692  0.2355  0.7109 -0.3334
  720MOL0     C97104   3.751   6.841   9.537 -0.0779  0.0029  0.0446
  720MOL0     C97105   3.608   6.822   9.500  1.2591  0.6339 -0.0373
  720MOL0     C97106   3.561   6.668   9.505 -0.0743 -0.2780 -0.0995
  720MOL0     C97107   3.448   6.649   9.400  0.1347  0.5419 -0.3406
  720MOL0     C97108   3.315   6.720   9.437 -0.9444 -0.2429 -1.1109
  720MOL0     C97109   3.197   6.695   9.346 -0.8187 -0.0563  0.2077
  720MOL0    Cl97110   3.054   6.787   9.413  0.6534 -0.2775  0.4712
  720MOL0     C97111   4.149   7.104   9.715 -0.3721 -0.0731 -0.2131
  720MOL0     C97112   4.269   7.151   9.755  0.3745 -0.9687  0.3523
  720MOL0     O97113   4.526   7.242   9.656  0.0827  0.7713 -0.3367
  720MOL0     C97114   4.727   7.192   9.929 -0.6234  0.8894 -0.7123
  720MOL0     C97115   4.855   7.216   9.986 -0.9626 -0.1836 -0.6720
  720MOL0     N97116   5.554   7.070  10.137  0.2305  0.4710  0.0420
  720MOL0     N97117   5.581   6.947  10.102 -0.0496  0.3386  0.1510
  720MOL0     C97118   6.436   5.872   9.894 -0.0929 -0.2491 -0.5555
  720MOL0     C97119   6.536   5.789   9.946 -0.5877  0.0471 -0.8311
  720MOL0     C97120   6.762   5.510  10.208  0.5465 -0.5010  0.1498
  720MOL0     C97121   6.742   5.380  10.266 -0.2264 -0.6272  0.3827
  720MOL0     C97122   6.848   5.292  10.289  0.0773  0.6289 -0.5190
  720MOL0     C97123   6.980   5.348  10.302 -0.4217  0.7887  0.7613
  720MOL0     O97124   7.074   5.258  10.344  0.6501 -0.7088 -0.0120
  720MOL0     C97125   7.060   5.215  10.482  0.1760  1.1509 -0.3139
  720MOL0     C97126   7.116   5.070  10.515 -0.4996 -0.0433 -0.2586
  720MOL0     C97127   7.263   5.061  10.462 -0.1517 -0.8645  0.3533
  720MOL0     C97128   7.349   5.153  10.551  0.8246 -0.4199 -0.2950
  720MOL0     C97129   7.496   5.130  10.534  1.3545  0.4397  0.0896
  720MOL0     C97130   7.613   5.098  10.531 -0.5571 -0.5831 -0.6993
  720MOL0     C97131   7.003   5.480  10.258  0.3069  0.5173 -0.0121
  720MOL0     C97132   6.893   5.558  10.222 -0.3339 -0.2659  0.6538
  720MOL0     H97133   6.584   5.930  10.241  1.3055 -2.7069 -1.4277
  720MOL0     H97134   6.391   6.083  10.156  1.9249  0.7268  0.6827
  720MOL0     H97135   6.245   6.233  10.035 -2.9964  0.3709  0.1677
  720MOL0     H97136   6.336   6.226   9.882  0.3051 -1.3612 -0.6908
  720MOL0     H97137   6.111   6.178   9.770 -0.8104  3.4549 -1.0162
  720MOL0     H97138   6.026   6.194   9.921 -0.1517  2.3538  1.1234
  720MOL0     H97139   6.189   6.422   9.907  0.3827 -0.7764 -0.7290
  720MOL0     H97140   6.143   6.397   9.738 -2.9004  0.0850 -1.3462
  720MOL0     H97141   5.901   6.371   9.808  0.9975 -1.1758  1.1073
  720MOL0     H97142   5.946   6.386   9.971  0.4280 -1.3812 -0.1480
  720MOL0     H97143   6.028   6.613   9.944 -0.4540 -0.4116  0.9712
  720MOL0     H97144   5.987   6.608   9.775 -0.8204  0.5082  0.9071
  720MOL0     H97145   5.752   6.580   9.837 -1.4974  1.6784 -0.8122
  720MOL0     H97146   5.782   6.583  10.001 -2.4067 -0.5532 -1.3992
  720MOL0     H97147   5.869   6.806  10.006 -1.5499  0.4403  0.4118
  720MOL0     H97148   5.904   6.807   9.838 -1.1510  0.7044 -0.6050
  720MOL0     H97149   5.619   6.763   9.910 -0.1013 -0.2169 -1.7513
  720MOL0     H97150   5.682   6.854   9.786  3.3725 -2.7380 -1.4095
  720MOL0     H97151   5.713   7.128   9.851  0.1845 -0.5078  0.1224
  720MOL0     H97152   5.524   7.329  10.131 -2.9236 -2.1542 -0.6296
  720MOL0     H97153   5.658   7.356  10.019  0.7310 -0.8926 -2.4350
  720MOL0     H97154   5.490   7.336   9.832 -0.4717  1.7343 -0.1728
  720MOL0     H97155   5.441   7.456   9.960  2.3796  0.1652  2.6941
  720MOL0     H97156   5.319   7.287  10.074  1.8945  1.4332  0.1312
  720MOL0     H97157   5.349   7.175   9.942 -0.2764 -0.5475  1.7347
  720MOL0     H97158   5.215   7.305   9.784  0.0501  0.9695 -0.7240
  720MOL0     H97159   5.203   7.436   9.905  1.2115  0.3379 -1.3312
  720MOL0     H97160   5.014   7.295   9.698 -0.8369 -0.1974 -0.1576
  720MOL0     H97161   4.899   7.242   9.516  0.3411  1.5270  0.6735
  720MOL0     H97162   4.723   7.182   9.516  2.4945 -1.8737  0.2312
  720MOL0     H97163   4.765   7.356   9.520 -0.0857  0.3289 -0.7069
  720MOL0     H97164   4.368   6.891   9.931  0.8446  2.9031  1.2719
  720MOL0     H97165   4.125   6.830   9.898 -2.2745  0.6899 -1.2286
  720MOL0     H97166   3.979   6.768   9.652  0.3686  0.0518 -0.2765
  720MOL0     H97167   3.925   6.776   9.827 -4.9918 -0.1653  0.1985
  720MOL0     H97168   3.743   6.697   9.716  2.0985  0.6949  1.8400
  720MOL0     H97169   3.707   6.862   9.760 -0.8706 -0.1701 -0.4987
  720MOL0     H97170   3.815   6.782   9.472 -0.6594 -1.1844  0.5093
  720MOL0     H97171   3.783   6.940   9.506  0.1578 -0.6876 -2.0437
  720MOL0     H97172   3.542   6.867   9.574 -0.0209 -1.9141  0.4923
  720MOL0     H97173   3.576   6.860   9.402  1.2220  0.9451  0.0970
  720MOL0     H97174   3.520   6.640   9.603  0.6624  0.3359  0.3897
  720MOL0     H97175   3.650   6.608   9.482 -0.8172 -1.0525 -1.0300
  720MOL0     H97176   3.478   6.690   9.304  2.4987 -1.2253 -0.4386
  720MOL0     H97177   3.431   6.541   9.389  1.0387  0.1977  1.3050
  720MOL0     H97178   3.334   6.828   9.445  2.2933 -0.6949 -1.2491
  720MOL0     H97179   3.282   6.693   9.538  1.6092 -3.5283 -1.0038
  720MOL0     H97180   3.179   6.587   9.342  2.9719 -0.9637  2.3025
  720MOL0     H97181   3.225   6.718   9.243 -2.8622  0.9904 -0.1610
  720MOL0     H97182   4.096   7.173   9.650 -1.5176 -0.1174  0.6401
  720MOL0     H97183   4.285   7.250   9.713 -4.8722 -0.1756 -0.4815
  720MOL0     H97184   4.646   7.164   9.995 -1.7424  1.6524 -1.7087
  720MOL0     H97185   4.868   7.205  10.094 -0.5984  0.7352 -0.6175
  720MOL0     H97186   6.403   5.854   9.792 -0.7256 -2.0018 -0.0725
  720MOL0     H97187   6.587   5.705   9.900  0.1418 -0.2386  0.4488
  720MOL0     H97188   6.643   5.343  10.290  0.1195 -0.9447  1.3696
  720MOL0     H97189   6.828   5.191  10.325  0.9424  0.7459  0.3238
  720MOL0     H97190   7.102   5.294  10.544  1.3508  1.9545 -2.0370
  720MOL0     H97191   6.957   5.212  10.518  1.0992  0.6385  2.5803
  720MOL0     H97192   7.049   4.992  10.477  1.1104 -3.4351  3.1261
  720MOL0     H97193   7.119   5.051  10.622 -0.0692  1.2917 -0.0171
  720MOL0     H97194   7.275   5.079  10.354 -1.2876  0.6137  0.4443
  720MOL0     H97195   7.306   4.961  10.477  2.6420 -0.1884 -2.0871
  720MOL0     H97196   7.321   5.139  10.655  0.8172  1.7303  0.0382
  720MOL0     H97197   7.309   5.253  10.531 -4.7719 -1.5364  3.2450
  720MOL0     H97198   7.716   5.071  10.544 -0.6600 -0.1365  1.4588
  720MOL0     H97199   7.106   5.514  10.267  0.0454  1.1287  0.8546
  720MOL0     H97200   6.915   5.656  10.179 -0.9031  1.0334  3.1104
  721MOL0     O97201   5.844   4.739   9.425 -0.3681  0.0197 -0.5419
  721MOL0     C97202   5.777   4.659   9.356  0.3586  0.4394  0.2624
  721MOL0     O97203   5.643   4.625   9.373 -0.1807 -0.1324  0.3410
  721MOL0     C97204   5.565   4.706   9.459 -1.5367  0.4791  0.1633
  721MOL0     C97205   5.476   4.663   9.554 -0.5273  0.8152  0.0901
  721MOL0     C97206   5.390   4.742   9.634  0.3937  1.7691 -0.3075
  721MOL0     C97207   5.389   4.880   9.617  0.6556  0.2622 -0.1496
  721MOL0     O97208   5.297   4.960   9.687  0.7731 -0.2220 -0.8178
  721MOL0     C97209   5.338   5.006   9.814 -0.0598 -0.5220 -0.0753
  721MOL0     C97210   5.226   5.097   9.883 -0.1515 -0.2499 -0.3002
  721MOL0     C97211   5.156   5.202   9.785  0.3582  0.7219  0.1908
  721MOL0     C97212   5.259   5.300   9.724 -0.1789 -0.4086 -0.8980
  721MOL0     C97213   5.217   5.449   9.710  0.2895  0.4083 -0.4983
  721MOL0     C97214   5.328   5.552   9.721 -1.2028  0.0684 -0.0423
  721MOL0     C97215   5.282   5.692   9.696 -0.6238 -0.9959  0.9021
  721MOL0     C97216   5.380   5.812   9.726 -0.0938  0.3165 -0.3942
  721MOL0     N97217   5.504   5.803   9.643 -0.2715  0.1459  0.3846
  721MOL0     C97218   5.525   5.862   9.522  0.2551  0.4415  0.4416
  721MOL0     C97219   5.647   5.814   9.492 -0.8358  0.5094  0.9365
  721MOL0     C97220   5.737   5.853   9.383  0.8796 -0.1242 -0.5608
  721MOL0     C97221   5.713   5.982   9.307 -0.1162  0.2490 -0.4665
  721MOL0     C97222   5.613   5.988   9.195 -0.5509 -0.1104  0.3494
  721MOL0     C97223   5.600   6.124   9.129 -0.1381 -0.9974 -0.4106
  721MOL0     O97224   5.542   6.225   9.220  0.3015 -0.8065 -0.1920
  721MOL0     C97225   5.405   6.234   9.198  0.0867  0.5767 -0.5017
  721MOL0     C97226   5.321   6.144   9.267 -0.2334 -0.9336 -0.2049
  721MOL0     C97227   5.186   6.157   9.255  0.1697  1.1155  0.3937
  721MOL0     C97228   5.097   6.063   9.343 -0.4281 -0.2127 -0.2992
  721MOL0     C97229   5.134   6.254   9.173  0.4889 -0.7540 -0.3292
  721MOL0     C97230   4.993   6.287   9.169 -0.1706 -0.5396  0.3115
  721MOL0     O97231   4.944   6.336   9.050 -0.1796 -0.4988 -0.4063
  721MOL0     C97232   4.814   6.384   9.045 -0.4885  0.5504 -0.0391
  721MOL0     C97233   4.744   6.355   8.923 -0.7197 -0.2815 -0.5065
  721MOL0     C97234   4.633   6.435   8.882 -0.0820 -0.2321  0.2426
  721MOL0     C97235   4.583   6.531   8.972 -1.1290 -0.1472  0.4318
  721MOL0     O97236   4.459   6.598   8.940 -0.5965 -0.7801 -0.6305
  721MOL0     C97237   4.430   6.719   9.012 -0.6759 -0.1375  0.1343
  721MOL0     C97238   4.326   6.801   8.924  0.7680 -0.0416  0.4217
  721MOL0     C97239   4.183   6.744   8.906 -0.9470  0.4162  0.1930
  721MOL0     C97240   4.089   6.851   8.848  0.0281 -0.4023  0.7058
  721MOL0     C97241   4.061   6.954   8.954  0.2226 -0.2179 -0.5738
  721MOL0     C97242   3.959   7.064   8.911 -0.0653  0.2118  0.0014
  721MOL0     C97243   3.984   7.121   8.778 -0.1614 -0.8274  0.3293
  721MOL0     C97244   3.887   7.248   8.763 -0.2768  0.7080 -0.2226
  721MOL0    Cl97245   3.930   7.349   8.618  0.1679  0.0127  0.0515
  721MOL0     C97246   4.646   6.552   9.096  0.2228  0.3838 -0.3653
  721MOL0     C97247   4.759   6.481   9.132  0.5038  0.5372 -0.2719
  721MOL0     O97248   4.932   6.262   9.267  0.7441 -0.3507  0.3582
  721MOL0     C97249   5.223   6.322   9.078  0.1841  0.5210  0.4052
  721MOL0     C97250   5.358   6.314   9.101  0.0066 -0.5176  0.2845
  721MOL0     N97251   5.705   5.738   9.596 -0.0959  0.9937  0.7079
  721MOL0     N97252   5.617   5.736   9.687 -0.5258 -0.2104  0.2966
  721MOL0     C97253   5.481   4.932   9.521  0.5165 -0.8192 -0.2934
  721MOL0     C97254   5.569   4.849   9.449  0.0709  0.1590  0.2411
  721MOL0     C97255   5.842   4.600   9.249  0.2295 -0.0891  0.2288
  721MOL0     C97256   5.985   4.585   9.250  0.1547 -0.3871  0.1309
  721MOL0     C97257   6.057   4.519   9.144  0.7009 -0.0399  0.2329
  721MOL0     C97258   5.987   4.465   9.034 -0.2357 -0.3262  0.5896
  721MOL0     O97259   6.049   4.383   8.940  0.6935 -0.2100  0.5233
  721MOL0     C97260   6.191   4.356   8.947 -0.1746 -0.0258 -0.0476
  721MOL0     C97261   6.242   4.260   8.831  0.0553 -0.5316 -0.5171
  721MOL0     C97262   6.391   4.224   8.843 -1.0103 -0.2192 -0.1157
  721MOL0     C97263   6.426   4.132   8.720  0.1390  0.2920 -1.3793
  721MOL0     C97264   6.566   4.141   8.700  0.0728  0.6003  0.3127
  721MOL0     C97265   6.682   4.161   8.697 -0.1158  0.1247 -0.6619
  721MOL0     C97266   5.853   4.489   9.025 -0.5091  1.1618  0.4594
  721MOL0     C97267   5.780   4.555   9.132  0.4959  0.5385  0.8803
  721MOL0     H97268   5.462   4.555   9.560  0.0230  0.5687 -2.1446
  721MOL0     H97269   5.325   4.697   9.708  0.0637  1.9880 -0.4627
  721MOL0     H97270   5.360   4.924   9.882  2.6691  1.4464  1.5944
  721MOL0     H97271   5.431   5.062   9.808  0.8747 -1.6424  2.6301
  721MOL0     H97272   5.142   5.046   9.932  0.6356  1.9355  3.8362
  721MOL0     H97273   5.277   5.151   9.964  0.7159 -0.7916 -0.4731
  721MOL0     H97274   5.095   5.153   9.708  0.9563 -2.8403  1.7986
  721MOL0     H97275   5.091   5.263   9.848 -0.2612 -1.1309  1.4020
  721MOL0     H97276   5.343   5.292   9.794 -0.7883  1.1537  0.0897
  721MOL0     H97277   5.302   5.275   9.627 -0.5831  0.6435 -1.3651
  721MOL0     H97278   5.153   5.461   9.622 -1.4713  2.9784  0.9935
  721MOL0     H97279   5.140   5.465   9.786  0.9733 -1.4322  0.6434
  721MOL0     H97280   5.385   5.543   9.813 -1.3839 -2.6597 -0.1388
  721MOL0     H97281   5.401   5.532   9.642  1.3432  1.7679  1.7544
  721MOL0     H97282   5.252   5.689   9.590  1.4044 -0.8043  0.2812
  721MOL0     H97283   5.198   5.712   9.762 -2.1668 -0.4713 -1.1245
  721MOL0     H97284   5.410   5.800   9.830  0.8374  0.7141 -0.6030
  721MOL0     H97285   5.330   5.908   9.706 -2.0789 -0.8536 -1.3812
  721MOL0     H97286   5.467   5.938   9.470 -0.0576 -1.3346 -2.0114
  721MOL0     H97287   5.841   5.853   9.415  0.7927  0.7610 -0.2408
  721MOL0     H97288   5.731   5.777   9.305  0.0275 -0.4120 -0.2294
  721MOL0     H97289   5.809   6.017   9.266  0.7685  0.8367  1.9163
  721MOL0     H97290   5.688   6.061   9.379  0.7087 -0.0344  0.1564
  721MOL0     H97291   5.519   5.946   9.234 -0.1232  1.5887  3.6058
  721MOL0     H97292   5.644   5.924   9.112 -1.8810  0.6553 -0.7837
  721MOL0     H97293   5.539   6.114   9.039 -0.2651 -2.1821 -0.2070
  721MOL0     H97294   5.698   6.163   9.099 -0.5426 -0.6112 -1.2654
  721MOL0     H97295   5.374   6.081   9.338  2.3785  0.6088 -0.6774
  721MOL0     H97296   5.014   6.013   9.294 -2.3150 -0.8174  3.2032
  721MOL0     H97297   5.167   5.995   9.393  2.2449  2.7882  0.4162
  721MOL0     H97298   5.057   6.115   9.430  2.4984  1.2944  0.2955
  721MOL0     H97299   4.793   6.290   8.851  2.8924 -1.4378  2.6719
  721MOL0     H97300   4.578   6.424   8.789 -3.6324  3.0165  1.6781
  721MOL0     H97301   4.377   6.683   9.101 -0.5228 -4.0185 -1.1545
  721MOL0     H97302   4.520   6.772   9.044  0.9598 -1.6958 -1.6663
  721MOL0     H97303   4.337   6.898   8.972  2.5759 -0.2489  0.5098
  721MOL0     H97304   4.363   6.828   8.825 -0.6956  1.4500  0.2417
  721MOL0     H97305   4.157   6.702   9.004 -1.0918 -0.6203 -0.2756
  721MOL0     H97306   4.191   6.659   8.839 -0.1633 -0.4558  1.3466
  721MOL0     H97307   4.127   6.896   8.756  0.2321 -2.2688 -0.1710
  721MOL0     H97308   3.992   6.810   8.818 -0.5294  1.0452  0.4729
  721MOL0     H97309   4.148   7.014   8.982 -0.2044  0.1309  0.0310
  721MOL0     H97310   4.024   6.900   9.041  1.3340 -1.5822 -0.9176
  721MOL0     H97311   3.864   7.013   8.893 -0.6803  1.6150 -0.8599
  721MOL0     H97312   3.941   7.139   8.989  1.8910  0.4820  0.2409
  721MOL0     H97313   3.959   7.062   8.689 -0.8721  0.1451 -0.1388
  721MOL0     H97314   4.089   7.147   8.769  0.2932 -1.8477  2.1959
  721MOL0     H97315   3.911   7.321   8.842  1.2844  0.3888 -0.3625
  721MOL0     H97316   3.783   7.215   8.756  0.4550 -1.6749 -0.6525
  721MOL0     H97317   4.613   6.633   9.161  0.6225  0.1248  0.1564
  721MOL0     H97318   4.800   6.505   9.229 -2.3463 -2.6111  1.9138
  721MOL0     H97319   5.195   6.396   9.003  1.0025  1.1926  0.7367
  721MOL0     H97320   5.425   6.384   9.053  1.4808 -2.9945 -1.4760
  721MOL0     H97321   5.491   5.039   9.508  1.3037 -0.8190  0.2781
  721MOL0     H97322   5.632   4.885   9.368 -2.0560 -0.3082 -1.7305
  721MOL0     H97323   6.034   4.626   9.338 -2.4000 -1.7344  2.3303
  721MOL0     H97324   6.161   4.495   9.158  0.6598 -0.7924 -0.6631
  721MOL0     H97325   6.246   4.450   8.937  0.2079 -0.3915 -1.6623
  721MOL0     H97326   6.216   4.308   9.043  1.0229  1.3150  0.3429
  721MOL0     H97327   6.236   4.314   8.736  4.4786  3.2520  1.0163
  721MOL0     H97328   6.176   4.173   8.831  0.9106 -1.2189 -2.0897
  721MOL0     H97329   6.416   4.178   8.940  1.5376 -1.0849 -1.1044
  721MOL0     H97330   6.442   4.320   8.834  1.6823 -1.5821 -0.3712
  721MOL0     H97331   6.368   4.159   8.631 -2.6345 -2.7887 -0.7045
  721MOL0     H97332   6.413   4.029   8.753  4.1251  0.0703  0.0488
  721MOL0     H97333   6.788   4.167   8.681  0.4252 -1.5161  1.7325
  721MOL0     H97334   5.799   4.445   8.942  1.9728 -0.6661 -0.2853
  721MOL0     H97335   5.674   4.575   9.128 -0.0299 -1.9861  0.0397
  722MOL0     O97336   0.690  10.521   8.311  0.6371  1.2968 -0.1943
  722MOL0     C97337   0.698  10.431   8.399 -0.9795  0.2061 -0.0959
  722MOL0     O97338   0.608  10.425   8.510  0.0222 -0.4335  0.8272
  722MOL0     C97339   0.483  10.488   8.490 -0.4976  0.3902 -0.5524
  722MOL0     C97340   0.377  10.428   8.407 -0.5143 -0.2002 -0.4030
  722MOL0     C97341   0.246  10.485   8.393  0.0686  0.6384 -0.7529
  722MOL0     C97342   0.222  10.608   8.455 -0.1475  0.2193 -0.1592
  722MOL0     O97343   0.100  10.662   8.426 -0.1411 -0.1999 -0.1040
  722MOL0     C97344   0.078  10.797   8.468  1.1854 -0.1194 -0.6234
  722MOL0     C97345  -0.068  10.836   8.433  0.5234  1.2057 -0.3813
  722MOL0     C97346  -0.097  10.975   8.490 -0.1196  0.7564  0.2096
  722MOL0     C97347  -0.175  10.976   8.626  0.1636 -1.0880 -0.4745
  722MOL0     C97348  -0.200  11.115   8.685  0.1079 -0.4883  0.1012
  722MOL0     C97349  -0.309  11.115   8.795  0.5805  0.5061 -0.5296
  722MOL0     C97350  -0.354  11.254   8.851 -0.2227 -0.3293  0.0872
  722MOL0     C97351  -0.430  11.240   8.987  0.5966  0.2022  0.2015
  722MOL0     N97352  -0.570  11.284   8.976  0.2255  0.0679  0.3266
  722MOL0     C97353  -0.673  11.210   8.933 -0.5509 -0.3079 -0.2081
  722MOL0     C97354  -0.771  11.300   8.904 -0.9588 -0.3970  0.3731
  722MOL0     C97355  -0.901  11.259   8.840 -0.0015 -0.3492  0.1262
  722MOL0     C97356  -0.943  11.345   8.719  0.1337 -0.2077 -0.6197
  722MOL0     C97357  -0.978  11.495   8.753  1.0875  0.1582 -0.2121
  722MOL0     C97358  -1.062  11.564   8.646  1.1780  0.3389  0.5984
  722MOL0     O97359  -1.080  11.702   8.691  0.2453 -0.2676 -1.1299
  722MOL0     C97360  -1.178  11.773   8.644  0.0260  0.8169 -0.8363
  722MOL0     C97361  -1.234  11.871   8.730 -0.1198 -0.0206 -0.6063
  722MOL0     C97362  -1.371  11.913   8.723  0.0643  0.1383  0.4138
  722MOL0     C97363  -1.432  11.982   8.839  0.1295 -0.2292 -1.0867
  722MOL0     C97364  -1.446  11.885   8.599 -0.6826  0.7391 -0.8007
  722MOL0     C97365  -1.585  11.929   8.572 -0.3970  0.3463  0.6613
  722MOL0     O97366  -1.636  12.023   8.658  0.0371  0.2337 -0.0414
  722MOL0     C97367  -1.768  12.047   8.648 -0.8771 -0.9588 -0.9180
  722MOL0     C97368  -1.861  11.963   8.693  0.2019  0.0656 -0.0652
  722MOL0     C97369  -1.996  12.001   8.695  0.6496  0.6062 -0.0278
  722MOL0     C97370  -2.048  12.112   8.627  0.0396 -0.0209  0.0514
  722MOL0     O97371  -2.181  12.134   8.617  0.2893 -0.3127 -0.7219
  722MOL0     C97372  -2.232  12.246   8.552 -0.5882 -0.3908 -0.9021
  722MOL0     C97373  -2.382  12.227   8.548 -0.5082  0.7254  0.6327
  722MOL0     C97374  -2.443  12.372   8.530  0.6411 -0.6413 -0.4112
  722MOL0     C97375  -2.593  12.372   8.524  0.7432 -0.1897 -0.3966
  722MOL0     C97376  -2.660  12.507   8.568 -0.2974 -0.4146  0.7004
  722MOL0     C97377  -2.802  12.520   8.522  1.2222 -0.4105  0.4616
  722MOL0     C97378  -2.859  12.664   8.539 -0.1989  0.0625  0.0279
  722MOL0     C97379  -2.897  12.697   8.684  0.4168 -0.0114 -0.5540
  722MOL0    Cl97380  -2.951  12.862   8.670 -0.5580  0.1445  0.0553
  722MOL0     C97381  -1.949  12.193   8.580 -0.4191  0.6130  1.0151
  722MOL0     C97382  -1.810  12.165   8.584 -0.2726  0.6803 -0.7334
  722MOL0     O97383  -1.634  11.893   8.464  0.2855  0.6510 -0.8739
  722MOL0     C97384  -1.371  11.806   8.505  1.1618 -0.3931 -0.8557
  722MOL0     C97385  -1.246  11.752   8.527 -0.2417  0.6258 -0.1841
  722MOL0     N97386  -0.726  11.429   8.941  0.3124 -0.7308  0.1081
  722MOL0     N97387  -0.603  11.416   8.962  0.4654 -0.1331 -0.2285
  722MOL0     C97388   0.326  10.676   8.525  0.0465 -0.2226 -0.0841
  722MOL0     C97389   0.454  10.614   8.551 -0.1530 -0.8001  0.0883
  722MOL0     C97390   0.821  10.341   8.393  0.4850  0.7952 -0.1232
  722MOL0     C97391   0.862  10.282   8.517 -0.3945 -0.9737 -0.3035
  722MOL0     C97392   0.979  10.208   8.532 -0.1553  1.2186 -0.5106
  722MOL0     C97393   1.069  10.203   8.424 -0.2691  0.8373  0.1727
  722MOL0     O97394   1.190  10.143   8.434 -0.9843 -0.1972 -1.1497
  722MOL0     C97395   1.299  10.235   8.435 -0.3768  0.2571 -0.4757
  722MOL0     C97396   1.410  10.141   8.399 -0.1093  0.2579 -0.1257
  722MOL0     C97397   1.540  10.172   8.452  0.0355  0.1456  0.2626
  722MOL0     C97398   1.593  10.313   8.421 -0.5625  0.7067  0.8782
  722MOL0     C97399   1.719  10.340   8.492  0.6143  0.3143  0.6279
  722MOL0     C97400   1.817  10.367   8.561  0.4210 -0.3248 -0.0757
  722MOL0     C97401   1.031  10.263   8.303  0.8761 -0.6643 -0.3830
  722MOL0     C97402   0.907  10.315   8.278 -0.0775  0.3607  0.3460
  722MOL0     H97403   0.414  10.348   8.344 -0.0216 -0.4171  0.1522
  722MOL0     H97404   0.180  10.436   8.322 -5.0555  1.4906  2.8901
  722MOL0     H97405   0.099  10.810   8.575 -1.4691 -2.5560  0.3124
  722MOL0     H97406   0.140  10.870   8.414 -1.4796  1.5607 -1.5911
  722MOL0     H97407  -0.080  10.830   8.325 -1.2589 -4.3628 -0.1686
  722MOL0     H97408  -0.140  10.764   8.474  1.3851 -0.1698 -1.2222
  722MOL0     H97409   0.000  11.025   8.486 -0.0310  0.5278 -0.7815
  722MOL0     H97410  -0.160  11.017   8.412 -1.6268  4.5847  3.2034
  722MOL0     H97411  -0.269  10.920   8.618 -0.1081 -0.7957  0.5186
  722MOL0     H97412  -0.121  10.921   8.703 -0.0269 -0.0493  0.4236
  722MOL0     H97413  -0.108  11.148   8.733  1.5306 -0.8643 -2.2042
  722MOL0     H97414  -0.228  11.187   8.607 -1.5224 -2.7870 -1.5749
  722MOL0     H97415  -0.399  11.066   8.757  0.6171 -1.7047  1.9686
  722MOL0     H97416  -0.275  11.053   8.879 -1.4940  2.6355  2.0570
  722MOL0     H97417  -0.266  11.318   8.865  2.5322 -3.9606  1.0080
  722MOL0     H97418  -0.417  11.302   8.775  0.1704 -0.6797 -0.4670
  722MOL0     H97419  -0.394  11.306   9.067  0.5988 -0.2198  0.5528
  722MOL0     H97420  -0.426  11.138   9.025 -3.2181 -1.8540 -3.9620
  722MOL0     H97421  -0.673  11.102   8.937 -0.6672 -0.3016  3.1547
  722MOL0     H97422  -0.902  11.159   8.796 -0.1104 -0.5008  0.4707
  722MOL0     H97423  -0.979  11.257   8.917  0.6537  1.5598  0.9079
  722MOL0     H97424  -1.039  11.303   8.687  0.0766 -2.1201  1.8068
  722MOL0     H97425  -0.878  11.336   8.631  2.6854  3.6964  0.5782
  722MOL0     H97426  -0.883  11.548   8.769  2.4360 -1.7714 -1.3734
  722MOL0     H97427  -1.030  11.501   8.849  0.8486 -2.4472 -0.0901
  722MOL0     H97428  -1.165  11.527   8.655  1.4639 -0.2456  1.6070
  722MOL0     H97429  -1.017  11.557   8.547  1.4955 -1.5653  0.8396
  722MOL0     H97430  -1.178  11.908   8.815 -0.7306  1.6143 -0.8839
  722MOL0     H97431  -1.448  12.085   8.809 -0.5937  0.0580  0.1932
  722MOL0     H97432  -1.523  11.931   8.871  0.6741  0.3261  1.6088
  722MOL0     H97433  -1.363  11.982   8.925  1.6551 -1.5211 -2.2348
  722MOL0     H97434  -1.832  11.865   8.730 -1.1344 -0.4488 -0.3233
  722MOL0     H97435  -2.077  11.932   8.717  1.6017  0.1786  2.4057
  722MOL0     H97436  -2.204  12.337   8.606 -1.3626 -0.5298 -0.2491
  722MOL0     H97437  -2.201  12.242   8.447  4.9637 -1.7925  0.4505
  722MOL0     H97438  -2.402  12.175   8.454  0.4398  2.1670 -0.4156
  722MOL0     H97439  -2.427  12.179   8.635 -0.0736  1.4351  1.2582
  722MOL0     H97440  -2.405  12.437   8.451 -1.7730  1.7055  0.2134
  722MOL0     H97441  -2.428  12.427   8.624 -1.0758  1.5885 -1.3535
  722MOL0     H97442  -2.620  12.357   8.419 -0.9783  3.0964 -0.5731
  722MOL0     H97443  -2.623  12.287   8.586  0.9260  1.3413  1.9225
  722MOL0     H97444  -2.608  12.600   8.543 -0.2006 -0.4976  0.5916
  722MOL0     H97445  -2.654  12.505   8.677 -0.0734  1.8408  0.7667
  722MOL0     H97446  -2.813  12.487   8.419  0.6883 -1.1187  0.7309
  722MOL0     H97447  -2.869  12.456   8.581 -0.0945  2.4746  2.3152
  722MOL0     H97448  -2.952  12.682   8.485 -0.9845 -3.9954 -0.3211
  722MOL0     H97449  -2.782  12.736   8.512  0.7227 -0.2999  1.5725
  722MOL0     H97450  -2.807  12.685   8.745  1.1110  3.4043 -0.7351
  722MOL0     H97451  -2.977  12.630   8.719 -0.5508  0.4340 -1.8445
  722MOL0     H97452  -1.985  12.276   8.520  1.0489  0.1320 -0.5993
  722MOL0     H97453  -1.737  12.228   8.534  2.8342 -0.7292  1.6495
  722MOL0     H97454  -1.409  11.777   8.408  0.0629 -0.5690 -0.3860
  722MOL0     H97455  -1.235  11.675   8.451 -2.4208  1.8658 -1.8815
  722MOL0     H97456   0.307  10.772   8.572 -0.7691  0.1041 -1.0404
  722MOL0     H97457   0.536  10.672   8.591  0.5157  1.4514 -3.9766
  722MOL0     H97458   0.793  10.303   8.598  1.8416 -0.2234  1.5353
  722MOL0     H97459   1.008  10.164   8.627 -0.8649  0.5674 -0.5832
  722MOL0     H97460   1.289  10.320   8.367 -0.5586 -0.3634 -1.2335
  722MOL0     H97461   1.316  10.272   8.537 -0.0566 -0.4448 -0.2685
  722MOL0     H97462   1.403  10.138   8.290 -2.0083  1.9050 -0.0912
  722MOL0     H97463   1.392  10.039   8.436 -1.0529  1.1754  2.1441
  722MOL0     H97464   1.616  10.102   8.417  0.5468  0.9780 -0.3170
  722MOL0     H97465   1.533  10.178   8.561 -0.5611  0.9594  0.1912
  722MOL0     H97466   1.517  10.382   8.458 -2.8376 -2.2696  2.1935
  722MOL0     H97467   1.617  10.323   8.315  4.4429  2.5994  1.8733
  722MOL0     H97468   1.905  10.395   8.615 -0.9209  0.6159  1.7660
  722MOL0     H97469   1.105  10.257   8.224 -1.1336  1.7342 -2.5904
  722MOL0     H97470   0.878  10.351   8.180  2.4608  0.2042 -0.5593
  723MOL0     O97471   9.023   3.855   6.792 -0.0491 -0.0145  0.0813
  723MOL0     C97472   9.111   3.935   6.755 -0.5323  0.2979  0.7535
  723MOL0     O97473   9.100   4.065   6.732  0.4424  0.5334  0.0160
  723MOL0     C97474   8.965   4.115   6.748  0.5963  0.2847 -0.9730
  723MOL0     C97475   8.860   4.082   6.665 -0.4452 -0.3187 -0.0835
  723MOL0     C97476   8.729   4.122   6.672 -0.7400 -0.0210 -0.3090
  723MOL0     C97477   8.693   4.206   6.773 -0.1866  0.9123 -0.7072
  723MOL0     O97478   8.561   4.227   6.801 -0.3538  0.0866 -0.6000
  723MOL0     C97479   8.523   4.296   6.921 -0.0948 -0.6247 -0.6531
  723MOL0     C97480   8.375   4.344   6.928  1.3153 -0.2534 -0.5976
  723MOL0     C97481   8.268   4.225   6.914  1.0369 -0.1701  0.7718
  723MOL0     C97482   8.117   4.268   6.948 -0.3564 -0.0116  0.1089
  723MOL0     C97483   8.116   4.313   7.096  0.3995  0.8837  0.8541
  723MOL0     C97484   7.977   4.319   7.170 -0.6418  0.3955  1.0281
  723MOL0     C97485   8.000   4.328   7.322  0.0420 -0.2836 -0.0282
  723MOL0     C97486   7.868   4.359   7.405 -0.3899  0.0335  0.2663
  723MOL0     N97487   7.901   4.372   7.549  1.0244 -0.5620  0.4437
  723MOL0     C97488   7.969   4.479   7.607 -0.0536 -0.1985  1.0307
  723MOL0     C97489   7.938   4.472   7.742 -0.2591  0.3113  0.0145
  723MOL0     C97490   7.981   4.571   7.851 -0.3384 -0.7239 -0.4680
  723MOL0     C97491   8.107   4.636   7.805 -0.0511  0.1787 -0.3961
  723MOL0     C97492   8.177   4.708   7.917 -0.0764  0.9955 -0.0476
  723MOL0     C97493   8.306   4.771   7.861 -0.1865 -0.5312 -1.3960
  723MOL0     O97494   8.386   4.667   7.802 -0.8014 -0.2943  0.0870
  723MOL0     C97495   8.508   4.712   7.757 -0.7881  0.2117  0.1262
  723MOL0     C97496   8.603   4.779   7.844  0.0509 -0.0204  0.6061
  723MOL0     C97497   8.728   4.819   7.788 -0.9611  0.6624  1.0976
  723MOL0     C97498   8.834   4.863   7.887 -0.8582 -0.0821 -0.9760
  723MOL0     C97499   8.759   4.791   7.654  0.3382 -1.3980  1.0568
  723MOL0     C97500   8.893   4.832   7.589  0.3838  0.0257 -0.7654
  723MOL0     O97501   8.967   4.926   7.659 -0.2577  0.2356 -0.7111
  723MOL0     C97502   9.051   5.003   7.581 -1.5331 -0.1603 -0.2992
  723MOL0     C97503   9.178   4.957   7.539 -0.3097  0.1622  0.6612
  723MOL0     C97504   9.269   5.040   7.462  0.1396  0.7649  0.1030
  723MOL0     C97505   9.229   5.169   7.419  0.1033 -0.1449 -0.7134
  723MOL0     O97506   9.311   5.257   7.347 -1.1154  0.1391 -0.1533
  723MOL0     C97507   9.439   5.217   7.308 -0.6436  0.5283  0.3578
  723MOL0     C97508   9.492   5.330   7.217 -0.3876  0.1751 -0.9316
  723MOL0     C97509   9.551   5.433   7.309  1.1693 -0.7460  0.6618
  723MOL0     C97510   9.632   5.539   7.236  0.1521  0.1474 -0.4332
  723MOL0     C97511   9.665   5.647   7.335 -0.2482 -0.8553 -1.5737
  723MOL0     C97512   9.774   5.743   7.277 -0.5231 -0.2044 -0.8247
  723MOL0     C97513   9.824   5.842   7.383  0.6222 -0.0933  0.7670
  723MOL0     C97514   9.914   5.950   7.320  0.0985 -0.8752  1.0793
  723MOL0    Cl97515  10.065   5.892   7.279 -0.6658  0.4059 -0.6744
  723MOL0     C97516   9.101   5.205   7.449  0.0251 -0.2651 -0.6274
  723MOL0     C97517   9.013   5.127   7.529  0.0400  0.4891  0.8822
  723MOL0     O97518   8.923   4.785   7.479 -0.4741 -0.1394  0.0219
  723MOL0     C97519   8.672   4.721   7.576  0.6255  0.5242 -1.2342
  723MOL0     C97520   8.544   4.687   7.624 -0.3513  0.2581 -0.6445
  723MOL0     N97521   7.845   4.366   7.759 -0.0622  0.1029  0.3862
  723MOL0     N97522   7.828   4.313   7.637 -0.3248  0.6639 -1.2488
  723MOL0     C97523   8.801   4.252   6.860 -1.1676  0.5675  0.0603
  723MOL0     C97524   8.935   4.211   6.843 -0.6746  0.2921  0.9462
  723MOL0     C97525   9.247   3.873   6.748 -0.0638  0.3084  0.1135
  723MOL0     C97526   9.262   3.730   6.768 -0.9678 -0.3954  0.2481
  723MOL0     C97527   9.397   3.680   6.762  0.1909 -0.4370  1.1549
  723MOL0     C97528   9.510   3.752   6.727  0.1683  0.0198 -0.0269
  723MOL0     O97529   9.643   3.711   6.716 -0.4459  0.0387  0.4346
  723MOL0     C97530   9.683   3.578   6.745 -0.0422 -0.4290  0.0367
  723MOL0     C97531   9.828   3.547   6.674  0.1611  0.1111 -1.3139
  723MOL0     C97532   9.943   3.599   6.767 -0.2147 -0.1170 -0.7474
  723MOL0     C97533   9.968   3.758   6.760  0.0134  0.8891 -0.3594
  723MOL0     C97534  10.074   3.779   6.656 -0.0567  0.3732  0.5634
  723MOL0     C97535  10.146   3.795   6.559 -0.5681  0.4867 -1.0027
  723MOL0     C97536   9.492   3.888   6.705  0.1081  0.0760  0.3555
  723MOL0     C97537   9.362   3.949   6.710  0.7285 -0.0803  0.3842
  723MOL0     H97538   8.887   4.011   6.587 -2.1677 -1.4965  0.3296
  723MOL0     H97539   8.660   4.088   6.595 -3.4183  2.0899  0.9685
  723MOL0     H97540   8.549   4.230   7.004 -0.2443 -0.1324 -0.2096
  723MOL0     H97541   8.588   4.383   6.932  1.4322 -1.6962 -0.8055
  723MOL0     H97542   8.361   4.410   7.015  1.5270  1.8956 -2.1189
  723MOL0     H97543   8.351   4.419   6.853  1.0875  0.9712  0.6532
  723MOL0     H97544   8.263   4.201   6.808  2.1348  1.2230  0.3718
  723MOL0     H97545   8.298   4.133   6.964  0.6695 -1.3076 -0.9940
  723MOL0     H97546   8.074   4.348   6.888  0.2164 -1.8271 -2.9444
  723MOL0     H97547   8.051   4.181   6.943  0.8867 -0.9114 -1.5603
  723MOL0     H97548   8.187   4.245   7.144  0.7528  1.3452  0.9941
  723MOL0     H97549   8.151   4.415   7.116 -1.0614  0.8725  4.0067
  723MOL0     H97550   7.921   4.408   7.138  2.1496  1.4101 -1.5170
  723MOL0     H97551   7.937   4.220   7.149 -0.6289  0.5572  0.2060
  723MOL0     H97552   8.038   4.226   7.337 -0.7824 -0.6939 -0.6846
  723MOL0     H97553   8.065   4.411   7.350 -0.9107  1.2326 -2.1082
  723MOL0     H97554   7.794   4.281   7.385  1.3897 -2.1463  1.7135
  723MOL0     H97555   7.818   4.448   7.365 -0.5470 -0.4697 -0.7097
  723MOL0     H97556   8.027   4.556   7.559 -0.0995  0.0723  1.4000
  723MOL0     H97557   7.900   4.638   7.880  1.1103  0.8892  0.0507
  723MOL0     H97558   8.016   4.517   7.939  1.7333  1.6467  0.2616
  723MOL0     H97559   8.091   4.712   7.728  4.5867  1.4327 -0.4320
  723MOL0     H97560   8.180   4.565   7.764  0.1372 -1.0299  1.8560
  723MOL0     H97561   8.213   4.631   7.985  0.7439  0.0073 -1.5540
  723MOL0     H97562   8.119   4.785   7.969  0.5446  1.0269  0.6128
  723MOL0     H97563   8.360   4.817   7.944 -1.5616 -1.6125  0.1513
  723MOL0     H97564   8.280   4.852   7.791  0.2599 -0.0223 -0.9768
  723MOL0     H97565   8.571   4.780   7.948  1.5184  0.4088  1.0804
  723MOL0     H97566   8.873   4.965   7.874 -2.1276  0.3182 -1.8150
  723MOL0     H97567   8.802   4.848   7.990  1.2100 -0.2046 -0.3100
  723MOL0     H97568   8.922   4.798   7.881  1.0303  2.2837 -0.4165
  723MOL0     H97569   9.214   4.858   7.568 -3.2039 -1.0035  0.5366
  723MOL0     H97570   9.366   5.004   7.429 -1.6161 -2.4682 -2.0233
  723MOL0     H97571   9.503   5.195   7.394  0.2572 -2.6088 -0.9417
  723MOL0     H97572   9.425   5.131   7.242 -3.2668  1.0089  0.1920
  723MOL0     H97573   9.576   5.290   7.160 -0.5344  0.5545 -1.4243
  723MOL0     H97574   9.405   5.368   7.162 -2.8684 -1.4880  1.5488
  723MOL0     H97575   9.611   5.393   7.391  1.2144  0.3266  1.1728
  723MOL0     H97576   9.466   5.488   7.351  1.9163  0.9229  0.0960
  723MOL0     H97577   9.723   5.499   7.191 -2.9229 -2.7646 -4.8183
  723MOL0     H97578   9.566   5.576   7.158  0.2037 -2.0342 -1.5754
  723MOL0     H97579   9.706   5.611   7.429 -0.6480  3.6130  0.6041
  723MOL0     H97580   9.571   5.701   7.354  0.1383 -0.3683 -1.0330
  723MOL0     H97581   9.864   5.688   7.248 -0.7113 -0.7113 -0.4589
  723MOL0     H97582   9.742   5.792   7.185  2.3437 -3.9031 -4.1312
  723MOL0     H97583   9.879   5.784   7.458 -3.2489 -2.0072  2.4696
  723MOL0     H97584   9.734   5.888   7.426  0.7224 -1.5174  2.6336
  723MOL0     H97585   9.929   6.027   7.396  0.4642 -1.1879  1.3273
  723MOL0     H97586   9.865   5.984   7.228  0.3512 -0.2541  1.1771
  723MOL0     H97587   9.071   5.308   7.432  2.7086  0.4779 -1.2609
  723MOL0     H97588   8.916   5.165   7.559 -0.1065 -1.1000  2.6140
  723MOL0     H97589   8.684   4.676   7.478 -1.4631 -1.2657 -0.7596
  723MOL0     H97590   8.477   4.623   7.567  1.0473 -1.5157 -0.3970
  723MOL0     H97591   8.786   4.331   6.932 -0.7009  1.0259 -0.3291
  723MOL0     H97592   9.011   4.235   6.916  2.5549  3.1843 -2.9332
  723MOL0     H97593   9.173   3.673   6.791 -0.7029 -0.7627  0.3697
  723MOL0     H97594   9.410   3.573   6.776 -1.2667 -0.5994  1.4609
  723MOL0     H97595   9.676   3.572   6.854  1.1389 -4.0012  0.0589
  723MOL0     H97596   9.608   3.510   6.705  0.5588 -0.4530 -1.0767
  723MOL0     H97597   9.842   3.598   6.579 -0.3259  0.4037 -1.2302
  723MOL0     H97598   9.838   3.438   6.665  0.8353 -0.0813  0.9746
  723MOL0     H97599  10.023   3.545   6.715 -1.1182  0.0893 -2.4330
  723MOL0     H97600   9.936   3.561   6.869 -2.0242  0.4570 -0.6346
  723MOL0     H97601  10.003   3.782   6.860  0.2456  2.1503 -0.7241
  723MOL0     H97602   9.876   3.814   6.743 -0.4301 -0.5576 -3.5135
  723MOL0     H97603  10.217   3.802   6.479 -2.8163  1.0313 -3.0675
  723MOL0     H97604   9.579   3.952   6.693 -2.3647  3.5457 -0.8063
  723MOL0     H97605   9.341   4.056   6.708  1.7727  0.1873  2.0343
  724MOL0     O97606   3.623   2.310   1.804 -0.0451 -0.7379 -0.3287
  724MOL0     C97607   3.703   2.363   1.887 -0.2254 -0.0249 -0.0765
  724MOL0     O97608   3.775   2.302   1.981 -0.1987  0.7673  0.0344
  724MOL0     C97609   3.812   2.169   1.962 -0.3839  0.7225 -0.5955
  724MOL0     C97610   3.792   2.084   2.068  0.1486 -0.1765 -0.0284
  724MOL0     C97611   3.830   1.954   2.054  0.6149  0.1103 -0.4758
  724MOL0     C97612   3.884   1.903   1.935  0.6426 -1.1104 -0.1104
  724MOL0     O97613   3.897   1.771   1.921  0.0818 -0.6334 -0.3117
  724MOL0     C97614   3.786   1.714   1.859  0.5907  0.2824  0.0110
  724MOL0     C97615   3.822   1.574   1.808 -0.0874 -1.3720  0.6462
  724MOL0     C97616   3.697   1.514   1.728 -0.1920 -1.5711 -0.2997
  724MOL0     C97617   3.587   1.469   1.821  0.3705  0.4769 -0.9437
  724MOL0     C97618   3.488   1.386   1.747 -0.7889  0.2128  0.3863
  724MOL0     C97619   3.388   1.468   1.660 -0.9532  0.4026  0.5167
  724MOL0     C97620   3.303   1.368   1.579  0.2253  0.7796 -0.3302
  724MOL0     C97621   3.294   1.417   1.431  0.3369 -0.0584  0.2796
  724MOL0     N97622   3.188   1.523   1.424 -0.5992 -0.1082 -0.1545
  724MOL0     C97623   3.208   1.658   1.438  0.9267 -1.0109 -0.0044
  724MOL0     C97624   3.091   1.715   1.401 -0.2837 -0.7585  0.7539
  724MOL0     C97625   3.053   1.859   1.424 -0.8152 -0.3765 -0.7490
  724MOL0     C97626   3.154   1.970   1.400 -0.6507  0.1008 -0.4330
  724MOL0     C97627   3.092   2.106   1.375  1.1014  0.1201 -0.2947
  724MOL0     C97628   3.015   2.165   1.502 -0.1184 -0.0240  0.7303
  724MOL0     O97629   3.104   2.183   1.612 -0.7743 -0.0081 -0.0827
  724MOL0     C97630   3.080   2.296   1.685  0.8778 -1.0645  0.1043
  724MOL0     C97631   3.039   2.272   1.813 -0.2097  0.4287  0.4890
  724MOL0     C97632   2.990   2.377   1.893 -0.8787  0.8582  0.1630
  724MOL0     C97633   2.940   2.334   2.028 -0.0919  0.0543  0.1954
  724MOL0     C97634   3.001   2.515   1.853  0.5134 -0.4038  0.5626
  724MOL0     C97635   2.981   2.637   1.929 -0.8291  0.5889 -0.7111
  724MOL0     O97636   2.964   2.757   1.861  0.0742 -0.4281 -0.0491
  724MOL0     C97637   2.941   2.873   1.932 -0.1394 -0.7264 -0.5305
  724MOL0     C97638   2.830   2.888   2.019  0.8948 -0.6695 -0.5958
  724MOL0     C97639   2.781   3.014   2.053 -1.0294 -0.1239  0.2094
  724MOL0     C97640   2.849   3.126   2.004 -0.2997 -0.5089 -0.0084
  724MOL0     O97641   2.776   3.239   2.040 -0.0964 -0.0695  0.2731
  724MOL0     C97642   2.805   3.360   1.973  0.8446  0.1741  0.9905
  724MOL0     C97643   2.686   3.445   1.943  0.4054  0.4333  0.1323
  724MOL0     C97644   2.729   3.590   1.917  0.3039 -0.6476 -0.1736
  724MOL0     C97645   2.621   3.680   1.860  0.3845  0.0432  0.2022
  724MOL0     C97646   2.651   3.824   1.840 -0.0145 -0.5271  0.9393
  724MOL0     C97647   2.797   3.874   1.813 -0.1970  0.0805  0.1672
  724MOL0     C97648   2.800   4.027   1.776 -0.2577  0.1382  0.5340
  724MOL0     C97649   2.945   4.070   1.760 -0.0837 -0.6313 -0.2356
  724MOL0    Cl97650   2.964   4.245   1.726 -0.2406 -0.2357 -0.2487
  724MOL0     C97651   2.965   3.117   1.930 -0.8494 -0.2586  0.4519
  724MOL0     C97652   3.011   2.983   1.888 -0.6472 -0.4279  0.0973
  724MOL0     O97653   2.995   2.626   2.055  0.2008 -0.0438  0.7304
  724MOL0     C97654   3.040   2.536   1.720  0.3999  0.1764  0.1338
  724MOL0     C97655   3.069   2.428   1.633  0.3221  0.8970 -0.5797
  724MOL0     N97656   3.006   1.611   1.370  0.3283 -0.2508 -1.2764
  724MOL0     N97657   3.064   1.502   1.385  0.1481 -0.1759  0.3536
  724MOL0     C97658   3.898   1.993   1.836 -0.2164  0.3801  0.0356
  724MOL0     C97659   3.870   2.131   1.840  0.4508 -0.5656  0.7672
  724MOL0     C97660   3.727   2.503   1.892 -0.5582 -0.4247  0.5712
  724MOL0     C97661   3.695   2.580   1.779 -0.6572  0.5440 -0.1093
  724MOL0     C97662   3.703   2.718   1.793 -0.2460 -0.2245 -0.2107
  724MOL0     C97663   3.740   2.787   1.906 -0.7738  0.8201 -0.6993
  724MOL0     O97664   3.747   2.923   1.912 -0.4659 -0.0033  0.1033
  724MOL0     C97665   3.873   2.986   1.958  0.3332 -0.0681  0.2140
  724MOL0     C97666   3.829   3.122   2.003 -0.8700  0.6056  0.7262
  724MOL0     C97667   3.932   3.198   2.078 -0.1315 -0.6204  0.0086
  724MOL0     C97668   3.868   3.324   2.156  0.1282 -0.1015  0.0907
  724MOL0     C97669   3.794   3.284   2.272 -0.2750  0.5000 -0.0341
  724MOL0     C97670   3.734   3.257   2.376 -0.8000 -0.0150  0.8945
  724MOL0     C97671   3.793   2.707   2.012  0.7360 -0.6386  0.0127
  724MOL0     C97672   3.776   2.567   2.004  0.8906  0.1024  0.7100
  724MOL0     H97673   3.762   2.120   2.166  3.1284 -0.0750  0.9586
  724MOL0     H97674   3.809   1.889   2.138  0.8107  1.5167  0.7055
  724MOL0     H97675   3.703   1.712   1.930 -1.4316  1.8830 -2.1570
  724MOL0     H97676   3.750   1.769   1.772 -1.9518 -1.9481 -0.4842
  724MOL0     H97677   3.910   1.574   1.742  0.6133  2.1764  1.3540
  724MOL0     H97678   3.849   1.514   1.895 -1.1421 -1.8883  0.6293
  724MOL0     H97679   3.662   1.590   1.658  0.4800 -1.3871 -0.4416
  724MOL0     H97680   3.737   1.428   1.673  2.0630 -1.2252  0.6984
  724MOL0     H97681   3.641   1.414   1.899 -2.7826  0.7359  1.6487
  724MOL0     H97682   3.522   1.541   1.872  2.1158  0.3804  1.6000
  724MOL0     H97683   3.537   1.320   1.675 -2.6537 -1.6372  0.6975
  724MOL0     H97684   3.439   1.321   1.821 -0.6600 -0.6841 -0.3056
  724MOL0     H97685   3.341   1.546   1.720  0.4574  0.8971  1.0321
  724MOL0     H97686   3.443   1.534   1.592 -1.1360 -0.2067 -0.2364
  724MOL0     H97687   3.340   1.265   1.590 -0.6737  0.4062 -0.6560
  724MOL0     H97688   3.208   1.361   1.634  0.5830 -0.3173  0.1809
  724MOL0     H97689   3.247   1.339   1.369 -0.0380  1.1711 -1.0178
  724MOL0     H97690   3.389   1.450   1.390  0.5599 -0.0684  0.7815
  724MOL0     H97691   3.286   1.716   1.484 -1.1378  0.8091  1.4307
  724MOL0     H97692   2.978   1.880   1.347  0.6996  1.0504 -1.9056
  724MOL0     H97693   3.020   1.851   1.528  0.4245 -6.0035 -0.4560
  724MOL0     H97694   3.222   1.952   1.316 -1.1162 -3.1050 -0.2728
  724MOL0     H97695   3.224   1.964   1.484  2.2488 -3.3147 -2.7878
  724MOL0     H97696   3.028   2.091   1.287  1.5386 -1.6289 -0.3568
  724MOL0     H97697   3.167   2.178   1.342  2.6829 -1.9655 -1.5274
  724MOL0     H97698   2.932   2.096   1.518  0.1327 -0.5591 -0.1538
  724MOL0     H97699   2.965   2.257   1.470  0.9221 -0.0755 -1.2576
  724MOL0     H97700   3.021   2.168   1.839 -2.4390  0.2614 -1.4329
  724MOL0     H97701   2.920   2.227   2.038 -2.3774  0.5952  2.3316
  724MOL0     H97702   3.012   2.363   2.105 -1.3117 -1.6265  2.0709
  724MOL0     H97703   2.843   2.383   2.040  0.7284  1.9603 -0.4687
  724MOL0     H97704   2.755   2.810   2.025 -2.2660  2.1396 -1.1421
  724MOL0     H97705   2.678   3.029   2.085 -2.0396 -3.9880 -0.6261
  724MOL0     H97706   2.879   3.409   2.036  0.6835  1.5226  0.1886
  724MOL0     H97707   2.851   3.344   1.875 -1.2244 -0.0292 -0.0203
  724MOL0     H97708   2.645   3.412   1.848 -0.4572  0.0252  0.6433
  724MOL0     H97709   2.606   3.450   2.017 -0.3752  0.5270 -0.7030
  724MOL0     H97710   2.811   3.595   1.845 -0.0764  0.0138 -0.5642
  724MOL0     H97711   2.764   3.633   2.011  0.3739 -0.0680 -0.4643
  724MOL0     H97712   2.602   3.634   1.763  0.1631 -0.1231  0.3210
  724MOL0     H97713   2.532   3.685   1.924  0.4320  1.8079  0.1904
  724MOL0     H97714   2.634   3.863   1.940  0.3283 -2.3256  1.7354
  724MOL0     H97715   2.575   3.870   1.776  1.5849  1.3683  0.2670
  724MOL0     H97716   2.854   3.853   1.903 -0.0745  1.5551  0.4609
  724MOL0     H97717   2.847   3.812   1.738 -1.7071 -1.3601  0.2912
  724MOL0     H97718   2.737   4.086   1.844  0.9805 -0.6777  2.4975
  724MOL0     H97719   2.752   4.021   1.678  0.6520  0.1237  0.0847
  724MOL0     H97720   2.985   4.019   1.672 -0.4290 -0.1700 -0.6664
  724MOL0     H97721   3.005   4.055   1.849  2.4317 -0.6216 -1.8331
  724MOL0     H97722   3.005   3.207   1.884 -2.6118  0.3784  0.0925
  724MOL0     H97723   3.094   2.953   1.824 -0.3183  0.0050  0.3118
  724MOL0     H97724   3.050   2.631   1.670  0.0565  1.1617  1.8676
  724MOL0     H97725   3.088   2.447   1.528  2.3374  0.9756 -0.2328
  724MOL0     H97726   3.924   1.966   1.734 -1.0120 -0.9809  0.1674
  724MOL0     H97727   3.885   2.198   1.756 -1.1157 -1.6905 -0.4681
  724MOL0     H97728   3.673   2.531   1.685  0.7118 -0.3571  0.0183
  724MOL0     H97729   3.681   2.774   1.702 -2.8725 -0.0357  0.4850
  724MOL0     H97730   3.914   2.933   2.045  0.8649 -1.6797 -0.9574
  724MOL0     H97731   3.949   2.994   1.879 -2.0433  0.8258 -2.1117
  724MOL0     H97732   3.751   3.104   2.077 -0.5774 -2.5424  0.4124
  724MOL0     H97733   3.786   3.185   1.925 -0.1515  1.1664  0.7744
  724MOL0     H97734   4.013   3.232   2.014  1.2199 -0.6869  1.6239
  724MOL0     H97735   3.969   3.128   2.154  3.2009  1.4347  0.4379
  724MOL0     H97736   3.812   3.390   2.089 -0.2936  1.1735  1.6344
  724MOL0     H97737   3.960   3.377   2.184  0.6389 -1.2455  0.6608
  724MOL0     H97738   3.677   3.211   2.454 -1.2643 -2.9975 -1.0366
  724MOL0     H97739   3.838   2.745   2.103  1.5318 -1.5587  0.0168
  724MOL0     H97740   3.793   2.509   2.094 -2.0392 -0.6810  0.8671
  725MOL0     O97741   2.321   1.294   7.697 -0.2515 -0.1718 -0.4168
  725MOL0     C97742   2.245   1.392   7.699 -0.6170  0.2045 -0.5422
  725MOL0     O97743   2.128   1.410   7.634 -0.1651  0.1514  0.4514
  725MOL0     C97744   2.067   1.296   7.600  0.0363 -0.3262 -0.0081
  725MOL0     C97745   1.933   1.270   7.638 -0.5672 -1.0891 -0.2203
  725MOL0     C97746   1.871   1.164   7.583 -0.8718  0.3109  0.2335
  725MOL0     C97747   1.922   1.083   7.478 -0.1591 -0.7177 -0.4120
  725MOL0     O97748   1.851   0.995   7.400  0.2327 -0.4020 -0.5040
  725MOL0     C97749   1.736   0.933   7.465  0.1828 -0.1161 -0.3481
  725MOL0     C97750   1.677   0.826   7.374  0.0599  0.2705 -1.0605
  725MOL0     C97751   1.694   0.853   7.219  0.2801  0.1200  0.7174
  725MOL0     C97752   1.621   0.745   7.139 -0.2833 -0.3718 -0.7999
  725MOL0     C97753   1.667   0.745   6.993  0.9353 -0.4087  0.5939
  725MOL0     C97754   1.579   0.853   6.915  0.0486 -0.3306  0.0102
  725MOL0     C97755   1.591   0.855   6.760 -0.4866  0.4082 -0.4762
  725MOL0     C97756   1.720   0.919   6.720 -0.6411 -0.4358 -0.0002
  725MOL0     N97757   1.705   0.972   6.581 -0.0424 -0.6443  0.1532
  725MOL0     C97758   1.644   0.927   6.472  0.6458  0.1035  0.0046
  725MOL0     C97759   1.692   0.992   6.352  0.6048 -0.3108 -0.6186
  725MOL0     C97760   1.661   0.943   6.216 -0.4629 -0.6495 -0.7319
  725MOL0     C97761   1.592   0.807   6.211 -0.2961  0.1530 -0.0377
  725MOL0     C97762   1.558   0.758   6.071  0.4296  0.4432 -0.1794
  725MOL0     C97763   1.422   0.697   6.061 -0.7546  0.4836  0.0858
  725MOL0     O97764   1.414   0.621   5.940  0.2501 -0.4104 -0.3436
  725MOL0     C97765   1.318   0.659   5.849 -0.1350 -0.0917 -0.2220
  725MOL0     C97766   1.184   0.637   5.856  0.0046 -0.1380 -0.7489
  725MOL0     C97767   1.097   0.670   5.746 -1.8315  1.1883  0.5015
  725MOL0     C97768   0.954   0.633   5.763  0.8268  0.1069  0.0729
  725MOL0     C97769   1.149   0.739   5.633 -0.4868 -0.1598 -0.4376
  725MOL0     C97770   1.070   0.795   5.526  0.3080  0.0022 -0.0477
  725MOL0     O97771   1.128   0.805   5.398 -1.2851 -0.2686  0.0410
  725MOL0     C97772   1.050   0.861   5.294  0.1436  0.5872 -0.1277
  725MOL0     C97773   0.972   0.971   5.312  1.1730  1.1256  0.2732
  725MOL0     C97774   0.885   0.997   5.206  0.3433 -0.2776 -0.4533
  725MOL0     C97775   0.873   0.936   5.086  0.7779  0.5345  0.1615
  725MOL0     O97776   0.781   0.982   4.996 -0.0813 -0.3730 -0.1531
  725MOL0     C97777   0.713   0.901   4.908  0.3631 -0.0259 -0.3631
  725MOL0     C97778   0.760   0.932   4.764 -0.5219 -0.1811  0.1956
  725MOL0     C97779   0.669   0.863   4.655 -0.8017 -0.1439 -0.4939
  725MOL0     C97780   0.685   0.706   4.636 -0.7575  0.0237  0.6740
  725MOL0     C97781   0.560   0.663   4.551  0.0719  0.2463 -0.7479
  725MOL0     C97782   0.563   0.511   4.515  0.2893  0.3331  0.1685
  725MOL0     C97783   0.678   0.482   4.419 -0.3548  0.5056  0.7037
  725MOL0     C97784   0.666   0.350   4.330 -0.1870 -0.3360  0.0320
  725MOL0    Cl97785   0.815   0.316   4.240  0.0206  0.3380 -0.2244
  725MOL0     C97786   0.962   0.834   5.066 -0.1154 -0.2319  0.4116
  725MOL0     C97787   1.055   0.790   5.166 -0.2423 -1.0910  0.1750
  725MOL0     O97788   0.954   0.828   5.551 -0.2617 -0.8362 -0.5624
  725MOL0     C97789   1.291   0.767   5.625  0.6523  0.6863 -0.1381
  725MOL0     C97790   1.366   0.719   5.732  0.4934  0.2571  1.0432
  725MOL0     N97791   1.774   1.090   6.403 -0.1314 -0.4905  0.5316
  725MOL0     N97792   1.777   1.083   6.536  0.6041  0.9146  0.3158
  725MOL0     C97793   2.048   1.121   7.425  0.6164  0.2641 -0.8102
  725MOL0     C97794   2.122   1.218   7.490 -0.1577 -0.8510 -0.2096
  725MOL0     C97795   2.306   1.510   7.762 -0.4787  0.7664 -0.7276
  725MOL0     C97796   2.224   1.610   7.818  0.7072  0.1721 -0.2795
  725MOL0     C97797   2.280   1.734   7.849 -0.0520 -0.1836 -0.4261
  725MOL0     C97798   2.420   1.752   7.867  1.2244 -0.8628 -0.3687
  725MOL0     O97799   2.466   1.872   7.917 -0.3208 -0.1169 -0.2748
  725MOL0     C97800   2.606   1.877   7.964 -0.7472 -0.0422  0.5911
  725MOL0     C97801   2.620   1.988   8.071  0.0158  1.0621  0.5981
  725MOL0     C97802   2.643   2.132   8.003  0.7481 -0.6480  0.0597
  725MOL0     C97803   2.730   2.211   8.091  0.2820  0.4305 -0.1104
  725MOL0     C97804   2.741   2.351   8.063 -0.0588 -0.6307 -0.9088
  725MOL0     C97805   2.740   2.471   8.049  0.1276 -0.0871 -0.3242
  725MOL0     C97806   2.505   1.646   7.828  0.0901  0.5057 -0.1517
  725MOL0     C97807   2.446   1.529   7.768 -0.0577 -0.3661  0.0428
  725MOL0     H97808   1.895   1.346   7.706  0.0810  0.1322 -1.1779
  725MOL0     H97809   1.765   1.160   7.607 -1.5359  2.0207 -2.0451
  725MOL0     H97810   1.756   0.897   7.567  0.9219 -1.4278 -0.9266
  725MOL0     H97811   1.660   1.009   7.485  0.2035  0.3753 -2.0116
  725MOL0     H97812   1.723   0.730   7.400 -0.0154  1.0596  2.4834
  725MOL0     H97813   1.569   0.822   7.391 -0.1756  0.6432 -2.3178
  725MOL0     H97814   1.650   0.950   7.198  3.2376  1.2088 -1.0655
  725MOL0     H97815   1.803   0.848   7.209  0.2956 -4.0617  0.9819
  725MOL0     H97816   1.641   0.644   7.177  0.8605 -0.2238 -0.9749
  725MOL0     H97817   1.514   0.755   7.155 -0.0579  0.6058  0.2692
  725MOL0     H97818   1.770   0.781   6.985  1.2487 -1.5102 -1.0110
  725MOL0     H97819   1.654   0.643   6.954 -0.1247 -0.1134  0.1236
  725MOL0     H97820   1.475   0.826   6.936 -0.0782  0.6748  0.7577
  725MOL0     H97821   1.606   0.950   6.958  0.6919 -0.8168  0.7399
  725MOL0     H97822   1.580   0.753   6.721 -2.3308 -1.1562  3.5876
  725MOL0     H97823   1.513   0.920   6.717 -0.6309  2.9538  3.2135
  725MOL0     H97824   1.797   0.842   6.730  0.8612  1.0037 -0.1141
  725MOL0     H97825   1.763   0.997   6.783 -0.2183 -1.5207  1.0939
  725MOL0     H97826   1.567   0.850   6.469 -0.1644  0.8941 -0.0638
  725MOL0     H97827   1.587   1.014   6.178 -0.9588 -1.2161 -0.8371
  725MOL0     H97828   1.750   0.966   6.156 -0.8539  2.4008 -0.2723
  725MOL0     H97829   1.500   0.807   6.269 -1.1556 -0.1782 -1.3459
  725MOL0     H97830   1.658   0.732   6.256  0.3109  2.9331  4.2424
  725MOL0     H97831   1.645   0.695   6.047  0.6974  0.4126  0.8208
  725MOL0     H97832   1.563   0.838   5.997 -0.3143  2.8420  2.1985
  725MOL0     H97833   1.350   0.779   6.067 -1.9389 -0.5996  1.4462
  725MOL0     H97834   1.398   0.637   6.150 -2.3843  0.9104 -0.0386
  725MOL0     H97835   1.133   0.591   5.940  1.0417  1.1118  0.6155
  725MOL0     H97836   0.895   0.720   5.793  0.6271 -1.1194  3.8049
  725MOL0     H97837   0.924   0.604   5.662  1.4841  2.6489 -0.9212
  725MOL0     H97838   0.942   0.549   5.833  2.1957  1.7017  2.3337
  725MOL0     H97839   0.972   1.039   5.397 -0.4907  1.1362  0.3015
  725MOL0     H97840   0.815   1.078   5.222  0.2072 -0.4776 -0.0447
  725MOL0     H97841   0.712   0.793   4.927 -4.3692 -0.0111  0.8404
  725MOL0     H97842   0.605   0.917   4.919 -0.4355 -2.0793 -3.6006
  725MOL0     H97843   0.757   1.041   4.753 -3.2501 -0.2010 -0.0094
  725MOL0     H97844   0.866   0.909   4.753 -0.1808  0.5836  1.7068
  725MOL0     H97845   0.703   0.913   4.564  2.6606 -0.3774  0.5403
  725MOL0     H97846   0.562   0.880   4.672 -0.5695 -1.0470  2.4047
  725MOL0     H97847   0.781   0.672   4.595 -1.0496  0.3026 -0.2739
  725MOL0     H97848   0.680   0.657   4.734  0.8039  0.3648  0.9543
  725MOL0     H97849   0.565   0.718   4.457  3.6874  0.6535 -0.4241
  725MOL0     H97850   0.461   0.679   4.596  0.2097 -1.5937  0.3207
  725MOL0     H97851   0.560   0.453   4.608 -2.8657 -1.4150 -0.8973
  725MOL0     H97852   0.475   0.482   4.458 -0.7043  1.4658  1.0872
  725MOL0     H97853   0.766   0.464   4.481 -0.9691 -1.0278  1.1587
  725MOL0     H97854   0.690   0.566   4.350  2.2301 -0.3470  0.0195
  725MOL0     H97855   0.580   0.348   4.262  1.3257  0.0767 -1.9870
  725MOL0     H97856   0.648   0.276   4.409 -3.1563  0.3837  0.1612
  725MOL0     H97857   0.970   0.784   4.970  1.3984  0.6944  0.0185
  725MOL0     H97858   1.136   0.719   5.162  0.6580 -0.0856  0.1723
  725MOL0     H97859   1.329   0.807   5.532  0.2224  1.1482 -0.1236
  725MOL0     H97860   1.474   0.716   5.719  0.2688  0.5550 -1.5240
  725MOL0     H97861   2.082   1.054   7.346 -3.3660 -0.9559 -1.7368
  725MOL0     H97862   2.219   1.247   7.452 -0.7786  0.4848 -0.8386
  725MOL0     H97863   2.118   1.596   7.836  0.9003  1.2483  2.0168
  725MOL0     H97864   2.220   1.814   7.892  1.8517  2.4560 -2.3681
  725MOL0     H97865   2.624   1.782   8.017  0.4813 -0.2087 -0.0907
  725MOL0     H97866   2.682   1.891   7.886 -1.4552 -0.5700 -0.2072
  725MOL0     H97867   2.704   1.958   8.133 -0.6075 -0.0186  0.9479
  725MOL0     H97868   2.525   1.989   8.126 -0.2729  3.5201  0.1541
  725MOL0     H97869   2.547   2.182   7.988  1.2349  0.7352  1.2918
  725MOL0     H97870   2.695   2.136   7.907  0.8486  1.9914  0.1485
  725MOL0     H97871   2.827   2.162   8.100 -1.0944 -2.2348  1.2987
  725MOL0     H97872   2.696   2.208   8.195  0.3493  0.8925 -0.0737
  725MOL0     H97873   2.749   2.578   8.056  3.7540 -0.4053  3.9821
  725MOL0     H97874   2.612   1.661   7.837  0.2669 -1.5292  6.2260
  725MOL0     H97875   2.510   1.457   7.718  2.5132  3.0228 -2.0470
  726MOL0     O97876   6.899   1.243   7.214  0.1875  0.6585 -0.5614
  726MOL0     C97877   6.912   1.339   7.290 -0.6143  0.4630 -0.4255
  726MOL0     O97878   6.816   1.430   7.325  0.3203  0.4339  0.2980
  726MOL0     C97879   6.676   1.433   7.280  0.3129 -0.0702 -0.3093
  726MOL0     C97880   6.608   1.337   7.196 -1.0721 -0.0024 -0.1652
  726MOL0     C97881   6.469   1.342   7.178 -0.6449 -0.6293  0.1189
  726MOL0     C97882   6.400   1.456   7.227 -0.3137  0.0890 -0.4797
  726MOL0     O97883   6.264   1.457   7.214  0.3773 -0.1462  0.2759
  726MOL0     C97884   6.185   1.469   7.339 -0.1770 -0.2631 -0.8392
  726MOL0     C97885   6.041   1.463   7.280 -0.6449  0.3786 -0.0777
  726MOL0     C97886   5.934   1.481   7.390 -0.4168  0.3914 -0.2430
  726MOL0     C97887   5.785   1.462   7.338  0.1043 -0.4188  0.6333
  726MOL0     C97888   5.682   1.445   7.440 -0.4987 -0.5821 -0.1055
  726MOL0     C97889   5.539   1.428   7.389 -0.9653  0.2427 -0.0010
  726MOL0     C97890   5.497   1.543   7.311  0.2099  0.6831 -0.8903
  726MOL0     C97891   5.341   1.543   7.289  0.0620 -0.7349  0.4945
  726MOL0     N97892   5.278   1.647   7.195 -0.4829  0.1892  0.3230
  726MOL0     C97893   5.305   1.635   7.058  0.6685 -0.2566  0.1207
  726MOL0     C97894   5.222   1.729   7.008  1.0777 -0.4460  0.5522
  726MOL0     C97895   5.223   1.783   6.860 -0.1381  0.9017 -0.0544
  726MOL0     C97896   5.096   1.841   6.807  0.1032 -0.2228 -0.5145
  726MOL0     C97897   4.984   1.742   6.799 -0.0138 -0.1093  0.3224
  726MOL0     C97898   4.867   1.782   6.712  0.7786  0.4759  0.4781
  726MOL0     O97899   4.881   1.846   6.576 -0.4468  0.2327 -0.6381
  726MOL0     C97900   4.773   1.835   6.482  0.4546  0.7344 -0.0987
  726MOL0     C97901   4.648   1.767   6.505 -0.0525  0.6413  0.0701
  726MOL0     C97902   4.553   1.760   6.399 -0.7404 -0.2174 -0.9735
  726MOL0     C97903   4.422   1.705   6.424  0.3927  0.4594  0.0791
  726MOL0     C97904   4.588   1.793   6.273  0.7485  0.6124  0.2507
  726MOL0     C97905   4.507   1.772   6.157  0.7999 -1.3476  1.0827
  726MOL0     O97906   4.383   1.818   6.168  0.0499 -0.1583 -0.4176
  726MOL0     C97907   4.284   1.779   6.085  1.3896  0.2764  0.0903
  726MOL0     C97908   4.171   1.708   6.124  0.0390  0.1446 -0.1912
  726MOL0     C97909   4.067   1.692   6.047  0.8327  1.0543 -0.2053
  726MOL0     C97910   4.045   1.760   5.929 -0.4887  0.5593 -0.6040
  726MOL0     O97911   3.927   1.740   5.867 -0.1094  0.4280  0.1888
  726MOL0     C97912   3.895   1.839   5.768 -0.1081  0.4942 -0.2879
  726MOL0     C97913   3.752   1.827   5.719 -0.5223 -0.7872  0.2182
  726MOL0     C97914   3.666   1.778   5.839  0.0779  0.3649 -0.3127
  726MOL0     C97915   3.520   1.785   5.804  0.5700 -1.0993 -0.0500
  726MOL0     C97916   3.434   1.766   5.931  1.0730 -0.0747 -0.2875
  726MOL0     C97917   3.291   1.786   5.900  0.7843 -0.0231 -0.4053
  726MOL0     C97918   3.233   1.670   5.810  0.4044  0.4284 -0.0887
  726MOL0     C97919   3.089   1.701   5.767  0.1508 -0.1434 -1.0006
  726MOL0    Cl97920   3.071   1.847   5.672  0.6602  0.3616  0.0049
  726MOL0     C97921   4.155   1.833   5.881 -0.4231 -1.2004 -0.5920
  726MOL0     C97922   4.275   1.840   5.960 -1.0682 -0.0270  0.4918
  726MOL0     O97923   4.555   1.714   6.057  0.3974 -0.4113  0.8544
  726MOL0     C97924   4.714   1.856   6.251 -0.8092  0.7177 -0.1178
  726MOL0     C97925   4.799   1.889   6.363 -0.7460  0.6071 -0.0345
  726MOL0     N97926   5.135   1.777   7.107 -0.5052 -0.0988 -0.1176
  726MOL0     N97927   5.176   1.728   7.218  0.1500 -0.4244  0.0762
  726MOL0     C97928   6.459   1.566   7.293 -0.3979  0.8787  0.5141
  726MOL0     C97929   6.595   1.540   7.316  0.5736 -0.3246 -0.1862
  726MOL0     C97930   7.044   1.332   7.360 -0.3592  0.1759 -0.1498
  726MOL0     C97931   7.118   1.216   7.364 -0.1631 -0.2434 -0.4317
  726MOL0     C97932   7.242   1.208   7.427  0.3868  0.8844  0.3438
  726MOL0     C97933   7.301   1.324   7.477  0.1632  0.2201  0.6648
  726MOL0     O97934   7.416   1.334   7.531 -0.2643 -0.2260 -0.0216
  726MOL0     C97935   7.513   1.235   7.529 -0.7891  0.8415  0.3650
  726MOL0     C97936   7.496   1.142   7.649 -0.1715 -0.4593  0.0907
  726MOL0     C97937   7.583   1.191   7.764  0.0258 -1.0190  0.9709
  726MOL0     C97938   7.537   1.148   7.908 -0.2787 -0.1617  0.0578
  726MOL0     C97939   7.489   1.006   7.910 -0.0219 -0.0141 -0.3221
  726MOL0     C97940   7.461   0.892   7.901 -1.0970  0.4701  0.2835
  726MOL0     C97941   7.220   1.446   7.466  0.4919 -0.1104 -0.1868
  726MOL0     C97942   7.093   1.449   7.412 -0.1268 -1.3537 -0.1184
  726MOL0     H97943   6.659   1.263   7.134 -2.6489 -0.3419 -1.1031
  726MOL0     H97944   6.412   1.268   7.123 -1.6532 -0.8593  1.4419
  726MOL0     H97945   6.200   1.380   7.402  3.5130  1.6119  1.3012
  726MOL0     H97946   6.199   1.562   7.395  0.0729 -0.4565 -0.5762
  726MOL0     H97947   6.025   1.537   7.202 -4.5676  0.8166  0.9318
  726MOL0     H97948   6.037   1.362   7.237 -1.1471  0.4632 -0.2265
  726MOL0     H97949   5.955   1.416   7.475  0.0315  1.3325  0.3783
  726MOL0     H97950   5.945   1.585   7.420  0.1823  0.7265 -1.5573
  726MOL0     H97951   5.764   1.547   7.272 -1.0794 -0.0431  1.4707
  726MOL0     H97952   5.795   1.372   7.276  1.6876 -0.3417  0.7384
  726MOL0     H97953   5.711   1.360   7.503  1.1000  0.5552  0.7571
  726MOL0     H97954   5.695   1.533   7.502  1.5682  1.4828 -3.1977
  726MOL0     H97955   5.550   1.339   7.327 -0.8079  0.5379 -0.4008
  726MOL0     H97956   5.479   1.421   7.480 -0.3241  2.4867  0.6568
  726MOL0     H97957   5.532   1.634   7.361  2.3462 -0.7383  0.3582
  726MOL0     H97958   5.552   1.558   7.217 -0.8644 -1.2993 -1.8996
  726MOL0     H97959   5.287   1.536   7.384 -0.4130  1.0568  0.3988
  726MOL0     H97960   5.331   1.449   7.235  0.2016 -0.2892 -0.3325
  726MOL0     H97961   5.372   1.577   6.995 -1.7926  0.4779 -3.5309
  726MOL0     H97962   5.299   1.858   6.837  2.6098 -0.9385  2.3182
  726MOL0     H97963   5.257   1.703   6.794  0.6879  1.2997 -0.1157
  726MOL0     H97964   5.113   1.876   6.705  1.2477 -0.2097 -0.3328
  726MOL0     H97965   5.077   1.926   6.873  3.1400  0.1731  0.0305
  726MOL0     H97966   4.952   1.738   6.904 -0.9876 -0.8421  0.0185
  726MOL0     H97967   5.010   1.638   6.775  2.5729  0.2961  1.0729
  726MOL0     H97968   4.796   1.849   6.761 -1.3922 -0.3316 -1.4029
  726MOL0     H97969   4.812   1.687   6.706  2.2931 -0.3616 -0.9432
  726MOL0     H97970   4.623   1.744   6.608  0.7161  0.6384  0.2638
  726MOL0     H97971   4.340   1.777   6.418 -0.1539  0.6518  5.4140
  726MOL0     H97972   4.404   1.617   6.361  3.3410  2.0411 -3.3526
  726MOL0     H97973   4.410   1.677   6.529 -1.9309  2.7467  0.5403
  726MOL0     H97974   4.162   1.674   6.227 -1.0148  2.1152  0.4065
  726MOL0     H97975   3.992   1.618   6.077  0.8744  0.9180 -0.4374
  726MOL0     H97976   3.906   1.942   5.803  3.6562  0.1124  0.0453
  726MOL0     H97977   3.957   1.839   5.678 -2.4529 -1.0655 -2.0249
  726MOL0     H97978   3.727   1.920   5.668  2.0141  1.4723  2.7894
  726MOL0     H97979   3.752   1.743   5.649  2.3629  1.0147 -2.1842
  726MOL0     H97980   3.679   1.846   5.924  0.2085 -1.0883  0.8570
  726MOL0     H97981   3.695   1.675   5.860  0.8957  0.2863 -1.6705
  726MOL0     H97982   3.490   1.883   5.766  2.3302 -0.7667 -0.6668
  726MOL0     H97983   3.515   1.710   5.724  0.6619  1.4657 -2.6528
  726MOL0     H97984   3.460   1.837   6.010 -2.5859  4.1287 -2.4402
  726MOL0     H97985   3.449   1.668   5.978 -0.6887  0.7759  2.2843
  726MOL0     H97986   3.233   1.785   5.993  1.5923 -1.4133  0.1210
  726MOL0     H97987   3.285   1.886   5.857 -0.1665 -0.2414 -0.8063
  726MOL0     H97988   3.235   1.575   5.865 -1.3556  1.0135  1.0594
  726MOL0     H97989   3.299   1.657   5.723  1.5673  1.1498  0.6505
  726MOL0     H97990   3.032   1.735   5.853  1.9852  1.0555 -0.2063
  726MOL0     H97991   3.037   1.615   5.723 -3.4047  1.5877 -0.5612
  726MOL0     H97992   4.146   1.880   5.784 -1.9405 -0.3815 -0.0991
  726MOL0     H97993   4.355   1.901   5.919 -1.8703  0.2977 -0.6382
  726MOL0     H97994   4.731   1.899   6.153 -1.3286  2.7740  0.6249
  726MOL0     H97995   4.885   1.951   6.339 -1.7040  0.8453 -3.4123
  726MOL0     H97996   6.415   1.661   7.322 -0.8390  1.0727 -0.7243
  726MOL0     H97997   6.642   1.612   7.381  2.3726  0.3928 -2.1496
  726MOL0     H97998   7.082   1.129   7.310  1.5971 -0.7406 -0.8759
  726MOL0     H97999   7.284   1.108   7.424 -1.1267  0.2288 -0.3517
  726MOL0     H98000   7.504   1.178   7.437  1.7372  1.3848 -0.2893
  726MOL0     H98001   7.615   1.272   7.536 -0.4284 -0.2854  1.5492
  726MOL0     H98002   7.518   1.038   7.624  2.0150 -0.2433  0.9950
  726MOL0     H98003   7.390   1.139   7.677 -0.1570  0.6722  0.3387
  726MOL0     H98004   7.591   1.300   7.758 -3.0344 -0.7821 -1.5879
  726MOL0     H98005   7.680   1.149   7.738 -0.3850 -1.7219  0.5238
  726MOL0     H98006   7.456   1.211   7.946  0.3201 -0.0936  1.3067
  726MOL0     H98007   7.620   1.172   7.976  1.5065 -1.0701 -1.6975
  726MOL0     H98008   7.453   0.786   7.883  0.5382  0.8369 -3.4691
  726MOL0     H98009   7.273   1.532   7.505  1.5902 -0.7413 -0.2314
  726MOL0     H98010   7.040   1.543   7.412  2.2457  0.0869 -0.6058
  727MOL0     O98011  10.410   4.334   7.098  0.3278 -0.2737 -0.5443
  727MOL0     C98012  10.355   4.439   7.069 -0.2694  0.7215  0.1689
  727MOL0     O98013  10.411   4.552   7.010 -0.1236  0.1300 -0.0861
  727MOL0     C98014  10.536   4.532   6.947 -0.8801 -0.0002  0.1083
  727MOL0     C98015  10.658   4.523   7.006 -0.2116 -0.1526 -0.2653
  727MOL0     C98016  10.774   4.516   6.930  0.0543 -0.7670  0.5135
  727MOL0     C98017  10.769   4.536   6.794  0.3266  0.1361  0.2166
  727MOL0     O98018  10.879   4.552   6.713  0.1745 -0.2300  0.4540
  727MOL0     C98019  10.964   4.661   6.749 -0.5026  0.4114  0.4219
  727MOL0     C98020  11.045   4.691   6.623 -0.6266 -0.7085 -0.2589
  727MOL0     C98021  11.167   4.770   6.665  0.1332  0.1816 -0.4475
  727MOL0     C98022  11.269   4.764   6.546  0.3515 -0.5166 -0.3719
  727MOL0     C98023  11.423   4.775   6.574 -0.3570  0.0186  0.5448
  727MOL0     C98024  11.456   4.856   6.696 -0.1962  0.1758 -0.2243
  727MOL0     C98025  11.598   4.908   6.698  0.5699 -0.1408 -0.2294
  727MOL0     C98026  11.634   4.990   6.822  0.5333 -0.2248 -0.4595
  727MOL0     N98027  11.623   4.914   6.953 -0.0436 -0.1645  0.8631
  727MOL0     C98028  11.710   4.816   7.000  0.2170  0.1598 -0.3480
  727MOL0     C98029  11.650   4.782   7.112  0.3454  0.7537 -0.1654
  727MOL0     C98030  11.701   4.678   7.207 -0.7214  0.6576 -0.2703
  727MOL0     C98031  11.648   4.707   7.352  0.6877  0.5744  0.3999
  727MOL0     C98032  11.664   4.591   7.442 -0.6333 -0.7644 -0.1061
  727MOL0     C98033  11.804   4.562   7.493 -0.0521  0.0325 -0.1844
  727MOL0     O98034  11.895   4.662   7.539  0.6086 -0.1937 -0.1158
  727MOL0     C98035  12.017   4.614   7.555 -0.0054  1.4305  0.3074
  727MOL0     C98036  12.040   4.508   7.641  0.3268 -0.4539 -0.2357
  727MOL0     C98037  12.171   4.475   7.675  0.0904  0.4048  1.1611
  727MOL0     C98038  12.186   4.368   7.783  0.7119 -0.4071  0.4437
  727MOL0     C98039  12.284   4.557   7.621 -0.1096  0.0796 -0.4586
  727MOL0     C98040  12.426   4.521   7.657  0.1650  0.4694 -0.4650
  727MOL0     O98041  12.463   4.396   7.683  1.2285 -0.6883  0.0583
  727MOL0     C98042  12.583   4.377   7.752  0.8583 -0.1928  0.0352
  727MOL0     C98043  12.704   4.346   7.676 -0.1473  0.2713 -0.1927
  727MOL0     C98044  12.817   4.292   7.738  0.4973 -0.0630  0.3719
  727MOL0     C98045  12.819   4.270   7.876 -0.3994 -0.1390  0.8649
  727MOL0     O98046  12.933   4.227   7.932 -0.5417  0.1504  0.4810
  727MOL0     C98047  12.955   4.267   8.067 -0.4118  0.0250 -0.5862
  727MOL0     C98048  13.096   4.227   8.124 -1.2515  0.4296 -0.3261
  727MOL0     C98049  13.202   4.315   8.055 -0.1163  0.0809 -0.2172
  727MOL0     C98050  13.350   4.273   8.064 -0.0174 -0.4681  0.0844
  727MOL0     C98051  13.428   4.369   7.976 -0.4832  0.2837  0.6109
  727MOL0     C98052  13.578   4.364   7.980 -0.6783 -0.0791 -0.0566
  727MOL0     C98053  13.642   4.485   7.909 -0.0027  0.9951  0.4522
  727MOL0     C98054  13.788   4.455   7.865  0.3822  0.6014  0.3415
  727MOL0    Cl98055  13.894   4.433   8.007 -0.1299 -0.2383 -0.0814
  727MOL0     C98056  12.711   4.314   7.946 -0.1452 -0.0051  0.5346
  727MOL0     C98057  12.592   4.363   7.888 -0.1751 -0.9221 -0.1870
  727MOL0     O98058  12.503   4.612   7.645  0.2889 -0.0430  0.6916
  727MOL0     C98059  12.252   4.671   7.544  0.1881 -0.1449 -0.0786
  727MOL0     C98060  12.123   4.690   7.505  0.1775 -0.7990  0.2688
  727MOL0     N98061  11.540   4.857   7.142 -0.4095 -0.2310  0.5681
  727MOL0     N98062  11.516   4.934   7.041 -0.5526  0.7943 -0.2069
  727MOL0     C98063  10.645   4.540   6.727 -0.1056 -0.4979  0.2236
  727MOL0     C98064  10.534   4.553   6.809  0.3540  0.5992  0.5298
  727MOL0     C98065  10.205   4.443   7.093 -0.7944 -0.6655  0.1764
  727MOL0     C98066  10.142   4.370   7.188  1.0997 -0.1290  0.5727
  727MOL0     C98067  10.000   4.385   7.220 -0.5113  0.7410 -0.0444
  727MOL0     C98068   9.918   4.470   7.146 -0.6974  0.1650  0.1655
  727MOL0     O98069   9.781   4.478   7.166  0.1834  0.0676 -0.5344
  727MOL0     C98070   9.710   4.368   7.229 -0.2545  0.4196 -0.5038
  727MOL0     C98071   9.579   4.340   7.146 -0.2086  0.7193  0.5404
  727MOL0     C98072   9.632   4.286   7.004 -0.1522 -0.9555 -0.3487
  727MOL0     C98073   9.542   4.190   6.925 -0.6005  0.2255  0.1390
  727MOL0     C98074   9.411   4.249   6.882  0.0829  0.5589 -0.1044
  727MOL0     C98075   9.313   4.307   6.832  0.0230 -0.1846 -0.5549
  727MOL0     C98076   9.976   4.539   7.042 -0.7193 -0.5434  0.1838
  727MOL0     C98077  10.119   4.533   7.021  0.7869 -0.6833  0.2090
  727MOL0     H98078  10.663   4.511   7.114 -0.4266 -4.1772 -0.5221
  727MOL0     H98079  10.870   4.504   6.979 -0.0062  0.0174  0.8264
  727MOL0     H98080  10.907   4.743   6.793  0.5080  0.5491  1.4842
  727MOL0     H98081  11.034   4.627   6.826  0.0069 -0.6701 -0.4791
  727MOL0     H98082  11.085   4.606   6.567 -0.4594  0.4025 -1.8981
  727MOL0     H98083  10.983   4.754   6.558 -1.3032  1.9602  2.6992
  727MOL0     H98084  11.140   4.875   6.671  0.6359  0.4209 -2.0795
  727MOL0     H98085  11.203   4.734   6.762 -0.9992  0.8725  0.2498
  727MOL0     H98086  11.246   4.683   6.476 -2.5721  0.2500 -0.4034
  727MOL0     H98087  11.239   4.856   6.495 -0.9719 -0.7188  0.0114
  727MOL0     H98088  11.468   4.676   6.580  0.5440  0.3544 -0.2712
  727MOL0     H98089  11.470   4.806   6.480 -0.8473 -4.1573 -1.2725
  727MOL0     H98090  11.388   4.940   6.713 -0.5854 -0.5751  2.3288
  727MOL0     H98091  11.451   4.796   6.787  0.1640  0.6540  0.1171
  727MOL0     H98092  11.668   4.824   6.695  0.9267  0.0820  1.2921
  727MOL0     H98093  11.620   4.982   6.620  2.3456 -0.2503  0.1332
  727MOL0     H98094  11.577   5.083   6.832 -0.4443 -0.9758  1.5818
  727MOL0     H98095  11.735   5.031   6.823 -0.1073  1.5993 -2.4962
  727MOL0     H98096  11.791   4.755   6.962 -0.5696 -1.0213 -0.2178
  727MOL0     H98097  11.677   4.574   7.183  0.0959  0.0579  1.3796
  727MOL0     H98098  11.810   4.681   7.211 -0.4545 -3.5324  1.1777
  727MOL0     H98099  11.540   4.726   7.350  0.4150 -0.7097  1.4876
  727MOL0     H98100  11.701   4.787   7.405  3.0407 -2.1917  2.5299
  727MOL0     H98101  11.615   4.500   7.409  0.6736 -2.0494  1.3285
  727MOL0     H98102  11.613   4.621   7.534  1.9318 -0.7236  1.3807
  727MOL0     H98103  11.868   4.509   7.422  3.2359 -0.0627  2.5850
  727MOL0     H98104  11.793   4.484   7.570 -0.2936 -0.7889 -1.0291
  727MOL0     H98105  11.955   4.461   7.689 -0.6749 -1.4492 -2.8107
  727MOL0     H98106  12.097   4.334   7.836 -0.2892  1.6951  0.2042
  727MOL0     H98107  12.223   4.274   7.740  0.1109  0.4607 -2.1530
  727MOL0     H98108  12.247   4.408   7.864  0.0095 -0.0821  0.8102
  727MOL0     H98109  12.707   4.355   7.567 -0.7221 -0.0268 -0.2393
  727MOL0     H98110  12.897   4.262   7.671  1.1448  0.1853  1.0325
  727MOL0     H98111  12.968   4.375   8.073  0.9758 -0.1368 -0.0885
  727MOL0     H98112  12.876   4.230   8.132 -0.4127 -0.1611 -0.6921
  727MOL0     H98113  13.104   4.243   8.232 -2.0055  0.1578 -0.2223
  727MOL0     H98114  13.117   4.121   8.108 -3.1165  0.3886 -3.3630
  727MOL0     H98115  13.189   4.420   8.079  1.8880  0.5035 -0.7584
  727MOL0     H98116  13.175   4.309   7.949  0.0812 -2.0637 -0.1994
  727MOL0     H98117  13.394   4.289   8.163  0.8851 -4.0560  0.4173
  727MOL0     H98118  13.355   4.167   8.035 -5.0569 -0.9975  0.3739
  727MOL0     H98119  13.415   4.466   8.025 -0.2676 -0.9879  3.3907
  727MOL0     H98120  13.389   4.356   7.875 -0.6027 -2.8226  0.9717
  727MOL0     H98121  13.615   4.360   8.083  4.2237  0.6376 -1.5319
  727MOL0     H98122  13.605   4.273   7.927  0.9355  0.5937 -0.4761
  727MOL0     H98123  13.640   4.580   7.962  0.3139  1.7773 -0.8974
  727MOL0     H98124  13.579   4.512   7.824 -1.5269 -3.0540  0.0707
  727MOL0     H98125  13.830   4.530   7.797  2.5066 -1.9641 -1.3403
  727MOL0     H98126  13.792   4.355   7.821  0.2937  0.9486 -0.4874
  727MOL0     H98127  12.701   4.310   8.054 -0.3531  1.7683  0.6001
  727MOL0     H98128  12.506   4.374   7.953 -0.7641  3.0667 -1.3767
  727MOL0     H98129  12.333   4.734   7.509  0.3502  0.0089  0.5533
  727MOL0     H98130  12.100   4.772   7.437 -0.1853  2.0760  3.5979
  727MOL0     H98131  10.636   4.556   6.620 -1.0556  1.1036  0.5091
  727MOL0     H98132  10.431   4.562   6.773 -0.9149 -1.2562  3.3690
  727MOL0     H98133  10.198   4.299   7.249  0.4441 -0.5901  0.6509
  727MOL0     H98134   9.970   4.325   7.306  0.8951  1.2273  0.8211
  727MOL0     H98135   9.773   4.281   7.248  1.4494  2.1949  2.8927
  727MOL0     H98136   9.668   4.400   7.324  0.7554 -1.2012  0.5194
  727MOL0     H98137   9.524   4.435   7.144 -1.7064 -0.1201  0.7807
  727MOL0     H98138   9.526   4.260   7.198  2.1109  0.0363  1.9908
  727MOL0     H98139   9.726   4.231   7.016 -0.8720 -1.6299  3.4779
  727MOL0     H98140   9.631   4.371   6.934 -0.2107 -0.0180  0.7685
  727MOL0     H98141   9.530   4.096   6.980 -1.1417  0.5105  0.5119
  727MOL0     H98142   9.593   4.174   6.830  1.3173  0.0225  1.1512
  727MOL0     H98143   9.223   4.358   6.806  0.3232 -0.0907 -1.4388
  727MOL0     H98144   9.915   4.607   6.983 -3.7581 -1.0462  2.5212
  727MOL0     H98145  10.155   4.596   6.940  0.9353  2.7664  2.6996
  728MOL0     O98146   6.579   5.139   8.471  0.4193  0.8130  1.0196
  728MOL0     C98147   6.698   5.135   8.507  0.1390 -0.8071 -0.5426
  728MOL0     O98148   6.741   5.145   8.644  0.6009 -0.9013  0.2651
  728MOL0     C98149   6.648   5.184   8.741 -0.0622  0.4514 -0.1033
  728MOL0     C98150   6.531   5.261   8.728 -0.4002 -0.0972  0.4703
  728MOL0     C98151   6.452   5.288   8.837 -0.3452  0.4965 -0.0592
  728MOL0     C98152   6.492   5.249   8.964  0.2500 -0.3212  0.5765
  728MOL0     O98153   6.428   5.279   9.084  0.3983 -0.3487 -0.3755
  728MOL0     C98154   6.299   5.347   9.080  0.5419 -0.1538 -0.9012
  728MOL0     C98155   6.230   5.337   9.219  0.2558  0.8646 -0.0200
  728MOL0     C98156   6.270   5.204   9.291 -0.1150 -0.2825  0.3778
  728MOL0     C98157   6.172   5.176   9.404  0.3670 -0.0183 -0.4908
  728MOL0     C98158   6.220   5.070   9.507  0.3932 -0.3605 -1.0464
  728MOL0     C98159   6.191   4.929   9.453  0.0794 -0.7909  0.1308
  728MOL0     C98160   6.283   4.836   9.530  0.1423  0.6134  0.5794
  728MOL0     C98161   6.255   4.683   9.505  0.5282  0.8484 -0.0754
  728MOL0     N98162   6.322   4.637   9.385 -0.5112 -0.3205  0.5765
  728MOL0     C98163   6.376   4.510   9.361  0.9130 -0.6455  0.9374
  728MOL0     C98164   6.436   4.499   9.245  1.1529 -0.2922  0.8985
  728MOL0     C98165   6.498   4.377   9.180 -0.8099  0.6175  0.6961
  728MOL0     C98166   6.636   4.406   9.122  0.0664 -0.2065 -0.1960
  728MOL0     C98167   6.696   4.277   9.072  0.2234  0.2034 -0.5399
  728MOL0     C98168   6.839   4.308   9.014 -0.3881  0.2755  0.8208
  728MOL0     O98169   6.841   4.426   8.937 -0.8055  0.5295 -0.2176
  728MOL0     C98170   6.941   4.460   8.843 -0.5020 -0.0593 -0.4208
  728MOL0     C98171   6.908   4.557   8.749  0.7364 -0.0135  0.0837
  728MOL0     C98172   6.991   4.600   8.649 -0.7862  0.2910 -0.0562
  728MOL0     C98173   6.930   4.680   8.552 -0.1399 -0.1878  0.0113
  728MOL0     C98174   7.132   4.567   8.651 -0.2805  0.0973  0.2558
  728MOL0     C98175   7.234   4.599   8.544  0.2702 -0.8132 -0.3292
  728MOL0     O98176   7.196   4.655   8.434 -0.4885 -0.3989  0.1672
  728MOL0     C98177   7.289   4.710   8.338  0.6118 -0.0936 -0.6478
  728MOL0     C98178   7.267   4.693   8.211  0.1390  0.5917  0.0076
  728MOL0     C98179   7.361   4.729   8.115 -0.9147  0.6204 -0.6097
  728MOL0     C98180   7.489   4.784   8.142  0.1348  0.1688  0.3912
  728MOL0     O98181   7.569   4.841   8.054  0.2176  0.0022  0.1840
  728MOL0     C98182   7.567   4.801   7.918  0.3899  0.5588  0.0211
  728MOL0     C98183   7.670   4.863   7.826 -0.3790 -0.1841 -0.9356
  728MOL0     C98184   7.655   5.020   7.812  0.6914  0.7839 -0.2374
  728MOL0     C98185   7.770   5.085   7.736  0.2148  0.0348  0.6654
  728MOL0     C98186   7.742   5.233   7.750  0.0235 -0.5050 -0.0375
  728MOL0     C98187   7.778   5.303   7.878 -0.3765 -0.2029 -0.1578
  728MOL0     C98188   7.737   5.457   7.883  1.2043 -0.1394  0.1025
  728MOL0     C98189   7.805   5.551   7.777 -0.3695  0.0949  0.7325
  728MOL0    Cl98190   7.773   5.723   7.800 -0.1237  0.0016 -0.2329
  728MOL0     C98191   7.490   4.824   8.273 -1.3997  0.0835 -0.1782
  728MOL0     C98192   7.401   4.781   8.377 -0.1852  0.4618  0.3549
  728MOL0     O98193   7.343   4.556   8.570  0.3322 -0.3331 -0.7972
  728MOL0     C98194   7.170   4.480   8.755  0.5813  0.4815  0.2483
  728MOL0     C98195   7.074   4.429   8.848 -0.6423  0.1915  0.6810
  728MOL0     N98196   6.420   4.626   9.187  0.1121  0.1784 -0.3595
  728MOL0     N98197   6.355   4.705   9.270  0.4121  0.7199  0.3276
  728MOL0     C98198   6.609   5.172   8.979 -0.2074 -0.4020  0.5793
  728MOL0     C98199   6.698   5.147   8.871 -0.4457 -0.9689 -0.6514
  728MOL0     C98200   6.811   5.139   8.419 -0.2834  0.4499 -0.2126
  728MOL0     C98201   6.938   5.186   8.459  0.4756 -1.0182 -0.1961
  728MOL0     C98202   7.040   5.212   8.364 -0.6274  0.9375  0.0137
  728MOL0     C98203   7.026   5.173   8.231  0.9222 -0.4099 -0.3651
  728MOL0     O98204   7.130   5.183   8.155  0.4464  0.0547 -0.3203
  728MOL0     C98205   7.171   5.044   8.114  0.3949 -0.8749  0.1358
  728MOL0     C98206   7.129   5.007   7.967 -0.0708  0.3706  0.3742
  728MOL0     C98207   7.149   5.136   7.880  0.5190  0.1910 -0.5191
  728MOL0     C98208   7.145   5.096   7.725  0.8959  0.3031 -0.2985
  728MOL0     C98209   7.235   4.990   7.672  0.7303 -0.2965  0.9495
  728MOL0     C98210   7.277   4.883   7.641 -0.8143  0.0466  0.2416
  728MOL0     C98211   6.897   5.127   8.189 -0.1613  0.4305  0.0494
  728MOL0     C98212   6.793   5.114   8.285  0.1005  0.0498  0.6683
  728MOL0     H98213   6.492   5.300   8.634  0.2523  0.5033  0.4440
  728MOL0     H98214   6.357   5.335   8.816 -1.4188 -1.7713 -0.6092
  728MOL0     H98215   6.308   5.451   9.049 -1.3973  0.8951  1.6471
  728MOL0     H98216   6.238   5.310   8.997  2.0586 -1.3973 -1.5204
  728MOL0     H98217   6.273   5.415   9.283 -0.0521  0.8293  0.2340
  728MOL0     H98218   6.121   5.342   9.212  0.2450  0.5737 -0.0704
  728MOL0     H98219   6.277   5.113   9.230  0.1813 -1.7858  2.5385
  728MOL0     H98220   6.372   5.210   9.330 -1.4557  2.4014  4.1100
  728MOL0     H98221   6.145   5.274   9.445 -1.4283  0.0011 -1.5607
  728MOL0     H98222   6.069   5.161   9.370 -0.8874  1.2335  2.4082
  728MOL0     H98223   6.322   5.102   9.530 -0.8152  2.8021  0.5749
  728MOL0     H98224   6.172   5.081   9.605  0.7356  0.7136 -0.9856
  728MOL0     H98225   6.086   4.902   9.465  0.1803 -0.5971  1.6556
  728MOL0     H98226   6.206   4.927   9.345 -0.0663  1.1654  0.0299
  728MOL0     H98227   6.387   4.865   9.512  0.2888 -0.1213  0.1991
  728MOL0     H98228   6.256   4.862   9.632  1.7763  1.8153  0.7405
  728MOL0     H98229   6.149   4.656   9.501  0.4242  0.4225  2.9688
  728MOL0     H98230   6.277   4.616   9.589 -3.4489 -2.6573 -1.4731
  728MOL0     H98231   6.371   4.417   9.417  3.8411 -0.8862  0.9594
  728MOL0     H98232   6.504   4.300   9.257 -1.3279 -2.4905 -2.1521
  728MOL0     H98233   6.436   4.337   9.099  4.4153 -0.4981 -3.3729
  728MOL0     H98234   6.703   4.442   9.201 -0.5631  2.5889 -0.8209
  728MOL0     H98235   6.639   4.491   9.053 -0.0525 -0.2893 -0.3030
  728MOL0     H98236   6.630   4.237   8.995 -0.7203  2.5000 -1.0140
  728MOL0     H98237   6.700   4.212   9.160  0.6081  2.4621  1.1908
  728MOL0     H98238   6.873   4.221   8.957  1.1204  0.3265  1.6008
  728MOL0     H98239   6.914   4.333   9.089 -0.3558  1.4330  0.4141
  728MOL0     H98240   6.806   4.593   8.749  0.2702 -1.2169 -1.4467
  728MOL0     H98241   6.988   4.772   8.543 -2.2444  1.1405 -0.6276
  728MOL0     H98242   6.931   4.623   8.458  2.7800  0.6273 -0.5643
  728MOL0     H98243   6.824   4.699   8.569 -0.0969 -0.8593  1.0976
  728MOL0     H98244   7.173   4.651   8.175 -0.0735 -0.2495  1.4695
  728MOL0     H98245   7.343   4.699   8.013 -2.1822 -0.2884 -0.1525
  728MOL0     H98246   7.579   4.692   7.920  2.2941  0.6841  3.6543
  728MOL0     H98247   7.469   4.818   7.873  0.3065 -0.6678 -0.2900
  728MOL0     H98248   7.771   4.839   7.859 -0.6010  1.5095  1.2288
  728MOL0     H98249   7.665   4.823   7.724 -0.7103 -2.9736  0.0960
  728MOL0     H98250   7.641   5.065   7.910  0.4007 -2.8330  1.5432
  728MOL0     H98251   7.563   5.045   7.758 -0.4375 -0.0444  1.2451
  728MOL0     H98252   7.869   5.059   7.773 -0.7480 -2.6650  1.6155
  728MOL0     H98253   7.766   5.066   7.628 -0.9022 -1.2360  0.8887
  728MOL0     H98254   7.636   5.252   7.728  0.2044 -0.9269 -1.3253
  728MOL0     H98255   7.807   5.282   7.677  1.6647  2.0427  2.8820
  728MOL0     H98256   7.753   5.258   7.975  2.6856 -2.5414 -0.3067
  728MOL0     H98257   7.887   5.297   7.877 -0.2805 -0.1099 -3.6794
  728MOL0     H98258   7.751   5.506   7.980 -0.5498 -1.0327  0.8420
  728MOL0     H98259   7.629   5.454   7.869  1.1349 -0.5788  0.7211
  728MOL0     H98260   7.773   5.528   7.674 -1.0406  1.6443  0.5616
  728MOL0     H98261   7.912   5.532   7.787 -0.3629 -1.3209 -1.3600
  728MOL0     H98262   7.576   4.877   8.312 -0.8197 -0.2853 -0.9498
  728MOL0     H98263   7.419   4.802   8.481 -1.1608 -0.0733  0.6464
  728MOL0     H98264   7.269   4.436   8.748 -0.5067 -1.8538 -2.9902
  728MOL0     H98265   7.113   4.346   8.906 -0.8529  0.6471  1.4933
  728MOL0     H98266   6.617   5.130   9.079 -0.9917 -0.0072  0.8186
  728MOL0     H98267   6.795   5.099   8.877 -0.2633 -0.5497 -0.1282
  728MOL0     H98268   6.956   5.227   8.558 -0.7171  2.5299 -1.2854
  728MOL0     H98269   7.136   5.256   8.392 -0.9299  2.4987 -1.2291
  728MOL0     H98270   7.279   5.041   8.127  0.6402  0.0668 -1.4300
  728MOL0     H98271   7.136   4.968   8.184  2.7790 -1.0826  1.1794
  728MOL0     H98272   7.028   4.967   7.955 -0.4621  1.1749  0.8880
  728MOL0     H98273   7.194   4.924   7.938  1.5776  0.0791  4.1992
  728MOL0     H98274   7.250   5.179   7.880  0.9973 -0.8154 -2.2567
  728MOL0     H98275   7.066   5.206   7.890 -1.5267 -2.0483 -0.9041
  728MOL0     H98276   7.172   5.185   7.668  2.0805 -0.4534 -0.9680
  728MOL0     H98277   7.043   5.059   7.707  0.0636  2.8140 -1.2110
  728MOL0     H98278   7.310   4.785   7.611  0.7868 -0.5681  3.6022
  728MOL0     H98279   6.892   5.091   8.087  0.2448  3.5687 -1.1869
  728MOL0     H98280   6.696   5.084   8.245  0.8007  0.1046 -1.1447
  729MOL0     O98281   5.579  11.175  10.790 -0.2342  0.0041 -0.0295
  729MOL0     C98282   5.512  11.105  10.707 -0.2119  0.2128 -0.8055
  729MOL0     O98283   5.548  11.053  10.587 -0.5632  0.0767 -0.0208
  729MOL0     C98284   5.679  11.076  10.542 -0.5968 -0.1921  0.5725
  729MOL0     C98285   5.711  11.101  10.411 -0.1397 -1.0203  0.4382
  729MOL0     C98286   5.845  11.114  10.363 -0.2989 -0.1632  0.0164
  729MOL0     C98287   5.950  11.107  10.454  0.3668 -1.1044 -0.7092
  729MOL0     O98288   6.087  11.132  10.438 -0.6022  0.0187  0.1668
  729MOL0     C98289   6.131  11.129  10.300 -0.4922  0.5521 -0.4668
  729MOL0     C98290   6.275  11.173  10.312  0.1281  0.4533 -0.2650
  729MOL0     C98291   6.387  11.125  10.219  1.6280 -0.4679  0.1960
  729MOL0     C98292   6.438  11.220  10.116  0.3866 -1.0154 -0.9076
  729MOL0     C98293   6.538  11.159  10.023 -0.5501  1.1111  0.8492
  729MOL0     C98294   6.620  11.239   9.923 -0.3401 -0.3908 -0.7705
  729MOL0     C98295   6.731  11.152   9.859 -0.1339 -1.1389  0.9482
  729MOL0     C98296   6.828  11.097   9.953  0.1367 -0.4480 -0.4817
  729MOL0     N98297   6.911  11.198  10.021 -0.2751 -0.3303  0.2102
  729MOL0     C98298   6.899  11.257  10.148 -0.0574  0.1678  0.7793
  729MOL0     C98299   7.010  11.330  10.161 -0.6064 -1.2338 -0.7010
  729MOL0     C98300   7.014  11.430  10.270 -0.4904  0.5137 -0.2745
  729MOL0     C98301   6.995  11.568  10.208  0.0458 -0.5911  0.3195
  729MOL0     C98302   6.966  11.671  10.310  0.3060  0.5298  0.1431
  729MOL0     C98303   6.914  11.800  10.228 -0.3788 -0.1085  0.4177
  729MOL0     O98304   6.991  11.853  10.122 -0.3710 -0.2934  0.1540
  729MOL0     C98305   7.124  11.880  10.139 -0.2720  0.4671  0.4117
  729MOL0     C98306   7.202  11.873  10.030  0.8439 -0.5385 -0.0878
  729MOL0     C98307   7.342  11.890  10.037  0.1242 -0.6895 -1.4175
  729MOL0     C98308   7.420  11.870   9.908 -0.3073 -0.0343  0.2034
  729MOL0     C98309   7.406  11.925  10.152 -0.6162 -0.6087  0.9255
  729MOL0     C98310   7.551  11.976  10.151 -0.1377  1.0357 -0.1085
  729MOL0     O98311   7.642  11.923  10.068 -0.1833  0.3256 -0.1690
  729MOL0     C98312   7.777  11.965  10.078  0.7266  0.6888 -0.6841
  729MOL0     C98313   7.875  11.871  10.116 -0.2350  0.8057 -0.1840
  729MOL0     C98314   8.007  11.901  10.134  0.7967 -0.3149 -0.1263
  729MOL0     C98315   8.053  12.030  10.113 -0.2856 -0.7321 -0.1909
  729MOL0     O98316   8.184  12.063  10.134  0.5382 -0.8617  0.5578
  729MOL0     C98317   8.275  11.989  10.215 -0.7339  0.2505  0.1231
  729MOL0     C98318   8.414  11.996  10.154  0.0529 -0.5994 -0.5516
  729MOL0     C98319   8.515  11.950  10.249  0.1056  0.2923 -0.1952
  729MOL0     C98320   8.655  11.939  10.197  0.2693  0.1180 -0.6051
  729MOL0     C98321   8.766  11.926  10.304  0.0257  1.2245  0.1461
  729MOL0     C98322   8.902  11.899  10.241  0.6642  0.5836 -0.2009
  729MOL0     C98323   9.008  11.874  10.350  0.2175 -0.6324 -0.5386
  729MOL0     C98324   9.138  11.840  10.289  0.7243  0.4562 -0.3813
  729MOL0    Cl98325   9.216  11.972  10.196 -0.3319  0.0201 -0.2399
  729MOL0     C98326   7.961  12.120  10.066  0.6357 -0.2129  0.3269
  729MOL0     C98327   7.822  12.088  10.054 -0.7039  0.3164  1.3601
  729MOL0     O98328   7.581  12.051  10.241 -0.0381 -0.4459  0.1777
  729MOL0     C98329   7.325  11.940  10.271 -0.7716  0.7003  0.3312
  729MOL0     C98330   7.187  11.918  10.257  0.4928  0.0139  0.1298
  729MOL0     N98331   7.090  11.317  10.049  0.2668 -0.4334  1.0859
  729MOL0     N98332   7.038  11.232   9.965 -0.1995 -0.0910 -0.2792
  729MOL0     C98333   5.917  11.096  10.591 -0.4946  0.4984  0.1872
  729MOL0     C98334   5.787  11.062  10.626  0.2418  0.7116 -0.1351
  729MOL0     C98335   5.379  11.057  10.744  0.1974  0.3673  0.4758
  729MOL0     C98336   5.298  10.983  10.654 -1.1930  0.3569 -1.3450
  729MOL0     C98337   5.177  10.929  10.690  0.2966  0.1052 -0.9645
  729MOL0     C98338   5.123  10.960  10.822 -0.1799  0.3665  0.1967
  729MOL0     O98339   4.992  10.924  10.862  0.2397 -0.3139  0.7805
  729MOL0     C98340   4.895  11.007  10.794 -0.1942  0.5579 -0.3063
  729MOL0     C98341   4.756  10.969  10.832  1.5852  0.7029 -0.3656
  729MOL0     C98342   4.727  10.836  10.764  0.1228 -0.0204 -0.8165
  729MOL0     C98343   4.575  10.790  10.769 -1.0946  0.1607  0.5444
  729MOL0     C98344   4.504  10.836  10.888 -0.6340  0.7906 -0.1729
  729MOL0     C98345   4.462  10.872  10.988  0.1890 -0.1891  0.1724
  729MOL0     C98346   5.198  11.037  10.907  0.5675 -0.4381 -0.0182
  729MOL0     C98347   5.326  11.084  10.875  0.5369 -0.2968  0.2712
  729MOL0     H98348   5.628  11.114  10.343 -0.3644  0.9631  1.0375
  729MOL0     H98349   5.852  11.128  10.256 -1.0313  0.3705  0.0330
  729MOL0     H98350   6.117  11.028  10.261  0.0133  0.4454 -0.3700
  729MOL0     H98351   6.084  11.203  10.235  2.3100  1.3346 -1.7377
  729MOL0     H98352   6.288  11.281  10.326 -1.3318  0.4583  1.4202
  729MOL0     H98353   6.312  11.138  10.409  0.7764 -0.3905 -0.8011
  729MOL0     H98354   6.467  11.087  10.282  1.6299 -1.0121 -0.1298
  729MOL0     H98355   6.343  11.035  10.175 -0.9282  1.0654 -0.6027
  729MOL0     H98356   6.356  11.269  10.062 -0.6593  3.0938  3.6491
  729MOL0     H98357   6.474  11.304  10.176 -1.4048  0.2528 -1.5083
  729MOL0     H98358   6.608  11.124  10.099 -2.4762 -4.8812  0.3802
  729MOL0     H98359   6.499  11.070   9.974 -1.0880  1.7856  0.0263
  729MOL0     H98360   6.550  11.276   9.847  0.7105 -1.1869 -2.1662
  729MOL0     H98361   6.663  11.318   9.985 -0.2153 -2.5454  2.0928
  729MOL0     H98362   6.675  11.073   9.809 -0.2481 -0.6272  0.2549
  729MOL0     H98363   6.778  11.222   9.789 -0.8832 -0.4762  1.0826
  729MOL0     H98364   6.891  11.034   9.889 -0.0770 -0.6848 -0.4549
  729MOL0     H98365   6.783  11.031  10.027 -4.1138  1.3786 -1.1349
  729MOL0     H98366   6.809  11.289  10.201  1.4539  2.2353  2.2597
  729MOL0     H98367   6.942  11.404  10.349  1.3994  3.3525  2.6439
  729MOL0     H98368   7.113  11.415  10.314 -0.4316  3.5565  0.8579
  729MOL0     H98369   6.907  11.566  10.143 -0.0139 -1.6227  0.4104
  729MOL0     H98370   7.080  11.597  10.145 -1.6155  3.0741 -0.4983
  729MOL0     H98371   7.065  11.680  10.355  0.0740 -0.5083  0.9118
  729MOL0     H98372   6.895  11.653  10.391 -1.1836  0.5140 -1.1153
  729MOL0     H98373   6.899  11.876  10.306 -0.5608 -2.8571  3.2333
  729MOL0     H98374   6.822  11.771  10.176  0.0944  0.7687 -0.9787
  729MOL0     H98375   7.151  11.851   9.937 -1.5028  1.3984  0.6298
  729MOL0     H98376   7.354  11.843   9.825 -2.8525 -0.3755  2.2223
  729MOL0     H98377   7.478  11.958   9.880  1.9613 -1.3866  0.4022
  729MOL0     H98378   7.494  11.790   9.918  2.0012  1.7185 -1.7088
  729MOL0     H98379   7.839  11.769  10.127 -2.2808  1.3568 -1.2346
  729MOL0     H98380   8.068  11.815  10.159  1.8704 -0.3479 -2.6151
  729MOL0     H98381   8.284  12.018  10.320  0.7440  0.2326  0.0249
  729MOL0     H98382   8.248  11.883  10.217  1.4689 -0.3617  1.0375
  729MOL0     H98383   8.426  11.939  10.061  1.0323 -0.6137 -0.4202
  729MOL0     H98384   8.435  12.103  10.140  0.7381 -0.1275  3.1688
  729MOL0     H98385   8.484  11.857  10.299  2.1215 -0.7721 -0.8166
  729MOL0     H98386   8.534  12.017  10.334  3.8677  0.0189 -0.6573
  729MOL0     H98387   8.665  11.854  10.128  1.7639  0.8206 -1.2831
  729MOL0     H98388   8.672  12.029  10.137  0.1329  0.2635 -0.4257
  729MOL0     H98389   8.742  11.846  10.375 -4.2289  0.1005 -2.2034
  729MOL0     H98390   8.782  12.007  10.375  2.9577 -0.3783  1.5233
  729MOL0     H98391   8.898  11.810  10.179 -0.4399  1.8284 -2.0259
  729MOL0     H98392   8.921  11.981  10.171  0.8767 -0.3951 -1.3083
  729MOL0     H98393   8.981  11.801  10.427 -2.0972 -0.5507 -1.1831
  729MOL0     H98394   9.019  11.971  10.399 -1.9844  0.7603 -2.5812
  729MOL0     H98395   9.122  11.762  10.214 -0.6989  1.1137 -0.8090
  729MOL0     H98396   9.208  11.806  10.366 -0.8937 -2.1719  0.0403
  729MOL0     H98397   7.991  12.222  10.046 -2.4647  1.4083  2.9149
  729MOL0     H98398   7.747  12.160  10.024  1.2493  0.7187 -3.5465
  729MOL0     H98399   7.377  11.983  10.356  0.6214  2.1068 -1.1810
  729MOL0     H98400   7.126  11.931  10.346  1.3847  2.5422  0.4536
  729MOL0     H98401   6.001  11.100  10.660 -0.5436 -1.3161  0.3963
  729MOL0     H98402   5.771  11.018  10.724  1.5535  0.6961  0.0844
  729MOL0     H98403   5.343  10.959  10.558  2.8664  1.2230  0.1267
  729MOL0     H98404   5.122  10.873  10.615 -0.6457  0.7566 -0.7849
  729MOL0     H98405   4.914  11.110  10.827  3.5652 -0.0979 -0.0077
  729MOL0     H98406   4.908  11.012  10.686  0.4183  2.7889 -0.1808
  729MOL0     H98407   4.680  11.040  10.800  0.9393  1.5865  2.7402
  729MOL0     H98408   4.744  10.951  10.939  0.2197 -3.3349 -1.0268
  729MOL0     H98409   4.782  10.760  10.821  1.4779  1.3356 -0.2750
  729MOL0     H98410   4.767  10.832  10.663  5.4203 -1.5472  1.0289
  729MOL0     H98411   4.569  10.684  10.743 -1.6077  0.4520 -0.5799
  729MOL0     H98412   4.515  10.845  10.697 -0.1566 -1.2483 -1.3969
  729MOL0     H98413   4.435  10.913  11.084  2.2252 -1.9531  1.6018
  729MOL0     H98414   5.165  11.052  11.009 -1.4326 -1.9915 -0.3828
  729MOL0     H98415   5.387  11.146  10.940  0.5521  1.6104 -1.4664
  730MOL0     O98416  10.567   2.994   5.962 -0.0277  0.2996 -0.4925
  730MOL0     C98417  10.522   3.078   5.887 -0.2281 -0.2087  0.8753
  730MOL0     O98418  10.598   3.161   5.799  0.0623  0.3890 -0.3295
  730MOL0     C98419  10.711   3.101   5.740 -0.3786 -0.4121 -0.0150
  730MOL0     C98420  10.825   3.177   5.698  0.5466 -0.1513  0.6318
  730MOL0     C98421  10.940   3.132   5.641  1.1740  0.0846  0.0821
  730MOL0     C98422  10.956   2.994   5.638 -0.4368  0.1177  0.4038
  730MOL0     O98423  11.073   2.940   5.611 -0.2725  0.2313  0.1671
  730MOL0     C98424  11.177   3.027   5.559  0.9550  0.6902  0.1522
  730MOL0     C98425  11.280   2.939   5.499 -0.6987 -0.2909 -0.8832
  730MOL0     C98426  11.226   2.846   5.386  0.7918 -1.0534  0.4166
  730MOL0     C98427  11.329   2.771   5.304  0.1201 -0.1684  0.4769
  730MOL0     C98428  11.424   2.677   5.383  0.7524  0.4117 -0.1060
  730MOL0     C98429  11.559   2.641   5.310  0.5808  0.2719 -0.1910
  730MOL0     C98430  11.538   2.566   5.171 -0.0202 -0.0689 -0.2333
  730MOL0     C98431  11.667   2.520   5.112  0.1348  0.7005  0.1246
  730MOL0     N98432  11.649   2.462   4.973 -0.0810 -0.5056 -0.2072
  730MOL0     C98433  11.569   2.519   4.878  0.3134  0.0855  0.3857
  730MOL0     C98434  11.578   2.442   4.769  0.0655  0.0141 -0.6021
  730MOL0     C98435  11.504   2.463   4.644  0.7082 -0.4625  0.4508
  730MOL0     C98436  11.426   2.339   4.592  0.7619 -0.0796 -0.2771
  730MOL0     C98437  11.333   2.262   4.690 -1.2974  0.3700 -1.6598
  730MOL0     C98438  11.255   2.158   4.617  0.7822  0.5027  0.4509
  730MOL0     O98439  11.186   2.071   4.707  0.2083  0.6596  0.3791
  730MOL0     C98440  11.053   2.088   4.705  0.4663  0.3226 -0.0928
  730MOL0     C98441  10.976   2.046   4.590 -0.6285  0.6365 -0.2911
  730MOL0     C98442  10.840   2.079   4.586  0.1262 -0.0481 -0.4272
  730MOL0     C98443  10.771   2.048   4.453  0.0956  0.8805  0.2092
  730MOL0     C98444  10.774   2.137   4.700  0.1254 -1.3241  0.1308
  730MOL0     C98445  10.633   2.181   4.707 -0.2490  0.3694 -0.2666
  730MOL0     O98446  10.584   2.226   4.831 -0.1737 -0.5252  0.4174
  730MOL0     C98447  10.485   2.324   4.832  0.4782  0.3625  0.6635
  730MOL0     C98448  10.363   2.316   4.766 -0.2257 -0.1451 -0.9945
  730MOL0     C98449  10.270   2.416   4.774  0.0140  0.2686  0.2622
  730MOL0     C98450  10.278   2.509   4.880 -0.3733  0.0008  0.7056
  730MOL0     O98451  10.184   2.600   4.896 -1.0827 -0.4551  0.7853
  730MOL0     C98452  10.068   2.589   4.820  0.0443  0.5896  0.4002
  730MOL0     C98453   9.969   2.694   4.863  1.2668  0.3232  0.3053
  730MOL0     C98454   9.905   2.668   5.003 -0.8849 -0.6142  0.4147
  730MOL0     C98455   9.761   2.623   4.977 -0.9905 -0.0312 -0.8292
  730MOL0     C98456   9.684   2.596   5.106  0.3949  0.0072  0.3985
  730MOL0     C98457   9.530   2.587   5.085 -0.0975 -0.4730  0.9054
  730MOL0     C98458   9.456   2.500   5.196 -0.4165 -0.6463 -0.1673
  730MOL0     C98459   9.304   2.485   5.186 -0.0559  0.0903  0.1844
  730MOL0    Cl98460   9.235   2.646   5.209  0.1235 -0.2434  0.1622
  730MOL0     C98461  10.400   2.514   4.953  0.4082  1.4017 -0.6199
  730MOL0     C98462  10.493   2.426   4.923 -0.7669  0.1695 -0.2476
  730MOL0     O98463  10.568   2.176   4.607 -0.5341  0.4633  0.4595
  730MOL0     C98464  10.858   2.173   4.811  0.4589 -0.1579 -0.0305
  730MOL0     C98465  10.991   2.146   4.812 -0.0028  0.7769 -0.7255
  730MOL0     N98466  11.659   2.331   4.797 -0.0751  0.5358  0.7288
  730MOL0     N98467  11.714   2.360   4.910  0.4249  0.7151  0.0463
  730MOL0     C98468  10.850   2.913   5.668  0.2824  0.2694  0.3520
  730MOL0     C98469  10.722   2.962   5.713  0.2881 -0.1141  0.1051
  730MOL0     C98470  10.380   3.103   5.885 -0.0364 -0.1075 -0.2779
  730MOL0     C98471  10.319   3.191   5.782  0.2020 -0.3231  0.1606
  730MOL0     C98472  10.177   3.213   5.795 -0.5940  0.6232  0.3621
  730MOL0     C98473  10.099   3.156   5.893 -0.1388  0.1906  0.3955
  730MOL0     O98474   9.965   3.191   5.897 -0.6883 -0.5798  0.1160
  730MOL0     C98475   9.886   3.143   6.003  0.5944 -0.5065  0.2798
  730MOL0     C98476   9.740   3.207   5.989  0.0826 -0.0543 -0.4291
  730MOL0     C98477   9.745   3.357   6.022 -0.1191 -0.0612  0.0343
  730MOL0     C98478   9.697   3.380   6.163 -0.2619 -0.8114  0.0877
  730MOL0     C98479   9.784   3.330   6.276 -0.6318 -0.0164  1.1870
  730MOL0     C98480   9.858   3.286   6.354 -0.7088 -0.5318 -0.1098
  730MOL0     C98481  10.153   3.074   5.981  0.1949  0.6766  0.6655
  730MOL0     C98482  10.293   3.048   5.979 -0.6182  0.0642  0.0991
  730MOL0     H98483  10.794   3.280   5.715 -2.7819 -0.7984 -0.6539
  730MOL0     H98484  11.018   3.206   5.624  2.1966 -0.7590  0.9499
  730MOL0     H98485  11.149   3.093   5.476  3.4855  0.0124 -1.3496
  730MOL0     H98486  11.220   3.090   5.637 -0.5501  2.0401 -0.0666
  730MOL0     H98487  11.354   3.008   5.455 -1.0030  0.9427  0.4575
  730MOL0     H98488  11.331   2.885   5.578  2.3714  3.1072 -0.2419
  730MOL0     H98489  11.166   2.771   5.437 -0.5598 -1.3762 -1.5528
  730MOL0     H98490  11.151   2.900   5.327  1.4977  0.3882  0.8056
  730MOL0     H98491  11.270   2.726   5.224  1.3897  3.1850 -2.6277
  730MOL0     H98492  11.398   2.837   5.250  2.1054 -1.9177  0.7234
  730MOL0     H98493  11.449   2.735   5.473 -0.1597 -0.8546  1.0140
  730MOL0     H98494  11.373   2.584   5.410  2.8907 -0.5995  0.6873
  730MOL0     H98495  11.621   2.731   5.300 -0.0523  0.4901 -2.6431
  730MOL0     H98496  11.614   2.566   5.367 -0.5251 -1.3301 -1.1838
  730MOL0     H98497  11.479   2.476   5.189  2.0262 -1.2023  1.3924
  730MOL0     H98498  11.496   2.637   5.099  0.8641  1.8652  1.0494
  730MOL0     H98499  11.717   2.454   5.183 -0.6701 -0.3134 -0.2180
  730MOL0     H98500  11.742   2.599   5.104  1.0610 -0.3024 -2.1175
  730MOL0     H98501  11.514   2.612   4.889 -0.7049 -0.5784  1.0459
  730MOL0     H98502  11.438   2.547   4.666  1.1574 -0.5729  2.3840
  730MOL0     H98503  11.579   2.498   4.572  0.8783 -0.2650  0.7246
  730MOL0     H98504  11.495   2.264   4.553  1.5768  0.5926 -0.1542
  730MOL0     H98505  11.366   2.372   4.506  1.1783  1.2798 -0.0690
  730MOL0     H98506  11.272   2.327   4.752  0.0587 -1.2546  1.5904
  730MOL0     H98507  11.394   2.198   4.755 -3.1365 -0.1747 -0.3938
  730MOL0     H98508  11.326   2.096   4.560 -1.5988  2.0603 -4.8941
  730MOL0     H98509  11.188   2.206   4.545 -1.4339  1.7535  3.1656
  730MOL0     H98510  11.023   1.999   4.505 -1.0756  1.6371 -1.1148
  730MOL0     H98511  10.720   2.134   4.407 -1.0104 -0.3782 -1.0463
  730MOL0     H98512  10.834   2.012   4.371  0.8581 -1.0152  1.5692
  730MOL0     H98513  10.698   1.970   4.474 -0.4811  1.4395  0.3371
  730MOL0     H98514  10.349   2.245   4.684 -0.5334  1.5724 -2.4984
  730MOL0     H98515  10.179   2.420   4.715 -0.8977  2.2438  1.6599
  730MOL0     H98516  10.099   2.598   4.716 -1.4084  0.3339 -0.0786
  730MOL0     H98517  10.023   2.490   4.836 -1.1108  1.1144  0.4766
  730MOL0     H98518  10.014   2.794   4.871  1.5299  0.1268  1.6010
  730MOL0     H98519   9.898   2.702   4.780 -1.2071  1.2223  2.3604
  730MOL0     H98520   9.926   2.763   5.054 -1.7282 -0.1856 -0.0183
  730MOL0     H98521   9.962   2.594   5.059 -1.0855 -1.7817 -0.8747
  730MOL0     H98522   9.712   2.707   4.926 -0.7444 -0.2418 -1.4226
  730MOL0     H98523   9.757   2.536   4.911 -3.2522  1.9074 -3.5151
  730MOL0     H98524   9.705   2.663   5.190  2.5655 -2.9108  2.4034
  730MOL0     H98525   9.718   2.505   5.156 -0.9675 -0.1233  1.1220
  730MOL0     H98526   9.489   2.688   5.090 -0.4357 -0.6477  1.7820
  730MOL0     H98527   9.507   2.538   4.989  1.2295  1.1516 -0.3023
  730MOL0     H98528   9.486   2.545   5.292 -1.0393  0.3462 -0.4272
  730MOL0     H98529   9.500   2.399   5.197 -2.0389 -1.4713  3.0691
  730MOL0     H98530   9.275   2.412   5.261 -0.3239 -0.7915 -0.7525
  730MOL0     H98531   9.283   2.439   5.089 -1.8704 -2.3446  1.6464
  730MOL0     H98532  10.422   2.597   5.018  0.7223  1.5790 -0.9478
  730MOL0     H98533  10.586   2.439   4.978  0.3008  0.0723 -1.9593
  730MOL0     H98534  10.804   2.216   4.894 -1.0081 -2.3282  0.2175
  730MOL0     H98535  11.060   2.168   4.893 -0.9851  2.1089 -0.2188
  730MOL0     H98536  10.859   2.806   5.650  0.8919  0.6146 -1.6840
  730MOL0     H98537  10.643   2.892   5.741 -0.7915  1.8826  2.4118
  730MOL0     H98538  10.380   3.241   5.707  3.3817 -2.4853  1.0899
  730MOL0     H98539  10.130   3.281   5.725  0.6969 -0.4297 -1.5941
  730MOL0     H98540   9.878   3.034   6.003 -3.5465 -0.4651 -2.8613
  730MOL0     H98541   9.935   3.163   6.098  1.6326 -1.1651 -0.1051
  730MOL0     H98542   9.662   3.155   6.046 -1.2421  2.1831 -0.0348
  730MOL0     H98543   9.705   3.196   5.886 -0.7066 -0.4814 -0.1255
  730MOL0     H98544   9.692   3.413   5.944 -1.0704 -0.7363  0.1750
  730MOL0     H98545   9.845   3.401   6.019 -1.0399  2.1557  0.1137
  730MOL0     H98546   9.608   3.317   6.176  0.1385 -1.5979 -0.8509
  730MOL0     H98547   9.674   3.486   6.176 -0.7423 -0.8503 -0.3809
  730MOL0     H98548   9.922   3.246   6.430 -3.4089  0.4943  2.9217
  730MOL0     H98549  10.101   3.012   6.053  2.7604 -0.6857  1.4512
  730MOL0     H98550  10.326   2.983   6.059 -1.2867 -0.4150 -0.0089
  731MOL0     O98551   5.873   2.950   0.766  0.0611 -0.0293  0.4365
  731MOL0     C98552   5.911   3.036   0.845 -0.1187 -0.8138 -0.0803
  731MOL0     O98553   5.863   3.051   0.976  0.5844 -0.5810  0.3705
  731MOL0     C98554   5.798   2.943   1.030 -0.1901 -1.0528 -0.1746
  731MOL0     C98555   5.849   2.805   1.027  0.6318 -0.5016  0.2727
  731MOL0     C98556   5.779   2.706   1.109 -0.4896 -0.4256  0.3442
  731MOL0     C98557   5.678   2.742   1.195  0.4195 -0.3450 -0.4970
  731MOL0     O98558   5.603   2.645   1.258  0.3482 -0.4583  0.4921
  731MOL0     C98559   5.683   2.588   1.359 -0.2272  0.9557  0.1801
  731MOL0     C98560   5.611   2.478   1.440  0.4909  0.3525 -0.6746
  731MOL0     C98561   5.692   2.407   1.537 -0.9304 -0.0707 -0.3320
  731MOL0     C98562   5.600   2.309   1.609  0.1047  0.1911 -0.8219
  731MOL0     C98563   5.689   2.218   1.703 -0.3777 -0.7286 -0.3601
  731MOL0     C98564   5.728   2.109   1.617  0.0030 -0.3325  0.4816
  731MOL0     C98565   5.817   2.009   1.673 -0.6510 -0.1433  0.6551
  731MOL0     C98566   5.777   1.916   1.793  0.6752  0.7694  0.1453
  731MOL0     N98567   5.804   1.969   1.924  0.1893 -0.3361  0.4007
  731MOL0     C98568   5.718   2.055   1.998 -0.4471  0.9805  0.5444
  731MOL0     C98569   5.779   2.065   2.117 -0.6204 -0.0985 -0.3923
  731MOL0     C98570   5.731   2.136   2.240 -0.4250  0.4356 -0.5898
  731MOL0     C98571   5.621   2.049   2.308 -0.2797  0.4146  0.2628
  731MOL0     C98572   5.550   2.127   2.421  0.5468 -0.0191 -0.1303
  731MOL0     C98573   5.406   2.057   2.442 -0.5201  0.8253  0.5298
  731MOL0     O98574   5.417   1.910   2.451 -0.4849  0.1295  0.0191
  731MOL0     C98575   5.317   1.838   2.390 -0.9247  0.7660  0.6238
  731MOL0     C98576   5.271   1.718   2.454 -0.1440 -0.8576  0.1776
  731MOL0     C98577   5.177   1.634   2.395 -0.7553 -0.0371  0.3936
  731MOL0     C98578   5.116   1.522   2.473 -0.0042 -0.3328  0.5053
  731MOL0     C98579   5.116   1.671   2.269  0.6805 -0.5729  0.1266
  731MOL0     C98580   4.998   1.605   2.215  0.3781 -0.1593 -0.2660
  731MOL0     O98581   4.993   1.567   2.080 -0.1401  0.0933  0.3689
  731MOL0     C98582   4.888   1.489   2.039  0.0024 -0.5806 -0.8048
  731MOL0     C98583   4.818   1.517   1.921  0.4250 -0.0491 -0.2811
  731MOL0     C98584   4.721   1.425   1.862 -0.4176 -0.1181  0.0116
  731MOL0     C98585   4.697   1.301   1.923  0.3992  0.1887 -0.3084
  731MOL0     O98586   4.612   1.225   1.847 -0.0464 -0.6370 -0.1507
  731MOL0     C98587   4.526   1.131   1.922  0.6024  0.1491  0.2154
  731MOL0     C98588   4.446   1.064   1.801 -0.2916  0.0355  0.5092
  731MOL0     C98589   4.347   0.959   1.860 -0.6680  0.1940 -0.2937
  731MOL0     C98590   4.283   0.869   1.747 -0.1167 -0.8349 -1.2258
  731MOL0     C98591   4.191   0.752   1.813  0.4569  0.0836 -0.5822
  731MOL0     C98592   4.285   0.651   1.883  0.5518  0.0214  0.3314
  731MOL0     C98593   4.204   0.526   1.939 -0.0332 -0.5444  0.3582
  731MOL0     C98594   4.290   0.449   2.033 -0.0292  0.1371  0.3755
  731MOL0    Cl98595   4.440   0.394   1.944 -0.3555 -0.0583 -0.4842
  731MOL0     C98596   4.752   1.279   2.051  0.0258  0.9516 -0.3111
  731MOL0     C98597   4.850   1.364   2.109 -0.2634  0.1279 -0.4996
  731MOL0     O98598   4.909   1.591   2.294  0.2476  0.3388 -0.6759
  731MOL0     C98599   5.177   1.780   2.197  0.0503 -0.0641  0.7159
  731MOL0     C98600   5.272   1.859   2.258  1.1473 -0.6666 -0.1164
  731MOL0     N98601   5.891   1.980   2.114 -0.2326  0.1014  0.3731
  731MOL0     N98602   5.903   1.924   1.999  0.0539  0.2915 -0.2753
  731MOL0     C98603   5.646   2.876   1.207 -0.1076 -1.3458  0.5310
  731MOL0     C98604   5.700   2.972   1.122  0.0734 -0.5118  0.0664
  731MOL0     C98605   5.998   3.140   0.793 -1.3086  0.0621  0.0649
  731MOL0     C98606   6.086   3.216   0.872 -0.1250  0.3967  0.5318
  731MOL0     C98607   6.171   3.315   0.820  0.9628  0.0064 -0.4811
  731MOL0     C98608   6.179   3.333   0.682  0.2055 -0.2670  0.2797
  731MOL0     O98609   6.262   3.427   0.625 -0.1149 -0.3382 -0.0114
  731MOL0     C98610   6.250   3.563   0.672  0.0857 -1.1954 -0.3531
  731MOL0     C98611   6.379   3.639   0.688 -0.1090  0.7537 -0.0462
  731MOL0     C98612   6.455   3.577   0.813 -0.2421 -0.3024  0.2147
  731MOL0     C98613   6.394   3.624   0.949 -0.5265  0.6077 -0.8477
  731MOL0     C98614   6.491   3.574   1.052 -0.5796  0.3323 -0.1990
  731MOL0     C98615   6.580   3.529   1.125 -0.3165 -0.2092 -0.2275
  731MOL0     C98616   6.090   3.262   0.592 -0.0679  0.1592 -0.5341
  731MOL0     C98617   6.000   3.160   0.653 -0.1331  0.5406 -0.3920
  731MOL0     H98618   5.935   2.778   0.967 -0.4405 -0.4441 -1.3632
  731MOL0     H98619   5.819   2.606   1.121 -1.3709 -0.7550  0.5688
  731MOL0     H98620   5.765   2.530   1.318 -2.4645 -1.2271 -1.5145
  731MOL0     H98621   5.724   2.673   1.415  2.5511  1.4748 -2.3877
  731MOL0     H98622   5.519   2.513   1.487 -0.1492 -1.6928 -0.2869
  731MOL0     H98623   5.577   2.404   1.367 -1.5670 -0.1784  0.7564
  731MOL0     H98624   5.782   2.360   1.495  1.1144  0.5018  2.9751
  731MOL0     H98625   5.740   2.481   1.602  1.1581 -0.1181 -1.7003
  731MOL0     H98626   5.540   2.375   1.673  0.4083  0.3648 -0.7135
  731MOL0     H98627   5.544   2.250   1.536  0.9144  1.5846 -2.6565
  731MOL0     H98628   5.780   2.264   1.741  0.2554  0.1663 -2.7749
  731MOL0     H98629   5.626   2.189   1.787 -2.3068  2.3227 -0.5873
  731MOL0     H98630   5.639   2.066   1.571  2.6962 -5.6829 -0.5830
  731MOL0     H98631   5.793   2.143   1.536  4.9424 -1.1125  3.6502
  731MOL0     H98632   5.830   1.947   1.583  1.9510  1.2255 -0.0166
  731MOL0     H98633   5.916   2.054   1.688 -0.4645  1.0310 -2.9957
  731MOL0     H98634   5.840   1.827   1.782 -0.7785  0.0141 -3.2414
  731MOL0     H98635   5.676   1.875   1.784  0.4662  1.6181 -1.7607
  731MOL0     H98636   5.624   2.101   1.967 -1.7555 -3.8580 -4.2447
  731MOL0     H98637   5.812   2.170   2.305 -0.2116 -0.3099 -0.4585
  731MOL0     H98638   5.684   2.222   2.192 -0.2666  0.9104  0.0798
  731MOL0     H98639   5.679   1.973   2.360  0.5723  1.8455  1.5101
  731MOL0     H98640   5.540   2.019   2.241  0.5370 -4.4458  1.1024
  731MOL0     H98641   5.540   2.233   2.396  0.5609  0.1680  0.6399
  731MOL0     H98642   5.610   2.130   2.512 -2.1696  2.3242  1.7514
  731MOL0     H98643   5.333   2.080   2.364 -2.1041  0.0195  1.7014
  731MOL0     H98644   5.359   2.105   2.529 -1.7848  1.2776 -0.3674
  731MOL0     H98645   5.323   1.679   2.542  2.7985 -0.8438 -1.4089
  731MOL0     H98646   5.166   1.499   2.568  1.7112 -0.1601 -0.3055
  731MOL0     H98647   5.019   1.561   2.504 -0.7592 -1.7966  0.0803
  731MOL0     H98648   5.107   1.437   2.405  4.1820  1.8418 -3.3891
  731MOL0     H98649   4.843   1.610   1.872  2.3447 -1.2315 -1.6982
  731MOL0     H98650   4.676   1.445   1.765  1.5861  1.2570 -0.7069
  731MOL0     H98651   4.582   1.056   1.978  0.2437 -0.3639 -0.1122
  731MOL0     H98652   4.448   1.186   1.976 -0.2091 -2.2267  1.5826
  731MOL0     H98653   4.386   1.128   1.736 -0.4290  1.0575  1.5853
  731MOL0     H98654   4.517   1.013   1.736  1.1417  2.1119  0.3348
  731MOL0     H98655   4.261   1.003   1.911 -0.0346  0.4452  0.5802
  731MOL0     H98656   4.394   0.896   1.936  1.3267  1.7928 -0.1124
  731MOL0     H98657   4.220   0.929   1.681  1.3062  0.3678 -1.5192
  731MOL0     H98658   4.361   0.822   1.687  3.0040  0.2232  1.6575
  731MOL0     H98659   4.130   0.704   1.735 -2.5134 -0.0853  1.6487
  731MOL0     H98660   4.109   0.798   1.868  0.6513  1.1271 -1.1487
  731MOL0     H98661   4.355   0.622   1.804 -3.0079 -0.9023 -2.7857
  731MOL0     H98662   4.346   0.698   1.960  0.3631  3.3970 -1.4223
  731MOL0     H98663   4.174   0.461   1.856  0.9608  0.9521 -1.2377
  731MOL0     H98664   4.119   0.557   2.001 -1.7036  0.1437 -2.1529
  731MOL0     H98665   4.240   0.357   2.067  1.2176 -0.5202  0.5048
  731MOL0     H98666   4.316   0.520   2.112 -0.9377  0.0509  0.7753
  731MOL0     H98667   4.721   1.187   2.100 -1.8036  1.6067 -0.1778
  731MOL0     H98668   4.906   1.342   2.200 -0.2455  0.6099 -0.3907
  731MOL0     H98669   5.146   1.802   2.095  0.7396 -0.4694  0.4128
  731MOL0     H98670   5.301   1.945   2.198  0.2040 -0.4337 -0.2563
  731MOL0     H98671   5.561   2.908   1.267 -2.3369 -2.4822 -1.8020
  731MOL0     H98672   5.683   3.077   1.142  1.8630  0.0560 -1.0987
  731MOL0     H98673   6.084   3.199   0.979  0.8345  0.2247  0.5328
  731MOL0     H98674   6.233   3.377   0.885  1.6707 -0.4993 -0.6596
  731MOL0     H98675   6.179   3.610   0.604  2.0927  1.5450 -0.7281
  731MOL0     H98676   6.197   3.568   0.768  0.7632 -0.5733  0.0072
  731MOL0     H98677   6.362   3.747   0.699  0.7924  0.8785  0.2764
  731MOL0     H98678   6.431   3.631   0.592 -2.0451 -0.1400 -1.0732
  731MOL0     H98679   6.558   3.615   0.807 -0.2532 -0.5419 -2.3421
  731MOL0     H98680   6.462   3.468   0.812  0.2180 -0.2879  0.8201
  731MOL0     H98681   6.291   3.593   0.967  0.0385  0.7842  4.0813
  731MOL0     H98682   6.398   3.730   0.974  0.3593  0.1567  1.0552
  731MOL0     H98683   6.644   3.492   1.203 -0.3661 -1.0444 -0.5772
  731MOL0     H98684   6.104   3.269   0.485 -1.7320 -0.8638 -0.8478
  731MOL0     H98685   5.934   3.102   0.590 -0.7377  1.6774 -0.8430
  732MOL0     O98686  10.506   2.497   9.988 -0.0574 -0.3962  0.3557
  732MOL0     C98687  10.590   2.454  10.062  0.5165 -1.3170 -0.0724
  732MOL0     O98688  10.566   2.360  10.161 -0.7058  0.1184  0.1804
  732MOL0     C98689  10.468   2.264  10.125  0.3027 -0.5937  0.4521
  732MOL0     C98690  10.356   2.249  10.203 -0.1625 -0.4525 -0.2276
  732MOL0     C98691  10.253   2.162  10.168  0.1458 -0.2222 -0.7864
  732MOL0     C98692  10.260   2.100  10.053  1.8903  0.3077  0.0431
  732MOL0     O98693  10.152   2.027  10.006 -0.5993 -0.2532  0.5158
  732MOL0     C98694  10.171   1.889   9.994  0.6918  0.3800 -0.0471
  732MOL0     C98695  10.069   1.833   9.894 -0.9972 -0.8820  0.2692
  732MOL0     C98696   9.916   1.862   9.919  0.8859  0.1486 -0.1866
  732MOL0     C98697   9.863   1.825  10.056 -0.5127 -0.8239  0.3018
  732MOL0     C98698   9.707   1.817  10.057 -1.1336  0.7115 -0.5670
  732MOL0     C98699   9.621   1.954  10.049  0.4046 -0.3602 -0.2907
  732MOL0     C98700   9.471   1.924  10.041 -0.1154 -0.1442  0.3475
  732MOL0     C98701   9.385   2.058  10.026 -0.0881  0.5552 -0.5344
  732MOL0     N98702   9.431   2.171  10.109  0.2957  0.6499 -0.1286
  732MOL0     C98703   9.404   2.184  10.246 -0.0844  0.0765  0.2199
  732MOL0     C98704   9.427   2.313  10.268 -0.6994  0.8873  0.8181
  732MOL0     C98705   9.420   2.376  10.403  0.0779 -0.1679  0.4469
  732MOL0     C98706   9.359   2.522  10.401  1.2642 -0.1896  0.1872
  732MOL0     C98707   9.285   2.545  10.532  0.0240  0.6418 -0.4199
  732MOL0     C98708   9.140   2.488  10.531  0.3680  0.1817  1.3460
  732MOL0     O98709   9.089   2.495  10.657 -0.2052 -0.4168 -0.3196
  732MOL0     C98710   8.954   2.500  10.682 -0.1179  0.6844  0.9500
  732MOL0     C98711   8.917   2.565  10.800  0.7305  1.1555 -0.7464
  732MOL0     C98712   8.780   2.583  10.824 -0.4245 -0.4365 -0.5344
  732MOL0     C98713   8.747   2.631  10.968 -0.9582  0.5106 -0.0518
  732MOL0     C98714   8.689   2.534  10.733  0.9931  0.4229  0.0462
  732MOL0     C98715   8.543   2.537  10.759 -0.5556  0.3313 -0.2593
  732MOL0     O98716   8.462   2.485  10.660 -0.0444 -0.4072 -0.0311
  732MOL0     C98717   8.322   2.478  10.686  0.3854  0.2595  0.0495
  732MOL0     C98718   8.272   2.420  10.799  0.4328  1.7291  0.4425
  732MOL0     C98719   8.140   2.401  10.819 -0.5698 -0.4460 -0.0976
  732MOL0     C98720   8.047   2.452  10.731  0.7868  0.0887  0.8224
  732MOL0     O98721   7.917   2.429  10.748  0.0863  1.1335 -0.1378
  732MOL0     C98722   7.866   2.412  10.885  0.2947  0.0200 -0.1265
  732MOL0     C98723   7.714   2.387  10.875 -0.7270  0.5322  0.4291
  732MOL0     C98724   7.692   2.253  10.805 -0.7194  0.4871  0.4006
  732MOL0     C98725   7.537   2.211  10.783 -0.5199  0.3279 -0.6935
  732MOL0     C98726   7.488   2.277  10.657 -0.4112 -1.4371  0.7286
  732MOL0     C98727   7.339   2.270  10.624 -0.1186  0.3939  0.0482
  732MOL0     C98728   7.264   2.386  10.685 -0.2050  0.0951  0.2607
  732MOL0     C98729   7.119   2.385  10.671  0.3940 -0.1410  0.0135
  732MOL0    Cl98730   7.047   2.307  10.818  0.2491  0.4507 -0.3148
  732MOL0     C98731   8.093   2.512  10.614  0.0095 -0.9698 -0.5451
  732MOL0     C98732   8.232   2.530  10.596 -0.3842  0.6195 -0.2010
  732MOL0     O98733   8.503   2.601  10.859 -0.2774  0.1676 -0.4655
  732MOL0     C98734   8.733   2.470  10.614  0.9615 -0.8048 -0.4114
  732MOL0     C98735   8.863   2.456  10.588 -0.4703 -0.1837  0.0062
  732MOL0     N98736   9.481   2.380  10.151 -0.4615  0.4285 -1.6033
  732MOL0     N98737   9.473   2.287  10.054 -0.8961 -0.6620 -0.6611
  732MOL0     C98738  10.368   2.118   9.962  1.2937 -0.0401 -0.1570
  732MOL0     C98739  10.473   2.201   9.998  0.6297 -0.2584 -0.3353
  732MOL0     C98740  10.725   2.518  10.046  0.1264  0.6298 -0.9898
  732MOL0     C98741  10.741   2.625   9.959 -1.4017 -0.6715 -0.1123
  732MOL0     C98742  10.860   2.703   9.945 -0.7982  0.4339 -0.5203
  732MOL0     C98743  10.973   2.659  10.012  1.0503  1.0453  0.1121
  732MOL0     O98744  11.082   2.736  10.000  0.3928 -0.2649 -0.7075
  732MOL0     C98745  11.209   2.697  10.052  0.5933  0.0840  0.2351
  732MOL0     C98746  11.239   2.732  10.203 -0.4195 -0.7546 -0.6294
  732MOL0     C98747  11.247   2.881  10.231 -0.0866  0.2178  1.1243
  732MOL0     C98748  11.113   2.946  10.259 -0.0957 -0.2877 -0.2027
  732MOL0     C98749  11.136   3.087  10.293 -0.9896 -0.2565 -0.2992
  732MOL0     C98750  11.152   3.200  10.298  0.0539 -1.2605 -0.4633
  732MOL0     C98751  10.958   2.551  10.100 -0.4296 -0.8451  0.2828
  732MOL0     C98752  10.843   2.478  10.113  0.6678 -0.7688  0.3786
  732MOL0     H98753  10.332   2.304  10.294 -5.0330 -0.8976 -0.9427
  732MOL0     H98754  10.163   2.164  10.229 -1.8056  2.3172 -3.4614
  732MOL0     H98755  10.273   1.852   9.980  0.9909 -0.0011  2.5858
  732MOL0     H98756  10.150   1.853  10.095  0.6692 -1.1639 -0.5718
  732MOL0     H98757  10.100   1.872   9.797 -1.8420  1.0576  0.7296
  732MOL0     H98758  10.085   1.725   9.881  3.4023 -0.1352 -2.6036
  732MOL0     H98759   9.900   1.969   9.908  2.1024  1.1239  4.7994
  732MOL0     H98760   9.866   1.798   9.845 -0.0891 -1.2240  1.5724
  732MOL0     H98761   9.902   1.724  10.075 -3.1620 -2.1375 -0.8161
  732MOL0     H98762   9.905   1.885  10.138 -0.2243 -2.5775  1.5058
  732MOL0     H98763   9.680   1.763   9.966 -3.2836 -0.2230  0.5668
  732MOL0     H98764   9.685   1.754  10.144  0.1571  1.3521  0.2567
  732MOL0     H98765   9.638   2.026  10.128 -0.8188  0.2621 -0.5645
  732MOL0     H98766   9.654   2.002   9.956 -1.0503  2.1830  0.4117
  732MOL0     H98767   9.450   1.839   9.975 -3.7541 -0.3259  1.4974
  732MOL0     H98768   9.434   1.879  10.134 -0.9947  1.2601  0.7145
  732MOL0     H98769   9.284   2.027  10.055 -0.8956  2.1398 -1.5313
  732MOL0     H98770   9.376   2.081   9.920 -0.2750  2.1555 -0.1975
  732MOL0     H98771   9.371   2.106  10.314  2.3472 -0.9503  0.3014
  732MOL0     H98772   9.359   2.318  10.473  0.7054 -2.4631 -0.7944
  732MOL0     H98773   9.526   2.376  10.431 -0.0731 -0.1545  1.0130
  732MOL0     H98774   9.287   2.510  10.319 -2.6469 -0.1840  3.2874
  732MOL0     H98775   9.441   2.592  10.381  0.8921  0.5033  1.0118
  732MOL0     H98776   9.292   2.654  10.541  1.2579  0.4743  1.1052
  732MOL0     H98777   9.333   2.497  10.618 -3.5707 -3.0179 -0.1312
  732MOL0     H98778   9.142   2.384  10.495  0.8116  0.8957 -0.8363
  732MOL0     H98779   9.084   2.549  10.461 -1.2809 -2.3329  0.3325
  732MOL0     H98780   8.986   2.596  10.878 -0.5774  0.5294  0.6902
  732MOL0     H98781   8.697   2.728  10.968 -2.4747 -0.2256 -1.4881
  732MOL0     H98782   8.679   2.559  11.013 -1.2488  0.3344 -0.7614
  732MOL0     H98783   8.840   2.635  11.025 -0.3458 -1.8378 -0.7791
  732MOL0     H98784   8.336   2.391  10.882 -1.1774 -1.1817  0.7999
  732MOL0     H98785   8.107   2.365  10.916 -0.3588  0.5357  0.3500
  732MOL0     H98786   7.910   2.324  10.933 -1.0764  0.8261  2.8180
  732MOL0     H98787   7.879   2.496  10.953  0.4423  0.1300 -0.2907
  732MOL0     H98788   7.679   2.387  10.978 -0.2823  1.1715  0.5878
  732MOL0     H98789   7.662   2.469  10.825 -0.0935  0.2555 -0.7212
  732MOL0     H98790   7.743   2.172  10.858 -0.0405  0.1686 -0.7282
  732MOL0     H98791   7.739   2.249  10.707  1.4197  2.2009  1.2575
  732MOL0     H98792   7.543   2.102  10.775  0.2052  0.4127 -1.4422
  732MOL0     H98793   7.466   2.231  10.863 -0.0614  0.8178 -0.4016
  732MOL0     H98794   7.544   2.224  10.579  0.1379 -0.7628  0.6591
  732MOL0     H98795   7.520   2.380  10.640  0.0201 -2.0650 -3.5833
  732MOL0     H98796   7.325   2.262  10.516 -1.9654 -1.0218  0.3430
  732MOL0     H98797   7.306   2.177  10.670 -2.2514  0.6135 -0.9204
  732MOL0     H98798   7.295   2.465  10.615 -0.7945 -0.3757 -0.5582
  732MOL0     H98799   7.295   2.420  10.784 -0.8870  3.7227 -0.5891
  732MOL0     H98800   7.102   2.345  10.570 -1.7006  2.6390 -0.8721
  732MOL0     H98801   7.079   2.486  10.685  0.0733 -0.2647 -0.0003
  732MOL0     H98802   8.015   2.557  10.553 -0.4246  3.2575  2.6173
  732MOL0     H98803   8.279   2.580  10.512  2.2615 -4.0070 -1.8416
  732MOL0     H98804   8.667   2.433  10.537  0.7362 -1.2980  0.0085
  732MOL0     H98805   8.902   2.400  10.503 -2.5409 -0.7952 -0.5921
  732MOL0     H98806  10.363   2.076   9.862  1.1798  1.0461 -0.6320
  732MOL0     H98807  10.557   2.225   9.934  2.6676 -0.4585  2.1235
  732MOL0     H98808  10.650   2.651   9.906 -2.7579 -1.6182  1.6353
  732MOL0     H98809  10.870   2.790   9.880  1.5789  0.4259 -0.2374
  732MOL0     H98810  11.224   2.593  10.024  2.5592  0.7539 -1.4336
  732MOL0     H98811  11.287   2.751   9.997  1.0761  0.1672  0.9765
  732MOL0     H98812  11.336   2.686  10.223 -0.0493 -0.6660 -2.1319
  732MOL0     H98813  11.162   2.695  10.272  0.7616  0.0302  1.1701
  732MOL0     H98814  11.294   2.927  10.143 -2.2915  0.8706  0.2001
  732MOL0     H98815  11.304   2.894  10.324 -0.9262 -0.1201  1.6950
  732MOL0     H98816  11.058   2.888  10.333  1.9339  0.6437  2.1656
  732MOL0     H98817  11.049   2.949  10.170  2.4027  0.1801 -2.0697
  732MOL0     H98818  11.163   3.306  10.302  0.8721 -1.3370 -0.4067
  732MOL0     H98819  11.047   2.533  10.159 -0.6206  1.0955  1.2632
  732MOL0     H98820  10.862   2.404  10.190  0.8092 -0.2212  0.8774
  733MOL0     O98821   2.256   4.537   7.573 -0.0174 -0.3053 -0.0883
  733MOL0     C98822   2.216   4.566   7.461  0.1987  0.3516  0.1815
  733MOL0     O98823   2.248   4.506   7.340  0.9719  0.0609  1.1340
  733MOL0     C98824   2.361   4.422   7.321  0.1919  0.6748 -0.0513
  733MOL0     C98825   2.473   4.395   7.403 -0.1217  0.7435 -0.6854
  733MOL0     C98826   2.577   4.307   7.364  0.4295  0.2704 -0.1152
  733MOL0     C98827   2.565   4.231   7.243 -0.0237 -0.8567  0.6767
  733MOL0     O98828   2.676   4.162   7.195 -0.0908  0.9590 -0.5000
  733MOL0     C98829   2.659   4.054   7.099  0.0895 -0.3836 -1.1814
  733MOL0     C98830   2.729   3.924   7.142  0.0249 -0.2310 -0.8821
  733MOL0     C98831   2.687   3.864   7.272  0.4659 -0.3118 -0.4675
  733MOL0     C98832   2.540   3.824   7.257  0.3887 -0.4428 -0.5524
  733MOL0     C98833   2.484   3.738   7.373  1.0649  0.8005 -0.3324
  733MOL0     C98834   2.341   3.705   7.326  1.1538 -0.6886 -0.1335
  733MOL0     C98835   2.260   3.631   7.443 -0.0954 -0.3911  0.0804
  733MOL0     C98836   2.116   3.599   7.402 -0.5909 -0.2931  0.1449
  733MOL0     N98837   2.019   3.591   7.507 -0.7223  0.4095 -0.6456
  733MOL0     C98838   2.016   3.503   7.610  0.2342  0.0066  0.4229
  733MOL0     C98839   1.901   3.521   7.680 -0.6440 -0.2673 -0.0408
  733MOL0     C98840   1.862   3.459   7.815  0.0471  0.4148  0.0192
  733MOL0     C98841   1.723   3.404   7.814  0.6022 -0.4923  0.1947
  733MOL0     C98842   1.693   3.350   7.949  0.4121  0.4433 -0.5196
  733MOL0     C98843   1.556   3.275   7.963 -0.6360 -0.9369  0.1370
  733MOL0     O98844   1.517   3.263   8.100  0.2296  0.2058  0.5237
  733MOL0     C98845   1.391   3.255   8.133 -0.0081  0.1532 -0.4171
  733MOL0     C98846   1.366   3.243   8.261 -0.3513 -0.1966 -0.2773
  733MOL0     C98847   1.232   3.248   8.318  0.6631 -0.1139  0.2180
  733MOL0     C98848   1.209   3.236   8.466  0.2783 -0.1348 -0.5904
  733MOL0     C98849   1.118   3.260   8.225 -1.4528  0.0713 -1.2000
  733MOL0     C98850   0.975   3.283   8.259  0.2936 -0.9861 -0.1208
  733MOL0     O98851   0.877   3.296   8.156 -0.1850  0.0944  0.0555
  733MOL0     C98852   0.748   3.301   8.197  0.0600 -0.4502  0.2386
  733MOL0     C98853   0.688   3.209   8.285 -0.6762  0.5748 -0.3793
  733MOL0     C98854   0.551   3.202   8.316  0.5072 -0.0840  1.2215
  733MOL0     C98855   0.465   3.290   8.250  0.3469 -0.6733 -0.9197
  733MOL0     O98856   0.330   3.272   8.271  0.5739  0.6250  0.4956
  733MOL0     C98857   0.235   3.302   8.162  0.2285 -0.1809 -0.2484
  733MOL0     C98858   0.095   3.336   8.227 -0.0083  0.4357  0.3316
  733MOL0     C98859  -0.013   3.377   8.118 -0.7134  0.4861  0.3962
  733MOL0     C98860  -0.148   3.410   8.180 -1.1926  1.3066  0.3439
  733MOL0     C98861  -0.258   3.324   8.105 -0.0265  0.0234  0.4310
  733MOL0     C98862  -0.395   3.371   8.152  0.4517 -0.3339  1.1892
  733MOL0     C98863  -0.426   3.335   8.298  0.1418 -0.9420  0.3342
  733MOL0     C98864  -0.573   3.330   8.343 -0.2213  0.0313  1.0235
  733MOL0    Cl98865  -0.632   3.491   8.379  0.0483  0.2867 -0.1819
  733MOL0     C98866   0.524   3.379   8.160  0.0370  0.3876  0.2716
  733MOL0     C98867   0.661   3.398   8.139  0.6753 -0.0760 -0.6809
  733MOL0     O98868   0.956   3.310   8.378 -1.0030  0.9431  0.1142
  733MOL0     C98869   1.164   3.263   8.090  0.1182  0.4422  0.5522
  733MOL0     C98870   1.288   3.259   8.047 -0.1131  0.1282  0.2713
  733MOL0     N98871   1.831   3.618   7.612  0.4790 -0.4553 -0.1614
  733MOL0     N98872   1.899   3.656   7.510  0.1049 -0.6018  0.2629
  733MOL0     C98873   2.453   4.261   7.159 -0.6243  0.7515 -0.0153
  733MOL0     C98874   2.362   4.361   7.197  0.2451  0.1831  0.5619
  733MOL0     C98875   2.103   4.654   7.456  0.2055 -0.4548  0.3079
  733MOL0     C98876   2.012   4.645   7.342 -0.4134  0.5535  0.6860
  733MOL0     C98877   1.901   4.722   7.328  1.1954 -0.0151  0.6213
  733MOL0     C98878   1.878   4.818   7.425 -0.1518 -0.1429  0.1459
  733MOL0     O98879   1.775   4.910   7.428 -0.5331 -0.3641 -0.3504
  733MOL0     C98880   1.650   4.870   7.375  0.5579 -0.2490 -0.5272
  733MOL0     C98881   1.550   4.991   7.395 -0.5478  0.4554  0.1420
  733MOL0     C98882   1.563   5.069   7.525  0.0449 -0.3134  0.2753
  733MOL0     C98883   1.542   4.977   7.646 -0.8592  0.4291  0.7110
  733MOL0     C98884   1.403   4.934   7.648  0.6892  1.0582  0.3319
  733MOL0     C98885   1.289   4.898   7.664  0.0610  0.6171  1.0226
  733MOL0     C98886   1.958   4.834   7.534 -0.0348  0.2393  0.7633
  733MOL0     C98887   2.071   4.745   7.558  0.6552  0.9185  0.0143
  733MOL0     H98888   2.481   4.444   7.499 -0.4929  1.4882 -1.0327
  733MOL0     H98889   2.657   4.289   7.434 -0.7023  0.1470  1.1800
  733MOL0     H98890   2.550   4.046   7.094  0.0012 -2.3582  1.5285
  733MOL0     H98891   2.691   4.093   7.003 -0.1756 -0.6526 -1.3804
  733MOL0     H98892   2.717   3.840   7.072  0.1868  1.3828 -2.9366
  733MOL0     H98893   2.835   3.947   7.151 -0.1160 -0.3560  1.6727
  733MOL0     H98894   2.752   3.780   7.294 -0.2286 -0.2422  2.1096
  733MOL0     H98895   2.699   3.933   7.355  2.7890 -1.3575  0.1172
  733MOL0     H98896   2.490   3.922   7.252 -0.2984 -0.6342  1.4972
  733MOL0     H98897   2.531   3.766   7.165  2.3804  2.5622 -2.8578
  733MOL0     H98898   2.544   3.650   7.397 -1.4925 -0.4115  2.1672
  733MOL0     H98899   2.493   3.793   7.468  2.4021 -0.4035  0.2811
  733MOL0     H98900   2.280   3.791   7.297  0.3696  0.8345  4.9027
  733MOL0     H98901   2.340   3.643   7.237  2.2018 -1.0495  0.0889
  733MOL0     H98902   2.304   3.535   7.471 -1.2383 -1.0469 -0.3113
  733MOL0     H98903   2.249   3.701   7.526 -1.2366  1.7607 -1.7729
  733MOL0     H98904   2.119   3.502   7.351 -2.2930 -1.7125  2.4890
  733MOL0     H98905   2.085   3.675   7.330  2.7223 -1.1888 -2.4352
  733MOL0     H98906   2.095   3.433   7.636 -0.0894  0.1649  1.9476
  733MOL0     H98907   1.925   3.373   7.841 -0.1126  0.1281 -0.5126
  733MOL0     H98908   1.872   3.544   7.883 -3.2432  0.6180  0.4171
  733MOL0     H98909   1.714   3.331   7.733 -3.5854 -1.5122  1.3411
  733MOL0     H98910   1.658   3.488   7.786  2.2147 -0.0328 -2.6120
  733MOL0     H98911   1.686   3.437   8.015 -1.9742  1.7763 -2.3275
  733MOL0     H98912   1.778   3.290   7.981 -0.3887 -0.0478  0.7782
  733MOL0     H98913   1.564   3.179   7.910  0.3665 -1.0593  0.4884
  733MOL0     H98914   1.485   3.335   7.906 -0.6259  1.7260  2.7175
  733MOL0     H98915   1.447   3.243   8.334 -0.5237 -2.7792  0.0024
  733MOL0     H98916   1.144   3.153   8.495 -0.9030  0.9676  0.0428
  733MOL0     H98917   1.308   3.226   8.510  1.0882  2.1320 -1.6985
  733MOL0     H98918   1.163   3.328   8.505 -2.7926 -2.1411  1.0042
  733MOL0     H98919   0.754   3.131   8.321 -0.3434 -0.0869 -2.2886
  733MOL0     H98920   0.522   3.119   8.380  1.9793 -2.1554 -0.6396
  733MOL0     H98921   0.250   3.391   8.099 -5.9264  1.2737 -0.3549
  733MOL0     H98922   0.212   3.208   8.111 -3.0143  0.7647 -0.7485
  733MOL0     H98923   0.068   3.238   8.266  1.5437  0.5515  1.8099
  733MOL0     H98924   0.114   3.401   8.313 -1.5326 -1.1005  1.9211
  733MOL0     H98925  -0.016   3.288   8.055  2.3286 -0.6187  1.6177
  733MOL0     H98926   0.021   3.463   8.059 -1.8776  1.5363  1.2027
  733MOL0     H98927  -0.135   3.385   8.286  0.9672 -2.2902 -0.5973
  733MOL0     H98928  -0.169   3.517   8.171  0.4802  1.5380 -1.3331
  733MOL0     H98929  -0.233   3.224   8.142  0.0384  0.1225  0.6550
  733MOL0     H98930  -0.257   3.337   7.997 -3.2041  0.5124  0.3725
  733MOL0     H98931  -0.399   3.480   8.147 -2.0423 -0.2423  2.8450
  733MOL0     H98932  -0.472   3.327   8.088 -0.1311  1.4954  0.5865
  733MOL0     H98933  -0.372   3.405   8.362  2.9307 -0.5039 -2.3010
  733MOL0     H98934  -0.384   3.237   8.322  1.0626 -0.9549 -1.2298
  733MOL0     H98935  -0.576   3.267   8.433 -0.6734 -1.6569 -0.1227
  733MOL0     H98936  -0.640   3.284   8.269  0.7150  1.1959 -0.6201
  733MOL0     H98937   0.460   3.440   8.097 -2.1441  0.5075  2.4621
  733MOL0     H98938   0.689   3.458   8.053  1.4093 -1.2713 -1.2935
  733MOL0     H98939   1.085   3.251   8.017  0.2236 -1.5266  0.7106
  733MOL0     H98940   1.308   3.265   7.940 -1.1911  3.2079  0.1512
  733MOL0     H98941   2.443   4.210   7.064  2.1706 -1.5687  0.7790
  733MOL0     H98942   2.276   4.371   7.132  0.0792  2.9062  1.0686
  733MOL0     H98943   2.030   4.578   7.259  0.1576 -1.7903  2.6053
  733MOL0     H98944   1.833   4.716   7.244  2.5584  0.5059 -0.5722
  733MOL0     H98945   1.659   4.858   7.267 -1.6147  1.6958 -1.0307
  733MOL0     H98946   1.613   4.779   7.422  1.7880 -1.1256 -1.2204
  733MOL0     H98947   1.447   4.963   7.371  0.2667 -0.2923 -3.0690
  733MOL0     H98948   1.572   5.058   7.311  3.5352 -0.3093  0.3499
  733MOL0     H98949   1.488   5.148   7.525  0.1941 -0.1596 -0.6670
  733MOL0     H98950   1.659   5.120   7.538 -0.9280  1.2646  1.6544
  733MOL0     H98951   1.547   5.042   7.735 -0.5970  0.5706  0.5919
  733MOL0     H98952   1.599   4.884   7.652  0.0493  0.9506  0.2060
  733MOL0     H98953   1.189   4.861   7.672  0.7320 -1.2461  1.0497
  733MOL0     H98954   1.929   4.913   7.603  0.4179  0.7717  0.3624
  733MOL0     H98955   2.140   4.746   7.642  3.8051 -1.5178 -2.3018
  734MOL0     O98956   4.924   3.190   3.817  0.8773 -0.0915 -0.1758
  734MOL0     C98957   4.944   3.264   3.720  0.1605 -0.1998 -0.0746
  734MOL0     O98958   4.851   3.318   3.635  0.1972 -0.0466  0.2639
  734MOL0     C98959   4.719   3.341   3.660 -0.9936  0.6279 -0.0366
  734MOL0     C98960   4.645   3.406   3.555 -0.6258 -0.2478 -0.5099
  734MOL0     C98961   4.512   3.437   3.580 -0.9213  0.7248  0.4642
  734MOL0     C98962   4.442   3.392   3.686  0.8950 -0.4992  0.2867
  734MOL0     O98963   4.308   3.418   3.688  0.1196  0.4148  0.2551
  734MOL0     C98964   4.260   3.504   3.789  0.0593 -0.0311 -0.9374
  734MOL0     C98965   4.258   3.650   3.749  0.1471 -0.7140 -0.3094
  734MOL0     C98966   4.155   3.677   3.633  0.1394  0.5664 -0.6731
  734MOL0     C98967   4.151   3.823   3.607 -0.2281  0.0087  0.1663
  734MOL0     C98968   4.047   3.834   3.488  0.0451  0.4940  0.1902
  734MOL0     C98969   4.098   3.791   3.351 -0.1656 -0.1744  1.0109
  734MOL0     C98970   4.189   3.902   3.304 -0.0231 -0.0553 -0.1259
  734MOL0     C98971   4.237   3.883   3.158 -1.3142  0.1498  0.3162
  734MOL0     N98972   4.319   3.761   3.130  0.0081 -1.1902 -0.2284
  734MOL0     C98973   4.396   3.692   3.214 -1.0970 -1.0551 -0.2176
  734MOL0     C98974   4.445   3.586   3.138 -0.0927 -0.1700 -0.8516
  734MOL0     C98975   4.552   3.488   3.181 -0.2421  0.6498  1.1897
  734MOL0     C98976   4.623   3.438   3.051 -0.1806  0.2070 -0.3478
  734MOL0     C98977   4.727   3.320   3.078  0.7212 -0.4347  0.0660
  734MOL0     C98978   4.840   3.357   3.169 -0.6832 -0.3149  0.2229
  734MOL0     O98979   4.939   3.440   3.108 -0.2124 -0.1169 -0.2410
  734MOL0     C98980   5.022   3.515   3.193  0.7022  0.2107  0.3730
  734MOL0     C98981   5.154   3.523   3.163 -0.6979  0.4963 -0.6098
  734MOL0     C98982   5.236   3.614   3.233 -0.4122 -0.3845 -0.3155
  734MOL0     C98983   5.379   3.615   3.187  0.1635  0.3110  0.0792
  734MOL0     C98984   5.191   3.704   3.330  0.9880  0.5468 -0.1766
  734MOL0     C98985   5.268   3.810   3.405 -0.4427  0.0067  0.8306
  734MOL0     O98986   5.204   3.862   3.513  0.7481  1.0772 -1.3847
  734MOL0     C98987   5.268   3.928   3.612  0.2467 -0.7601  0.0158
  734MOL0     C98988   5.229   4.056   3.648 -0.8173  0.4940 -0.2176
  734MOL0     C98989   5.296   4.137   3.747 -0.3636  0.8616 -0.0486
  734MOL0     C98990   5.419   4.093   3.802 -0.1555 -0.7038  0.2022
  734MOL0     O98991   5.486   4.157   3.903 -0.1846 -0.1022 -0.1117
  734MOL0     C98992   5.541   4.284   3.876 -0.5830 -0.8016 -0.0301
  734MOL0     C98993   5.592   4.361   3.996  0.1899  0.5453  0.0669
  734MOL0     C98994   5.496   4.344   4.121 -0.4420 -0.7192 -0.0940
  734MOL0     C98995   5.556   4.373   4.254 -0.6711 -0.3868  0.8077
  734MOL0     C98996   5.623   4.509   4.265 -0.4685 -1.2968 -0.3932
  734MOL0     C98997   5.697   4.523   4.399  0.0127 -0.7589 -1.4290
  734MOL0     C98998   5.772   4.656   4.388  0.1739  0.1041  1.7189
  734MOL0     C98999   5.887   4.675   4.493 -1.1133  0.7431  0.9373
  734MOL0    Cl99000   6.003   4.541   4.474 -0.2657 -0.3748 -0.2645
  734MOL0     C99001   5.462   3.966   3.765 -0.0561 -0.3480  0.1001
  734MOL0     C99002   5.383   3.882   3.678  1.1170  0.2935 -0.2199
  734MOL0     O99003   5.384   3.841   3.370 -0.7077  0.3039 -0.0855
  734MOL0     C99004   5.051   3.699   3.348  0.2067 -0.3151 -0.1514
  734MOL0     C99005   4.971   3.607   3.284  0.1933  0.1294  0.9529
  734MOL0     N99006   4.391   3.593   3.014 -0.5995  0.1378 -0.2421
  734MOL0     N99007   4.325   3.706   3.005  0.3133 -0.9934  0.4966
  734MOL0     C99008   4.513   3.340   3.793  0.9021 -0.0478  1.1059
  734MOL0     C99009   4.655   3.314   3.779 -0.0227 -0.3812 -0.4028
  734MOL0     C99010   5.076   3.265   3.664 -0.7138 -0.5229 -0.1720
  734MOL0     C99011   5.185   3.220   3.740 -0.3783 -0.2964 -0.0344
  734MOL0     C99012   5.318   3.231   3.694  0.4654 -0.5657 -0.5179
  734MOL0     C99013   5.340   3.254   3.561 -0.6458 -0.3925 -0.6869
  734MOL0     O99014   5.464   3.254   3.500  0.5905 -0.5802  0.1810
  734MOL0     C99015   5.587   3.249   3.574 -0.6803  0.7154  0.1415
  734MOL0     C99016   5.708   3.261   3.472 -0.4480  0.7337  0.5380
  734MOL0     C99017   5.708   3.393   3.402 -0.1371 -0.5061 -0.6032
  734MOL0     C99018   5.786   3.372   3.270  0.0961  0.1806 -0.1033
  734MOL0     C99019   5.786   3.494   3.199 -0.3424  0.4469  0.1541
  734MOL0     C99020   5.791   3.598   3.134 -0.0752  0.0401  0.8163
  734MOL0     C99021   5.233   3.303   3.484  0.5198 -0.6123 -0.1314
  734MOL0     C99022   5.108   3.302   3.534  0.1824 -0.4669  0.4991
  734MOL0     H99023   4.706   3.442   3.472  0.6758  1.4997  1.1121
  734MOL0     H99024   4.471   3.496   3.498 -0.4872 -0.9482 -1.0264
  734MOL0     H99025   4.157   3.471   3.809  1.4364 -3.1434  2.0434
  734MOL0     H99026   4.313   3.502   3.884 -2.2974  0.3596  0.4784
  734MOL0     H99027   4.224   3.715   3.830 -0.3659  0.6859 -1.6120
  734MOL0     H99028   4.359   3.681   3.720  0.0926  1.5341  1.6206
  734MOL0     H99029   4.194   3.622   3.547 -0.2739  0.3989 -0.7532
  734MOL0     H99030   4.062   3.635   3.672 -0.6445  2.0451 -0.8880
  734MOL0     H99031   4.114   3.880   3.693 -1.1995  3.0783 -2.1097
  734MOL0     H99032   4.251   3.864   3.587 -0.2945 -0.8921 -2.3970
  734MOL0     H99033   3.954   3.781   3.507  0.2748 -0.3838 -1.0200
  734MOL0     H99034   4.020   3.940   3.480 -3.5444 -0.3589 -0.6080
  734MOL0     H99035   4.149   3.695   3.359 -0.2694 -0.3785 -0.5518
  734MOL0     H99036   4.012   3.767   3.288 -1.1947 -0.7892  2.5831
  734MOL0     H99037   4.125   3.990   3.298 -4.9432 -3.3009 -1.4415
  734MOL0     H99038   4.282   3.925   3.359  0.3950 -0.6318 -0.5753
  734MOL0     H99039   4.294   3.967   3.117 -0.6842 -1.2761 -1.8383
  734MOL0     H99040   4.146   3.881   3.097 -0.3588 -1.9943 -1.1411
  734MOL0     H99041   4.413   3.716   3.318 -3.5722 -1.1581  0.2755
  734MOL0     H99042   4.634   3.534   3.237  0.0862  1.6121 -0.0370
  734MOL0     H99043   4.504   3.407   3.236 -1.3779  1.3484  1.2437
  734MOL0     H99044   4.673   3.527   3.011  0.5995  0.4458  1.0853
  734MOL0     H99045   4.551   3.412   2.972 -2.3568  4.6851 -0.1533
  734MOL0     H99046   4.771   3.295   2.981  1.3053 -1.6842  0.6236
  734MOL0     H99047   4.674   3.232   3.117  1.9089 -0.9152  0.6543
  734MOL0     H99048   4.889   3.264   3.200 -0.7227 -1.1608 -2.0855
  734MOL0     H99049   4.799   3.405   3.259 -0.0079  0.7569 -0.0254
  734MOL0     H99050   5.195   3.446   3.098 -3.3794 -0.4804 -1.2969
  734MOL0     H99051   5.404   3.535   3.117 -0.9985 -2.3577  2.5120
  734MOL0     H99052   5.398   3.714   3.145  1.2961  0.5768  1.1520
  734MOL0     H99053   5.452   3.603   3.267  1.7542  1.4280 -1.1560
  734MOL0     H99054   5.153   4.104   3.586  0.2970 -1.3069 -3.1975
  734MOL0     H99055   5.253   4.232   3.778 -0.4464 -0.1413  3.3430
  734MOL0     H99056   5.628   4.276   3.810  2.8998 -0.9304  4.1603
  734MOL0     H99057   5.460   4.339   3.826 -2.3459 -1.5593  1.8590
  734MOL0     H99058   5.695   4.335   4.022  1.2167  2.5601 -1.7155
  734MOL0     H99059   5.600   4.466   3.967 -1.2976  0.2025 -1.8156
  734MOL0     H99060   5.440   4.250   4.125 -1.6568  0.0120  1.0600
  734MOL0     H99061   5.422   4.424   4.108  0.8147  1.2630  3.4675
  734MOL0     H99062   5.466   4.387   4.314 -1.1174  2.7069 -0.3615
  734MOL0     H99063   5.618   4.287   4.280  0.4119 -0.0483 -0.5569
  734MOL0     H99064   5.544   4.584   4.267  1.8375  1.4440  4.3027
  734MOL0     H99065   5.691   4.527   4.181 -1.6469  2.7969 -0.6545
  734MOL0     H99066   5.622   4.512   4.478  0.1115 -1.7602 -1.4545
  734MOL0     H99067   5.767   4.441   4.418  1.6542  0.2887 -2.7443
  734MOL0     H99068   5.707   4.741   4.410 -0.7366  0.2966 -1.2938
  734MOL0     H99069   5.799   4.668   4.283  0.8015  0.2058  1.8883
  734MOL0     H99070   5.863   4.660   4.599 -2.9180  3.9847  1.1447
  734MOL0     H99071   5.928   4.775   4.477 -0.8287  0.4647 -0.1237
  734MOL0     H99072   5.554   3.936   3.815  0.4462  2.5050  1.1034
  734MOL0     H99073   5.421   3.782   3.660  1.0120  0.2567 -0.2368
  734MOL0     H99074   5.005   3.762   3.424 -1.8967 -1.6264 -0.2501
  734MOL0     H99075   4.863   3.613   3.295  0.3921  1.1276  2.7317
  734MOL0     H99076   4.460   3.309   3.882  1.3652 -0.8051  1.1223
  734MOL0     H99077   4.704   3.265   3.862  3.8143  0.8026 -1.7952
  734MOL0     H99078   5.164   3.185   3.841  0.5734  1.9629  1.0218
  734MOL0     H99079   5.401   3.225   3.764  2.8333 -1.0374 -3.1309
  734MOL0     H99080   5.589   3.336   3.640  1.0039  1.3158 -0.6476
  734MOL0     H99081   5.585   3.159   3.636 -2.0414 -0.0496 -0.9383
  734MOL0     H99082   5.704   3.177   3.402  3.7534  1.2722 -0.5821
  734MOL0     H99083   5.804   3.256   3.524  0.2360  0.3059 -0.7320
  734MOL0     H99084   5.742   3.479   3.460 -1.3461  1.5431 -2.7353
  734MOL0     H99085   5.605   3.411   3.368 -0.8863 -0.9404  1.3100
  734MOL0     H99086   5.742   3.306   3.195 -1.1498  2.2890 -1.3400
  734MOL0     H99087   5.888   3.333   3.280  0.8070  1.7062 -1.0310
  734MOL0     H99088   5.809   3.694   3.092 -3.8457  0.3623 -0.3755
  734MOL0     H99089   5.248   3.335   3.381  0.5252  0.5968  0.2346
  734MOL0     H99090   5.034   3.335   3.461  1.7817 -1.1883 -1.5510
  735MOL0     O99091   3.865   6.522   7.399  0.6307 -0.4071 -0.3526
  735MOL0     C99092   3.916   6.539   7.509  0.3124 -0.8591 -0.7590
  735MOL0     O99093   3.849   6.578   7.626  0.6478 -0.1314  0.9453
  735MOL0     C99094   3.715   6.618   7.602 -1.1760  1.0902 -0.1426
  735MOL0     C99095   3.616   6.516   7.588 -0.8232 -0.1772  0.1313
  735MOL0     C99096   3.479   6.550   7.579  0.1855  0.2285 -0.5498
  735MOL0     C99097   3.442   6.678   7.587 -0.5252  0.0873 -0.3007
  735MOL0     O99098   3.308   6.710   7.589  0.3935 -0.5943  0.0217
  735MOL0     C99099   3.262   6.830   7.524  1.0236  0.4134 -0.2045
  735MOL0     C99100   3.107   6.818   7.549 -0.8150 -1.0563  0.4490
  735MOL0     C99101   3.078   6.866   7.700 -0.1763  0.5300  0.3333
  735MOL0     C99102   2.925   6.869   7.727  0.3316  0.2197 -0.1965
  735MOL0     C99103   2.899   6.881   7.878 -1.6691  0.5715 -0.7023
  735MOL0     C99104   2.753   6.920   7.892  0.4255  0.5454  0.3846
  735MOL0     C99105   2.719   6.935   8.039  0.1464  0.0916 -0.4343
  735MOL0     C99106   2.589   7.015   8.064  0.4755  0.0676 -0.5600
  735MOL0     N99107   2.584   7.052   8.207 -0.2054 -0.2303  0.7284
  735MOL0     C99108   2.543   6.966   8.313  0.4942 -0.0994  0.0305
  735MOL0     C99109   2.563   7.040   8.425 -0.5642  1.2305 -0.7822
  735MOL0     C99110   2.580   6.973   8.569  0.8217  0.2988 -0.0744
  735MOL0     C99111   2.458   6.997   8.658 -0.3987  0.3271 -0.1368
  735MOL0     C99112   2.447   6.892   8.767 -0.1255 -0.1340 -0.3549
  735MOL0     C99113   2.311   6.861   8.832  0.1895 -0.4374 -0.1422
  735MOL0     O99114   2.254   6.983   8.891  0.5466  0.6395  0.1289
  735MOL0     C99115   2.249   7.007   9.025 -0.3299  0.6467  0.4601
  735MOL0     C99116   2.142   7.085   9.069 -0.0925  0.1816  0.1171
  735MOL0     C99117   2.130   7.131   9.202  1.2158  0.8989  0.6723
  735MOL0     C99118   2.001   7.206   9.249 -0.5073  0.0774 -0.0205
  735MOL0     C99119   2.226   7.082   9.297  0.5726  0.4046 -0.1112
  735MOL0     C99120   2.218   7.125   9.442 -0.0172  0.2459  0.3117
  735MOL0     O99121   2.182   7.252   9.463  0.6519  0.0491 -0.3055
  735MOL0     C99122   2.138   7.284   9.591  0.0620 -0.1183 -0.1901
  735MOL0     C99123   2.014   7.236   9.632 -0.6310 -0.8831  0.0950
  735MOL0     C99124   1.952   7.275   9.746  1.2432  0.2675  0.9608
  735MOL0     C99125   2.007   7.372   9.829 -0.2520  0.4184  0.5534
  735MOL0     O99126   1.937   7.398   9.944  0.1126  0.0656 -0.2386
  735MOL0     C99127   2.013   7.398  10.072  0.6392  0.1380  0.4829
  735MOL0     C99128   1.918   7.435  10.189  0.4628 -0.2701  0.8509
  735MOL0     C99129   1.793   7.353  10.190  0.7179 -0.1433  0.6647
  735MOL0     C99130   1.694   7.417  10.288 -0.1517 -0.3534  0.0785
  735MOL0     C99131   1.579   7.335  10.330 -0.2861 -1.1883 -0.1053
  735MOL0     C99132   1.467   7.408  10.413 -0.4193 -0.1896  1.3326
  735MOL0     C99133   1.348   7.315  10.438 -1.3896 -0.3083 -0.5260
  735MOL0     C99134   1.244   7.370  10.534  0.3980  0.4166  0.2233
  735MOL0    Cl99135   1.099   7.261  10.545  0.7696 -0.0666 -0.0744
  735MOL0     C99136   2.136   7.422   9.791 -0.4247 -0.1952  0.1018
  735MOL0     C99137   2.208   7.373   9.679  0.1374 -0.4266 -0.2634
  735MOL0     O99138   2.244   7.044   9.531 -0.5685 -0.3105 -0.0766
  735MOL0     C99139   2.320   6.976   9.258  0.3426 -0.0539  0.9233
  735MOL0     C99140   2.339   6.952   9.115  0.2430  0.0730  0.1412
  735MOL0     N99141   2.603   7.164   8.387  0.5639  0.8162 -0.0972
  735MOL0     N99142   2.620   7.172   8.264 -0.2452 -0.4358 -0.0238
  735MOL0     C99143   3.539   6.779   7.592 -0.0434 -0.5645  0.1282
  735MOL0     C99144   3.675   6.752   7.611 -1.2865  0.2677  0.7285
  735MOL0     C99145   4.065   6.520   7.509  0.5898 -0.3719  0.1005
  735MOL0     C99146   4.133   6.511   7.388 -0.1925 -0.5224  1.2120
  735MOL0     C99147   4.271   6.506   7.388 -0.6134  0.4882 -1.1646
  735MOL0     C99148   4.343   6.478   7.508 -0.3239  0.5556 -0.9371
  735MOL0     O99149   4.481   6.458   7.516  0.1266 -0.6859  0.1870
  735MOL0     C99150   4.506   6.326   7.548 -0.3707  0.1356 -2.3489
  735MOL0     C99151   4.581   6.258   7.439 -0.6707 -0.3268 -0.3683
  735MOL0     C99152   4.738   6.264   7.458 -0.8898  0.7215 -0.7594
  735MOL0     C99153   4.804   6.215   7.318 -0.4714 -0.4930 -0.6350
  735MOL0     C99154   4.950   6.225   7.341  0.0279 -0.2284  1.0698
  735MOL0     C99155   5.069   6.231   7.333 -0.2411  0.3149  0.2433
  735MOL0     C99156   4.267   6.464   7.626  0.7554  0.2989 -0.0530
  735MOL0     C99157   4.126   6.492   7.632 -0.5628  0.3596 -0.4575
  735MOL0     H99158   3.643   6.411   7.582  2.6628  0.6377 -0.2769
  735MOL0     H99159   3.415   6.464   7.593  0.6968 -0.0478  0.1647
  735MOL0     H99160   3.299   6.926   7.561  0.5441  0.0948  1.1465
  735MOL0     H99161   3.281   6.817   7.417  0.3165 -2.7397 -0.0484
  735MOL0     H99162   3.061   6.891   7.481 -0.6351 -0.1967  1.2322
  735MOL0     H99163   3.071   6.717   7.526  3.0259 -2.2756 -1.0025
  735MOL0     H99164   3.123   6.788   7.762 -1.9976  0.3751  1.5489
  735MOL0     H99165   3.114   6.966   7.727  1.8472 -0.0196 -0.1482
  735MOL0     H99166   2.889   6.948   7.661  2.6514  0.2512 -1.5329
  735MOL0     H99167   2.878   6.776   7.694  0.2459  0.1053  0.2319
  735MOL0     H99168   2.925   6.788   7.929  0.9576  1.9118  0.5712
  735MOL0     H99169   2.960   6.957   7.926 -1.3974  0.0440 -0.1902
  735MOL0     H99170   2.730   7.007   7.829  0.5503 -0.6185 -1.3543
  735MOL0     H99171   2.698   6.830   7.864 -0.4029  1.6895 -1.9040
  735MOL0     H99172   2.710   6.842   8.095 -2.4729  0.0210 -0.8465
  735MOL0     H99173   2.797   6.999   8.082 -0.3722 -0.2803  1.1334
  735MOL0     H99174   2.494   6.969   8.039 -1.4108  3.4144 -0.1002
  735MOL0     H99175   2.574   7.100   7.997 -2.7217  1.0719  1.2094
  735MOL0     H99176   2.518   6.862   8.298  1.5841 -0.3626 -0.0048
  735MOL0     H99177   2.582   6.866   8.551  3.3733  0.5737 -2.0458
  735MOL0     H99178   2.660   7.014   8.631  0.0586  1.5038  0.1584
  735MOL0     H99179   2.366   6.988   8.601 -1.3239 -2.0988  1.5948
  735MOL0     H99180   2.463   7.095   8.706  1.4769  1.8587 -3.1551
  735MOL0     H99181   2.514   6.927   8.846  0.2261 -2.0728  0.2598
  735MOL0     H99182   2.476   6.793   8.729  3.3105  0.1629  1.1698
  735MOL0     H99183   2.314   6.780   8.905 -1.4697 -0.5925 -0.2051
  735MOL0     H99184   2.247   6.832   8.748 -2.1975  1.5489  0.8697
  735MOL0     H99185   2.062   7.121   9.005 -1.1120 -0.0151  1.2387
  735MOL0     H99186   1.942   7.214   9.157 -2.0220  0.9268  0.9951
  735MOL0     H99187   1.956   7.148   9.329 -1.7359 -2.3929 -2.3387
  735MOL0     H99188   2.024   7.311   9.271 -2.3834  0.5225 -0.0021
  735MOL0     H99189   1.960   7.161   9.575  0.1947 -1.4037 -0.0300
  735MOL0     H99190   1.850   7.249   9.772  1.3270 -0.9635  0.1174
  735MOL0     H99191   2.055   7.298  10.085  2.0980  0.5873 -0.5157
  735MOL0     H99192   2.094   7.471  10.078  0.4743  0.7730 -2.8380
  735MOL0     H99193   1.984   7.444  10.276  3.2194  1.7428 -1.2528
  735MOL0     H99194   1.889   7.539  10.175 -1.0019 -0.8983 -1.2845
  735MOL0     H99195   1.821   7.257  10.234 -2.9610 -1.8946 -0.4613
  735MOL0     H99196   1.737   7.339  10.097 -0.5315 -1.9694  1.6506
  735MOL0     H99197   1.754   7.438  10.377  2.2130  4.0978 -2.1818
  735MOL0     H99198   1.663   7.509  10.237  1.6972  0.1687 -0.1710
  735MOL0     H99199   1.611   7.246  10.384  2.1647  0.3174  1.0827
  735MOL0     H99200   1.526   7.311  10.237 -2.5625 -0.5349  0.9423
  735MOL0     H99201   1.512   7.438  10.508  0.0259 -1.2381  1.4602
  735MOL0     H99202   1.439   7.491  10.347 -2.3162 -2.1761 -0.5374
  735MOL0     H99203   1.373   7.228  10.501 -0.1663 -1.1836 -2.1435
  735MOL0     H99204   1.318   7.286  10.337  1.0237 -1.7043 -0.9344
  735MOL0     H99205   1.226   7.475  10.508  1.4579  0.4091 -0.6303
  735MOL0     H99206   1.293   7.375  10.632  0.5239  1.1370  0.1365
  735MOL0     H99207   2.161   7.506   9.855  0.6343 -1.4308  1.3609
  735MOL0     H99208   2.305   7.412   9.651  0.1056  1.0099  1.4376
  735MOL0     H99209   2.394   6.944   9.331 -0.0707  0.2964  1.4992
  735MOL0     H99210   2.417   6.887   9.077 -0.8325 -0.9739 -0.3181
  735MOL0     H99211   3.502   6.881   7.583  0.1270 -0.5534 -0.4989
  735MOL0     H99212   3.756   6.823   7.627  1.6555 -3.2790  3.1984
  735MOL0     H99213   4.081   6.528   7.295  1.7130 -0.2613  0.1412
  735MOL0     H99214   4.333   6.498   7.300 -0.6519  0.6254 -1.2042
  735MOL0     H99215   4.564   6.323   7.641  0.2761 -2.5326 -2.7613
  735MOL0     H99216   4.418   6.265   7.570  1.7122 -1.3565  4.3347
  735MOL0     H99217   4.566   6.298   7.338  1.1909  0.8825 -0.2097
  735MOL0     H99218   4.560   6.150   7.445 -1.6109 -0.0908  1.2862
  735MOL0     H99219   4.766   6.188   7.532 -2.1945 -1.6737 -2.5764
  735MOL0     H99220   4.766   6.369   7.470 -0.7216  0.7760 -1.6048
  735MOL0     H99221   4.785   6.281   7.233  0.3320  4.3702  2.5514
  735MOL0     H99222   4.776   6.113   7.290  1.0930 -0.6504 -1.7384
  735MOL0     H99223   5.175   6.249   7.334  0.5685 -2.8692 -3.3431
  735MOL0     H99224   4.310   6.443   7.724  0.1046  5.1141  1.5321
  735MOL0     H99225   4.077   6.496   7.728 -0.4605 -1.1448 -0.3231
  736MOL0     O99226   5.662   7.940   8.607  0.0409  1.1478 -0.5394
  736MOL0     C99227   5.631   7.821   8.586 -0.3730  0.0351  0.0210
  736MOL0     O99228   5.725   7.725   8.546  0.3965  0.2820 -0.3208
  736MOL0     C99229   5.860   7.742   8.519 -0.3133 -0.9243  1.2738
  736MOL0     C99230   5.926   7.630   8.471 -0.4545 -0.7436  0.0381
  736MOL0     C99231   6.070   7.639   8.450 -0.1275 -0.7933 -0.1245
  736MOL0     C99232   6.141   7.760   8.465 -0.0521  0.2275 -0.6746
  736MOL0     O99233   6.276   7.765   8.442 -0.1854  0.0114 -0.5890
  736MOL0     C99234   6.363   7.857   8.512 -0.8092 -0.2733 -0.3550
  736MOL0     C99235   6.396   7.981   8.421 -0.5863  0.0699  0.1500
  736MOL0     C99236   6.534   7.992   8.348 -0.2338  0.1761  0.4473
  736MOL0     C99237   6.633   8.069   8.427  0.5114 -0.5281  0.5262
  736MOL0     C99238   6.754   8.119   8.333  0.2816  0.6352  0.6124
  736MOL0     C99239   6.840   7.993   8.283  0.2332 -0.2473  0.0011
  736MOL0     C99240   6.874   7.878   8.378 -0.2299  0.4514 -0.7783
  736MOL0     C99241   6.948   7.934   8.498  0.4336  0.4568  0.4096
  736MOL0     N99242   7.094   7.944   8.465 -0.2916  0.4117  0.0788
  736MOL0     C99243   7.164   8.055   8.401 -0.2284 -0.1492  0.2047
  736MOL0     C99244   7.288   8.006   8.369  0.2850  1.1474  0.5426
  736MOL0     C99245   7.393   8.077   8.287  0.9811  0.7126 -0.7187
  736MOL0     C99246   7.522   8.005   8.297 -0.3842 -0.4752 -1.3481
  736MOL0     C99247   7.634   8.084   8.217  1.1194 -0.2360  0.2156
  736MOL0     C99248   7.781   8.039   8.234  0.0391 -0.5311  1.3165
  736MOL0     O99249   7.801   7.905   8.199 -0.2071 -0.5165 -0.1058
  736MOL0     C99250   7.931   7.859   8.218  0.5339 -0.3681 -0.8470
  736MOL0     C99251   8.018   7.839   8.105 -0.0251 -0.0900  0.3322
  736MOL0     C99252   8.150   7.800   8.132  0.2703  0.2895  0.5885
  736MOL0     C99253   8.252   7.815   8.018 -0.3723 -0.1198 -0.8637
  736MOL0     C99254   8.194   7.767   8.255  0.7598 -0.0652  0.0331
  736MOL0     C99255   8.336   7.727   8.282 -0.3536 -0.5372 -0.6563
  736MOL0     O99256   8.342   7.600   8.312 -0.4433  0.2563 -0.4567
  736MOL0     C99257   8.469   7.544   8.333  0.8353  0.1258 -0.3075
  736MOL0     C99258   8.584   7.582   8.261 -0.0858  0.6085  0.6355
  736MOL0     C99259   8.696   7.501   8.281  0.1053 -0.3771  0.1801
  736MOL0     C99260   8.701   7.413   8.393  0.4953  0.4062 -0.4419
  736MOL0     O99261   8.810   7.331   8.424 -0.0838 -0.2566  0.4808
  736MOL0     C99262   8.883   7.267   8.314  0.7799 -0.1014  0.2287
  736MOL0     C99263   8.974   7.171   8.388  0.6940 -0.9815  0.5101
  736MOL0     C99264   8.919   7.070   8.478 -0.1115 -0.5872 -0.2402
  736MOL0     C99265   9.025   6.972   8.513  0.7942  0.1019 -0.0910
  736MOL0     C99266   8.953   6.866   8.600  0.3783  0.3997  0.7139
  736MOL0     C99267   9.036   6.743   8.639  0.7087 -0.5464  0.3347
  736MOL0     C99268   9.161   6.784   8.722  0.0704  0.5341 -0.1299
  736MOL0     C99269   9.261   6.678   8.686 -0.5728 -0.1495  0.2889
  736MOL0    Cl99270   9.392   6.682   8.805 -0.2584 -0.4000  0.3350
  736MOL0     C99271   8.588   7.387   8.463  0.4912 -0.2500 -0.0808
  736MOL0     C99272   8.468   7.447   8.428 -0.2263  0.3218  0.1148
  736MOL0     O99273   8.423   7.815   8.291  0.0911 -0.8120  0.0712
  736MOL0     C99274   8.101   7.785   8.361 -0.5496  0.0307  0.2049
  736MOL0     C99275   7.976   7.842   8.349 -0.2505 -0.3366  0.4432
  736MOL0     N99276   7.295   7.881   8.428 -0.5166 -0.5663 -0.5403
  736MOL0     N99277   7.185   7.845   8.494  0.5898  0.1153 -0.0408
  736MOL0     C99278   6.073   7.873   8.509 -0.0470  0.1026 -0.5241
  736MOL0     C99279   5.934   7.862   8.534 -0.1377  0.0467  0.8354
  736MOL0     C99280   5.487   7.786   8.615 -0.1931 -0.3146  0.6537
  736MOL0     C99281   5.439   7.654   8.580 -0.0862 -0.2569  0.1355
  736MOL0     C99282   5.306   7.626   8.611 -0.2638  0.9128 -0.3091
  736MOL0     C99283   5.228   7.706   8.695 -0.2574 -0.2080 -0.4708
  736MOL0     O99284   5.103   7.655   8.729 -0.4585 -1.0165  0.5768
  736MOL0     C99285   5.049   7.691   8.856  0.0619  0.5566 -1.0820
  736MOL0     C99286   4.925   7.790   8.838  0.2591  0.3972 -0.8208
  736MOL0     C99287   4.815   7.747   8.734  0.3069 -0.8003  0.7280
  736MOL0     C99288   4.764   7.615   8.726 -0.3437 -0.1425  0.7147
  736MOL0     C99289   4.671   7.576   8.821 -0.3999 -0.3808 -1.1481
  736MOL0     C99290   4.595   7.537   8.909  0.0448 -0.2892  0.0911
  736MOL0     C99291   5.277   7.833   8.737 -0.2652 -0.3012  0.7053
  736MOL0     C99292   5.405   7.875   8.678  0.0037 -0.4531 -0.7787
  736MOL0     H99293   5.861   7.549   8.441 -1.0002  0.5033 -2.4185
  736MOL0     H99294   6.122   7.555   8.407  0.0168  0.6303 -2.9630
  736MOL0     H99295   6.315   7.893   8.604 -0.1352 -0.2879  0.0094
  736MOL0     H99296   6.459   7.811   8.536  0.0817  0.4901 -2.2591
  736MOL0     H99297   6.324   8.009   8.344 -0.0517 -1.9098 -1.1592
  736MOL0     H99298   6.405   8.069   8.485 -1.8542  0.4555 -0.1806
  736MOL0     H99299   6.576   7.905   8.297  1.1894  1.9765 -1.6406
  736MOL0     H99300   6.517   8.060   8.264 -3.9909 -1.2070 -0.0997
  736MOL0     H99301   6.584   8.162   8.457 -0.2803 -0.6587 -0.3312
  736MOL0     H99302   6.681   8.028   8.517  0.5232  1.7630  1.6427
  736MOL0     H99303   6.715   8.186   8.255 -0.4932  2.2337  2.3136
  736MOL0     H99304   6.817   8.190   8.387  0.5728 -1.0383  2.5592
  736MOL0     H99305   6.784   7.962   8.194 -0.7335 -0.8929  0.8094
  736MOL0     H99306   6.938   8.021   8.244 -0.5125  2.2494 -0.2266
  736MOL0     H99307   6.790   7.816   8.411 -2.7466  3.3313 -1.3666
  736MOL0     H99308   6.941   7.811   8.323 -1.8126 -1.0366 -0.9706
  736MOL0     H99309   6.940   7.865   8.582  1.9558  1.5050  1.4667
  736MOL0     H99310   6.907   8.031   8.531 -0.5733  0.6764 -1.3418
  736MOL0     H99311   7.126   8.150   8.364  2.3310  1.4428  1.3578
  736MOL0     H99312   7.355   8.098   8.187 -1.0694 -0.5131 -0.2531
  736MOL0     H99313   7.414   8.167   8.347  0.9732 -0.0437  0.4556
  736MOL0     H99314   7.498   7.909   8.250 -1.6465 -0.7303 -0.2322
  736MOL0     H99315   7.540   7.993   8.404 -0.3536  2.0648 -0.9971
  736MOL0     H99316   7.628   8.190   8.244 -6.1893 -0.5430  1.7862
  736MOL0     H99317   7.607   8.088   8.111  0.2624 -0.3324  0.4174
  736MOL0     H99318   7.825   8.062   8.331 -1.3448  1.8650  1.4291
  736MOL0     H99319   7.849   8.083   8.161  1.7108 -2.0532  1.8726
  736MOL0     H99320   7.982   7.843   8.003  2.5968 -3.1425 -0.8657
  736MOL0     H99321   8.200   7.836   7.924 -1.3050 -3.2119 -1.1644
  736MOL0     H99322   8.310   7.903   8.045  0.4845 -1.2930  1.3875
  736MOL0     H99323   8.310   7.723   8.008  2.2497  1.6329 -3.1695
  736MOL0     H99324   8.585   7.651   8.177  0.4365 -0.9399 -0.6700
  736MOL0     H99325   8.789   7.522   8.228  0.1073  0.8237  0.6207
  736MOL0     H99326   8.808   7.212   8.256 -0.4873  1.7330  0.0286
  736MOL0     H99327   8.929   7.340   8.247  0.8735 -1.1482 -0.8854
  736MOL0     H99328   9.035   7.134   8.306 -0.4622  0.5300 -1.1092
  736MOL0     H99329   9.049   7.237   8.432  0.9051  2.1671 -3.9410
  736MOL0     H99330   8.830   7.026   8.432 -0.0681 -1.2314  0.2766
  736MOL0     H99331   8.872   7.110   8.568 -2.1402  0.5426 -1.7381
  736MOL0     H99332   9.080   6.925   8.431  2.3151 -1.7865  1.8663
  736MOL0     H99333   9.103   7.023   8.570 -1.5484  1.4042  2.1743
  736MOL0     H99334   8.872   6.825   8.538  3.4564 -2.3641 -1.8977
  736MOL0     H99335   8.919   6.909   8.694 -0.7989  1.1073 -0.0091
  736MOL0     H99336   8.981   6.661   8.686 -1.6994  1.2149  0.7692
  736MOL0     H99337   9.069   6.697   8.545 -0.5169 -1.3557  0.2772
  736MOL0     H99338   9.126   6.761   8.823  0.0617 -1.8798 -0.6220
  736MOL0     H99339   9.195   6.887   8.707 -1.0089  0.8967 -0.1898
  736MOL0     H99340   9.298   6.701   8.586 -1.3751  0.1384  0.0512
  736MOL0     H99341   9.213   6.580   8.682 -3.6467  1.2470 -0.0629
  736MOL0     H99342   8.581   7.316   8.544 -3.2468 -1.0340 -0.9109
  736MOL0     H99343   8.382   7.410   8.483 -0.3474  2.2149  1.2879
  736MOL0     H99344   8.135   7.752   8.459  0.4046 -1.6177 -0.6399
  736MOL0     H99345   7.918   7.866   8.437 -1.2960  0.2001 -0.3677
  736MOL0     H99346   6.117   7.970   8.531  0.1233 -0.0427 -0.2058
  736MOL0     H99347   5.896   7.956   8.573 -0.3519 -0.9568  3.1808
  736MOL0     H99348   5.509   7.585   8.535  0.6205  1.5242 -1.6595
  736MOL0     H99349   5.267   7.527   8.589 -1.7898  1.6550 -1.1322
  736MOL0     H99350   5.012   7.601   8.906 -0.0395 -0.2599 -2.5588
  736MOL0     H99351   5.115   7.746   8.923  2.6404  0.4383 -3.3527
  736MOL0     H99352   4.963   7.892   8.833  2.2226 -0.2206  0.4863
  736MOL0     H99353   4.868   7.797   8.932  0.0157  1.1314 -1.0186
  736MOL0     H99354   4.867   7.758   8.638  0.3903 -1.1915  0.7248
  736MOL0     H99355   4.737   7.823   8.742  2.9136  1.8938  3.7475
  736MOL0     H99356   4.843   7.541   8.742 -1.0761 -1.2175 -0.5165
  736MOL0     H99357   4.706   7.616   8.634 -3.6181  2.1877  2.5769
  736MOL0     H99358   4.532   7.495   8.984 -0.6688 -2.1839 -1.4729
  736MOL0     H99359   5.216   7.903   8.794  0.4230  1.7647 -0.9586
  736MOL0     H99360   5.439   7.977   8.695  0.5140 -1.0152  2.0075
  737MOL0     O99361   1.939   6.717   8.717 -0.1237 -0.2035  0.2935
  737MOL0     C99362   1.844   6.745   8.791  0.3246  0.2172 -0.0289
  737MOL0     O99363   1.714   6.768   8.750  1.0298  0.5053 -0.6093
  737MOL0     C99364   1.670   6.773   8.618 -0.9978 -0.2042 -0.0660
  737MOL0     C99365   1.571   6.870   8.587 -0.1438 -0.6655 -0.6082
  737MOL0     C99366   1.519   6.889   8.456  0.8964  0.3347  0.1665
  737MOL0     C99367   1.555   6.794   8.357  0.3732  0.0532 -0.4996
  737MOL0     O99368   1.496   6.807   8.232  0.2997 -0.4918  0.0489
  737MOL0     C99369   1.548   6.715   8.124  0.0950  0.1237  0.6540
  737MOL0     C99370   1.473   6.730   7.994  0.3296  0.1949  0.5292
  737MOL0     C99371   1.505   6.869   7.933 -0.3905 -0.1715  1.1627
  737MOL0     C99372   1.443   6.997   7.998 -0.0848 -0.3118 -0.6309
  737MOL0     C99373   1.457   7.125   7.920  0.2397  0.7074  0.4677
  737MOL0     C99374   1.397   7.232   8.008 -0.0173  1.1399 -0.0400
  737MOL0     C99375   1.366   7.362   7.943 -0.1145  0.6155  0.6849
  737MOL0     C99376   1.256   7.451   8.009 -0.1775  0.9397 -0.2828
  737MOL0     N99377   1.196   7.555   7.930 -0.8599  0.0007  0.4727
  737MOL0     C99378   1.058   7.556   7.902  0.3356 -0.2371 -0.4956
  737MOL0     C99379   1.026   7.686   7.885  0.0651 -0.4085  0.6714
  737MOL0     C99380   0.892   7.751   7.847  1.5803  1.1641  0.4393
  737MOL0     C99381   0.884   7.890   7.848  0.2665  0.3896  0.0897
  737MOL0     C99382   0.740   7.947   7.821 -0.0171  0.6477 -0.0878
  737MOL0     C99383   0.740   8.102   7.843 -0.4954  0.0177  1.1193
  737MOL0     O99384   0.615   8.154   7.795 -0.1877 -0.0729 -0.7054
  737MOL0     C99385   0.504   8.143   7.874  0.4158  0.2478 -0.6629
  737MOL0     C99386   0.506   8.096   8.002  1.0590 -0.8186 -1.1380
  737MOL0     C99387   0.383   8.102   8.082 -0.5770 -0.1777  0.0427
  737MOL0     C99388   0.401   8.060   8.227  0.1541 -0.7988 -0.9234
  737MOL0     C99389   0.260   8.134   8.023  0.3004 -1.0688  0.6371
  737MOL0     C99390   0.130   8.153   8.097 -0.1451 -0.4750 -0.6824
  737MOL0     O99391   0.133   8.123   8.227  0.6796 -0.0364  0.5271
  737MOL0     C99392   0.017   8.117   8.292 -0.0652 -0.3089  0.9805
  737MOL0     C99393  -0.058   8.221   8.350 -0.1925  0.4651  0.1660
  737MOL0     C99394  -0.186   8.192   8.406  0.2039 -0.5041 -0.5420
  737MOL0     C99395  -0.235   8.069   8.415 -0.1335 -0.4826  0.2193
  737MOL0     O99396  -0.344   8.054   8.500  0.5596  0.1812 -0.3243
  737MOL0     C99397  -0.428   7.938   8.496  0.9903 -1.3865  0.7208
  737MOL0     C99398  -0.541   7.974   8.591  1.1101  0.4689 -0.0831
  737MOL0     C99399  -0.653   7.866   8.598  1.0774 -0.5162  0.5848
  737MOL0     C99400  -0.790   7.938   8.610 -0.1098 -0.6201 -0.6382
  737MOL0     C99401  -0.909   7.856   8.671  0.3200  0.0845 -0.0309
  737MOL0     C99402  -0.942   7.742   8.568 -0.2156 -0.5617  0.0103
  737MOL0     C99403  -1.069   7.682   8.620  0.2864 -0.6514 -0.3007
  737MOL0     C99404  -1.108   7.551   8.546  0.3097 -0.0356  0.7545
  737MOL0    Cl99405  -1.235   7.457   8.640 -0.0514  0.3901 -0.0449
  737MOL0     C99406  -0.164   7.969   8.357  0.2881  0.9271  0.2809
  737MOL0     C99407  -0.047   7.987   8.289  0.1232  0.8639  0.5130
  737MOL0     O99408   0.025   8.187   8.040  0.1714  0.1965  0.8973
  737MOL0     C99409   0.263   8.161   7.885 -0.1976  0.1098 -0.4760
  737MOL0     C99410   0.382   8.166   7.811  0.1011 -0.1716 -0.3236
  737MOL0     N99411   1.142   7.763   7.893 -0.3037  0.5354 -0.1741
  737MOL0     N99412   1.240   7.681   7.932  0.6115 -0.3951  0.3263
  737MOL0     C99413   1.641   6.694   8.389 -0.0861  0.5009 -0.5991
  737MOL0     C99414   1.703   6.689   8.520 -0.2819  0.3078 -0.5783
  737MOL0     C99415   1.873   6.772   8.930  0.4331  0.9338 -0.3095
  737MOL0     C99416   1.767   6.833   9.009 -0.0053  0.4060  0.4732
  737MOL0     C99417   1.790   6.864   9.146  0.1661 -0.0511  0.5613
  737MOL0     C99418   1.911   6.843   9.206  0.5219 -0.3704 -0.3043
  737MOL0     O99419   1.934   6.875   9.342  0.3160 -0.5035  0.3344
  737MOL0     C99420   1.823   6.867   9.432 -0.9765  0.8577 -0.2658
  737MOL0     C99421   1.765   6.724   9.433  0.1321  0.4232  0.1811
  737MOL0     C99422   1.690   6.713   9.565  0.3053  0.1113  0.5017
  737MOL0     C99423   1.534   6.741   9.552 -0.9000  0.2084  0.3146
  737MOL0     C99424   1.456   6.707   9.678 -0.0501 -0.3856 -0.1954
  737MOL0     C99425   1.394   6.674   9.776  0.1863 -0.6348 -1.0906
  737MOL0     C99426   2.014   6.796   9.125  0.3755 -1.1921 -0.2717
  737MOL0     C99427   1.995   6.750   8.990  0.1389  0.0798  0.0777
  737MOL0     H99428   1.530   6.931   8.666 -0.1027 -1.7832  0.3039
  737MOL0     H99429   1.468   6.981   8.431  1.3329  0.6024  0.2542
  737MOL0     H99430   1.651   6.740   8.097  0.1075 -2.5516 -2.4095
  737MOL0     H99431   1.541   6.610   8.154  0.1449 -0.1977 -0.4118
  737MOL0     H99432   1.507   6.660   7.918 -1.0335 -0.5702  0.5753
  737MOL0     H99433   1.367   6.707   8.008  0.5245 -1.3295 -0.3825
  737MOL0     H99434   1.610   6.891   7.911 -0.8578 -1.1440 -2.8804
  737MOL0     H99435   1.444   6.867   7.842 -2.2106  0.6688  2.3138
  737MOL0     H99436   1.338   6.983   8.026  0.2757  1.8400  2.3910
  737MOL0     H99437   1.513   7.011   8.082  0.4765  0.7558 -1.2566
  737MOL0     H99438   1.564   7.139   7.905  1.3375 -2.3577  3.9418
  737MOL0     H99439   1.392   7.105   7.834 -1.4378 -1.4714  2.1172
  737MOL0     H99440   1.300   7.184   8.028  1.1338 -1.1750  0.3516
  737MOL0     H99441   1.453   7.251   8.100 -0.1688  0.5183  0.1812
  737MOL0     H99442   1.456   7.423   7.929  1.6325 -1.9540 -0.2334
  737MOL0     H99443   1.333   7.323   7.847 -0.0023  2.9789 -0.3737
  737MOL0     H99444   1.310   7.490   8.096 -0.9003 -0.2984  0.7557
  737MOL0     H99445   1.180   7.381   8.045  0.5296 -0.1133 -0.8085
  737MOL0     H99446   1.002   7.462   7.900  0.1388 -0.1198 -0.5879
  737MOL0     H99447   0.862   7.718   7.747  0.4217 -1.7166  1.6082
  737MOL0     H99448   0.823   7.697   7.912  1.6640 -0.5522 -0.8217
  737MOL0     H99449   0.957   7.917   7.770  3.1803 -3.1001  1.3438
  737MOL0     H99450   0.923   7.919   7.946  2.3439  2.4531 -1.2119
  737MOL0     H99451   0.677   7.886   7.886  1.2077 -2.7032 -1.8291
  737MOL0     H99452   0.704   7.926   7.721 -2.3919 -2.1673  1.2187
  737MOL0     H99453   0.824   8.145   7.788 -0.8108  1.4492  1.7055
  737MOL0     H99454   0.765   8.130   7.945 -2.8166  0.4827  1.6288
  737MOL0     H99455   0.595   8.049   8.041  2.0645  0.9911 -1.1708
  737MOL0     H99456   0.394   8.138   8.304  1.0173 -2.4437  0.9154
  737MOL0     H99457   0.342   7.968   8.235  0.0042 -0.6201  0.2039
  737MOL0     H99458   0.507   8.035   8.240  0.0981 -0.7310 -0.3075
  737MOL0     H99459  -0.028   8.324   8.336  0.8854  0.0654 -0.6563
  737MOL0     H99460  -0.241   8.271   8.457  5.0868  3.4289 -0.6110
  737MOL0     H99461  -0.471   7.919   8.396 -0.5005  3.5813  0.1623
  737MOL0     H99462  -0.387   7.843   8.532 -0.5914 -2.2815  0.3138
  737MOL0     H99463  -0.499   7.982   8.691  0.6330 -0.5100  0.2052
  737MOL0     H99464  -0.584   8.067   8.552  1.7459 -1.5230 -6.8927
  737MOL0     H99465  -0.636   7.812   8.692  0.3930  1.0809  1.6785
  737MOL0     H99466  -0.662   7.797   8.514 -0.9838  1.7652 -1.2066
  737MOL0     H99467  -0.769   8.021   8.679  0.6541 -1.7395  0.5227
  737MOL0     H99468  -0.827   7.980   8.516 -3.1610  0.7476  1.0143
  737MOL0     H99469  -1.003   7.912   8.666  0.6517  0.5925 -0.6859
  737MOL0     H99470  -0.880   7.823   8.771 -4.2734 -0.0250  1.5179
  737MOL0     H99471  -0.957   7.799   8.476 -1.6176  2.2401  1.8284
  737MOL0     H99472  -0.857   7.674   8.554 -0.1676 -0.2414 -1.4198
  737MOL0     H99473  -1.153   7.753   8.617 -2.3128 -3.5447 -1.4628
  737MOL0     H99474  -1.061   7.652   8.725 -2.7973 -1.3739 -0.1856
  737MOL0     H99475  -1.018   7.491   8.532 -0.0880 -0.5503  0.3543
  737MOL0     H99476  -1.158   7.563   8.450 -0.7401 -2.0511  0.9830
  737MOL0     H99477  -0.184   7.862   8.359  2.1612  0.5388  1.5250
  737MOL0     H99478   0.001   7.904   8.239 -1.7166 -0.8419  1.4234
  737MOL0     H99479   0.171   8.185   7.834 -0.2850  0.3480 -0.2106
  737MOL0     H99480   0.374   8.189   7.705  0.9475  2.1839  0.0737
  737MOL0     H99481   1.665   6.608   8.327 -0.2341  0.1885 -0.2322
  737MOL0     H99482   1.772   6.608   8.538  0.0717  1.0070  1.5738
  737MOL0     H99483   1.667   6.851   8.969  2.0134  1.8188 -4.7885
  737MOL0     H99484   1.700   6.899   9.195 -2.4500 -0.6240 -3.3741
  737MOL0     H99485   1.868   6.898   9.527 -0.3533 -0.6930 -0.0309
  737MOL0     H99486   1.749   6.945   9.413 -2.2344  0.3159  1.9670
  737MOL0     H99487   1.839   6.643   9.435 -0.0843  0.2353  0.7137
  737MOL0     H99488   1.701   6.715   9.344  0.2303  0.4966  0.1023
  737MOL0     H99489   1.729   6.784   9.638  2.0813 -1.1688  0.8680
  737MOL0     H99490   1.704   6.610   9.598  0.6449  0.1685  0.5382
  737MOL0     H99491   1.481   6.684   9.475  0.3215 -0.3320 -0.1498
  737MOL0     H99492   1.526   6.849   9.542 -1.0247  0.1037 -0.7687
  737MOL0     H99493   1.348   6.642   9.867 -0.6153  0.4162 -1.1094
  737MOL0     H99494   2.111   6.785   9.171  0.7013  0.3800 -0.5212
  737MOL0     H99495   2.077   6.710   8.931 -0.5193  3.9026 -3.9823
  738MOL0     O99496   9.681  10.906   2.601  0.0822 -0.1440 -0.3645
  738MOL0     C99497   9.598  10.945   2.677 -0.5873  0.3283  0.3515
  738MOL0     O99498   9.615  11.058   2.755  0.3453 -0.0738  0.1150
  738MOL0     C99499   9.742  11.103   2.755 -0.3582 -1.3285  0.0172
  738MOL0     C99500   9.788  11.190   2.659  0.1311  0.0271 -0.6316
  738MOL0     C99501   9.918  11.227   2.663  0.3823  0.1827 -0.9421
  738MOL0     C99502   9.996  11.215   2.775 -0.6655 -0.7222  0.2434
  738MOL0     O99503  10.119  11.271   2.793 -0.1978 -0.0409 -0.1317
  738MOL0     C99504  10.128  11.409   2.755 -0.7306 -0.5792  0.0232
  738MOL0     C99505  10.248  11.485   2.806  0.8133 -0.4323  0.7552
  738MOL0     C99506  10.250  11.633   2.762 -0.7567 -0.3057  1.0498
  738MOL0     C99507  10.329  11.663   2.634 -0.2076  0.6303 -0.0770
  738MOL0     C99508  10.305  11.802   2.588 -0.8293 -0.2337  0.4606
  738MOL0     C99509  10.358  11.817   2.441 -0.0909  0.0380 -0.0264
  738MOL0     C99510  10.440  11.945   2.423 -0.1862  0.0663 -0.2095
  738MOL0     C99511  10.419  11.991   2.269 -0.2796 -0.0747  0.7662
  738MOL0     N99512  10.512  12.094   2.222  0.7457  0.5490 -0.1100
  738MOL0     C99513  10.557  12.203   2.282 -0.5262  0.0354  0.2021
  738MOL0     C99514  10.665  12.240   2.217 -0.1096  0.2494 -0.6240
  738MOL0     C99515  10.751  12.354   2.259 -0.5767 -0.2210  0.0367
  738MOL0     C99516  10.864  12.308   2.348  0.3712  0.8369  0.5289
  738MOL0     C99517  10.806  12.287   2.485  0.4607  1.1241  0.1014
  738MOL0     C99518  10.903  12.247   2.590 -0.5972  0.6842 -0.3061
  738MOL0     O99519  10.959  12.109   2.595  0.2369  0.1892 -0.0105
  738MOL0     C99520  10.883  12.011   2.657  0.2852  0.6454  0.7421
  738MOL0     C99521  10.758  12.021   2.725 -0.8261  0.6845  0.5592
  738MOL0     C99522  10.702  11.907   2.778  0.3407  0.2603  0.0505
  738MOL0     C99523  10.575  11.936   2.857 -0.5252  0.3854 -0.5268
  738MOL0     C99524  10.760  11.780   2.751 -0.5415 -0.1281 -0.5276
  738MOL0     C99525  10.709  11.648   2.802 -0.2004 -0.9817  1.0010
  738MOL0     O99526  10.783  11.538   2.787  0.2263  0.3102 -0.4345
  738MOL0     C99527  10.751  11.415   2.843 -0.0482 -0.1970 -0.0599
  738MOL0     C99528  10.640  11.342   2.802 -0.8081 -1.4791 -0.6458
  738MOL0     C99529  10.619  11.218   2.855  0.3195 -0.4129 -0.2237
  738MOL0     C99530  10.709  11.164   2.952 -0.0840  0.2435 -0.0047
  738MOL0     O99531  10.690  11.032   2.989 -0.4105  0.5545 -0.0443
  738MOL0     C99532  10.698  11.020   3.136 -0.7700  0.5714  0.0563
  738MOL0     C99533  10.735  10.875   3.183 -0.2102  0.4678  0.1061
  738MOL0     C99534  10.859  10.807   3.118 -0.2298  0.0139  0.8251
  738MOL0     C99535  10.990  10.886   3.147  0.3172 -0.0632 -0.5604
  738MOL0     C99536  11.131  10.813   3.128  0.9679 -1.3260  0.8219
  738MOL0     C99537  11.127  10.733   2.992 -0.5255 -0.1131 -0.1573
  738MOL0     C99538  11.269  10.699   2.950  0.0905 -0.5269  0.4639
  738MOL0     C99539  11.344  10.612   3.058 -0.5759  0.7339 -0.6714
  738MOL0    Cl99540  11.252  10.479   3.128 -0.4242 -0.0813  0.1084
  738MOL0     C99541  10.824  11.235   2.983  0.1599  0.1145 -0.9327
  738MOL0     C99542  10.838  11.357   2.936 -0.7965 -0.1037  0.5370
  738MOL0     O99543  10.603  11.652   2.854  0.5020  0.5443  0.1225
  738MOL0     C99544  10.877  11.764   2.681 -0.3829  0.1781  0.6906
  738MOL0     C99545  10.943  11.880   2.642  0.6375 -0.1991 -0.8433
  738MOL0     N99546  10.700  12.150   2.114 -0.3533 -0.2527 -0.7556
  738MOL0     N99547  10.616  12.055   2.133 -0.1123 -0.2481 -0.3092
  738MOL0     C99548   9.952  11.121   2.872 -0.3917  0.0832 -0.7989
  738MOL0     C99549   9.836  11.053   2.854  0.3315  0.1258  0.0751
  738MOL0     C99550   9.467  10.879   2.685  0.3146  0.1293 -0.0850
  738MOL0     C99551   9.356  10.924   2.750  0.4803  0.0239 -0.5538
  738MOL0     C99552   9.236  10.854   2.767 -0.0727 -0.3817 -0.3843
  738MOL0     C99553   9.208  10.747   2.675  0.3496  0.3880 -0.3905
  738MOL0     O99554   9.085  10.693   2.651 -0.2538 -0.3786  0.0749
  738MOL0     C99555   8.967  10.754   2.703  0.1797  0.7784  0.0521
  738MOL0     C99556   8.845  10.699   2.626 -0.0953  0.3631 -0.4345
  738MOL0     C99557   8.843  10.762   2.489  0.1307  0.0727 -0.2556
  738MOL0     C99558   8.841  10.909   2.475  0.3542 -0.3707  0.4840
  738MOL0     C99559   8.960  10.971   2.421 -0.2348  0.4584  1.1140
  738MOL0     C99560   9.067  11.013   2.391 -0.4034 -0.9534  0.1457
  738MOL0     C99561   9.310  10.707   2.582 -0.0015 -0.3935 -1.0043
  738MOL0     C99562   9.435  10.769   2.596 -0.6044  0.0577  0.1109
  738MOL0     H99563   9.733  11.208   2.567 -1.4906 -1.5029 -0.0118
  738MOL0     H99564   9.956  11.304   2.596  2.0498  3.4588  3.2693
  738MOL0     H99565  10.128  11.410   2.646 -1.2331 -1.4496  0.0067
  738MOL0     H99566  10.041  11.462   2.795  1.0548  0.5460  2.7285
  738MOL0     H99567  10.265  11.460   2.911  1.0406 -3.4292  0.1076
  738MOL0     H99568  10.334  11.439   2.756  0.6656  0.6399 -0.5353
  738MOL0     H99569  10.145  11.663   2.753 -0.8865  0.4165  3.8074
  738MOL0     H99570  10.294  11.695   2.841 -1.6932  2.0626 -0.1757
  738MOL0     H99571  10.432  11.646   2.668 -0.8838  2.5786  3.3897
  738MOL0     H99572  10.303  11.593   2.554  0.9761  0.2473 -0.1530
  738MOL0     H99573  10.196  11.813   2.590 -0.9063 -0.6400 -0.5037
  738MOL0     H99574  10.342  11.872   2.663 -1.0812 -0.7777  1.1008
  738MOL0     H99575  10.415  11.728   2.414  0.0573  0.3804 -0.8551
  738MOL0     H99576  10.268  11.822   2.378 -1.2303  0.5431  1.5699
  738MOL0     H99577  10.394  12.026   2.481 -3.4288 -0.6065 -1.6171
  738MOL0     H99578  10.545  11.921   2.439  0.3044  1.7209 -0.7647
  738MOL0     H99579  10.316  12.028   2.273 -3.1881 -6.6852 -0.3911
  738MOL0     H99580  10.426  11.907   2.198  0.6085  0.3761  0.2969
  738MOL0     H99581  10.528  12.255   2.372 -1.0019 -0.9263  0.6182
  738MOL0     H99582  10.787  12.394   2.164 -1.7961  0.3899 -0.1895
  738MOL0     H99583  10.694  12.440   2.296  1.1910  0.9656  0.1219
  738MOL0     H99584  10.935  12.391   2.351  0.5502  0.7665 -0.9820
  738MOL0     H99585  10.910  12.219   2.304  0.8666 -0.5969  3.7038
  738MOL0     H99586  10.721  12.218   2.478 -0.1093  1.8702 -0.5822
  738MOL0     H99587  10.761  12.383   2.513 -0.4174  0.5913  0.5699
  738MOL0     H99588  10.861  12.269   2.689  0.5434 -1.2499  0.6663
  738MOL0     H99589  10.991  12.312   2.581 -0.2805  0.0715 -1.7842
  738MOL0     H99590  10.702  12.112   2.744 -2.9661  0.2240 -2.7586
  738MOL0     H99591  10.594  11.944   2.964  0.6467  0.9900 -0.7674
  738MOL0     H99592  10.525  12.026   2.821 -2.3220  0.3516  1.6231
  738MOL0     H99593  10.493  11.867   2.834 -1.6200  1.6334 -0.4659
  738MOL0     H99594  10.577  11.389   2.727  0.2758  0.7457 -0.2185
  738MOL0     H99595  10.537  11.161   2.813 -2.1584  1.6412  1.4772
  738MOL0     H99596  10.755  11.104   3.177  2.0650 -1.6607  1.0272
  738MOL0     H99597  10.602  11.048   3.180 -0.5877 -3.0100  3.2125
  738MOL0     H99598  10.750  10.866   3.291  0.1351  1.0073  0.1068
  738MOL0     H99599  10.652  10.814   3.146  2.2952 -1.7655 -2.2304
  738MOL0     H99600  10.841  10.788   3.011  0.4084  1.3721  0.4604
  738MOL0     H99601  10.858  10.711   3.171  0.0431 -1.4194 -1.6095
  738MOL0     H99602  10.994  10.978   3.088  0.8156 -0.6847 -1.5209
  738MOL0     H99603  10.988  10.914   3.252 -1.0476 -3.0008  0.2915
  738MOL0     H99604  11.154  10.760   3.221  0.6748 -0.9981  1.0815
  738MOL0     H99605  11.201  10.897   3.122  0.7141 -1.1898 -0.4864
  738MOL0     H99606  11.075  10.637   2.992  1.0801 -1.0268 -1.2274
  738MOL0     H99607  11.072  10.793   2.919 -0.9564 -0.7123 -0.3229
  738MOL0     H99608  11.321  10.790   2.920 -1.2171 -0.2869 -1.1962
  738MOL0     H99609  11.262  10.648   2.854 -0.9318 -0.0180  0.2553
  738MOL0     H99610  11.394  10.669   3.137 -0.9926  1.3706 -0.8653
  738MOL0     H99611  11.421  10.551   3.010 -3.4230 -0.5182 -4.0367
  738MOL0     H99612  10.911  11.201   3.038 -0.6426  0.7674  0.8160
  738MOL0     H99613  10.926  11.415   2.963 -2.7003  2.1280  2.4848
  738MOL0     H99614  10.919  11.665   2.660  0.2906  0.3538  1.1792
  738MOL0     H99615  11.040  11.872   2.593  0.8685 -2.4290 -0.1080
  738MOL0     H99616  10.010  11.095   2.961  1.2906  0.8098 -1.6368
  738MOL0     H99617   9.803  10.972   2.918  1.7944 -0.9216 -0.4407
  738MOL0     H99618   9.368  11.010   2.815  3.4230 -0.3883 -0.4254
  738MOL0     H99619   9.156  10.893   2.828 -0.0063 -0.1932 -0.4188
  738MOL0     H99620   8.957  10.726   2.808 -2.2943 -0.1179 -0.3846
  738MOL0     H99621   8.966  10.864   2.708  1.2329  0.7734  1.0788
  738MOL0     H99622   8.751  10.729   2.674  0.4331 -0.3618  1.1179
  738MOL0     H99623   8.848  10.590   2.616 -0.9662  0.3705 -0.8484
  738MOL0     H99624   8.757  10.712   2.445  0.2081  1.3153 -1.8876
  738MOL0     H99625   8.928  10.722   2.433  1.1347 -0.5844  1.6343
  738MOL0     H99626   8.805  10.965   2.562 -0.2150 -0.8539  0.5677
  738MOL0     H99627   8.764  10.931   2.402  1.2247  0.9610 -0.0677
  738MOL0     H99628   9.171  11.041   2.386  0.4118 -3.4004  1.7738
  738MOL0     H99629   9.300  10.626   2.510 -1.0862 -1.5137  0.3297
  738MOL0     H99630   9.514  10.741   2.526  0.5853 -2.1090  2.1479
  739MOL0     O99631   9.219   4.195   7.878  0.3343 -0.2457 -0.1751
  739MOL0     C99632   9.228   4.198   7.757  0.3972 -0.0825  0.1645
  739MOL0     O99633   9.128   4.196   7.667  0.2130  0.3178  0.7133
  739MOL0     C99634   8.996   4.215   7.703  0.9916 -0.1306  0.7579
  739MOL0     C99635   8.950   4.316   7.785 -1.1833  0.4139  0.3038
  739MOL0     C99636   8.818   4.342   7.801  0.3280 -0.1207 -0.2669
  739MOL0     C99637   8.716   4.272   7.733 -0.9935  1.7916 -0.2043
  739MOL0     O99638   8.586   4.304   7.740  0.2696  0.2717  0.3709
  739MOL0     C99639   8.525   4.358   7.860  0.1624 -0.2242  1.0650
  739MOL0     C99640   8.375   4.337   7.856 -0.6040 -0.2211  1.2672
  739MOL0     C99641   8.326   4.190   7.870 -1.2318 -0.0824  0.3973
  739MOL0     C99642   8.187   4.175   7.813 -0.0402  0.1403  0.6689
  739MOL0     C99643   8.145   4.022   7.803  0.4639  0.2034  0.3933
  739MOL0     C99644   8.008   4.018   7.744  0.0840  0.3152 -1.2034
  739MOL0     C99645   7.979   3.874   7.683  0.7731 -0.2873  0.4112
  739MOL0     C99646   7.837   3.821   7.683  0.2464  0.1656  0.2896
  739MOL0     N99647   7.758   3.928   7.615  0.0463  0.8217 -0.4916
  739MOL0     C99648   7.697   4.027   7.683 -0.3297 -0.7919  0.7346
  739MOL0     C99649   7.604   4.080   7.598 -0.2153 -0.1555  0.6815
  739MOL0     C99650   7.506   4.187   7.623 -0.8365  0.0261 -0.4188
  739MOL0     C99651   7.512   4.266   7.757  0.1132 -1.2626 -0.8505
  739MOL0     C99652   7.374   4.337   7.788 -0.3422  0.3467 -0.8095
  739MOL0     C99653   7.381   4.415   7.918 -0.1689  0.1869  0.7125
  739MOL0     O99654   7.252   4.469   7.952  0.3199  0.4971  0.4936
  739MOL0     C99655   7.181   4.368   8.016  0.7860 -0.3685  0.6314
  739MOL0     C99656   7.206   4.339   8.154  1.7995 -0.5233  0.2166
  739MOL0     C99657   7.135   4.240   8.222  0.3382 -0.7842 -0.0928
  739MOL0     C99658   7.176   4.212   8.367 -0.0920  0.2359  0.7141
  739MOL0     C99659   7.023   4.181   8.160 -0.5583  0.4232 -0.1124
  739MOL0     C99660   6.931   4.079   8.223  0.5609 -0.4214  0.6601
  739MOL0     O99661   6.801   4.063   8.170  1.0537 -0.3046  0.7646
  739MOL0     C99662   6.721   3.970   8.246  0.0039  0.1670  0.8606
  739MOL0     C99663   6.634   3.891   8.168 -0.4550 -0.4952 -0.3783
  739MOL0     C99664   6.531   3.822   8.233 -0.1914 -0.7257 -0.0201
  739MOL0     C99665   6.525   3.828   8.373  0.3286 -0.4086 -0.0489
  739MOL0     O99666   6.427   3.756   8.427  0.2665  0.0888 -0.1799
  739MOL0     C99667   6.462   3.622   8.467  0.4164 -0.9211 -0.1135
  739MOL0     C99668   6.362   3.528   8.405  0.1026 -0.1668 -0.1642
  739MOL0     C99669   6.227   3.554   8.472 -0.2935  0.7015 -0.1136
  739MOL0     C99670   6.119   3.459   8.420  0.4092 -0.2066  0.2338
  739MOL0     C99671   6.043   3.500   8.283  0.5104 -0.3916  0.1080
  739MOL0     C99672   5.895   3.480   8.286  0.0671  0.2902 -0.1483
  739MOL0     C99673   5.805   3.601   8.312  0.4098 -0.1081  1.0295
  739MOL0     C99674   5.833   3.665   8.452 -0.0944  0.8682  0.1720
  739MOL0    Cl99675   5.965   3.779   8.454  0.2694 -0.4519  0.1253
  739MOL0     C99676   6.606   3.913   8.447  0.0531 -0.2070  0.5278
  739MOL0     C99677   6.703   3.979   8.379 -0.6707 -0.4076 -0.0130
  739MOL0     O99678   6.979   4.015   8.320  0.1835 -0.2483  0.2493
  739MOL0     C99679   6.986   4.219   8.028 -0.3055  0.1377 -0.4679
  739MOL0     C99680   7.071   4.306   7.958 -0.5677  0.6303  0.2317
  739MOL0     N99681   7.608   4.007   7.484 -0.1443 -0.2746  0.2494
  739MOL0     N99682   7.703   3.917   7.497 -0.0232 -0.0927  0.5701
  739MOL0     C99683   8.763   4.177   7.644  0.2664 -0.3283  1.1506
  739MOL0     C99684   8.896   4.142   7.637 -0.1556 -0.4666 -0.1426
  739MOL0     C99685   9.362   4.197   7.707 -0.5032 -0.0868 -0.3076
  739MOL0     C99686   9.392   4.228   7.572  0.2200  0.1777  0.0649
  739MOL0     C99687   9.518   4.234   7.521  0.3401 -0.5529 -0.4691
  739MOL0     C99688   9.630   4.225   7.602  0.4102  0.3847  0.8725
  739MOL0     O99689   9.757   4.240   7.550 -0.1782 -0.1263  0.3050
  739MOL0     C99690   9.870   4.239   7.645  0.4189 -0.2431  0.4119
  739MOL0     C99691  10.004   4.265   7.582 -0.3531  0.0558 -0.0718
  739MOL0     C99692  10.118   4.218   7.677  0.5994  0.0212 -1.1612
  739MOL0     C99693  10.258   4.200   7.616  0.0284 -0.7290 -0.1124
  739MOL0     C99694  10.254   4.082   7.532 -0.0597 -0.0382 -0.3823
  739MOL0     C99695  10.258   3.978   7.476  0.3231  0.2231  0.8699
  739MOL0     C99696   9.608   4.180   7.737  0.0552  0.1704 -0.1651
  739MOL0     C99697   9.477   4.170   7.789 -0.1946 -0.0590 -0.2850
  739MOL0     H99698   9.033   4.373   7.825  1.1410 -2.8923  0.6004
  739MOL0     H99699   8.778   4.422   7.863  0.1037 -0.5503  0.1491
  739MOL0     H99700   8.558   4.311   7.952  0.7183 -2.2444 -0.1087
  739MOL0     H99701   8.553   4.463   7.870  1.3783 -0.4976  0.7015
  739MOL0     H99702   8.333   4.399   7.935  1.8133  2.1558  0.8473
  739MOL0     H99703   8.335   4.377   7.762 -0.5043 -0.4331  1.1315
  739MOL0     H99704   8.408   4.136   7.821 -2.6200 -0.1348 -2.0483
  739MOL0     H99705   8.321   4.166   7.976  1.7297 -0.7838  0.4933
  739MOL0     H99706   8.126   4.236   7.880 -1.7058 -1.9045  1.1217
  739MOL0     H99707   8.191   4.217   7.712  2.6524 -0.4604  0.4318
  739MOL0     H99708   8.217   3.971   7.738  1.3359  1.9038 -0.0316
  739MOL0     H99709   8.135   3.970   7.899 -1.3526 -3.6739 -1.6554
  739MOL0     H99710   7.937   4.043   7.824 -2.8585 -1.5728 -3.0577
  739MOL0     H99711   8.004   4.091   7.663  2.8862  2.8290  0.6899
  739MOL0     H99712   8.018   3.879   7.581 -2.4492 -0.8880 -0.9397
  739MOL0     H99713   8.041   3.807   7.743  1.4849  2.8847  3.6036
  739MOL0     H99714   7.786   3.796   7.777 -0.0104 -1.7003 -0.2977
  739MOL0     H99715   7.847   3.725   7.632  0.8735  0.1400  0.4481
  739MOL0     H99716   7.715   4.066   7.782  0.6895  1.1163 -0.1468
  739MOL0     H99717   7.522   4.258   7.541 -0.3989 -0.2980 -0.6190
  739MOL0     H99718   7.408   4.140   7.631 -1.0122  0.7339  2.8918
  739MOL0     H99719   7.594   4.338   7.765 -0.7381 -0.4287  0.9859
  739MOL0     H99720   7.527   4.190   7.834 -1.5171 -1.1127 -0.3315
  739MOL0     H99721   7.296   4.261   7.796  0.4458 -0.4614 -0.7417
  739MOL0     H99722   7.344   4.398   7.703 -2.8545 -2.3181 -2.0280
  739MOL0     H99723   7.444   4.501   7.894 -1.7109  1.7377  1.9896
  739MOL0     H99724   7.423   4.353   7.998 -5.1551 -2.8377  1.4353
  739MOL0     H99725   7.275   4.408   8.203  1.5808  0.6020 -0.9891
  739MOL0     H99726   7.211   4.111   8.388  1.6058  0.4306 -0.8566
  739MOL0     H99727   7.261   4.277   8.393  1.6970 -2.3464  1.7033
  739MOL0     H99728   7.085   4.226   8.426  0.6894  2.1427  1.5704
  739MOL0     H99729   6.653   3.884   8.062  3.1260 -0.9687  0.1626
  739MOL0     H99730   6.456   3.755   8.193  0.8089 -1.9216  0.0634
  739MOL0     H99731   6.562   3.600   8.428  0.1823  2.5612 -3.1807
  739MOL0     H99732   6.467   3.618   8.577  0.2787  0.2290 -0.0545
  739MOL0     H99733   6.351   3.562   8.301 -0.2910  1.6740  0.4532
  739MOL0     H99734   6.392   3.422   8.407 -2.1330 -0.8396  1.4792
  739MOL0     H99735   6.198   3.657   8.449 -0.5982  1.2368  2.3816
  739MOL0     H99736   6.229   3.548   8.581 -0.8049 -1.0014 -0.1826
  739MOL0     H99737   6.151   3.356   8.402 -1.0264 -1.3374  3.3214
  739MOL0     H99738   6.047   3.450   8.503 -0.6909 -2.6169 -0.8569
  739MOL0     H99739   6.092   3.443   8.204 -3.2720 -2.5146 -0.9174
  739MOL0     H99740   6.050   3.608   8.263 -3.2590 -0.4673 -2.6801
  739MOL0     H99741   5.858   3.434   8.194 -0.3982 -1.4020  0.8312
  739MOL0     H99742   5.880   3.397   8.356  4.6857  1.9171  3.3135
  739MOL0     H99743   5.704   3.558   8.314 -0.7411  1.9069 -2.9615
  739MOL0     H99744   5.809   3.674   8.231  0.8669  0.7759  1.8193
  739MOL0     H99745   5.853   3.584   8.522  0.4736 -0.1356 -1.1071
  739MOL0     H99746   5.741   3.703   8.497 -1.1333 -2.8400  1.4738
  739MOL0     H99747   6.588   3.918   8.553 -1.3059 -0.4160  0.3260
  739MOL0     H99748   6.758   4.054   8.434  0.4663  0.9107 -2.7556
  739MOL0     H99749   6.897   4.184   7.975  0.6955 -0.8057 -1.5877
  739MOL0     H99750   7.060   4.330   7.853  0.4230 -0.4593 -0.1475
  739MOL0     H99751   8.691   4.129   7.578  2.3582 -0.8842 -0.8345
  739MOL0     H99752   8.928   4.060   7.574  2.3982  1.1513 -1.1090
  739MOL0     H99753   9.308   4.247   7.505  1.8647  2.0701 -1.6234
  739MOL0     H99754   9.520   4.252   7.414  0.8649 -1.3607 -0.6037
  739MOL0     H99755   9.852   4.311   7.726 -1.3012  0.4277 -0.5098
  739MOL0     H99756   9.887   4.138   7.683 -2.8723 -1.0360  0.0922
  739MOL0     H99757  10.011   4.374   7.568  0.0722 -0.0320 -0.5916
  739MOL0     H99758  10.010   4.214   7.485 -2.4135  0.9613 -0.7302
  739MOL0     H99759  10.093   4.125   7.727  2.3782 -1.1723 -2.3714
  739MOL0     H99760  10.113   4.300   7.749 -4.0887 -0.6562 -0.4219
  739MOL0     H99761  10.334   4.200   7.696 -0.6366  1.4802  0.5997
  739MOL0     H99762  10.291   4.279   7.548  0.7463 -0.3537  0.6514
  739MOL0     H99763  10.231   3.894   7.416 -1.7595  1.6096 -0.2411
  739MOL0     H99764   9.680   4.162   7.816  1.1828  1.0614 -0.9626
  739MOL0     H99765   9.460   4.136   7.891 -0.4497  0.2143 -0.2353
  740MOL0     O99766   9.985   4.101  11.178  0.5143  0.1651  0.8481
  740MOL0     C99767   9.997   4.068  11.062 -0.4359  0.6846 -0.1902
  740MOL0     O99768  10.110   4.079  10.981  0.5587 -0.3807  0.7519
  740MOL0     C99769  10.222   4.119  11.032 -0.1139  0.1344 -0.3298
  740MOL0     C99770  10.271   4.045  11.139 -0.1315  0.1422 -1.3350
  740MOL0     C99771  10.390   4.094  11.208  1.0365  0.3967 -0.3254
  740MOL0     C99772  10.453   4.208  11.161  0.4950  0.1776  0.1502
  740MOL0     O99773  10.573   4.243  11.223  0.3628  0.5736  0.7484
  740MOL0     C99774  10.649   4.354  11.173 -0.2107  0.4220  0.5618
  740MOL0     C99775  10.600   4.485  11.239 -0.2761  0.1470  0.6192
  740MOL0     C99776  10.711   4.585  11.263 -0.9831  0.3677 -0.0756
  740MOL0     C99777  10.768   4.639  11.127  0.3392 -0.3674 -0.2484
  740MOL0     C99778  10.833   4.775  11.142  0.2825 -0.2343  0.7604
  740MOL0     C99779  10.980   4.767  11.209 -0.9606 -0.1193  0.3573
  740MOL0     C99780  11.035   4.920  11.192  0.2219  0.6623  0.1776
  740MOL0     C99781  11.152   4.950  11.277 -0.8007  0.1282 -0.0831
  740MOL0     N99782  11.223   5.082  11.244  0.0873  0.8121  0.1353
  740MOL0     C99783  11.345   5.119  11.288  0.3378 -0.0214 -0.6072
  740MOL0     C99784  11.379   5.227  11.216 -0.1199  0.4385 -0.0254
  740MOL0     C99785  11.503   5.311  11.236 -0.4866  0.4330 -0.5087
  740MOL0     C99786  11.556   5.360  11.105  0.3986  1.1430  0.2801
  740MOL0     C99787  11.702   5.397  11.104 -0.3512  0.9602 -0.1214
  740MOL0     C99788  11.756   5.499  11.206  0.8868  0.0728  0.3608
  740MOL0     O99789  11.658   5.598  11.245 -0.4586 -0.2293 -0.0411
  740MOL0     C99790  11.700   5.729  11.248  0.0069  0.4048 -0.1466
  740MOL0     C99791  11.600   5.822  11.249  0.6672 -0.7748 -0.1482
  740MOL0     C99792  11.626   5.963  11.266 -0.0542  0.2596  0.2702
  740MOL0     C99793  11.513   6.061  11.279 -0.2870  0.4746 -0.6747
  740MOL0     C99794  11.758   6.010  11.239 -0.1051  0.7743 -0.5940
  740MOL0     C99795  11.798   6.151  11.210  0.8235  1.0476 -0.7282
  740MOL0     O99796  11.863   6.174  11.091  0.0923 -0.6511  0.1614
  740MOL0     C99797  11.934   6.296  11.074 -0.1735 -0.0684 -0.3110
  740MOL0     C99798  12.041   6.330  11.150 -0.1457 -0.1315 -0.0553
  740MOL0     C99799  12.111   6.444  11.129  0.4272 -0.0500  0.4854
  740MOL0     C99800  12.074   6.533  11.022  1.2205  0.1477  0.4915
  740MOL0     O99801  12.132   6.654  11.005  0.1708  0.4923  0.0461
  740MOL0     C99802  12.251   6.685  11.079 -0.1058  0.1253 -0.0681
  740MOL0     C99803  12.323   6.801  11.020  0.2075 -0.0610  0.7714
  740MOL0     C99804  12.466   6.789  11.069 -0.2907  0.0203  0.5480
  740MOL0     C99805  12.559   6.910  11.038 -0.3137 -0.1739  0.4008
  740MOL0     C99806  12.685   6.901  11.129  0.1758 -0.4426 -0.2232
  740MOL0     C99807  12.780   7.016  11.118  0.0360  0.2353  0.0647
  740MOL0     C99808  12.813   7.077  11.253  0.8119  0.2196  1.2894
  740MOL0     C99809  12.955   7.131  11.262 -0.0545 -0.5144 -0.2149
  740MOL0    Cl99810  12.982   7.265  11.141 -0.1408  0.0382  0.3397
  740MOL0     C99811  11.973   6.492  10.937 -0.1633 -0.6905  0.2716
  740MOL0     C99812  11.895   6.378  10.961 -0.5569  0.3140 -0.4621
  740MOL0     O99813  11.782   6.227  11.309  0.1754 -0.7622  0.3811
  740MOL0     C99814  11.859   5.912  11.234 -0.9850 -0.5890  0.4736
  740MOL0     C99815  11.837   5.778  11.245  0.0264  0.1214  0.3479
  740MOL0     N99816  11.276   5.257  11.139 -0.4915 -0.1166  0.1178
  740MOL0     N99817  11.181   5.173  11.154 -1.0142  0.1594 -0.2825
  740MOL0     C99818  10.398   4.277  11.048  0.4346 -0.0425 -0.8707
  740MOL0     C99819  10.281   4.234  10.986 -0.7146  0.1864  1.1403
  740MOL0     C99820   9.880   4.002  11.006  0.2214  0.4368  0.0186
  740MOL0     C99821   9.771   3.953  11.082 -0.5619  0.1587 -0.7557
  740MOL0     C99822   9.667   3.878  11.017 -0.3896 -0.4103 -0.8653
  740MOL0     C99823   9.675   3.860  10.879 -0.0731 -0.7918 -0.3957
  740MOL0     O99824   9.572   3.800  10.820 -0.3175 -0.1566 -0.4873
  740MOL0     C99825   9.510   3.878  10.716 -1.1583  0.8833  1.0187
  740MOL0     C99826   9.393   3.955  10.773 -0.0816 -0.8747  0.3807
  740MOL0     C99827   9.272   3.866  10.824 -0.5117  0.6679 -0.1597
  740MOL0     C99828   9.176   3.819  10.713  0.1531  0.3518 -0.5339
  740MOL0     C99829   9.098   3.942  10.673 -0.4134 -0.0928  0.2502
  740MOL0     C99830   9.041   4.049  10.643 -0.5555 -0.2003  0.3620
  740MOL0     C99831   9.783   3.916  10.798  0.3080  0.6535  1.1379
  740MOL0     C99832   9.884   3.990  10.863 -0.1583 -1.3978  0.0623
  740MOL0     H99833  10.223   3.951  11.164 -1.1201  0.7287 -0.9839
  740MOL0     H99834  10.435   4.046  11.294  2.1225  3.1673  0.7830
  740MOL0     H99835  10.747   4.328  11.213  0.2927  1.6668  0.1701
  740MOL0     H99836  10.649   4.352  11.064  1.6729  1.4114  0.5030
  740MOL0     H99837  10.518   4.525  11.178  2.4718  3.9911 -1.0264
  740MOL0     H99838  10.559   4.466  11.338  2.7568  0.1021  1.9917
  740MOL0     H99839  10.691   4.660  11.340  0.1069  0.0240  0.5573
  740MOL0     H99840  10.786   4.533  11.322 -4.6137 -1.0597  3.7140
  740MOL0     H99841  10.836   4.566  11.083  1.1979 -0.2384  0.8222
  740MOL0     H99842  10.687   4.660  11.056  0.9685  0.7309 -0.6600
  740MOL0     H99843  10.850   4.816  11.042  1.4737 -2.0951  0.1572
  740MOL0     H99844  10.768   4.842  11.200  2.6697  2.2297  0.7638
  740MOL0     H99845  10.967   4.732  11.312  4.2053  2.1665  2.1410
  740MOL0     H99846  11.056   4.705  11.161  1.2900  0.8743  2.3967
  740MOL0     H99847  11.054   4.927  11.085  1.0519 -1.0218  0.1689
  740MOL0     H99848  10.961   4.998  11.212  0.6326  0.8349  1.1033
  740MOL0     H99849  11.217   4.862  11.269  0.1681  0.5250  2.5662
  740MOL0     H99850  11.122   4.949  11.382  0.4537 -2.5750  0.3438
  740MOL0     H99851  11.415   5.068  11.352  1.7933  3.5781  0.9426
  740MOL0     H99852  11.463   5.396  11.292 -0.0386  0.1629  0.2242
  740MOL0     H99853  11.582   5.261  11.292 -2.4097 -1.2017  0.9123
  740MOL0     H99854  11.499   5.446  11.068  2.3358  1.2245 -2.8440
  740MOL0     H99855  11.531   5.291  11.024 -1.6176  2.5303 -0.3789
  740MOL0     H99856  11.709   5.442  11.004 -0.5015  0.6577 -0.2691
  740MOL0     H99857  11.761   5.305  11.103 -0.2566  1.0179  0.2625
  740MOL0     H99858  11.839   5.551  11.157  2.1295 -1.0304  1.2320
  740MOL0     H99859  11.802   5.446  11.290 -0.2516 -4.2101 -1.4257
  740MOL0     H99860  11.497   5.789  11.257  0.7102 -0.4894  2.5060
  740MOL0     H99861  11.509   6.118  11.186 -2.6559 -0.4064 -1.1924
  740MOL0     H99862  11.421   6.003  11.287 -1.1165  1.5928 -1.7804
  740MOL0     H99863  11.532   6.134  11.359  0.9659  0.4920 -0.9735
  740MOL0     H99864  12.071   6.277  11.240  0.0163 -1.1351 -0.6894
  740MOL0     H99865  12.191   6.472  11.196  1.5716  2.4040 -1.7335
  740MOL0     H99866  12.217   6.714  11.179 -1.8901 -0.9845 -0.2978
  740MOL0     H99867  12.324   6.604  11.076  1.2205  1.2311  0.7726
  740MOL0     H99868  12.322   6.778  10.913 -2.1251 -2.6895  1.2373
  740MOL0     H99869  12.274   6.894  11.048 -2.6073 -1.1883 -0.0234
  740MOL0     H99870  12.509   6.698  11.028 -1.7457  0.6504 -2.6699
  740MOL0     H99871  12.458   6.787  11.178 -1.0182  0.8146  0.5175
  740MOL0     H99872  12.596   6.890  10.937  0.3308  1.7777  0.2161
  740MOL0     H99873  12.509   7.007  11.039 -0.2125 -0.1132 -0.2238
  740MOL0     H99874  12.729   6.802  11.116  0.6202 -0.1321 -1.1975
  740MOL0     H99875  12.641   6.909  11.229 -0.1010 -4.9370  0.2232
  740MOL0     H99876  12.865   6.974  11.064  0.4955  3.2359 -1.7939
  740MOL0     H99877  12.728   7.088  11.054  0.5057 -0.0927 -0.7052
  740MOL0     H99878  12.792   7.004  11.333 -2.3649  0.8304  1.1470
  740MOL0     H99879  12.748   7.164  11.267 -0.4077 -0.8976  3.0901
  740MOL0     H99880  13.016   7.045  11.231 -0.3139 -1.4668  1.7694
  740MOL0     H99881  12.978   7.177  11.359 -1.6265  0.6469 -0.3470
  740MOL0     H99882  11.948   6.552  10.850  0.5841 -1.0728 -0.2076
  740MOL0     H99883  11.806   6.357  10.902  0.8692 -3.7445 -1.4687
  740MOL0     H99884  11.960   5.950  11.218 -0.8054 -1.1926  0.1638
  740MOL0     H99885  11.924   5.714  11.230  2.2414  3.1435 -0.8277
  740MOL0     H99886  10.445   4.369  11.013  1.5875 -0.2740  0.0153
  740MOL0     H99887  10.250   4.294  10.901  0.9481  0.6971  0.8471
  740MOL0     H99888   9.773   3.959  11.190  2.3000  1.4116 -0.7945
  740MOL0     H99889   9.581   3.843  11.074  0.7372  0.3291  1.4396
  740MOL0     H99890   9.578   3.945  10.663 -0.7386 -0.6894 -0.5032
  740MOL0     H99891   9.468   3.812  10.639 -0.6372  0.4183  1.1309
  740MOL0     H99892   9.359   4.033  10.704 -1.0998  0.0239  1.8513
  740MOL0     H99893   9.432   4.003  10.863 -0.6469 -0.4882  0.4227
  740MOL0     H99894   9.213   3.921  10.898  1.8190  1.4131  1.2645
  740MOL0     H99895   9.314   3.777  10.871  0.8342  2.5379  2.4932
  740MOL0     H99896   9.107   3.736  10.732 -3.0981  2.1320 -3.5227
  740MOL0     H99897   9.235   3.784  10.628 -3.3140 -2.7324 -1.9317
  740MOL0     H99898   8.998   4.139  10.604 -0.3821 -1.4009 -2.9219
  740MOL0     H99899   9.781   3.913  10.690  0.7935  1.1798  1.1083
  740MOL0     H99900   9.951   4.038  10.793 -1.6994 -2.9325 -2.6385
  741MOL0     O99901  10.794   0.752   4.454  0.4362  0.0349  0.5158
  741MOL0     C99902  10.853   0.791   4.553  1.1506 -0.0523  0.0803
  741MOL0     O99903  10.811   0.789   4.673  0.3193 -0.2763 -0.7469
  741MOL0     C99904  10.686   0.729   4.688 -0.2752  0.2531  0.6891
  741MOL0     C99905  10.666   0.596   4.738  0.4404 -0.9357  0.4965
  741MOL0     C99906  10.535   0.556   4.774  0.2518 -0.3674  0.8753
  741MOL0     C99907  10.425   0.647   4.773 -0.3901 -0.4836 -0.0238
  741MOL0     O99908  10.301   0.588   4.798 -1.3517  0.0115 -0.0668
  741MOL0     C99909  10.199   0.609   4.706  0.3596  0.0498  0.0124
  741MOL0     C99910  10.207   0.492   4.612 -0.7653  0.8467 -0.5724
  741MOL0     C99911  10.083   0.483   4.524  0.5689 -0.6091  0.6903
  741MOL0     C99912  10.068   0.343   4.457  0.8190 -0.1933  1.0656
  741MOL0     C99913   9.924   0.309   4.407 -0.5243 -0.3378  0.8560
  741MOL0     C99914   9.882   0.406   4.292 -1.0448  0.3974  0.0222
  741MOL0     C99915   9.751   0.375   4.222  0.3833  0.8846 -1.0979
  741MOL0     C99916   9.739   0.447   4.092 -0.0848 -0.4337  0.6832
  741MOL0     N99917   9.616   0.406   4.023 -0.3248 -0.4314 -0.2839
  741MOL0     C99918   9.566   0.286   3.961 -0.0599 -0.2810  0.5201
  741MOL0     C99919   9.440   0.308   3.929  0.6615 -0.4609  0.0542
  741MOL0     C99920   9.347   0.210   3.863  0.3437  0.3640  0.7480
  741MOL0     C99921   9.223   0.193   3.954 -0.1491 -0.1643  0.2274
  741MOL0     C99922   9.114   0.291   3.902  0.6522  0.4268 -0.1145
  741MOL0     C99923   9.028   0.232   3.793  0.8915  0.3360 -0.6877
  741MOL0     O99924   8.929   0.324   3.762 -0.3448  0.2515 -0.7452
  741MOL0     C99925   8.806   0.285   3.711 -0.6199 -0.2571  0.5640
  741MOL0     C99926   8.781   0.158   3.657 -0.6502  0.1207 -0.0262
  741MOL0     C99927   8.656   0.099   3.649 -0.1198 -0.4759  0.4231
  741MOL0     C99928   8.655  -0.040   3.595 -0.2867  0.1518 -0.2546
  741MOL0     C99929   8.546   0.184   3.694  0.5941  1.2514 -0.3498
  741MOL0     C99930   8.402   0.140   3.697 -0.3297 -0.0415  0.4815
  741MOL0     O99931   8.308   0.247   3.714  0.3865  1.3938  0.9407
  741MOL0     C99932   8.173   0.206   3.687  0.2116 -1.2651 -0.9306
  741MOL0     C99933   8.087   0.146   3.782 -0.4803 -0.6463 -0.2486
  741MOL0     C99934   7.948   0.132   3.770 -0.5856  0.3691  0.0935
  741MOL0     C99935   7.877   0.192   3.663 -0.9329 -0.0556 -0.4620
  741MOL0     O99936   7.740   0.190   3.662  0.2226 -0.8429 -0.1124
  741MOL0     C99937   7.696   0.300   3.752  0.0771  0.4080  0.0752
  741MOL0     C99938   7.545   0.315   3.778  0.0818 -0.0346 -0.3233
  741MOL0     C99939   7.470   0.335   3.649  0.4863  0.1109 -0.2016
  741MOL0     C99940   7.336   0.387   3.676  0.8958 -0.8333  0.2152
  741MOL0     C99941   7.234   0.365   3.556 -0.0004  0.8632  0.2510
  741MOL0     C99942   7.102   0.440   3.581 -0.0487 -0.3655 -1.2413
  741MOL0     C99943   7.014   0.406   3.701  0.8053 -0.1410 -1.0404
  741MOL0     C99944   6.982   0.260   3.728  0.4369  0.5959 -0.2310
  741MOL0    Cl99945   6.972   0.251   3.900  0.0669  0.3009 -0.2436
  741MOL0     C99946   7.965   0.259   3.570 -0.0510 -0.1600  0.2371
  741MOL0     C99947   8.106   0.263   3.584 -0.1805 -0.1861  0.2650
  741MOL0     O99948   8.377   0.020   3.684 -0.1089 -0.0152 -0.3712
  741MOL0     C99949   8.571   0.310   3.740  1.0440 -0.3968  0.0375
  741MOL0     C99950   8.702   0.364   3.750  0.0701  0.0075  0.1493
  741MOL0     N99951   9.411   0.429   3.967 -0.2685  0.0281 -0.5629
  741MOL0     N99952   9.516   0.492   4.009 -0.3858 -0.4757  0.0481
  741MOL0     C99953  10.447   0.777   4.720 -0.6994  0.5442  0.3219
  741MOL0     C99954  10.578   0.818   4.690 -0.1473  0.4082  0.0024
  741MOL0     C99955  10.993   0.825   4.529  0.4706 -0.8424 -0.1503
  741MOL0     C99956  11.079   0.880   4.627  0.7835 -0.1999 -0.3346
  741MOL0     C99957  11.215   0.914   4.606 -0.4389 -0.7847  0.6077
  741MOL0     C99958  11.271   0.873   4.486 -0.3772  0.2437 -1.1413
  741MOL0     O99959  11.404   0.881   4.450  0.5691  0.3493 -0.1246
  741MOL0     C99960  11.485   0.968   4.529  0.7780  0.3348  0.8073
  741MOL0     C99961  11.630   0.952   4.492 -0.3785 -0.2706  0.1379
  741MOL0     C99962  11.672   1.038   4.371  0.7733 -0.0855 -0.5863
  741MOL0     C99963  11.829   1.058   4.354  1.0270 -0.3133 -0.1968
  741MOL0     C99964  11.888   0.941   4.296  0.1643  0.4785  1.0296
  741MOL0     C99965  11.924   0.837   4.234 -0.3118  0.1273 -0.1464
  741MOL0     C99966  11.188   0.810   4.390  0.1932 -0.6519 -0.2638
  741MOL0     C99967  11.050   0.796   4.404 -0.4439  0.1354  0.7134
  741MOL0     H99968  10.744   0.521   4.745 -0.6241 -2.0576  0.7094
  741MOL0     H99969  10.506   0.456   4.804 -2.3873 -0.0389 -0.2748
  741MOL0     H99970  10.103   0.601   4.758 -1.6726 -4.2017 -3.6808
  741MOL0     H99971  10.208   0.710   4.665  1.4998  0.1863  0.5703
  741MOL0     H99972  10.305   0.501   4.563  0.6042  0.5919  1.9569
  741MOL0     H99973  10.223   0.393   4.656  2.9720  0.9679 -1.3109
  741MOL0     H99974  10.004   0.493   4.599  0.2203 -0.0663  0.2611
  741MOL0     H99975  10.089   0.568   4.455  2.2074 -1.6944 -0.5903
  741MOL0     H99976  10.139   0.342   4.374  0.2558 -1.9806  0.5582
  741MOL0     H99977  10.090   0.272   4.537 -4.4292 -0.7310  2.4247
  741MOL0     H99978   9.937   0.208   4.367  0.6582 -1.2343  3.3062
  741MOL0     H99979   9.857   0.306   4.493  1.6640  0.7493  2.7395
  741MOL0     H99980   9.875   0.507   4.333 -0.3396  0.3371  0.2964
  741MOL0     H99981   9.967   0.409   4.224 -0.2463 -0.6185  0.9364
  741MOL0     H99982   9.751   0.269   4.196  1.6392  1.3214 -3.0388
  741MOL0     H99983   9.662   0.390   4.284 -0.1991  0.0898 -1.7244
  741MOL0     H99984   9.826   0.427   4.030 -1.5812  1.1746 -2.1355
  741MOL0     H99985   9.732   0.553   4.118  0.6976 -0.4547  1.0079
  741MOL0     H99986   9.631   0.201   3.950  2.2914  1.5216 -0.3721
  741MOL0     H99987   9.319   0.242   3.762  3.1916 -0.5360 -0.4059
  741MOL0     H99988   9.400   0.116   3.851 -0.6554 -0.2798  1.1973
  741MOL0     H99989   9.244   0.192   4.061 -1.4161 -1.4417  0.4930
  741MOL0     H99990   9.189   0.092   3.929  1.7881 -0.8158 -0.0112
  741MOL0     H99991   9.162   0.382   3.866  2.0741 -0.3132 -0.1304
  741MOL0     H99992   9.058   0.321   3.992  3.3222 -0.8644  2.1284
  741MOL0     H99993   9.000   0.133   3.830  4.2207 -2.4681 -4.6595
  741MOL0     H99994   9.073   0.200   3.698  2.4057 -5.0575  1.4744
  741MOL0     H99995   8.869   0.101   3.627  0.3920  2.0356 -0.7956
  741MOL0     H99996   8.759  -0.073   3.591  0.4813  2.4462 -1.5428
  741MOL0     H99997   8.600  -0.109   3.659  1.9065 -1.5733 -0.1227
  741MOL0     H99998   8.621  -0.036   3.491 -1.4023 -0.2032  0.0837
  741MOL0     H99999   8.147   0.102   3.861  2.5048 -5.0501 -4.3918
  741MOL0     H    0   7.888   0.074   3.839 -0.0623  1.2082  1.3007
  741MOL0     H    1   7.747   0.307   3.848 -0.4391 -0.0432  0.3829
  741MOL0     H    2   7.722   0.395   3.704  0.2041  0.2452 -0.1825
  741MOL0     H    3   7.498   0.239   3.842  0.9894 -0.2689  0.0905
  741MOL0     H    4   7.525   0.406   3.836  0.0429 -0.4964  0.4072
  741MOL0     H    5   7.446   0.248   3.587  0.9904  2.1080 -3.4404
  741MOL0     H    6   7.528   0.405   3.588  2.2052  1.0065  2.2866
  741MOL0     H    7   7.292   0.336   3.762 -1.3523  1.3076  0.4242
  741MOL0     H    8   7.351   0.494   3.693  2.2978 -0.6138 -1.9130
  741MOL0     H    9   7.216   0.260   3.533 -0.9711  0.4879  2.4628
  741MOL0     H   10   7.279   0.420   3.473 -1.0303 -0.6109 -1.3254
  741MOL0     H   11   7.125   0.547   3.577  0.0340  0.0367  3.6224
  741MOL0     H   12   7.052   0.429   3.485  0.2170  1.9609 -1.7129
  741MOL0     H   13   6.916   0.454   3.693  0.9061  0.4371  0.6690
  741MOL0     H   14   7.057   0.445   3.794  0.5258  1.6978 -1.6409
  741MOL0     H   15   7.066   0.195   3.700 -0.4654 -1.1268  0.8347
  741MOL0     H   16   6.900   0.213   3.672 -0.1180 -1.9879  2.4820
  741MOL0     H   17   7.923   0.330   3.499  1.7181 -1.4732 -2.2904
  741MOL0     H   18   8.167   0.315   3.510  0.3147  0.6547  1.2398
  741MOL0     H   19   8.495   0.381   3.770  0.3788  0.4023 -3.2088
  741MOL0     H   20   8.713   0.465   3.789 -3.4415  0.3242  0.6502
  741MOL0     H   21  10.362   0.832   4.680 -1.9286  0.0920  2.2048
  741MOL0     H   22  10.595   0.926   4.683 -1.6904  1.0521  3.8172
  741MOL0     H   23  11.044   0.906   4.727  0.8472 -0.1988 -0.3128
  741MOL0     H   24  11.266   0.969   4.685  1.3546 -0.6578 -0.5937
  741MOL0     H   25  11.452   1.070   4.510 -2.4269 -0.6996  0.3129
  741MOL0     H   26  11.476   0.949   4.636 -1.4814 -0.4882  0.5094
  741MOL0     H   27  11.664   0.850   4.468  2.0432  0.9918 -2.3742
  741MOL0     H   28  11.691   0.975   4.579 -0.3444 -0.4655  0.1658
  741MOL0     H   29  11.652   1.144   4.390  0.7085  0.1506 -1.8783
  741MOL0     H   30  11.629   1.020   4.272  2.0500  1.7073 -1.5246
  741MOL0     H   31  11.871   1.080   4.453  0.2231  3.0470 -0.5017
  741MOL0     H   32  11.859   1.149   4.302 -0.4435  0.1628 -0.2559
  741MOL0     H   33  11.937   0.736   4.199  1.2706 -0.7143  2.5830
  741MOL0     H   34  11.230   0.790   4.291  0.2794  1.4331 -0.6913
  741MOL0     H   35  10.992   0.754   4.323  2.3332 -4.7119  0.8573
  742MOL0     O   36   2.134   9.912  11.381 -0.5256  0.0302 -0.3608
  742MOL0     C   37   2.249   9.953  11.364 -0.7393 -0.1468 -0.4878
  742MOL0     O   38   2.284  10.079  11.408  0.7798  0.4655  0.0979
  742MOL0     C   39   2.228  10.137  11.517 -0.4400 -0.1238 -0.8163
  742MOL0     C   40   2.188  10.268  11.525 -0.8908  0.5719  0.5490
  742MOL0     C   41   2.149  10.328  11.645 -0.1615  0.5211  0.7711
  742MOL0     C   42   2.146  10.257  11.767 -0.5263  0.8062 -0.2652
  742MOL0     O   43   2.080  10.301  11.884 -0.2054 -0.4149  0.2743
  742MOL0     C   44   2.007  10.422  11.864  0.5169 -0.1863  0.3787
  742MOL0     C   45   1.914  10.449  11.984  0.0080 -0.3735  0.3299
  742MOL0     C   46   1.977  10.514  12.112  0.5812  0.0998 -0.3461
  742MOL0     C   47   2.037  10.412  12.213  0.5331 -1.0884  0.6722
  742MOL0     C   48   1.943  10.373  12.327  0.6645 -0.5354 -0.9451
  742MOL0     C   49   1.790  10.369  12.290 -0.1823 -0.4168 -0.1669
  742MOL0     C   50   1.707  10.323  12.411 -0.5176 -0.6307 -0.2553
  742MOL0     C   51   1.559  10.361  12.406  0.4279  0.2738  0.1718
  742MOL0     N   52   1.495  10.345  12.541 -0.0100  0.1460 -1.0021
  742MOL0     C   53   1.524  10.238  12.628  0.4084  0.0482 -0.1545
  742MOL0     C   54   1.441  10.263  12.732 -0.2583 -0.4458  0.1176
  742MOL0     C   55   1.432  10.149  12.842 -0.5371 -1.4948 -0.0347
  742MOL0     C   56   1.296  10.086  12.823  0.5004 -0.8847  0.0322
  742MOL0     C   57   1.289   9.949  12.893 -0.1553  0.2981  0.2985
  742MOL0     C   58   1.315   9.950  13.044 -0.4733  0.2312  0.0113
  742MOL0     O   59   1.256   9.836  13.114 -0.3305 -0.3968 -0.6288
  742MOL0     C   60   1.129   9.846  13.174 -0.3417  0.2277  1.8976
  742MOL0     C   61   1.039   9.947  13.143 -0.1169 -0.1016 -1.5133
  742MOL0     C   62   0.911   9.948  13.218  0.2513 -1.5858  0.6886
  742MOL0     C   63   0.821  10.062  13.176 -0.0443  0.7445 -0.4227
  742MOL0     C   64   0.878   9.854  13.313 -0.1161  0.1767  0.0277
  742MOL0     C   65   0.763   9.850  13.391 -0.2367  1.1268 -0.0555
  742MOL0     O   66   0.727   9.736  13.438  0.9659 -0.0585 -0.3888
  742MOL0     C   67   0.611   9.738  13.510  0.5040  0.2221  0.5339
  742MOL0     C   68   0.483   9.769  13.455  1.0420 -0.3111 -0.3073
  742MOL0     C   69   0.360   9.754  13.528 -1.6820 -0.6656  0.0804
  742MOL0     C   70   0.367   9.717  13.664 -0.4434  0.0085  0.2825
  742MOL0     O   71   0.252   9.708  13.736 -0.0143 -0.6463 -0.5576
  742MOL0     C   72   0.196   9.823  13.797  0.5816 -0.2448 -0.9232
  742MOL0     C   73   0.299   9.903  13.885 -0.3798 -0.3938  0.7727
  742MOL0     C   74   0.351   9.825  14.006  0.3471  0.1888  0.0986
  742MOL0     C   75   0.490   9.889  14.041 -0.5603 -0.4893  0.1489
  742MOL0     C   76   0.558   9.819  14.168 -0.3202 -0.1500 -0.0226
  742MOL0     C   77   0.537   9.903  14.295 -0.2781  0.1516 -0.1041
  742MOL0     C   78   0.649   9.874  14.387 -0.1751 -0.1126 -0.3877
  742MOL0     C   79   0.646   9.963  14.508 -0.4512  0.0666  0.6582
  742MOL0    Cl   80   0.792   9.922  14.602 -0.0528  0.0305  0.4298
  742MOL0     C   81   0.492   9.697  13.721 -0.3610 -0.1848  0.7276
  742MOL0     C   82   0.609   9.706  13.643 -0.0419 -0.8093 -0.3362
  742MOL0     O   83   0.703   9.955  13.415 -0.3428  0.4413 -0.0955
  742MOL0     C   84   0.969   9.752  13.324 -0.6744  0.2768 -0.3225
  742MOL0     C   85   1.097   9.747  13.266  0.1363 -0.0629  0.1266
  742MOL0     N   86   1.367  10.383  12.710 -0.1188  0.3893 -0.0139
  742MOL0     N   87   1.406  10.430  12.594  0.4699  1.1568 -0.1479
  742MOL0     C   88   2.184  10.123  11.760 -0.7667  0.5993  0.2501
  742MOL0     C   89   2.227  10.062  11.641 -0.5389  0.3689  0.4945
  742MOL0     C   90   2.351   9.880  11.289  0.4197 -0.9842 -0.7220
  742MOL0     C   91   2.481   9.921  11.256  0.0822 -0.5336  0.0992
  742MOL0     C   92   2.559   9.843  11.173 -0.6624 -0.2388  0.1936
  742MOL0     C   93   2.518   9.723  11.116 -0.8971  1.5372 -0.8881
  742MOL0     O   94   2.609   9.669  11.024  0.6906 -0.0145  0.0043
  742MOL0     C   95   2.572   9.549  10.958  0.2854 -0.2215  0.0755
  742MOL0     C   96   2.604   9.563  10.810  0.4854  0.4358  0.7205
  742MOL0     C   97   2.594   9.703  10.750 -0.3679  0.5742 -0.2185
  742MOL0     C   98   2.626   9.727  10.606  0.5058 -0.2210 -0.6547
  742MOL0     C   99   2.771   9.713  10.589 -0.5587  0.1311  0.3894
  742MOL0     C  100   2.891   9.683  10.576  0.2675 -0.5506 -0.2005
  742MOL0     C  101   2.398   9.667  11.170  1.2003  0.7604 -0.0318
  742MOL0     C  102   2.309   9.753  11.243  0.3060  0.9580 -0.6791
  742MOL0     H  103   2.189  10.326  11.433  0.2167 -0.1830  0.0539
  742MOL0     H  104   2.107  10.427  11.632  1.9829  1.2129 -1.4346
  742MOL0     H  105   2.075  10.506  11.848 -1.7527  1.9149  1.1616
  742MOL0     H  106   1.928  10.415  11.789 -1.2675  1.8317  1.9335
  742MOL0     H  107   1.828  10.509  11.954 -0.2322 -0.1782  1.3871
  742MOL0     H  108   1.874  10.349  12.003  1.7339 -1.3569 -0.8871
  742MOL0     H  109   2.058  10.578  12.078  0.1942  2.3000  2.4861
  742MOL0     H  110   1.903  10.579  12.159  0.1083  0.3990 -1.4903
  742MOL0     H  111   2.070  10.330  12.149  1.5723 -0.3954  0.2918
  742MOL0     H  112   2.134  10.440  12.256  1.4584  0.9892 -2.3749
  742MOL0     H  113   1.968  10.279  12.377  0.6421  0.6071  1.3442
  742MOL0     H  114   1.958  10.449  12.404  1.8756 -2.1351  0.4838
  742MOL0     H  115   1.747  10.467  12.268 -1.0514  0.2595  3.8078
  742MOL0     H  116   1.784  10.302  12.204  1.8587 -0.4757 -0.2984
  742MOL0     H  117   1.721  10.218  12.436  0.1350 -0.0493  2.1201
  742MOL0     H  118   1.747  10.383  12.494 -2.8776 -1.2909  1.4613
  742MOL0     H  119   1.500  10.306  12.331  1.9343  0.7156 -1.4026
  742MOL0     H  120   1.544  10.466  12.378 -1.1046  0.4921  1.6036
  742MOL0     H  121   1.597  10.158  12.619  0.7759  0.5933 -2.7709
  742MOL0     H  122   1.510  10.076  12.816  0.7118 -0.1418 -0.1761
  742MOL0     H  123   1.434  10.192  12.942 -0.2594  2.5322 -1.5979
  742MOL0     H  124   1.273  10.080  12.716  0.0412  2.6741 -0.1603
  742MOL0     H  125   1.213  10.150  12.854  0.9976  0.6292 -1.6438
  742MOL0     H  126   1.363   9.884  12.844 -1.9817 -0.9030 -1.0105
  742MOL0     H  127   1.191   9.905  12.875 -0.3688  1.0787 -0.5236
  742MOL0     H  128   1.290  10.049  13.082  2.9616  1.3345 -0.1897
  742MOL0     H  129   1.424   9.948  13.058 -0.6790  2.0281  2.7300
  742MOL0     H  130   1.052  10.014  13.059 -4.1632  1.4792 -1.1253
  742MOL0     H  131   0.719  10.031  13.153 -0.2878 -1.8325  3.2444
  742MOL0     H  132   0.821  10.130  13.261  2.8378  1.0758 -0.5888
  742MOL0     H  133   0.870  10.111  13.091  0.0516 -0.6816 -1.2212
  742MOL0     H  134   0.457   9.797  13.353  1.5139  0.6981 -0.1607
  742MOL0     H  135   0.268   9.768  13.472 -0.4987 -1.0239 -2.0626
  742MOL0     H  136   0.165   9.875  13.706  1.1788 -0.1137 -1.0570
  742MOL0     H  137   0.107   9.790  13.851 -0.3976 -1.1083 -2.9772
  742MOL0     H  138   0.382   9.926  13.817  0.5062 -1.3679  1.4937
  742MOL0     H  139   0.253  10.001  13.903 -1.6938 -0.8624  0.0841
  742MOL0     H  140   0.361   9.719  13.983 -0.7326 -0.7116  3.3337
  742MOL0     H  141   0.291   9.826  14.097  1.6542  1.0646  0.9915
  742MOL0     H  142   0.559   9.863  13.960  0.0790  2.4280 -0.3582
  742MOL0     H  143   0.483   9.996  14.063 -1.1602 -0.7739  1.4222
  742MOL0     H  144   0.661   9.803  14.135 -0.4546 -1.2955  0.0922
  742MOL0     H  145   0.526   9.715  14.169 -1.2180 -0.0402 -3.6554
  742MOL0     H  146   0.549  10.006  14.260 -2.9523  0.4474 -0.3479
  742MOL0     H  147   0.442   9.891  14.348  1.0736 -0.7757  2.2980
  742MOL0     H  148   0.740   9.874  14.326  1.0823  1.3887  1.3679
  742MOL0     H  149   0.637   9.768  14.412 -2.9270  0.1084 -0.5018
  742MOL0     H  150   0.563   9.946  14.578  2.0140  0.5794  3.9222
  742MOL0     H  151   0.654  10.070  14.490 -0.9906  0.4369  2.3869
  742MOL0     H  152   0.512   9.664  13.823 -1.8286  1.4937  1.6277
  742MOL0     H  153   0.707   9.697  13.688  0.1466 -0.7661 -0.7367
  742MOL0     H  154   0.953   9.680  13.404  1.5874 -0.1089 -0.1582
  742MOL0     H  155   1.165   9.672  13.305 -1.1653 -0.4084  1.8571
  742MOL0     H  156   2.179  10.063  11.850  0.3930 -2.8776 -1.8199
  742MOL0     H  157   2.272   9.964  11.642  2.5365  1.4546 -3.5827
  742MOL0     H  158   2.518  10.015  11.296 -3.4924  0.7119  0.8669
  742MOL0     H  159   2.657   9.884  11.151 -1.8902  3.8786  1.5679
  742MOL0     H  160   2.623   9.465  11.008 -1.1595 -0.1224  1.8181
  742MOL0     H  161   2.464   9.540  10.968  0.2169  0.5837  0.0790
  742MOL0     H  162   2.552   9.487  10.751 -0.5169 -0.3210  2.5118
  742MOL0     H  163   2.708   9.529  10.805  0.2791 -0.0768 -1.2873
  742MOL0     H  164   2.671   9.762  10.801 -2.7196  1.7749  2.2576
  742MOL0     H  165   2.491   9.735  10.769  0.8898  5.4193 -0.1959
  742MOL0     H  166   2.602   9.829  10.576 -1.2662  0.2576  1.9920
  742MOL0     H  167   2.577   9.651  10.544  2.6855 -0.6874 -1.9114
  742MOL0     H  168   2.992   9.652  10.560  0.1478 -0.8796 -0.3308
  742MOL0     H  169   2.368   9.563  11.156  4.4614 -0.6216  2.0323
  742MOL0     H  170   2.212   9.705  11.245  0.1854  1.1938 -0.9353
  743MOL0     O  171   2.105   9.130   4.836  0.0098 -1.1959 -0.3031
  743MOL0     C  172   2.068   9.130   4.951  1.0190 -0.0081  0.4070
  743MOL0     O  173   1.954   9.185   5.006  0.3156  0.0573  0.3062
  743MOL0     C  174   1.880   9.259   4.924 -0.2496 -0.3669  0.7957
  743MOL0     C  175   1.822   9.377   4.974  0.4958 -0.2794 -0.0831
  743MOL0     C  176   1.732   9.449   4.893  0.4572 -0.3826  0.1059
  743MOL0     C  177   1.688   9.398   4.770 -0.5118  0.0883 -0.0547
  743MOL0     O  178   1.586   9.459   4.703 -0.8591 -0.3963 -0.6268
  743MOL0     C  179   1.596   9.483   4.561  0.9470 -0.1030 -0.4101
  743MOL0     C  180   1.479   9.561   4.504  0.4354  1.1832 -0.2438
  743MOL0     C  181   1.342   9.497   4.504 -0.1029  0.3382  0.8561
  743MOL0     C  182   1.240   9.598   4.446 -0.3139  0.6693  0.7031
  743MOL0     C  183   1.109   9.522   4.427  0.8116  0.2290 -0.1703
  743MOL0     C  184   0.983   9.601   4.463  0.1329  0.2719  0.0677
  743MOL0     C  185   0.853   9.517   4.453 -0.5071  0.1934 -1.0120
  743MOL0     C  186   0.723   9.604   4.463 -0.3619 -0.9481  0.4676
  743MOL0     N  187   0.595   9.528   4.471  0.0277  0.5253  0.4365
  743MOL0     C  188   0.564   9.440   4.563 -0.1264  0.0489 -0.6221
  743MOL0     C  189   0.434   9.402   4.533 -0.9209 -0.2317  0.0465
  743MOL0     C  190   0.366   9.286   4.604 -0.2514  0.6442  0.2535
  743MOL0     C  191   0.327   9.198   4.490  0.0809  0.2533 -0.1938
  743MOL0     C  192   0.265   9.073   4.556  0.7991  0.3319 -0.5146
  743MOL0     C  193   0.138   9.066   4.640  0.3993 -0.0803 -0.6713
  743MOL0     O  194   0.172   9.120   4.781  0.4902  0.0068  0.7521
  743MOL0     C  195   0.063   9.161   4.859 -1.2121  0.2979  0.2181
  743MOL0     C  196  -0.056   9.086   4.857 -1.0334 -0.5370 -0.0743
  743MOL0     C  197  -0.174   9.139   4.918 -1.2182  0.4650  0.8123
  743MOL0     C  198  -0.287   9.043   4.901 -0.0995 -0.8579 -0.0962
  743MOL0     C  199  -0.163   9.260   4.993  0.1313 -0.2906 -0.0489
  743MOL0     C  200  -0.280   9.323   5.076  0.4953 -0.3045  1.1415
  743MOL0     O  201  -0.398   9.244   5.084 -0.3173  0.7833 -0.3277
  743MOL0     C  202  -0.509   9.307   5.135  0.4779 -0.3672 -0.1644
  743MOL0     C  203  -0.557   9.436   5.096 -0.4276  0.4106  0.4742
  743MOL0     C  204  -0.666   9.493   5.152  0.2891 -1.0505  0.1129
  743MOL0     C  205  -0.736   9.441   5.256  0.8800 -0.6650  0.6871
  743MOL0     O  206  -0.835   9.514   5.323  0.3266 -0.4702  0.3255
  743MOL0     C  207  -0.908   9.460   5.431  0.3857  0.4502 -0.8292
  743MOL0     C  208  -1.022   9.550   5.482  0.5590 -0.9726 -0.2470
  743MOL0     C  209  -1.080   9.638   5.369  0.7786 -0.5069 -0.4650
  743MOL0     C  210  -1.194   9.730   5.417 -0.2674  1.0105  0.3810
  743MOL0     C  211  -1.266   9.818   5.310 -0.3379  0.7678 -0.4288
  743MOL0     C  212  -1.405   9.866   5.359 -0.5231  0.2944  0.8000
  743MOL0     C  213  -1.390  10.001   5.437 -0.1530 -0.5920  0.4097
  743MOL0     C  214  -1.526  10.051   5.485  0.9655 -0.5473  0.3925
  743MOL0    Cl  215  -1.595   9.947   5.605 -0.1884 -0.4316  0.4319
  743MOL0     C  216  -0.696   9.312   5.302  0.5387 -0.4199 -0.2057
  743MOL0     C  217  -0.588   9.245   5.244 -0.1328 -0.5160 -0.4245
  743MOL0     O  218  -0.257   9.424   5.129 -0.4597 -0.1057 -0.3116
  743MOL0     C  219  -0.037   9.330   4.985 -0.2982  0.4027 -1.1547
  743MOL0     C  220   0.073   9.284   4.920  0.1696 -0.0762  0.6318
  743MOL0     N  221   0.399   9.475   4.423  1.0413  0.5950  0.2790
  743MOL0     N  222   0.492   9.546   4.386  0.2383 -0.0164  0.4635
  743MOL0     C  223   1.751   9.290   4.714  0.6260 -0.0349  1.3826
  743MOL0     C  224   1.838   9.217   4.786  0.1300  0.4383 -1.2185
  743MOL0     C  225   2.157   9.043   5.037  1.1376  0.1868 -0.6444
  743MOL0     C  226   2.147   9.052   5.174  0.0887 -0.0491 -0.0184
  743MOL0     C  227   2.220   8.963   5.258 -0.1827 -0.4666 -0.4442
  743MOL0     C  228   2.290   8.859   5.190 -0.2193  0.8443  0.1630
  743MOL0     O  229   2.327   8.762   5.276 -0.2582  0.6015 -0.7253
  743MOL0     C  230   2.418   8.654   5.243  0.1714  0.3923  0.0263
  743MOL0     C  231   2.357   8.546   5.158  0.5199 -0.5095  0.3610
  743MOL0     C  232   2.249   8.457   5.236  1.1601  0.1471 -0.2820
  743MOL0     C  233   2.238   8.309   5.191  0.1562  0.9127 -0.0412
  743MOL0     C  234   2.185   8.298   5.053  0.5131  0.4892 -0.4499
  743MOL0     C  235   2.144   8.292   4.940  0.4265  0.0637  0.7079
  743MOL0     C  236   2.307   8.856   5.051 -0.2052 -0.0972 -0.3150
  743MOL0     C  237   2.234   8.944   4.977 -0.7386 -0.0678 -0.2712
  743MOL0     H  238   1.849   9.407   5.075 -0.4190 -0.5222  0.2365
  743MOL0     H  239   1.689   9.542   4.930 -0.0733 -1.0258  1.1620
  743MOL0     H  240   1.692   9.528   4.535  0.9853  1.0333  1.5507
  743MOL0     H  241   1.586   9.383   4.517 -2.4153 -0.5839  1.1570
  743MOL0     H  242   1.472   9.660   4.549 -2.2185  0.1149  2.0111
  743MOL0     H  243   1.504   9.572   4.398 -1.9366 -2.7916 -1.4466
  743MOL0     H  244   1.343   9.406   4.442  1.1078  0.1926  1.0759
  743MOL0     H  245   1.314   9.468   4.606 -0.7809  1.3028  0.9566
  743MOL0     H  246   1.236   9.677   4.522  3.1393  2.9773 -1.2676
  743MOL0     H  247   1.251   9.650   4.350 -5.4689  2.1244  0.5735
  743MOL0     H  248   1.101   9.497   4.321 -1.1822  1.4610 -0.3543
  743MOL0     H  249   1.116   9.427   4.482  1.3356 -0.1390 -0.8568
  743MOL0     H  250   0.995   9.649   4.561 -3.0238  1.4876 -0.0441
  743MOL0     H  251   0.967   9.688   4.398  0.4307  1.0428  1.0042
  743MOL0     H  252   0.854   9.459   4.360 -0.3548 -3.1643  0.9108
  743MOL0     H  253   0.853   9.443   4.533 -1.4697  2.8671  1.6637
  743MOL0     H  254   0.718   9.661   4.369  0.0880  1.0573  1.5983
  743MOL0     H  255   0.723   9.667   4.552 -2.5677 -0.6293  0.3163
  743MOL0     H  256   0.638   9.402   4.633 -2.7544  0.7484  2.8189
  743MOL0     H  257   0.428   9.230   4.675  0.0074  3.3815  2.3689
  743MOL0     H  258   0.272   9.315   4.653 -1.2742  0.4662 -1.5032
  743MOL0     H  259   0.405   9.160   4.423 -0.7062  0.3204 -1.1639
  743MOL0     H  260   0.260   9.250   4.421  0.5638 -0.0112 -0.8757
  743MOL0     H  261   0.338   9.010   4.607  1.2426 -0.3782 -1.9810
  743MOL0     H  262   0.241   9.019   4.465  2.1894  0.9744 -1.3073
  743MOL0     H  263   0.099   8.965   4.648  0.1129  0.1916  2.5766
  743MOL0     H  264   0.057   9.124   4.594 -0.6913 -0.0639  1.1797
  743MOL0     H  265  -0.054   8.997   4.795 -1.2792  0.7194 -1.9580
  743MOL0     H  266  -0.375   9.100   4.869  0.6377  0.9749  0.9606
  743MOL0     H  267  -0.282   8.967   4.824  1.1336 -1.5525  0.6419
  743MOL0     H  268  -0.307   8.989   4.995  0.7765 -0.7493  0.1576
  743MOL0     H  269  -0.509   9.488   5.014 -0.5151  1.8032  1.2816
  743MOL0     H  270  -0.679   9.596   5.120  2.5514 -0.8325 -0.2743
  743MOL0     H  271  -0.956   9.371   5.390  1.5995  0.4949 -2.4613
  743MOL0     H  272  -0.848   9.416   5.511  1.0139 -3.8492 -3.3661
  743MOL0     H  273  -1.103   9.516   5.547 -0.5323  0.4791 -0.7828
  743MOL0     H  274  -0.965   9.618   5.546 -0.9194 -0.8502  1.0088
  743MOL0     H  275  -1.117   9.564   5.297 -1.5425 -0.6485  0.7921
  743MOL0     H  276  -1.003   9.701   5.324 -0.1659  0.1998 -1.1284
  743MOL0     H  277  -1.263   9.667   5.475  0.2526 -0.8731 -0.9609
  743MOL0     H  278  -1.144   9.796   5.488 -0.0873 -0.1318  1.3559
  743MOL0     H  279  -1.277   9.759   5.219 -2.4017 -1.4812  1.1490
  743MOL0     H  280  -1.195   9.899   5.290 -0.3233  0.9086  0.1791
  743MOL0     H  281  -1.464   9.868   5.267  0.8628  1.2557 -0.0991
  743MOL0     H  282  -1.457   9.793   5.422 -0.0682 -1.4066 -0.6933
  743MOL0     H  283  -1.352  10.071   5.362 -2.2227 -0.4070 -0.5372
  743MOL0     H  284  -1.316   9.986   5.516 -1.6326 -0.4233  1.8951
  743MOL0     H  285  -1.602  10.043   5.407  0.5155  2.8165  0.3625
  743MOL0     H  286  -1.512  10.152   5.524 -1.0672 -0.0311 -0.1223
  743MOL0     H  287  -0.751   9.279   5.389 -1.0112  0.6484 -0.7396
  743MOL0     H  288  -0.563   9.145   5.278  1.7806 -1.1513 -3.3156
  743MOL0     H  289  -0.027   9.427   5.033 -0.1379 -0.6162  0.9789
  743MOL0     H  290   0.166   9.341   4.915  0.5853 -0.8093 -0.0202
  743MOL0     H  291   1.713   9.242   4.625 -2.1699 -0.2581  2.6050
  743MOL0     H  292   1.879   9.126   4.745  0.1620 -0.5925  0.9552
  743MOL0     H  293   2.081   9.124   5.223  2.1123  0.7612  1.6725
  743MOL0     H  294   2.203   8.946   5.364  0.2151  2.5410  0.1710
  743MOL0     H  295   2.507   8.694   5.192  1.1287  1.3451  2.2970
  743MOL0     H  296   2.467   8.607   5.328  2.9409 -1.8653 -2.5823
  743MOL0     H  297   2.444   8.491   5.121  0.3669 -0.7872  0.4122
  743MOL0     H  298   2.308   8.598   5.075  0.4128  1.3779  1.5498
  743MOL0     H  299   2.156   8.508   5.207  0.3313 -0.1608  1.7187
  743MOL0     H  300   2.261   8.486   5.340 -1.2100  1.4553 -0.3026
  743MOL0     H  301   2.168   8.262   5.261  0.6513  2.3790  1.5200
  743MOL0     H  302   2.332   8.253   5.191  0.1547  0.9072 -0.6116
  743MOL0     H  303   2.102   8.317   4.844  0.6664 -0.6122  0.4216
  743MOL0     H  304   2.379   8.786   5.010 -0.7211 -2.1358  1.9457
  743MOL0     H  305   2.232   8.935   4.869 -4.0660 -0.5920 -0.2681
  744MOL0     O  306   0.300   9.976  10.368  0.0682  0.4834 -0.3741
  744MOL0     C  307   0.317   9.866  10.316  0.3880 -0.3742 -0.1821
  744MOL0     O  308   0.418   9.835  10.214  0.1796 -0.3814  0.3850
  744MOL0     C  309   0.487   9.938  10.150  1.0405  0.6462 -1.0466
  744MOL0     C  310   0.462  10.078  10.147 -1.2723  0.1292 -1.2701
  744MOL0     C  311   0.545  10.176  10.080  1.1253  0.6528  0.2125
  744MOL0     C  312   0.641  10.121   9.994 -0.3315  1.0420 -0.2466
  744MOL0     O  313   0.723  10.205   9.924 -0.2261 -0.7365 -1.0658
  744MOL0     C  314   0.731  10.342   9.960  0.1848  0.1171 -0.3811
  744MOL0     C  315   0.849  10.399   9.884  0.2311 -0.1822  0.9349
  744MOL0     C  316   0.857  10.555   9.911 -0.7535  0.3861  0.0545
  744MOL0     C  317   0.984  10.623   9.862  0.8873 -0.3764  1.6236
  744MOL0     C  318   0.976  10.774   9.902 -0.6912 -0.1944  0.3689
  744MOL0     C  319   1.014  10.808  10.050 -0.1586 -0.3956 -0.3154
  744MOL0     C  320   1.157  10.783  10.098 -0.0911  0.8992  1.7758
  744MOL0     C  321   1.192  10.826  10.238 -1.0066  0.0188 -0.0765
  744MOL0     N  322   1.299  10.749  10.300  0.3207 -0.2859 -0.2070
  744MOL0     C  323   1.423  10.731  10.250 -0.5989 -0.2057 -0.7127
  744MOL0     C  324   1.495  10.706  10.351  0.6402 -0.0621 -0.0334
  744MOL0     C  325   1.637  10.686  10.364  0.4359  1.6418 -0.3869
  744MOL0     C  326   1.728  10.807  10.358 -0.2339  0.1571  0.0882
  744MOL0     C  327   1.876  10.772  10.398 -0.1463  0.1906  0.5754
  744MOL0     C  328   1.942  10.675  10.298 -1.0452  0.3001  0.5955
  744MOL0     O  329   1.936  10.537  10.348 -0.4364 -0.1687 -0.2136
  744MOL0     C  330   1.905  10.427  10.266 -0.1016 -0.5279 -0.5616
  744MOL0     C  331   1.824  10.332  10.323 -0.9728  0.2282 -1.2738
  744MOL0     C  332   1.774  10.211  10.268 -0.2949 -0.7361  0.8255
  744MOL0     C  333   1.673  10.129  10.343  0.1293 -0.3230  0.9341
  744MOL0     C  334   1.805  10.203  10.124 -0.4189  0.8415 -1.2380
  744MOL0     C  335   1.739  10.086  10.045 -0.5700  0.1110  0.0836
  744MOL0     O  336   1.754  10.088   9.905 -0.1428 -0.9792  0.2133
  744MOL0     C  337   1.702   9.996   9.834  0.0180  0.3765  1.8545
  744MOL0     C  338   1.566   9.984   9.799 -0.2851  0.0844 -0.5886
  744MOL0     C  339   1.526   9.888   9.711 -0.2998  0.6313 -0.1973
  744MOL0     C  340   1.618   9.800   9.643  0.3345 -0.1527  0.0228
  744MOL0     O  341   1.585   9.704   9.552  0.0258  0.1661 -0.6544
  744MOL0     C  342   1.484   9.609   9.594 -0.0240 -0.3294 -0.1313
  744MOL0     C  343   1.453   9.494   9.500 -0.1934  0.2574 -1.0682
  744MOL0     C  344   1.388   9.373   9.571 -0.1124  0.2724  0.1193
  744MOL0     C  345   1.250   9.389   9.626 -1.0692  0.5441  0.1766
  744MOL0     C  346   1.182   9.251   9.653  0.5946 -0.4883  0.4930
  744MOL0     C  347   1.051   9.257   9.725 -0.2719  0.5492  0.3875
  744MOL0     C  348   0.983   9.125   9.726  0.0893  0.1030 -0.5868
  744MOL0     C  349   0.830   9.111   9.744 -0.6144 -0.3261 -0.6832
  744MOL0    Cl  350   0.766   9.164   9.900 -0.3313 -0.0194 -0.0133
  744MOL0     C  351   1.756   9.825   9.674  0.0657  0.7620 -0.4683
  744MOL0     C  352   1.797   9.911   9.766  0.1602 -0.5227 -0.1347
  744MOL0     O  353   1.695   9.986  10.104 -0.7486  0.1729  0.0111
  744MOL0     C  354   1.877  10.308  10.060  0.8946  0.5536 -0.0391
  744MOL0     C  355   1.934  10.412  10.131 -0.2950  0.1665 -0.8433
  744MOL0     N  356   1.422  10.689  10.470 -0.2057  0.5729 -0.6777
  744MOL0     N  357   1.308  10.718  10.435  0.3459 -0.0934 -0.8692
  744MOL0     C  358   0.648   9.984   9.987 -0.6599  0.2238  0.2039
  744MOL0     C  359   0.582   9.894  10.062 -0.3234 -0.0255 -0.5475
  744MOL0     C  360   0.215   9.768  10.353 -0.3172  0.0749  0.2212
  744MOL0     C  361   0.096   9.792  10.421  0.2484 -0.5666  0.3070
  744MOL0     C  362   0.012   9.683  10.457 -0.1224 -0.8037  0.9151
  744MOL0     C  363   0.035   9.554  10.425  0.4803  1.0180 -0.1011
  744MOL0     O  364  -0.063   9.460  10.451  0.1324 -0.0621 -0.4053
  744MOL0     C  365  -0.055   9.318  10.412 -0.2203  0.0725 -0.4905
  744MOL0     C  366  -0.174   9.252  10.474  0.8871 -0.2470  0.2109
  744MOL0     C  367  -0.211   9.113  10.416  0.1448  0.4646  0.5720
  744MOL0     C  368  -0.253   9.017  10.527 -0.0868  0.3370  0.0895
  744MOL0     C  369  -0.400   9.009  10.544  0.6906  0.6143 -0.8149
  744MOL0     C  370  -0.520   8.999  10.561 -0.3508 -0.0739 -0.2551
  744MOL0     C  371   0.158   9.523  10.363  0.0343 -0.3084  0.5805
  744MOL0     C  372   0.248   9.627  10.330 -0.0135  0.5078 -0.1299
  744MOL0     H  373   0.378  10.131  10.191 -1.3330 -0.2369 -0.9367
  744MOL0     H  374   0.517  10.279  10.096  0.1866  0.4955 -0.3402
  744MOL0     H  375   0.635  10.390   9.939  0.8719  0.6017 -2.7614
  744MOL0     H  376   0.757  10.365  10.063  2.4920 -1.7200 -0.4810
  744MOL0     H  377   0.946  10.357   9.914  1.3704  0.2657 -1.8607
  744MOL0     H  378   0.835  10.364   9.782 -1.1380 -0.6479  1.2573
  744MOL0     H  379   0.775  10.613   9.870 -0.6947  0.8670  0.6125
  744MOL0     H  380   0.851  10.568  10.019  2.0843  0.0108  0.3451
  744MOL0     H  381   1.079  10.576   9.890  0.6635 -0.9627  1.4063
  744MOL0     H  382   0.967  10.624   9.754  1.3931 -0.3261  1.5426
  744MOL0     H  383   1.052  10.820   9.837 -2.1927  3.2340  0.8049
  744MOL0     H  384   0.880  10.818   9.874  0.1099  0.1524 -2.1007
  744MOL0     H  385   0.988  10.915  10.057  0.2415 -0.3722  1.4439
  744MOL0     H  386   0.951  10.748  10.116  0.0634 -1.9557 -1.4787
  744MOL0     H  387   1.186  10.678  10.093  0.2504  1.0485 -0.0628
  744MOL0     H  388   1.227  10.827  10.026  1.1026 -1.8048  1.1850
  744MOL0     H  389   1.103  10.808  10.299  1.2438  2.0225  4.2073
  744MOL0     H  390   1.224  10.930  10.248 -2.7338  0.4769  1.0318
  744MOL0     H  391   1.460  10.750  10.150  2.6121  1.4653  0.6683
  744MOL0     H  392   1.659  10.639  10.460  0.9434 -0.5910 -1.5067
  744MOL0     H  393   1.678  10.609  10.297  0.2399  1.6907 -0.5627
  744MOL0     H  394   1.693  10.881  10.431  1.5511  0.2272  0.9278
  744MOL0     H  395   1.729  10.851  10.258  0.7989 -1.3609 -0.5969
  744MOL0     H  396   1.873  10.739  10.502 -2.2363  4.3064  2.0537
  744MOL0     H  397   1.934  10.865  10.392  2.5412 -1.3914  0.8415
  744MOL0     H  398   2.051  10.684  10.297 -0.7692 -1.8207 -2.5743
  744MOL0     H  399   1.900  10.679  10.196  2.7325 -2.6890 -1.3394
  744MOL0     H  400   1.797  10.365  10.423 -2.4787 -2.4231 -0.6973
  744MOL0     H  401   1.692  10.023  10.328 -0.4977 -0.8541  3.5055
  744MOL0     H  402   1.695  10.149  10.448  1.8553 -3.0071  1.1617
  744MOL0     H  403   1.570  10.133  10.305  1.2611 -0.4175 -2.4525
  744MOL0     H  404   1.482  10.036   9.843  0.1650 -0.8985  1.5877
  744MOL0     H  405   1.421   9.879   9.684  0.2462  2.0756 -3.2228
  744MOL0     H  406   1.527   9.564   9.684 -1.3560  3.3696  2.6362
  744MOL0     H  407   1.385   9.652   9.616 -0.6249 -0.8242 -1.7443
  744MOL0     H  408   1.381   9.530   9.425 -2.0358  1.3551  1.0942
  744MOL0     H  409   1.543   9.458   9.449 -0.5065 -1.4864 -0.4284
  744MOL0     H  410   1.455   9.334   9.649  0.2954 -0.4815 -0.5898
  744MOL0     H  411   1.382   9.297   9.492 -0.0945  1.5919 -1.1895
  744MOL0     H  412   1.245   9.461   9.707 -2.1483  1.2011 -0.4509
  744MOL0     H  413   1.190   9.426   9.542  0.7814  0.7647 -1.1313
  744MOL0     H  414   1.254   9.208   9.723 -2.1196  0.2554  4.0663
  744MOL0     H  415   1.181   9.185   9.566 -0.2941  0.9790 -0.6672
  744MOL0     H  416   1.076   9.286   9.828  3.3035 -4.6045  1.3389
  744MOL0     H  417   0.971   9.322   9.688 -2.2608 -0.6615  2.2541
  744MOL0     H  418   1.020   9.057   9.804  0.8664 -0.1014 -1.1288
  744MOL0     H  419   1.019   9.073   9.637  2.2020 -0.2239  0.3986
  744MOL0     H  420   0.792   9.010   9.723  1.6004 -1.0945 -1.3343
  744MOL0     H  421   0.793   9.170   9.660 -0.6257 -0.2968 -0.6565
  744MOL0     H  422   1.829   9.762   9.624  1.2320  1.5579  0.1764
  744MOL0     H  423   1.904   9.915   9.783  0.4120  1.8793 -1.7689
  744MOL0     H  424   1.894  10.301   9.953  1.1778  3.9696 -0.3287
  744MOL0     H  425   1.995  10.490  10.086  0.0354 -0.0406 -0.7604
  744MOL0     H  426   0.717   9.946   9.912 -1.3765 -1.0644  0.1585
  744MOL0     H  427   0.602   9.788  10.049  3.1006 -0.4110  4.9012
  744MOL0     H  428   0.045   9.885  10.444 -1.0306 -1.4278  1.0754
  744MOL0     H  429  -0.089   9.706  10.489  0.1071 -0.1691  1.1879
  744MOL0     H  430  -0.049   9.296  10.305 -0.5083  0.4474 -0.5865
  744MOL0     H  431   0.027   9.271  10.467  0.7443  4.2142  2.0354
  744MOL0     H  432  -0.253   9.325  10.453  1.7943  0.3193 -1.4622
  744MOL0     H  433  -0.164   9.249  10.583  0.2105 -1.0330  0.2588
  744MOL0     H  434  -0.117   9.066  10.385  1.9758  1.2568  4.2249
  744MOL0     H  435  -0.277   9.103  10.330  0.8284 -2.7382  0.2991
  744MOL0     H  436  -0.211   9.061  10.618  0.0327  1.6713 -0.5877
  744MOL0     H  437  -0.218   8.916  10.503 -3.5893 -0.9009 -0.3132
  744MOL0     H  438  -0.626   8.990  10.576 -0.5413  2.7040  0.6710
  744MOL0     H  439   0.189   9.424  10.331 -1.2117 -0.1067 -1.4336
  744MOL0     H  440   0.336   9.588  10.280  2.4748 -0.1197  4.2424
  745MOL0     O  441   8.216   3.914   4.898  0.2279 -0.0411  1.2546
  745MOL0     C  442   8.221   3.821   4.968 -1.1988  0.3252 -0.0026
  745MOL0     O  443   8.121   3.757   5.012 -0.6123  0.7289  0.1726
  745MOL0     C  444   8.004   3.827   5.044 -0.8653  0.2007 -0.0560
  745MOL0     C  445   7.895   3.750   5.083  0.5734 -0.8877 -0.0116
  745MOL0     C  446   7.778   3.817   5.117 -1.1422  0.8879  0.3523
  745MOL0     C  447   7.773   3.959   5.140  0.9525  0.6745  0.1898
  745MOL0     O  448   7.655   4.015   5.184  0.2185  0.2651 -0.3046
  745MOL0     C  449   7.679   4.095   5.299 -0.4525  0.6167  0.0951
  745MOL0     C  450   7.551   4.080   5.377 -0.1422 -0.5008  0.2133
  745MOL0     C  451   7.542   3.945   5.448  1.2908 -1.4875  0.8517
  745MOL0     C  452   7.617   3.946   5.574  0.2496 -0.3198 -0.3805
  745MOL0     C  453   7.738   3.853   5.539  0.3169  0.3657  1.4993
  745MOL0     C  454   7.853   3.855   5.639 -0.6053  0.4882  0.0772
  745MOL0     C  455   7.927   3.990   5.641 -0.3373  0.2017  0.0935
  745MOL0     C  456   8.015   4.026   5.523 -0.5592 -0.5154  0.9698
  745MOL0     N  457   8.128   3.934   5.521 -0.9251 -0.8086  0.2441
  745MOL0     C  458   8.240   3.923   5.610  0.1221 -0.1444  0.0718
  745MOL0     C  459   8.305   3.809   5.568 -0.5671 -0.5745 -0.9590
  745MOL0     C  460   8.447   3.762   5.639  0.9325  0.0144  0.8859
  745MOL0     C  461   8.561   3.774   5.540 -0.3697 -0.7261  0.5829
  745MOL0     C  462   8.677   3.685   5.592 -0.6177  0.1917  0.3830
  745MOL0     C  463   8.790   3.708   5.495 -0.4487  0.1558 -0.6996
  745MOL0     O  464   8.911   3.663   5.555 -0.4903  0.7388  0.8264
  745MOL0     C  465   9.019   3.628   5.477  0.1792  0.1859 -0.2965
  745MOL0     C  466   9.027   3.651   5.342 -0.6731  0.0127 -0.3675
  745MOL0     C  467   9.140   3.623   5.268  0.0847 -0.0753  0.2426
  745MOL0     C  468   9.156   3.689   5.139 -0.1580  0.0227 -1.0016
  745MOL0     C  469   9.247   3.562   5.330 -0.3706  0.0720 -0.2728
  745MOL0     C  470   9.374   3.521   5.263  0.7755  0.7900  0.5477
  745MOL0     O  471   9.489   3.521   5.342 -0.1093  0.3965  0.6994
  745MOL0     C  472   9.611   3.489   5.280 -1.0559 -0.1138  0.2389
  745MOL0     C  473   9.680   3.369   5.324 -0.1229 -0.3254  0.6690
  745MOL0     C  474   9.806   3.334   5.267  0.2041  0.3202 -0.4271
  745MOL0     C  475   9.848   3.416   5.162 -0.6806 -1.3021  0.2901
  745MOL0     O  476   9.960   3.391   5.090  0.2256  0.1284 -0.1784
  745MOL0     C  477   9.985   3.249   5.065  0.5413  0.2548  0.2056
  745MOL0     C  478  10.104   3.229   4.972  0.2645  0.9226  0.1164
  745MOL0     C  479  10.119   3.086   4.911 -0.6115  0.4317 -0.4757
  745MOL0     C  480  10.202   3.093   4.771 -0.2705  0.4851 -0.0968
  745MOL0     C  481  10.244   2.943   4.723  0.5243  1.0077 -0.4249
  745MOL0     C  482  10.360   2.881   4.812 -0.2796  0.7491 -0.3119
  745MOL0     C  483  10.491   2.961   4.809  0.4422 -0.6489 -0.1908
  745MOL0     C  484  10.610   2.891   4.874  0.8016  0.2651 -0.3110
  745MOL0    Cl  485  10.768   2.972   4.819 -0.0691  0.0274  0.0543
  745MOL0     C  486   9.786   3.534   5.122 -0.4067 -0.7580  1.1686
  745MOL0     C  487   9.668   3.576   5.183 -0.4698  0.2706 -0.3191
  745MOL0     O  488   9.364   3.487   5.148  0.6918  0.7894 -0.1469
  745MOL0     C  489   9.240   3.535   5.473  0.0497 -0.3970  0.1781
  745MOL0     C  490   9.124   3.571   5.543  0.1392  1.0290 -0.0246
  745MOL0     N  491   8.246   3.767   5.453 -0.2746  0.2033  0.1420
  745MOL0     N  492   8.143   3.836   5.423  0.7330 -0.0845 -0.3036
  745MOL0     C  493   7.885   4.038   5.112  0.0034 -0.1716  0.3149
  745MOL0     C  494   8.000   3.971   5.069 -0.1174 -0.7879 -0.1963
  745MOL0     C  495   8.359   3.768   4.998  0.6464 -0.4412  0.4395
  745MOL0     C  496   8.469   3.814   4.916  1.0003 -0.0238  0.6322
  745MOL0     C  497   8.592   3.747   4.925 -0.1391  0.4729  0.1387
  745MOL0     C  498   8.621   3.643   5.009 -0.8018  0.2947 -0.4004
  745MOL0     O  499   8.749   3.588   5.001  0.4660 -0.6901 -0.4475
  745MOL0     C  500   8.767   3.461   5.072  1.0287 -0.8526  0.5279
  745MOL0     C  501   8.701   3.338   5.014 -0.1960  0.1433 -0.1504
  745MOL0     C  502   8.704   3.336   4.859  0.4286  0.1833  0.1302
  745MOL0     C  503   8.843   3.328   4.796  0.2648  0.2518 -0.8285
  745MOL0     C  504   8.929   3.221   4.864  0.5471 -1.0598 -0.3854
  745MOL0     C  505   8.994   3.148   4.930 -1.4024 -0.6823 -0.4641
  745MOL0     C  506   8.520   3.619   5.101 -0.5737  1.4338  0.5681
  745MOL0     C  507   8.394   3.676   5.095  0.1830 -0.1253 -0.0268
  745MOL0     H  508   7.919   3.644   5.089  0.4328 -0.8478  2.1486
  745MOL0     H  509   7.694   3.759   5.154 -0.4972  0.4647  1.1916
  745MOL0     H  510   7.765   4.073   5.363 -0.0301  2.1900  0.1126
  745MOL0     H  511   7.690   4.198   5.262 -2.3786  0.6836 -0.3971
  745MOL0     H  512   7.541   4.168   5.442 -3.5276 -0.3328 -0.3792
  745MOL0     H  513   7.466   4.100   5.311 -0.6526 -0.9759  0.7126
  745MOL0     H  514   7.436   3.926   5.468  0.7705 -1.1633 -1.3722
  745MOL0     H  515   7.568   3.857   5.388  0.9960  0.7152 -2.8155
  745MOL0     H  516   7.649   4.046   5.605 -1.9991  0.4567 -0.3878
  745MOL0     H  517   7.556   3.884   5.640  1.3869 -0.9471  0.1008
  745MOL0     H  518   7.698   3.752   5.547  0.0049  0.4881  1.4792
  745MOL0     H  519   7.770   3.858   5.434 -1.3153 -1.1454  0.8860
  745MOL0     H  520   7.819   3.834   5.741  3.0567 -1.5279  1.0773
  745MOL0     H  521   7.931   3.780   5.622 -0.3989  0.9798 -1.2348
  745MOL0     H  522   7.858   4.074   5.651 -0.1362  0.5431 -1.1489
  745MOL0     H  523   7.983   3.986   5.734 -3.1203  3.9457  2.1635
  745MOL0     H  524   8.059   4.125   5.540  3.7497 -2.2376  0.9585
  745MOL0     H  525   7.957   4.010   5.432 -0.0048 -4.2496  1.1418
  745MOL0     H  526   8.272   3.997   5.682  0.0901  0.9672 -1.0170
  745MOL0     H  527   8.477   3.821   5.725  4.1796 -1.0592  0.6252
  745MOL0     H  528   8.434   3.657   5.668  0.4537 -0.9023 -2.1686
  745MOL0     H  529   8.582   3.880   5.522  3.6275 -1.2670  1.3421
  745MOL0     H  530   8.541   3.730   5.442  3.0785 -1.0448 -0.0873
  745MOL0     H  531   8.658   3.578   5.608 -0.7673  0.3914  1.6745
  745MOL0     H  532   8.713   3.733   5.683  1.2938  0.0858 -0.2653
  745MOL0     H  533   8.796   3.815   5.472 -3.5720  0.8446  1.1586
  745MOL0     H  534   8.768   3.654   5.403 -1.7678  0.4024 -0.5507
  745MOL0     H  535   8.959   3.701   5.274  2.0736  2.7798 -1.3443
  745MOL0     H  536   9.065   3.738   5.104 -1.1022 -0.1682  0.9928
  745MOL0     H  537   9.243   3.755   5.135 -0.1740  0.0314 -1.2327
  745MOL0     H  538   9.172   3.607   5.068  0.0316 -0.5412 -0.3227
  745MOL0     H  539   9.629   3.308   5.398 -2.1558  0.1464 -0.2781
  745MOL0     H  540   9.853   3.241   5.294 -0.3881 -0.0525 -0.6552
  745MOL0     H  541  10.014   3.200   5.158  2.3731  0.3508 -0.2608
  745MOL0     H  542   9.897   3.196   5.028  0.3579  0.9352 -0.3620
  745MOL0     H  543  10.083   3.293   4.885 -1.4425  1.2676  0.7425
  745MOL0     H  544  10.201   3.262   5.010 -0.3905 -0.4896  3.3574
  745MOL0     H  545  10.018   3.045   4.905 -0.6748  0.3581  0.8177
  745MOL0     H  546  10.172   3.021   4.982 -2.0026 -1.5739 -1.1903
  745MOL0     H  547  10.134   3.131   4.695 -1.6316  0.6394  1.1631
  745MOL0     H  548  10.292   3.155   4.782 -1.8428  2.5957  2.0423
  745MOL0     H  549  10.294   2.955   4.627  0.3374 -0.6239 -0.7643
  745MOL0     H  550  10.163   2.869   4.714  1.5758 -0.3031  0.4198
  745MOL0     H  551  10.319   2.875   4.913 -0.8369 -0.2532 -0.5726
  745MOL0     H  552  10.374   2.780   4.772 -1.9113 -0.1223  1.1680
  745MOL0     H  553  10.475   3.052   4.867 -0.9091 -1.0823  0.1611
  745MOL0     H  554  10.519   2.983   4.706 -1.7527  0.6814 -0.5603
  745MOL0     H  555  10.612   2.782   4.867  0.1528  0.1407  1.0332
  745MOL0     H  556  10.611   2.907   4.983  1.9472  1.7462 -0.5083
  745MOL0     H  557   9.842   3.593   5.049 -2.1731 -0.1619  0.2236
  745MOL0     H  558   9.622   3.664   5.141 -1.4350 -0.4836 -0.8944
  745MOL0     H  559   9.307   3.473   5.532  2.2168 -0.4780 -2.1914
  745MOL0     H  560   9.119   3.555   5.650 -1.3663 -0.3714 -0.2709
  745MOL0     H  561   7.902   4.144   5.123  2.0078 -0.6607  3.1212
  745MOL0     H  562   8.085   4.038   5.056  0.8792 -1.6414  1.5106
  745MOL0     H  563   8.451   3.895   4.845  2.2185  0.7322  1.1598
  745MOL0     H  564   8.669   3.783   4.858 -3.2235  1.8413 -2.9141
  745MOL0     H  565   8.875   3.446   5.063  1.6752  3.1107 -0.0735
  745MOL0     H  566   8.732   3.464   5.176  0.3145  0.4758  0.2688
  745MOL0     H  567   8.596   3.338   5.044 -0.6065  1.3249 -1.4945
  745MOL0     H  568   8.744   3.253   5.067  0.0854  0.0085 -0.5945
  745MOL0     H  569   8.633   3.415   4.832 -0.2473 -0.5117 -0.1748
  745MOL0     H  570   8.651   3.247   4.823  0.8680 -0.4596  1.0313
  745MOL0     H  571   8.883   3.429   4.811  1.3234 -0.1069 -1.1184
  745MOL0     H  572   8.838   3.306   4.689 -1.5197 -1.1748 -0.5043
  745MOL0     H  573   9.057   3.069   4.965 -0.2604 -1.1813 -3.3512
  745MOL0     H  574   8.535   3.554   5.186 -0.4204  2.7821  1.6014
  745MOL0     H  575   8.318   3.651   5.168  0.3262  0.6253  0.3861
  746MOL0     O  576   1.981   7.149   0.645  0.0312 -0.0968 -0.3975
  746MOL0     C  577   1.933   7.151   0.531  0.1606 -0.8780 -0.0684
  746MOL0     O  578   1.811   7.195   0.503  0.7363  0.1499  0.0541
  746MOL0     C  579   1.735   7.263   0.596 -0.3251  0.2760  0.5776
  746MOL0     C  580   1.783   7.366   0.673 -1.1737 -0.4111  0.2257
  746MOL0     C  581   1.706   7.434   0.760  0.1623  0.6953  0.5210
  746MOL0     C  582   1.573   7.413   0.767  0.5879 -0.3677  0.1296
  746MOL0     O  583   1.494   7.481   0.849  0.6080 -0.9588  0.7943
  746MOL0     C  584   1.434   7.615   0.816 -0.3757 -0.5786 -0.5166
  746MOL0     C  585   1.535   7.727   0.836 -0.0615 -0.5263 -0.6610
  746MOL0     C  586   1.584   7.722   0.978 -0.4716 -0.0673 -0.6484
  746MOL0     C  587   1.659   7.844   1.014  0.2212 -0.8113 -0.3465
  746MOL0     C  588   1.802   7.823   0.972  0.4611  0.4931  0.4550
  746MOL0     C  589   1.889   7.932   1.022  0.9230  0.2629 -0.3025
  746MOL0     C  590   2.034   7.926   0.972 -0.0106  0.5780 -0.2299
  746MOL0     C  591   2.126   8.057   0.982  0.7096  0.9325  0.5789
  746MOL0     N  592   2.137   8.105   1.119  0.8849 -0.4469  0.4973
  746MOL0     C  593   2.089   8.218   1.171  0.7056  0.5637  0.6685
  746MOL0     C  594   2.100   8.216   1.301 -0.1407  0.3155  1.0549
  746MOL0     C  595   2.044   8.297   1.409  0.5337 -1.0233 -0.0820
  746MOL0     C  596   1.892   8.258   1.429  0.3770  0.4530 -0.7630
  746MOL0     C  597   1.890   8.137   1.524 -0.0884  0.1711 -0.1884
  746MOL0     C  598   1.748   8.104   1.574 -0.2144 -0.6500  0.3624
  746MOL0     O  599   1.758   8.010   1.689  0.1878 -0.9345 -0.1855
  746MOL0     C  600   1.652   7.921   1.713 -0.4132 -0.1236 -0.1753
  746MOL0     C  601   1.681   7.800   1.777 -0.2500 -0.3124 -0.5449
  746MOL0     C  602   1.578   7.713   1.822 -0.1026 -0.9322  0.1923
  746MOL0     C  603   1.639   7.581   1.872 -0.4618 -0.3552  0.2114
  746MOL0     C  604   1.448   7.749   1.807  1.0609  0.4701  1.0005
  746MOL0     C  605   1.341   7.665   1.831  0.9514 -0.4344 -0.1576
  746MOL0     O  606   1.351   7.563   1.921  0.5830 -0.4029 -0.1444
  746MOL0     C  607   1.226   7.514   1.967 -0.9808  0.1884 -0.4904
  746MOL0     C  608   1.126   7.458   1.880 -0.1441  0.6769 -0.2447
  746MOL0     C  609   1.001   7.400   1.921 -0.9175  0.7380 -0.5769
  746MOL0     C  610   0.976   7.399   2.054  0.4188 -0.1801 -0.3681
  746MOL0     O  611   0.867   7.324   2.094 -0.0217  0.1115  1.0415
  746MOL0     C  612   0.834   7.332   2.229  0.3349  0.0843 -1.1072
  746MOL0     C  613   0.755   7.463   2.234 -1.7352  0.1187  0.3961
  746MOL0     C  614   0.616   7.482   2.176 -0.0669 -0.5959  1.0197
  746MOL0     C  615   0.604   7.491   2.022 -1.0375  0.2885 -0.3487
  746MOL0     C  616   0.486   7.575   1.972 -0.1815 -0.0036 -1.0007
  746MOL0     C  617   0.454   7.558   1.831 -0.2979 -0.6594  0.1711
  746MOL0     C  618   0.350   7.663   1.773 -0.0890  0.5967 -0.8114
  746MOL0     C  619   0.357   7.676   1.623 -1.0945 -0.4371 -0.4110
  746MOL0    Cl  620   0.252   7.827   1.596 -0.0102  0.3087  0.0178
  746MOL0     C  621   1.085   7.445   2.143  0.5708 -0.4278  0.6530
  746MOL0     C  622   1.207   7.509   2.102  0.0328 -0.5010  0.6047
  746MOL0     O  623   1.229   7.708   1.797 -0.7953 -0.2396  0.6342
  746MOL0     C  624   1.426   7.875   1.749 -0.0235  0.0286  0.3207
  746MOL0     C  625   1.526   7.967   1.707 -0.0229 -0.1373 -0.9328
  746MOL0     N  626   2.164   8.095   1.333  0.2947 -0.3825  0.4248
  746MOL0     N  627   2.184   8.033   1.223  0.4504  0.0487  0.4558
  746MOL0     C  628   1.512   7.314   0.683  0.5670 -0.9784  1.1813
  746MOL0     C  629   1.593   7.234   0.595 -0.0868  0.1176 -0.3448
  746MOL0     C  630   2.009   7.077   0.427  1.0067  0.3351  0.5543
  746MOL0     C  631   2.104   6.971   0.454  0.4385  0.0344  1.0523
  746MOL0     C  632   2.176   6.921   0.349 -1.1313  0.3360  0.7117
  746MOL0     C  633   2.159   6.959   0.215  0.3099 -1.0565 -0.1183
  746MOL0     O  634   2.240   6.901   0.125 -0.5722  0.0306  0.6975
  746MOL0     C  635   2.228   6.939  -0.014  0.2155 -0.5343  0.3204
  746MOL0     C  636   2.305   6.847  -0.104 -0.0853 -0.5221 -0.3887
  746MOL0     C  637   2.312   6.698  -0.072  1.0292 -0.1186 -0.0198
  746MOL0     C  638   2.432   6.627  -0.129  0.5327 -0.1484  0.0964
  746MOL0     C  639   2.422   6.619  -0.284  0.9952  0.3171  0.1735
  746MOL0     C  640   2.410   6.628  -0.405 -0.3121 -0.2012  0.0649
  746MOL0     C  641   2.073   7.068   0.196  0.9540  0.3842  1.2120
  746MOL0     C  642   1.987   7.119   0.294 -0.1862 -0.6554  0.0775
  746MOL0     H  643   1.889   7.390   0.681 -1.1499 -0.7817  1.2360
  746MOL0     H  644   1.763   7.501   0.824  0.9707  0.6163 -0.1084
  746MOL0     H  645   1.391   7.630   0.717 -0.3787  2.8292 -0.1100
  746MOL0     H  646   1.353   7.623   0.889 -0.9268  2.1561 -1.3176
  746MOL0     H  647   1.620   7.726   0.767  0.0123  0.6355 -0.5947
  746MOL0     H  648   1.470   7.814   0.830  0.7742  0.0832 -1.0036
  746MOL0     H  649   1.498   7.720   1.044  0.5664  0.5665  0.7659
  746MOL0     H  650   1.645   7.631   0.984  1.0013  0.7589 -2.1179
  746MOL0     H  651   1.616   7.936   0.975  1.4648 -0.0541 -0.0030
  746MOL0     H  652   1.662   7.856   1.123  0.2454  1.4043 -0.5377
  746MOL0     H  653   1.835   7.725   1.007 -0.5499 -0.3839 -0.9146
  746MOL0     H  654   1.804   7.825   0.862  1.7881  0.8931  0.4617
  746MOL0     H  655   1.852   8.027   0.984  2.1165  0.1573 -1.8465
  746MOL0     H  656   1.885   7.934   1.132 -1.1704  2.8461 -0.3270
  746MOL0     H  657   2.086   7.845   1.023  0.9392  1.5009  0.3107
  746MOL0     H  658   2.024   7.908   0.864  0.2153  0.9390 -0.3131
  746MOL0     H  659   2.081   8.122   0.907 -0.7547 -1.0382 -0.3581
  746MOL0     H  660   2.222   8.036   0.935 -1.6853 -3.9547 -3.1578
  746MOL0     H  661   2.018   8.272   1.108 -1.1328 -1.1669  1.1392
  746MOL0     H  662   2.109   8.283   1.497  0.0775 -2.9260 -0.0042
  746MOL0     H  663   2.044   8.403   1.381 -2.6090 -1.5551 -2.5652
  746MOL0     H  664   1.830   8.244   1.340 -0.2434  0.1346 -0.2930
  746MOL0     H  665   1.838   8.334   1.486 -2.2784 -0.5784 -1.7635
  746MOL0     H  666   1.957   8.149   1.609 -1.4596 -0.9782  1.1295
  746MOL0     H  667   1.912   8.046   1.466 -0.4678  0.7241 -1.2418
  746MOL0     H  668   1.684   8.065   1.494 -0.2070 -1.2947  0.6670
  746MOL0     H  669   1.693   8.193   1.605  0.0300 -0.7289  1.0301
  746MOL0     H  670   1.784   7.776   1.801  0.2055 -3.0659 -4.3039
  746MOL0     H  671   1.648   7.585   1.981  2.3609 -2.7024  0.1817
  746MOL0     H  672   1.573   7.498   1.848  0.2728 -1.9047  3.0739
  746MOL0     H  673   1.730   7.556   1.818 -0.8982 -0.4544 -0.4823
  746MOL0     H  674   1.136   7.456   1.772 -0.9673  2.0348 -0.3793
  746MOL0     H  675   0.928   7.346   1.862 -2.8131  1.1133  1.3095
  746MOL0     H  676   0.768   7.246   2.245 -0.6099  0.7756 -1.1840
  746MOL0     H  677   0.917   7.331   2.300  0.4810  1.4653 -1.2309
  746MOL0     H  678   0.740   7.493   2.338 -0.5799 -0.1945  0.6695
  746MOL0     H  679   0.815   7.539   2.184 -1.6239 -0.7380 -0.8012
  746MOL0     H  680   0.567   7.570   2.218 -2.0927 -1.5491  0.7801
  746MOL0     H  681   0.549   7.401   2.207 -0.3352 -1.3735 -1.3445
  746MOL0     H  682   0.699   7.532   1.985 -1.2284  0.5329 -0.5687
  746MOL0     H  683   0.590   7.389   1.986 -1.0028  0.6733 -1.4827
  746MOL0     H  684   0.510   7.679   1.993  1.1139 -0.6844  1.2565
  746MOL0     H  685   0.390   7.551   2.017 -0.5031  1.0939 -1.0772
  746MOL0     H  686   0.548   7.573   1.775 -0.3379 -1.5302 -0.1414
  746MOL0     H  687   0.419   7.459   1.801  0.0404 -0.6967 -0.1156
  746MOL0     H  688   0.380   7.755   1.823 -0.7000 -0.4512  1.6098
  746MOL0     H  689   0.248   7.638   1.802 -0.4910 -1.0715 -3.3184
  746MOL0     H  690   0.312   7.593   1.567 -4.0007  0.2197  0.7874
  746MOL0     H  691   0.459   7.694   1.589 -0.7285 -0.4401  0.6470
  746MOL0     H  692   1.086   7.421   2.249  1.0442 -3.0374  0.1330
  746MOL0     H  693   1.277   7.552   2.173 -1.5174 -0.0760  1.9371
  746MOL0     H  694   1.329   7.915   1.720  1.1327  0.2710 -3.8690
  746MOL0     H  695   1.494   8.065   1.674  1.6960  1.2359  1.1691
  746MOL0     H  696   1.404   7.315   0.677  0.6153 -0.0501 -3.2342
  746MOL0     H  697   1.551   7.155   0.534 -0.6587 -1.4499  1.9413
  746MOL0     H  698   2.114   6.933   0.555 -0.3707 -1.3044  0.6535
  746MOL0     H  699   2.260   6.855   0.367 -2.4605 -1.5942  0.1230
  746MOL0     H  700   2.123   6.946  -0.045 -0.9114 -2.6035  3.2429
  746MOL0     H  701   2.276   7.037  -0.026 -3.0491  0.9878 -1.8589
  746MOL0     H  702   2.407   6.886  -0.113  0.1571 -0.9512  0.3523
  746MOL0     H  703   2.267   6.860  -0.206 -0.9685  0.8540  0.0804
  746MOL0     H  704   2.217   6.654  -0.103 -0.6808  3.8189 -0.9763
  746MOL0     H  705   2.292   6.692   0.036  0.5132  0.8271 -0.0498
  746MOL0     H  706   2.425   6.527  -0.085  2.5931  1.4345  4.5324
  746MOL0     H  707   2.524   6.676  -0.096 -1.4973  3.7369  0.5871
  746MOL0     H  708   2.386   6.633  -0.510  0.4596  2.1477 -0.0538
  746MOL0     H  709   2.083   7.117   0.100  2.3835 -2.2462 -0.0899
  746MOL0     H  710   1.919   7.200   0.269  1.8712  0.7133 -1.3948
  747MOL0     O  711   3.072   8.787   3.431  0.4063  0.0007  0.2581
  747MOL0     C  712   3.124   8.870   3.513 -0.4377 -0.1633  1.0692
  747MOL0     O  713   3.240   8.846   3.582  1.1198 -0.7096  0.3371
  747MOL0     C  714   3.333   8.754   3.535  0.2747  0.0074 -0.4817
  747MOL0     C  715   3.441   8.731   3.624  0.0818 -0.3052 -0.7248
  747MOL0     C  716   3.549   8.649   3.594  0.6570  0.3694 -0.5838
  747MOL0     C  717   3.538   8.582   3.469 -0.4181  0.2026  0.1605
  747MOL0     O  718   3.628   8.484   3.430  0.2014 -0.1263 -0.0598
  747MOL0     C  719   3.766   8.487   3.471  0.6725 -1.6219 -0.1976
  747MOL0     C  720   3.840   8.377   3.407  0.0319  0.6132 -0.4790
  747MOL0     C  721   3.856   8.387   3.254  0.0154  0.1002  0.4623
  747MOL0     C  722   3.961   8.282   3.209  0.0928 -0.4550 -0.0146
  747MOL0     C  723   3.986   8.286   3.059  0.2031  0.1379 -0.1724
  747MOL0     C  724   4.076   8.173   3.015  0.5669  0.0673  0.9584
  747MOL0     C  725   4.132   8.189   2.873  0.5373 -0.2213 -0.7741
  747MOL0     C  726   4.226   8.309   2.864 -0.0645 -0.9172  0.5861
  747MOL0     N  727   4.304   8.310   2.738 -0.5233 -0.2789  1.0494
  747MOL0     C  728   4.276   8.401   2.640 -1.0709  0.3518  1.3254
  747MOL0     C  729   4.378   8.377   2.547  0.4005  0.1579 -0.7713
  747MOL0     C  730   4.403   8.444   2.421 -0.2936  0.0868  0.3123
  747MOL0     C  731   4.489   8.571   2.421  0.8834  0.7479  0.3861
  747MOL0     C  732   4.619   8.558   2.503  0.3006 -0.7431 -0.1964
  747MOL0     C  733   4.729   8.639   2.434 -0.3901  0.0593 -0.8516
  747MOL0     O  734   4.685   8.773   2.426 -1.0532  0.0827  0.0252
  747MOL0     C  735   4.664   8.837   2.546  0.4652  0.0142  0.6401
  747MOL0     C  736   4.757   8.842   2.651  0.3396  0.4759  0.0524
  747MOL0     C  737   4.728   8.907   2.769 -0.2537  0.8255  0.7937
  747MOL0     C  738   4.822   8.868   2.887  0.3789  0.3173 -0.9066
  747MOL0     C  739   4.614   8.978   2.780  0.6520  0.1851  0.4585
  747MOL0     C  740   4.567   9.045   2.901 -0.6426 -0.2872 -0.4291
  747MOL0     O  741   4.450   9.100   2.900  0.3031 -0.5045  0.7510
  747MOL0     C  742   4.413   9.203   2.986  0.0723 -0.6159 -0.2902
  747MOL0     C  743   4.341   9.175   3.101  0.1229 -0.4653 -0.1536
  747MOL0     C  744   4.307   9.275   3.196 -0.2434  1.4918 -0.0565
  747MOL0     C  745   4.331   9.409   3.165 -0.7443  0.1199 -0.7650
  747MOL0     O  746   4.304   9.512   3.248  0.4737  0.0500 -0.7182
  747MOL0     C  747   4.197   9.489   3.337  0.7381  0.4749  0.1555
  747MOL0     C  748   4.165   9.617   3.408  0.4072  0.2057  0.7646
  747MOL0     C  749   4.092   9.713   3.329 -0.0868 -0.0776 -1.0166
  747MOL0     C  750   4.020   9.822   3.403  0.1058 -0.3009 -0.0424
  747MOL0     C  751   4.114   9.891   3.505 -0.6454 -0.0315 -0.6578
  747MOL0     C  752   4.060  10.014   3.581  0.0687 -0.3000  0.6075
  747MOL0     C  753   4.011   9.972   3.719  0.3253  0.0235 -0.2123
  747MOL0     C  754   3.936  10.072   3.798 -0.1121 -0.1846 -0.0777
  747MOL0    Cl  755   3.869   9.999   3.958 -0.0304  0.1085 -0.0060
  747MOL0     C  756   4.395   9.443   3.040  0.2465  0.0510  0.3116
  747MOL0     C  757   4.446   9.338   2.964  0.3119  0.0001  0.0826
  747MOL0     O  758   4.638   9.042   3.000  0.5073 -0.6897 -0.5123
  747MOL0     C  759   4.519   8.977   2.672  1.2330 -0.3416  0.0332
  747MOL0     C  760   4.547   8.908   2.552 -0.1022  0.0287  0.2003
  747MOL0     N  761   4.452   8.276   2.591 -0.5701 -0.4858  0.2011
  747MOL0     N  762   4.422   8.243   2.709  0.0919 -0.5314 -0.2414
  747MOL0     C  763   3.446   8.620   3.369 -0.5630 -0.3243 -0.0276
  747MOL0     C  764   3.341   8.698   3.406  0.0313  0.1178  0.6759
  747MOL0     C  765   3.046   8.994   3.559  0.0091 -0.0010  0.1173
  747MOL0     C  766   3.099   9.114   3.590 -0.0148  0.5076 -0.4873
  747MOL0     C  767   3.025   9.223   3.618 -0.7418  0.3053  0.2813
  747MOL0     C  768   2.894   9.226   3.593 -0.1168  0.7202  0.0600
  747MOL0     O  769   2.809   9.331   3.608  0.4610 -0.6786 -0.6861
  747MOL0     C  770   2.869   9.458   3.650 -0.0241  0.0101  0.4305
  747MOL0     C  771   2.775   9.587   3.644 -0.4497  0.1812 -0.6619
  747MOL0     C  772   2.669   9.579   3.754 -0.2427 -0.1647 -0.8941
  747MOL0     C  773   2.554   9.676   3.734 -0.5471 -0.9863  0.1017
  747MOL0     C  774   2.455   9.642   3.830  1.7426 -0.1093 -0.0546
  747MOL0     C  775   2.358   9.640   3.908  0.8984  0.0945 -0.1688
  747MOL0     C  776   2.828   9.116   3.557  0.2444  1.8591  0.3957
  747MOL0     C  777   2.906   8.999   3.538  0.3186 -0.4734  0.5329
  747MOL0     H  778   3.446   8.788   3.717  0.3813  4.2312 -3.2552
  747MOL0     H  779   3.629   8.628   3.664  3.1593 -0.6483 -3.5407
  747MOL0     H  780   3.819   8.582   3.461  0.9148 -1.3111  2.9787
  747MOL0     H  781   3.770   8.492   3.580  1.0899  2.3796 -0.2416
  747MOL0     H  782   3.934   8.353   3.458 -1.5533 -1.1491  1.8282
  747MOL0     H  783   3.780   8.285   3.414 -3.2600  2.6518 -0.1066
  747MOL0     H  784   3.756   8.365   3.214  0.1310 -4.4811  2.0331
  747MOL0     H  785   3.887   8.487   3.224 -1.5473  0.9819  1.6273
  747MOL0     H  786   4.051   8.300   3.268 -1.6529  1.7682  2.1651
  747MOL0     H  787   3.928   8.179   3.225  0.8706 -0.5926  0.7859
  747MOL0     H  788   3.896   8.274   2.998  0.2630  2.3730 -0.7746
  747MOL0     H  789   4.024   8.387   3.041  0.0186  0.4212  0.9590
  747MOL0     H  790   4.161   8.177   3.084  2.5442  3.2080 -1.3849
  747MOL0     H  791   4.021   8.078   3.013 -2.4168  1.6262 -2.3603
  747MOL0     H  792   4.177   8.095   2.838 -1.9369 -2.0229  0.5769
  747MOL0     H  793   4.049   8.198   2.803 -0.1040  0.8268  0.1065
  747MOL0     H  794   4.301   8.312   2.943  2.1719 -1.0132 -1.3991
  747MOL0     H  795   4.178   8.407   2.869 -1.7462 -1.7808  2.3969
  747MOL0     H  796   4.195   8.473   2.646 -0.3482  1.0682  4.1869
  747MOL0     H  797   4.441   8.375   2.346  1.0798  1.0738  0.0557
  747MOL0     H  798   4.308   8.485   2.386 -0.7828  2.9595  4.2804
  747MOL0     H  799   4.426   8.657   2.447  0.9742  1.6412 -2.1343
  747MOL0     H  800   4.512   8.609   2.322 -0.4169  1.1743  0.2218
  747MOL0     H  801   4.654   8.454   2.503 -0.9790 -1.1952 -0.6826
  747MOL0     H  802   4.613   8.580   2.610 -0.0439 -1.7257 -0.0028
  747MOL0     H  803   4.744   8.600   2.333  0.6572 -0.7748 -0.3994
  747MOL0     H  804   4.823   8.644   2.490 -0.3544  1.8215 -1.0139
  747MOL0     H  805   4.851   8.790   2.636 -1.1888 -2.8044  0.9052
  747MOL0     H  806   4.851   8.957   2.945  2.2786 -0.5503 -0.4287
  747MOL0     H  807   4.771   8.797   2.953  1.2177  0.3946 -0.1400
  747MOL0     H  808   4.902   8.810   2.840 -3.4759 -3.1977 -3.8093
  747MOL0     H  809   4.289   9.080   3.108 -0.5139 -0.1745 -0.8019
  747MOL0     H  810   4.262   9.239   3.288 -0.8031  2.3501  0.0234
  747MOL0     H  811   4.115   9.453   3.274 -1.2712  2.1884  1.6928
  747MOL0     H  812   4.210   9.417   3.418 -1.4131  1.2521  1.2670
  747MOL0     H  813   4.093   9.600   3.489  2.6112  0.7920  2.9385
  747MOL0     H  814   4.258   9.652   3.453  0.4778  2.3086 -0.8358
  747MOL0     H  815   4.009   9.658   3.284 -2.2503  0.8299  1.5858
  747MOL0     H  816   4.139   9.763   3.243  1.1572  1.6570  0.5964
  747MOL0     H  817   3.981   9.897   3.333  0.5444  1.4382  1.5112
  747MOL0     H  818   3.934   9.780   3.455 -0.9828 -2.2267 -3.1246
  747MOL0     H  819   4.204   9.911   3.446 -1.4657 -0.4911 -2.1103
  747MOL0     H  820   4.137   9.816   3.581 -2.0642  0.8360  0.6866
  747MOL0     H  821   4.139  10.089   3.590  1.4673 -1.3355 -2.0106
  747MOL0     H  822   3.971  10.056   3.533  0.5610 -1.5289 -1.4644
  747MOL0     H  823   4.100   9.959   3.780  0.5540  0.3733 -0.4682
  747MOL0     H  824   3.956   9.878   3.714 -1.5427  1.0723 -0.3339
  747MOL0     H  825   3.851  10.120   3.749 -0.9136  0.9008  2.2533
  747MOL0     H  826   4.008  10.152   3.820 -0.5638  0.4710 -0.9066
  747MOL0     H  827   4.391   9.545   3.003 -3.2892 -0.5459 -1.4025
  747MOL0     H  828   4.499   9.350   2.870  1.1442 -1.8709  0.2666
  747MOL0     H  829   4.427   9.033   2.678  2.0102  1.0416 -0.6276
  747MOL0     H  830   4.483   8.909   2.465  0.9193 -0.9457 -0.5844
  747MOL0     H  831   3.470   8.593   3.267  0.4382  2.6027 -0.6686
  747MOL0     H  832   3.267   8.719   3.329  0.9102  3.1147  0.5228
  747MOL0     H  833   3.204   9.131   3.609  0.2914 -1.5927 -0.1091
  747MOL0     H  834   3.077   9.313   3.651  1.7638 -0.9150 -0.0986
  747MOL0     H  835   2.900   9.446   3.754  1.0972 -1.0715  0.0013
  747MOL0     H  836   2.962   9.480   3.595 -0.6054  0.2310 -0.4881
  747MOL0     H  837   2.726   9.590   3.546  0.5235 -0.8532 -1.2123
  747MOL0     H  838   2.841   9.671   3.668  0.0691 -0.8640  1.9006
  747MOL0     H  839   2.708   9.589   3.856 -1.4076 -1.8295 -0.2326
  747MOL0     H  840   2.625   9.479   3.750  0.1445 -0.3179 -4.6253
  747MOL0     H  841   2.508   9.668   3.635 -2.2320  1.0092  0.6465
  747MOL0     H  842   2.585   9.779   3.754 -0.0778 -0.9438 -0.7624
  747MOL0     H  843   2.267   9.646   3.965  1.1913  1.4633  0.1995
  747MOL0     H  844   2.721   9.104   3.543  0.3929  0.6335  0.1711
  747MOL0     H  845   2.865   8.900   3.525  1.4580 -1.5127  3.8225
  748MOL0     O  846   9.189   2.930   7.702  0.7846 -0.5235  0.3477
  748MOL0     C  847   9.299   2.969   7.744 -0.9285 -0.4828  0.4461
  748MOL0     O  848   9.391   3.044   7.673 -0.4521  0.6354  0.0533
  748MOL0     C  849   9.340   3.123   7.570  0.3974 -0.1661  0.2893
  748MOL0     C  850   9.340   3.080   7.438  0.2611 -0.8466 -0.1286
  748MOL0     C  851   9.304   3.168   7.328 -0.2017  0.2014 -0.5295
  748MOL0     C  852   9.263   3.300   7.356 -0.4610  0.1587 -0.2404
  748MOL0     O  853   9.234   3.396   7.261  0.3246  0.3031  0.1734
  748MOL0     C  854   9.255   3.373   7.128  0.3890  0.8343  1.1345
  748MOL0     C  855   9.123   3.318   7.063 -0.4413 -0.0031 -0.0446
  748MOL0     C  856   9.018   3.419   7.066  0.5524 -0.2314 -0.0753
  748MOL0     C  857   8.910   3.378   6.971  0.2792  0.5346  0.5409
  748MOL0     C  858   8.788   3.478   6.968 -1.0194 -0.4486  0.1651
  748MOL0     C  859   8.681   3.423   6.878 -0.0464  0.2155  0.0436
  748MOL0     C  860   8.533   3.474   6.908 -0.0157  0.2419  0.4719
  748MOL0     C  861   8.467   3.397   7.018 -0.2533  0.2911  0.1492
  748MOL0     N  862   8.469   3.255   7.006  1.0947 -0.2790  0.4565
  748MOL0     C  863   8.561   3.167   7.069  1.0963  0.0115  0.1796
  748MOL0     C  864   8.511   3.046   7.023  0.8051 -0.9441  0.9724
  748MOL0     C  865   8.561   2.912   7.057 -0.3636  0.5410  0.5172
  748MOL0     C  866   8.556   2.791   6.966 -0.2734  0.1083  0.3721
  748MOL0     C  867   8.478   2.661   6.997  0.6650 -0.3948  0.7887
  748MOL0     C  868   8.329   2.675   6.958  0.5395  1.0980 -1.0445
  748MOL0     O  869   8.265   2.550   6.997  0.3788 -0.4990 -0.1742
  748MOL0     C  870   8.135   2.538   6.954 -0.7482  0.4213 -0.4385
  748MOL0     C  871   8.094   2.401   6.950 -0.9437 -0.0138  1.4464
  748MOL0     C  872   7.966   2.358   6.915  0.9159  0.5864  0.8884
  748MOL0     C  873   7.952   2.207   6.914  0.6230 -0.2109 -0.0776
  748MOL0     C  874   7.868   2.461   6.891 -0.3476  0.6651  0.7842
  748MOL0     C  875   7.720   2.431   6.849 -0.5798 -0.4073 -0.0419
  748MOL0     O  876   7.661   2.526   6.766  0.0988 -0.1548 -0.3151
  748MOL0     C  877   7.528   2.540   6.772  0.5205 -1.5235  0.5853
  748MOL0     C  878   7.451   2.544   6.890  0.5640  0.0654  0.4568
  748MOL0     C  879   7.315   2.541   6.879 -0.1985 -0.2105  0.7954
  748MOL0     C  880   7.247   2.530   6.763  0.1242 -0.2299  0.2797
  748MOL0     O  881   7.112   2.540   6.751 -0.2095  0.1940  0.1599
  748MOL0     C  882   7.033   2.550   6.871 -0.0172  0.6978  0.9706
  748MOL0     C  883   7.022   2.694   6.921 -0.1990 -0.2758 -0.7429
  748MOL0     C  884   6.917   2.770   6.841  0.4743  0.1239  0.2223
  748MOL0     C  885   6.896   2.909   6.900 -0.8358  0.0705  0.2673
  748MOL0     C  886   6.840   3.012   6.803  0.2659 -0.8780 -0.0517
  748MOL0     C  887   6.846   3.157   6.845 -0.4552  0.1833 -0.1966
  748MOL0     C  888   6.768   3.247   6.755  0.1708  0.1709  0.0762
  748MOL0     C  889   6.834   3.387   6.757 -0.3839  0.4490  0.0560
  748MOL0    Cl  890   6.996   3.418   6.667  0.0451  0.1047  0.4269
  748MOL0     C  891   7.323   2.544   6.646  0.2547 -0.0083 -0.9500
  748MOL0     C  892   7.465   2.547   6.649 -0.4129 -0.1505 -0.0874
  748MOL0     O  893   7.664   2.339   6.902  1.0852  0.3249  0.5156
  748MOL0     C  894   7.912   2.594   6.890 -0.0054 -0.3431  0.9261
  748MOL0     C  895   8.044   2.624   6.914  1.1691 -0.1791 -1.1570
  748MOL0     N  896   8.398   3.073   6.943 -0.3439 -0.0228 -0.2746
  748MOL0     N  897   8.367   3.195   6.938  0.3884 -0.0250  1.2127
  748MOL0     C  898   9.259   3.336   7.495 -0.0792 -0.5985  0.5427
  748MOL0     C  899   9.293   3.252   7.602  0.9579 -0.1542  0.1748
  748MOL0     C  900   9.344   2.918   7.873 -0.3582  0.0622  0.0024
  748MOL0     C  901   9.458   2.968   7.937 -0.2844 -0.0271  0.4014
  748MOL0     C  902   9.485   2.926   8.067  0.5549 -0.0608  0.3170
  748MOL0     C  903   9.423   2.830   8.136  0.3305  0.0406  0.7689
  748MOL0     O  904   9.477   2.804   8.262 -0.2464  0.8310 -0.2613
  748MOL0     C  905   9.401   2.727   8.354 -0.0392 -0.1015 -0.3148
  748MOL0     C  906   9.475   2.692   8.483 -0.1056 -0.2758  0.9085
  748MOL0     C  907   9.541   2.805   8.556  0.2661 -0.2072 -0.1852
  748MOL0     C  908   9.629   2.765   8.680 -1.0999 -0.3231  0.5755
  748MOL0     C  909   9.582   2.840   8.800 -0.7184  0.9841 -0.1179
  748MOL0     C  910   9.562   2.911   8.896 -0.0637  0.0133  0.5642
  748MOL0     C  911   9.306   2.782   8.073 -1.0083  0.3502  1.1491
  748MOL0     C  912   9.269   2.822   7.939 -0.0090  0.3654 -0.0944
  748MOL0     H  913   9.370   2.979   7.410  1.9243  0.5396 -4.0768
  748MOL0     H  914   9.309   3.123   7.229 -4.2503 -1.9442  0.0094
  748MOL0     H  915   9.279   3.467   7.078  0.2929  1.3436  2.0218
  748MOL0     H  916   9.336   3.302   7.115  1.1404  1.7779  0.5082
  748MOL0     H  917   9.150   3.307   6.958  0.0457  3.0512 -0.3097
  748MOL0     H  918   9.096   3.219   7.103 -3.2124 -0.3956 -2.5764
  748MOL0     H  919   8.975   3.439   7.164 -3.1534 -0.0854 -1.5702
  748MOL0     H  920   9.057   3.515   7.032  0.3613 -0.3830 -0.7364
  748MOL0     H  921   8.953   3.380   6.870 -0.5883 -0.5284  0.1215
  748MOL0     H  922   8.885   3.272   6.984 -0.5994  0.3957 -1.8359
  748MOL0     H  923   8.756   3.482   7.072 -0.0325  2.6867  0.4346
  748MOL0     H  924   8.811   3.578   6.931  0.5180 -0.7924  0.0913
  748MOL0     H  925   8.698   3.465   6.779  2.7874 -0.0271  0.3578
  748MOL0     H  926   8.689   3.315   6.869  1.4314  0.3519 -0.5489
  748MOL0     H  927   8.531   3.578   6.940  0.5487 -0.1033  1.6955
  748MOL0     H  928   8.463   3.454   6.827 -0.3035  0.4170  0.6756
  748MOL0     H  929   8.360   3.417   7.005 -0.9366 -2.9029 -0.2230
  748MOL0     H  930   8.490   3.426   7.120 -0.7534 -2.2096  1.0610
  748MOL0     H  931   8.641   3.180   7.140 -1.0732 -0.3135  2.8810
  748MOL0     H  932   8.670   2.916   7.062 -0.0827 -3.4157  0.6206
  748MOL0     H  933   8.529   2.877   7.156 -0.4545 -0.3772  0.1742
  748MOL0     H  934   8.653   2.742   6.953 -0.7297 -0.1134 -3.1092
  748MOL0     H  935   8.529   2.824   6.865  1.3828 -1.2340 -0.5630
  748MOL0     H  936   8.480   2.645   7.105 -5.4149  0.3621  1.3917
  748MOL0     H  937   8.520   2.576   6.942 -1.6965 -0.3589 -1.2354
  748MOL0     H  938   8.311   2.704   6.854  1.0669  1.1952 -1.1132
  748MOL0     H  939   8.288   2.757   7.018 -0.6519  0.3234 -0.7724
  748MOL0     H  940   8.165   2.326   6.984 -0.6297 -0.5465 -0.2601
  748MOL0     H  941   7.977   2.159   7.009 -0.0479 -1.3494 -0.4554
  748MOL0     H  942   7.847   2.184   6.894  0.3325 -2.4712  3.2376
  748MOL0     H  943   8.026   2.163   6.847 -0.0514 -2.6831  0.6989
  748MOL0     H  944   7.498   2.545   6.989  0.9996  1.9215  0.2737
  748MOL0     H  945   7.265   2.543   6.975  0.7883  0.9656  1.3056
  748MOL0     H  946   6.933   2.509   6.855  0.3890 -0.0608  0.3062
  748MOL0     H  947   7.076   2.484   6.947  0.5449 -1.1450 -0.8614
  748MOL0     H  948   6.973   2.696   7.018 -0.3731 -3.2606 -0.6990
  748MOL0     H  949   7.119   2.745   6.931 -0.7900  1.2363 -2.2387
  748MOL0     H  950   6.823   2.714   6.850  1.6133 -2.1236 -0.8902
  748MOL0     H  951   6.942   2.783   6.735 -1.6443 -0.8677 -0.4386
  748MOL0     H  952   6.833   2.913   6.989  0.6060 -2.4365  1.4934
  748MOL0     H  953   6.988   2.958   6.932  1.7235 -3.3261 -1.2950
  748MOL0     H  954   6.734   2.990   6.795 -1.0753  1.8885  5.3660
  748MOL0     H  955   6.903   3.002   6.714  2.2080  1.1934  0.9776
  748MOL0     H  956   6.819   3.172   6.950  1.8921  2.2944  0.2285
  748MOL0     H  957   6.954   3.178   6.838 -0.2135  0.6543  3.1301
  748MOL0     H  958   6.661   3.254   6.776  0.4881 -1.1910  2.5802
  748MOL0     H  959   6.787   3.210   6.654 -0.1432 -0.4454  0.2339
  748MOL0     H  960   6.851   3.401   6.864  1.5490 -1.1947  0.0226
  748MOL0     H  961   6.769   3.465   6.717 -0.4963 -0.3077 -1.2967
  748MOL0     H  962   7.293   2.543   6.541 -1.5539 -0.3666 -0.4697
  748MOL0     H  963   7.529   2.547   6.561 -0.0818 -1.0592  0.1446
  748MOL0     H  964   7.839   2.670   6.865  1.2574 -0.0645 -2.4405
  748MOL0     H  965   8.049   2.731   6.929 -2.8974  0.0608 -0.4618
  748MOL0     H  966   9.219   3.434   7.522 -3.2031 -1.7258  0.4273
  748MOL0     H  967   9.272   3.277   7.706 -1.6906 -0.9697 -0.1086
  748MOL0     H  968   9.515   3.052   7.897  0.5321 -0.5716  0.4084
  748MOL0     H  969   9.570   2.979   8.110 -0.8487  0.5652  2.4654
  748MOL0     H  970   9.301   2.770   8.367 -0.5605 -1.1743 -0.6114
  748MOL0     H  971   9.392   2.631   8.303  3.4907 -0.1371 -1.1498
  748MOL0     H  972   9.562   2.633   8.451 -0.7266  0.1112 -1.7538
  748MOL0     H  973   9.407   2.633   8.545  0.3177 -0.8021  0.8765
  748MOL0     H  974   9.451   2.861   8.583 -0.9849 -3.0941  2.1971
  748MOL0     H  975   9.607   2.870   8.498  1.5392 -0.2949  1.0890
  748MOL0     H  976   9.735   2.774   8.652 -1.7155 -1.5541 -2.5454
  748MOL0     H  977   9.623   2.657   8.696  0.9136 -1.0032 -2.3550
  748MOL0     H  978   9.550   2.997   8.959 -4.1879  2.4553 -2.9059
  748MOL0     H  979   9.261   2.701   8.129  0.4561 -2.4988 -1.4953
  748MOL0     H  980   9.170   2.795   7.906 -0.5640  0.2708  1.5599
  749MOL0     O  981  10.817   7.799   9.132 -0.9897  0.0284  0.1944
  749MOL0     C  982  10.916   7.838   9.195  0.7505  0.7646 -0.3933
  749MOL0     O  983  10.910   7.866   9.335 -0.3296  0.3977  0.1550
  749MOL0     C  984  10.786   7.876   9.386 -0.3038  0.5078 -0.1454
  749MOL0     C  985  10.720   7.778   9.448  0.0518  0.7805  0.2685
  749MOL0     C  986  10.607   7.810   9.519  0.6426 -0.0895  0.5120
  749MOL0     C  987  10.546   7.941   9.519  0.4452 -0.7917 -0.1479
  749MOL0     O  988  10.430   7.964   9.579 -0.2195  0.4771  0.1542
  749MOL0     C  989  10.434   7.972   9.720 -0.4435 -0.6139 -0.6628
  749MOL0     C  990  10.338   8.068   9.786  0.4198 -0.3411 -0.1334
  749MOL0     C  991  10.382   8.218   9.774  0.0685 -0.5644  0.1285
  749MOL0     C  992  10.272   8.323   9.732  0.0202 -0.3958  0.1431
  749MOL0     C  993  10.133   8.303   9.807 -0.0172  0.6733  0.0276
  749MOL0     C  994  10.152   8.306   9.956  0.4451 -0.0729 -0.3390
  749MOL0     C  995  10.012   8.282  10.027  0.0697 -0.3481  0.0873
  749MOL0     C  996   9.935   8.412  10.017  0.6717  0.1562 -0.4639
  749MOL0     N  997   9.966   8.501  10.124 -0.0212 -0.8601 -0.1896
  749MOL0     C  998  10.025   8.625  10.107  0.3874  0.4318  0.2593
  749MOL0     C  999  10.068   8.670  10.232 -0.0114  0.1690 -0.7191
  749MOL0     C 1000  10.135   8.797  10.291 -0.5182  0.0056  0.6464
  749MOL0     C 1001  10.071   8.838  10.425  1.0433  0.6903 -0.0552
  749MOL0     C 1002  10.097   8.983  10.422 -0.2202  0.1450 -0.0226
  749MOL0     C 1003  10.054   9.041  10.561  0.0999  0.0138 -0.4345
  749MOL0     O 1004   9.917   9.051  10.589 -0.0116 -0.2860 -0.3007
  749MOL0     C 1005   9.837   9.160  10.546 -0.4879 -0.3275  0.2970
  749MOL0     C 1006   9.883   9.258  10.456 -1.1035  0.3943  0.6387
  749MOL0     C 1007   9.800   9.353  10.419  0.3950  0.4435 -0.1952
  749MOL0     C 1008   9.858   9.466  10.339 -0.0727  0.5880 -0.9165
  749MOL0     C 1009   9.662   9.347  10.439  0.4508 -0.6382 -0.0926
  749MOL0     C 1010   9.558   9.453  10.396  1.0588  0.3720  0.1322
  749MOL0     O 1011   9.424   9.409  10.381 -0.1715  0.1419 -0.2120
  749MOL0     C 1012   9.329   9.501  10.362  0.3265 -0.0908 -0.2536
  749MOL0     C 1013   9.295   9.555  10.231  0.0945  0.0982  0.0464
  749MOL0     C 1014   9.173   9.635  10.212 -0.2204 -0.1475 -0.0955
  749MOL0     C 1015   9.093   9.664  10.327 -0.1802  0.6315  0.5489
  749MOL0     O 1016   9.005   9.778  10.317 -0.5596  0.6458 -0.2812
  749MOL0     C 1017   8.920   9.798  10.431  0.1074 -0.3451  0.2337
  749MOL0     C 1018   8.794   9.708  10.428 -0.2385 -0.0340  0.3508
  749MOL0     C 1019   8.728   9.713  10.295 -0.5446 -0.2856  0.1396
  749MOL0     C 1020   8.608   9.626  10.301  0.9341 -0.2584 -0.0154
  749MOL0     C 1021   8.548   9.616  10.166  0.1642 -1.3748  0.8181
  749MOL0     C 1022   8.454   9.736  10.141  0.3508 -0.6335  0.6743
  749MOL0     C 1023   8.319   9.699  10.083 -0.8234  0.0244 -0.3285
  749MOL0     C 1024   8.311   9.720   9.931 -0.0889 -0.4403 -1.6638
  749MOL0    Cl 1025   8.472   9.685   9.849 -0.9091 -0.3847 -0.0876
  749MOL0     C 1026   9.127   9.606  10.453  0.0269  0.4666  0.7648
  749MOL0     C 1027   9.240   9.525  10.463 -0.2608  0.1477 -0.4297
  749MOL0     O 1028   9.595   9.573  10.387  0.7369 -0.1338 -0.2192
  749MOL0     C 1029   9.609   9.249  10.516  0.4308  0.2471  0.6860
  749MOL0     C 1030   9.698   9.160  10.574  0.2827  1.2887 -0.4198
  749MOL0     N 1031  10.019   8.572  10.322 -0.4166 -0.6393 -0.4097
  749MOL0     N 1032   9.952   8.482  10.258 -0.2396 -0.4010 -0.1194
  749MOL0     C 1033  10.613   8.039   9.447  0.1774  0.1357 -0.2814
  749MOL0     C 1034  10.731   8.009   9.380 -0.0269  0.6525  0.3251
  749MOL0     C 1035  11.047   7.845   9.117 -0.1806 -0.3937 -0.4261
  749MOL0     C 1036  11.166   7.910   9.167  1.2771  0.1125  0.3196
  749MOL0     C 1037  11.277   7.940   9.091 -0.6793 -0.6055 -0.3725
  749MOL0     C 1038  11.286   7.900   8.955  0.4145  1.1804  0.5320
  749MOL0     O 1039  11.395   7.950   8.882 -0.2304  0.5967 -0.1440
  749MOL0     C 1040  11.421   7.890   8.759 -0.8960  0.2391 -0.5163
  749MOL0     C 1041  11.554   7.936   8.696 -0.6378  0.6767 -0.5407
  749MOL0     C 1042  11.543   8.082   8.647 -0.1361 -0.2094  0.3171
  749MOL0     C 1043  11.681   8.114   8.583  0.9585 -0.1628  0.0347
  749MOL0     C 1044  11.706   8.257   8.561 -0.0711 -0.2591  0.1135
  749MOL0     C 1045  11.720   8.374   8.525 -0.1429  0.2230 -0.1370
  749MOL0     C 1046  11.176   7.822   8.910 -0.0622 -0.0622  0.4026
  749MOL0     C 1047  11.063   7.787   8.987  0.5200 -0.7864 -0.7911
  749MOL0     H 1048  10.754   7.675   9.443 -0.0978  0.7428  0.0210
  749MOL0     H 1049  10.545   7.729   9.555 -0.5114  0.6039  0.1347
  749MOL0     H 1050  10.391   7.879   9.760  3.8944 -2.2391  0.7922
  749MOL0     H 1051  10.533   7.998   9.758 -1.6728  2.4606  0.8114
  749MOL0     H 1052  10.246   8.051   9.729  0.8331 -4.3388  0.1273
  749MOL0     H 1053  10.306   8.046   9.888  1.3445 -2.2482 -0.2104
  749MOL0     H 1054  10.428   8.253   9.867  1.4442  1.0379 -1.0823
  749MOL0     H 1055  10.458   8.212   9.695  0.0643  0.8052  0.0026
  749MOL0     H 1056  10.304   8.426   9.752 -0.4572 -0.5262  1.6901
  749MOL0     H 1057  10.244   8.315   9.627 -2.4385 -0.7316  0.7497
  749MOL0     H 1058  10.071   8.391   9.788  0.3306  1.7381  3.2527
  749MOL0     H 1059  10.102   8.208   9.762 -0.1102  0.4978  0.4633
  749MOL0     H 1060  10.215   8.221   9.984 -1.0112 -0.7561  1.0226
  749MOL0     H 1061  10.196   8.395  10.001 -2.7295  1.3554  0.2432
  749MOL0     H 1062   9.973   8.193   9.977  3.2200 -2.4449  1.0705
  749MOL0     H 1063  10.024   8.254  10.132  0.4004  2.6571  0.9476
  749MOL0     H 1064   9.828   8.397  10.038  0.4648  2.6208  0.5457
  749MOL0     H 1065   9.944   8.472   9.926 -0.1759  0.5986 -0.2613
  749MOL0     H 1066  10.043   8.666  10.008  1.5480  0.3925  0.4374
  749MOL0     H 1067  10.242   8.791  10.313 -0.6403  1.4862  1.7886
  749MOL0     H 1068  10.124   8.875  10.215 -0.9388 -0.6303  0.0346
  749MOL0     H 1069  10.116   8.782  10.508  1.9810  0.3502 -0.7694
  749MOL0     H 1070   9.963   8.825  10.431  1.2936 -1.8713 -0.1314
  749MOL0     H 1071  10.049   9.039  10.341  0.8345  3.2213  1.3242
  749MOL0     H 1072  10.203   9.004  10.411 -0.1713  0.6276  1.1677
  749MOL0     H 1073  10.090   9.145  10.562  0.2688  0.0899  3.4203
  749MOL0     H 1074  10.102   8.993  10.647 -1.8869  1.1966  1.4487
  749MOL0     H 1075   9.987   9.264  10.427 -0.7088 -0.6480  1.7612
  749MOL0     H 1076   9.942   9.434  10.277 -0.4453  1.0476 -1.6843
  749MOL0     H 1077   9.798   9.512  10.260  1.5108  0.9955 -1.9306
  749MOL0     H 1078   9.891   9.547  10.405  0.3280  0.9808 -1.5895
  749MOL0     H 1079   9.355   9.520  10.148  0.0288 -1.6191  0.6716
  749MOL0     H 1080   9.153   9.677  10.114  1.1521 -1.4479 -0.9489
  749MOL0     H 1081   8.981   9.804  10.522  1.7411 -0.0526 -0.8411
  749MOL0     H 1082   8.883   9.901  10.426 -0.1669 -0.4916 -1.3589
  749MOL0     H 1083   8.813   9.603  10.453 -4.3511 -0.4371  2.6938
  749MOL0     H 1084   8.734   9.745  10.512  0.0941 -1.8220  1.4419
  749MOL0     H 1085   8.811   9.684  10.230 -1.8748  0.4273 -1.9793
  749MOL0     H 1086   8.716   9.819  10.271  1.4511 -0.6532 -3.0446
  749MOL0     H 1087   8.643   9.527  10.331  1.0522 -1.2695 -3.1608
  749MOL0     H 1088   8.530   9.649  10.374 -0.9838 -4.1610 -0.5877
  749MOL0     H 1089   8.500   9.518  10.167  2.2547 -2.5154 -1.0167
  749MOL0     H 1090   8.626   9.602  10.090  1.8502  1.7350  1.7961
  749MOL0     H 1091   8.441   9.796  10.232 -2.6714 -0.9311  0.5613
  749MOL0     H 1092   8.506   9.808  10.077  0.9521 -1.5409  0.1162
  749MOL0     H 1093   8.232   9.736  10.138 -0.3830 -1.4314  1.4304
  749MOL0     H 1094   8.311   9.590  10.092 -1.5384  0.2552  2.9800
  749MOL0     H 1095   8.281   9.823   9.912  3.2326  1.1844  0.8739
  749MOL0     H 1096   8.243   9.644   9.891  0.8531 -1.9403 -0.5088
  749MOL0     H 1097   9.065   9.634  10.538 -1.3664 -1.2860  0.4128
  749MOL0     H 1098   9.250   9.463  10.552 -0.0173 -1.7495 -1.7151
  749MOL0     H 1099   9.512   9.250  10.564 -0.1115  1.0301 -0.3824
  749MOL0     H 1100   9.649   9.081  10.631  2.4154 -3.4203 -4.2874
  749MOL0     H 1101  10.569   8.137   9.433 -0.7546  0.1365  2.2454
  749MOL0     H 1102  10.784   8.087   9.326 -0.8485  2.6565  2.2533
  749MOL0     H 1103  11.152   7.951   9.267  0.1404 -2.1194  1.1422
  749MOL0     H 1104  11.347   8.019   9.117 -2.0203 -0.0876  1.9252
  749MOL0     H 1105  11.433   7.784   8.784 -0.1848  0.2418 -0.8332
  749MOL0     H 1106  11.342   7.905   8.685 -1.2795 -0.3481 -0.2394
  749MOL0     H 1107  11.580   7.871   8.612 -1.5808  0.6554 -0.8289
  749MOL0     H 1108  11.627   7.938   8.777 -1.3321  1.8781  0.0919
  749MOL0     H 1109  11.528   8.154   8.728 -0.3669 -0.3289  0.3821
  749MOL0     H 1110  11.454   8.090   8.583 -0.8841 -0.2543  1.3156
  749MOL0     H 1111  11.672   8.066   8.485 -0.9444 -3.0288  1.4611
  749MOL0     H 1112  11.766   8.075   8.639 -0.1673  0.5056  2.3710
  749MOL0     H 1113  11.718   8.473   8.485  2.4651  0.0968 -0.7932
  749MOL0     H 1114  11.172   7.782   8.809  2.4233 -1.1217  0.6429
  749MOL0     H 1115  10.984   7.723   8.950 -3.0520  1.4321  2.2249
  750MOL0     O 1116   3.721  11.124   9.770  0.3077  0.1614 -0.2496
  750MOL0     C 1117   3.779  11.224   9.718 -0.2889 -0.6504 -0.2520
  750MOL0     O 1118   3.719  11.321   9.646  0.9112  0.1478 -0.1232
  750MOL0     C 1119   3.593  11.359   9.626 -0.6448 -0.4622  0.3552
  750MOL0     C 1120   3.487  11.268   9.630 -0.5167 -0.2611  0.1947
  750MOL0     C 1121   3.360  11.322   9.609  0.7327 -0.1564 -0.3860
  750MOL0     C 1122   3.320  11.451   9.592 -0.7403  0.0275  0.4737
  750MOL0     O 1123   3.182  11.479   9.585 -0.1266 -0.4875 -0.9214
  750MOL0     C 1124   3.147  11.553   9.714  0.1949 -0.5550  0.7546
  750MOL0     C 1125   3.025  11.645   9.677  0.3979  0.0701  0.1350
  750MOL0     C 1126   2.950  11.690   9.809  0.0906  1.7250  1.4784
  750MOL0     C 1127   2.870  11.819   9.785  0.0100 -0.6501 -0.5226
  750MOL0     C 1128   2.722  11.791   9.760  0.4968 -0.0104  0.5699
  750MOL0     C 1129   2.654  11.915   9.716 -0.2824 -0.6180  0.7936
  750MOL0     C 1130   2.622  12.008   9.842  0.3246 -0.0076  0.2459
  750MOL0     C 1131   2.578  12.143   9.785 -0.1182  0.1911  0.2206
  750MOL0     N 1132   2.456  12.120   9.715 -0.6193  0.7476 -0.5587
  750MOL0     C 1133   2.328  12.088   9.761  0.6464  0.0604  0.2598
  750MOL0     C 1134   2.250  12.095   9.649  0.1695 -0.1315  0.3992
  750MOL0     C 1135   2.102  12.060   9.668 -0.7612 -0.0676  0.2495
  750MOL0     C 1136   2.040  12.016   9.538 -0.7268  0.0784 -0.8387
  750MOL0     C 1137   1.905  11.931   9.542  0.4317  0.4886  1.2306
  750MOL0     C 1138   1.782  12.015   9.534  0.6453 -0.8672 -0.2117
  750MOL0     O 1139   1.762  12.086   9.657  0.2416  0.0688 -0.5237
  750MOL0     C 1140   1.635  12.099   9.703 -0.3478 -0.5673 -0.4209
  750MOL0     C 1141   1.628  12.155   9.834 -0.6780  0.2861  0.6899
  750MOL0     C 1142   1.508  12.186   9.887  0.1373 -0.3266 -1.1094
  750MOL0     C 1143   1.509  12.251  10.023 -0.0628  0.4094 -0.5793
  750MOL0     C 1144   1.386  12.147   9.821 -0.3243  0.2806 -0.5295
  750MOL0     C 1145   1.254  12.178   9.882 -0.0189 -0.3738  0.0881
  750MOL0     O 1146   1.154  12.199   9.795  0.2850  0.6136 -0.4201
  750MOL0     C 1147   1.019  12.181   9.831 -0.3483  1.5598 -0.3040
  750MOL0     C 1148   0.936  12.265   9.765 -0.3071 -0.5509  0.1903
  750MOL0     C 1149   0.801  12.257   9.767 -0.0278  0.2580 -0.6318
  750MOL0     C 1150   0.748  12.146   9.836  0.9104  0.1480 -0.6248
  750MOL0     O 1151   0.610  12.126   9.829 -0.4112 -0.1134  0.1979
  750MOL0     C 1152   0.517  12.234   9.838 -0.3332 -0.2833 -0.3142
  750MOL0     C 1153   0.548  12.320   9.960 -0.8746 -0.4529  0.1356
  750MOL0     C 1154   0.457  12.441   9.979 -0.1879  0.5217  0.3363
  750MOL0     C 1155   0.315  12.413  10.004  0.0210  0.5533 -0.0448
  750MOL0     C 1156   0.245  12.546  10.022 -0.4287  0.0215 -0.8512
  750MOL0     C 1157   0.105  12.528  10.067 -0.0382  0.0869  0.0326
  750MOL0     C 1158   0.024  12.655  10.056  0.0148 -0.1847 -0.1192
  750MOL0     C 1159  -0.125  12.630  10.040  0.1422  0.4317  0.2563
  750MOL0    Cl 1160  -0.205  12.545  10.173  0.5673 -0.2176 -0.7063
  750MOL0     C 1161   0.828  12.063   9.911  0.2721 -0.1508 -0.5390
  750MOL0     C 1162   0.965  12.077   9.910 -0.0368  0.1222 -0.4273
  750MOL0     O 1163   1.243  12.145  10.002  0.5970 -1.0939  0.1847
  750MOL0     C 1164   1.392  12.103   9.691 -0.7216 -0.8056  0.9851
  750MOL0     C 1165   1.513  12.078   9.630 -0.8869 -0.1115  0.4839
  750MOL0     N 1166   2.321  12.120   9.541 -0.5060  0.1634 -0.7588
  750MOL0     N 1167   2.439  12.143   9.581 -0.2300  0.3005 -1.6033
  750MOL0     C 1168   3.430  11.542   9.587  0.0566  0.2462  0.6146
  750MOL0     C 1169   3.564  11.493   9.595  0.0012  0.3948  0.3509
  750MOL0     C 1170   3.927  11.233   9.727  0.1846  0.2486 -0.9548
  750MOL0     C 1171   4.007  11.125   9.769 -0.4571  0.6623  0.3927
  750MOL0     C 1172   4.146  11.154   9.796  0.3789  1.1635 -0.5499
  750MOL0     C 1173   4.209  11.272   9.765  0.5232 -0.7785  0.3012
  750MOL0     O 1174   4.341  11.296   9.784 -0.6734  0.8156 -0.5030
  750MOL0     C 1175   4.421  11.177   9.815  0.5967  0.2818  0.0427
  750MOL0     C 1176   4.569  11.216   9.855 -0.1925 -0.8730 -0.5607
  750MOL0     C 1177   4.584  11.361   9.905 -0.0249  0.0754 -0.9001
  750MOL0     C 1178   4.696  11.416   9.992 -0.1745 -0.0807 -0.7325
  750MOL0     C 1179   4.837  11.379   9.955 -0.8568 -0.2544 -0.5433
  750MOL0     C 1180   4.953  11.358   9.923 -0.1652  0.0972  0.1682
  750MOL0     C 1181   4.126  11.386   9.724 -0.2922 -0.4563  0.2049
  750MOL0     C 1182   3.988  11.366   9.712  0.3204  0.2648  0.2114
  750MOL0     H 1183   3.502  11.165   9.662 -2.5879 -0.6429  0.0742
  750MOL0     H 1184   3.269  11.263   9.613 -0.0841  1.0154 -0.9167
  750MOL0     H 1185   3.120  11.475   9.786 -0.9202  0.6711  1.7303
  750MOL0     H 1186   3.225  11.623   9.745 -2.9960  3.7886 -0.2090
  750MOL0     H 1187   3.049  11.719   9.600  2.8676  1.7040  2.3194
  750MOL0     H 1188   2.953  11.579   9.628  3.2959 -1.3230 -2.6432
  750MOL0     H 1189   2.886  11.605   9.834  5.0481 -2.7448  0.7312
  750MOL0     H 1190   3.028  11.705   9.884  1.5075 -0.3938  0.5039
  750MOL0     H 1191   2.875  11.887   9.871  1.1014  0.3364 -1.3421
  750MOL0     H 1192   2.918  11.875   9.704  1.1970 -0.3457  0.3602
  750MOL0     H 1193   2.718  11.716   9.680 -0.6007  0.3767  0.2368
  750MOL0     H 1194   2.667  11.754   9.847  2.6440  0.8758  2.3945
  750MOL0     H 1195   2.722  11.971   9.651 -1.3931 -0.6988 -0.4931
  750MOL0     H 1196   2.562  11.895   9.660 -0.6780  0.0573  1.1809
  750MOL0     H 1197   2.538  11.960   9.895 -1.9214  1.2940 -1.9126
  750MOL0     H 1198   2.709  12.019   9.908  1.3724 -2.2200 -0.6694
  750MOL0     H 1199   2.656  12.171   9.714  1.2057 -2.3231  0.5639
  750MOL0     H 1200   2.568  12.217   9.866  1.9493 -1.3203  1.9998
  750MOL0     H 1201   2.282  12.047   9.850 -1.0970  0.9013 -0.2182
  750MOL0     H 1202   2.093  11.987   9.748  1.4311 -0.2830  0.3662
  750MOL0     H 1203   2.042  12.147   9.694 -0.9772  1.2885 -3.9173
  750MOL0     H 1204   2.112  11.945   9.494  1.9553  1.6190  0.8172
  750MOL0     H 1205   2.023  12.103   9.474 -2.3315 -0.9092 -1.8544
  750MOL0     H 1206   1.903  11.871   9.634  1.2079 -1.4792  0.0102
  750MOL0     H 1207   1.907  11.863   9.457  1.6530  1.4794  0.4371
  750MOL0     H 1208   1.700  11.944   9.520  0.7161 -1.2856  1.3022
  750MOL0     H 1209   1.790  12.079   9.446 -1.0243 -0.0822  0.1589
  750MOL0     H 1210   1.729  12.183   9.866 -0.3971 -1.3659  1.3343
  750MOL0     H 1211   1.436  12.332  10.039 -1.6882 -0.4689 -2.9295
  750MOL0     H 1212   1.496  12.186  10.109  4.3418  2.0800  1.6677
  750MOL0     H 1213   1.601  12.308  10.035  0.0494  0.5143 -1.7603
  750MOL0     H 1214   0.980  12.346   9.708  2.9738  0.9484  4.3419
  750MOL0     H 1215   0.741  12.325   9.708 -1.2942 -0.6304 -0.4163
  750MOL0     H 1216   0.518  12.301   9.751  1.2111  0.8592  0.5301
  750MOL0     H 1217   0.417  12.189   9.840  0.6183 -2.6164 -1.6760
  750MOL0     H 1218   0.552  12.258  10.050  3.0637 -0.3576  0.1788
  750MOL0     H 1219   0.650  12.359   9.958 -1.1884  0.5563  1.5984
  750MOL0     H 1220   0.465  12.514   9.897  0.4393  1.6314  1.3436
  750MOL0     H 1221   0.493  12.502  10.063 -1.1313 -0.3475  1.3893
  750MOL0     H 1222   0.270  12.367   9.916  0.0411  1.4157 -0.5102
  750MOL0     H 1223   0.300  12.334  10.079  0.8920 -1.8984 -2.3124
  750MOL0     H 1224   0.251  12.594   9.924 -0.1873  0.0717 -0.8134
  750MOL0     H 1225   0.296  12.608  10.096 -0.8772 -0.0394 -0.4875
  750MOL0     H 1226   0.057  12.453  10.003  1.2265  2.1942 -3.7620
  750MOL0     H 1227   0.100  12.506  10.174 -0.0550 -2.8532 -0.4896
  750MOL0     H 1228   0.054  12.706   9.965  2.1133  0.7289  1.0067
  750MOL0     H 1229   0.056  12.696  10.153  1.8330 -0.8370 -0.4027
  750MOL0     H 1230  -0.152  12.566   9.956 -1.2248 -1.5373  2.1078
  750MOL0     H 1231  -0.170  12.728  10.022  1.3207  0.9394 -0.0809
  750MOL0     H 1232   0.782  11.982   9.966  0.4314 -0.8086 -1.3525
  750MOL0     H 1233   1.018  12.013   9.980  0.7117  1.9104  0.7336
  750MOL0     H 1234   1.301  12.089   9.634  0.6844 -1.6395 -1.2294
  750MOL0     H 1235   1.523  12.051   9.525 -0.0773  0.5078  0.3917
  750MOL0     H 1236   3.408  11.644   9.558  3.2579  1.0022  0.5296
  750MOL0     H 1237   3.658  11.547   9.593  1.5199 -2.1056 -1.1290
  750MOL0     H 1238   3.968  11.029   9.803  3.9895 -1.1437  0.9727
  750MOL0     H 1239   4.200  11.069   9.835  1.2640  1.3780 -1.2857
  750MOL0     H 1240   4.388  11.138   9.912 -0.3669 -0.2042 -0.4744
  750MOL0     H 1241   4.413  11.099   9.740 -1.4764  2.0775 -1.7523
  750MOL0     H 1242   4.640  11.206   9.772  0.7956  0.1000  0.1519
  750MOL0     H 1243   4.597  11.153   9.940  2.1902 -0.2279 -0.7872
  750MOL0     H 1244   4.496  11.385   9.966  0.9509  2.5610 -0.3311
  750MOL0     H 1245   4.580  11.419   9.812 -0.5120  0.6786 -0.5147
  750MOL0     H 1246   4.663  11.396  10.094  0.1245 -1.9030 -0.9552
  750MOL0     H 1247   4.689  11.525   9.990  3.3506  0.4888  3.4766
  750MOL0     H 1248   5.050  11.327   9.889  0.3623  2.6880 -0.9447
  750MOL0     H 1249   4.169  11.479   9.688 -1.6639 -0.2157 -0.8888
  750MOL0     H 1250   3.932  11.454   9.680 -3.0691 -1.3974  1.1411
  751MOL0     O 1251   6.647   3.453   6.488  0.4856  1.0247  0.4867
  751MOL0     C 1252   6.620   3.468   6.367 -0.4159 -0.2180 -0.8473
  751MOL0     O 1253   6.658   3.388   6.264  0.1523  0.3444 -0.5063
  751MOL0     C 1254   6.711   3.261   6.302 -0.4086  0.5583 -0.2458
  751MOL0     C 1255   6.650   3.172   6.396 -0.3608  0.3598 -0.1771
  751MOL0     C 1256   6.707   3.053   6.442 -0.6378  0.4003  0.7463
  751MOL0     C 1257   6.828   3.019   6.386 -0.7049 -0.0355 -0.1216
  751MOL0     O 1258   6.905   2.917   6.428 -0.3651 -0.4564  0.1726
  751MOL0     C 1259   6.841   2.791   6.431  0.4161  0.4944  0.8806
  751MOL0     C 1260   6.938   2.668   6.464  0.9290 -0.1966 -0.9251
  751MOL0     C 1261   6.860   2.556   6.538 -0.2757 -0.7465  0.2761
  751MOL0     C 1262   6.854   2.429   6.460 -0.7199  0.8554  0.0564
  751MOL0     C 1263   6.778   2.438   6.327  0.1320  0.1969 -0.1256
  751MOL0     C 1264   6.792   2.312   6.236 -0.4781 -0.2217  0.2080
  751MOL0     C 1265   6.699   2.193   6.287 -0.1071 -0.8881 -0.8978
  751MOL0     C 1266   6.740   2.058   6.227 -0.9669  0.0500 -0.2722
  751MOL0     N 1267   6.879   2.022   6.267  0.0802 -0.5705 -0.0407
  751MOL0     C 1268   6.919   2.028   6.393 -0.1039  0.0182 -0.7462
  751MOL0     C 1269   7.050   2.048   6.388 -1.1049  0.5768  0.0385
  751MOL0     C 1270   7.131   2.061   6.518  0.0700  0.7902 -0.2454
  751MOL0     C 1271   7.058   2.163   6.609 -1.1427  0.2710 -0.0086
  751MOL0     C 1272   7.109   2.171   6.754  0.1239  0.2956 -0.4536
  751MOL0     C 1273   7.057   2.067   6.842  0.0850 -0.0333  0.3635
  751MOL0     O 1274   6.913   2.074   6.833  0.5812  0.3496 -0.4827
  751MOL0     C 1275   6.858   2.180   6.891  0.0717 -0.4007 -0.4604
  751MOL0     C 1276   6.891   2.231   7.016 -0.2706  0.1255 -0.1957
  751MOL0     C 1277   6.821   2.342   7.078 -0.5984 -0.3706  0.2827
  751MOL0     C 1278   6.877   2.396   7.206 -0.4432 -0.1627 -0.4701
  751MOL0     C 1279   6.728   2.415   7.003 -1.3197 -0.0630  0.2854
  751MOL0     C 1280   6.662   2.545   7.036  0.2346  0.1538 -0.0353
  751MOL0     O 1281   6.582   2.605   6.945  0.0536 -0.0550  0.5226
  751MOL0     C 1282   6.504   2.723   6.968  0.3489  0.3720 -0.5018
  751MOL0     C 1283   6.546   2.841   7.031  0.4046 -0.3249 -0.0362
  751MOL0     C 1284   6.459   2.954   7.029 -0.7628 -0.6405  0.0975
  751MOL0     C 1285   6.339   2.946   6.968  0.5906 -0.0505  0.6502
  751MOL0     O 1286   6.259   3.047   6.947  0.0641  0.1387 -0.4216
  751MOL0     C 1287   6.194   3.087   7.071  0.0229  0.2208 -1.3994
  751MOL0     C 1288   6.193   3.243   7.092 -0.5826  0.3903  0.1444
  751MOL0     C 1289   6.173   3.273   7.243  0.9582  0.4406  0.2969
  751MOL0     C 1290   6.043   3.208   7.294  0.1899 -0.0334  0.0285
  751MOL0     C 1291   5.996   3.269   7.423 -0.4617 -0.2167 -0.1324
  751MOL0     C 1292   5.932   3.167   7.520  0.7055 -0.1765  0.4090
  751MOL0     C 1293   5.802   3.130   7.449 -0.8695  0.4206  0.9557
  751MOL0     C 1294   5.707   3.053   7.544 -0.9034  0.4674 -0.8069
  751MOL0    Cl 1295   5.561   3.030   7.452  0.8079 -0.0067 -0.3138
  751MOL0     C 1296   6.292   2.822   6.913  0.4413  0.7167 -0.0714
  751MOL0     C 1297   6.376   2.719   6.915 -0.3649  0.9080 -0.0674
  751MOL0     O 1298   6.688   2.592   7.146  0.7566  0.4412 -0.1041
  751MOL0     C 1299   6.699   2.364   6.871 -0.3342 -0.5302 -0.1040
  751MOL0     C 1300   6.769   2.253   6.812 -0.6221  0.8743 -0.5845
  751MOL0     N 1301   7.094   2.058   6.261  0.5274  0.0455 -0.6178
  751MOL0     N 1302   6.991   2.039   6.192 -0.9244 -0.1736 -0.5642
  751MOL0     C 1303   6.894   3.106   6.288 -0.5219  0.8251 -1.1261
  751MOL0     C 1304   6.840   3.224   6.256  0.0636  0.1488 -0.0429
  751MOL0     C 1305   6.577   3.599   6.317  0.1811  0.5141 -0.5375
  751MOL0     C 1306   6.521   3.699   6.402 -0.2755 -0.9042 -0.7353
  751MOL0     C 1307   6.484   3.824   6.349 -0.9174  0.3548  0.4929
  751MOL0     C 1308   6.499   3.844   6.213  0.3890 -0.4556  0.2961
  751MOL0     O 1309   6.465   3.970   6.157 -0.0253 -0.5400 -0.7706
  751MOL0     C 1310   6.534   4.084   6.205 -0.2238 -0.7869 -0.3422
  751MOL0     C 1311   6.546   4.187   6.091 -0.0216 -0.2926  0.6754
  751MOL0     C 1312   6.643   4.301   6.123 -0.2659  0.5800 -0.1457
  751MOL0     C 1313   6.604   4.409   6.228  0.7612  0.1401  0.4242
  751MOL0     C 1314   6.523   4.510   6.161  0.1602 -0.5349 -0.8395
  751MOL0     C 1315   6.461   4.599   6.105 -0.9070  0.6339  0.5652
  751MOL0     C 1316   6.557   3.749   6.128  0.5503 -1.5563  0.1098
  751MOL0     C 1317   6.581   3.624   6.180 -0.5040 -0.2198 -0.9145
  751MOL0     H 1318   6.561   3.216   6.438  1.2681  0.4503  3.5620
  751MOL0     H 1319   6.667   2.995   6.525  0.7460 -0.4304  0.8638
  751MOL0     H 1320   6.769   2.798   6.513  2.0042 -1.6396  2.5835
  751MOL0     H 1321   6.780   2.773   6.342  0.2356  1.9465  0.6960
  751MOL0     H 1322   6.980   2.620   6.375 -2.4559 -0.4127 -2.5455
  751MOL0     H 1323   7.025   2.699   6.523  3.1595 -3.4499 -2.2425
  751MOL0     H 1324   6.897   2.534   6.639  0.2330 -1.1503  0.0059
  751MOL0     H 1325   6.756   2.587   6.534  0.3600  1.4443 -0.3399
  751MOL0     H 1326   6.956   2.394   6.439 -1.9558 -2.7070 -0.8322
  751MOL0     H 1327   6.821   2.354   6.533  2.8554  1.2606  2.3552
  751MOL0     H 1328   6.676   2.474   6.344  1.0845  2.8576  0.5517
  751MOL0     H 1329   6.813   2.527   6.273 -2.3560  0.1017 -2.0972
  751MOL0     H 1330   6.755   2.333   6.135 -1.1948  0.3552  0.5802
  751MOL0     H 1331   6.899   2.291   6.241 -0.4568  0.1765  3.5795
  751MOL0     H 1332   6.706   2.180   6.395 -2.2722 -0.0797 -0.6201
  751MOL0     H 1333   6.602   2.224   6.248  0.5431  0.3386 -1.6034
  751MOL0     H 1334   6.750   2.055   6.118 -4.3396  2.7459 -0.8008
  751MOL0     H 1335   6.662   1.985   6.250 -1.1822  0.0715 -0.9251
  751MOL0     H 1336   6.872   1.999   6.486  2.2813 -0.7364  0.3044
  751MOL0     H 1337   7.128   1.964   6.569 -1.3728 -1.1435 -3.6337
  751MOL0     H 1338   7.234   2.084   6.493 -0.3392  3.2806  0.1046
  751MOL0     H 1339   6.951   2.138   6.617 -0.3649 -2.9881  2.5341
  751MOL0     H 1340   7.082   2.261   6.568 -0.3379 -0.4571 -1.3457
  751MOL0     H 1341   7.084   2.268   6.797 -0.4888  0.3030 -0.8253
  751MOL0     H 1342   7.218   2.163   6.748 -0.0347 -3.3962 -0.5023
  751MOL0     H 1343   7.089   2.074   6.946 -5.0130  1.3724  2.1211
  751MOL0     H 1344   7.086   1.969   6.803 -0.4164 -0.3279  0.7202
  751MOL0     H 1345   6.974   2.179   7.064 -2.2759 -1.9134  1.2507
  751MOL0     H 1346   6.958   2.329   7.235  1.7717 -0.9597 -6.9328
  751MOL0     H 1347   6.938   2.485   7.187 -1.0562 -0.3778 -4.1001
  751MOL0     H 1348   6.802   2.397   7.286 -2.6773 -3.0449 -2.3483
  751MOL0     H 1349   6.650   2.849   7.059  0.7866  0.5640 -1.5571
  751MOL0     H 1350   6.470   3.052   7.073 -1.3413 -0.5642  0.0757
  751MOL0     H 1351   6.093   3.044   7.076 -0.6642  1.8979  0.3373
  751MOL0     H 1352   6.238   3.043   7.161  0.7447  0.7398 -1.4906
  751MOL0     H 1353   6.286   3.289   7.058 -0.6095 -0.5367 -1.2532
  751MOL0     H 1354   6.118   3.298   7.033 -1.9782  1.1165  2.4614
  751MOL0     H 1355   6.159   3.382   7.241 -3.0133  0.0945  0.3583
  751MOL0     H 1356   6.260   3.236   7.296  1.3347  1.6338  0.5454
  751MOL0     H 1357   5.966   3.230   7.219 -0.0062  2.4903  0.8872
  751MOL0     H 1358   6.054   3.100   7.309  3.8396  0.4957  2.5202
  751MOL0     H 1359   5.932   3.356   7.404  0.8903  0.7275 -0.5360
  751MOL0     H 1360   6.080   3.304   7.484 -1.2231 -2.0894  2.1321
  751MOL0     H 1361   5.996   3.081   7.546 -1.6123 -1.7503  1.2769
  751MOL0     H 1362   5.907   3.204   7.620 -1.7137 -2.5571  0.8076
  751MOL0     H 1363   5.816   3.073   7.356  0.2183  2.0487  0.0726
  751MOL0     H 1364   5.757   3.224   7.416  0.8996  0.5285 -1.4598
  751MOL0     H 1365   5.706   3.112   7.636 -0.0360  1.7970 -1.6077
  751MOL0     H 1366   5.750   2.955   7.567 -1.5038  0.3280 -0.2553
  751MOL0     H 1367   6.198   2.823   6.860  0.9992  0.9869 -1.0799
  751MOL0     H 1368   6.349   2.626   6.866  0.3450  0.6023  0.1037
  751MOL0     H 1369   6.641   2.395   6.784 -0.5779 -4.2190 -1.4548
  751MOL0     H 1370   6.750   2.224   6.709 -2.1789 -2.3161  0.4469
  751MOL0     H 1371   6.985   3.067   6.244 -0.8100 -1.3625  0.0534
  751MOL0     H 1372   6.894   3.289   6.187  1.8873 -0.6659  0.5538
  751MOL0     H 1373   6.517   3.686   6.510 -3.6856  2.0519 -0.3193
  751MOL0     H 1374   6.456   3.911   6.408 -0.9977  1.2144 -0.7675
  751MOL0     H 1375   6.472   4.130   6.282 -1.5530 -1.3438 -1.0385
  751MOL0     H 1376   6.628   4.051   6.250  0.5500 -0.6423 -1.7884
  751MOL0     H 1377   6.447   4.229   6.073 -0.2180 -0.2864  1.7184
  751MOL0     H 1378   6.572   4.126   6.004 -1.3854 -1.9977  1.4099
  751MOL0     H 1379   6.655   4.354   6.028 -0.8699  2.0443  0.5713
  751MOL0     H 1380   6.736   4.254   6.157 -0.8691 -0.2431  0.4188
  751MOL0     H 1381   6.690   4.456   6.277  0.5573 -0.4018  1.3249
  751MOL0     H 1382   6.542   4.363   6.305 -0.0399 -0.6347 -0.6715
  751MOL0     H 1383   6.428   4.681   6.044  0.1867  1.5216  1.1289
  751MOL0     H 1384   6.577   3.777   6.025  0.0314  2.3978  0.9174
  751MOL0     H 1385   6.632   3.558   6.111 -0.8156  1.8100 -3.1912
  752MOL0     O 1386   5.293   0.044   2.175  0.2608  0.1402 -0.2297
  752MOL0     C 1387   5.419   0.041   2.179 -0.2653  0.3176 -0.5174
  752MOL0     O 1388   5.501  -0.039   2.257  0.1906 -0.3411  0.0453
  752MOL0     C 1389   5.438  -0.108   2.357 -0.5598 -0.2795 -0.2692
  752MOL0     C 1390   5.332  -0.071   2.435  1.3722 -1.1485  0.6805
  752MOL0     C 1391   5.265  -0.162   2.518 -0.1367  0.1558 -0.0984
  752MOL0     C 1392   5.326  -0.284   2.538 -0.4434 -0.1752  0.0564
  752MOL0     O 1393   5.277  -0.380   2.623  0.1315 -0.0448  0.4020
  752MOL0     C 1394   5.197  -0.481   2.557  0.1889 -0.7957 -0.9385
  752MOL0     C 1395   5.166  -0.601   2.657  0.2272 -0.2996 -0.1732
  752MOL0     C 1396   5.125  -0.720   2.572  0.2006 -1.0049 -0.3131
  752MOL0     C 1397   5.108  -0.838   2.673 -0.3939 -1.2021  0.3949
  752MOL0     C 1398   5.070  -0.965   2.602 -0.0257  0.5906 -0.4248
  752MOL0     C 1399   5.021  -1.057   2.721 -0.3582 -0.8474  0.0563
  752MOL0     C 1400   5.001  -1.198   2.656 -0.8762 -1.3884  0.1555
  752MOL0     C 1401   4.865  -1.220   2.601 -1.0619 -0.1535  0.1117
  752MOL0     N 1402   4.827  -1.362   2.610  0.5293  0.0207 -0.1709
  752MOL0     C 1403   4.756  -1.409   2.721  0.6993  0.7198  0.0267
  752MOL0     C 1404   4.776  -1.539   2.719 -0.5382 -0.0525  0.2398
  752MOL0     C 1405   4.727  -1.642   2.820 -0.6816 -0.5259 -0.2525
  752MOL0     C 1406   4.578  -1.667   2.809  0.2993 -1.0442 -0.4006
  752MOL0     C 1407   4.542  -1.723   2.666 -0.3323 -0.2915 -0.7421
  752MOL0     C 1408   4.393  -1.727   2.644 -0.7846 -0.0403  0.5116
  752MOL0     O 1409   4.334  -1.775   2.761 -0.1796 -0.2753 -0.4188
  752MOL0     C 1410   4.197  -1.781   2.763  0.0951  0.4529 -0.5549
  752MOL0     C 1411   4.116  -1.739   2.661  0.6201 -0.0330  0.0815
  752MOL0     C 1412   3.975  -1.726   2.678  0.3755  0.6897 -0.4055
  752MOL0     C 1413   3.898  -1.680   2.557  1.3615 -0.1087 -0.0599
  752MOL0     C 1414   3.919  -1.779   2.799  0.3631  0.1333  0.6605
  752MOL0     C 1415   3.776  -1.796   2.816 -0.1272 -0.3545 -0.1206
  752MOL0     O 1416   3.688  -1.702   2.769  0.0794 -0.0853  0.4788
  752MOL0     C 1417   3.549  -1.715   2.796  0.0696  0.0136  0.2283
  752MOL0     C 1418   3.468  -1.634   2.715 -0.1883  1.0883 -0.8004
  752MOL0     C 1419   3.330  -1.639   2.725  0.5973 -0.2200 -0.7616
  752MOL0     C 1420   3.261  -1.727   2.813  0.0468 -0.1955  0.1441
  752MOL0     O 1421   3.129  -1.739   2.822  0.1489 -0.1803  0.9003
  752MOL0     C 1422   3.059  -1.720   2.698 -0.4980 -0.5721 -0.5086
  752MOL0     C 1423   2.917  -1.787   2.700  0.3026 -0.2966 -0.4822
  752MOL0     C 1424   2.809  -1.716   2.778  0.6407  0.1744 -0.7413
  752MOL0     C 1425   2.777  -1.784   2.915  0.3902 -0.0157 -1.0386
  752MOL0     C 1426   2.644  -1.726   2.986  0.1904 -0.3482  0.5016
  752MOL0     C 1427   2.595  -1.839   3.077  0.4897 -0.0368  0.4985
  752MOL0     C 1428   2.454  -1.824   3.143  0.6157  1.1709  0.7655
  752MOL0     C 1429   2.397  -1.956   3.196  0.4529  1.2514  0.1835
  752MOL0    Cl 1430   2.232  -1.931   3.263  0.0699 -0.3020 -0.0828
  752MOL0     C 1431   3.344  -1.800   2.893 -0.2257  0.0669  0.2277
  752MOL0     C 1432   3.485  -1.801   2.878  0.4378  0.3016 -0.5161
  752MOL0     O 1433   3.749  -1.897   2.880 -1.0663  0.6176 -1.0724
  752MOL0     C 1434   4.004  -1.835   2.894  0.2580 -0.0322  0.3722
  752MOL0     C 1435   4.139  -1.838   2.872  0.2448 -0.3395 -0.3911
  752MOL0     N 1436   4.863  -1.579   2.618  0.5256 -0.1247  0.2729
  752MOL0     N 1437   4.891  -1.466   2.555  0.0408  1.1861  0.3433
  752MOL0     C 1438   5.445  -0.323   2.466  0.4636  1.0066  0.1322
  752MOL0     C 1439   5.497  -0.231   2.380  0.0831 -0.3329  0.0876
  752MOL0     C 1440   5.487   0.143   2.087  1.2651  0.1072  0.0704
  752MOL0     C 1441   5.411   0.232   2.009 -0.5276  1.0260 -0.4760
  752MOL0     C 1442   5.464   0.317   1.912  0.4433  0.1679 -0.5900
  752MOL0     C 1443   5.600   0.320   1.903 -0.0755 -1.0259  0.5742
  752MOL0     O 1444   5.623   0.433   1.822 -0.0350  0.2776  0.2544
  752MOL0     C 1445   5.756   0.493   1.811 -0.4395 -0.1767 -0.4747
  752MOL0     C 1446   5.835   0.437   1.696  0.0056  0.1331 -0.5826
  752MOL0     C 1447   5.988   0.474   1.707  0.0752 -1.1626 -0.1625
  752MOL0     C 1448   6.071   0.392   1.605  0.2043  1.0029  0.4557
  752MOL0     C 1449   6.018   0.403   1.469  0.1197  0.1443 -0.1872
  752MOL0     C 1450   5.968   0.403   1.358  0.3551  0.9088  0.4531
  752MOL0     C 1451   5.686   0.240   1.976 -0.1753 -1.4522 -0.9100
  752MOL0     C 1452   5.631   0.144   2.063 -0.2994 -0.6176  0.5519
  752MOL0     H 1453   5.279   0.024   2.429 -2.1961 -3.0361 -1.5164
  752MOL0     H 1454   5.171  -0.136   2.566 -1.3112 -0.6054 -1.8856
  752MOL0     H 1455   5.106  -0.427   2.529  1.7499  2.8280  0.3714
  752MOL0     H 1456   5.242  -0.515   2.463 -0.7113 -0.5305 -1.4806
  752MOL0     H 1457   5.256  -0.633   2.712 -1.3457 -2.0464  1.5457
  752MOL0     H 1458   5.091  -0.563   2.727  1.0629  3.3759 -1.0534
  752MOL0     H 1459   5.025  -0.700   2.532  0.0164  1.0064  1.0018
  752MOL0     H 1460   5.206  -0.748   2.503  0.8581  0.5173 -0.1999
  752MOL0     H 1461   5.200  -0.855   2.730 -0.2648 -5.2371 -0.7086
  752MOL0     H 1462   5.029  -0.806   2.742  1.3337  1.5391  1.2789
  752MOL0     H 1463   4.994  -0.949   2.525  1.6581  0.1387 -2.2687
  752MOL0     H 1464   5.152  -1.005   2.542  0.2152  2.5072 -1.4506
  752MOL0     H 1465   5.107  -1.059   2.790  0.2367 -0.0895 -0.6540
  752MOL0     H 1466   4.936  -1.010   2.772  0.9125  1.4578  0.1835
  752MOL0     H 1467   5.074  -1.216   2.577  0.5816  0.9429  0.8631
  752MOL0     H 1468   5.029  -1.270   2.732  1.6981 -0.4404  0.1953
  752MOL0     H 1469   4.875  -1.197   2.494  2.0045  2.5064  0.8236
  752MOL0     H 1470   4.793  -1.152   2.647 -0.9846 -0.0167  0.0315
  752MOL0     H 1471   4.703  -1.355   2.799  0.8654  4.1398 -2.0135
  752MOL0     H 1472   4.788  -1.728   2.790  1.0863  0.9290 -1.0053
  752MOL0     H 1473   4.759  -1.602   2.916  2.5563 -2.6898 -0.2715
  752MOL0     H 1474   4.532  -1.569   2.826  1.5383 -0.3861 -0.6674
  752MOL0     H 1475   4.540  -1.735   2.885 -2.5359  1.9999  1.1689
  752MOL0     H 1476   4.582  -1.824   2.655 -0.1857 -0.4988  1.2601
  752MOL0     H 1477   4.588  -1.664   2.587  3.1565 -2.1959 -0.3021
  752MOL0     H 1478   4.371  -1.786   2.554 -2.4897  1.6749 -0.2660
  752MOL0     H 1479   4.361  -1.624   2.630 -1.2233 -0.5206 -3.2062
  752MOL0     H 1480   4.155  -1.707   2.565  0.0616 -1.7121 -0.7576
  752MOL0     H 1481   3.793  -1.707   2.545  1.9625 -1.8639 -1.9760
  752MOL0     H 1482   3.917  -1.572   2.550 -0.4440  0.1585 -1.5045
  752MOL0     H 1483   3.945  -1.731   2.472  1.4457  0.8229 -0.5946
  752MOL0     H 1484   3.508  -1.575   2.634 -1.6564  2.0481 -0.8578
  752MOL0     H 1485   3.263  -1.577   2.667  1.3673 -0.7413 -2.2606
  752MOL0     H 1486   3.060  -1.617   2.660  1.5286 -0.5818 -0.5969
  752MOL0     H 1487   3.123  -1.764   2.620  0.9618 -1.9460  1.3669
  752MOL0     H 1488   2.892  -1.826   2.601 -0.0126 -3.9059  0.8763
  752MOL0     H 1489   2.923  -1.882   2.754 -1.2233  0.4236  1.0393
  752MOL0     H 1490   2.712  -1.718   2.726  0.2918 -0.0453 -0.0879
  752MOL0     H 1491   2.842  -1.614   2.797  0.7906 -0.2449  1.5393
  752MOL0     H 1492   2.762  -1.889   2.887  1.9504 -0.7647  0.7856
  752MOL0     H 1493   2.866  -1.772   2.976  0.5893  1.8421 -1.6328
  752MOL0     H 1494   2.564  -1.706   2.914 -0.4301 -1.2130  0.9336
  752MOL0     H 1495   2.662  -1.631   3.037  0.0780  0.3069 -0.6444
  752MOL0     H 1496   2.575  -1.932   3.023 -2.6663 -0.7621  2.6585
  752MOL0     H 1497   2.667  -1.863   3.155  0.0079 -1.1791  0.6144
  752MOL0     H 1498   2.376  -1.790   3.075 -2.3216 -0.2447  3.1744
  752MOL0     H 1499   2.457  -1.753   3.226 -0.9767 -0.4496  2.3026
  752MOL0     H 1500   2.460  -1.999   3.275 -3.7879 -0.5136  3.0234
  752MOL0     H 1501   2.392  -2.043   3.130  1.8033  0.4579  1.0610
  752MOL0     H 1502   3.301  -1.868   2.966  3.1572  1.1476  3.5099
  752MOL0     H 1503   3.541  -1.854   2.954  2.1828  0.6334 -1.5087
  752MOL0     H 1504   3.959  -1.878   2.982 -3.1554  1.2644 -0.5744
  752MOL0     H 1505   4.196  -1.871   2.958 -1.6462  1.4356  1.6638
  752MOL0     H 1506   5.488  -0.422   2.477 -1.3650  0.2419  0.7974
  752MOL0     H 1507   5.581  -0.264   2.321  0.1842  0.5154 -0.2489
  752MOL0     H 1508   5.304   0.212   2.006 -0.3233 -1.1924  2.2332
  752MOL0     H 1509   5.396   0.372   1.848 -1.6997 -0.8936  0.6186
  752MOL0     H 1510   5.746   0.599   1.785 -1.5524 -0.4324 -1.1732
  752MOL0     H 1511   5.792   0.465   1.910 -5.9559 -3.1336  1.0885
  752MOL0     H 1512   5.782   0.466   1.605 -0.8190  0.9776  0.1595
  752MOL0     H 1513   5.835   0.327   1.695 -0.1639  0.1263 -0.0759
  752MOL0     H 1514   6.017   0.453   1.810 -1.6959 -1.9821  0.2112
  752MOL0     H 1515   6.004   0.579   1.684 -0.2119 -1.0262  0.2640
  752MOL0     H 1516   6.065   0.288   1.639  2.7874  0.6312 -0.0438
  752MOL0     H 1517   6.177   0.421   1.604  0.2911  0.7410 -2.1158
  752MOL0     H 1518   5.918   0.383   1.265 -3.4820  1.0213  2.2905
  752MOL0     H 1519   5.793   0.248   1.960 -0.0887  0.5764  0.3107
  752MOL0     H 1520   5.685   0.067   2.118 -0.3775 -1.3974 -0.4319
  753MOL0     O 1521   8.889   7.443   1.103 -0.6423 -0.4867  0.1060
  753MOL0     C 1522   8.967   7.364   1.052 -0.3055 -0.5326 -0.6237
  753MOL0     O 1523   8.955   7.228   1.026  0.1451  0.0077 -0.8169
  753MOL0     C 1524   8.851   7.144   1.058 -0.4765  0.0123 -0.2100
  753MOL0     C 1525   8.745   7.180   1.136 -0.1889 -0.6711  0.1305
  753MOL0     C 1526   8.647   7.093   1.190  0.0328 -0.7770  0.3269
  753MOL0     C 1527   8.665   6.953   1.153 -0.2241 -0.3348 -0.8530
  753MOL0     O 1528   8.589   6.848   1.200 -0.1504 -0.5605  0.1490
  753MOL0     C 1529   8.447   6.872   1.216 -0.9303 -0.3268  0.8150
  753MOL0     C 1530   8.394   6.727   1.206  0.0536 -0.0988  0.2733
  753MOL0     C 1531   8.280   6.700   1.105 -0.4216  0.4135  0.2836
  753MOL0     C 1532   8.296   6.551   1.058  0.9347  0.7191 -0.4395
  753MOL0     C 1533   8.152   6.497   1.027 -0.0209  0.3316  0.4703
  753MOL0     C 1534   8.156   6.342   0.982  0.1699 -0.1809 -0.2594
  753MOL0     C 1535   8.025   6.272   0.992  0.1513  0.8343 -0.3755
  753MOL0     C 1536   8.041   6.128   1.054  0.8949 -0.0199 -0.3093
  753MOL0     N 1537   8.132   6.046   0.979  0.4412 -0.8556  0.6834
  753MOL0     C 1538   8.097   5.984   0.860 -0.7881  0.3360  0.6578
  753MOL0     C 1539   8.205   5.909   0.821 -0.1369  0.2891 -0.3687
  753MOL0     C 1540   8.213   5.816   0.709 -0.2765 -0.7776 -0.2715
  753MOL0     C 1541   8.148   5.888   0.584  0.2733  0.5602  0.3366
  753MOL0     C 1542   8.217   6.020   0.532 -0.0414  0.3448 -0.1155
  753MOL0     C 1543   8.188   6.056   0.388  0.0498 -0.0773 -0.3111
  753MOL0     O 1544   8.258   5.954   0.314  0.6035  0.1660  0.2577
  753MOL0     C 1545   8.374   5.978   0.235  0.3558 -0.4934 -0.4969
  753MOL0     C 1546   8.468   5.874   0.235  0.1073 -0.3648  0.2797
  753MOL0     C 1547   8.578   5.865   0.155 -0.8101 -0.4908  2.0641
  753MOL0     C 1548   8.675   5.746   0.155  0.0659 -0.8119 -0.5645
  753MOL0     C 1549   8.608   5.978   0.073 -0.4865  1.4582  0.0535
  753MOL0     C 1550   8.737   5.985  -0.005 -0.7943 -0.0743  0.2841
  753MOL0     O 1551   8.852   6.001   0.071  0.3644  0.0801 -0.4757
  753MOL0     C 1552   8.978   5.999   0.012 -0.0688 -0.0531 -0.5389
  753MOL0     C 1553   9.010   5.936  -0.111 -1.4646 -0.2389 -0.4733
  753MOL0     C 1554   9.144   5.947  -0.165 -0.4807 -0.6839  0.7190
  753MOL0     C 1555   9.235   6.025  -0.099 -0.1052  1.0708  0.6694
  753MOL0     O 1556   9.361   6.027  -0.157  0.4916  0.3212 -0.4949
  753MOL0     C 1557   9.469   6.067  -0.074 -1.1571  0.2443  0.1746
  753MOL0     C 1558   9.604   6.068  -0.161  0.1941  0.0488  0.2494
  753MOL0     C 1559   9.705   6.167  -0.096 -0.0377 -0.3201 -1.1748
  753MOL0     C 1560   9.818   6.199  -0.193 -0.5070 -0.3808  0.1584
  753MOL0     C 1561   9.933   6.270  -0.119 -0.6926  0.0047 -0.0125
  753MOL0     C 1562  10.028   6.318  -0.232  0.3713  0.0145  0.5586
  753MOL0     C 1563  10.169   6.346  -0.162 -0.8227  0.3918 -0.1546
  753MOL0     C 1564  10.267   6.371  -0.278 -0.3040 -1.0845 -0.5461
  753MOL0    Cl 1565  10.404   6.471  -0.201 -0.1298  0.0212 -0.3309
  753MOL0     C 1566   9.209   6.088   0.018  0.2922  1.0218 -0.6639
  753MOL0     C 1567   9.084   6.070   0.071 -1.2758 -0.6993 -0.4240
  753MOL0     O 1568   8.731   5.981  -0.130 -0.0930  0.2590 -0.0768
  753MOL0     C 1569   8.522   6.090   0.078  0.1793  0.6097  0.1215
  753MOL0     C 1570   8.403   6.089   0.154 -0.3861 -0.0909 -1.3652
  753MOL0     N 1571   8.305   5.927   0.914 -0.0360  0.6005  0.5189
  753MOL0     N 1572   8.266   6.020   1.002 -0.6983  0.4752  0.2817
  753MOL0     C 1573   8.776   6.913   1.077 -0.6211 -0.3444  0.3230
  753MOL0     C 1574   8.865   7.007   1.036  0.1988 -0.0707 -0.3179
  753MOL0     C 1575   9.099   7.427   1.004  1.4613  0.8152 -0.4529
  753MOL0     C 1576   9.146   7.382   0.878  0.2371 -0.4259  0.1008
  753MOL0     C 1577   9.261   7.456   0.831 -0.4731  0.7262 -0.2246
  753MOL0     C 1578   9.317   7.571   0.894  0.0995 -0.9634 -0.7144
  753MOL0     O 1579   9.433   7.630   0.858 -0.6925 -0.6103  0.4345
  753MOL0     C 1580   9.518   7.562   0.775  0.1173  0.1881  1.0061
  753MOL0     C 1581   9.609   7.471   0.859  0.0137  0.8546 -0.2515
  753MOL0     C 1582   9.725   7.557   0.918  0.5564 -0.1085 -0.5105
  753MOL0     C 1583   9.792   7.479   1.036 -0.3885 -0.9700 -0.2088
  753MOL0     C 1584   9.879   7.576   1.100  0.2587  1.0821 -0.3648
  753MOL0     C 1585   9.948   7.654   1.158  0.1143 -0.4030 -0.1073
  753MOL0     C 1586   9.258   7.614   1.013 -0.7513  0.2996  0.2132
  753MOL0     C 1587   9.149   7.542   1.061 -1.1751  0.5920 -0.8551
  753MOL0     H 1588   8.731   7.284   1.167  1.2779 -1.0213  2.1787
  753MOL0     H 1589   8.572   7.147   1.247  0.7745  0.5877  0.0439
  753MOL0     H 1590   8.436   6.916   1.316  0.8947 -0.2777  1.0289
  753MOL0     H 1591   8.416   6.949   1.145 -1.1764 -1.2586 -0.0938
  753MOL0     H 1592   8.482   6.665   1.182 -1.7477 -2.8523  0.3022
  753MOL0     H 1593   8.362   6.700   1.307 -2.1226 -1.1273 -0.6157
  753MOL0     H 1594   8.187   6.721   1.159 -0.7626 -0.0603 -0.1135
  753MOL0     H 1595   8.283   6.769   1.021  2.1699 -0.2958 -0.3082
  753MOL0     H 1596   8.367   6.544   0.975 -1.6349 -1.2803 -2.6030
  753MOL0     H 1597   8.343   6.483   1.130  0.3438 -0.8787 -1.5182
  753MOL0     H 1598   8.083   6.507   1.110  0.5826  1.4156  0.8744
  753MOL0     H 1599   8.108   6.547   0.940 -0.4819  1.2776  1.2203
  753MOL0     H 1600   8.200   6.342   0.881 -0.5167  3.2599 -0.6819
  753MOL0     H 1601   8.224   6.290   1.050  3.1334  4.4078  0.7478
  753MOL0     H 1602   7.949   6.326   1.049 -2.4173 -2.1490 -0.6861
  753MOL0     H 1603   7.999   6.267   0.886  3.1969 -0.7987 -1.1630
  753MOL0     H 1604   7.944   6.077   1.061  0.6784  0.5593  1.4131
  753MOL0     H 1605   8.074   6.137   1.158 -1.1934  0.0732  0.3876
  753MOL0     H 1606   8.003   5.996   0.807  0.3764  1.6112 -1.2687
  753MOL0     H 1607   8.318   5.796   0.687  0.3148  1.6972 -0.0117
  753MOL0     H 1608   8.161   5.725   0.740 -0.6789  0.2289  2.2716
  753MOL0     H 1609   8.040   5.901   0.599 -0.1412  0.8862 -2.3936
  753MOL0     H 1610   8.157   5.817   0.501 -4.5771 -2.6046  2.1116
  753MOL0     H 1611   8.326   6.010   0.531 -0.0235  0.4390 -1.9747
  753MOL0     H 1612   8.183   6.101   0.597 -4.3485 -0.6598 -0.8294
  753MOL0     H 1613   8.242   6.148   0.366 -1.2130  0.6396 -0.5115
  753MOL0     H 1614   8.082   6.077   0.369 -0.2659 -1.3299 -0.0416
  753MOL0     H 1615   8.454   5.790   0.303 -1.3352  0.6869  1.3522
  753MOL0     H 1616   8.761   5.755   0.088 -0.6005 -1.9307 -1.6073
  753MOL0     H 1617   8.695   5.716   0.258 -1.6745  1.4157  0.5317
  753MOL0     H 1618   8.609   5.675   0.104  0.5446 -2.8993  1.6031
  753MOL0     H 1619   8.938   5.874  -0.163 -1.6293 -0.5620  0.1277
  753MOL0     H 1620   9.178   5.897  -0.256  0.6113 -0.2380  0.8630
  753MOL0     H 1621   9.459   6.169  -0.034 -3.2465  0.6159 -1.1290
  753MOL0     H 1622   9.486   5.997   0.008  3.0446 -0.2434 -0.8595
  753MOL0     H 1623   9.655   5.972  -0.171  4.7743  2.1812  0.4910
  753MOL0     H 1624   9.582   6.104  -0.262  1.4086 -1.2867 -0.5322
  753MOL0     H 1625   9.749   6.116  -0.010 -0.0987  0.9898 -0.3395
  753MOL0     H 1626   9.663   6.257  -0.050 -0.3438 -0.6245 -0.8541
  753MOL0     H 1627   9.861   6.110  -0.240 -0.0185  0.2802 -0.6825
  753MOL0     H 1628   9.766   6.254  -0.272  0.5517 -1.3247 -1.2403
  753MOL0     H 1629   9.977   6.203  -0.044  0.0183 -0.2094 -0.5985
  753MOL0     H 1630   9.886   6.356  -0.072 -0.5863  0.0622 -0.0099
  753MOL0     H 1631  10.040   6.255  -0.321 -0.3751 -0.9031  1.0878
  753MOL0     H 1632   9.976   6.402  -0.279 -1.3384 -1.1943  0.1986
  753MOL0     H 1633  10.209   6.260  -0.108  0.4251 -0.2611 -1.9893
  753MOL0     H 1634  10.158   6.440  -0.108  1.7333  0.1084  0.9824
  753MOL0     H 1635  10.228   6.438  -0.355  0.9496  1.3253  0.8018
  753MOL0     H 1636  10.302   6.279  -0.326  0.9368 -1.1365  0.4213
  753MOL0     H 1637   9.273   6.156   0.074  0.3454  0.4335  0.0011
  753MOL0     H 1638   9.065   6.133   0.157 -1.4745 -2.1683  0.6320
  753MOL0     H 1639   8.559   6.182   0.034 -1.4886  1.4447  0.3915
  753MOL0     H 1640   8.337   6.175   0.152 -2.4034 -1.2053  3.4910
  753MOL0     H 1641   8.792   6.812   1.043  1.2936  0.4852 -1.4820
  753MOL0     H 1642   8.960   6.971   0.997  0.4275  0.2578 -0.0714
  753MOL0     H 1643   9.110   7.303   0.813  0.2581  0.5181 -1.1013
  753MOL0     H 1644   9.302   7.410   0.742  0.3080 -0.1563  0.5744
  753MOL0     H 1645   9.476   7.502   0.694  1.8168  0.4360 -0.1288
  753MOL0     H 1646   9.574   7.632   0.712 -2.1223 -1.1576 -2.8630
  753MOL0     H 1647   9.650   7.384   0.807 -1.7130  0.2716 -0.6934
  753MOL0     H 1648   9.554   7.432   0.945  2.6349 -1.3231  0.5893
  753MOL0     H 1649   9.681   7.644   0.967  2.1331 -0.2589  1.3003
  753MOL0     H 1650   9.802   7.590   0.848 -0.2755  0.7950 -1.0210
  753MOL0     H 1651   9.858   7.396   1.009  4.6489  2.2216  0.8922
  753MOL0     H 1652   9.725   7.439   1.112  0.3691 -1.3017  0.2943
  753MOL0     H 1653  10.016   7.731   1.189  1.2387 -0.5472 -2.0337
  753MOL0     H 1654   9.288   7.709   1.056  0.1848  0.3814 -0.5857
  753MOL0     H 1655   9.108   7.595   1.146  4.3578  1.5959  1.5706
  754MOL0     O 1656   8.953  10.212   3.372 -0.1763 -0.1535  0.1905
  754MOL0     C 1657   9.041  10.175   3.298 -0.8778  0.0369 -0.4962
  754MOL0     O 1658   9.031  10.077   3.201  0.4057 -0.4411 -0.3679
  754MOL0     C 1659   8.900  10.050   3.163 -0.5924 -0.0737 -0.2702
  754MOL0     C 1660   8.798   9.988   3.249  0.6131 -0.2492 -0.7859
  754MOL0     C 1661   8.663   9.995   3.205 -0.1652  0.3452 -0.4737
  754MOL0     C 1662   8.624  10.042   3.074  0.0364 -0.0843 -0.4490
  754MOL0     O 1663   8.493  10.035   3.035 -0.0667 -0.0245  0.0304
  754MOL0     C 1664   8.402  10.096   3.121  0.4690 -1.0541 -0.3615
  754MOL0     C 1665   8.259  10.034   3.095  0.2343 -0.3500 -0.3901
  754MOL0     C 1666   8.135  10.129   3.125 -0.1954  0.0195  0.7612
  754MOL0     C 1667   8.100  10.186   2.998  0.3322  0.6002  1.3164
  754MOL0     C 1668   7.970  10.269   2.998  0.2115  0.6027 -0.0090
  754MOL0     C 1669   7.966  10.360   2.875  0.0339 -0.4755  0.0653
  754MOL0     C 1670   7.830  10.425   2.849  0.3010 -0.0767  0.6110
  754MOL0     C 1671   7.800  10.542   2.952 -0.0325 -0.4179 -0.6753
  754MOL0     N 1672   7.676  10.602   2.913  0.7817  0.3879 -0.4126
  754MOL0     C 1673   7.551  10.571   2.968  0.4405  0.3589  0.5950
  754MOL0     C 1674   7.463  10.652   2.901  0.2843 -0.8206 -0.0479
  754MOL0     C 1675   7.314  10.660   2.926  0.4297  0.4080  0.1012
  754MOL0     C 1676   7.231  10.533   2.929  0.0642 -0.2316 -0.3404
  754MOL0     C 1677   7.187  10.478   2.790 -0.8677  0.5127 -0.0830
  754MOL0     C 1678   7.322  10.427   2.720  0.0773 -0.3911 -0.8749
  754MOL0     O 1679   7.277  10.361   2.605 -0.4475 -0.2048 -0.0773
  754MOL0     C 1680   7.367  10.276   2.547 -0.4368 -0.2341 -0.3602
  754MOL0     C 1681   7.509  10.292   2.575  0.6399 -0.7096  0.1132
  754MOL0     C 1682   7.597  10.214   2.505 -0.0842  0.3617  0.0864
  754MOL0     C 1683   7.740  10.246   2.539  0.2015  0.2115  0.1459
  754MOL0     C 1684   7.553  10.135   2.394 -0.6557  0.1442 -0.1795
  754MOL0     C 1685   7.640  10.049   2.310  0.7533  0.1567  0.1670
  754MOL0     O 1686   7.594  10.016   2.186  0.5209 -0.0684  0.8989
  754MOL0     C 1687   7.665   9.932   2.106  0.1183 -0.7813 -0.6751
  754MOL0     C 1688   7.625   9.801   2.078 -0.6159 -0.7240  0.6840
  754MOL0     C 1689   7.695   9.716   1.994  0.6713  0.0244  0.4382
  754MOL0     C 1690   7.804   9.776   1.928  0.8922 -0.5944  0.4522
  754MOL0     O 1691   7.865   9.714   1.829 -0.2991 -0.5048  0.1340
  754MOL0     C 1692   7.953   9.608   1.869  0.6160 -0.0144 -0.4916
  754MOL0     C 1693   8.093   9.659   1.825 -1.1155 -0.2652 -1.2572
  754MOL0     C 1694   8.157   9.751   1.931 -0.8681  0.1928 -0.3586
  754MOL0     C 1695   8.303   9.743   1.927  0.0863 -0.3882 -0.0993
  754MOL0     C 1696   8.354   9.633   2.031 -0.5369  0.0144 -0.5356
  754MOL0     C 1697   8.317   9.494   1.985 -0.6570 -1.0871 -0.5257
  754MOL0     C 1698   8.395   9.392   2.055  0.1403  0.0260 -0.4067
  754MOL0     C 1699   8.347   9.251   2.029 -0.8546  0.2110 -0.3229
  754MOL0    Cl 1700   8.452   9.141   2.121 -0.2241  0.2573  0.2210
  754MOL0     C 1701   7.834   9.909   1.934 -0.0315 -1.1190  0.3380
  754MOL0     C 1702   7.773   9.983   2.032  0.7178  0.9577 -0.2831
  754MOL0     O 1703   7.741  10.001   2.356  0.1385  0.0198 -0.4864
  754MOL0     C 1704   7.413  10.134   2.358  0.5451 -0.2601  0.0274
  754MOL0     C 1705   7.322  10.192   2.450 -0.2752 -0.0580 -0.4418
  754MOL0     N 1706   7.523  10.730   2.807  0.1596  0.1657  0.1624
  754MOL0     N 1707   7.655  10.691   2.812  0.2025 -0.3297  0.3016
  754MOL0     C 1708   8.730  10.090   2.991  0.5229 -0.1194  0.0063
  754MOL0     C 1709   8.863  10.083   3.038  0.6798  0.5760 -0.2457
  754MOL0     C 1710   9.170  10.248   3.307  0.4533  0.1224 -0.4107
  754MOL0     C 1711   9.196  10.342   3.404  0.4871 -0.9831 -0.5256
  754MOL0     C 1712   9.315  10.420   3.405 -0.0121  0.3087 -0.6136
  754MOL0     C 1713   9.408  10.409   3.302 -0.6714 -0.4614 -0.6047
  754MOL0     O 1714   9.526  10.483   3.289 -1.3296  0.0261 -0.1667
  754MOL0     C 1715   9.546  10.600   3.373 -0.1323  0.2752 -0.0015
  754MOL0     C 1716   9.477  10.728   3.308  0.0720  0.5314 -0.7168
  754MOL0     C 1717   9.479  10.737   3.154 -0.2616  0.1575  1.4728
  754MOL0     C 1718   9.623  10.760   3.096  0.8448  0.5449 -0.5202
  754MOL0     C 1719   9.688  10.893   3.134  0.4862 -0.0525 -0.2920
  754MOL0     C 1720   9.730  10.992   3.185 -0.7708 -0.4873  0.8163
  754MOL0     C 1721   9.385  10.303   3.208 -0.5866 -0.8256 -0.8725
  754MOL0     C 1722   9.270  10.231   3.213 -0.1257  0.3981 -0.7043
  754MOL0     H 1723   8.824   9.941   3.344  0.1374  0.4897 -0.2729
  754MOL0     H 1724   8.592   9.947   3.271  0.6657 -1.6589 -0.9817
  754MOL0     H 1725   8.403  10.072   3.228 -1.3396  0.6149  0.0964
  754MOL0     H 1726   8.400  10.205   3.107 -0.7853 -0.9272  0.5857
  754MOL0     H 1727   8.258   9.997   2.992 -2.4930 -1.4483 -0.0512
  754MOL0     H 1728   8.252   9.948   3.162  0.6868  0.5450  0.8409
  754MOL0     H 1729   8.054  10.065   3.160  0.4989 -0.6060  1.2771
  754MOL0     H 1730   8.166  10.202   3.200  0.6842 -0.4063  0.8290
  754MOL0     H 1731   8.182  10.250   2.964  0.6199  0.9704  2.6395
  754MOL0     H 1732   8.087  10.105   2.926 -0.2261  0.4888  1.5353
  754MOL0     H 1733   7.887  10.199   3.009  0.5025  0.4951  1.6770
  754MOL0     H 1734   7.973  10.328   3.090 -0.2696 -2.0308  1.7879
  754MOL0     H 1735   8.020  10.451   2.902 -0.6067  0.0372 -0.3455
  754MOL0     H 1736   7.993  10.321   2.777 -0.4792  1.9977 -1.1428
  754MOL0     H 1737   7.833  10.478   2.753 -0.4326 -2.4093 -0.7930
  754MOL0     H 1738   7.751  10.350   2.853 -1.0571  1.2938  0.1084
  754MOL0     H 1739   7.874  10.622   2.939  1.9223 -2.3858 -2.6669
  754MOL0     H 1740   7.796  10.506   3.055  3.0272 -0.3730 -0.4300
  754MOL0     H 1741   7.534  10.510   3.057  1.2086  1.3778  1.4664
  754MOL0     H 1742   7.302  10.718   3.019 -2.7364 -1.1964  0.8379
  754MOL0     H 1743   7.261  10.728   2.860 -0.8834  0.5664  1.2812
  754MOL0     H 1744   7.138  10.552   2.984 -0.3051 -3.3594  0.2983
  754MOL0     H 1745   7.282  10.453   2.985  1.6606 -0.7353 -2.4040
  754MOL0     H 1746   7.134  10.551   2.728 -0.3666  1.0863  0.1440
  754MOL0     H 1747   7.120  10.392   2.800 -2.4112  1.4341 -1.8336
  754MOL0     H 1748   7.387  10.370   2.788 -0.5080  0.9073  0.8493
  754MOL0     H 1749   7.383  10.513   2.690 -0.3124 -0.0680 -0.7522
  754MOL0     H 1750   7.543  10.368   2.645  0.5970 -0.6195  0.0367
  754MOL0     H 1751   7.790  10.152   2.564  0.4498  0.7658  1.8780
  754MOL0     H 1752   7.790  10.290   2.452 -1.3780  3.5864  0.7696
  754MOL0     H 1753   7.748  10.322   2.618  0.5319 -1.3492  1.6838
  754MOL0     H 1754   7.541   9.772   2.140 -0.9370  3.5049  2.5521
  754MOL0     H 1755   7.677   9.610   1.975 -0.0836  0.4096 -1.1360
  754MOL0     H 1756   7.935   9.573   1.971  1.8637 -1.4906 -0.7336
  754MOL0     H 1757   7.918   9.517   1.819 -0.4261 -0.0662  0.2996
  754MOL0     H 1758   8.144   9.564   1.808 -0.1451 -0.0508  0.2203
  754MOL0     H 1759   8.092   9.710   1.728  2.8553 -0.3273 -1.4813
  754MOL0     H 1760   8.112   9.710   2.022 -1.7260 -0.9513 -1.2616
  754MOL0     H 1761   8.129   9.855   1.913  0.8365  0.5814 -0.9212
  754MOL0     H 1762   8.340   9.730   1.825  2.1917  0.8573  0.4300
  754MOL0     H 1763   8.346   9.838   1.958 -0.9843  0.0575  0.0412
  754MOL0     H 1764   8.331   9.653   2.136  0.7461  1.9329 -0.5522
  754MOL0     H 1765   8.463   9.620   2.029 -0.3235 -0.9561  4.6009
  754MOL0     H 1766   8.209   9.473   1.990 -1.0630  0.9133  2.0249
  754MOL0     H 1767   8.350   9.493   1.881  5.5102 -0.8035  1.0693
  754MOL0     H 1768   8.388   9.402   2.164 -3.0313 -0.5608 -0.4635
  754MOL0     H 1769   8.496   9.395   2.012  0.7190 -2.2241  0.6362
  754MOL0     H 1770   8.362   9.249   1.921 -0.1740  1.7749 -0.2818
  754MOL0     H 1771   8.240   9.234   2.046 -1.5282  1.2435 -3.0904
  754MOL0     H 1772   7.892   9.960   1.858  0.9814 -2.5004  0.1351
  754MOL0     H 1773   7.789  10.090   2.028  0.6816  1.0025  0.4716
  754MOL0     H 1774   7.375  10.060   2.289  3.7752 -4.7275  2.4494
  754MOL0     H 1775   7.216  10.178   2.434 -0.1348  0.1735 -1.6772
  754MOL0     H 1776   8.720  10.129   2.891  0.4068  0.4441  0.2333
  754MOL0     H 1777   8.941  10.127   2.976 -1.3461 -1.2699 -4.5171
  754MOL0     H 1778   9.132  10.377   3.485 -0.6089 -0.1270 -1.7207
  754MOL0     H 1779   9.321  10.496   3.482 -1.3635  0.5441 -0.7068
  754MOL0     H 1780   9.506  10.584   3.473  0.8084 -0.8263  0.2292
  754MOL0     H 1781   9.654  10.620   3.375 -0.3484  1.4861  0.7685
  754MOL0     H 1782   9.521  10.821   3.345 -0.2508  0.8069 -1.0277
  754MOL0     H 1783   9.375  10.713   3.343  0.6179  0.6043  1.0006
  754MOL0     H 1784   9.421  10.827   3.131 -2.2910 -1.0278  1.7981
  754MOL0     H 1785   9.432  10.647   3.114  0.2602  0.2658  0.5704
  754MOL0     H 1786   9.624  10.742   2.988  3.5251 -2.0159 -0.1983
  754MOL0     H 1787   9.688  10.680   3.132  2.1992  2.1364  0.7003
  754MOL0     H 1788   9.766  11.087   3.220  0.3246 -0.7676  0.4904
  754MOL0     H 1789   9.464  10.286   3.136  2.5542 -0.5760  2.1968
  754MOL0     H 1790   9.258  10.149   3.143  2.0381 -2.5162  2.0492
  755MOL0     O 1791   4.170   7.092   2.680 -1.2112  0.2461 -0.5814
  755MOL0     C 1792   4.268   7.115   2.743 -1.2911  0.1692  0.1047
  755MOL0     O 1793   4.277   7.148   2.881  0.1132  0.2201  0.6705
  755MOL0     C 1794   4.166   7.140   2.954  0.0268 -0.2398 -0.1106
  755MOL0     C 1795   4.070   7.036   2.938 -0.2721 -0.4480 -0.7094
  755MOL0     C 1796   3.968   7.025   3.035  1.3790 -1.3818 -0.1712
  755MOL0     C 1797   3.956   7.125   3.137  0.5500 -0.0044  0.7885
  755MOL0     O 1798   3.870   7.101   3.241  0.5576  0.3552 -0.4553
  755MOL0     C 1799   3.820   7.210   3.315  0.2966 -0.6995 -0.9840
  755MOL0     C 1800   3.700   7.173   3.402 -0.9578  0.0499  0.6642
  755MOL0     C 1801   3.609   7.076   3.332  1.1356  0.9230  0.9637
  755MOL0     C 1802   3.485   7.045   3.421 -0.1278 -0.3675  0.1996
  755MOL0     C 1803   3.394   6.925   3.370 -0.3957 -0.0409 -0.2033
  755MOL0     C 1804   3.332   6.870   3.495  0.5851 -0.8029  0.5930
  755MOL0     C 1805   3.408   6.744   3.540  0.1259 -0.7216 -0.0718
  755MOL0     C 1806   3.392   6.699   3.692  0.3648 -0.3515  0.4082
  755MOL0     N 1807   3.418   6.809   3.788 -0.1965  1.2445 -0.1762
  755MOL0     C 1808   3.541   6.869   3.804  0.5596  0.3874  0.4335
  755MOL0     C 1809   3.513   6.970   3.894 -1.2528 -0.3847 -0.4002
  755MOL0     C 1810   3.596   7.094   3.938  0.7010  0.2826  0.3177
  755MOL0     C 1811   3.732   7.109   3.874  0.1651 -0.1725  1.0571
  755MOL0     C 1812   3.801   7.242   3.922  0.6715  0.7429 -0.2904
  755MOL0     C 1813   3.943   7.249   3.875 -0.0652  0.8947  0.8372
  755MOL0     O 1814   3.958   7.235   3.728  0.8748 -0.4154  0.3357
  755MOL0     C 1815   4.079   7.248   3.661  0.1330  0.3461 -0.3261
  755MOL0     C 1816   4.100   7.152   3.560 -0.0778 -0.1036  0.3863
  755MOL0     C 1817   4.220   7.151   3.489 -0.4796 -0.4334 -0.3242
  755MOL0     C 1818   4.254   7.045   3.380 -0.7235 -0.9630 -0.1015
  755MOL0     C 1819   4.308   7.261   3.506 -0.0377  0.4395  0.9132
  755MOL0     C 1820   4.425   7.277   3.415  1.0789 -0.1959  0.0550
  755MOL0     O 1821   4.392   7.325   3.286  1.0550  0.1974 -0.8058
  755MOL0     C 1822   4.491   7.332   3.202 -0.8240 -0.1319 -0.0617
  755MOL0     C 1823   4.526   7.230   3.103  0.4773 -0.7359 -0.1323
  755MOL0     C 1824   4.627   7.240   3.009 -0.6345  0.2040  0.0921
  755MOL0     C 1825   4.707   7.360   3.016  0.8499 -0.2206  0.3149
  755MOL0     O 1826   4.815   7.367   2.929  0.3507  0.1117  0.2418
  755MOL0     C 1827   4.895   7.481   2.934  0.7465 -0.7669 -0.1538
  755MOL0     C 1828   5.001   7.468   2.829 -0.5661 -1.2077  0.2865
  755MOL0     C 1829   5.079   7.596   2.799  0.8528  0.4146 -0.6601
  755MOL0     C 1830   5.210   7.556   2.731  0.3976 -0.0237  0.2722
  755MOL0     C 1831   5.315   7.667   2.723 -0.0716  1.0021  0.0882
  755MOL0     C 1832   5.454   7.625   2.674 -0.5972 -0.3687 -0.4042
  755MOL0     C 1833   5.562   7.724   2.728 -0.6229 -0.0782 -0.5280
  755MOL0     C 1834   5.695   7.708   2.663  0.7706 -0.7708  0.2051
  755MOL0    Cl 1835   5.688   7.737   2.489 -0.1101 -0.1911  0.0854
  755MOL0     C 1836   4.671   7.462   3.111 -0.2166 -0.2442 -0.3166
  755MOL0     C 1837   4.567   7.446   3.208 -0.8514 -0.0152  0.2173
  755MOL0     O 1838   4.539   7.245   3.452  0.5319  0.1904  0.4228
  755MOL0     C 1839   4.294   7.348   3.609  0.3487 -0.7491  0.1240
  755MOL0     C 1840   4.182   7.339   3.691 -0.1705 -0.5909 -0.0827
  755MOL0     N 1841   3.386   6.958   3.939 -0.4149  0.0148 -0.0378
  755MOL0     N 1842   3.326   6.871   3.874 -0.5910  0.1034  0.7157
  755MOL0     C 1843   4.049   7.226   3.145 -1.5595 -0.1287 -0.4047
  755MOL0     C 1844   4.158   7.229   3.059 -0.2280 -0.2330 -0.5506
  755MOL0     C 1845   4.398   7.111   2.667 -0.1774  0.9069  0.1145
  755MOL0     C 1846   4.429   7.013   2.568  0.3438  0.0381 -0.0144
  755MOL0     C 1847   4.550   7.010   2.501  0.2152  0.9980  0.7026
  755MOL0     C 1848   4.651   7.099   2.537 -0.0940 -0.7966  0.6287
  755MOL0     O 1849   4.759   7.085   2.459 -0.5422 -0.3832 -0.8489
  755MOL0     C 1850   4.848   7.189   2.470  0.4064 -0.0026  0.3479
  755MOL0     C 1851   4.951   7.197   2.366 -0.1940 -0.2274 -0.3919
  755MOL0     C 1852   5.054   7.301   2.400 -0.0497 -0.0031  0.2115
  755MOL0     C 1853   5.134   7.326   2.271 -0.3544 -0.1089 -1.0863
  755MOL0     C 1854   5.261   7.396   2.315 -0.0857  0.2888 -0.0844
  755MOL0     C 1855   5.364   7.440   2.357  0.8246 -0.4261 -0.1756
  755MOL0     C 1856   4.627   7.195   2.639 -0.2666  0.4147 -0.3381
  755MOL0     C 1857   4.496   7.210   2.688  0.2150  1.0271  0.2370
  755MOL0     H 1858   4.076   6.967   2.854  2.2095 -0.8878 -0.2626
  755MOL0     H 1859   3.886   6.958   3.011  2.1782 -2.0327 -1.1915
  755MOL0     H 1860   3.905   7.238   3.378 -0.2014  0.3378 -0.7446
  755MOL0     H 1861   3.791   7.295   3.253  1.0253  0.4580  0.1981
  755MOL0     H 1862   3.752   7.128   3.486  0.5320 -0.3494 -0.4360
  755MOL0     H 1863   3.643   7.260   3.436  1.8527  1.8528  1.0954
  755MOL0     H 1864   3.576   7.100   3.230  1.1440 -1.6810  0.2927
  755MOL0     H 1865   3.662   6.982   3.318  1.5607  0.9911  2.0408
  755MOL0     H 1866   3.527   7.028   3.521 -0.7315  1.0755  0.7296
  755MOL0     H 1867   3.419   7.132   3.426  1.8311  1.1500  1.1683
  755MOL0     H 1868   3.324   6.964   3.295  1.0017  1.9755 -0.5387
  755MOL0     H 1869   3.455   6.844   3.331  0.2562  0.2025  0.2883
  755MOL0     H 1870   3.316   6.938   3.579 -2.5483 -1.1928  0.4372
  755MOL0     H 1871   3.228   6.849   3.467 -0.4081  4.9271 -1.2266
  755MOL0     H 1872   3.400   6.670   3.459  0.6660  1.8729 -2.6762
  755MOL0     H 1873   3.515   6.763   3.530 -0.0652  0.4736  0.0526
  755MOL0     H 1874   3.474   6.629   3.708  1.9427  1.7323  1.9963
  755MOL0     H 1875   3.294   6.651   3.699 -1.0598  2.0601 -1.4577
  755MOL0     H 1876   3.631   6.846   3.749 -0.1502  0.2006 -0.6697
  755MOL0     H 1877   3.534   7.184   3.926  0.2530  0.1268  1.3861
  755MOL0     H 1878   3.616   7.084   4.044 -0.8552 -1.2362  0.5123
  755MOL0     H 1879   3.702   7.114   3.769  3.5852  0.5944 -0.0111
  755MOL0     H 1880   3.797   7.026   3.905  0.8934 -0.8050 -1.8215
  755MOL0     H 1881   3.802   7.241   4.031  1.4300 -1.1821 -0.2737
  755MOL0     H 1882   3.744   7.328   3.886 -0.2523  1.2537  2.2101
  755MOL0     H 1883   4.008   7.171   3.915  0.4085 -0.6892 -2.6715
  755MOL0     H 1884   3.979   7.348   3.905 -1.6282  1.7535 -0.0377
  755MOL0     H 1885   4.042   7.066   3.528 -0.8118  0.8353 -0.9564
  755MOL0     H 1886   4.229   6.945   3.416  0.9416 -2.2768 -2.2904
  755MOL0     H 1887   4.194   7.077   3.294 -0.0448  1.4773  0.2717
  755MOL0     H 1888   4.362   7.041   3.365 -0.8426  0.0461 -1.4160
  755MOL0     H 1889   4.494   7.126   3.112  0.4493 -0.6522  0.8875
  755MOL0     H 1890   4.661   7.161   2.943 -0.2265 -0.3109  0.8973
  755MOL0     H 1891   4.843   7.576   2.922  0.8200 -1.0774 -4.5438
  755MOL0     H 1892   4.948   7.488   3.030 -0.5953 -1.8957  0.7071
  755MOL0     H 1893   5.063   7.384   2.861 -1.4051 -1.4879  1.2206
  755MOL0     H 1894   4.959   7.452   2.729 -2.4569 -0.3708  0.9020
  755MOL0     H 1895   5.101   7.651   2.891  1.6576 -0.3841 -0.3515
  755MOL0     H 1896   5.030   7.665   2.730  3.4849 -0.6708 -3.9157
  755MOL0     H 1897   5.249   7.470   2.787  1.6257  0.2656 -0.1261
  755MOL0     H 1898   5.183   7.507   2.637 -1.9027  0.1474  0.7672
  755MOL0     H 1899   5.328   7.703   2.826 -2.7805  0.0207  0.8604
  755MOL0     H 1900   5.280   7.741   2.650  1.9895  1.2184 -0.7607
  755MOL0     H 1901   5.468   7.522   2.709  1.0969 -0.3704 -0.9784
  755MOL0     H 1902   5.450   7.623   2.565 -1.9481 -0.2209 -0.3759
  755MOL0     H 1903   5.576   7.719   2.837  0.9555 -3.0005 -0.7670
  755MOL0     H 1904   5.515   7.822   2.715  0.4392  0.1360 -3.3916
  755MOL0     H 1905   5.725   7.603   2.677  0.8801 -0.7550  0.0927
  755MOL0     H 1906   5.760   7.779   2.716 -0.9260  0.7150  0.3741
  755MOL0     H 1907   4.730   7.552   3.127 -1.2921  0.1280  1.8694
  755MOL0     H 1908   4.551   7.524   3.282 -0.0010 -0.1221  0.5263
  755MOL0     H 1909   4.366   7.429   3.620  0.4201 -0.9257  1.0755
  755MOL0     H 1910   4.159   7.413   3.767 -1.9495 -1.2121  0.0384
  755MOL0     H 1911   4.050   7.296   3.228 -0.7896  2.4263 -2.4214
  755MOL0     H 1912   4.229   7.311   3.068 -3.2449  2.6783 -1.4607
  755MOL0     H 1913   4.345   6.949   2.548  0.4533  0.1921 -0.9962
  755MOL0     H 1914   4.566   6.934   2.426  0.7481 -0.1243  1.9226
  755MOL0     H 1915   4.789   7.281   2.472  1.1021  0.6927 -3.5859
  755MOL0     H 1916   4.897   7.170   2.566 -0.4101 -1.8008  0.4436
  755MOL0     H 1917   4.911   7.214   2.266 -0.1288  0.1927 -0.3503
  755MOL0     H 1918   4.993   7.097   2.358  1.8971  0.6394 -1.0767
  755MOL0     H 1919   5.120   7.265   2.480 -1.3532  0.0109  1.3301
  755MOL0     H 1920   5.010   7.396   2.432 -0.3846 -1.3269  4.2973
  755MOL0     H 1921   5.076   7.387   2.201 -1.2753 -1.0605 -1.1773
  755MOL0     H 1922   5.165   7.234   2.221  2.9665 -0.5064  1.3826
  755MOL0     H 1923   5.457   7.481   2.391 -0.3559  1.7839  0.6043
  755MOL0     H 1924   4.702   7.251   2.693 -0.9062  1.8191 -0.8374
  755MOL0     H 1925   4.491   7.287   2.764  0.7900 -0.4983  1.8887
  756MOL0     O 1926  10.694   6.161   4.956  0.1662  0.6566  0.5808
  756MOL0     C 1927  10.811   6.134   4.926 -0.2882 -1.0150  0.0370
  756MOL0     O 1928  10.859   6.004   4.914  0.9076  0.4200  0.4176
  756MOL0     C 1929  10.786   5.907   4.978 -0.1807 -0.3052 -0.0425
  756MOL0     C 1930  10.662   5.862   4.934  0.4321 -0.7398  0.3044
  756MOL0     C 1931  10.594   5.768   5.006 -0.0123 -0.0195 -0.1586
  756MOL0     C 1932  10.638   5.718   5.128 -0.0964  0.6712 -0.1346
  756MOL0     O 1933  10.576   5.624   5.205 -0.1702 -0.0561 -0.2782
  756MOL0     C 1934  10.431   5.622   5.188  0.0937 -0.2643 -0.5489
  756MOL0     C 1935  10.399   5.492   5.272  0.1731 -0.3215  0.8288
  756MOL0     C 1936  10.429   5.505   5.429 -0.7398  0.7125  1.4388
  756MOL0     C 1937  10.560   5.440   5.460 -0.1028 -0.2245 -0.4087
  756MOL0     C 1938  10.590   5.465   5.606 -1.3181 -0.1240  0.2397
  756MOL0     C 1939  10.495   5.391   5.707 -0.0651  0.4640  0.2702
  756MOL0     C 1940  10.528   5.421   5.852  0.3407  0.7825  0.0559
  756MOL0     C 1941  10.469   5.550   5.892  0.8659 -0.7194  0.2778
  756MOL0     N 1942  10.510   5.603   6.021  0.5598  0.4864 -0.0887
  756MOL0     C 1943  10.619   5.547   6.091  0.7585  0.1013  0.0946
  756MOL0     C 1944  10.617   5.603   6.211  0.1181  0.4407 -0.9777
  756MOL0     C 1945  10.727   5.564   6.312  0.1150  0.0618  0.2086
  756MOL0     C 1946  10.744   5.413   6.347  1.1102 -0.2454  0.3188
  756MOL0     C 1947  10.830   5.376   6.465  0.3775 -0.4799  0.0737
  756MOL0     C 1948  10.978   5.424   6.442  0.0708  0.2067  0.8511
  756MOL0     O 1949  11.069   5.363   6.539  0.4296 -0.0763  0.4278
  756MOL0     C 1950  11.202   5.363   6.524 -0.4583  0.1962  0.8618
  756MOL0     C 1951  11.268   5.452   6.432  0.6871 -0.0141  0.0867
  756MOL0     C 1952  11.407   5.454   6.436 -0.3686  0.4868  0.9036
  756MOL0     C 1953  11.467   5.559   6.348  0.6620 -0.3375  0.9014
  756MOL0     C 1954  11.490   5.364   6.516  0.4923  0.7216  0.5423
  756MOL0     C 1955  11.647   5.367   6.519  0.0116 -0.1681  0.5086
  756MOL0     O 1956  11.692   5.345   6.640 -0.1846  0.6283  0.0473
  756MOL0     C 1957  11.824   5.359   6.662 -0.3358 -0.7153  0.7870
  756MOL0     C 1958  11.909   5.253   6.645 -0.1611 -0.9231 -0.5893
  756MOL0     C 1959  12.045   5.268   6.662 -0.4847  0.5040  0.2901
  756MOL0     C 1960  12.101   5.394   6.703  0.0820  0.6419  0.0668
  756MOL0     O 1961  12.236   5.422   6.734 -0.0607  0.3673 -0.5412
  756MOL0     C 1962  12.288   5.336   6.834  0.2965 -0.1084  0.0471
  756MOL0     C 1963  12.424   5.379   6.875 -0.5486  1.2092  0.4203
  756MOL0     C 1964  12.471   5.296   6.997 -0.1806 -0.2970 -0.2209
  756MOL0     C 1965  12.625   5.305   7.004 -0.0973 -0.3865  0.3885
  756MOL0     C 1966  12.682   5.188   7.087  0.2491 -1.0928  0.7675
  756MOL0     C 1967  12.834   5.177   7.083  0.1731 -0.1009 -0.4725
  756MOL0     C 1968  12.902   5.299   7.144  0.2340 -0.6081  0.2754
  756MOL0     C 1969  13.050   5.284   7.128  0.0109 -0.7169  0.7572
  756MOL0    Cl 1970  13.149   5.255   7.273  0.1242 -0.2591 -0.4693
  756MOL0     C 1971  12.017   5.500   6.723 -0.2232  0.4996 -0.3880
  756MOL0     C 1972  11.876   5.484   6.705  0.6198 -0.3026  0.2754
  756MOL0     O 1973  11.712   5.389   6.418 -0.8026  0.5040  0.3342
  756MOL0     C 1974  11.419   5.280   6.598  0.1759  0.3488 -0.0052
  756MOL0     C 1975  11.284   5.281   6.600  0.5832  0.3188 -0.1008
  756MOL0     N 1976  10.503   5.674   6.221 -0.0463  0.7569  0.2096
  756MOL0     N 1977  10.448   5.688   6.105  1.0672 -0.1232  0.4213
  756MOL0     C 1978  10.750   5.775   5.179 -0.9153 -0.1815  0.4739
  756MOL0     C 1979  10.828   5.859   5.100 -1.3212  0.6940  0.1462
  756MOL0     C 1980  10.894   6.237   4.866 -0.4976  0.3108 -0.2927
  756MOL0     C 1981  11.008   6.195   4.802 -0.5726 -0.1308 -0.0558
  756MOL0     C 1982  11.084   6.289   4.728  0.9189  0.3650  0.6416
  756MOL0     C 1983  11.037   6.422   4.718  0.8625  0.0432  0.0927
  756MOL0     O 1984  11.104   6.498   4.624  0.1069 -1.2278  0.0177
  756MOL0     C 1985  11.203   6.584   4.684 -0.0214 -0.3076 -0.0363
  756MOL0     C 1986  11.286   6.654   4.571 -0.3753 -1.7095 -0.2702
  756MOL0     C 1987  11.388   6.758   4.637 -0.6271 -0.0222 -0.4700
  756MOL0     C 1988  11.506   6.806   4.540 -0.5571  0.8508  0.1327
  756MOL0     C 1989  11.593   6.882   4.621 -0.4130  0.0751  0.0788
  756MOL0     C 1990  11.677   6.956   4.665  0.0306 -0.0130  0.2014
  756MOL0     C 1991  10.927   6.465   4.787 -0.0829  0.5064 -0.5322
  756MOL0     C 1992  10.855   6.366   4.855 -0.4373  0.6004 -0.9245
  756MOL0     H 1993  10.623   5.906   4.843 -0.0838  1.4084  1.4974
  756MOL0     H 1994  10.501   5.737   4.961  1.1119  1.1969 -3.5616
  756MOL0     H 1995  10.393   5.711   5.238  2.5113  0.3332  0.3764
  756MOL0     H 1996  10.405   5.616   5.082  0.8848  0.3756 -0.7907
  756MOL0     H 1997  10.292   5.471   5.256  0.0160  1.4964 -0.8800
  756MOL0     H 1998  10.452   5.404   5.234  1.4828  0.7280  0.1448
  756MOL0     H 1999  10.444   5.610   5.455 -4.4885  2.1639 -1.2941
  756MOL0     H 2000  10.342   5.461   5.478 -1.4200  0.2136 -0.1430
  756MOL0     H 2001  10.571   5.335   5.432  0.5683  0.1322 -1.5036
  756MOL0     H 2002  10.635   5.488   5.397 -1.2843 -1.0452 -2.5526
  756MOL0     H 2003  10.692   5.426   5.613 -1.5685 -0.7770  0.3774
  756MOL0     H 2004  10.598   5.567   5.644  0.7391 -0.0765 -0.2402
  756MOL0     H 2005  10.392   5.427   5.692 -0.8129 -2.1589 -1.6306
  756MOL0     H 2006  10.491   5.285   5.682 -0.3131  0.9341 -1.9289
  756MOL0     H 2007  10.488   5.349   5.923 -1.9154  1.3951 -0.5337
  756MOL0     H 2008  10.637   5.417   5.865  0.2801  1.5419  0.8050
  756MOL0     H 2009  10.360   5.538   5.889  0.9329 -1.4249 -2.8016
  756MOL0     H 2010  10.495   5.620   5.812  0.6822 -1.2534 -0.2531
  756MOL0     H 2011  10.690   5.477   6.050  1.4471  2.2596 -2.7444
  756MOL0     H 2012  10.821   5.604   6.273  0.3859  1.1180  1.8530
  756MOL0     H 2013  10.713   5.613   6.409  1.1466  1.7083 -0.4200
  756MOL0     H 2014  10.762   5.359   6.253  0.0639  0.3836 -0.2605
  756MOL0     H 2015  10.652   5.378   6.393  3.1313 -0.6729  4.4384
  756MOL0     H 2016  10.834   5.267   6.468 -2.0086 -0.7288 -2.0016
  756MOL0     H 2017  10.803   5.429   6.557 -0.9693  0.1788 -0.6566
  756MOL0     H 2018  10.996   5.532   6.449  2.3156  0.2317 -2.7517
  756MOL0     H 2019  11.009   5.406   6.339 -0.3406 -2.6403  1.1420
  756MOL0     H 2020  11.221   5.518   6.360  1.5761 -1.4988 -1.9640
  756MOL0     H 2021  11.396   5.643   6.349 -4.5262 -4.2054  1.4356
  756MOL0     H 2022  11.563   5.601   6.377 -1.0708  4.5465  0.6226
  756MOL0     H 2023  11.470   5.529   6.243 -0.7382  0.3974  0.6192
  756MOL0     H 2024  11.860   5.157   6.629 -1.1442 -0.5312  0.0054
  756MOL0     H 2025  12.112   5.188   6.631 -1.0285  0.3478 -0.5017
  756MOL0     H 2026  12.221   5.333   6.920  1.1115 -1.5023  0.6669
  756MOL0     H 2027  12.295   5.235   6.792 -0.6752 -0.8208  1.5089
  756MOL0     H 2028  12.495   5.350   6.797  1.0154  0.6740  1.9825
  756MOL0     H 2029  12.426   5.487   6.892  0.6540  1.1182  0.9567
  756MOL0     H 2030  12.427   5.196   6.990  1.9008 -1.2320 -0.6583
  756MOL0     H 2031  12.430   5.349   7.083 -0.3834  0.9039 -1.0281
  756MOL0     H 2032  12.669   5.287   6.906  1.6634 -1.7244  1.3429
  756MOL0     H 2033  12.650   5.402   7.048  0.3422 -1.2234  2.1017
  756MOL0     H 2034  12.631   5.095   7.060  1.8112 -1.5798 -0.6875
  756MOL0     H 2035  12.651   5.201   7.191  0.4459  2.1811  0.5017
  756MOL0     H 2036  12.863   5.085   7.135  0.6515  0.5506  0.4529
  756MOL0     H 2037  12.855   5.166   6.976  1.0162  3.7362 -0.8412
  756MOL0     H 2038  12.883   5.305   7.252 -0.7641  1.2956  0.0366
  756MOL0     H 2039  12.882   5.395   7.096  0.8961 -1.0818 -0.9843
  756MOL0     H 2040  13.088   5.377   7.084 -0.6534 -0.6819  0.2548
  756MOL0     H 2041  13.063   5.206   7.053 -3.3863  1.2795 -2.1765
  756MOL0     H 2042  12.062   5.592   6.757  0.2544  1.1173 -2.5299
  756MOL0     H 2043  11.817   5.575   6.717  5.0503  2.8982  0.4332
  756MOL0     H 2044  11.466   5.213   6.669 -0.6940 -1.4633 -1.0582
  756MOL0     H 2045  11.227   5.230   6.677 -0.3888  0.3293 -0.7876
  756MOL0     H 2046  10.781   5.733   5.274 -2.3247 -4.2361 -0.6488
  756MOL0     H 2047  10.917   5.904   5.142 -1.3321  1.0525 -0.2055
  756MOL0     H 2048  11.047   6.095   4.790  3.6101  1.2340  0.7644
  756MOL0     H 2049  11.163   6.252   4.664 -2.0373 -2.1799 -1.9115
  756MOL0     H 2050  11.153   6.665   4.738  1.4724  0.7065 -0.0984
  756MOL0     H 2051  11.271   6.528   4.748  0.0492  2.1577  2.2022
  756MOL0     H 2052  11.220   6.716   4.509  0.7069 -0.8459 -0.5986
  756MOL0     H 2053  11.338   6.575   4.515  0.3138 -1.9920  0.7483
  756MOL0     H 2054  11.442   6.700   4.713  1.4589  2.9978  0.5317
  756MOL0     H 2055  11.338   6.830   4.701 -1.3113  0.4006 -1.4526
  756MOL0     H 2056  11.471   6.874   4.462 -1.1813 -2.1756 -2.4464
  756MOL0     H 2057  11.565   6.720   4.506  0.6126 -0.6073  5.0762
  756MOL0     H 2058  11.748   7.020   4.713 -2.4749  2.8183  0.4331
  756MOL0     H 2059  10.896   6.569   4.783 -2.5259 -0.2139 -1.8397
  756MOL0     H 2060  10.768   6.399   4.911 -1.0717 -1.3664 -0.6616
  757MOL0     O 2061   1.322   4.193   9.284 -0.4050  0.1148  0.1875
  757MOL0     C 2062   1.390   4.257   9.365  0.2527  0.9416  1.2208
  757MOL0     O 2063   1.361   4.384   9.397 -0.8546  0.0159 -0.3438
  757MOL0     C 2064   1.237   4.437   9.387 -0.5703  0.5445 -0.2086
  757MOL0     C 2065   1.119   4.377   9.445  0.1483  0.0799  0.4172
  757MOL0     C 2066   1.003   4.450   9.451  0.8403  0.5763 -0.5717
  757MOL0     C 2067   0.997   4.587   9.408  0.3894  0.3342 -0.1525
  757MOL0     O 2068   0.885   4.668   9.434  0.5035 -0.6401 -0.1345
  757MOL0     C 2069   0.830   4.727   9.310 -0.0779  0.1631  0.1483
  757MOL0     C 2070   0.763   4.860   9.348  1.3113  0.2068  0.2272
  757MOL0     C 2071   0.615   4.847   9.407 -0.6987  0.2075 -0.3318
  757MOL0     C 2072   0.522   4.979   9.403 -0.1092  0.0907 -0.7998
  757MOL0     C 2073   0.367   4.948   9.420 -0.5967  0.2934 -0.6747
  757MOL0     C 2074   0.275   4.917   9.297  0.2706 -0.0062 -0.6492
  757MOL0     C 2075   0.130   4.910   9.334 -0.1959  0.1141  0.3306
  757MOL0     C 2076   0.036   4.904   9.218 -0.0393 -0.3259 -0.1120
  757MOL0     N 2077  -0.106   4.899   9.263 -0.8349  0.0502  0.6945
  757MOL0     C 2078  -0.164   4.806   9.347 -0.6383  0.3473 -0.0843
  757MOL0     C 2079  -0.295   4.818   9.327  0.7851 -0.4227  0.1953
  757MOL0     C 2080  -0.402   4.745   9.397  0.2860  1.0147 -0.6531
  757MOL0     C 2081  -0.399   4.782   9.542  0.4469 -0.3185 -0.0752
  757MOL0     C 2082  -0.507   4.705   9.606  0.5129 -0.4204  0.3764
  757MOL0     C 2083  -0.582   4.764   9.725  0.2567  0.4333 -0.3647
  757MOL0     O 2084  -0.609   4.660   9.819  0.6592  0.2372 -0.1135
  757MOL0     C 2085  -0.693   4.678   9.928  0.2598 -0.6226 -1.5851
  757MOL0     C 2086  -0.702   4.582  10.030 -0.3559 -0.4863  0.6085
  757MOL0     C 2087  -0.789   4.602  10.144  0.5429  0.2020 -0.1601
  757MOL0     C 2088  -0.787   4.498  10.253  0.3416  0.1485  0.4706
  757MOL0     C 2089  -0.864   4.719  10.155  0.2295 -0.4700  0.3109
  757MOL0     C 2090  -0.955   4.741  10.277  0.5329  0.3283  0.4283
  757MOL0     O 2091  -1.055   4.825  10.255  0.9086  0.3471 -0.0053
  757MOL0     C 2092  -1.150   4.853  10.351 -0.3036 -1.1613  0.0496
  757MOL0     C 2093  -1.281   4.796  10.340 -0.6495 -0.0784 -0.7833
  757MOL0     C 2094  -1.373   4.819  10.448 -0.5090 -0.0913  0.2983
  757MOL0     C 2095  -1.333   4.905  10.554 -0.0795  0.5891 -0.4199
  757MOL0     O 2096  -1.428   4.921  10.650 -0.5648  1.1572  0.0402
  757MOL0     C 2097  -1.437   5.035  10.736  0.1128  0.9631 -0.2522
  757MOL0     C 2098  -1.482   4.996  10.870  0.6013 -0.7898  0.1917
  757MOL0     C 2099  -1.500   5.113  10.973 -0.2413  0.7209 -0.2561
  757MOL0     C 2100  -1.630   5.182  10.950  0.9137  1.3367 -0.6571
  757MOL0     C 2101  -1.750   5.100  10.991  0.1825  0.0751  0.7340
  757MOL0     C 2102  -1.873   5.145  10.893 -0.1741 -0.2345  0.0305
  757MOL0     C 2103  -1.912   5.289  10.897 -0.5678 -0.2066 -0.1728
  757MOL0     C 2104  -1.929   5.347  11.038  0.5973  0.5080 -0.2036
  757MOL0    Cl 2105  -2.037   5.242  11.130 -0.4362  0.7446  0.3653
  757MOL0     C 2106  -1.201   4.950  10.570  0.7594 -0.4937  0.0647
  757MOL0     C 2107  -1.112   4.934  10.463 -1.0402  0.2222  0.1744
  757MOL0     O 2108  -0.943   4.677  10.384 -0.2403 -0.0604  0.5116
  757MOL0     C 2109  -0.840   4.826  10.059  0.2315 -0.2272 -0.4248
  757MOL0     C 2110  -0.758   4.801   9.954 -0.5478 -0.5165  0.2559
  757MOL0     N 2111  -0.312   4.914   9.226 -0.8232  0.0910  0.4561
  757MOL0     N 2112  -0.197   4.971   9.199 -0.3362 -0.7416  0.2223
  757MOL0     C 2113   1.115   4.644   9.352  0.6399 -0.4189 -0.4701
  757MOL0     C 2114   1.229   4.567   9.344  0.4713 -1.4884 -0.7523
  757MOL0     C 2115   1.513   4.190   9.422 -0.4767 -0.2109 -0.0012
  757MOL0     C 2116   1.549   4.060   9.381  0.3949 -0.6307 -0.3350
  757MOL0     C 2117   1.670   4.005   9.420 -1.0292 -0.4065  0.2331
  757MOL0     C 2118   1.763   4.083   9.490 -0.5675 -0.0154  0.4475
  757MOL0     O 2119   1.878   4.036   9.545  0.0981 -0.0106 -0.2296
  757MOL0     C 2120   1.922   3.906   9.514 -0.1473  1.2189 -0.5270
  757MOL0     C 2121   2.077   3.907   9.523 -0.0626 -0.3952  0.2163
  757MOL0     C 2122   2.121   3.885   9.667  0.0673  0.3393 -0.2100
  757MOL0     C 2123   2.265   3.915   9.685 -0.9942 -1.0752  0.1027
  757MOL0     C 2124   2.307   4.049   9.651 -0.3210 -0.4185  0.3900
  757MOL0     C 2125   2.346   4.163   9.616  0.3601 -0.1467 -1.6471
  757MOL0     C 2126   1.728   4.209   9.515  0.6989  0.5063  0.0738
  757MOL0     C 2127   1.601   4.257   9.501  0.4876  0.0845 -0.4236
  757MOL0     H 2128   1.133   4.283   9.496  3.0894 -1.9074 -3.5191
  757MOL0     H 2129   0.921   4.399   9.500  1.0125  1.0118  0.2035
  757MOL0     H 2130   0.905   4.747   9.233  2.1493 -4.5474  0.7555
  757MOL0     H 2131   0.761   4.652   9.270 -0.0373 -0.2843  0.8839
  757MOL0     H 2132   0.819   4.907   9.429 -1.6887  2.0551  1.4085
  757MOL0     H 2133   0.755   4.929   9.264 -0.8645  1.6601  1.5288
  757MOL0     H 2134   0.560   4.773   9.348 -2.8258 -0.2408  2.0098
  757MOL0     H 2135   0.625   4.796   9.503  0.5290 -0.7208 -0.9317
  757MOL0     H 2136   0.557   5.048   9.481 -2.4641  1.6845 -1.0450
  757MOL0     H 2137   0.552   5.029   9.311  0.2406  3.6452  1.0333
  757MOL0     H 2138   0.343   4.881   9.503 -0.2435  2.6870  1.4834
  757MOL0     H 2139   0.333   5.042   9.463  2.4508  2.0688 -1.8129
  757MOL0     H 2140   0.298   4.988   9.217 -0.5141  0.9840 -0.0201
  757MOL0     H 2141   0.306   4.825   9.246  1.0844 -0.7304  1.0680
  757MOL0     H 2142   0.127   4.823   9.400  0.0939  0.6389  1.0499
  757MOL0     H 2143   0.100   5.002   9.385 -2.6243 -0.2497 -0.3035
  757MOL0     H 2144   0.062   4.814   9.161  2.7176  0.5428 -0.3751
  757MOL0     H 2145   0.052   4.980   9.140 -1.8522  0.7304  0.5023
  757MOL0     H 2146  -0.128   4.733   9.420 -1.3680 -1.2975 -1.2989
  757MOL0     H 2147  -0.497   4.779   9.356 -0.7809  0.6233  1.3915
  757MOL0     H 2148  -0.390   4.636   9.387  3.5728  1.2097 -0.0264
  757MOL0     H 2149  -0.414   4.887   9.569 -1.4830 -0.6841  0.4446
  757MOL0     H 2150  -0.298   4.756   9.576  1.0181  2.4077  0.5079
  757MOL0     H 2151  -0.468   4.607   9.633 -0.5443 -2.2236 -3.8726
  757MOL0     H 2152  -0.587   4.690   9.533  0.5015 -3.0428  0.8488
  757MOL0     H 2153  -0.671   4.815   9.687  0.8064  2.5036  0.9081
  757MOL0     H 2154  -0.526   4.846   9.771  0.2332 -0.6230  1.6513
  757MOL0     H 2155  -0.637   4.496  10.029 -1.2217 -1.1895 -1.2303
  757MOL0     H 2156  -0.889   4.467  10.276  0.7019 -2.4243 -1.0511
  757MOL0     H 2157  -0.734   4.415  10.205  1.4804  3.0111 -3.9073
  757MOL0     H 2158  -0.737   4.538  10.342 -2.2182 -0.7963  2.4465
  757MOL0     H 2159  -1.308   4.723  10.264 -2.1931  0.6804 -1.0063
  757MOL0     H 2160  -1.470   4.771  10.450  0.8491 -3.7922 -4.5053
  757MOL0     H 2161  -1.337   5.075  10.752  1.3115 -2.6152  2.5115
  757MOL0     H 2162  -1.501   5.112  10.692  0.1761  0.6091 -0.9837
  757MOL0     H 2163  -1.577   4.942  10.864 -0.8190  0.9071  3.9686
  757MOL0     H 2164  -1.407   4.921  10.898  2.2471 -0.1767 -2.2618
  757MOL0     H 2165  -1.418   5.184  10.960 -0.6841  1.1897 -0.5422
  757MOL0     H 2166  -1.490   5.082  11.077  1.3183  2.1926  0.0776
  757MOL0     H 2167  -1.618   5.285  10.985  2.6784  0.6400  0.9022
  757MOL0     H 2168  -1.645   5.199  10.843  1.9999  0.1736 -1.0146
  757MOL0     H 2169  -1.774   5.115  11.097 -4.6970 -2.5774  0.2641
  757MOL0     H 2170  -1.740   4.992  10.983 -0.8868  0.0678 -1.0050
  757MOL0     H 2171  -1.854   5.121  10.788  2.4402 -0.2856  0.4360
  757MOL0     H 2172  -1.964   5.096  10.928 -0.3494  1.1980  1.7200
  757MOL0     H 2173  -2.007   5.306  10.843  0.5759  5.4997 -1.0999
  757MOL0     H 2174  -1.842   5.349  10.837 -2.7378  0.1102 -2.5913
  757MOL0     H 2175  -1.961   5.451  11.029  1.6719  1.0596  1.6828
  757MOL0     H 2176  -1.837   5.345  11.097  0.0144 -0.2085  0.7254
  757MOL0     H 2177  -1.172   5.010  10.656 -3.3982 -0.2986  1.5629
  757MOL0     H 2178  -1.006   4.958  10.464 -1.0367  0.1846  0.6146
  757MOL0     H 2179  -0.888   4.922  10.078  0.6345 -0.0126 -0.4860
  757MOL0     H 2180  -0.735   4.882   9.885 -2.9359  1.7015  1.8753
  757MOL0     H 2181   1.128   4.746   9.317 -0.8190  0.3926  1.1697
  757MOL0     H 2182   1.319   4.612   9.306  0.3979  1.6710  2.3414
  757MOL0     H 2183   1.478   3.997   9.329  1.4080 -3.5696  1.6273
  757MOL0     H 2184   1.691   3.900   9.403  1.4691  0.1516 -0.4178
  757MOL0     H 2185   1.878   3.822   9.570  0.1076  0.0417 -2.0152
  757MOL0     H 2186   1.896   3.882   9.411  0.1358 -4.9180  0.4139
  757MOL0     H 2187   2.111   3.991   9.463 -0.2311 -1.0195 -0.7823
  757MOL0     H 2188   2.095   3.819   9.460  0.3391 -0.5158  0.4950
  757MOL0     H 2189   2.092   3.788   9.707  1.4072  1.0984  2.9071
  757MOL0     H 2190   2.070   3.962   9.726 -1.4297 -0.3537 -0.5774
  757MOL0     H 2191   2.333   3.841   9.641  1.7886  0.3942  1.6243
  757MOL0     H 2192   2.291   3.907   9.792 -2.1414  0.4452  0.5204
  757MOL0     H 2193   2.365   4.262   9.582 -0.3151  1.2071  1.5930
  757MOL0     H 2194   1.805   4.260   9.572  1.4326 -1.4041  0.8875
  757MOL0     H 2195   1.586   4.355   9.544  0.2493 -0.1394  0.0168
  758MOL0     O 2196   9.742   9.919   7.693 -0.4874  0.4752  0.0151
  758MOL0     C 2197   9.634   9.877   7.713  0.4374 -0.8114 -0.3821
  758MOL0     O 2198   9.525   9.951   7.755 -0.8415  0.0268  1.0425
  758MOL0     C 2199   9.541  10.075   7.816  0.2173  0.1694 -0.8624
  758MOL0     C 2200   9.634  10.104   7.923 -0.6756 -0.0299 -1.0345
  758MOL0     C 2201   9.653  10.238   7.969  0.4303 -0.4110 -0.1005
  758MOL0     C 2202   9.564  10.341   7.928  0.0119 -0.9352  0.0321
  758MOL0     O 2203   9.578  10.469   7.990 -0.2381  0.2597  0.5642
  758MOL0     C 2204   9.546  10.588   7.908  0.2082  0.4968 -0.3621
  758MOL0     C 2205   9.397  10.638   7.904 -0.0618 -0.0846  0.1189
  758MOL0     C 2206   9.366  10.761   7.815  0.0168  0.0145 -0.0113
  758MOL0     C 2207   9.243  10.837   7.851 -0.4017 -0.5517 -0.1568
  758MOL0     C 2208   9.219  10.950   7.760  0.4629 -0.1538  0.5758
  758MOL0     C 2209   9.093  11.027   7.802 -0.0675  0.7857 -0.2620
  758MOL0     C 2210   9.041  11.116   7.701  0.7844 -0.0345  0.3125
  758MOL0     C 2211   8.926  11.213   7.744  0.8210  0.3767  0.1067
  758MOL0     N 2212   8.805  11.166   7.809 -0.1738  0.1598 -0.2393
  758MOL0     C 2213   8.812  11.115   7.937  0.9768  0.2520 -0.3633
  758MOL0     C 2214   8.712  11.026   7.949  0.0761  0.0570 -0.4837
  758MOL0     C 2215   8.670  10.958   8.067 -0.7846  1.6007 -1.1691
  758MOL0     C 2216   8.761  10.839   8.092 -0.1753 -0.2965 -0.7827
  758MOL0     C 2217   8.884  10.874   8.184  0.0304  0.2752  0.1153
  758MOL0     C 2218   8.963  10.752   8.227 -0.4198  0.3670  0.6887
  758MOL0     O 2219   9.009  10.686   8.103 -0.2164  0.7021 -0.7351
  758MOL0     C 2220   9.057  10.551   8.114  0.2308  0.8807  0.3703
  758MOL0     C 2221   9.046  10.466   8.006  0.0610 -0.5785 -0.5746
  758MOL0     C 2222   9.102  10.335   7.993 -0.3207 -0.1840 -0.7191
  758MOL0     C 2223   9.075  10.264   7.865 -0.3090 -0.2772  0.2439
  758MOL0     C 2224   9.152  10.275   8.106 -0.4759  0.2545 -0.4641
  758MOL0     C 2225   9.213  10.138   8.127 -0.8607  0.9721  1.2174
  758MOL0     O 2226   9.252  10.101   8.250  0.5323  0.8828 -1.2530
  758MOL0     C 2227   9.316   9.976   8.261 -0.1563 -1.1208  0.1151
  758MOL0     C 2228   9.425   9.948   8.187 -0.6127 -0.0794  0.1929
  758MOL0     C 2229   9.482   9.822   8.186  0.3852  0.4158  0.8390
  758MOL0     C 2230   9.441   9.719   8.272 -0.5607  0.5944  0.1944
  758MOL0     O 2231   9.476   9.588   8.279 -0.4880  0.1177 -0.1844
  758MOL0     C 2232   9.553   9.546   8.169  0.5887 -0.3451  0.4373
  758MOL0     C 2233   9.699   9.571   8.192  0.0424 -0.0315 -0.1881
  758MOL0     C 2234   9.781   9.540   8.066  0.2812 -0.0503  0.5880
  758MOL0     C 2235   9.914   9.627   8.065 -0.2970  0.7644  0.2388
  758MOL0     C 2236   9.920   9.717   7.943 -0.3789 -0.4462 -1.0955
  758MOL0     C 2237  10.060   9.778   7.929  0.0493 -0.2869  0.3784
  758MOL0     C 2238  10.076   9.861   7.806 -0.0483 -0.0375 -0.4032
  758MOL0     C 2239  10.219   9.855   7.752  0.7284  0.2926 -0.4389
  758MOL0    Cl 2240  10.203   9.898   7.577  0.1464 -0.0946  0.2717
  758MOL0     C 2241   9.337   9.752   8.360  0.5039 -0.2929 -0.4285
  758MOL0     C 2242   9.268   9.881   8.354 -0.1044  0.9467  0.1601
  758MOL0     O 2243   9.217  10.065   8.030 -0.1661  0.4851 -0.3193
  758MOL0     C 2244   9.156  10.354   8.224 -0.3188  0.2919  0.6107
  758MOL0     C 2245   9.114  10.490   8.231 -0.5333  0.4939  1.3433
  758MOL0     N 2246   8.636  11.031   7.834  0.1426  0.1313  0.4990
  758MOL0     N 2247   8.691  11.111   7.747  0.0622 -0.5820  0.7450
  758MOL0     C 2248   9.461  10.309   7.826 -0.0414 -0.2380 -0.6831
  758MOL0     C 2249   9.454  10.176   7.784  0.5600  0.7221  0.1268
  758MOL0     C 2250   9.618   9.727   7.686  0.1806  0.0346  0.2314
  758MOL0     C 2251   9.510   9.659   7.736  0.7318  0.2976  0.1851
  758MOL0     C 2252   9.485   9.518   7.719 -0.0260 -0.0419  0.3049
  758MOL0     C 2253   9.590   9.442   7.658 -0.2948 -0.8392  0.8587
  758MOL0     O 2254   9.592   9.302   7.647 -0.1217 -0.6422 -0.1481
  758MOL0     C 2255   9.494   9.221   7.715  0.1163  0.0755 -0.9217
  758MOL0     C 2256   9.512   9.215   7.870 -0.1360 -0.2977 -0.3004
  758MOL0     C 2257   9.627   9.129   7.907 -0.6942  1.2693  0.2444
  758MOL0     C 2258   9.633   9.117   8.059 -0.3284  1.3795 -0.6520
  758MOL0     C 2259   9.736   9.018   8.102  0.2689  1.0610  1.0617
  758MOL0     C 2260   9.815   8.933   8.141  0.2593 -0.4421 -0.1778
  758MOL0     C 2261   9.700   9.512   7.596 -0.3599  0.6282 -0.5997
  758MOL0     C 2262   9.716   9.646   7.614 -0.3258  0.0964 -0.3769
  758MOL0     H 2263   9.704  10.026   7.949  0.1467  0.9699 -0.1287
  758MOL0     H 2264   9.731  10.251   8.043 -0.5641 -1.7798  1.2311
  758MOL0     H 2265   9.610  10.666   7.949 -0.9633  1.9186 -1.1544
  758MOL0     H 2266   9.590  10.573   7.809 -0.3863  0.3496 -0.6108
  758MOL0     H 2267   9.337  10.562   7.854 -0.8347 -0.3939  1.4436
  758MOL0     H 2268   9.359  10.652   8.006 -1.6791  2.5373 -0.7368
  758MOL0     H 2269   9.445  10.835   7.826  0.1969 -0.0947 -0.5285
  758MOL0     H 2270   9.358  10.734   7.709  1.8982  3.3530 -1.1420
  758MOL0     H 2271   9.155  10.772   7.859 -0.2754 -0.7045  0.0063
  758MOL0     H 2272   9.257  10.864   7.957 -0.9903 -1.1808  0.0882
  758MOL0     H 2273   9.311  11.008   7.757 -0.5164  1.4287 -1.6620
  758MOL0     H 2274   9.200  10.917   7.657  0.6652  2.8872 -0.5370
  758MOL0     H 2275   9.020  10.957   7.845  0.8463  1.7459  3.1751
  758MOL0     H 2276   9.114  11.090   7.889  0.0481  0.2787  0.0832
  758MOL0     H 2277   9.122  11.177   7.660  0.8592  0.4050  1.0962
  758MOL0     H 2278   8.999  11.053   7.621  0.1541 -1.0768  1.4244
  758MOL0     H 2279   8.879  11.267   7.661 -1.0419 -2.5200 -0.8890
  758MOL0     H 2280   8.981  11.280   7.810  1.3380 -1.3870  1.5432
  758MOL0     H 2281   8.883  11.144   8.014  2.4394  1.4968 -2.1076
  758MOL0     H 2282   8.679  11.023   8.154  2.1971 -1.4287  1.0556
  758MOL0     H 2283   8.571  10.916   8.044 -0.1614 -0.0281 -1.0053
  758MOL0     H 2284   8.803  10.796   8.001  0.7508 -0.9570 -0.0613
  758MOL0     H 2285   8.705  10.758   8.139  1.1819 -2.8293 -3.2490
  758MOL0     H 2286   8.844  10.929   8.270 -0.1531  0.1628  0.1021
  758MOL0     H 2287   8.946  10.947   8.131  1.1771 -2.6266 -2.9634
  758MOL0     H 2288   8.890  10.690   8.281  1.0596 -0.1915  2.1094
  758MOL0     H 2289   9.045  10.784   8.292  0.5703 -2.1299  0.7815
  758MOL0     H 2290   8.981  10.502   7.927 -0.5260  2.8887  1.2749
  758MOL0     H 2291   9.139  10.178   7.842 -1.0336 -0.2096 -2.2825
  758MOL0     H 2292   8.971  10.231   7.866  0.6086 -3.7501 -1.7600
  758MOL0     H 2293   9.081  10.332   7.780 -0.4042 -0.3483  0.1794
  758MOL0     H 2294   9.478  10.017   8.123 -0.8324  2.4539  2.5330
  758MOL0     H 2295   9.562   9.805   8.115  0.3435 -2.4195  1.3689
  758MOL0     H 2296   9.525   9.441   8.158  0.1975 -0.0999 -1.1340
  758MOL0     H 2297   9.521   9.605   8.082 -1.8508 -0.6748  1.0405
  758MOL0     H 2298   9.721   9.673   8.225  1.6199  0.2260 -1.8880
  758MOL0     H 2299   9.734   9.508   8.275 -1.3617  0.6588  0.9711
  758MOL0     H 2300   9.713   9.573   7.987  1.2213 -0.1915 -0.3118
  758MOL0     H 2301   9.804   9.433   8.072 -0.9062 -0.2992  0.9127
  758MOL0     H 2302   9.934   9.673   8.162  0.1252 -2.5017  1.8067
  758MOL0     H 2303  10.002   9.563   8.057  0.1006  1.4888 -2.5965
  758MOL0     H 2304   9.839   9.790   7.944 -1.8653 -1.9134 -3.5821
  758MOL0     H 2305   9.904   9.657   7.852 -3.7992 -0.1943 -0.7752
  758MOL0     H 2306  10.084   9.838   8.017  0.6078 -1.9539  1.3997
  758MOL0     H 2307  10.130   9.694   7.927  0.8627  0.3615 -1.7775
  758MOL0     H 2308  10.039   9.963   7.815 -0.4727 -0.1149 -1.1532
  758MOL0     H 2309  10.026   9.818   7.718  1.4838  0.1851 -1.4229
  758MOL0     H 2310  10.254   9.752   7.755  2.3226  0.8035 -0.0142
  758MOL0     H 2311  10.290   9.922   7.801  1.3445  1.4612 -2.7485
  758MOL0     H 2312   9.300   9.670   8.421 -2.4380  1.0074 -0.2832
  758MOL0     H 2313   9.181   9.909   8.412 -0.0969 -0.4098  0.8667
  758MOL0     H 2314   9.209  10.315   8.311 -1.1964 -0.5890  0.7760
  758MOL0     H 2315   9.140  10.545   8.321 -0.4309 -1.4076  2.5382
  758MOL0     H 2316   9.388  10.377   7.784 -0.9609 -2.0917 -2.2360
  758MOL0     H 2317   9.389  10.156   7.699 -0.5319  0.0771  1.0844
  758MOL0     H 2318   9.431   9.722   7.775  3.2810  3.3274  0.9240
  758MOL0     H 2319   9.396   9.466   7.752 -0.6985 -0.7197 -2.3084
  758MOL0     H 2320   9.395   9.262   7.695 -0.4495  0.5934  2.3311
  758MOL0     H 2321   9.504   9.122   7.670 -1.0128 -0.6570  0.3752
  758MOL0     H 2322   9.424   9.189   7.930 -1.2454  0.4220 -1.5692
  758MOL0     H 2323   9.541   9.315   7.904  1.0327  0.2891 -2.7870
  758MOL0     H 2324   9.719   9.165   7.859  0.1217 -3.4640 -2.3980
  758MOL0     H 2325   9.611   9.031   7.862 -2.1137 -0.3237  3.7916
  758MOL0     H 2326   9.533   9.082   8.085  1.6112 -2.8340  2.2483
  758MOL0     H 2327   9.653   9.216   8.101 -0.2400  0.8954  0.4945
  758MOL0     H 2328   9.894   8.868   8.173 -0.0399 -0.7731 -0.1046
  758MOL0     H 2329   9.773   9.451   7.544 -1.1615  0.6213 -1.7556
  758MOL0     H 2330   9.811   9.683   7.576 -0.4588 -0.1779 -0.9909
  759MOL0     O 2331   3.115   6.618  11.252  0.3068  0.2067  0.3901
  759MOL0     C 2332   3.177   6.718  11.208  0.3314 -0.2978  0.1150
  759MOL0     O 2333   3.194   6.749  11.074 -0.2053 -0.2072  0.6777
  759MOL0     C 2334   3.175   6.653  10.973  0.7181 -0.4229  0.3292
  759MOL0     C 2335   3.084   6.672  10.864  0.8004  0.4816 -0.6517
  759MOL0     C 2336   3.047   6.563  10.781  0.5339  0.3327 -0.0685
  759MOL0     C 2337   3.102   6.438  10.793  0.1433  0.2495  0.1075
  759MOL0     O 2338   3.067   6.333  10.701  0.7456  0.0036 -0.0515
  759MOL0     C 2339   3.180   6.245  10.667 -0.0614 -0.2456 -0.1329
  759MOL0     C 2340   3.132   6.171  10.540 -0.5992 -0.4741  1.8829
  759MOL0     C 2341   3.079   6.283  10.442  0.5735 -0.5258  0.4935
  759MOL0     C 2342   3.066   6.225  10.293 -0.0976 -0.8038 -0.1886
  759MOL0     C 2343   3.208   6.208  10.220 -0.1460  0.3316  0.8084
  759MOL0     C 2344   3.200   6.134  10.091 -0.3246  0.3496 -0.6197
  759MOL0     C 2345   3.127   6.203   9.977 -0.7807 -0.8782 -0.7202
  759MOL0     C 2346   3.093   6.121   9.853  0.0651  0.1757 -0.2086
  759MOL0     N 2347   3.217   6.058   9.798 -0.3042  0.2680 -0.5922
  759MOL0     C 2348   3.314   6.124   9.717  0.3471  0.6182 -0.1087
  759MOL0     C 2349   3.370   6.026   9.645  0.4441  1.1332  0.1580
  759MOL0     C 2350   3.483   6.042   9.537  1.5468  0.3333 -1.3176
  759MOL0     C 2351   3.610   6.110   9.575 -0.5812  0.2984 -0.1593
  759MOL0     C 2352   3.713   6.154   9.462  0.3772  0.2338 -0.3684
  759MOL0     C 2353   3.669   6.274   9.378 -0.4560 -0.7028 -0.0152
  759MOL0     O 2354   3.568   6.227   9.288 -0.7441  0.7312  0.0970
  759MOL0     C 2355   3.573   6.269   9.157  0.4156  0.0789  0.4699
  759MOL0     C 2356   3.614   6.184   9.052  0.0223 -0.0631 -0.2901
  759MOL0     C 2357   3.595   6.222   8.917 -0.3223  0.5578  0.0207
  759MOL0     C 2358   3.644   6.122   8.812  0.5312  0.5151 -0.9050
  759MOL0     C 2359   3.543   6.350   8.884 -0.2220 -0.1214  0.4153
  759MOL0     C 2360   3.519   6.397   8.746 -0.4532 -0.3721  0.6063
  759MOL0     O 2361   3.506   6.300   8.645 -0.0339  0.0226 -0.0882
  759MOL0     C 2362   3.449   6.348   8.530  0.0146 -0.2696  0.8090
  759MOL0     C 2363   3.312   6.359   8.520  0.2201  0.0450 -0.6524
  759MOL0     C 2364   3.250   6.422   8.410  0.0522  0.7120  0.5205
  759MOL0     C 2365   3.325   6.472   8.310 -0.4618 -0.4264  0.9154
  759MOL0     O 2366   3.271   6.520   8.187  0.1680  0.1841 -0.1910
  759MOL0     C 2367   3.132   6.498   8.144  0.1891  0.2295  0.4039
  759MOL0     C 2368   3.120   6.528   7.995  0.6924  0.7811  0.8073
  759MOL0     C 2369   3.199   6.425   7.916 -0.1141  0.0241 -0.0668
  759MOL0     C 2370   3.157   6.277   7.935  0.3351 -0.5994  0.0889
  759MOL0     C 2371   3.018   6.250   7.878 -0.1596  0.3758  0.2781
  759MOL0     C 2372   2.991   6.105   7.888 -0.0600  0.5312  1.0681
  759MOL0     C 2373   2.875   6.069   7.793 -0.0066  0.2823 -0.8517
  759MOL0     C 2374   2.800   5.937   7.811  0.0421  0.1888  0.3183
  759MOL0    Cl 2375   2.909   5.807   7.860 -0.4025 -0.2386  0.1887
  759MOL0     C 2376   3.469   6.440   8.314 -0.7091  0.2479  0.8392
  759MOL0     C 2377   3.525   6.383   8.425  0.0201 -0.0767  0.1858
  759MOL0     O 2378   3.512   6.518   8.724 -0.0968  0.2722 -0.5693
  759MOL0     C 2379   3.528   6.436   8.991  0.3738 -0.0459 -0.3381
  759MOL0     C 2380   3.537   6.394   9.128 -0.4399  0.0673  0.3868
  759MOL0     N 2381   3.323   5.907   9.691  0.4789 -0.3998  0.5605
  759MOL0     N 2382   3.229   5.923   9.775 -0.0245 -0.6789  0.4423
  759MOL0     C 2383   3.200   6.425  10.896 -0.4662  0.0862  0.4641
  759MOL0     C 2384   3.235   6.527  10.991 -0.5526 -0.1235 -0.2088
  759MOL0     C 2385   3.222   6.821  11.313  0.1602 -0.1419  0.2012
  759MOL0     C 2386   3.282   6.947  11.282  0.3779  0.0021  0.5755
  759MOL0     C 2387   3.316   7.040  11.388  0.1288  0.8128  0.8064
  759MOL0     C 2388   3.297   6.995  11.520 -0.6487 -0.6164  0.1521
  759MOL0     O 2389   3.341   7.067  11.634 -0.3231  0.0147  0.8210
  759MOL0     C 2390   3.430   7.180  11.617 -0.3406  0.3397 -0.5941
  759MOL0     C 2391   3.475   7.242  11.751 -0.0375  0.0650  0.8171
  759MOL0     C 2392   3.577   7.145  11.809 -0.2889  0.4209  0.4604
  759MOL0     C 2393   3.619   7.158  11.953 -1.3273  0.0663 -0.1518
  759MOL0     C 2394   3.752   7.110  11.976 -0.5460  0.8774 -0.3139
  759MOL0     C 2395   3.866   7.067  11.992 -0.4453 -0.3215 -0.3780
  759MOL0     C 2396   3.237   6.879  11.548  0.7264  0.4798  0.4341
  759MOL0     C 2397   3.190   6.796  11.443 -0.2779  0.0226 -0.4804
  759MOL0     H 2398   3.053   6.776  10.854  1.8726  1.3727  3.2138
  759MOL0     H 2399   2.984   6.570  10.693  1.1138 -0.1750 -0.5318
  759MOL0     H 2400   3.274   6.300  10.651  0.3211 -0.7878  0.2212
  759MOL0     H 2401   3.200   6.169  10.743  0.7610 -2.2055 -2.2023
  759MOL0     H 2402   3.220   6.120  10.501 -0.7955 -0.9435  2.0489
  759MOL0     H 2403   3.050   6.102  10.556 -1.6144 -0.6551 -2.6760
  759MOL0     H 2404   2.980   6.314  10.475 -0.1538 -2.9944  0.8587
  759MOL0     H 2405   3.144   6.371  10.439 -3.4212  2.6653 -1.2084
  759MOL0     H 2406   3.014   6.129  10.289 -0.4511 -0.6462  0.5418
  759MOL0     H 2407   3.011   6.295  10.230 -1.9620 -1.3197  0.8162
  759MOL0     H 2408   3.242   6.308  10.193 -1.6906  0.3082 -1.5990
  759MOL0     H 2409   3.289   6.164  10.279  0.6072 -1.2358 -1.2607
  759MOL0     H 2410   3.298   6.113  10.047 -0.0041  1.3017 -0.3877
  759MOL0     H 2411   3.156   6.038  10.119  4.5870 -1.8050  0.8538
  759MOL0     H 2412   3.037   6.234  10.030  1.6146  2.2890  1.9926
  759MOL0     H 2413   3.183   6.292   9.947 -0.4160 -0.2054  1.7111
  759MOL0     H 2414   3.048   6.196   9.787 -1.0808 -0.0319  0.3195
  759MOL0     H 2415   3.011   6.048   9.857 -0.8554  1.1521 -0.7705
  759MOL0     H 2416   3.331   6.231   9.707  0.8885  0.3933 -2.2576
  759MOL0     H 2417   3.495   5.943   9.493 -1.6896 -1.2400  0.9097
  759MOL0     H 2418   3.439   6.109   9.462 -1.1415  1.9633  1.4879
  759MOL0     H 2419   3.664   6.033   9.630 -0.9381  0.0206 -0.1937
  759MOL0     H 2420   3.604   6.194   9.645 -0.7827 -0.0271  0.2206
  759MOL0     H 2421   3.742   6.075   9.392 -1.7054  0.6684 -1.8126
  759MOL0     H 2422   3.808   6.182   9.508  0.0197 -1.0627  1.2737
  759MOL0     H 2423   3.747   6.311   9.311 -1.8535  3.5059  0.3675
  759MOL0     H 2424   3.631   6.357   9.439  2.9251  1.6966 -0.8944
  759MOL0     H 2425   3.667   6.093   9.078  0.7347  0.7792  1.3613
  759MOL0     H 2426   3.566   6.054   8.776  0.7327  0.0882 -0.5513
  759MOL0     H 2427   3.691   6.166   8.724 -0.0197 -0.9249 -1.9725
  759MOL0     H 2428   3.717   6.058   8.864 -1.9474  0.4930  2.9845
  759MOL0     H 2429   3.247   6.320   8.598 -2.6828  1.9311 -1.9289
  759MOL0     H 2430   3.143   6.440   8.421  0.6267  3.0833  3.4720
  759MOL0     H 2431   3.098   6.396   8.163  0.5919 -0.5059 -2.3128
  759MOL0     H 2432   3.082   6.566   8.213 -2.9222 -2.4538  1.0606
  759MOL0     H 2433   3.018   6.514   7.958  1.1348  0.9503 -0.5024
  759MOL0     H 2434   3.139   6.634   7.972  2.0720  0.3843  0.0094
  759MOL0     H 2435   3.302   6.430   7.951 -0.8532  2.6836  2.0349
  759MOL0     H 2436   3.196   6.434   7.807 -1.0086 -3.7202 -0.4697
  759MOL0     H 2437   3.226   6.217   7.875 -0.1492 -0.0201 -1.0776
  759MOL0     H 2438   3.171   6.238   8.037  2.0347 -1.3822 -0.4065
  759MOL0     H 2439   3.024   6.269   7.771  1.0960 -3.6731 -0.5272
  759MOL0     H 2440   2.940   6.316   7.917  0.0992  1.8267 -1.5038
  759MOL0     H 2441   3.068   6.034   7.855 -0.6895 -0.4267  1.5823
  759MOL0     H 2442   2.971   6.079   7.992  2.2714 -0.5058  1.3373
  759MOL0     H 2443   2.920   6.086   7.694  2.7586  5.1608  0.8724
  759MOL0     H 2444   2.806   6.153   7.808 -1.4348 -1.1487  1.0261
  759MOL0     H 2445   2.742   5.913   7.722 -0.4682  1.1106  0.3905
  759MOL0     H 2446   2.724   5.963   7.885 -0.6756  2.8878 -1.2269
  759MOL0     H 2447   3.526   6.470   8.226 -1.4460 -0.6109  0.0410
  759MOL0     H 2448   3.634   6.390   8.429  0.4343 -3.5265 -1.4047
  759MOL0     H 2449   3.498   6.539   8.975 -1.0122 -0.7655 -2.8799
  759MOL0     H 2450   3.507   6.473   9.197 -0.0525  0.6712 -0.1292
  759MOL0     H 2451   3.238   6.326  10.923  1.6718  0.5565 -0.6248
  759MOL0     H 2452   3.302   6.520  11.077  1.1798 -1.0404 -1.5870
  759MOL0     H 2453   3.288   6.971  11.176 -0.0057 -2.2657 -0.0128
  759MOL0     H 2454   3.374   7.129  11.366  0.5638 -0.0784 -1.9602
  759MOL0     H 2455   3.518   7.156  11.555  0.3986 -1.7302  1.1182
  759MOL0     H 2456   3.372   7.261  11.572  1.1702  2.2120  0.6870
  759MOL0     H 2457   3.396   7.270  11.821 -1.5089  2.6193 -1.6486
  759MOL0     H 2458   3.526   7.334  11.719  1.9154 -1.0700  0.4770
  759MOL0     H 2459   3.662   7.158  11.742 -2.0491  1.1990 -1.7546
  759MOL0     H 2460   3.556   7.040  11.789  3.1604  0.0098 -1.8761
  759MOL0     H 2461   3.536   7.119  12.013 -2.8241 -0.0353 -2.1597
  759MOL0     H 2462   3.619   7.266  11.970  0.3046 -0.1703  1.5676
  759MOL0     H 2463   3.966   7.036  12.015 -0.4841  0.6051  1.1425
  759MOL0     H 2464   3.221   6.858  11.653  2.8983  1.7732  1.0943
  759MOL0     H 2465   3.139   6.707  11.478 -1.3287  0.1272 -1.6543
  760MOL0     O 2466  10.550   7.191  10.168 -0.6542 -0.1250  0.5755
  760MOL0     C 2467  10.644   7.111  10.140 -0.3013  0.5913 -1.3246
  760MOL0     O 2468  10.630   6.971  10.143 -0.4930 -0.3721  0.5396
  760MOL0     C 2469  10.503   6.924  10.180 -0.2248  0.8198 -0.8510
  760MOL0     C 2470  10.440   6.831  10.103  0.6218  0.4570  0.2672
  760MOL0     C 2471  10.315   6.781  10.138  0.4019 -1.0101  0.5683
  760MOL0     C 2472  10.249   6.827  10.252 -0.2801  0.4551  0.2399
  760MOL0     O 2473  10.125   6.763  10.264  0.6829 -0.1892  0.7937
  760MOL0     C 2474  10.032   6.796  10.362 -1.3346  0.0172  0.5677
  760MOL0     C 2475   9.959   6.930  10.334 -0.0748 -0.2034 -0.3285
  760MOL0     C 2476   9.896   6.916  10.206 -0.0584 -0.7396  0.6108
  760MOL0     C 2477   9.801   7.035  10.173  0.1372  0.1923 -0.2736
  760MOL0     C 2478   9.678   7.016  10.268  0.3952  0.4649  0.2574
  760MOL0     C 2479   9.575   7.125  10.227 -0.0246  0.2806 -0.3265
  760MOL0     C 2480   9.464   7.118  10.335 -0.4743  0.1609  0.4181
  760MOL0     C 2481   9.389   7.248  10.325  0.0577 -1.2919  0.2644
  760MOL0     N 2482   9.300   7.273  10.443  0.3183 -0.8202 -0.3976
  760MOL0     C 2483   9.326   7.327  10.567 -0.4643 -0.0410  0.1902
  760MOL0     C 2484   9.205   7.365  10.612 -0.3881 -0.0582 -0.6726
  760MOL0     C 2485   9.193   7.420  10.753 -0.3162 -0.3425 -0.7871
  760MOL0     C 2486   9.040   7.445  10.788 -0.1334 -0.1792 -0.3065
  760MOL0     C 2487   9.027   7.502  10.937  1.3946 -1.0222 -0.4403
  760MOL0     C 2488   8.890   7.483  11.003  0.3838 -0.5569 -0.3142
  760MOL0     O 2489   8.787   7.556  10.928 -0.0437 -1.2479 -0.6545
  760MOL0     C 2490   8.656   7.563  10.986  0.1100 -0.0767 -0.4861
  760MOL0     C 2491   8.638   7.534  11.124  0.4884  0.0381 -0.4039
  760MOL0     C 2492   8.512   7.538  11.179  0.5871 -0.1699 -0.4627
  760MOL0     C 2493   8.483   7.500  11.320  0.0511  0.4939  0.3408
  760MOL0     C 2494   8.407   7.541  11.089  1.1576 -0.1705 -0.0384
  760MOL0     C 2495   8.270   7.507  11.125 -0.1448  0.3748  1.0070
  760MOL0     O 2496   8.171   7.589  11.079  0.4627 -0.7164 -0.0701
  760MOL0     C 2497   8.043   7.568  11.126 -0.2306  0.1384  0.1718
  760MOL0     C 2498   7.948   7.521  11.031 -0.0725 -0.1104 -0.0961
  760MOL0     C 2499   7.815   7.512  11.066 -0.0915 -0.4656  0.0408
  760MOL0     C 2500   7.771   7.557  11.194 -0.3928 -1.3039  0.7716
  760MOL0     O 2501   7.639   7.541  11.230  0.0660 -0.2228 -0.1093
  760MOL0     C 2502   7.568   7.429  11.181  0.4494 -0.4645 -0.3395
  760MOL0     C 2503   7.631   7.301  11.241  0.0011 -0.0874 -0.6367
  760MOL0     C 2504   7.524   7.192  11.261 -0.0185  0.2105  0.2205
  760MOL0     C 2505   7.460   7.134  11.127  0.4320 -0.0209 -0.5021
  760MOL0     C 2506   7.373   7.000  11.150 -0.1778 -0.0725  0.8569
  760MOL0     C 2507   7.277   7.003  11.271 -0.8127  0.1049  0.9582
  760MOL0     C 2508   7.176   6.887  11.272  0.5195 -1.2254 -0.3313
  760MOL0     C 2509   7.088   6.905  11.399  0.9770  0.0826 -1.3291
  760MOL0    Cl 2510   7.008   6.743  11.431 -0.4086 -0.4792 -0.1244
  760MOL0     C 2511   7.869   7.609  11.285  0.9366  0.2253  0.6412
  760MOL0     C 2512   8.002   7.614  11.252 -0.2713  0.1982  0.2278
  760MOL0     O 2513   8.248   7.413  11.200  0.3281  0.6973 -0.8409
  760MOL0     C 2514   8.425   7.562  10.952 -0.6778 -0.2207 -0.4428
  760MOL0     C 2515   8.548   7.585  10.905 -0.3748 -1.0751  0.4857
  760MOL0     N 2516   9.107   7.320  10.521  0.6287 -0.4252 -0.3204
  760MOL0     N 2517   9.167   7.264  10.425 -0.4806 -0.0675  0.0270
  760MOL0     C 2518  10.319   6.914  10.341 -0.6027 -0.5140  0.3711
  760MOL0     C 2519  10.449   6.958  10.311  0.2013  0.5537  0.6377
  760MOL0     C 2520  10.768   7.179  10.097 -0.0484  0.4885 -0.4346
  760MOL0     C 2521  10.865   7.096  10.039  0.7806 -0.6559 -0.4030
  760MOL0     C 2522  10.989   7.151  10.001  0.0448  0.8314 -0.1951
  760MOL0     C 2523  11.015   7.285  10.022 -0.8754  0.4644  0.0451
  760MOL0     O 2524  11.141   7.336   9.992  1.1622 -0.2360  0.7392
  760MOL0     C 2525  11.230   7.326  10.100 -0.5091 -0.5362 -0.0458
  760MOL0     C 2526  11.324   7.449  10.084  0.6054 -0.7603  0.4766
  760MOL0     C 2527  11.244   7.585  10.118 -0.2444 -0.3319  0.1655
  760MOL0     C 2528  11.324   7.709  10.121  0.6633  0.1986 -0.5536
  760MOL0     C 2529  11.420   7.719  10.015 -0.2849  0.6912 -0.5029
  760MOL0     C 2530  11.493   7.725   9.921  0.2342  0.3472  0.7671
  760MOL0     C 2531  10.916   7.367  10.071 -0.1480  0.4894  0.2405
  760MOL0     C 2532  10.798   7.312  10.112  0.3064 -0.0833  0.1961
  760MOL0     H 2533  10.494   6.789  10.019  0.7304  3.1638 -1.1195
  760MOL0     H 2534  10.262   6.714  10.071 -2.0393 -0.2155  1.6000
  760MOL0     H 2535   9.957   6.716  10.358  0.9910 -2.2763  0.4108
  760MOL0     H 2536  10.078   6.785  10.461  1.7294 -2.2028 -0.9394
  760MOL0     H 2537   9.887   6.936  10.416  0.6951  1.6328  0.2551
  760MOL0     H 2538  10.019   7.021  10.337  0.1912 -0.3584 -0.8721
  760MOL0     H 2539   9.982   6.929  10.138 -1.6266 -0.4100 -1.4249
  760MOL0     H 2540   9.845   6.823  10.181 -0.8548  0.5258 -3.2548
  760MOL0     H 2541   9.858   7.123  10.204 -0.1220  0.2799 -0.0437
  760MOL0     H 2542   9.771   7.028  10.068 -0.5161  0.0457 -0.0832
  760MOL0     H 2543   9.624   6.924  10.242  0.2304  0.3596  0.9545
  760MOL0     H 2544   9.704   7.014  10.374 -0.1185 -0.8249  0.3788
  760MOL0     H 2545   9.630   7.218  10.245  0.0055  1.0799 -3.9286
  760MOL0     H 2546   9.531   7.119  10.128 -3.9965  2.7612  1.0346
  760MOL0     H 2547   9.386   7.044  10.313 -1.4646  1.1329  0.5052
  760MOL0     H 2548   9.489   7.101  10.439 -0.9563 -3.1282  0.0913
  760MOL0     H 2549   9.338   7.268  10.231 -1.8524  0.4151  1.5767
  760MOL0     H 2550   9.465   7.325  10.342 -2.4060  1.1213  1.0971
  760MOL0     H 2551   9.423   7.334  10.617 -1.8269  2.0785  2.7953
  760MOL0     H 2552   9.239   7.355  10.828  1.9988  2.1982  0.1498
  760MOL0     H 2553   9.247   7.514  10.769 -1.0525 -0.1263  0.6321
  760MOL0     H 2554   8.993   7.346  10.784  0.5569 -0.7815  3.1835
  760MOL0     H 2555   9.004   7.515  10.712 -2.3009 -0.6969  0.1749
  760MOL0     H 2556   9.057   7.607  10.940  2.1973 -1.2340 -0.7990
  760MOL0     H 2557   9.109   7.447  10.984  3.3111  0.0390 -2.3727
  760MOL0     H 2558   8.897   7.520  11.106  0.7759 -1.4350 -0.0122
  760MOL0     H 2559   8.867   7.376  10.997  1.2497 -0.9023  1.5972
  760MOL0     H 2560   8.725   7.512  11.185  1.2795  2.3157 -0.5912
  760MOL0     H 2561   8.477   7.393  11.343  3.6464  0.1286  0.1611
  760MOL0     H 2562   8.571   7.526  11.379  1.3112 -1.4172 -0.5720
  760MOL0     H 2563   8.396   7.557  11.354 -0.1331  1.5387 -1.7277
  760MOL0     H 2564   7.992   7.510  10.932  0.4063  3.8172 -0.5100
  760MOL0     H 2565   7.745   7.469  10.995  1.2213 -1.1695 -0.8528
  760MOL0     H 2566   7.467   7.431  11.223  1.4226  0.6365  2.0983
  760MOL0     H 2567   7.556   7.428  11.072  0.5010  2.2171 -0.4299
  760MOL0     H 2568   7.708   7.263  11.173 -0.2497 -1.0404 -0.4023
  760MOL0     H 2569   7.672   7.326  11.339  0.5369  0.2214 -0.9325
  760MOL0     H 2570   7.448   7.234  11.328 -0.1524 -1.5122  1.1975
  760MOL0     H 2571   7.573   7.110  11.314 -0.0509  0.8017  1.2093
  760MOL0     H 2572   7.391   7.202  11.077  0.2405  0.5572  0.5303
  760MOL0     H 2573   7.540   7.106  11.057  0.7665 -1.8775  0.5482
  760MOL0     H 2574   7.439   6.913  11.157 -2.1061 -1.6025  0.7951
  760MOL0     H 2575   7.311   6.991  11.060  0.6915  0.9363  0.1203
  760MOL0     H 2576   7.347   7.000  11.356  0.4622  0.2411 -0.0644
  760MOL0     H 2577   7.232   7.103  11.270  2.7988  1.8992  0.7541
  760MOL0     H 2578   7.230   6.793  11.280  0.5515 -1.3828 -2.0824
  760MOL0     H 2579   7.115   6.883  11.182 -0.4728  0.7288  0.1850
  760MOL0     H 2580   7.015   6.985  11.392  0.1113 -0.3847  1.3933
  760MOL0     H 2581   7.154   6.941  11.478  0.8330 -1.5312 -0.4297
  760MOL0     H 2582   7.828   7.641  11.381 -0.7901 -0.2127  0.0830
  760MOL0     H 2583   8.081   7.656  11.313 -0.4007 -1.6783  1.7503
  760MOL0     H 2584   8.336   7.570  10.891 -0.3680 -1.3188 -1.0597
  760MOL0     H 2585   8.568   7.608  10.800  2.6225 -1.8876  0.7892
  760MOL0     H 2586  10.276   6.949  10.435  2.7156  0.3162  1.7428
  760MOL0     H 2587  10.500   7.011  10.390 -0.8344  0.0082  1.7052
  760MOL0     H 2588  10.845   6.992  10.015 -0.5121 -0.6541  0.5374
  760MOL0     H 2589  11.060   7.082   9.958 -1.8959 -0.9680 -0.6605
  760MOL0     H 2590  11.175   7.343  10.193 -0.1603 -0.8935  0.2278
  760MOL0     H 2591  11.293   7.236  10.096 -0.4535 -0.4705 -1.5667
  760MOL0     H 2592  11.366   7.444   9.983  1.7098 -0.0525  0.8803
  760MOL0     H 2593  11.404   7.440  10.158 -0.5193  1.5521  2.1051
  760MOL0     H 2594  11.182   7.578  10.208 -0.4560 -0.9179 -0.0185
  760MOL0     H 2595  11.176   7.603  10.034  1.0910  1.6763 -0.5276
  760MOL0     H 2596  11.388   7.717  10.209  0.7874 -0.7481 -0.5496
  760MOL0     H 2597  11.254   7.793  10.124 -0.8817 -0.9549 -2.1036
  760MOL0     H 2598  11.556   7.743   9.836 -1.9880  0.3012 -0.9723
  760MOL0     H 2599  10.936   7.473  10.077 -2.9173  1.0792  0.1929
  760MOL0     H 2600  10.734   7.392  10.148  0.3729 -0.0997  0.3504
  761MOL0     O 2601   8.666   2.276   3.911 -0.3644  0.0935  0.6940
  761MOL0     C 2602   8.757   2.213   3.853  0.6237  0.4504 -0.1100
  761MOL0     O 2603   8.872   2.163   3.916  0.4234 -0.1042 -0.0808
  761MOL0     C 2604   8.932   2.228   4.025  0.3719  0.4583 -0.3435
  761MOL0     C 2605   9.013   2.158   4.115 -0.4188 -0.0234  0.0944
  761MOL0     C 2606   9.092   2.214   4.223  0.5335 -0.0673 -0.0314
  761MOL0     C 2607   9.091   2.359   4.233  0.9637  0.0751  0.3308
  761MOL0     O 2608   9.145   2.420   4.343  0.2188  0.4212 -0.0298
  761MOL0     C 2609   9.054   2.500   4.426 -0.4628 -0.8417  0.1093
  761MOL0     C 2610   9.099   2.516   4.573  0.0051  0.3265 -0.1139
  761MOL0     C 2611   9.088   2.372   4.643  0.2008 -0.1833  0.0199
  761MOL0     C 2612   8.952   2.326   4.698 -0.2457  0.2674 -0.0831
  761MOL0     C 2613   8.901   2.410   4.817 -0.2015 -0.1572 -0.6205
  761MOL0     C 2614   8.760   2.366   4.860  0.1745  0.7552 -0.7686
  761MOL0     C 2615   8.636   2.375   4.768 -0.6652  0.6577  0.1262
  761MOL0     C 2616   8.504   2.322   4.835 -0.9624 -1.0260  0.6699
  761MOL0     N 2617   8.477   2.416   4.948 -0.3205 -0.1966  0.5510
  761MOL0     C 2618   8.476   2.387   5.082 -0.3038 -0.2297 -0.5291
  761MOL0     C 2619   8.437   2.506   5.143 -0.0594  0.7635 -0.6711
  761MOL0     C 2620   8.425   2.525   5.290  1.0498  0.1857  0.0696
  761MOL0     C 2621   8.492   2.426   5.385 -0.5389 -0.8060  0.3733
  761MOL0     C 2622   8.464   2.450   5.541  0.2846 -0.8791  0.5888
  761MOL0     C 2623   8.555   2.369   5.625 -0.4103  0.2777 -0.3623
  761MOL0     O 2624   8.691   2.411   5.612  1.0462  0.1743 -0.2006
  761MOL0     C 2625   8.784   2.319   5.670 -0.3042 -0.8025  0.3540
  761MOL0     C 2626   8.752   2.224   5.752 -0.0780 -0.1767  0.5982
  761MOL0     C 2627   8.836   2.116   5.787  1.2953  0.7433  0.4234
  761MOL0     C 2628   8.775   1.999   5.857  1.0642 -0.3492 -0.1615
  761MOL0     C 2629   8.971   2.107   5.739 -0.0860  0.0734 -0.1813
  761MOL0     C 2630   9.067   1.993   5.753 -0.8828  1.2320  0.4950
  761MOL0     O 2631   9.069   1.909   5.868  0.3306 -0.4504  0.3666
  761MOL0     C 2632   9.177   1.829   5.889 -1.6957  0.2824  0.4795
  761MOL0     C 2633   9.273   1.879   5.984  0.7954 -0.3758  0.9140
  761MOL0     C 2634   9.388   1.808   6.003 -0.0608 -0.3061  0.6400
  761MOL0     C 2635   9.419   1.690   5.934  0.8478  0.2029  0.3885
  761MOL0     O 2636   9.528   1.617   5.942 -0.1560 -0.0968  0.5229
  761MOL0     C 2637   9.622   1.635   6.049  0.2764 -0.0067 -0.1237
  761MOL0     C 2638   9.740   1.708   6.006  0.4475 -0.0096 -0.5278
  761MOL0     C 2639   9.854   1.719   6.118 -0.0033  0.0964  1.2204
  761MOL0     C 2640   9.979   1.807   6.088  0.1997 -1.0985  0.3271
  761MOL0     C 2641  10.065   1.810   6.217 -0.4733  0.1411 -0.0211
  761MOL0     C 2642  10.186   1.916   6.221  0.0848 -0.1036  0.2695
  761MOL0     C 2643  10.260   1.877   6.350 -0.0030 -1.3591 -0.0914
  761MOL0     C 2644  10.377   1.970   6.384 -0.3841 -1.0750  0.0005
  761MOL0    Cl 2645  10.426   1.934   6.550 -0.1315 -0.0872  0.4228
  761MOL0     C 2646   9.332   1.653   5.835 -1.0579 -1.0073  0.1895
  761MOL0     C 2647   9.209   1.714   5.813  0.2630  0.7414 -0.0806
  761MOL0     O 2648   9.130   1.972   5.648  0.0697  0.4989  0.1420
  761MOL0     C 2649   9.007   2.217   5.658 -0.4252  0.4142  0.1139
  761MOL0     C 2650   8.911   2.312   5.620  0.2590  0.2170  1.0898
  761MOL0     N 2651   8.421   2.602   5.045  0.0256  0.0604  0.3784
  761MOL0     N 2652   8.455   2.549   4.934  0.2595 -0.6023  0.7693
  761MOL0     C 2653   9.009   2.439   4.142  0.1076  0.7742 -0.5256
  761MOL0     C 2654   8.933   2.369   4.045 -0.0186  0.2417  0.3680
  761MOL0     C 2655   8.733   2.164   3.715  0.3810  0.5194 -0.1776
  761MOL0     C 2656   8.782   2.037   3.669 -0.8108 -0.3356 -0.3258
  761MOL0     C 2657   8.747   1.985   3.541 -0.6045 -0.2687  0.4197
  761MOL0     C 2658   8.667   2.058   3.452 -0.6489 -0.9712  0.2015
  761MOL0     O 2659   8.626   2.017   3.321 -0.6766  0.1432  0.2642
  761MOL0     C 2660   8.622   1.880   3.282 -0.3174  0.1508 -0.4571
  761MOL0     C 2661   8.753   1.827   3.224 -0.0934 -0.1833 -1.4548
  761MOL0     C 2662   8.791   1.686   3.261 -0.5890 -0.1260 -0.2179
  761MOL0     C 2663   8.883   1.624   3.167 -0.0782  0.2620 -0.4698
  761MOL0     C 2664   8.846   1.489   3.130 -0.2653  0.0632 -0.9934
  761MOL0     C 2665   8.812   1.377   3.098  0.2972  0.3984  0.0094
  761MOL0     C 2666   8.616   2.184   3.491 -0.1886  0.4956  0.1893
  761MOL0     C 2667   8.640   2.228   3.623 -0.6641  0.3971 -0.2585
  761MOL0     H 2668   9.037   2.053   4.102  2.1716  0.2365  1.9910
  761MOL0     H 2669   9.139   2.156   4.302  2.4190  0.7961 -0.4463
  761MOL0     H 2670   9.057   2.601   4.384  1.3164 -0.0872  1.9123
  761MOL0     H 2671   8.953   2.458   4.415 -1.0131  0.9456 -2.9177
  761MOL0     H 2672   9.200   2.557   4.582 -0.8030  2.0975  1.9153
  761MOL0     H 2673   9.048   2.602   4.617  1.4080  0.4382  1.3975
  761MOL0     H 2674   9.127   2.298   4.573 -2.7055  0.0855 -2.0351
  761MOL0     H 2675   9.150   2.370   4.734  0.9263 -1.2124 -0.4733
  761MOL0     H 2676   8.878   2.339   4.618 -0.0426 -3.3242 -0.9935
  761MOL0     H 2677   8.959   2.221   4.726  3.7415  0.3014 -0.4395
  761MOL0     H 2678   8.972   2.395   4.899 -1.1884  0.3960  0.3548
  761MOL0     H 2679   8.885   2.517   4.802 -2.1929  0.0071  1.9993
  761MOL0     H 2680   8.769   2.261   4.888 -0.7683  0.9418  0.3214
  761MOL0     H 2681   8.738   2.430   4.947  1.1754  0.2129 -0.0893
  761MOL0     H 2682   8.629   2.463   4.703 -1.5887  1.4270  1.2434
  761MOL0     H 2683   8.660   2.300   4.692 -1.4893 -0.5069  0.9905
  761MOL0     H 2684   8.523   2.225   4.881 -0.0816 -1.0957  0.1717
  761MOL0     H 2685   8.423   2.320   4.761 -1.7032 -2.9930  1.4710
  761MOL0     H 2686   8.503   2.293   5.129  0.1938  0.4762  0.6557
  761MOL0     H 2687   8.490   2.611   5.310  2.1451 -0.6514  0.2273
  761MOL0     H 2688   8.324   2.524   5.332  0.1345 -1.1527 -2.0124
  761MOL0     H 2689   8.600   2.442   5.371 -0.7629  2.0672  1.3115
  761MOL0     H 2690   8.466   2.323   5.358  2.8087 -0.7976 -4.0851
  761MOL0     H 2691   8.362   2.420   5.566  0.6110 -0.9673  1.8561
  761MOL0     H 2692   8.483   2.556   5.559 -3.0347  0.1850 -1.3595
  761MOL0     H 2693   8.548   2.265   5.591 -2.4158  0.7871 -1.7085
  761MOL0     H 2694   8.541   2.377   5.733  0.0161  0.5921 -0.3286
  761MOL0     H 2695   8.661   2.219   5.812  1.2628 -0.8482  2.6894
  761MOL0     H 2696   8.799   2.018   5.962  1.4771 -0.9947 -0.1327
  761MOL0     H 2697   8.666   1.997   5.845  0.9461 -0.5119  0.8166
  761MOL0     H 2698   8.820   1.900   5.846 -0.8587 -1.1395 -1.3541
  761MOL0     H 2699   9.259   1.978   6.026 -1.5203 -0.1172 -0.3267
  761MOL0     H 2700   9.465   1.847   6.069 -0.1350 -0.8853  1.0789
  761MOL0     H 2701   9.578   1.690   6.133 -0.1149 -1.6895  0.8135
  761MOL0     H 2702   9.664   1.539   6.082  2.3594  0.7485 -0.4250
  761MOL0     H 2703   9.786   1.654   5.923  0.5429 -0.4161 -0.2162
  761MOL0     H 2704   9.708   1.802   5.960  2.6913 -1.2331 -5.1921
  761MOL0     H 2705   9.881   1.614   6.135 -2.7865 -0.7152  1.1816
  761MOL0     H 2706   9.806   1.763   6.206  1.8407 -1.1057  2.9106
  761MOL0     H 2707  10.042   1.757   6.013  0.0645  0.4497 -0.8692
  761MOL0     H 2708   9.940   1.902   6.050 -1.5902 -1.8780  0.1329
  761MOL0     H 2709  10.104   1.712   6.244  0.4086  0.6012  0.4133
  761MOL0     H 2710   9.991   1.836   6.294 -0.7803  0.6044 -0.4646
  761MOL0     H 2711  10.255   1.919   6.136 -1.2978  2.7766 -0.8969
  761MOL0     H 2712  10.138   2.014   6.226 -1.5092 -0.7893 -0.8332
  761MOL0     H 2713  10.290   1.772   6.353 -2.6613 -2.2016 -0.6672
  761MOL0     H 2714  10.183   1.884   6.427  0.7762 -1.7604  0.7368
  761MOL0     H 2715  10.360   2.077   6.370 -0.9978 -1.3267 -1.3101
  761MOL0     H 2716  10.465   1.945   6.323  0.2217 -1.0828  0.8656
  761MOL0     H 2717   9.352   1.561   5.782  1.6578 -0.0249 -0.6646
  761MOL0     H 2718   9.134   1.676   5.745  0.4861  4.3619 -2.6009
  761MOL0     H 2719   9.104   2.226   5.610  0.5374  1.8017  2.1585
  761MOL0     H 2720   8.952   2.382   5.548  0.1801 -0.0865  0.7509
  761MOL0     H 2721   9.007   2.547   4.157 -0.2309  0.5391  1.3536
  761MOL0     H 2722   8.900   2.425   3.958  0.9597 -1.9845 -1.5556
  761MOL0     H 2723   8.844   1.970   3.728 -1.9096  0.2998  1.6284
  761MOL0     H 2724   8.793   1.894   3.502  0.7822  1.4993 -2.4816
  761MOL0     H 2725   8.583   1.818   3.363 -1.5553 -1.0749 -1.9332
  761MOL0     H 2726   8.544   1.863   3.207  1.7883 -1.2967 -2.4535
  761MOL0     H 2727   8.827   1.895   3.269 -1.8359 -1.5999  4.4998
  761MOL0     H 2728   8.737   1.841   3.117 -3.2290  1.4350 -0.8981
  761MOL0     H 2729   8.701   1.626   3.272 -0.1904 -0.2133  5.9780
  761MOL0     H 2730   8.839   1.678   3.359 -0.7835  0.5630 -0.0663
  761MOL0     H 2731   8.978   1.623   3.220 -1.2950  0.4944  1.8662
  761MOL0     H 2732   8.901   1.688   3.081 -1.9268 -0.0803 -1.1605
  761MOL0     H 2733   8.794   1.280   3.057  1.8717 -0.1954  0.6366
  761MOL0     H 2734   8.570   2.237   3.408  0.8115  1.5377  0.2820
  761MOL0     H 2735   8.593   2.321   3.657  0.5327 -0.2360  3.6116
  762MOL0     O 2736   1.185   3.799   7.097  0.2106  0.6265  0.6127
  762MOL0     C 2737   1.186   3.869   6.989  0.1511 -0.1992 -0.7237
  762MOL0     O 2738   1.297   3.917   6.929  0.5763  0.2133  0.2180
  762MOL0     C 2739   1.427   3.867   6.961  0.8269 -0.3660 -0.6735
  762MOL0     C 2740   1.448   3.736   6.968  0.0373 -0.6130  0.0969
  762MOL0     C 2741   1.573   3.687   7.007 -0.0595 -0.2943 -1.2876
  762MOL0     C 2742   1.685   3.762   7.034 -0.2478 -0.1499 -0.0343
  762MOL0     O 2743   1.810   3.725   7.088 -0.1380  1.2210  0.9314
  762MOL0     C 2744   1.849   3.585   7.111 -0.1055  0.0182  0.7161
  762MOL0     C 2745   1.894   3.527   6.974 -0.0949  0.4282  0.3341
  762MOL0     C 2746   1.971   3.398   6.988 -0.4884  0.3347  0.2856
  762MOL0     C 2747   2.014   3.339   6.849 -0.1551 -0.2661  0.6510
  762MOL0     C 2748   2.081   3.196   6.854  1.1654 -0.7920  1.5424
  762MOL0     C 2749   2.169   3.169   6.728  0.3996  0.2159 -0.7541
  762MOL0     C 2750   2.203   3.013   6.711 -0.1440 -0.3241  0.0394
  762MOL0     C 2751   2.330   2.992   6.619  1.6537  0.2254 -0.4085
  762MOL0     N 2752   2.450   3.034   6.690 -0.5965  0.1057  0.0090
  762MOL0     C 2753   2.520   3.151   6.660  0.4708  0.1483 -0.5521
  762MOL0     C 2754   2.624   3.147   6.745 -0.6696 -0.4094 -0.3008
  762MOL0     C 2755   2.725   3.248   6.766  0.6508 -0.8414 -0.2870
  762MOL0     C 2756   2.859   3.186   6.730  0.1787 -0.1690  0.2047
  762MOL0     C 2757   2.957   3.281   6.662 -0.5695 -0.3707  0.5887
  762MOL0     C 2758   3.093   3.304   6.731 -0.0862 -0.4535  0.4284
  762MOL0     O 2759   3.196   3.357   6.645  0.1719  0.2748  0.7089
  762MOL0     C 2760   3.322   3.365   6.688 -0.2783  0.4151 -0.3687
  762MOL0     C 2761   3.353   3.411   6.813 -0.8910 -1.4157  0.4121
  762MOL0     C 2762   3.487   3.455   6.836 -0.7606 -0.2616  0.0296
  762MOL0     C 2763   3.511   3.504   6.974 -0.3169  0.1338 -0.7013
  762MOL0     C 2764   3.589   3.441   6.739  0.5726 -0.1079  0.3702
  762MOL0     C 2765   3.738   3.469   6.754  0.4091  0.3034  0.8743
  762MOL0     O 2766   3.797   3.429   6.865 -0.0506 -0.6247 -0.9366
  762MOL0     C 2767   3.915   3.473   6.914  0.0863 -0.1700  0.1708
  762MOL0     C 2768   3.933   3.433   7.045  0.0592  0.2201 -0.3526
  762MOL0     C 2769   4.056   3.465   7.108 -0.0986  1.3941  0.8496
  762MOL0     C 2770   4.157   3.544   7.063  0.4724 -0.3922  0.5145
  762MOL0     O 2771   4.259   3.574   7.151 -0.0118  0.7343 -0.4880
  762MOL0     C 2772   4.365   3.662   7.106  0.4742  0.7152  0.6262
  762MOL0     C 2773   4.464   3.689   7.218 -0.7536 -0.0467  0.0580
  762MOL0     C 2774   4.400   3.797   7.315 -0.3704  0.0777  0.2840
  762MOL0     C 2775   4.508   3.861   7.411  0.1184  0.6897  1.5847
  762MOL0     C 2776   4.531   3.785   7.536  0.6972 -0.1394  0.0876
  762MOL0     C 2777   4.653   3.841   7.609 -0.1497  0.2754  0.3278
  762MOL0     C 2778   4.681   3.787   7.749  0.3434 -0.5736  0.7804
  762MOL0     C 2779   4.758   3.876   7.834 -0.7385  0.5888  0.1903
  762MOL0    Cl 2780   4.921   3.885   7.780 -0.5129  0.0022 -0.7422
  762MOL0     C 2781   4.144   3.584   6.923 -0.1042 -0.0159  0.1220
  762MOL0     C 2782   4.028   3.546   6.847 -0.0867 -0.1367  0.0166
  762MOL0     O 2783   3.786   3.542   6.675 -0.3405 -0.2636 -0.0185
  762MOL0     C 2784   3.548   3.386   6.610  0.1270 -0.4477  0.6737
  762MOL0     C 2785   3.420   3.352   6.588 -0.7049  1.1297 -1.7963
  762MOL0     N 2786   2.614   3.039   6.829  0.2627  0.2882 -0.4854
  762MOL0     N 2787   2.509   2.973   6.791 -0.5033  1.4896  0.2840
  762MOL0     C 2788   1.654   3.900   7.021 -0.0904  0.2091  0.1191
  762MOL0     C 2789   1.528   3.955   6.990  0.1613  0.3119  0.2754
  762MOL0     C 2790   1.058   3.894   6.922 -0.8666 -0.9409  0.9066
  762MOL0     C 2791   0.922   3.918   6.972 -0.8011  0.2931  0.4558
  762MOL0     C 2792   0.812   3.927   6.897 -0.2297 -0.9621  0.1322
  762MOL0     C 2793   0.812   3.909   6.758  0.0879 -0.0311  0.1721
  762MOL0     O 2794   0.703   3.881   6.684  0.4869  0.0972  0.0607
  762MOL0     C 2795   0.616   3.982   6.637 -0.9267  0.0528 -0.0418
  762MOL0     C 2796   0.468   3.963   6.659  0.1043  0.9750  0.1901
  762MOL0     C 2797   0.395   4.087   6.609 -0.4216 -0.1015 -1.1163
  762MOL0     C 2798   0.277   4.129   6.693 -0.7654 -0.9899 -0.2401
  762MOL0     C 2799   0.175   4.020   6.695 -0.5562  0.6454  0.4740
  762MOL0     C 2800   0.089   3.930   6.699  0.6772  0.1714 -0.4949
  762MOL0     C 2801   0.943   3.893   6.702 -0.5592 -0.2343 -0.7936
  762MOL0     C 2802   1.062   3.884   6.783  0.2872 -0.1223 -0.1739
  762MOL0     H 2803   1.365   3.670   6.946  0.5989 -1.4094  0.3335
  762MOL0     H 2804   1.575   3.578   7.014 -4.1249 -0.5501 -1.3857
  762MOL0     H 2805   1.933   3.572   7.180  0.2519 -0.3123  0.2270
  762MOL0     H 2806   1.761   3.535   7.153 -2.1969 -0.7963 -4.0090
  762MOL0     H 2807   1.805   3.514   6.912 -1.8668 -2.5231  3.1856
  762MOL0     H 2808   1.957   3.601   6.924  1.3440 -0.0791  1.3016
  762MOL0     H 2809   2.058   3.421   7.051 -0.7309 -1.5027  1.3471
  762MOL0     H 2810   1.913   3.326   7.046  0.0964 -1.5771 -1.4040
  762MOL0     H 2811   1.933   3.343   6.777  0.2322  0.5508  0.2558
  762MOL0     H 2812   2.088   3.404   6.802  0.6153 -1.1241  0.6312
  762MOL0     H 2813   2.139   3.198   6.946  3.3917  0.4664  0.1804
  762MOL0     H 2814   1.992   3.131   6.850 -0.6103  1.5325  1.1182
  762MOL0     H 2815   2.117   3.203   6.637 -1.8123  0.1513  0.4224
  762MOL0     H 2816   2.253   3.235   6.750 -1.6878  1.5672  4.6136
  762MOL0     H 2817   2.215   2.968   6.810 -2.0874 -0.5697  0.2026
  762MOL0     H 2818   2.136   2.945   6.657 -1.4623  3.2712 -3.3275
  762MOL0     H 2819   2.300   3.053   6.533 -4.2296 -0.7120  0.5545
  762MOL0     H 2820   2.353   2.895   6.575  1.5846 -0.1600  0.3856
  762MOL0     H 2821   2.491   3.229   6.590  0.1602 -0.0783 -0.6800
  762MOL0     H 2822   2.701   3.336   6.705  3.6898 -0.8831 -1.7217
  762MOL0     H 2823   2.726   3.278   6.871 -1.2830  0.8725 -0.7051
  762MOL0     H 2824   2.842   3.102   6.663 -0.3086 -1.3600  1.7751
  762MOL0     H 2825   2.901   3.150   6.824  0.1891  0.5010  0.4625
  762MOL0     H 2826   2.909   3.379   6.648 -0.4112 -0.3622  0.0960
  762MOL0     H 2827   2.990   3.243   6.566 -3.4555  1.7046 -1.4222
  762MOL0     H 2828   3.142   3.211   6.758  3.0197 -0.3257 -3.7358
  762MOL0     H 2829   3.089   3.370   6.818 -2.6119  2.7672 -1.8739
  762MOL0     H 2830   3.280   3.446   6.885  1.2191  3.5581  0.5120
  762MOL0     H 2831   3.550   3.606   6.979 -0.0796  0.0762 -1.3543
  762MOL0     H 2832   3.426   3.504   7.043  1.2788 -0.9427  1.3798
  762MOL0     H 2833   3.582   3.435   7.021 -0.1797 -0.7331 -2.1322
  762MOL0     H 2834   3.858   3.367   7.088  0.2828  0.3271  0.2132
  762MOL0     H 2835   4.057   3.422   7.207  1.4719  2.0937  1.1596
  762MOL0     H 2836   4.412   3.617   7.018 -2.3175 -0.0577 -0.5919
  762MOL0     H 2837   4.320   3.756   7.073 -1.4827 -1.1467 -2.5393
  762MOL0     H 2838   4.489   3.600   7.275 -0.0525 -0.2430 -0.5439
  762MOL0     H 2839   4.564   3.718   7.184  0.4395 -2.2615  1.4451
  762MOL0     H 2840   4.318   3.751   7.370 -2.3161 -0.0537 -2.5076
  762MOL0     H 2841   4.355   3.875   7.253 -2.5076  0.2481  1.9318
  762MOL0     H 2842   4.604   3.859   7.359  1.0546  2.6802  3.1063
  762MOL0     H 2843   4.486   3.968   7.424 -0.3458  0.8782 -0.4647
  762MOL0     H 2844   4.536   3.676   7.527 -2.6604 -0.5793  1.9401
  762MOL0     H 2845   4.438   3.804   7.589  0.3233 -2.3099  0.3175
  762MOL0     H 2846   4.745   3.816   7.555 -1.2153 -1.0707 -0.9525
  762MOL0     H 2847   4.649   3.950   7.602  0.1229  0.2011 -1.2786
  762MOL0     H 2848   4.735   3.693   7.737  0.5478 -0.5658  1.5774
  762MOL0     H 2849   4.587   3.757   7.797  0.5507 -2.3160  0.1721
  762MOL0     H 2850   4.745   3.830   7.933 -0.7254  1.1897  0.4735
  762MOL0     H 2851   4.718   3.978   7.834 -0.7398  0.5885  0.1191
  762MOL0     H 2852   4.220   3.652   6.885 -2.3275  2.7152  0.2747
  762MOL0     H 2853   4.036   3.559   6.739  1.3914 -1.7326 -0.1181
  762MOL0     H 2854   3.611   3.384   6.521  0.8824 -0.0384  1.1884
  762MOL0     H 2855   3.399   3.310   6.490  0.5923  2.7555 -2.8240
  762MOL0     H 2856   1.728   3.975   7.050 -0.8221  0.3032  1.8841
  762MOL0     H 2857   1.517   4.060   6.969 -1.6862  0.1825  0.4416
  762MOL0     H 2858   0.908   3.933   7.079 -3.1291  0.1515  0.2192
  762MOL0     H 2859   0.722   3.940   6.957 -1.0518  0.8408 -1.3904
  762MOL0     H 2860   0.640   4.082   6.674 -1.7006 -0.2269  1.2574
  762MOL0     H 2861   0.626   3.983   6.528 -1.1872  0.6314 -0.0629
  762MOL0     H 2862   0.447   3.947   6.765 -1.9997 -2.9883 -0.6222
  762MOL0     H 2863   0.419   3.883   6.603 -0.7576  1.2895  0.4865
  762MOL0     H 2864   0.349   4.063   6.513 -1.1295  0.8819 -1.0382
  762MOL0     H 2865   0.452   4.180   6.615  0.7497 -0.8415 -0.4760
  762MOL0     H 2866   0.250   4.228   6.654  2.3217  1.3459  2.8593
  762MOL0     H 2867   0.317   4.153   6.793  0.3800 -1.6099 -0.5340
  762MOL0     H 2868   0.022   3.847   6.704  0.2612  0.4494 -1.3840
  762MOL0     H 2869   0.945   3.891   6.594 -1.5757 -1.8721 -0.8263
  762MOL0     H 2870   1.151   3.869   6.723 -0.4702 -1.4960 -1.0079
  763MOL0     O 2871   9.602   6.419   9.073  0.6897  0.7572 -0.4149
  763MOL0     C 2872   9.665   6.443   9.172  0.4729 -0.2621 -0.4055
  763MOL0     O 2873   9.632   6.518   9.281  0.3907  0.2491  0.1787
  763MOL0     C 2874   9.517   6.588   9.288 -0.3579 -0.5789  1.0876
  763MOL0     C 2875   9.457   6.615   9.402 -0.5258 -0.4385  0.5800
  763MOL0     C 2876   9.335   6.693   9.416  0.1889 -0.5671  0.6109
  763MOL0     C 2877   9.270   6.734   9.302 -0.7943 -1.0602 -0.3472
  763MOL0     O 2878   9.160   6.810   9.325 -1.5346 -0.7555  0.3805
  763MOL0     C 2879   9.139   6.937   9.248 -0.4448  0.8895 -0.6865
  763MOL0     C 2880   9.013   7.015   9.300 -0.8584  0.4108  0.5890
  763MOL0     C 2881   9.050   7.092   9.430 -0.0291 -0.4092  0.4382
  763MOL0     C 2882   8.942   7.105   9.531  0.5326 -0.0277 -0.1618
  763MOL0     C 2883   8.972   7.029   9.656 -0.0902  0.5615  0.9417
  763MOL0     C 2884   8.861   7.014   9.758 -0.0115  0.2214 -0.2353
  763MOL0     C 2885   8.779   7.142   9.781  1.0861 -0.1122 -1.0657
  763MOL0     C 2886   8.677   7.108   9.895  0.3384 -0.0295 -0.6671
  763MOL0     N 2887   8.565   7.209   9.905  0.8314 -0.0650 -0.2822
  763MOL0     C 2888   8.572   7.338   9.853 -0.1299  0.4825  0.3189
  763MOL0     C 2889   8.448   7.388   9.880 -0.4397 -0.4606 -0.4320
  763MOL0     C 2890   8.391   7.516   9.840 -1.3262  0.5972  0.3292
  763MOL0     C 2891   8.239   7.529   9.813  0.4898 -0.5470 -0.5053
  763MOL0     C 2892   8.187   7.420   9.722 -0.6024 -0.4053 -0.8043
  763MOL0     C 2893   8.212   7.460   9.584 -0.4917 -0.0455 -0.4589
  763MOL0     O 2894   8.354   7.464   9.545  0.0796  0.0626 -0.0665
  763MOL0     C 2895   8.413   7.341   9.507  1.1977  0.2866 -1.3369
  763MOL0     C 2896   8.535   7.362   9.440  0.3142 -0.4125 -0.5339
  763MOL0     C 2897   8.604   7.257   9.377 -0.5520 -0.1787 -0.2937
  763MOL0     C 2898   8.725   7.296   9.291  0.2686  0.2476  0.3540
  763MOL0     C 2899   8.557   7.130   9.391 -0.2829 -0.8073  0.1460
  763MOL0     C 2900   8.599   7.009   9.318  0.8928  0.2198  0.5670
  763MOL0     O 2901   8.599   7.016   9.177 -0.7557  0.2693  0.3627
  763MOL0     C 2902   8.616   6.897   9.109  0.9529 -0.9781  0.5925
  763MOL0     C 2903   8.521   6.797   9.119  0.2763  1.1402  0.1292
  763MOL0     C 2904   8.540   6.675   9.046  0.5473 -0.1069 -0.5926
  763MOL0     C 2905   8.653   6.658   8.961  1.1034 -0.1971 -0.2135
  763MOL0     O 2906   8.679   6.556   8.877  0.4758  0.5636 -0.1747
  763MOL0     C 2907   8.586   6.446   8.870 -0.1937 -0.4125 -0.3435
  763MOL0     C 2908   8.629   6.338   8.981  0.6541 -0.1703 -0.0772
  763MOL0     C 2909   8.531   6.209   8.980 -0.5007  0.9095  0.5271
  763MOL0     C 2910   8.577   6.091   8.893 -0.4053 -0.0765 -0.2298
  763MOL0     C 2911   8.473   5.977   8.894  0.3596  0.7434  0.0975
  763MOL0     C 2912   8.352   6.002   8.817 -0.2611 -0.4193 -0.3395
  763MOL0     C 2913   8.250   5.885   8.842  0.2429 -0.3565  0.5576
  763MOL0     C 2914   8.132   5.890   8.747 -0.3020 -0.4706  0.4971
  763MOL0    Cl 2915   8.024   5.764   8.798  0.2071  0.0859  0.1609
  763MOL0     C 2916   8.746   6.758   8.961 -0.0855 -0.5717 -0.3263
  763MOL0     C 2917   8.729   6.877   9.027 -0.6963 -0.0258 -0.0744
  763MOL0     O 2918   8.601   6.903   9.381 -0.2029  0.0981 -0.7301
  763MOL0     C 2919   8.438   7.112   9.461  0.0010  0.4845 -0.0580
  763MOL0     C 2920   8.367   7.214   9.520 -0.2541  0.7407 -0.5762
  763MOL0     N 2921   8.373   7.286   9.935  0.7952  0.0734  0.0354
  763MOL0     N 2922   8.440   7.176   9.955 -0.2927  0.1087  0.0106
  763MOL0     C 2923   9.343   6.721   9.180 -0.5519 -0.3964  0.0756
  763MOL0     C 2924   9.466   6.655   9.170 -0.6487  0.3678 -0.0969
  763MOL0     C 2925   9.794   6.376   9.184  0.2194  0.3929 -0.1990
  763MOL0     C 2926   9.853   6.300   9.073 -0.2615  0.0401 -0.3399
  763MOL0     C 2927   9.978   6.230   9.086  0.3563  0.0984  0.6835
  763MOL0     C 2928  10.049   6.248   9.200  0.4910  0.0754 -0.1179
  763MOL0     O 2929  10.171   6.190   9.205  0.1350  0.8855  0.9837
  763MOL0     C 2930  10.288   6.269   9.236 -0.5848 -0.5087  0.0280
  763MOL0     C 2931  10.404   6.171   9.274 -0.9678  0.3405  0.8815
  763MOL0     C 2932  10.384   6.126   9.420  0.5080  0.4059  0.2116
  763MOL0     C 2933  10.500   6.041   9.459  0.4341  0.9210  0.8966
  763MOL0     C 2934  10.493   5.898   9.409  0.9857 -0.1408 -0.0899
  763MOL0     C 2935  10.496   5.786   9.361 -0.5117  0.2221  0.5858
  763MOL0     C 2936   9.996   6.323   9.303 -0.0330  0.6957  1.1458
  763MOL0     C 2937   9.876   6.391   9.294  0.4841  0.4057  0.3129
  763MOL0     H 2938   9.495   6.595   9.502  2.3558  2.2935  0.1881
  763MOL0     H 2939   9.291   6.725   9.510 -2.7360 -0.0500 -0.8391
  763MOL0     H 2940   9.223   7.006   9.252 -1.3370  1.9794 -0.4328
  763MOL0     H 2941   9.138   6.911   9.141  0.2565 -0.7601 -0.3322
  763MOL0     H 2942   8.972   7.070   9.214  0.1650  0.9577  0.4344
  763MOL0     H 2943   8.942   6.938   9.331 -2.6166  1.4929 -0.4926
  763MOL0     H 2944   9.143   7.043   9.461 -0.5765 -1.4516  0.4881
  763MOL0     H 2945   9.065   7.195   9.397  0.4397  0.1942  2.3960
  763MOL0     H 2946   8.927   7.210   9.558 -0.4467  0.0224 -0.8552
  763MOL0     H 2947   8.848   7.074   9.484 -0.0348 -1.5680  1.8294
  763MOL0     H 2948   8.997   6.930   9.616  1.2062  0.9577  0.7002
  763MOL0     H 2949   9.064   7.075   9.694 -0.7166  1.4321  1.4352
  763MOL0     H 2950   8.782   6.950   9.715 -1.2663  0.9262  0.9586
  763MOL0     H 2951   8.899   6.966   9.849 -0.5082  1.1205  0.4652
  763MOL0     H 2952   8.839   7.227   9.814 -1.5495  1.2861  0.4467
  763MOL0     H 2953   8.723   7.178   9.694 -0.4818  2.4642  0.8539
  763MOL0     H 2954   8.731   7.124   9.989  0.5650 -3.0283 -0.1971
  763MOL0     H 2955   8.638   7.006   9.892  2.4308 -0.9858  1.3371
  763MOL0     H 2956   8.651   7.395   9.804  0.0077  1.0011  1.1346
  763MOL0     H 2957   8.402   7.586   9.923 -3.1499  0.7752  0.4735
  763MOL0     H 2958   8.438   7.544   9.745 -0.8319 -0.4695  0.2548
  763MOL0     H 2959   8.213   7.628   9.774  0.3683 -0.3737  0.0050
  763MOL0     H 2960   8.189   7.516   9.909  1.4856  1.4922  0.3578
  763MOL0     H 2961   8.079   7.417   9.736 -0.3297  0.2349  2.2615
  763MOL0     H 2962   8.226   7.321   9.749  0.7014 -0.5263 -2.9139
  763MOL0     H 2963   8.182   7.564   9.572 -3.1108 -0.8206 -1.2661
  763MOL0     H 2964   8.152   7.399   9.516 -0.1811 -1.7259  0.6973
  763MOL0     H 2965   8.573   7.463   9.438 -0.7761  0.1080  1.7164
  763MOL0     H 2966   8.704   7.332   9.190  0.0127  1.3531  0.7880
  763MOL0     H 2967   8.793   7.368   9.338  0.0393 -0.7389  2.3032
  763MOL0     H 2968   8.767   7.198   9.267 -1.5632 -1.3485  3.0583
  763MOL0     H 2969   8.431   6.813   9.178 -0.2313 -0.4080 -0.1761
  763MOL0     H 2970   8.456   6.606   9.049  1.3085 -1.0293 -0.2622
  763MOL0     H 2971   8.484   6.485   8.873 -0.3349 -0.6309 -1.6996
  763MOL0     H 2972   8.603   6.390   8.778  3.4677  0.5470 -0.4099
  763MOL0     H 2973   8.734   6.307   8.974  0.8725  0.5038  0.2063
  763MOL0     H 2974   8.627   6.384   9.080 -2.8617  1.7119 -0.8380
  763MOL0     H 2975   8.432   6.236   8.942  0.6601 -0.3109 -3.9087
  763MOL0     H 2976   8.524   6.182   9.085  1.6194 -0.3249  0.4044
  763MOL0     H 2977   8.598   6.123   8.790 -1.5104  2.7561  0.3453
  763MOL0     H 2978   8.671   6.047   8.929 -0.4006 -1.6500 -2.0409
  763MOL0     H 2979   8.447   5.955   8.998  0.5890  0.2037  0.0419
  763MOL0     H 2980   8.524   5.887   8.859  1.8331  1.1152  1.1543
  763MOL0     H 2981   8.303   6.095   8.847  2.4022  0.6712  1.0102
  763MOL0     H 2982   8.389   6.006   8.714 -0.1223 -0.7834 -0.3050
  763MOL0     H 2983   8.217   5.889   8.947 -0.3794  2.7232  0.3362
  763MOL0     H 2984   8.306   5.792   8.833 -1.0770 -1.4599  2.6945
  763MOL0     H 2985   8.155   5.877   8.641 -0.4636  1.2059  0.2357
  763MOL0     H 2986   8.077   5.982   8.768 -0.2033  0.3930 -2.5930
  763MOL0     H 2987   8.834   6.730   8.904  0.3123 -0.9187  0.4281
  763MOL0     H 2988   8.811   6.948   9.032 -0.1605 -0.6913  1.0598
  763MOL0     H 2989   8.400   7.012   9.474  3.2503 -1.3429 -2.7823
  763MOL0     H 2990   8.274   7.187   9.569  0.5334 -0.0731  0.5180
  763MOL0     H 2991   9.300   6.754   9.086  0.7871  1.4589  0.0625
  763MOL0     H 2992   9.508   6.636   9.072  3.1178 -1.2872  1.6546
  763MOL0     H 2993   9.800   6.271   8.983 -1.6172 -1.7934  0.9736
  763MOL0     H 2994  10.020   6.173   9.004 -0.1709 -0.2559  0.6488
  763MOL0     H 2995  10.314   6.332   9.151 -0.8361 -0.5104 -0.0489
  763MOL0     H 2996  10.273   6.344   9.314  0.9280 -0.2049  0.0654
  763MOL0     H 2997  10.506   6.208   9.256 -0.7986  0.9571  2.8273
  763MOL0     H 2998  10.403   6.080   9.214  3.6572  0.0999  0.7643
  763MOL0     H 2999  10.292   6.068   9.426  1.0326 -0.3507  1.1153
  763MOL0     H 3000  10.380   6.216   9.483  5.2825  0.5952  0.6094
  763MOL0     H 3001  10.526   6.041   9.565  0.0365  0.5303  0.9970
  763MOL0     H 3002  10.589   6.085   9.413  0.2690 -0.8157 -1.2459
  763MOL0     H 3003  10.484   5.685   9.327 -1.0403  0.9503 -1.4808
  763MOL0     H 3004  10.050   6.314   9.396 -0.4298  0.8093  1.3869
  763MOL0     H 3005   9.838   6.436   9.385 -0.7047  1.2634 -0.5724
  764MOL0     O 3006   8.016   0.577   0.072 -0.3124  0.0014  0.0803
  764MOL0     C 3007   7.995   0.677   0.145  0.1232  0.5718 -0.5497
  764MOL0     O 3008   7.874   0.735   0.177  0.5258  0.4688  0.4958
  764MOL0     C 3009   7.772   0.694   0.093 -0.3764 -0.9438  0.0576
  764MOL0     C 3010   7.763   0.731  -0.044  0.1372  0.6026  0.3228
  764MOL0     C 3011   7.663   0.678  -0.125  0.1606 -0.6091 -0.8640
  764MOL0     C 3012   7.572   0.591  -0.072 -0.8618  0.0669  0.1238
  764MOL0     O 3013   7.468   0.540  -0.154  0.0729  0.1749 -0.8422
  764MOL0     C 3014   7.341   0.495  -0.101  0.2461  0.6901  0.1855
  764MOL0     C 3015   7.256   0.464  -0.220  0.1600 -1.1764 -0.0084
  764MOL0     C 3016   7.126   0.422  -0.172 -0.4490 -0.0444 -0.6565
  764MOL0     C 3017   7.025   0.376  -0.276  0.0930 -0.3581 -0.7251
  764MOL0     C 3018   6.911   0.311  -0.199  0.8535 -0.2313  0.4635
  764MOL0     C 3019   6.800   0.265  -0.296 -0.9390 -0.4559  0.4608
  764MOL0     C 3020   6.843   0.159  -0.398 -0.6810  1.0176  0.6858
  764MOL0     C 3021   6.863   0.014  -0.338 -0.7011 -0.0902  0.0416
  764MOL0     N 3022   6.738  -0.056  -0.296  1.0366 -0.1006  0.0385
  764MOL0     C 3023   6.638  -0.112  -0.376 -1.7639 -0.5546  0.3825
  764MOL0     C 3024   6.542  -0.154  -0.293 -1.1603 -0.8299 -0.1369
  764MOL0     C 3025   6.417  -0.220  -0.328  0.3386  0.3327 -0.3886
  764MOL0     C 3026   6.292  -0.187  -0.254  0.8413 -0.8758 -0.3518
  764MOL0     C 3027   6.274  -0.273  -0.127 -0.0247  0.1850  0.4944
  764MOL0     C 3028   6.167  -0.229  -0.026  0.5359  0.7340 -0.5860
  764MOL0     O 3029   6.047  -0.274  -0.090  0.1901  0.1430  0.5324
  764MOL0     C 3030   5.948  -0.349  -0.016 -1.0603  0.3148  0.5802
  764MOL0     C 3031   5.922  -0.335   0.119  0.0165  0.3196  0.5291
  764MOL0     C 3032   5.827  -0.413   0.185  0.4758  1.5162  0.0261
  764MOL0     C 3033   5.803  -0.361   0.330 -0.2650 -0.0642  0.0735
  764MOL0     C 3034   5.739  -0.504   0.123 -0.5996 -0.9837 -0.0415
  764MOL0     C 3035   5.616  -0.566   0.187  0.6252  0.3511 -0.8901
  764MOL0     O 3036   5.516  -0.582   0.102 -0.0478 -0.2310 -0.0621
  764MOL0     C 3037   5.390  -0.644   0.142  0.1529  0.0703  1.2453
  764MOL0     C 3038   5.390  -0.776   0.196  1.0189 -0.5725  0.7110
  764MOL0     C 3039   5.276  -0.833   0.244 -0.3717 -0.1940 -0.0692
  764MOL0     C 3040   5.151  -0.775   0.218  0.4062 -0.2461 -0.0190
  764MOL0     O 3041   5.032  -0.831   0.257 -0.0044 -0.0439 -0.1464
  764MOL0     C 3042   5.046  -0.903   0.377  0.3005  0.3373 -0.7588
  764MOL0     C 3043   4.910  -0.914   0.443 -0.2340 -0.2813 -0.8389
  764MOL0     C 3044   4.810  -0.981   0.357  0.6556  0.0212  0.2291
  764MOL0     C 3045   4.681  -1.008   0.443 -0.9238  0.3300  0.1582
  764MOL0     C 3046   4.571  -1.091   0.380 -0.1234 -0.6042 -0.2422
  764MOL0     C 3047   4.436  -1.077   0.456 -0.2554 -0.7838 -0.6852
  764MOL0     C 3048   4.439  -1.116   0.600  0.3193  0.6159  0.2723
  764MOL0     C 3049   4.308  -1.174   0.657 -0.4447 -0.0312  0.1134
  764MOL0    Cl 3050   4.184  -1.042   0.666 -0.0469 -0.3063  0.1216
  764MOL0     C 3051   5.144  -0.656   0.145  0.3467 -1.1033  0.7748
  764MOL0     C 3052   5.265  -0.591   0.100 -0.0113 -0.9807 -0.1352
  764MOL0     O 3053   5.609  -0.578   0.309  0.2986  0.1170 -0.9637
  764MOL0     C 3054   5.765  -0.521  -0.015  0.2813  0.0698 -0.6925
  764MOL0     C 3055   5.870  -0.455  -0.081 -0.4314 -0.6541  0.4315
  764MOL0     N 3056   6.570  -0.108  -0.169  0.5347  0.1747 -0.2778
  764MOL0     N 3057   6.689  -0.055  -0.161  0.1058  0.1361 -0.6448
  764MOL0     C 3058   7.572   0.562   0.067 -0.2233  0.6332  0.0406
  764MOL0     C 3059   7.665   0.619   0.153 -0.6440  0.5516  0.3245
  764MOL0     C 3060   8.119   0.740   0.200  0.7135  0.1028  1.2039
  764MOL0     C 3061   8.240   0.668   0.205 -0.5418  0.1863 -0.1376
  764MOL0     C 3062   8.355   0.731   0.253  0.1748  0.4489 -0.3378
  764MOL0     C 3063   8.344   0.841   0.333  0.9090 -0.4374  0.1862
  764MOL0     O 3064   8.445   0.896   0.414 -0.8041  0.2257  0.3321
  764MOL0     C 3065   8.558   0.821   0.456 -0.0621  0.7383 -0.6143
  764MOL0     C 3066   8.635   0.885   0.572  0.3129  0.0071  0.0817
  764MOL0     C 3067   8.730   0.780   0.638  0.1046 -0.1440 -0.6925
  764MOL0     C 3068   8.681   0.741   0.779  0.1977 -1.1020 -0.1259
  764MOL0     C 3069   8.560   0.650   0.760 -0.1216  0.0010  1.1748
  764MOL0     C 3070   8.467   0.577   0.738  0.0870  0.0931 -0.6980
  764MOL0     C 3071   8.231   0.916   0.327 -1.3014 -0.8856  0.4334
  764MOL0     C 3072   8.115   0.868   0.256 -0.4727  0.2180  0.5831
  764MOL0     H 3073   7.832   0.800  -0.091  1.9230 -0.4881  1.2057
  764MOL0     H 3074   7.648   0.729  -0.220 -1.9863  2.4864  0.9623
  764MOL0     H 3075   7.357   0.414  -0.029  1.0656  1.6981  1.1637
  764MOL0     H 3076   7.296   0.573  -0.039  0.1038 -0.2568  1.3082
  764MOL0     H 3077   7.253   0.560  -0.273  3.8152 -0.2078  1.2659
  764MOL0     H 3078   7.305   0.393  -0.287  0.2499 -0.1293 -1.0836
  764MOL0     H 3079   7.137   0.343  -0.097  0.8175 -2.6222 -3.3090
  764MOL0     H 3080   7.081   0.510  -0.125  2.0954  0.5379  0.9182
  764MOL0     H 3081   6.987   0.450  -0.348  0.8059  0.1205 -0.6153
  764MOL0     H 3082   7.073   0.300  -0.338 -2.4578 -2.9662  0.2770
  764MOL0     H 3083   6.948   0.222  -0.147 -1.2302 -1.6909 -0.4188
  764MOL0     H 3084   6.876   0.382  -0.123  2.6974  1.1915  0.0610
  764MOL0     H 3085   6.724   0.223  -0.230 -0.1878 -1.1886  0.8821
  764MOL0     H 3086   6.761   0.356  -0.344  0.2436 -0.7870 -1.2309
  764MOL0     H 3087   6.762   0.155  -0.472  1.6562  0.7592 -2.0300
  764MOL0     H 3088   6.934   0.182  -0.453  1.1633  0.5219  3.3492
  764MOL0     H 3089   6.917   0.021  -0.244 -1.5892  0.4258  0.5299
  764MOL0     H 3090   6.908  -0.053  -0.412  0.0614  1.7678 -1.2552
  764MOL0     H 3091   6.639  -0.140  -0.481  0.8295 -2.3335  0.8057
  764MOL0     H 3092   6.405  -0.188  -0.432 -0.0086  2.4075  0.2484
  764MOL0     H 3093   6.431  -0.329  -0.331  0.9353  0.3881  0.2317
  764MOL0     H 3094   6.211  -0.195  -0.328  0.1433 -1.8327  0.4805
  764MOL0     H 3095   6.288  -0.080  -0.231  0.0401 -0.7394 -1.0689
  764MOL0     H 3096   6.369  -0.264  -0.073 -0.0467 -0.9431  0.7357
  764MOL0     H 3097   6.259  -0.379  -0.150 -0.4427  0.4239 -0.3962
  764MOL0     H 3098   6.172  -0.120  -0.016  4.1486  1.1103 -3.9168
  764MOL0     H 3099   6.191  -0.277   0.069  1.2853 -0.5491 -1.3931
  764MOL0     H 3100   5.984  -0.264   0.172 -1.3370  0.2043  2.3723
  764MOL0     H 3101   5.823  -0.442   0.401 -0.2967 -0.9447 -0.9051
  764MOL0     H 3102   5.874  -0.281   0.354 -0.0202  0.7122 -2.8696
  764MOL0     H 3103   5.699  -0.335   0.352 -0.9514 -1.2097 -1.5958
  764MOL0     H 3104   5.486  -0.825   0.210  1.6403 -0.1071 -1.5711
  764MOL0     H 3105   5.286  -0.930   0.292 -1.7348 -0.1016  0.4473
  764MOL0     H 3106   5.092  -1.001   0.360  2.5898  1.4019 -1.1529
  764MOL0     H 3107   5.109  -0.848   0.448 -0.2586 -1.4475  1.2317
  764MOL0     H 3108   4.926  -0.967   0.538  0.7512  0.2107 -0.7229
  764MOL0     H 3109   4.877  -0.811   0.458 -1.0906 -0.2757 -2.5011
  764MOL0     H 3110   4.866  -1.070   0.328  2.3614  0.9769  0.4494
  764MOL0     H 3111   4.783  -0.924   0.267 -1.8060 -0.1959  0.7644
  764MOL0     H 3112   4.707  -1.066   0.532 -1.5726 -0.1260  0.0570
  764MOL0     H 3113   4.638  -0.913   0.475 -2.4277 -0.0402 -0.6516
  764MOL0     H 3114   4.590  -1.198   0.385  1.0039 -0.4032 -0.0387
  764MOL0     H 3115   4.558  -1.056   0.277  0.6281  0.1306 -0.0950
  764MOL0     H 3116   4.419  -0.969   0.459 -2.2332 -1.0774  0.4119
  764MOL0     H 3117   4.362  -1.138   0.405 -0.2379 -2.2061  0.9070
  764MOL0     H 3118   4.456  -1.024   0.657 -0.4403  0.1772  1.2351
  764MOL0     H 3119   4.526  -1.182   0.604 -1.2208 -1.5695 -0.8743
  764MOL0     H 3120   4.313  -1.221   0.756 -1.7348  0.4325  0.4161
  764MOL0     H 3121   4.269  -1.254   0.593 -2.6925  0.1165  1.2093
  764MOL0     H 3122   5.053  -0.612   0.107  0.1825 -3.0831 -1.3247
  764MOL0     H 3123   5.261  -0.497   0.046  1.4643  1.0595  3.0106
  764MOL0     H 3124   5.701  -0.591  -0.067 -0.2809 -0.6541  0.8992
  764MOL0     H 3125   5.885  -0.460  -0.188  0.3496  2.4540  0.2898
  764MOL0     H 3126   7.508   0.489   0.116  2.6184 -0.4888  2.3791
  764MOL0     H 3127   7.689   0.592   0.255  2.4980 -0.4333 -0.5325
  764MOL0     H 3128   8.247   0.572   0.156 -0.8399 -0.2635  0.6857
  764MOL0     H 3129   8.452   0.681   0.256 -0.3958 -0.7738 -1.4422
  764MOL0     H 3130   8.528   0.722   0.489 -0.0244  0.7648 -0.4990
  764MOL0     H 3131   8.633   0.821   0.376  2.6500  1.1833  1.7413
  764MOL0     H 3132   8.572   0.928   0.651  0.3922  0.6289 -0.1813
  764MOL0     H 3133   8.691   0.972   0.535 -3.9765  3.1478  0.1238
  764MOL0     H 3134   8.826   0.831   0.646 -0.0868  0.2315 -0.8047
  764MOL0     H 3135   8.736   0.686   0.582 -1.0555 -3.0323  3.5470
  764MOL0     H 3136   8.652   0.833   0.830  1.8812 -1.7499  2.1801
  764MOL0     H 3137   8.763   0.695   0.836  0.6708  1.2411  1.2186
  764MOL0     H 3138   8.386   0.514   0.707 -1.1454  2.0009 -1.6159
  764MOL0     H 3139   8.240   1.017   0.366  1.6923 -1.0911  0.4929
  764MOL0     H 3140   8.035   0.942   0.266  0.1940  0.7820  2.2081
  765MOL0     O 3141   8.475   7.448  10.373  1.3115 -1.2196  0.5585
  765MOL0     C 3142   8.586   7.393  10.375 -0.3842 -0.5395 -0.3671
  765MOL0     O 3143   8.623   7.293  10.461 -0.7674  0.0570  0.3589
  765MOL0     C 3144   8.537   7.263  10.560  0.1250 -0.0407 -0.1341
  765MOL0     C 3145   8.588   7.290  10.684 -0.1901 -0.6840 -0.0067
  765MOL0     C 3146   8.516   7.278  10.802 -0.1131 -0.1439  0.2803
  765MOL0     C 3147   8.379   7.219  10.791 -0.5355 -0.6569  0.1634
  765MOL0     O 3148   8.290   7.192  10.889 -0.4711 -0.8916 -0.5250
  765MOL0     C 3149   8.344   7.113  10.990  0.1672  0.7205  0.1474
  765MOL0     C 3150   8.238   7.092  11.087 -0.6235  0.6657  0.3146
  765MOL0     C 3151   8.293   7.002  11.204  0.2964 -0.2015  0.6558
  765MOL0     C 3152   8.370   7.067  11.318 -0.0798  0.5169  0.4963
  765MOL0     C 3153   8.372   6.967  11.432 -0.3825  0.3020  0.6654
  765MOL0     C 3154   8.478   6.986  11.539  0.1068  0.3675 -0.1822
  765MOL0     C 3155   8.476   6.865  11.647  0.4075  0.7964  0.2649
  765MOL0     C 3156   8.546   6.734  11.600  0.0231  0.4786  0.3236
  765MOL0     N 3157   8.648   6.750  11.499  0.3891 -0.5277 -0.2534
  765MOL0     C 3158   8.775   6.794  11.533  0.5316  0.4318  0.4560
  765MOL0     C 3159   8.837   6.790  11.418 -0.0857 -0.1624 -0.3405
  765MOL0     C 3160   8.977   6.825  11.401 -0.7342  1.1471 -0.4909
  765MOL0     C 3161   9.013   6.955  11.460  0.1860 -0.1611  0.0170
  765MOL0     C 3162   9.160   6.995  11.446 -1.3249 -0.0588 -0.3044
  765MOL0     C 3163   9.231   6.948  11.568 -0.2470 -0.6926 -1.3383
  765MOL0     O 3164   9.360   7.019  11.558 -0.3403 -0.8336  0.5320
  765MOL0     C 3165   9.472   6.965  11.491  0.3014  0.6845  0.0351
  765MOL0     C 3166   9.486   6.825  11.467  0.4377  0.0733 -0.6413
  765MOL0     C 3167   9.584   6.780  11.378 -0.3977  0.5827 -0.4408
  765MOL0     C 3168   9.586   6.634  11.339 -0.2267  1.1454 -0.3389
  765MOL0     C 3169   9.692   6.874  11.338 -0.4180 -0.1198  0.4304
  765MOL0     C 3170   9.808   6.858  11.249 -0.3103  0.3699 -0.9921
  765MOL0     O 3171   9.867   6.735  11.239  0.2914 -0.4606 -0.3190
  765MOL0     C 3172   9.951   6.711  11.142  0.8354 -0.4115 -0.0427
  765MOL0     C 3173   9.905   6.681  11.015 -0.6428 -0.3984  0.3991
  765MOL0     C 3174   9.995   6.658  10.907 -0.3384 -0.1960  0.5762
  765MOL0     C 3175  10.131   6.689  10.924 -0.8159 -0.7599  1.0324
  765MOL0     O 3176  10.213   6.672  10.817 -0.1991 -0.0752 -0.1243
  765MOL0     C 3177  10.185   6.579  10.700 -0.1579  0.1219 -0.2396
  765MOL0     C 3178  10.314   6.581  10.618 -0.1717  0.1330 -0.6379
  765MOL0     C 3179  10.284   6.504  10.490 -0.7681  0.3677  0.8849
  765MOL0     C 3180  10.403   6.527  10.389  0.6264 -0.1622 -0.1560
  765MOL0     C 3181  10.529   6.464  10.440 -0.6227 -0.4830  0.5601
  765MOL0     C 3182  10.658   6.540  10.411  1.1671 -0.2458  0.1861
  765MOL0     C 3183  10.695   6.540  10.256 -0.3649 -0.0576  1.0770
  765MOL0     C 3184  10.763   6.668  10.221  0.4495  0.8413  0.1389
  765MOL0    Cl 3185  10.855   6.655  10.070  0.2012 -0.1357 -0.0871
  765MOL0     C 3186  10.168   6.727  11.050 -0.0697  0.5588  0.5326
  765MOL0     C 3187  10.083   6.732  11.157 -0.1719 -0.7070 -0.4107
  765MOL0     O 3188   9.823   6.957  11.174  0.3622 -0.3991 -0.0251
  765MOL0     C 3189   9.683   6.999  11.392 -0.8869 -0.1021 -0.1137
  765MOL0     C 3190   9.574   7.047  11.464 -0.1141  0.4755 -0.4047
  765MOL0     N 3191   8.763   6.733  11.317  0.4910  0.3410  0.3971
  765MOL0     N 3192   8.644   6.718  11.367  0.1972 -0.1162  0.3749
  765MOL0     C 3193   8.325   7.209  10.670  0.0588  0.9927  0.0901
  765MOL0     C 3194   8.400   7.230  10.552 -0.5227  0.6161  1.2260
  765MOL0     C 3195   8.683   7.418  10.270  0.6004 -0.6407 -0.2964
  765MOL0     C 3196   8.658   7.500  10.156 -0.7440  0.7471 -0.8060
  765MOL0     C 3197   8.755   7.535  10.064  0.1025  0.5068 -0.5199
  765MOL0     C 3198   8.888   7.482  10.074  0.7249  0.5647  0.3496
  765MOL0     O 3199   8.984   7.510   9.986 -0.3484 -0.2149  0.1417
  765MOL0     C 3200   8.948   7.529   9.854 -0.1150  0.0765  0.5254
  765MOL0     C 3201   8.947   7.670   9.799 -0.0013 -0.5215 -0.4380
  765MOL0     C 3202   8.976   7.686   9.644  0.4531  0.0617  0.9449
  765MOL0     C 3203   8.874   7.617   9.557 -0.1531 -0.2547  0.2631
  765MOL0     C 3204   8.747   7.681   9.578 -0.3347  0.2464  0.5523
  765MOL0     C 3205   8.638   7.735   9.601  0.0214  1.1103 -0.0472
  765MOL0     C 3206   8.914   7.416  10.195 -0.8649  0.3326  0.0790
  765MOL0     C 3207   8.815   7.374  10.290 -0.7192  0.4278  0.4596
  765MOL0     H 3208   8.683   7.341  10.682  1.1932 -3.1101 -1.3054
  765MOL0     H 3209   8.558   7.296  10.901  1.0833 -1.1387 -0.0154
  765MOL0     H 3210   8.378   7.014  10.955  0.9516  0.6913  0.9510
  765MOL0     H 3211   8.429   7.154  11.046  1.4840 -1.1300 -0.3860
  765MOL0     H 3212   8.188   7.178  11.131 -1.1306  1.3564 -1.5243
  765MOL0     H 3213   8.155   7.034  11.046 -0.1760 -0.6685  1.2202
  765MOL0     H 3214   8.212   6.949  11.255 -0.4120 -0.1838 -0.4232
  765MOL0     H 3215   8.359   6.926  11.161 -1.3607 -0.4636 -1.5589
  765MOL0     H 3216   8.472   7.080  11.280 -0.6865  0.3155 -1.2823
  765MOL0     H 3217   8.325   7.163  11.346 -2.1552  0.0173 -0.9154
  765MOL0     H 3218   8.278   6.992  11.482 -0.9811  3.1494 -1.5912
  765MOL0     H 3219   8.384   6.864  11.398  1.7782  0.8439 -0.4248
  765MOL0     H 3220   8.578   7.004  11.498  0.4115  2.8049  1.4177
  765MOL0     H 3221   8.460   7.081  11.590 -1.6360  0.6895 -1.3001
  765MOL0     H 3222   8.517   6.897  11.743  1.8781 -3.3366  1.2118
  765MOL0     H 3223   8.372   6.844  11.673  0.5801  2.0119  2.0977
  765MOL0     H 3224   8.484   6.647  11.577  0.6087 -0.5006  2.2107
  765MOL0     H 3225   8.605   6.697  11.685 -1.9365 -1.6823  0.8395
  765MOL0     H 3226   8.825   6.812  11.628  1.1655 -0.3438  0.2716
  765MOL0     H 3227   9.023   6.734  11.442 -1.0928 -0.2147 -2.9243
  765MOL0     H 3228   9.008   6.828  11.296  1.7903 -3.4440 -0.1431
  765MOL0     H 3229   8.970   6.962  11.560 -3.8460  2.0784 -1.6563
  765MOL0     H 3230   8.953   7.023  11.399  1.1494  0.7256  0.0271
  765MOL0     H 3231   9.182   7.102  11.440  0.6499 -0.3138  1.2348
  765MOL0     H 3232   9.218   6.951  11.364  0.5036  1.9029 -0.1645
  765MOL0     H 3233   9.243   6.841  11.584 -1.6169 -0.5406  1.2044
  765MOL0     H 3234   9.178   6.974  11.660  1.7631  0.7970 -0.5378
  765MOL0     H 3235   9.416   6.747  11.493  2.4358 -1.6107 -0.0790
  765MOL0     H 3236   9.538   6.636  11.240 -2.7982 -0.0357  0.7906
  765MOL0     H 3237   9.675   6.571  11.341 -2.1157 -1.8141  2.7501
  765MOL0     H 3238   9.523   6.589  11.417  1.4435  0.3145  0.5810
  765MOL0     H 3239   9.797   6.677  11.006 -0.9503 -1.2842  3.3852
  765MOL0     H 3240   9.944   6.630  10.816 -0.9071 -0.5685  1.0043
  765MOL0     H 3241  10.174   6.480  10.744 -0.9062  0.2463 -0.1413
  765MOL0     H 3242  10.097   6.607  10.643 -0.4778 -1.9302 -0.8247
  765MOL0     H 3243  10.337   6.685  10.592 -1.0618  0.8038  1.1118
  765MOL0     H 3244  10.397   6.530  10.669 -0.7795 -1.5564 -1.2619
  765MOL0     H 3245  10.200   6.535  10.427  0.1039  0.0760 -0.4613
  765MOL0     H 3246  10.272   6.399  10.516 -1.7861 -0.1106 -1.2288
  765MOL0     H 3247  10.368   6.484  10.294 -0.2555  0.2810 -0.0422
  765MOL0     H 3248  10.426   6.632  10.372 -1.7232  0.4747  0.1524
  765MOL0     H 3249  10.537   6.361  10.404  2.8472  0.2561 -1.2284
  765MOL0     H 3250  10.526   6.449  10.548 -3.5692  1.2437  0.8068
  765MOL0     H 3251  10.639   6.642  10.445  1.9779 -0.2349  0.6233
  765MOL0     H 3252  10.740   6.497  10.469  1.3830  1.5997  1.3364
  765MOL0     H 3253  10.609   6.542  10.189  0.4771  2.2788 -0.0709
  765MOL0     H 3254  10.750   6.449  10.233  0.2656  1.2025 -3.3971
  765MOL0     H 3255  10.838   6.692  10.297  0.5452  3.2628 -0.6353
  765MOL0     H 3256  10.693   6.752  10.227 -1.1695 -0.4910  0.5463
  765MOL0     H 3257  10.275   6.740  11.057  0.4303 -1.0004 -2.3927
  765MOL0     H 3258  10.126   6.755  11.254  0.9310  2.3583 -1.4988
  765MOL0     H 3259   9.760   7.070  11.363  1.2843 -3.0044 -1.9824
  765MOL0     H 3260   9.571   7.151  11.495  0.4644  0.4901 -0.3878
  765MOL0     H 3261   8.225   7.168  10.658  0.5454  0.1950 -1.5883
  765MOL0     H 3262   8.372   7.222  10.448 -0.3067 -2.6840  1.3390
  765MOL0     H 3263   8.555   7.528  10.136 -0.7331  1.0235 -0.4727
  765MOL0     H 3264   8.714   7.603   9.990  2.0178  0.7071 -1.4833
  765MOL0     H 3265   9.036   7.487   9.804 -1.1581 -0.0389 -1.3021
  765MOL0     H 3266   8.863   7.466   9.826  0.6591 -2.2379  2.9679
  765MOL0     H 3267   9.026   7.728   9.848  0.7318 -0.3735 -1.7318
  765MOL0     H 3268   8.861   7.728   9.833  1.5129  1.7106 -0.2344
  765MOL0     H 3269   9.078   7.652   9.620  0.5670  1.0784 -0.0823
  765MOL0     H 3270   8.965   7.791   9.617 -3.3811 -0.5888 -0.6814
  765MOL0     H 3271   8.884   7.518   9.602 -0.1201  0.3669  1.6665
  765MOL0     H 3272   8.907   7.635   9.454 -2.9148  0.4746 -0.5781
  765MOL0     H 3273   8.541   7.770   9.629 -1.5395 -3.5997  1.2798
  765MOL0     H 3274   9.016   7.388  10.217 -0.8410  1.5147  1.6844
  765MOL0     H 3275   8.841   7.316  10.378  1.4266 -1.1838 -1.1238
  766MOL0     O 3276   8.153  10.710  10.943  0.3307  0.3146  0.5847
  766MOL0     C 3277   8.223  10.644  10.869  0.2205  0.4255 -0.3096
  766MOL0     O 3278   8.208  10.632  10.735 -1.0329  0.2969  0.2046
  766MOL0     C 3279   8.098  10.678  10.670  0.0349  0.1815  0.4111
  766MOL0     C 3280   8.118  10.775  10.570  0.2238 -0.3705  1.2527
  766MOL0     C 3281   8.005  10.813  10.492 -0.2041  0.1291 -0.1481
  766MOL0     C 3282   7.873  10.764  10.519  0.4161 -1.0087  0.7349
  766MOL0     O 3283   7.760  10.808  10.446 -0.0913 -0.5144 -0.0765
  766MOL0     C 3284   7.764  10.958  10.451  0.0559  0.7110 -0.0133
  766MOL0     C 3285   7.620  11.015  10.448  0.5001  0.0078  0.9596
  766MOL0     C 3286   7.619  11.166  10.407  0.1114  0.4124  0.2607
  766MOL0     C 3287   7.474  11.219  10.399 -0.0549  0.4170 -1.0010
  766MOL0     C 3288   7.462  11.360  10.343  0.8096 -0.1216 -0.0737
  766MOL0     C 3289   7.480  11.467  10.454 -0.5695 -0.8844 -0.7650
  766MOL0     C 3290   7.482  11.615  10.404  0.1786 -0.0275 -0.0436
  766MOL0     C 3291   7.615  11.663  10.335 -0.6805 -0.6894  0.4891
  766MOL0     N 3292   7.646  11.590  10.207  0.1876  0.1393 -0.2679
  766MOL0     C 3293   7.573  11.604  10.094  0.0385 -0.4081 -0.7199
  766MOL0     C 3294   7.652  11.546   9.996  0.0176 -1.2249 -1.2824
  766MOL0     C 3295   7.594  11.524   9.854  0.2640  1.0381 -0.4609
  766MOL0     C 3296   7.573  11.368   9.836 -0.3442  0.1784  0.4622
  766MOL0     C 3297   7.428  11.321   9.877  0.3918  0.6220  0.3812
  766MOL0     C 3298   7.441  11.179   9.937 -0.4751  0.4703  0.9855
  766MOL0     O 3299   7.464  11.078   9.844  0.1699  0.1350  0.1517
  766MOL0     C 3300   7.362  11.037   9.760  0.6708 -0.0784 -0.5482
  766MOL0     C 3301   7.399  10.943   9.664  0.8821  0.7724 -0.1793
  766MOL0     C 3302   7.307  10.881   9.579 -0.3843  0.8916  0.3016
  766MOL0     C 3303   7.355  10.768   9.481 -0.4734 -0.2679  0.0478
  766MOL0     C 3304   7.169  10.924   9.590 -0.6763  0.6348  0.4310
  766MOL0     C 3305   7.060  10.871   9.507  0.0862 -0.4428 -0.8652
  766MOL0     O 3306   6.953  10.951   9.480  0.4609 -0.1311  0.3549
  766MOL0     C 3307   6.859  10.907   9.397 -0.0164 -0.8469  0.0340
  766MOL0     C 3308   6.876  10.886   9.256 -0.1690  0.5522  0.3300
  766MOL0     C 3309   6.769  10.852   9.173 -0.1008 -0.0825  0.0058
  766MOL0     C 3310   6.644  10.843   9.229  0.1079  0.5504 -0.3125
  766MOL0     O 3311   6.553  10.791   9.149  0.4511 -0.1558 -0.1639
  766MOL0     C 3312   6.429  10.862   9.142 -0.6206  0.0449 -0.2387
  766MOL0     C 3313   6.320  10.757   9.109 -0.9534 -0.5590 -0.2169
  766MOL0     C 3314   6.203  10.820   9.049  0.2320  0.1595  0.1252
  766MOL0     C 3315   6.095  10.723   9.003 -1.3089  0.7610  0.4822
  766MOL0     C 3316   5.988  10.793   8.931  0.7003  0.3119  0.0917
  766MOL0     C 3317   5.883  10.844   9.035 -0.7319  0.0773 -0.0760
  766MOL0     C 3318   5.774  10.920   8.965 -0.9235  0.9594  0.1810
  766MOL0     C 3319   5.671  10.838   8.919  0.0210 -0.9152 -0.4283
  766MOL0    Cl 3320   5.550  10.936   8.816  0.0972 -0.0824  0.2091
  766MOL0     C 3321   6.619  10.869   9.367  0.1343 -0.0425 -0.1934
  766MOL0     C 3322   6.732  10.896   9.446  0.5537 -0.6732 -0.5514
  766MOL0     O 3323   7.063  10.751   9.477 -0.4665 -0.7660  0.6320
  766MOL0     C 3324   7.137  11.022   9.675  0.4491 -0.8300 -0.3680
  766MOL0     C 3325   7.232  11.082   9.755  0.7987  0.2560 -0.5262
  766MOL0     N 3326   7.771  11.502  10.049  0.2489 -1.0605 -0.5903
  766MOL0     N 3327   7.768  11.534  10.179 -0.4533  0.3981  0.5480
  766MOL0     C 3328   7.858  10.676  10.625  0.0991  0.1665  0.7306
  766MOL0     C 3329   7.963  10.639  10.706 -0.1964  0.5357  0.9866
  766MOL0     C 3330   8.337  10.569  10.934 -0.1959  0.8989  0.0766
  766MOL0     C 3331   8.358  10.571  11.074 -0.1690 -0.3791 -0.3111
  766MOL0     C 3332   8.451  10.497  11.137  0.1003  0.7899 -0.9263
  766MOL0     C 3333   8.537  10.412  11.066 -0.1437 -0.6587  0.2831
  766MOL0     O 3334   8.627  10.312  11.098  0.3444 -0.8195  0.3595
  766MOL0     C 3335   8.607  10.247  11.232 -0.2007 -0.1881  0.6848
  766MOL0     C 3336   8.728  10.311  11.316 -1.4837 -0.2727  0.5217
  766MOL0     C 3337   8.871  10.245  11.290  0.4047 -0.6738  0.4251
  766MOL0     C 3338   8.890  10.112  11.359 -0.2168  0.1580  0.1679
  766MOL0     C 3339   9.008  10.036  11.319  0.6764  0.0646  0.1420
  766MOL0     C 3340   9.102   9.958  11.293 -0.3795 -0.1744  0.1419
  766MOL0     C 3341   8.521  10.415  10.924  0.5672  0.3880 -0.0133
  766MOL0     C 3342   8.420  10.483  10.868  1.1395 -1.5966  0.0347
  766MOL0     H 3343   8.217  10.816  10.552  0.0994  0.3172  2.0833
  766MOL0     H 3344   8.014  10.891  10.418 -2.6728 -0.1400 -0.8059
  766MOL0     H 3345   7.803  10.994  10.546 -1.8439  2.1337  0.2790
  766MOL0     H 3346   7.820  10.987  10.361 -1.0203 -1.0382 -1.3148
  766MOL0     H 3347   7.546  10.972  10.380 -2.1630 -0.9879  4.1715
  766MOL0     H 3348   7.569  10.989  10.542 -0.6328 -4.0307 -0.5474
  766MOL0     H 3349   7.679  11.234  10.468  1.9397  3.1322 -4.1103
  766MOL0     H 3350   7.668  11.164  10.310 -2.1255 -0.5229 -0.9315
  766MOL0     H 3351   7.405  11.159  10.338 -2.3619 -0.9941  2.6290
  766MOL0     H 3352   7.425  11.225  10.497 -2.1354 -1.2753 -1.8383
  766MOL0     H 3353   7.524  11.372  10.253  1.4560 -0.2803  0.3476
  766MOL0     H 3354   7.359  11.367  10.307  1.2663 -0.8285 -1.6406
  766MOL0     H 3355   7.396  11.461  10.523 -0.9790  2.7956 -0.7614
  766MOL0     H 3356   7.571  11.453  10.513 -0.9180 -0.2538 -0.0579
  766MOL0     H 3357   7.404  11.630  10.328  2.2558 -3.3298 -3.1593
  766MOL0     H 3358   7.465  11.688  10.484 -1.8277  0.7344 -1.0914
  766MOL0     H 3359   7.704  11.658  10.399 -1.0425  3.4708  1.5759
  766MOL0     H 3360   7.599  11.768  10.308 -1.5386 -0.7357  0.8106
  766MOL0     H 3361   7.472  11.642  10.088 -0.5827 -1.3609  2.1323
  766MOL0     H 3362   7.495  11.569   9.842 -0.2146 -0.5778 -4.0703
  766MOL0     H 3363   7.661  11.582   9.790 -0.2437  2.3814  0.1802
  766MOL0     H 3364   7.649  11.308   9.886 -1.2519 -2.9769 -1.6178
  766MOL0     H 3365   7.580  11.353   9.727 -0.7031  2.8764  0.0023
  766MOL0     H 3366   7.362  11.320   9.789 -0.4819 -0.6685  1.0347
  766MOL0     H 3367   7.388  11.395   9.946  0.8111  1.5044 -0.2955
  766MOL0     H 3368   7.353  11.157   9.998 -2.5560  2.1149 -1.2437
  766MOL0     H 3369   7.529  11.189  10.002  2.4166  2.5114 -2.8256
  766MOL0     H 3370   7.500  10.903   9.668  0.3934 -0.4824  3.7587
  766MOL0     H 3371   7.285  10.781   9.399  0.2424  0.0744 -0.5206
  766MOL0     H 3372   7.457  10.797   9.455 -0.9815  3.0249  1.2804
  766MOL0     H 3373   7.344  10.669   9.527 -2.1203 -0.6753 -1.1285
  766MOL0     H 3374   6.978  10.894   9.220 -1.0190  2.3970 -1.8899
  766MOL0     H 3375   6.780  10.836   9.066 -0.8024  0.7355 -0.2038
  766MOL0     H 3376   6.401  10.897   9.242  0.6511  0.8507 -0.1419
  766MOL0     H 3377   6.428  10.939   9.064  0.5651 -2.0362 -2.4343
  766MOL0     H 3378   6.365  10.691   9.034  0.1364  2.5373 -2.4520
  766MOL0     H 3379   6.292  10.706   9.202 -2.3263 -0.2718 -0.4625
  766MOL0     H 3380   6.237  10.886   8.968 -0.7787  0.8874  0.2687
  766MOL0     H 3381   6.152  10.883   9.123 -2.9797 -0.8091 -1.1062
  766MOL0     H 3382   6.143  10.659   8.929 -1.9935  1.7605 -0.8808
  766MOL0     H 3383   6.056  10.669   9.089  0.5936 -0.4722  0.6236
  766MOL0     H 3384   5.935  10.731   8.858  2.7382 -0.9417 -0.4056
  766MOL0     H 3385   6.023  10.864   8.855 -0.1177 -0.6568 -1.2501
  766MOL0     H 3386   5.852  10.756   9.092  0.7513 -0.8168 -0.5937
  766MOL0     H 3387   5.940  10.911   9.100  1.4049 -0.2757 -1.4759
  766MOL0     H 3388   5.815  10.975   8.880 -1.2293  1.2387  0.2159
  766MOL0     H 3389   5.727  10.987   9.038  1.8326  0.6310  2.4473
  766MOL0     H 3390   5.610  10.814   9.007 -0.6707  2.7983  0.2759
  766MOL0     H 3391   5.709  10.748   8.872 -0.4516 -0.5131 -1.6116
  766MOL0     H 3392   6.520  10.854   9.409 -0.4267  0.9972 -1.0936
  766MOL0     H 3393   6.721  10.915   9.553 -1.4836  3.0134 -1.2418
  766MOL0     H 3394   7.036  11.060   9.680  0.9195  0.3462  0.7420
  766MOL0     H 3395   7.202  11.167   9.815 -0.8395  0.7092 -1.9113
  766MOL0     H 3396   7.758  10.634  10.628  1.5893 -4.2367 -1.4982
  766MOL0     H 3397   7.940  10.571  10.787 -1.1860 -0.0822  0.2148
  766MOL0     H 3398   8.303  10.635  11.142  0.7426  1.6217 -1.3592
  766MOL0     H 3399   8.464  10.494  11.245 -3.8955 -2.3562 -0.3050
  766MOL0     H 3400   8.518  10.277  11.287 -0.0853  0.5465  0.4843
  766MOL0     H 3401   8.613  10.139  11.218  0.1866  0.0673 -1.4640
  766MOL0     H 3402   8.710  10.301  11.423 -1.2967  4.0601  1.1167
  766MOL0     H 3403   8.736  10.416  11.286  1.8385 -1.0779 -2.0255
  766MOL0     H 3404   8.944  10.318  11.326 -1.8400  3.5388 -2.6200
  766MOL0     H 3405   8.901  10.230  11.186  0.2275  0.8310  0.1339
  766MOL0     H 3406   8.798  10.055  11.342  0.3581 -0.7474 -0.0129
  766MOL0     H 3407   8.895  10.126  11.467  0.1644  1.2031  0.0221
  766MOL0     H 3408   9.181   9.887  11.283 -1.0116 -1.5851  3.6619
  766MOL0     H 3409   8.586  10.356  10.861  0.8656  0.4682  0.2169
  766MOL0     H 3410   8.420  10.483  10.760 -0.2765  0.9992 -0.0407
  767MOL0     O 3411   2.772   1.096   1.170 -0.1678 -0.5610  0.6583
  767MOL0     C 3412   2.709   1.101   1.275  0.5972 -0.3528  0.7646
  767MOL0     O 3413   2.748   1.072   1.401 -0.0890 -0.1365  0.3197
  767MOL0     C 3414   2.877   1.034   1.418 -0.4676  0.0826 -0.3978
  767MOL0     C 3415   2.983   1.107   1.359  0.7665  0.8886  0.1902
  767MOL0     C 3416   3.113   1.054   1.390 -0.1921  0.1673  0.2092
  767MOL0     C 3417   3.137   0.945   1.470  0.4493  0.2072  0.1650
  767MOL0     O 3418   3.261   0.917   1.517 -0.2286 -0.7330 -0.5930
  767MOL0     C 3419   3.373   0.951   1.431 -0.8137  0.5693 -0.0887
  767MOL0     C 3420   3.501   0.893   1.488  0.0221 -0.3587 -0.9291
  767MOL0     C 3421   3.510   0.927   1.634 -0.6934  0.1815 -0.7943
  767MOL0     C 3422   3.642   0.860   1.694  1.2641  0.3965  0.0261
  767MOL0     C 3423   3.658   0.896   1.833 -0.1338 -0.8180  0.0128
  767MOL0     C 3424   3.650   1.041   1.873  0.8995  1.3295 -0.1995
  767MOL0     C 3425   3.742   1.140   1.793  0.6809  0.1025  0.2346
  767MOL0     C 3426   3.871   1.144   1.871 -0.3371  0.2784  1.0562
  767MOL0     N 3427   3.967   1.219   1.807  0.6468  0.0632  0.0524
  767MOL0     C 3428   4.061   1.281   1.878  0.6521  0.4691 -0.3555
  767MOL0     C 3429   4.144   1.323   1.781 -1.3179  0.4059 -0.1985
  767MOL0     C 3430   4.270   1.413   1.802  0.0873  0.3173  1.3720
  767MOL0     C 3431   4.217   1.556   1.800 -1.0064  0.3518 -0.8457
  767MOL0     C 3432   4.338   1.650   1.815  0.0305 -0.5431  1.0470
  767MOL0     C 3433   4.298   1.795   1.769  0.0687 -0.1710 -0.7929
  767MOL0     O 3434   4.270   1.801   1.628  0.8086  0.0144 -0.3874
  767MOL0     C 3435   4.222   1.917   1.575  0.7375  1.1506  0.3431
  767MOL0     C 3436   4.195   1.921   1.437 -1.0637 -0.1302 -0.5562
  767MOL0     C 3437   4.123   2.025   1.374 -0.9251 -0.8083  0.6320
  767MOL0     C 3438   4.083   2.003   1.230  0.4044 -0.5569  0.4773
  767MOL0     C 3439   4.083   2.134   1.460  0.8338  1.0315  0.3114
  767MOL0     C 3440   4.024   2.270   1.408  0.0969  1.1314  0.5978
  767MOL0     O 3441   3.977   2.349   1.501  0.5910  0.0750  0.0990
  767MOL0     C 3442   3.930   2.479   1.463  0.6789  0.7271  0.5942
  767MOL0     C 3443   3.795   2.509   1.449 -0.6913 -0.1277 -0.3072
  767MOL0     C 3444   3.758   2.650   1.431 -0.7342 -0.4318 -0.1301
  767MOL0     C 3445   3.852   2.753   1.446 -0.6624 -0.0056 -0.9392
  767MOL0     O 3446   3.812   2.877   1.437  0.0990 -0.3810  0.5621
  767MOL0     C 3447   3.880   2.977   1.517  0.9871  1.1814  0.1229
  767MOL0     C 3448   3.787   3.108   1.502 -0.3458  0.6518 -0.9109
  767MOL0     C 3449   3.850   3.220   1.583 -0.0676  0.2649 -0.0271
  767MOL0     C 3450   3.769   3.354   1.581  1.0058 -0.2230 -0.1833
  767MOL0     C 3451   3.823   3.468   1.670 -1.0136  0.8070 -0.2962
  767MOL0     C 3452   3.747   3.606   1.672 -0.4027 -0.5733 -0.5380
  767MOL0     C 3453   3.820   3.718   1.749 -0.1417  0.5067 -0.9466
  767MOL0     C 3454   3.761   3.854   1.721  0.1058 -0.4781  0.2364
  767MOL0    Cl 3455   3.872   3.980   1.786  0.1764  0.1375  0.0860
  767MOL0     C 3456   3.989   2.711   1.463  0.3227  0.3627 -0.0462
  767MOL0     C 3457   4.024   2.576   1.466  0.3572  0.7932  0.7269
  767MOL0     O 3458   4.019   2.290   1.287 -0.1640  0.3257 -0.0104
  767MOL0     C 3459   4.119   2.127   1.599 -0.0154  1.0096 -0.1173
  767MOL0     C 3460   4.190   2.023   1.654  0.4709  0.1752  0.0045
  767MOL0     N 3461   4.093   1.293   1.656  0.8582  0.5266  0.1267
  767MOL0     N 3462   3.993   1.221   1.673 -0.0088  1.3105 -0.7357
  767MOL0     C 3463   3.024   0.879   1.521 -0.4139  0.6290  0.0718
  767MOL0     C 3464   2.897   0.931   1.502 -0.4138  0.6820  1.1125
  767MOL0     C 3465   2.563   1.139   1.264  0.3440  0.4270 -1.1965
  767MOL0     C 3466   2.503   1.208   1.154 -0.4109 -0.1630  0.1324
  767MOL0     C 3467   2.376   1.256   1.159 -0.0061 -0.3721  0.0434
  767MOL0     C 3468   2.297   1.233   1.280 -0.3859 -0.4388 -0.8452
  767MOL0     O 3469   2.177   1.287   1.310 -0.0011 -0.2850  0.0135
  767MOL0     C 3470   2.111   1.362   1.211 -1.0022  0.6647 -0.1790
  767MOL0     C 3471   2.008   1.440   1.285 -0.3533 -0.2698  0.8488
  767MOL0     C 3472   2.053   1.577   1.335 -0.1355 -0.2235 -0.4314
  767MOL0     C 3473   2.169   1.558   1.431 -0.1253  0.2621  0.0485
  767MOL0     C 3474   2.197   1.688   1.498 -0.3955 -0.3228 -0.3728
  767MOL0     C 3475   2.221   1.804   1.531 -0.9714  0.2014 -0.1939
  767MOL0     C 3476   2.351   1.167   1.389  0.3313 -0.4283  0.5338
  767MOL0     C 3477   2.484   1.123   1.378 -0.1659  0.2222  0.2323
  767MOL0     H 3478   2.969   1.192   1.292 -2.0112 -0.1135 -0.6433
  767MOL0     H 3479   3.184   1.123   1.345 -0.7538  2.4338  2.5760
  767MOL0     H 3480   3.371   0.905   1.332 -2.5136 -1.1609  0.6702
  767MOL0     H 3481   3.380   1.059   1.420 -1.5708  0.5689 -0.6995
  767MOL0     H 3482   3.494   0.784   1.491  1.9111 -0.5907 -2.6085
  767MOL0     H 3483   3.583   0.927   1.424  0.5406  1.4348  0.5793
  767MOL0     H 3484   3.513   1.035   1.650 -1.1277  0.1726 -0.6133
  767MOL0     H 3485   3.426   0.891   1.695  0.2801 -0.7843  0.0234
  767MOL0     H 3486   3.635   0.751   1.686  1.0760  0.3765  0.4645
  767MOL0     H 3487   3.731   0.886   1.635  0.7925 -0.0837 -0.9348
  767MOL0     H 3488   3.588   0.841   1.897 -0.1522 -0.2401  0.5027
  767MOL0     H 3489   3.758   0.859   1.858  2.1745  0.9132 -5.2983
  767MOL0     H 3490   3.549   1.084   1.873  1.3990  2.5742  0.1804
  767MOL0     H 3491   3.677   1.040   1.979 -0.6154 -0.1517  0.2118
  767MOL0     H 3492   3.738   1.116   1.686 -1.7451  3.2528 -0.5319
  767MOL0     H 3493   3.706   1.243   1.791 -1.4139 -0.5896 -0.6663
  767MOL0     H 3494   3.925   1.049   1.877 -1.1371 -0.2716 -0.0690
  767MOL0     H 3495   3.851   1.180   1.972  0.8861  0.1252  1.3710
  767MOL0     H 3496   4.091   1.287   1.982  0.7546  0.6634 -0.3946
  767MOL0     H 3497   4.327   1.374   1.888  1.1421 -3.6688 -0.8675
  767MOL0     H 3498   4.338   1.395   1.718 -1.1414  2.3907 -0.1428
  767MOL0     H 3499   4.157   1.560   1.892 -0.5378  1.8070 -0.5729
  767MOL0     H 3500   4.158   1.577   1.710 -3.4987  1.2671  0.8786
  767MOL0     H 3501   4.424   1.614   1.758 -0.7570 -0.5502 -0.1548
  767MOL0     H 3502   4.371   1.656   1.919  0.7390  0.6782  0.7688
  767MOL0     H 3503   4.382   1.859   1.799  1.5518 -2.6222  0.6150
  767MOL0     H 3504   4.210   1.827   1.826  1.2509 -0.8904  1.5925
  767MOL0     H 3505   4.216   1.829   1.382 -0.4817 -1.3325  1.5633
  767MOL0     H 3506   4.122   2.067   1.150  0.2499  0.0360  0.8693
  767MOL0     H 3507   4.080   1.897   1.203 -1.3938 -0.3235 -0.4268
  767MOL0     H 3508   3.978   2.034   1.231  0.5661  0.9130 -4.2506
  767MOL0     H 3509   3.725   2.427   1.443 -2.6109  1.3576  0.8578
  767MOL0     H 3510   3.657   2.688   1.424 -0.2347  1.1726  0.8351
  767MOL0     H 3511   3.874   2.941   1.620  0.1440 -0.8201 -0.5706
  767MOL0     H 3512   3.980   2.996   1.476  1.2724  0.3797  0.4432
  767MOL0     H 3513   3.767   3.132   1.397 -3.1213 -0.9151 -0.8368
  767MOL0     H 3514   3.685   3.097   1.539 -0.6513 -0.3191 -1.9876
  767MOL0     H 3515   3.951   3.230   1.541  0.3492 -1.3030  0.5408
  767MOL0     H 3516   3.859   3.179   1.684  2.2157 -1.8053 -0.9755
  767MOL0     H 3517   3.772   3.390   1.478 -0.3946  0.8204  0.1088
  767MOL0     H 3518   3.668   3.327   1.611  0.8071  0.6621 -0.0226
  767MOL0     H 3519   3.923   3.492   1.632 -0.4405  0.8715  1.1530
  767MOL0     H 3520   3.827   3.425   1.771  0.5467 -0.0664 -0.6957
  767MOL0     H 3521   3.733   3.642   1.570  2.5053 -1.3186 -1.2807
  767MOL0     H 3522   3.643   3.600   1.706  0.1516 -1.1200  1.2109
  767MOL0     H 3523   3.928   3.719   1.735  0.0660 -0.0347  0.4697
  767MOL0     H 3524   3.808   3.695   1.855  2.1279 -3.6383 -1.3737
  767MOL0     H 3525   3.654   3.859   1.744  0.0656 -0.2935  0.0143
  767MOL0     H 3526   3.760   3.874   1.613 -1.7156  4.6665  0.8791
  767MOL0     H 3527   4.069   2.785   1.465  1.5623 -0.8741 -1.2541
  767MOL0     H 3528   4.127   2.544   1.476  0.1853 -0.4687 -1.1848
  767MOL0     H 3529   4.111   2.217   1.660 -0.2435  1.5112 -0.8747
  767MOL0     H 3530   4.220   2.038   1.757  2.9517 -1.0247 -0.4584
  767MOL0     H 3531   3.053   0.787   1.571 -0.4155  0.0005 -1.0622
  767MOL0     H 3532   2.831   0.860   1.552 -0.1146  0.1015  0.6902
  767MOL0     H 3533   2.558   1.229   1.063  0.5846 -0.4504  0.6497
  767MOL0     H 3534   2.327   1.314   1.082  1.7120  0.1061 -0.7131
  767MOL0     H 3535   2.170   1.443   1.168 -0.5517  0.2765 -0.2962
  767MOL0     H 3536   2.074   1.304   1.126  1.8015  0.7202 -1.5423
  767MOL0     H 3537   1.971   1.381   1.369  0.5544 -0.4240  1.1556
  767MOL0     H 3538   1.926   1.449   1.213  1.9456 -0.1587 -1.9380
  767MOL0     H 3539   1.969   1.617   1.391 -1.0654 -0.5752 -1.5380
  767MOL0     H 3540   2.072   1.650   1.256 -1.8165  2.0860  1.1876
  767MOL0     H 3541   2.262   1.520   1.388 -0.5522 -2.4743  1.3224
  767MOL0     H 3542   2.141   1.484   1.507  1.6224 -0.8820 -0.3660
  767MOL0     H 3543   2.250   1.904   1.558  1.4252 -0.7969  1.2497
  767MOL0     H 3544   2.302   1.155   1.485  1.2253 -0.3900  1.0062
  767MOL0     H 3545   2.530   1.086   1.468  3.6863 -0.0989 -1.6765
  768MOL0     O 3546   9.095   9.202  11.117 -0.0376 -0.1075  0.6234
  768MOL0     C 3547   9.179   9.145  11.188  0.3312 -0.0479  0.2286
  768MOL0     O 3548   9.154   9.087  11.311  0.3669  0.4915  0.1811
  768MOL0     C 3549   9.039   9.087  11.388  0.1598 -0.0377 -0.3166
  768MOL0     C 3550   9.042   8.991  11.501 -0.1598 -0.8633 -0.6531
  768MOL0     C 3551   8.933   9.002  11.593 -0.5227 -0.3866  0.5195
  768MOL0     C 3552   8.831   9.100  11.579  0.7161  0.0694 -0.9214
  768MOL0     O 3553   8.727   9.099  11.674 -0.7917  0.8587  0.1795
  768MOL0     C 3554   8.606   9.071  11.620  0.0648  0.5233  0.6987
  768MOL0     C 3555   8.553   8.944  11.692 -0.6221  0.4427 -0.5704
  768MOL0     C 3556   8.412   8.901  11.643 -0.6816  0.0966  0.1071
  768MOL0     C 3557   8.373   8.799  11.760  0.8876 -0.4605  0.4095
  768MOL0     C 3558   8.222   8.776  11.732  0.6274 -0.5098 -0.6522
  768MOL0     C 3559   8.143   8.896  11.780 -0.5805  0.0470 -0.5443
  768MOL0     C 3560   7.990   8.850  11.799  0.7643 -0.0623 -1.4161
  768MOL0     C 3561   7.908   8.970  11.833 -0.3129 -0.3506 -0.5292
  768MOL0     N 3562   7.772   8.925  11.866 -0.8284 -0.6357  0.0963
  768MOL0     C 3563   7.732   8.893  11.988  1.0503  0.1720  0.4917
  768MOL0     C 3564   7.614   8.836  11.971  0.4032  1.1671  0.2222
  768MOL0     C 3565   7.525   8.795  12.092 -0.3249 -1.1906  0.5409
  768MOL0     C 3566   7.408   8.887  12.107 -0.5983  0.3733 -1.1034
  768MOL0     C 3567   7.443   9.036  12.107  0.7492  0.5381 -0.4402
  768MOL0     C 3568   7.316   9.104  12.163  0.0457  0.2708  0.2451
  768MOL0     O 3569   7.213   9.127  12.058  0.0572  0.1825  0.2378
  768MOL0     C 3570   7.086   9.116  12.094 -0.3963  0.6386  0.2650
  768MOL0     C 3571   7.036   9.160  12.217 -0.5050  0.8339  0.5327
  768MOL0     C 3572   6.906   9.122  12.248  0.4461  0.9711  0.4875
  768MOL0     C 3573   6.853   9.173  12.384 -0.3770  0.4154 -0.2978
  768MOL0     C 3574   6.821   9.058  12.146  0.1292  0.2961 -0.1592
  768MOL0     C 3575   6.676   9.016  12.164 -1.0462  0.4341  0.3884
  768MOL0     O 3576   6.625   8.914  12.084 -0.4046 -0.2108 -0.2782
  768MOL0     C 3577   6.490   8.892  12.070  0.4276 -0.0707 -0.4260
  768MOL0     C 3578   6.445   8.779  11.997  0.9362 -0.2355 -0.5311
  768MOL0     C 3579   6.308   8.757  11.975 -0.4267  0.0364  0.0173
  768MOL0     C 3580   6.217   8.856  12.008 -0.1594 -0.4341  0.1484
  768MOL0     O 3581   6.080   8.841  11.966  0.3431  1.1091 -0.7527
  768MOL0     C 3582   6.032   8.708  11.982 -0.3961 -0.2016  0.4442
  768MOL0     C 3583   5.885   8.712  11.923 -0.6339 -0.5545 -0.1804
  768MOL0     C 3584   5.812   8.574  11.929 -0.0595 -0.0716 -0.6313
  768MOL0     C 3585   5.708   8.559  11.816 -0.8806 -0.4014 -0.9682
  768MOL0     C 3586   5.661   8.406  11.804 -0.1298 -0.1559  0.3490
  768MOL0     C 3587   5.532   8.384  11.876  0.6662  0.1272 -0.4129
  768MOL0     C 3588   5.460   8.257  11.833  0.5117  1.2480  0.8885
  768MOL0     C 3589   5.315   8.241  11.901 -0.0656 -0.3927  0.5786
  768MOL0    Cl 3590   5.322   8.137  12.042  0.3413  0.0371  0.1919
  768MOL0     C 3591   6.257   8.982  12.042  0.0148 -0.1513  0.3940
  768MOL0     C 3592   6.388   8.991  12.088 -0.8691  1.2330 -0.4892
  768MOL0     O 3593   6.610   9.073  12.255 -0.2856 -0.4101 -0.8664
  768MOL0     C 3594   6.876   9.019  12.026 -0.5146  0.7654  0.1686
  768MOL0     C 3595   7.007   9.053  11.999  0.0073 -0.2897 -0.5363
  768MOL0     N 3596   7.573   8.832  11.842 -0.4386  0.2980  0.6025
  768MOL0     N 3597   7.676   8.886  11.777  0.4682  0.1162  0.1520
  768MOL0     C 3598   8.834   9.188  11.469  0.1145  0.6572 -0.1578
  768MOL0     C 3599   8.940   9.181  11.377 -0.5333 -0.0074 -0.7819
  768MOL0     C 3600   9.311   9.118  11.124  0.7240  0.5796  0.4517
  768MOL0     C 3601   9.315   9.090  10.986  0.5604 -0.4428  0.2393
  768MOL0     C 3602   9.439   9.051  10.928 -0.6689  0.4440  0.1826
  768MOL0     C 3603   9.560   9.062  11.003 -0.0989 -0.5370 -0.2429
  768MOL0     O 3604   9.670   9.018  10.934 -0.0516  0.8779  0.5856
  768MOL0     C 3605   9.798   9.016  10.998 -0.7492 -0.5204  0.2303
  768MOL0     C 3606   9.861   9.157  10.998 -0.5275 -0.9585 -0.2581
  768MOL0     C 3607  10.018   9.159  10.994  0.0357 -0.3922 -0.3852
  768MOL0     C 3608  10.057   9.303  10.971 -0.5407 -0.0269 -0.3428
  768MOL0     C 3609  10.042   9.398  11.083  0.4922  0.2481 -0.7806
  768MOL0     C 3610  10.020   9.463  11.185 -0.4155 -0.2216  0.6944
  768MOL0     C 3611   9.557   9.120  11.130  0.5057  0.7802 -0.3701
  768MOL0     C 3612   9.435   9.137  11.193  0.2181 -0.3299 -0.0770
  768MOL0     H 3613   9.131   8.937  11.533  0.3247 -0.5805 -1.4994
  768MOL0     H 3614   8.935   8.942  11.683  4.4733  0.6101  1.3844
  768MOL0     H 3615   8.545   9.160  11.638  2.4870  2.4930 -0.3239
  768MOL0     H 3616   8.609   9.039  11.515  2.7350  1.6754  0.3549
  768MOL0     H 3617   8.633   8.871  11.678  1.4010  2.5575 -0.6814
  768MOL0     H 3618   8.553   8.970  11.798  0.4326 -4.0296  0.7102
  768MOL0     H 3619   8.365   8.998  11.629  3.3478  2.8137  2.9285
  768MOL0     H 3620   8.424   8.847  11.548  1.3602 -1.8596  1.3638
  768MOL0     H 3621   8.433   8.708  11.767 -0.6122 -1.3650  4.3721
  768MOL0     H 3622   8.373   8.849  11.857 -1.6823 -0.4649  0.4932
  768MOL0     H 3623   8.206   8.748  11.627  1.5878 -1.1262 -0.6530
  768MOL0     H 3624   8.183   8.691  11.789 -0.9060  0.1341 -0.6983
  768MOL0     H 3625   8.182   8.927  11.877  2.1809  0.6190 -1.7356
  768MOL0     H 3626   8.142   8.976  11.706  1.1816  1.8537  1.2628
  768MOL0     H 3627   7.946   8.802  11.711 -0.0818 -4.2493  1.0290
  768MOL0     H 3628   7.992   8.777  11.881  5.2221  1.3441 -0.0435
  768MOL0     H 3629   7.894   9.045  11.754 -5.8291  0.9857  1.2984
  768MOL0     H 3630   7.949   9.023  11.920 -0.7259 -0.6594 -0.1408
  768MOL0     H 3631   7.784   8.905  12.083 -0.7955 -1.7516  1.8275
  768MOL0     H 3632   7.487   8.692  12.094  0.0824 -1.3422  0.4100
  768MOL0     H 3633   7.575   8.809  12.188 -1.4837  1.2658  0.8612
  768MOL0     H 3634   7.369   8.848  12.201  1.0350 -0.1913 -0.6328
  768MOL0     H 3635   7.335   8.879  12.025 -2.9133  2.5921  0.5468
  768MOL0     H 3636   7.475   9.072  12.009 -0.7125  0.5732 -0.9232
  768MOL0     H 3637   7.518   9.031  12.187 -0.9362 -3.4849  1.1461
  768MOL0     H 3638   7.353   9.200  12.199 -0.6913  0.3292  0.8579
  768MOL0     H 3639   7.280   9.049  12.250  1.0407 -1.0415 -0.1482
  768MOL0     H 3640   7.107   9.208  12.284  0.0113  2.4027 -1.0688
  768MOL0     H 3641   6.770   9.241  12.362 -0.7752 -0.9533 -3.5389
  768MOL0     H 3642   6.810   9.089  12.441 -2.1819  1.9496  0.7187
  768MOL0     H 3643   6.933   9.228  12.434  0.6997 -0.5538 -0.8945
  768MOL0     H 3644   6.524   8.716  11.957  1.1393  0.9261 -2.0655
  768MOL0     H 3645   6.288   8.666  11.920 -0.0355  1.2310 -2.1963
  768MOL0     H 3646   6.086   8.638  11.918  1.5575  0.4839  1.2797
  768MOL0     H 3647   6.041   8.671  12.085  3.2160  2.1967  1.1684
  768MOL0     H 3648   5.831   8.784  11.986 -0.4658 -2.3177  2.1066
  768MOL0     H 3649   5.899   8.745  11.820  2.5433 -0.7085  0.1043
  768MOL0     H 3650   5.762   8.546  12.022  0.6107 -0.0024 -0.2425
  768MOL0     H 3651   5.897   8.510  11.903  0.6396  0.2954  0.6480
  768MOL0     H 3652   5.622   8.626  11.824 -1.0376 -0.4248 -2.2593
  768MOL0     H 3653   5.759   8.598  11.727  1.4791  2.9680  1.6033
  768MOL0     H 3654   5.745   8.349  11.846  0.2940 -1.1617 -1.7369
  768MOL0     H 3655   5.637   8.370  11.704 -0.8927 -0.2739  0.5654
  768MOL0     H 3656   5.548   8.380  11.984 -4.9982 -1.5041  0.7392
  768MOL0     H 3657   5.461   8.467  11.871 -0.5727 -0.6404  2.4659
  768MOL0     H 3658   5.505   8.159  11.850 -1.3779  0.6866  3.2547
  768MOL0     H 3659   5.457   8.263  11.724  2.6489  1.6064  0.8039
  768MOL0     H 3660   5.253   8.197  11.823  1.8964 -2.0149 -0.1386
  768MOL0     H 3661   5.272   8.341  11.917 -0.9576 -0.2732 -2.1504
  768MOL0     H 3662   6.191   9.068  12.035 -4.0064 -2.9735 -0.0025
  768MOL0     H 3663   6.415   9.091  12.121 -2.9104  1.3135  1.1518
  768MOL0     H 3664   6.820   8.976  11.944  0.3949  1.3180 -0.7659
  768MOL0     H 3665   7.055   9.014  11.909  1.4255 -1.3313  0.6286
  768MOL0     H 3666   8.754   9.259  11.457  0.3640  0.9674  0.0058
  768MOL0     H 3667   8.942   9.268  11.313  0.2765 -1.2053 -2.4697
  768MOL0     H 3668   9.227   9.075  10.923  1.7155  0.9412 -1.8053
  768MOL0     H 3669   9.445   9.026  10.822  0.3424  1.7333 -0.0875
  768MOL0     H 3670   9.783   8.985  11.102  0.4454  2.9555  1.5767
  768MOL0     H 3671   9.868   8.950  10.945 -2.0296 -1.6211 -0.1585
  768MOL0     H 3672   9.827   9.203  11.091  1.1402 -2.7367  1.3030
  768MOL0     H 3673   9.831   9.215  10.910  0.9770  2.4728  1.3033
  768MOL0     H 3674  10.051   9.101  10.907  2.2451  1.5484 -0.9784
  768MOL0     H 3675  10.060   9.112  11.083 -0.2878  0.6908  0.3692
  768MOL0     H 3676  10.009   9.346  10.882  1.8557 -1.6329 -2.5608
  768MOL0     H 3677  10.164   9.297  10.949 -0.7013 -1.2850 -0.8818
  768MOL0     H 3678   9.995   9.542  11.252  1.9402  0.2366  1.1224
  768MOL0     H 3679   9.646   9.133  11.190  0.0568 -0.6544  0.6433
  768MOL0     H 3680   9.428   9.159  11.299  0.5814  2.9608 -0.6235
  769MOL0     O 3681   5.218   5.480   3.977 -0.4117 -1.0897  0.0041
  769MOL0     C 3682   5.330   5.428   3.944 -0.1521 -0.4264 -0.0882
  769MOL0     O 3683   5.452   5.497   3.958 -0.0445  0.3070 -0.0620
  769MOL0     C 3684   5.461   5.621   4.025 -0.4503 -0.3364  0.5922
  769MOL0     C 3685   5.391   5.656   4.141 -0.2676 -0.0899  0.8840
  769MOL0     C 3686   5.412   5.783   4.201 -0.1121  0.0963  1.6394
  769MOL0     C 3687   5.516   5.865   4.161  0.0840 -0.0201 -0.2690
  769MOL0     O 3688   5.543   5.991   4.212 -0.1362 -0.4019  0.4731
  769MOL0     C 3689   5.439   6.080   4.236 -0.3150 -0.0840  0.4690
  769MOL0     C 3690   5.488   6.183   4.336 -0.1934 -0.6336 -0.5660
  769MOL0     C 3691   5.481   6.136   4.485  0.1367  0.3782  0.7001
  769MOL0     C 3692   5.386   6.194   4.577 -0.8248 -0.2676 -0.0979
  769MOL0     C 3693   5.362   6.114   4.708 -0.2006 -0.4634  1.0469
  769MOL0     C 3694   5.483   6.114   4.810  0.6686 -0.0290 -0.1099
  769MOL0     C 3695   5.563   5.985   4.787 -0.3844  0.5567  1.2030
  769MOL0     C 3696   5.688   5.992   4.858 -0.2649 -0.2900 -0.4248
  769MOL0     N 3697   5.777   5.872   4.846  0.0315 -0.2387 -0.1393
  769MOL0     C 3698   5.916   5.889   4.860 -0.3381 -0.0385 -0.5388
  769MOL0     C 3699   5.967   5.765   4.861 -0.2570 -0.2855  0.2013
  769MOL0     C 3700   6.116   5.728   4.849  0.0754  0.3364  0.5906
  769MOL0     C 3701   6.187   5.686   4.973 -0.0584  0.5749 -0.8084
  769MOL0     C 3702   6.248   5.804   5.058 -0.2719 -0.2368 -1.3658
  769MOL0     C 3703   6.293   5.763   5.194 -0.1045  0.4553  0.2299
  769MOL0     O 3704   6.408   5.683   5.175  0.1846  0.7541  0.5435
  769MOL0     C 3705   6.426   5.581   5.262  0.7107  0.4531 -0.8338
  769MOL0     C 3706   6.517   5.482   5.217 -0.4419 -0.5786 -0.6262
  769MOL0     C 3707   6.557   5.372   5.302 -0.3706 -0.0893 -0.5086
  769MOL0     C 3708   6.662   5.273   5.249  0.0238  0.5270 -0.5561
  769MOL0     C 3709   6.485   5.351   5.420 -0.5985  0.0185 -0.2307
  769MOL0     C 3710   6.495   5.236   5.522  0.3026  0.0447  0.3147
  769MOL0     O 3711   6.384   5.224   5.608 -0.0582  0.2115 -0.1773
  769MOL0     C 3712   6.354   5.132   5.700  0.4983  0.1215 -0.2162
  769MOL0     C 3713   6.232   5.152   5.768  0.3545 -0.9669  0.2721
  769MOL0     C 3714   6.182   5.077   5.875 -0.0037  0.1118 -0.0671
  769MOL0     C 3715   6.267   4.970   5.918  0.8262  0.7752 -0.7816
  769MOL0     O 3716   6.224   4.872   6.008  0.2380  0.4429 -0.4578
  769MOL0     C 3717   6.106   4.893   6.074  0.3508  0.0149  0.7013
  769MOL0     C 3718   6.062   4.775   6.159  0.1704  0.2329  0.8532
  769MOL0     C 3719   6.154   4.771   6.287 -0.1131  0.6854 -0.5418
  769MOL0     C 3720   6.128   4.646   6.387 -0.2962  0.6562  0.2577
  769MOL0     C 3721   6.218   4.643   6.506 -0.2302  0.6916 -0.7635
  769MOL0     C 3722   6.162   4.553   6.618 -0.2118  0.6059 -0.5656
  769MOL0     C 3723   6.221   4.563   6.753  0.9025  0.3834 -0.1254
  769MOL0     C 3724   6.147   4.508   6.883  0.6520 -0.3118 -0.8632
  769MOL0    Cl 3725   6.100   4.333   6.860  0.5286  0.0520  0.5358
  769MOL0     C 3726   6.390   4.957   5.849  0.7021  0.2073  0.0872
  769MOL0     C 3727   6.449   5.040   5.751  0.8073 -0.1516  0.4534
  769MOL0     O 3728   6.594   5.160   5.521 -0.1062 -0.2033  0.5628
  769MOL0     C 3729   6.396   5.452   5.469 -0.8246 -0.3151 -0.7033
  769MOL0     C 3730   6.360   5.557   5.384  1.7296  0.3130  0.4059
  769MOL0     N 3731   5.859   5.670   4.860  0.0373  0.4918  0.6182
  769MOL0     N 3732   5.749   5.739   4.842 -0.1141  0.3182 -0.2671
  769MOL0     C 3733   5.586   5.829   4.053 -0.5558  0.9333 -0.8610
  769MOL0     C 3734   5.564   5.712   3.987 -1.1083  0.1885 -0.3376
  769MOL0     C 3735   5.318   5.307   3.870 -1.1463 -0.0290  0.7986
  769MOL0     C 3736   5.191   5.265   3.818 -0.3633  0.7832 -0.3382
  769MOL0     C 3737   5.189   5.168   3.723  0.2268  0.2942  0.1800
  769MOL0     C 3738   5.307   5.119   3.674  0.0888 -0.0921 -0.3307
  769MOL0     O 3739   5.299   5.026   3.573 -0.1982  0.0739 -0.2639
  769MOL0     C 3740   5.413   4.935   3.555  0.4242  0.3854  0.3314
  769MOL0     C 3741   5.375   4.812   3.465 -0.2677 -0.0065  0.6949
  769MOL0     C 3742   5.378   4.856   3.324  0.4139  0.3097  0.8230
  769MOL0     C 3743   5.336   4.745   3.232 -0.1211  0.8071 -0.2452
  769MOL0     C 3744   5.436   4.636   3.218 -0.1721 -0.4706 -0.3800
  769MOL0     C 3745   5.524   4.561   3.189 -0.7423  0.5565  0.5614
  769MOL0     C 3746   5.426   5.155   3.731 -1.1022  0.1341  0.0636
  769MOL0     C 3747   5.440   5.244   3.831  0.5748  0.8216 -1.1747
  769MOL0     H 3748   5.322   5.584   4.184 -0.2261 -0.8853 -0.3211
  769MOL0     H 3749   5.359   5.800   4.294 -0.0412  2.3531  1.3167
  769MOL0     H 3750   5.420   6.131   4.141 -3.0621  2.3559  2.1731
  769MOL0     H 3751   5.344   6.035   4.265 -1.0861  1.5821  0.6490
  769MOL0     H 3752   5.590   6.216   4.313  0.8794 -1.8370  2.0559
  769MOL0     H 3753   5.430   6.276   4.326  1.4496  0.5309  0.2326
  769MOL0     H 3754   5.454   6.030   4.477 -1.9592  0.9204 -0.1297
  769MOL0     H 3755   5.587   6.136   4.513  0.5914  2.0638 -0.8752
  769MOL0     H 3756   5.415   6.299   4.590 -2.5854  0.3047 -0.5052
  769MOL0     H 3757   5.288   6.193   4.528 -1.0338 -3.1920  0.1634
  769MOL0     H 3758   5.277   6.161   4.758 -1.2539 -2.3322  1.0817
  769MOL0     H 3759   5.325   6.013   4.688  0.4771 -0.5709  0.2709
  769MOL0     H 3760   5.549   6.200   4.800 -1.7023  2.0912  1.2055
  769MOL0     H 3761   5.445   6.122   4.913 -0.5429 -1.3344 -0.4236
  769MOL0     H 3762   5.512   5.891   4.807  0.0803  0.0408  0.0632
  769MOL0     H 3763   5.596   5.988   4.683  1.7051  2.7215  1.8176
  769MOL0     H 3764   5.663   6.023   4.960  0.9535  0.4852 -0.3360
  769MOL0     H 3765   5.748   6.076   4.823 -4.0078  2.1046 -1.6544
  769MOL0     H 3766   5.966   5.985   4.857  0.0248 -0.2409 -1.0866
  769MOL0     H 3767   6.128   5.659   4.765 -1.6752  0.8516 -0.1320
  769MOL0     H 3768   6.156   5.815   4.796 -1.6894 -1.2888 -3.9365
  769MOL0     H 3769   6.270   5.628   4.931 -0.4704  0.9752 -2.2176
  769MOL0     H 3770   6.124   5.623   5.036  1.3148 -0.3998 -0.3449
  769MOL0     H 3771   6.166   5.875   5.075 -2.7497 -2.6849 -2.2743
  769MOL0     H 3772   6.334   5.847   5.007  0.3022  0.3005 -0.0008
  769MOL0     H 3773   6.212   5.713   5.247 -1.3664  2.6011  0.4308
  769MOL0     H 3774   6.324   5.856   5.241 -0.4545  2.4051 -3.0848
  769MOL0     H 3775   6.561   5.490   5.118  1.4702 -0.4960  0.1895
  769MOL0     H 3776   6.667   5.273   5.140  0.1256  0.1466 -0.5498
  769MOL0     H 3777   6.756   5.318   5.283 -0.8666  0.7018  1.9100
  769MOL0     H 3778   6.654   5.173   5.292  0.4416  0.7359  0.0228
  769MOL0     H 3779   6.181   5.244   5.742  2.7978  0.2403 -0.5976
  769MOL0     H 3780   6.084   5.108   5.909 -1.4670  0.2902 -3.9884
  769MOL0     H 3781   6.100   4.985   6.133 -0.0881 -0.8845  2.0983
  769MOL0     H 3782   6.030   4.902   5.996 -1.1455 -5.0761  1.2108
  769MOL0     H 3783   5.958   4.786   6.192 -0.0741 -0.5670  0.3775
  769MOL0     H 3784   6.058   4.690   6.091  0.1831 -0.8812  2.1885
  769MOL0     H 3785   6.139   4.865   6.341 -0.4088  0.9269 -1.0341
  769MOL0     H 3786   6.255   4.775   6.245  0.9713 -3.8659  1.0572
  769MOL0     H 3787   6.030   4.648   6.435  0.3016 -1.1434  1.6698
  769MOL0     H 3788   6.132   4.548   6.337 -1.1754  1.4438 -1.4671
  769MOL0     H 3789   6.231   4.749   6.531 -1.0155  0.7525 -0.6012
  769MOL0     H 3790   6.316   4.606   6.472  0.5140  2.7381 -1.0210
  769MOL0     H 3791   6.057   4.579   6.634 -0.6549 -0.4873 -1.5172
  769MOL0     H 3792   6.167   4.446   6.593  2.4438 -0.2093  2.6930
  769MOL0     H 3793   6.248   4.668   6.767 -1.5473  1.3704 -2.0452
  769MOL0     H 3794   6.315   4.508   6.750 -0.2074 -1.5793 -1.9190
  769MOL0     H 3795   6.054   4.559   6.910  0.6732 -1.8897  2.6158
  769MOL0     H 3796   6.213   4.523   6.969 -0.6878 -2.3846  0.6213
  769MOL0     H 3797   6.455   4.881   5.892  1.5639 -1.0853 -3.1889
  769MOL0     H 3798   6.546   5.014   5.710  0.5486 -0.4697  0.0288
  769MOL0     H 3799   6.344   5.447   5.564  0.1490 -2.3550 -0.2097
  769MOL0     H 3800   6.287   5.625   5.426  0.8269 -0.7579  0.6185
  769MOL0     H 3801   5.654   5.904   4.014  1.5190  1.0475  2.5823
  769MOL0     H 3802   5.628   5.699   3.899  1.0521  2.3332  0.7934
  769MOL0     H 3803   5.103   5.314   3.858 -0.4175 -0.3417  1.0155
  769MOL0     H 3804   5.100   5.133   3.673  1.4455 -1.2726 -0.9723
  769MOL0     H 3805   5.502   4.993   3.528  1.3443 -0.1444  2.0986
  769MOL0     H 3806   5.438   4.895   3.654 -1.6096  0.4370  0.8994
  769MOL0     H 3807   5.284   4.755   3.485 -0.4031 -1.3231 -2.9245
  769MOL0     H 3808   5.455   4.737   3.470 -0.2653  0.0526  1.6428
  769MOL0     H 3809   5.479   4.886   3.295  0.2020 -1.1566 -1.6944
  769MOL0     H 3810   5.298   4.929   3.307 -1.5777 -1.6265  1.4210
  769MOL0     H 3811   5.321   4.787   3.132 -1.8093  1.5135  0.2721
  769MOL0     H 3812   5.238   4.713   3.268  0.7351 -0.1223  1.3871
  769MOL0     H 3813   5.598   4.485   3.178 -2.0349 -0.5146 -1.6845
  769MOL0     H 3814   5.520   5.116   3.696 -1.0196  1.3565 -1.1718
  769MOL0     H 3815   5.534   5.271   3.877 -0.3160  0.6694  0.8398
  770MOL0     O 3816   0.387   0.725   9.564  0.3610  0.1743  0.0589
  770MOL0     C 3817   0.487   0.688   9.502  0.3321 -0.0419 -0.3576
  770MOL0     O 3818   0.513   0.555   9.477  0.6456  0.3871  0.0168
  770MOL0     C 3819   0.422   0.462   9.539  0.1791 -0.5462  0.7832
  770MOL0     C 3820   0.452   0.388   9.645  0.6766 -0.1101 -0.8368
  770MOL0     C 3821   0.366   0.308   9.726  0.3823 -0.3704 -0.2690
  770MOL0     C 3822   0.235   0.301   9.671  0.1681  0.1477  0.5550
  770MOL0     O 3823   0.137   0.215   9.726  0.3825  0.3912  0.1890
  770MOL0     C 3824   0.187   0.100   9.778  0.1780  0.9727  0.0374
  770MOL0     C 3825   0.064   0.013   9.817  0.5303 -0.3950  0.5410
  770MOL0     C 3826  -0.009  -0.057   9.705  0.0678 -0.3991  0.0332
  770MOL0     C 3827  -0.129  -0.134   9.758  0.4379  0.5453 -0.3581
  770MOL0     C 3828  -0.200  -0.192   9.644  0.3632 -0.0037 -0.2608
  770MOL0     C 3829  -0.336  -0.262   9.688 -0.2390 -0.7332 -0.1877
  770MOL0     C 3830  -0.332  -0.368   9.812 -1.0179 -0.6029 -0.4224
  770MOL0     C 3831  -0.448  -0.471   9.792 -1.4893  0.4260  0.3370
  770MOL0     N 3832  -0.579  -0.417   9.820 -0.2053 -0.6190 -0.4763
  770MOL0     C 3833  -0.608  -0.352   9.941 -0.2018  0.3873 -0.1386
  770MOL0     C 3834  -0.725  -0.286   9.926  0.4225  0.4534 -0.0910
  770MOL0     C 3835  -0.780  -0.196  10.022 -0.4246  0.6677 -0.3885
  770MOL0     C 3836  -0.754  -0.235  10.172  0.8751 -0.2746 -0.0905
  770MOL0     C 3837  -0.822  -0.130  10.247 -0.3043 -0.3985 -0.8953
  770MOL0     C 3838  -0.799  -0.171  10.390  0.4568  0.0514  0.3923
  770MOL0     O 3839  -0.883  -0.278  10.429 -0.3388  0.9288  0.6285
  770MOL0     C 3840  -0.886  -0.309  10.558 -1.1934  0.3261 -0.9137
  770MOL0     C 3841  -0.951  -0.427  10.587 -1.3912 -0.4956 -0.3577
  770MOL0     C 3842  -0.968  -0.476  10.720 -0.7750 -0.7505 -0.1900
  770MOL0     C 3843  -1.016  -0.621  10.734  0.1349  0.3913  0.0832
  770MOL0     C 3844  -0.910  -0.403  10.826 -0.6790 -0.0141  0.6267
  770MOL0     C 3845  -0.925  -0.444  10.974  0.9032 -0.2270  0.2877
  770MOL0     O 3846  -0.907  -0.339  11.066  0.7386  0.1804  1.0755
  770MOL0     C 3847  -0.907  -0.355  11.202  0.9138 -0.5274  0.0064
  770MOL0     C 3848  -0.990  -0.442  11.273  0.0442  0.0297 -0.3570
  770MOL0     C 3849  -1.003  -0.451  11.414 -0.8207 -0.5689  0.4834
  770MOL0     C 3850  -0.931  -0.356  11.490 -0.1764  0.7186 -0.2306
  770MOL0     O 3851  -0.928  -0.340  11.624  0.2500  0.8273  0.9242
  770MOL0     C 3852  -0.992  -0.438  11.712 -0.1898  0.3085 -0.7129
  770MOL0     C 3853  -1.140  -0.412  11.727  0.0381  0.7061  0.2851
  770MOL0     C 3854  -1.151  -0.267  11.775 -0.1966 -0.9723 -0.3110
  770MOL0     C 3855  -1.279  -0.230  11.859  0.0422 -0.2646  0.8367
  770MOL0     C 3856  -1.291  -0.085  11.867 -0.5789 -1.2265  0.3499
  770MOL0     C 3857  -1.430  -0.035  11.910 -0.1978  0.2831 -0.5929
  770MOL0     C 3858  -1.443   0.109  11.963 -0.7141 -0.8898 -1.0579
  770MOL0     C 3859  -1.357   0.199  11.872 -0.2447  0.0770 -0.9362
  770MOL0    Cl 3860  -1.421   0.230  11.715 -0.1733  0.3012  0.3592
  770MOL0     C 3861  -0.842  -0.267  11.421 -0.2469  0.0413 -0.2846
  770MOL0     C 3862  -0.834  -0.261  11.279  0.9399 -0.1753 -0.3022
  770MOL0     O 3863  -0.921  -0.561  11.001  0.0586  0.3460  0.7060
  770MOL0     C 3864  -0.844  -0.277  10.792  1.0386 -0.0818 -1.1240
  770MOL0     C 3865  -0.830  -0.234  10.662 -0.3673  0.5202 -0.0880
  770MOL0     N 3866  -0.769  -0.294   9.797  0.0636  0.3588 -0.9311
  770MOL0     N 3867  -0.685  -0.376   9.740 -0.0055 -0.2624 -0.0264
  770MOL0     C 3868   0.194   0.366   9.553 -0.1404 -0.7473 -0.0529
  770MOL0     C 3869   0.288   0.441   9.486 -0.3232 -0.2597 -0.8455
  770MOL0     C 3870   0.573   0.799   9.445 -0.5670  0.8990  0.1866
  770MOL0     C 3871   0.546   0.929   9.447 -0.6536 -0.5369  0.0753
  770MOL0     C 3872   0.646   1.022   9.410  0.0465 -0.1727 -0.9005
  770MOL0     C 3873   0.758   0.979   9.350  0.1788 -0.2190  0.1982
  770MOL0     O 3874   0.862   1.063   9.296  0.3324 -0.1697 -0.0792
  770MOL0     C 3875   0.944   1.118   9.398 -0.7933  0.1946 -0.4255
  770MOL0     C 3876   1.056   1.194   9.325 -0.4072  0.1368  0.1776
  770MOL0     C 3877   1.016   1.328   9.248  0.1521  0.4115 -1.0817
  770MOL0     C 3878   1.132   1.410   9.190  0.1803  0.2329  1.2896
  770MOL0     C 3879   1.250   1.437   9.269  0.6650 -0.4365  1.0917
  770MOL0     C 3880   1.350   1.476   9.331 -0.1605 -0.2018 -0.3145
  770MOL0     C 3881   0.777   0.844   9.328  0.3449  0.6578  0.0597
  770MOL0     C 3882   0.694   0.750   9.384 -0.2016 -0.2855 -0.0402
  770MOL0     H 3883   0.551   0.417   9.679 -0.8205  2.2723  1.8473
  770MOL0     H 3884   0.393   0.271   9.824  1.8947 -0.9401 -0.8736
  770MOL0     H 3885   0.256   0.041   9.716  0.2247  0.9177  0.1429
  770MOL0     H 3886   0.242   0.123   9.869 -0.9683  1.4037  0.6394
  770MOL0     H 3887   0.107  -0.064   9.881  0.3878 -1.3783 -0.5289
  770MOL0     H 3888  -0.012   0.068   9.874 -1.3891 -0.4360 -1.8149
  770MOL0     H 3889  -0.040   0.026   9.641 -0.4436  0.1675  1.0013
  770MOL0     H 3890   0.048  -0.134   9.652  2.1990  0.1300  1.4104
  770MOL0     H 3891  -0.111  -0.208   9.837  2.6685 -0.9032 -2.1153
  770MOL0     H 3892  -0.191  -0.052   9.795  0.8243  0.2500  1.0085
  770MOL0     H 3893  -0.218  -0.120   9.563  3.7833 -1.3416 -2.4620
  770MOL0     H 3894  -0.130  -0.265   9.604  2.9331  2.0471  0.2238
  770MOL0     H 3895  -0.413  -0.184   9.697  0.9434  0.5981 -1.1500
  770MOL0     H 3896  -0.369  -0.322   9.602 -0.8209 -1.9766  0.8646
  770MOL0     H 3897  -0.231  -0.410   9.803 -0.7628  0.3561 -2.7277
  770MOL0     H 3898  -0.329  -0.311   9.906 -0.5400  3.0926 -2.4938
  770MOL0     H 3899  -0.429  -0.552   9.863  0.6778  0.0530 -0.6081
  770MOL0     H 3900  -0.444  -0.522   9.695 -1.8966 -2.8394  1.9217
  770MOL0     H 3901  -0.537  -0.352  10.023 -0.0388 -1.2530 -0.2600
  770MOL0     H 3902  -0.754  -0.092  10.002 -2.0465  1.2504  0.3063
  770MOL0     H 3903  -0.888  -0.190  10.006 -1.1508 -1.4506  2.7798
  770MOL0     H 3904  -0.648  -0.240  10.199 -0.1216  0.9119  5.1843
  770MOL0     H 3905  -0.783  -0.339  10.184  1.3765 -0.5320 -1.0228
  770MOL0     H 3906  -0.928  -0.130  10.220 -0.0321 -0.4005 -1.9939
  770MOL0     H 3907  -0.782  -0.030  10.228 -0.2793  0.3497  2.3969
  770MOL0     H 3908  -0.821  -0.078  10.444  2.0353  0.0900  1.0262
  770MOL0     H 3909  -0.691  -0.186  10.401  0.5823 -0.1318 -0.9743
  770MOL0     H 3910  -0.972  -0.486  10.498 -3.6120 -1.3488  0.6514
  770MOL0     H 3911  -0.923  -0.665  10.773 -0.1282  1.9551  2.6782
  770MOL0     H 3912  -1.094  -0.641  10.807  1.0421 -3.9307  0.1848
  770MOL0     H 3913  -1.045  -0.655  10.634 -1.4632  0.5675  0.4620
  770MOL0     H 3914  -1.056  -0.501  11.210  2.7645 -2.2008 -1.2889
  770MOL0     H 3915  -1.070  -0.522  11.462 -3.3158 -0.0366 -1.9980
  770MOL0     H 3916  -0.983  -0.540  11.672 -1.8189  1.3472 -4.0221
  770MOL0     H 3917  -0.958  -0.443  11.816  0.1628 -4.9592 -0.7747
  770MOL0     H 3918  -1.198  -0.435  11.637  1.8311 -0.2164 -0.7102
  770MOL0     H 3919  -1.166  -0.479  11.810 -0.1785 -3.6802 -2.9138
  770MOL0     H 3920  -1.143  -0.201  11.688 -0.6266 -0.7910 -0.2138
  770MOL0     H 3921  -1.072  -0.250  11.849  1.6523  0.9540 -2.5464
  770MOL0     H 3922  -1.365  -0.271  11.806 -2.0944 -0.3848  4.0967
  770MOL0     H 3923  -1.266  -0.270  11.960  0.1055  0.3876  1.0928
  770MOL0     H 3924  -1.259  -0.034  11.776 -1.9987  1.3165  1.1418
  770MOL0     H 3925  -1.224  -0.052  11.947 -0.1265  0.2463 -0.5883
  770MOL0     H 3926  -1.502  -0.059  11.831  1.7230 -2.8363 -1.5502
  770MOL0     H 3927  -1.461  -0.101  11.991  2.1221 -1.3321 -0.9410
  770MOL0     H 3928  -1.391   0.113  12.059 -1.1175 -2.9072 -0.7165
  770MOL0     H 3929  -1.548   0.138  11.971 -0.9640 -2.2312  1.2378
  770MOL0     H 3930  -1.249   0.179  11.866 -0.4358 -0.7668 -1.5822
  770MOL0     H 3931  -1.356   0.291  11.932  1.1683  1.5568 -3.0479
  770MOL0     H 3932  -0.793  -0.192  11.481  1.0655  0.4173 -1.7666
  770MOL0     H 3933  -0.775  -0.183  11.233 -0.7895  3.6926  3.3327
  770MOL0     H 3934  -0.812  -0.207  10.868  3.3052  2.0945 -3.8511
  770MOL0     H 3935  -0.781  -0.139  10.646 -1.4254  1.1245  0.1931
  770MOL0     H 3936   0.095   0.336   9.519  0.3264 -1.8348 -0.4944
  770MOL0     H 3937   0.261   0.490   9.393  1.1361  1.2863 -0.5033
  770MOL0     H 3938   0.460   0.970   9.499 -0.8594 -1.2506  0.2975
  770MOL0     H 3939   0.630   1.129   9.413  3.5206  0.5090 -1.8204
  770MOL0     H 3940   0.880   1.179   9.462  0.2852 -0.0645  0.9558
  770MOL0     H 3941   0.992   1.035   9.451 -3.3635 -0.3687  1.2357
  770MOL0     H 3942   1.102   1.128   9.251  1.8176  2.7398 -0.9815
  770MOL0     H 3943   1.130   1.205   9.405 -0.8077 -3.3369  1.1856
  770MOL0     H 3944   0.954   1.389   9.314 -0.9702 -0.5635 -1.2078
  770MOL0     H 3945   0.958   1.298   9.160 -2.7210 -2.1122  1.4478
  770MOL0     H 3946   1.092   1.503   9.148  1.7638  1.3456  2.1399
  770MOL0     H 3947   1.170   1.369   9.096 -1.8636  1.3427 -0.0951
  770MOL0     H 3948   1.448   1.496   9.370  0.6576 -4.2827  0.1959
  770MOL0     H 3949   0.864   0.809   9.272  0.8114 -0.5861  1.4985
  770MOL0     H 3950   0.706   0.642   9.379  2.0955 -0.0114 -1.8129
  771MOL0     O 3951  10.227   7.354   7.951  0.2409 -0.5576 -0.5379
  771MOL0     C 3952  10.313   7.407   8.024 -0.1402  0.4491 -0.0286
  771MOL0     O 3953  10.387   7.343   8.114 -0.0947  0.7348  0.9213
  771MOL0     C 3954  10.370   7.207   8.127 -0.6588  0.2950 -0.4898
  771MOL0     C 3955  10.295   7.156   8.241 -0.0057  0.3437  1.4847
  771MOL0     C 3956  10.307   7.018   8.274  0.2192 -0.2954 -0.1318
  771MOL0     C 3957  10.366   6.927   8.187 -0.9527 -0.6148  0.0987
  771MOL0     O 3958  10.373   6.791   8.217 -0.3508 -0.1463  0.6732
  771MOL0     C 3959  10.244   6.729   8.252 -0.4117  0.4998  0.4945
  771MOL0     C 3960  10.247   6.578   8.226  0.1387 -0.3476  0.1674
  771MOL0     C 3961  10.346   6.512   8.326 -0.8401  0.1841 -1.2929
  771MOL0     C 3962  10.352   6.358   8.321 -0.3128 -0.2229 -0.2293
  771MOL0     C 3963  10.437   6.299   8.436 -0.9511 -0.1904  0.0649
  771MOL0     C 3964  10.359   6.252   8.563  0.2172  0.3455 -1.0408
  771MOL0     C 3965  10.313   6.108   8.552 -0.3175 -0.1121  0.0407
  771MOL0     C 3966  10.241   6.039   8.661  0.1557  0.1569 -0.0433
  771MOL0     N 3967  10.100   6.082   8.661 -0.1780 -0.2695  0.1146
  771MOL0     C 3968   9.999   6.018   8.592 -0.4868  0.4085  0.3255
  771MOL0     C 3969   9.889   6.081   8.635 -0.6204 -1.0265 -0.3067
  771MOL0     C 3970   9.753   6.059   8.573 -0.8622  0.3318 -0.0315
  771MOL0     C 3971   9.646   6.024   8.675 -0.9317  0.0208 -0.1096
  771MOL0     C 3972   9.683   5.911   8.773 -0.4357 -0.5807 -0.7347
  771MOL0     C 3973   9.701   5.971   8.919 -0.2380  0.0162  0.7492
  771MOL0     O 3974   9.587   6.019   8.976  0.4305  0.7444  1.1853
  771MOL0     C 3975   9.603   6.053   9.103 -0.7172  0.2728 -0.2880
  771MOL0     C 3976   9.689   6.011   9.208  1.2476 -0.4184 -0.2906
  771MOL0     C 3977   9.659   6.046   9.341 -0.2525 -0.9578 -0.4040
  771MOL0     C 3978   9.761   6.003   9.461  0.1691  0.1067 -0.0744
  771MOL0     C 3979   9.554   6.128   9.371 -0.2178 -0.8596  0.4568
  771MOL0     C 3980   9.529   6.180   9.505 -0.2319 -0.4630 -1.2060
  771MOL0     O 3981   9.401   6.173   9.546 -0.2526 -0.2854 -0.3741
  771MOL0     C 3982   9.368   6.235   9.669 -0.1046  0.0578 -0.1925
  771MOL0     C 3983   9.299   6.356   9.662 -0.3734  1.0418  1.1114
  771MOL0     C 3984   9.265   6.424   9.777 -0.5245 -0.1197 -0.2392
  771MOL0     C 3985   9.295   6.370   9.908 -0.3517  0.4954  0.5665
  771MOL0     O 3986   9.235   6.429  10.012 -0.2040 -0.0554  0.0026
  771MOL0     C 3987   9.301   6.417  10.142  0.5240 -0.1649 -0.0316
  771MOL0     C 3988   9.190   6.469  10.236 -0.5281 -0.2590  0.9053
  771MOL0     C 3989   9.208   6.454  10.380  0.3016 -0.9303  0.0657
  771MOL0     C 3990   9.258   6.583  10.444 -0.0943  0.0619 -0.2534
  771MOL0     C 3991   9.270   6.594  10.591 -0.6998  0.6578 -0.0649
  771MOL0     C 3992   9.349   6.724  10.642 -0.4470 -0.2630  0.3304
  771MOL0     C 3993   9.364   6.721  10.787 -0.1401  0.2334  0.4115
  771MOL0     C 3994   9.244   6.768  10.861  1.2161  0.3909 -0.7511
  771MOL0    Cl 3995   9.298   6.798  11.035 -0.3449  0.2311  0.3912
  771MOL0     C 3996   9.358   6.242   9.912 -0.2984 -0.3860  1.1828
  771MOL0     C 3997   9.392   6.171   9.794  0.6762 -1.5258 -0.4916
  771MOL0     O 3998   9.625   6.234   9.565 -0.0004  0.1733  0.4852
  771MOL0     C 3999   9.475   6.177   9.268  0.1928  0.2700 -0.6408
  771MOL0     C 4000   9.491   6.133   9.142  0.0123  0.2055  0.9348
  771MOL0     N 4001   9.920   6.188   8.720  0.0426  0.2593  0.1508
  771MOL0     N 4002  10.049   6.189   8.732 -0.7445 -0.1724 -0.4440
  771MOL0     C 4003  10.425   6.978   8.071  0.5544  0.7357 -0.0705
  771MOL0     C 4004  10.432   7.114   8.045  0.5578 -1.0496  1.4179
  771MOL0     C 4005  10.327   7.552   8.011  0.0486 -0.2175 -0.3361
  771MOL0     C 4006  10.356   7.631   8.122 -0.2219  0.1099 -0.7409
  771MOL0     C 4007  10.362   7.772   8.108  0.4003  0.6547  0.8297
  771MOL0     C 4008  10.326   7.838   7.993  0.3011  1.0889 -0.2350
  771MOL0     O 4009  10.314   7.973   8.015  0.3517 -0.6563  0.2741
  771MOL0     C 4010  10.246   8.058   7.916  0.3036  0.1466  0.0214
  771MOL0     C 4011  10.089   8.040   7.907 -1.0370 -0.2935  0.3717
  771MOL0     C 4012  10.015   8.105   8.019  0.2097 -1.1661 -0.4287
  771MOL0     C 4013   9.876   8.145   7.976 -0.5229  0.0996 -0.1163
  771MOL0     C 4014   9.803   8.194   8.089  0.1751 -0.0669  0.3661
  771MOL0     C 4015   9.773   8.228   8.199 -0.0329 -0.6946 -0.2131
  771MOL0     C 4016  10.298   7.764   7.887 -0.7125 -0.6463  0.3849
  771MOL0     C 4017  10.292   7.622   7.892  0.5633  0.0846  0.1541
  771MOL0     H 4018  10.238   7.220   8.308  0.8808  4.3480 -1.1936
  771MOL0     H 4019  10.268   6.971   8.363 -2.7556 -0.4927 -1.4385
  771MOL0     H 4020  10.230   6.763   8.355  0.8118  2.9599 -0.0633
  771MOL0     H 4021  10.166   6.767   8.187 -0.9538  0.4420  1.1012
  771MOL0     H 4022  10.147   6.535   8.237 -0.4692  0.8643 -0.4298
  771MOL0     H 4023  10.278   6.561   8.123 -1.6448 -2.5480 -0.0821
  771MOL0     H 4024  10.450   6.535   8.299 -0.6938 -2.0453 -2.8604
  771MOL0     H 4025  10.327   6.536   8.431  0.6338 -1.2840 -0.6455
  771MOL0     H 4026  10.256   6.309   8.309 -0.0443 -0.8791  0.2693
  771MOL0     H 4027  10.417   6.348   8.234  0.6245 -0.4485  0.4784
  771MOL0     H 4028  10.481   6.206   8.398  0.4642  0.0604  1.0390
  771MOL0     H 4029  10.522   6.366   8.451 -0.5787 -0.0388 -2.3391
  771MOL0     H 4030  10.423   6.258   8.652 -0.7313  1.3175 -0.3992
  771MOL0     H 4031  10.273   6.314   8.588  0.6885 -0.4333  3.3654
  771MOL0     H 4032  10.248   6.103   8.464  0.2675  0.5906 -0.4487
  771MOL0     H 4033  10.408   6.057   8.534  1.6190  3.1072  0.3869
  771MOL0     H 4034  10.291   6.066   8.755 -0.2818  2.6925 -0.4636
  771MOL0     H 4035  10.250   5.933   8.639  0.1193 -0.1920  1.4811
  771MOL0     H 4036   9.991   5.937   8.519  0.3412  1.8144 -1.4007
  771MOL0     H 4037   9.722   6.149   8.520  0.9196 -0.2717 -2.2577
  771MOL0     H 4038   9.755   5.979   8.499 -1.2639  0.6146 -0.3493
  771MOL0     H 4039   9.552   5.998   8.627 -1.3902  0.5101  0.5101
  771MOL0     H 4040   9.621   6.115   8.730 -0.6031  0.7149 -1.0882
  771MOL0     H 4041   9.769   5.853   8.739 -1.8429 -3.2427 -0.0154
  771MOL0     H 4042   9.597   5.844   8.782 -0.5783 -0.1333  2.3119
  771MOL0     H 4043   9.776   6.051   8.912 -1.2539  0.9500  0.2888
  771MOL0     H 4044   9.745   5.889   8.977 -0.1600  0.7003  1.6819
  771MOL0     H 4045   9.769   5.943   9.180  0.4840 -0.8180 -1.5958
  771MOL0     H 4046   9.704   5.975   9.549  1.0694  0.3212  0.5892
  771MOL0     H 4047   9.813   5.915   9.423 -1.4442 -0.2477 -1.6113
  771MOL0     H 4048   9.824   6.087   9.491 -1.0631  1.5313 -1.3020
  771MOL0     H 4049   9.277   6.399   9.564  0.0348 -1.1137 -0.0051
  771MOL0     H 4050   9.206   6.515   9.768 -0.0687  0.3344  1.0395
  771MOL0     H 4051   9.340   6.318  10.165  1.0619  0.4647  1.9880
  771MOL0     H 4052   9.384   6.489  10.148 -0.7998  1.2861  2.4143
  771MOL0     H 4053   9.181   6.574  10.206 -2.0861 -0.7472 -0.5090
  771MOL0     H 4054   9.096   6.415  10.219  1.1396 -2.9278 -0.5006
  771MOL0     H 4055   9.274   6.367  10.390 -0.8721 -2.2682 -2.6551
  771MOL0     H 4056   9.110   6.422  10.419  0.6878 -1.5307  0.5657
  771MOL0     H 4057   9.357   6.597  10.400 -0.0409  0.4135 -0.0189
  771MOL0     H 4058   9.208   6.674  10.409  1.6542  2.2233  2.5049
  771MOL0     H 4059   9.323   6.503  10.623 -1.2582 -0.3252 -1.8049
  771MOL0     H 4060   9.173   6.583  10.639  0.3146 -2.8655  1.5449
  771MOL0     H 4061   9.454   6.722  10.610  0.0072  0.3011  1.7085
  771MOL0     H 4062   9.309   6.821  10.612 -0.3715 -0.0578  0.8817
  771MOL0     H 4063   9.445   6.790  10.809  1.6592 -1.5570 -0.2800
  771MOL0     H 4064   9.387   6.622  10.827 -3.1840 -0.9630 -0.4211
  771MOL0     H 4065   9.170   6.688  10.855  2.2546 -0.5831 -0.8661
  771MOL0     H 4066   9.212   6.865  10.822 -1.2903  0.8206  1.9562
  771MOL0     H 4067   9.393   6.192  10.001  1.4689 -0.1763  0.6434
  771MOL0     H 4068   9.426   6.068   9.795  0.4441 -1.6106  1.1720
  771MOL0     H 4069   9.379   6.226   9.284 -1.5610 -1.5221 -4.4671
  771MOL0     H 4070   9.412   6.139   9.068  0.1078 -0.2249  0.7980
  771MOL0     H 4071  10.471   6.901   8.010  2.3554  0.4733  1.5406
  771MOL0     H 4072  10.491   7.132   7.956  0.3974  1.2405  1.7079
  771MOL0     H 4073  10.380   7.587   8.219  2.1987 -0.6079 -1.5869
  771MOL0     H 4074  10.384   7.835   8.193  0.5526  1.9449 -0.1380
  771MOL0     H 4075  10.260   8.164   7.939 -0.3811  0.7365 -2.0809
  771MOL0     H 4076  10.300   8.045   7.822 -0.7377 -1.1709 -0.4240
  771MOL0     H 4077  10.069   7.933   7.907  1.0860 -0.7933  2.6730
  771MOL0     H 4078  10.065   8.079   7.808  0.2920  1.5032  0.6979
  771MOL0     H 4079  10.068   8.198   8.040 -2.5239  0.3934  0.0160
  771MOL0     H 4080  10.015   8.058   8.118  3.6270  1.9035  1.2755
  771MOL0     H 4081   9.835   8.067   7.912 -1.1147  1.3242 -1.2984
  771MOL0     H 4082   9.877   8.234   7.912  1.1322  0.6780  0.6643
  771MOL0     H 4083   9.721   8.265   8.285 -0.5856  0.1016 -0.8720
  771MOL0     H 4084  10.269   7.821   7.799  1.5488  3.2958  1.9532
  771MOL0     H 4085  10.266   7.571   7.800 -0.8559 -0.4034  0.8019
  772MOL0     O 4086  11.077   1.242  10.868 -0.0395 -0.0116  0.1762
  772MOL0     C 4087  11.161   1.161  10.821  0.2638  0.6408 -0.1608
  772MOL0     O 4088  11.133   1.042  10.757 -0.4438 -0.7969 -0.6439
  772MOL0     C 4089  11.005   0.998  10.735  0.5286 -1.0697  0.1164
  772MOL0     C 4090  10.973   0.954  10.601 -0.4150  0.0999 -0.2029
  772MOL0     C 4091  10.845   0.897  10.574 -0.3748  0.1144  0.3587
  772MOL0     C 4092  10.754   0.867  10.677 -1.7124 -0.7656 -0.0006
  772MOL0     O 4093  10.629   0.821  10.651  0.1632  0.7611  0.1943
  772MOL0     C 4094  10.619   0.728  10.547  0.8512  0.8972 -0.1404
  772MOL0     C 4095  10.485   0.646  10.547 -0.2803  0.2925  0.7236
  772MOL0     C 4096  10.466   0.566  10.671 -0.2166  0.2091 -1.1379
  772MOL0     C 4097  10.325   0.507  10.675 -0.0421  0.4316 -0.8240
  772MOL0     C 4098  10.326   0.365  10.746  1.2603  0.2777  0.3974
  772MOL0     C 4099  10.185   0.313  10.762 -0.0178 -0.7437 -0.0872
  772MOL0     C 4100  10.180   0.168  10.787 -0.0349  0.1769  0.0359
  772MOL0     C 4101  10.038   0.106  10.804  0.3141 -0.5859  0.1603
  772MOL0     N 4102   9.937   0.187  10.730 -0.1921  0.0564 -0.2671
  772MOL0     C 4103   9.906   0.168  10.596  0.4062 -0.3646  0.0979
  772MOL0     C 4104   9.801   0.258  10.571 -0.0932  0.1650  0.0146
  772MOL0     C 4105   9.716   0.272  10.447 -1.0352 -0.2126  0.4346
  772MOL0     C 4106   9.791   0.366  10.344 -0.4630  0.4080 -0.0554
  772MOL0     C 4107   9.688   0.463  10.273 -1.4696 -0.3627 -1.0987
  772MOL0     C 4108   9.777   0.554  10.183  0.4640 -0.6961  0.7301
  772MOL0     O 4109   9.821   0.465  10.072 -0.5191  0.6232 -0.3411
  772MOL0     C 4110   9.918   0.523  10.000 -0.0119 -1.3023 -0.2128
  772MOL0     C 4111  10.046   0.461   9.994 -0.1667  0.0849 -0.1528
  772MOL0     C 4112  10.134   0.484   9.890 -0.4726 -0.6410 -0.3271
  772MOL0     C 4113  10.262   0.387   9.884  0.2307 -0.8762 -0.4921
  772MOL0     C 4114  10.115   0.596   9.806  0.0565  0.9854 -0.0039
  772MOL0     C 4115  10.209   0.627   9.692  0.2135 -0.2484 -1.0403
  772MOL0     O 4116  10.341   0.628   9.729  0.0885  0.1989 -0.3665
  772MOL0     C 4117  10.433   0.643   9.629 -0.2150  0.1618  0.5759
  772MOL0     C 4118  10.548   0.706   9.666 -0.0679 -0.1695 -0.2018
  772MOL0     C 4119  10.655   0.729   9.580 -0.2210  0.5881 -0.0941
  772MOL0     C 4120  10.654   0.676   9.450  0.9339  0.3260 -0.1761
  772MOL0     O 4121  10.762   0.696   9.373 -0.9064  0.4585  0.1343
  772MOL0     C 4122  10.741   0.741   9.238 -0.3603  0.9568 -0.6470
  772MOL0     C 4123  10.885   0.747   9.185  0.1999  0.4214  0.8537
  772MOL0     C 4124  10.911   0.767   9.030  0.0331  0.2165  0.3732
  772MOL0     C 4125  11.063   0.782   9.006 -0.4732  0.1562 -0.3500
  772MOL0     C 4126  11.083   0.801   8.859 -0.7301  0.4071 -0.2549
  772MOL0     C 4127  11.233   0.794   8.813  0.5291  0.1851  0.5672
  772MOL0     C 4128  11.247   0.811   8.660 -0.1930  0.7693  0.6239
  772MOL0     C 4129  11.357   0.733   8.595 -0.2605 -0.0379  0.5463
  772MOL0    Cl 4130  11.515   0.784   8.672  0.4352 -0.4058  0.1431
  772MOL0     C 4131  10.536   0.604   9.407 -0.4956 -0.4221  0.1093
  772MOL0     C 4132  10.427   0.594   9.497 -0.0831  0.6325  0.9302
  772MOL0     O 4133  10.168   0.651   9.581 -0.4528 -0.2680 -0.4671
  772MOL0     C 4134   9.998   0.659   9.820  0.5721  0.0806  1.1314
  772MOL0     C 4135   9.895   0.622   9.907  0.2976 -0.2318 -0.1867
  772MOL0     N 4136   9.765   0.299  10.698 -0.3784 -0.2290 -0.0436
  772MOL0     N 4137   9.850   0.268  10.789 -0.4893 -0.2229 -0.8179
  772MOL0     C 4138  10.785   0.910  10.808 -0.2659 -0.4562  1.0795
  772MOL0     C 4139  10.905   0.975  10.835  0.3197 -0.9721 -0.2376
  772MOL0     C 4140  11.304   1.193  10.852  0.2816 -0.6784 -0.3716
  772MOL0     C 4141  11.406   1.108  10.814  0.2744  0.6766  0.3335
  772MOL0     C 4142  11.535   1.128  10.843 -1.4773  0.0821  0.7501
  772MOL0     C 4143  11.576   1.237  10.914  0.3275  0.1305  1.1456
  772MOL0     O 4144  11.704   1.272  10.936 -0.3512  0.2263  0.7852
  772MOL0     C 4145  11.799   1.172  10.955  0.5291  0.2550  0.2198
  772MOL0     C 4146  11.918   1.225  11.023 -0.4155 -0.4749  0.3231
  772MOL0     C 4147  11.983   1.343  10.944 -0.4607  0.5587 -1.4903
  772MOL0     C 4148  12.011   1.331  10.793  0.0198 -0.2504  1.3810
  772MOL0     C 4149  12.068   1.455  10.733  0.7171 -0.8523 -0.1202
  772MOL0     C 4150  12.113   1.562  10.692 -0.1967 -0.6898  0.1788
  772MOL0     C 4151  11.472   1.328  10.950  0.0271 -0.1910 -0.1143
  772MOL0     C 4152  11.336   1.303  10.925 -0.0552  0.4496 -0.3211
  772MOL0     H 4153  11.026   0.974  10.508 -2.1211 -5.2875 -2.7991
  772MOL0     H 4154  10.836   0.854  10.475 -1.8314 -0.0774  0.5494
  772MOL0     H 4155  10.615   0.780  10.451 -2.2823 -0.4394 -0.8623
  772MOL0     H 4156  10.701   0.656  10.557  0.1319  0.2867  1.9267
  772MOL0     H 4157  10.397   0.709  10.532  1.3876  2.2383 -1.6373
  772MOL0     H 4158  10.498   0.596  10.450  4.2415  1.7923  0.3479
  772MOL0     H 4159  10.530   0.479  10.687 -2.0590 -0.6964  2.2437
  772MOL0     H 4160  10.460   0.618  10.767 -2.3585 -1.2403 -0.3961
  772MOL0     H 4161  10.270   0.579  10.735 -0.5111 -1.3738  1.0475
  772MOL0     H 4162  10.294   0.489  10.572  0.8177  0.9690 -1.1888
  772MOL0     H 4163  10.404   0.298  10.709  1.5254  0.4791  0.5871
  772MOL0     H 4164  10.369   0.374  10.846  2.3734  2.1514 -0.1957
  772MOL0     H 4165  10.128   0.368  10.838 -2.1567  0.2047 -2.2443
  772MOL0     H 4166  10.136   0.339  10.668 -2.1733 -0.2256  1.0993
  772MOL0     H 4167  10.240   0.104  10.721 -0.4810 -3.4106  2.8213
  772MOL0     H 4168  10.239   0.152  10.878  0.3143 -3.5984 -0.7158
  772MOL0     H 4169  10.017   0.113  10.911  2.0167  3.3706  0.3855
  772MOL0     H 4170  10.047   0.003  10.766 -0.0445 -0.0974 -1.2872
  772MOL0     H 4171   9.938   0.098  10.520  2.0366 -0.1647  0.5772
  772MOL0     H 4172   9.695   0.171  10.410  0.8173 -1.8120  3.3542
  772MOL0     H 4173   9.624   0.330  10.460 -0.8236 -0.0418  1.2453
  772MOL0     H 4174   9.833   0.302  10.266  2.4507  2.8096 -0.6121
  772MOL0     H 4175   9.872   0.419  10.394  0.0171  1.2043 -1.6255
  772MOL0     H 4176   9.640   0.527  10.348 -0.4573 -1.8122  0.8752
  772MOL0     H 4177   9.616   0.398  10.222 -2.8386 -0.4894  0.9003
  772MOL0     H 4178   9.859   0.601  10.239 -1.7609  4.9184 -0.0837
  772MOL0     H 4179   9.719   0.636  10.141 -0.4351 -2.0495 -0.7598
  772MOL0     H 4180  10.061   0.379  10.063  0.8782  0.0962 -0.3354
  772MOL0     H 4181  10.303   0.388   9.783 -2.8217  2.1801 -1.9484
  772MOL0     H 4182  10.320   0.413   9.973 -0.4603  1.1585 -0.5759
  772MOL0     H 4183  10.226   0.286   9.903 -1.2492 -0.2699  0.1263
  772MOL0     H 4184  10.550   0.742   9.769  0.3307  0.6799 -0.4975
  772MOL0     H 4185  10.738   0.796   9.600  0.9994 -0.5560 -1.1269
  772MOL0     H 4186  10.695   0.666   9.173 -1.1216  2.6592 -2.1332
  772MOL0     H 4187  10.682   0.832   9.229 -3.1805 -0.6188  0.6172
  772MOL0     H 4188  10.944   0.819   9.242 -1.3801  2.3913  0.1280
  772MOL0     H 4189  10.924   0.651   9.219  1.3480  0.9723  1.1340
  772MOL0     H 4190  10.860   0.858   8.998 -0.8380 -1.2900 -2.8631
  772MOL0     H 4191  10.871   0.686   8.968  0.5692  0.0915  0.1838
  772MOL0     H 4192  11.105   0.871   9.055  1.1805  0.0767 -1.5308
  772MOL0     H 4193  11.122   0.696   9.038  0.5429  0.0273 -2.3809
  772MOL0     H 4194  11.027   0.885   8.816 -4.7806 -2.1510 -0.4707
  772MOL0     H 4195  11.029   0.719   8.811 -0.9227  0.8902 -0.8891
  772MOL0     H 4196  11.293   0.864   8.871  0.1168 -0.7242  2.1697
  772MOL0     H 4197  11.275   0.695   8.837 -0.6340  0.0716  2.2794
  772MOL0     H 4198  11.274   0.914   8.633  2.4370 -0.3153 -1.2601
  772MOL0     H 4199  11.150   0.789   8.613  1.6700 -1.3738 -2.6111
  772MOL0     H 4200  11.376   0.774   8.495  1.1012  2.0834  1.6054
  772MOL0     H 4201  11.353   0.624   8.604 -3.5229 -0.1969 -1.1930
  772MOL0     H 4202  10.518   0.569   9.306 -1.5708  3.7481 -1.3713
  772MOL0     H 4203  10.342   0.552   9.444 -1.1533  3.0317  0.5717
  772MOL0     H 4204   9.969   0.727   9.740 -0.1491 -0.8620  0.5751
  772MOL0     H 4205   9.799   0.671   9.895 -0.4683 -1.0448  2.1081
  772MOL0     H 4206  10.718   0.890  10.891 -0.4610  2.7140  1.7804
  772MOL0     H 4207  10.942   1.003  10.933  4.5394 -2.2545 -1.2512
  772MOL0     H 4208  11.375   1.023  10.754 -4.0453 -0.1041  3.2435
  772MOL0     H 4209  11.614   1.069  10.799 -0.1489  1.6721  0.8893
  772MOL0     H 4210  11.758   1.087  11.012  1.2293  0.8017  1.5858
  772MOL0     H 4211  11.817   1.136  10.853 -1.6650  2.2657 -0.9894
  772MOL0     H 4212  11.994   1.147  11.032  1.1304  0.9892  0.4623
  772MOL0     H 4213  11.899   1.255  11.126  0.3499 -1.5435  0.7866
  772MOL0     H 4214  12.080   1.366  10.989 -0.8636 -0.4801 -0.0176
  772MOL0     H 4215  11.920   1.432  10.947  0.8642  1.5199 -0.9592
  772MOL0     H 4216  11.924   1.305  10.733  1.7064  3.1461 -3.1603
  772MOL0     H 4217  12.072   1.241  10.781 -0.6314 -0.6858  1.3175
  772MOL0     H 4218  12.153   1.661  10.683 -0.2344 -0.8161 -1.8512
  772MOL0     H 4219  11.514   1.412  11.004  0.2582 -1.0038  0.9990
  772MOL0     H 4220  11.257   1.367  10.963  0.7767 -0.1947  2.7963
  773MOL0     O 4221   1.142   1.245   6.695 -0.4435  0.7348 -0.4348
  773MOL0     C 4222   1.269   1.237   6.685  0.1824 -0.4959 -0.5360
  773MOL0     O 4223   1.360   1.206   6.781  0.1404 -0.3395 -0.6152
  773MOL0     C 4224   1.311   1.189   6.909 -0.3187  0.3380 -0.4894
  773MOL0     C 4225   1.261   1.073   6.953  0.0392 -0.1165  0.6107
  773MOL0     C 4226   1.191   1.057   7.071  0.7565  1.0701  0.3542
  773MOL0     C 4227   1.190   1.157   7.169  0.1514 -0.7693  0.9112
  773MOL0     O 4228   1.127   1.174   7.293  0.3071  0.1483 -0.6564
  773MOL0     C 4229   1.115   1.051   7.368  0.1551  0.1634  0.6163
  773MOL0     C 4230   1.242   0.996   7.433  0.1830  0.4164 -0.5294
  773MOL0     C 4231   1.223   0.840   7.450  0.2897 -0.8804 -0.3706
  773MOL0     C 4232   1.261   0.759   7.327 -0.1335 -1.5888  0.1523
  773MOL0     C 4233   1.219   0.615   7.336  0.1520 -0.5470 -0.6368
  773MOL0     C 4234   1.225   0.534   7.199  0.0385 -0.4809 -0.4564
  773MOL0     C 4235   1.194   0.389   7.214  0.3590 -0.1647 -1.0452
  773MOL0     C 4236   1.055   0.352   7.269 -0.4569 -0.5940 -0.0575
  773MOL0     N 4237   0.940   0.407   7.200 -0.6559  0.0102 -0.6142
  773MOL0     C 4238   0.863   0.341   7.110  0.4911 -0.5278  0.9689
  773MOL0     C 4239   0.751   0.417   7.075  0.0947  0.9529  0.7420
  773MOL0     C 4240   0.639   0.391   6.973 -0.1086  0.2052  0.1173
  773MOL0     C 4241   0.531   0.310   7.046 -0.5448  0.6611 -0.4413
  773MOL0     C 4242   0.546   0.154   7.036  0.4145  0.0032  0.0060
  773MOL0     C 4243   0.419   0.089   7.098 -0.0635  0.0183 -0.5298
  773MOL0     O 4244   0.310   0.078   7.006 -0.6433 -0.6200 -0.1214
  773MOL0     C 4245   0.204   0.003   7.042  0.2522  1.2227  0.7722
  773MOL0     C 4246   0.203  -0.064   7.164  0.6058 -0.2959 -0.5481
  773MOL0     C 4247   0.097  -0.160   7.182 -0.6437 -0.2180 -0.4542
  773MOL0     C 4248   0.094  -0.218   7.330 -0.9874 -0.7619  0.9805
  773MOL0     C 4249   0.001  -0.187   7.078  0.9632 -0.3222  0.6932
  773MOL0     C 4250  -0.098  -0.295   7.090 -0.9455  0.1791  0.7416
  773MOL0     O 4251  -0.211  -0.281   7.009 -0.0890  0.0110  0.1429
  773MOL0     C 4252  -0.295  -0.385   6.996  0.7106  0.1282 -0.1807
  773MOL0     C 4253  -0.430  -0.383   7.057  0.0608  0.0977 -0.7666
  773MOL0     C 4254  -0.520  -0.479   7.025 -0.0653  0.6357 -1.0568
  773MOL0     C 4255  -0.484  -0.594   6.953  0.8113  0.9220  0.9323
  773MOL0     O 4256  -0.588  -0.683   6.933  0.4678 -0.2009 -0.0677
  773MOL0     C 4257  -0.580  -0.768   6.812 -0.5023  0.7358 -0.5105
  773MOL0     C 4258  -0.693  -0.866   6.816  0.1747  1.1632  0.8309
  773MOL0     C 4259  -0.690  -0.945   6.690  0.2678  0.8618 -0.5420
  773MOL0     C 4260  -0.815  -1.020   6.657  1.0641  0.0803  0.5171
  773MOL0     C 4261  -0.805  -1.118   6.539  0.2286  0.5438 -0.7210
  773MOL0     C 4262  -0.932  -1.185   6.494  0.3671  0.9014  0.5377
  773MOL0     C 4263  -1.001  -1.259   6.609  0.2449 -0.2345 -0.1307
  773MOL0     C 4264  -1.123  -1.339   6.556 -1.1742  0.3246 -0.1790
  773MOL0    Cl 4265  -1.233  -1.238   6.468  0.0106  0.6784  0.3944
  773MOL0     C 4266  -0.352  -0.603   6.905 -0.8930  0.0822 -0.2134
  773MOL0     C 4267  -0.266  -0.502   6.919 -0.8959 -0.4121 -0.0644
  773MOL0     O 4268  -0.081  -0.381   7.179 -0.4380  0.4571  0.8239
  773MOL0     C 4269   0.006  -0.106   6.959 -0.4181  0.7241 -0.4759
  773MOL0     C 4270   0.106  -0.008   6.946  1.1078  0.7271  0.3363
  773MOL0     N 4271   0.760   0.521   7.162 -0.4687  0.4083  0.3777
  773MOL0     N 4272   0.868   0.514   7.229 -0.9258  0.4877 -0.1415
  773MOL0     C 4273   1.251   1.281   7.126 -0.4232 -0.3842  0.2538
  773MOL0     C 4274   1.312   1.301   7.003  0.0476 -0.3957  1.0274
  773MOL0     C 4275   1.320   1.269   6.544  0.5489  0.6396 -1.6698
  773MOL0     C 4276   1.448   1.282   6.506  0.6099  0.5788 -0.7195
  773MOL0     C 4277   1.493   1.281   6.374 -0.2923 -0.1756  1.5799
  773MOL0     C 4278   1.401   1.299   6.273  0.1072  0.2357  0.5259
  773MOL0     O 4279   1.443   1.304   6.143 -0.4114  0.6074  0.0446
  773MOL0     C 4280   1.371   1.382   6.050  0.3118  0.1430  0.9605
  773MOL0     C 4281   1.447   1.405   5.915 -0.2134  0.8612 -0.1400
  773MOL0     C 4282   1.573   1.473   5.955 -0.2521 -0.6812 -0.8042
  773MOL0     C 4283   1.649   1.532   5.843 -0.8358 -0.3327 -1.1131
  773MOL0     C 4284   1.568   1.616   5.762 -0.2109  0.2338  0.4488
  773MOL0     C 4285   1.503   1.691   5.685  0.6564  0.2369 -0.1625
  773MOL0     C 4286   1.268   1.309   6.310 -0.4311  0.0857  0.2599
  773MOL0     C 4287   1.224   1.294   6.439 -0.8854  0.3055  0.6768
  773MOL0     H 4288   1.279   0.979   6.901  1.2028 -2.3185  4.5494
  773MOL0     H 4289   1.157   0.959   7.101  1.8545 -0.1854 -2.2506
  773MOL0     H 4290   1.046   1.066   7.451  1.7578  1.3726  1.8011
  773MOL0     H 4291   1.063   0.976   7.307  1.1527  0.9188 -1.2397
  773MOL0     H 4292   1.331   1.024   7.375  0.2587  4.1835  1.1323
  773MOL0     H 4293   1.255   1.045   7.530 -1.7310  2.1987 -1.1145
  773MOL0     H 4294   1.261   0.795   7.542 -0.2854  1.0520  0.8644
  773MOL0     H 4295   1.116   0.825   7.468  0.3573 -0.5859  0.3120
  773MOL0     H 4296   1.209   0.798   7.239  0.0310  2.0968  1.5082
  773MOL0     H 4297   1.368   0.780   7.313 -0.5828  4.3235  2.5758
  773MOL0     H 4298   1.278   0.566   7.414 -1.5243  1.8014  2.2915
  773MOL0     H 4299   1.116   0.630   7.368 -0.2168  1.4079 -2.4679
  773MOL0     H 4300   1.157   0.580   7.127 -0.1925 -0.2397 -0.0891
  773MOL0     H 4301   1.328   0.540   7.162 -0.2206 -2.7157 -1.6899
  773MOL0     H 4302   1.198   0.345   7.114  0.9465 -0.9505 -0.6851
  773MOL0     H 4303   1.268   0.334   7.274  0.0225  1.1706  0.6787
  773MOL0     H 4304   1.046   0.394   7.370 -2.8619 -0.1003 -0.4033
  773MOL0     H 4305   1.053   0.243   7.277 -0.2350 -0.5676  0.4344
  773MOL0     H 4306   0.885   0.238   7.083  1.6754 -0.2021  0.6271
  773MOL0     H 4307   0.602   0.492   6.955 -0.5593 -0.2876 -2.0467
  773MOL0     H 4308   0.675   0.350   6.878  1.3723  0.7121  0.4261
  773MOL0     H 4309   0.430   0.323   7.007 -0.6000  0.7849 -0.2572
  773MOL0     H 4310   0.537   0.336   7.152  1.6976  0.2358 -0.4122
  773MOL0     H 4311   0.635   0.119   7.090  0.0612 -3.5032 -1.4076
  773MOL0     H 4312   0.562   0.124   6.932  1.8308  4.2153 -1.2048
  773MOL0     H 4313   0.387   0.147   7.185  0.0640 -2.3907  1.2617
  773MOL0     H 4314   0.450  -0.011   7.132 -2.4561 -1.0740 -1.3623
  773MOL0     H 4315   0.269  -0.043   7.248  1.4792 -0.1893 -1.2370
  773MOL0     H 4316  -0.007  -0.237   7.366 -0.2226 -1.7924  2.6716
  773MOL0     H 4317   0.151  -0.311   7.332 -0.7831 -0.7447 -1.1222
  773MOL0     H 4318   0.143  -0.150   7.400 -0.4954  0.7098 -0.6992
  773MOL0     H 4319  -0.461  -0.300   7.119 -1.3557  0.1558 -1.5139
  773MOL0     H 4320  -0.620  -0.462   7.063  0.8131 -1.3231  2.6749
  773MOL0     H 4321  -0.597  -0.716   6.718  0.1989  1.7086 -0.1207
  773MOL0     H 4322  -0.483  -0.817   6.797 -1.8332 -2.4180  0.3543
  773MOL0     H 4323  -0.695  -0.927   6.907  0.7677 -0.8125 -0.4233
  773MOL0     H 4324  -0.789  -0.814   6.817 -1.8377 -2.2172  0.0750
  773MOL0     H 4325  -0.612  -1.018   6.712  0.1164  0.8195 -0.1331
  773MOL0     H 4326  -0.657  -0.883   6.606 -1.3419  2.6095  0.0431
  773MOL0     H 4327  -0.848  -1.094   6.730 -1.6099 -2.7205 -3.1685
  773MOL0     H 4328  -0.901  -0.953   6.652 -0.4385 -1.7636  0.7749
  773MOL0     H 4329  -0.727  -1.191   6.562 -1.8205 -1.0127  1.8957
  773MOL0     H 4330  -0.765  -1.065   6.452 -1.8015  3.7339  0.0949
  773MOL0     H 4331  -0.995  -1.105   6.454 -0.9160 -1.0268 -1.5013
  773MOL0     H 4332  -0.918  -1.264   6.420 -0.2482 -0.3503  1.7004
  773MOL0     H 4333  -1.040  -1.180   6.675  1.1214  0.6835 -0.6956
  773MOL0     H 4334  -0.942  -1.324   6.675 -0.8700 -0.7111  0.4294
  773MOL0     H 4335  -1.175  -1.393   6.636 -2.8396  1.8715 -0.1657
  773MOL0     H 4336  -1.098  -1.414   6.481  1.3294  2.8315 -2.0422
  773MOL0     H 4337  -0.318  -0.690   6.851 -2.7932 -2.1663  1.9495
  773MOL0     H 4338  -0.171  -0.520   6.870 -1.2084 -0.2698 -0.7296
  773MOL0     H 4339  -0.059  -0.120   6.873 -1.0729  2.0282 -0.2154
  773MOL0     H 4340   0.107   0.050   6.854  3.5393  1.8618  0.9913
  773MOL0     H 4341   1.259   1.364   7.195  3.8438  0.0088 -0.4062
  773MOL0     H 4342   1.346   1.403   6.994 -0.5791 -0.2663  0.0401
  773MOL0     H 4343   1.533   1.266   6.572  0.1309 -1.2993 -0.4918
  773MOL0     H 4344   1.598   1.291   6.350 -0.0362  0.0500  2.7053
  773MOL0     H 4345   1.274   1.342   6.018  1.5563 -2.9282  0.6742
  773MOL0     H 4346   1.344   1.478   6.095 -1.3085  1.3577 -2.2431
  773MOL0     H 4347   1.388   1.470   5.850 -0.7118  1.1464  0.5931
  773MOL0     H 4348   1.458   1.308   5.865 -2.2679 -0.0467  1.0863
  773MOL0     H 4349   1.644   1.407   6.007 -0.9089 -1.1958 -0.5502
  773MOL0     H 4350   1.545   1.554   6.023  1.2913 -0.9984  0.2808
  773MOL0     H 4351   1.693   1.448   5.790  1.1160 -1.5656  2.1425
  773MOL0     H 4352   1.729   1.596   5.882 -2.9138  0.3634  2.4401
  773MOL0     H 4353   1.467   1.771   5.624 -0.5938 -1.7524 -2.1772
  773MOL0     H 4354   1.199   1.320   6.227  0.6875 -2.4326 -1.1182
  773MOL0     H 4355   1.117   1.293   6.458 -1.2300  0.4745 -1.1313
  774MOL0     O 4356   2.098   3.959   1.217  0.7661  0.2348 -0.1326
  774MOL0     C 4357   2.198   3.887   1.208  0.4172  0.0884 -0.7834
  774MOL0     O 4358   2.227   3.787   1.303 -0.0665  0.8177  0.0373
  774MOL0     C 4359   2.129   3.725   1.373 -0.6017 -0.2790 -0.6578
  774MOL0     C 4360   1.991   3.735   1.354  0.5279 -0.4526 -0.9414
  774MOL0     C 4361   1.902   3.663   1.436 -0.7426  0.0379  0.5701
  774MOL0     C 4362   1.955   3.584   1.541 -0.2365 -0.5099  0.2380
  774MOL0     O 4363   1.860   3.511   1.611  0.3556 -0.2589  0.3306
  774MOL0     C 4364   1.910   3.399   1.688 -0.2868 -0.6606  0.5269
  774MOL0     C 4365   1.804   3.297   1.722  0.8591  0.6725 -0.3681
  774MOL0     C 4366   1.717   3.260   1.602 -0.1897  0.0660 -0.2988
  774MOL0     C 4367   1.590   3.185   1.635 -0.2813 -0.0603 -2.0047
  774MOL0     C 4368   1.605   3.045   1.644  0.2352 -0.9541 -0.3578
  774MOL0     C 4369   1.597   2.972   1.507 -0.1572 -0.1697 -0.0938
  774MOL0     C 4370   1.581   2.821   1.529  0.3952  0.1626 -0.3940
  774MOL0     C 4371   1.720   2.759   1.575  0.2372 -0.8014  0.4711
  774MOL0     N 4372   1.712   2.616   1.610  0.8310 -0.1751  0.0172
  774MOL0     C 4373   1.664   2.511   1.534 -0.1634 -0.4038  0.0055
  774MOL0     C 4374   1.670   2.405   1.610  0.7899 -0.5222 -0.5020
  774MOL0     C 4375   1.630   2.256   1.593  1.1714 -0.0731  0.2706
  774MOL0     C 4376   1.707   2.183   1.475 -0.3164 -0.1502  0.1178
  774MOL0     C 4377   1.642   2.055   1.430 -0.3806  0.6910  0.6439
  774MOL0     C 4378   1.676   1.940   1.517  0.8986  0.0465 -0.1967
  774MOL0     O 4379   1.597   1.818   1.490  0.4911 -0.4724 -0.6294
  774MOL0     C 4380   1.646   1.700   1.534 -0.2643  0.5572 -0.5343
  774MOL0     C 4381   1.560   1.588   1.530  0.7191  0.5010  0.1063
  774MOL0     C 4382   1.604   1.455   1.561  0.0450  0.4555 -0.6957
  774MOL0     C 4383   1.494   1.353   1.560 -0.0347  0.0564 -0.2632
  774MOL0     C 4384   1.735   1.434   1.612 -0.3345  0.9561  0.2321
  774MOL0     C 4385   1.777   1.299   1.654 -0.5361  0.3440 -0.2248
  774MOL0     O 4386   1.893   1.294   1.727  0.2338  0.1542 -0.2162
  774MOL0     C 4387   1.952   1.174   1.760 -0.9737 -0.5762 -0.9182
  774MOL0     C 4388   1.898   1.087   1.860  0.6599  0.7166 -0.8265
  774MOL0     C 4389   1.967   0.967   1.890  0.6744  1.3947  0.7956
  774MOL0     C 4390   2.081   0.935   1.824 -0.4609 -0.3963 -0.0334
  774MOL0     O 4391   2.127   0.811   1.840  0.5510  0.4139 -0.2666
  774MOL0     C 4392   2.254   0.769   1.788 -0.8401 -0.1303  0.1726
  774MOL0     C 4393   2.287   0.632   1.850 -0.0581  0.3539 -1.5526
  774MOL0     C 4394   2.213   0.505   1.788  1.1387 -0.6654 -0.7178
  774MOL0     C 4395   2.270   0.385   1.863 -0.1544  0.2738  0.0352
  774MOL0     C 4396   2.179   0.264   1.855  0.3833 -0.0109  0.5035
  774MOL0     C 4397   2.142   0.230   1.710 -0.9137  0.1058 -0.1793
  774MOL0     C 4398   2.083   0.085   1.687 -0.0450  0.4155  0.0853
  774MOL0     C 4399   1.939   0.073   1.732 -0.1472 -0.0167  0.7855
  774MOL0    Cl 4400   1.829   0.169   1.625 -0.3170  0.0280 -0.1446
  774MOL0     C 4401   2.150   1.027   1.744  0.0719 -0.1755 -0.1412
  774MOL0     C 4402   2.085   1.149   1.710 -0.4054  0.1304  0.1141
  774MOL0     O 4403   1.716   1.197   1.629 -1.1279  0.1525  0.3969
  774MOL0     C 4404   1.820   1.556   1.632 -0.3776  0.1361  0.4036
  774MOL0     C 4405   1.781   1.682   1.585 -0.6475 -0.2478 -0.5014
  774MOL0     N 4406   1.719   2.443   1.737  1.0614  0.2036 -0.1318
  774MOL0     N 4407   1.749   2.570   1.726  0.8024 -0.0705  0.1093
  774MOL0     C 4408   2.090   3.590   1.572  0.0927  0.5074  0.4838
  774MOL0     C 4409   2.180   3.658   1.485  0.1894 -0.5341  0.7583
  774MOL0     C 4410   2.302   3.917   1.114 -0.1509 -0.4440 -0.5611
  774MOL0     C 4411   2.287   4.006   1.013  0.4799 -0.5239  0.6922
  774MOL0     C 4412   2.380   4.029   0.915 -0.5474 -0.2161 -0.7335
  774MOL0     C 4413   2.496   3.955   0.915  0.1605  0.3472 -0.7437
  774MOL0     O 4414   2.586   3.987   0.823 -0.4824  0.2679  0.4538
  774MOL0     C 4415   2.637   3.878   0.743  0.2448  0.1899  0.6412
  774MOL0     C 4416   2.540   3.848   0.617  0.0686  0.3447 -0.3218
  774MOL0     C 4417   2.528   3.965   0.517  0.6757  0.7904  0.4532
  774MOL0     C 4418   2.392   3.960   0.444  0.0095 -0.8065 -0.3206
  774MOL0     C 4419   2.299   4.020   0.543 -0.4935  0.9535  0.2347
  774MOL0     C 4420   2.216   4.070   0.614 -0.4787  0.4786 -1.0331
  774MOL0     C 4421   2.517   3.856   1.016 -0.0959 -0.0663  0.0209
  774MOL0     C 4422   2.418   3.833   1.110  0.8065  0.8668  0.0012
  774MOL0     H 4423   1.947   3.793   1.273 -0.6511  0.1951  0.1130
  774MOL0     H 4424   1.794   3.657   1.427 -0.8852 -2.8575  2.6731
  774MOL0     H 4425   1.989   3.344   1.637  0.4447 -0.4849  1.4537
  774MOL0     H 4426   1.950   3.438   1.782 -0.0268  0.8490 -0.1702
  774MOL0     H 4427   1.837   3.199   1.758 -0.9391 -0.2894 -1.1706
  774MOL0     H 4428   1.745   3.332   1.808  0.3829 -2.4246  0.6948
  774MOL0     H 4429   1.673   3.352   1.563  0.7350  0.8624  0.5048
  774MOL0     H 4430   1.780   3.212   1.526 -2.7928 -0.2617 -2.4120
  774MOL0     H 4431   1.557   3.211   1.736 -0.2001 -2.5299 -1.2761
  774MOL0     H 4432   1.516   3.213   1.561  0.8394 -0.7231 -3.4279
  774MOL0     H 4433   1.689   3.013   1.707  0.2536  0.7402  0.5259
  774MOL0     H 4434   1.518   3.026   1.707  1.0870 -1.1289  0.7902
  774MOL0     H 4435   1.527   3.027   1.444  0.8643  1.9286  0.5101
  774MOL0     H 4436   1.687   2.981   1.445  0.4240  0.4949  0.8228
  774MOL0     H 4437   1.492   2.799   1.588 -1.3454  3.1915 -1.6244
  774MOL0     H 4438   1.562   2.774   1.433 -0.5341  1.5896 -0.9368
  774MOL0     H 4439   1.765   2.812   1.660 -0.7262 -1.2651  1.2879
  774MOL0     H 4440   1.799   2.766   1.500 -1.4597 -0.2043 -1.3193
  774MOL0     H 4441   1.628   2.509   1.431 -0.6410  2.2071  0.0478
  774MOL0     H 4442   1.633   2.215   1.694 -1.2524  1.9560  1.2692
  774MOL0     H 4443   1.525   2.261   1.563  1.5419 -0.0996 -1.0859
  774MOL0     H 4444   1.806   2.170   1.520 -0.6255  0.8481  1.1424
  774MOL0     H 4445   1.725   2.245   1.387  2.1408 -1.8130 -0.6252
  774MOL0     H 4446   1.665   2.026   1.328  1.4603  2.3917  0.5078
  774MOL0     H 4447   1.535   2.078   1.433 -0.6724  1.5321 -5.0146
  774MOL0     H 4448   1.677   1.966   1.623 -2.0666  0.7378 -0.2538
  774MOL0     H 4449   1.776   1.917   1.481  1.0019  1.7802 -1.1747
  774MOL0     H 4450   1.456   1.604   1.501  0.2636 -1.8371  0.2241
  774MOL0     H 4451   1.398   1.388   1.521  0.5516  1.8441 -0.2074
  774MOL0     H 4452   1.513   1.269   1.493  1.7855  0.3085 -0.0973
  774MOL0     H 4453   1.468   1.319   1.660 -2.6146  0.9930 -0.5221
  774MOL0     H 4454   1.804   1.123   1.900  0.5592  0.5819 -0.9428
  774MOL0     H 4455   1.919   0.892   1.952  0.3829  0.0255 -1.0003
  774MOL0     H 4456   2.245   0.757   1.680  0.7509 -2.2098  0.2154
  774MOL0     H 4457   2.335   0.833   1.825 -0.7714  0.4429 -0.9156
  774MOL0     H 4458   2.396   0.623   1.851 -0.1841 -2.2014  0.3226
  774MOL0     H 4459   2.267   0.647   1.957  2.9358  2.0615 -1.1081
  774MOL0     H 4460   2.237   0.510   1.681  1.2009 -1.3092 -0.7398
  774MOL0     H 4461   2.104   0.511   1.790  1.1045 -0.3083 -2.1155
  774MOL0     H 4462   2.371   0.363   1.828  0.1917 -1.1070  1.7885
  774MOL0     H 4463   2.277   0.397   1.971  3.0935  0.1566 -0.0642
  774MOL0     H 4464   2.084   0.283   1.907  0.7309 -0.1440  1.1980
  774MOL0     H 4465   2.225   0.178   1.905 -0.3993  0.1539  1.5450
  774MOL0     H 4466   2.064   0.301   1.681  1.2320  2.9858  0.6381
  774MOL0     H 4467   2.235   0.247   1.656 -1.2140 -2.3160 -1.6002
  774MOL0     H 4468   2.136  -0.003   1.723 -2.0822 -2.3129 -3.0205
  774MOL0     H 4469   2.083   0.076   1.578 -1.1358  0.7357  0.0467
  774MOL0     H 4470   1.933   0.113   1.834  1.0515 -1.7229  1.5635
  774MOL0     H 4471   1.915  -0.034   1.736  0.3306 -0.0874  2.1395
  774MOL0     H 4472   2.243   1.005   1.692  0.3527 -0.4220  0.4594
  774MOL0     H 4473   2.153   1.210   1.652 -1.2372 -1.2884 -2.4954
  774MOL0     H 4474   1.923   1.550   1.664  0.4182  1.5857 -1.6243
  774MOL0     H 4475   1.852   1.764   1.594 -0.4466 -0.5496  0.9830
  774MOL0     H 4476   2.131   3.544   1.661 -0.4018 -0.0028  0.4473
  774MOL0     H 4477   2.288   3.657   1.489  0.2820 -2.4079 -0.7968
  774MOL0     H 4478   2.205   4.077   1.011 -0.5022 -1.6269  1.1776
  774MOL0     H 4479   2.363   4.119   0.857 -0.4244 -0.7832 -1.6845
  774MOL0     H 4480   2.725   3.918   0.692  0.4099  0.4381  1.1199
  774MOL0     H 4481   2.650   3.789   0.806 -0.0128 -0.8957 -0.7987
  774MOL0     H 4482   2.437   3.839   0.654  0.2082  0.1836  0.0290
  774MOL0     H 4483   2.575   3.764   0.557  0.5937 -1.4237  2.3094
  774MOL0     H 4484   2.610   3.944   0.447  0.0097 -2.9430  0.5955
  774MOL0     H 4485   2.538   4.062   0.567  2.9134  0.4430  0.7971
  774MOL0     H 4486   2.368   3.862   0.402  2.0618 -0.4673 -2.4744
  774MOL0     H 4487   2.391   4.024   0.355 -3.7791  0.2118  0.2526
  774MOL0     H 4488   2.142   4.106   0.683 -0.4583 -2.2242  0.5556
  774MOL0     H 4489   2.604   3.793   1.002  0.3359  0.6077 -0.4366
  774MOL0     H 4490   2.453   3.753   1.173  0.8159 -1.0392 -2.2629
  775MOL0     O 4491   5.630   4.307   7.693 -0.3206 -0.0516 -0.2898
  775MOL0     C 4492   5.523   4.269   7.645  0.5798 -0.7585  0.3742
  775MOL0     O 4493   5.446   4.331   7.559  0.4692  0.2713  0.4192
  775MOL0     C 4494   5.479   4.449   7.497 -0.1243  0.1987 -0.6536
  775MOL0     C 4495   5.431   4.463   7.371  0.3941  0.1651  0.6870
  775MOL0     C 4496   5.455   4.582   7.301 -0.6957  0.4971 -0.3661
  775MOL0     C 4497   5.519   4.692   7.367  0.2203 -0.5350  0.1004
  775MOL0     O 4498   5.561   4.810   7.306  0.1729  0.2775 -0.1840
  775MOL0     C 4499   5.474   4.861   7.210 -0.8856  0.3957 -0.3091
  775MOL0     C 4500   5.353   4.912   7.287 -0.5109 -0.4030 -1.1474
  775MOL0     C 4501   5.300   5.046   7.252  0.3512 -0.9341 -0.1064
  775MOL0     C 4502   5.377   5.153   7.324  0.0345 -0.7652  0.3020
  775MOL0     C 4503   5.334   5.292   7.277 -0.4904  0.1262 -0.7143
  775MOL0     C 4504   5.183   5.331   7.302 -0.2496  0.9295 -0.0969
  775MOL0     C 4505   5.154   5.478   7.277  0.4876  0.0896 -0.4062
  775MOL0     C 4506   5.194   5.519   7.143 -0.0921  0.7985  0.4597
  775MOL0     N 4507   5.107   5.631   7.108 -0.1353  0.9409  0.1611
  775MOL0     C 4508   5.096   5.753   7.166  0.3324  0.0079  0.2028
  775MOL0     C 4509   5.011   5.828   7.092  0.2950 -1.1925 -0.0439
  775MOL0     C 4510   4.974   5.979   7.114  0.1991 -0.1417 -0.2392
  775MOL0     C 4511   5.027   6.068   7.002  0.2330  0.0516 -0.1477
  775MOL0     C 4512   5.175   6.103   7.020 -0.2208 -0.0808  0.7183
  775MOL0     C 4513   5.217   6.207   6.909  0.2468  0.3720  0.3306
  775MOL0     O 4514   5.125   6.320   6.899  0.6926 -0.3829 -0.3174
  775MOL0     C 4515   5.154   6.405   6.797  0.1517  0.1965  0.3933
  775MOL0     C 4516   5.046   6.483   6.762  0.2282 -0.5177  0.3286
  775MOL0     C 4517   5.047   6.571   6.649 -0.0061 -0.3956 -0.2910
  775MOL0     C 4518   4.941   6.671   6.645  0.6657 -0.0198 -0.6974
  775MOL0     C 4519   5.167   6.583   6.566  0.2695 -0.9613 -0.5520
  775MOL0     C 4520   5.197   6.696   6.484  0.1832  0.0530 -0.3207
  775MOL0     O 4521   5.169   6.825   6.518 -0.2000 -0.5771 -0.0114
  775MOL0     C 4522   5.214   6.929   6.449  0.4857 -1.8147  0.5153
  775MOL0     C 4523   5.134   7.046   6.458 -0.4590 -0.0644  1.6003
  775MOL0     C 4524   5.179   7.169   6.399 -0.2000 -0.3123  0.4099
  775MOL0     C 4525   5.303   7.173   6.353 -0.7267 -0.0969 -0.4667
  775MOL0     O 4526   5.339   7.302   6.313 -0.7188 -0.0060 -0.6552
  775MOL0     C 4527   5.481   7.323   6.268  0.2863  1.0951 -0.2358
  775MOL0     C 4528   5.494   7.460   6.201  0.8223  0.3197 -0.1314
  775MOL0     C 4529   5.634   7.462   6.123  0.2683  0.7677 -0.2232
  775MOL0     C 4530   5.616   7.445   5.966 -0.8893 -0.1875 -0.4613
  775MOL0     C 4531   5.746   7.454   5.893 -0.8381 -0.1300  0.4593
  775MOL0     C 4532   5.757   7.343   5.780 -0.2929  0.1724 -0.3963
  775MOL0     C 4533   5.875   7.387   5.683 -1.0754  0.3409 -0.5578
  775MOL0     C 4534   5.930   7.274   5.597  0.5730 -1.0995 -0.0931
  775MOL0    Cl 4535   6.042   7.179   5.709 -0.3281  0.7090 -0.7538
  775MOL0     C 4536   5.391   7.060   6.361  0.2072 -0.7459  0.1101
  775MOL0     C 4537   5.344   6.938   6.402 -0.2814 -0.1757 -0.0626
  775MOL0     O 4538   5.256   6.665   6.385 -0.0001  0.5944  0.3865
  775MOL0     C 4539   5.266   6.493   6.605 -0.4178 -0.5126 -0.4632
  775MOL0     C 4540   5.265   6.409   6.717  0.2992 -0.8446 -0.3811
  775MOL0     N 4541   4.963   5.743   6.990  0.3035  0.9886  0.0468
  775MOL0     N 4542   5.021   5.629   6.997 -0.1793 -0.6108  0.1033
  775MOL0     C 4543   5.545   4.685   7.504  0.0027  0.4842  0.9100
  775MOL0     C 4544   5.532   4.562   7.566 -0.1437 -0.5105  1.2366
  775MOL0     C 4545   5.469   4.142   7.690 -0.5917  0.7380 -0.1957
  775MOL0     C 4546   5.531   4.071   7.797  1.0551 -0.0367 -0.1535
  775MOL0     C 4547   5.494   3.949   7.843 -0.4736 -0.1003 -0.5684
  775MOL0     C 4548   5.378   3.887   7.788 -0.3921 -0.1368  0.3011
  775MOL0     O 4549   5.325   3.776   7.846 -0.3444  0.0178  0.5166
  775MOL0     C 4550   5.406   3.667   7.897 -0.5604  0.2790 -0.0708
  775MOL0     C 4551   5.502   3.610   7.792 -0.0963 -0.2362 -0.5630
  775MOL0     C 4552   5.561   3.488   7.859  0.7051 -0.5634  0.3794
  775MOL0     C 4553   5.652   3.410   7.764  0.0106  0.0231 -0.3441
  775MOL0     C 4554   5.766   3.496   7.740 -0.1714  0.1316 -0.1297
  775MOL0     C 4555   5.878   3.550   7.719  0.0055  0.1879  0.1199
  775MOL0     C 4556   5.312   3.947   7.682 -0.4069  0.4453 -0.6483
  775MOL0     C 4557   5.348   4.084   7.651 -0.3913  0.6736  0.9794
  775MOL0     H 4558   5.387   4.377   7.322  3.0438 -0.9588  0.0776
  775MOL0     H 4559   5.441   4.588   7.193  2.9278 -1.6916 -1.1328
  775MOL0     H 4560   5.520   4.951   7.169 -1.4960  1.6164  1.5455
  775MOL0     H 4561   5.447   4.796   7.126  1.1649 -1.7089  0.5289
  775MOL0     H 4562   5.280   4.832   7.268 -0.7459 -0.6603  0.6461
  775MOL0     H 4563   5.360   4.921   7.396 -1.0534  3.8932 -1.3182
  775MOL0     H 4564   5.311   5.058   7.144  1.9752 -0.3570  0.0888
  775MOL0     H 4565   5.192   5.044   7.271  0.3443 -2.0040 -0.1564
  775MOL0     H 4566   5.371   5.139   7.432 -0.3153 -1.1531  0.2341
  775MOL0     H 4567   5.481   5.147   7.292 -0.6326 -0.2218 -2.1773
  775MOL0     H 4568   5.409   5.364   7.310  0.9168 -1.7014  0.2408
  775MOL0     H 4569   5.334   5.291   7.168  0.0865 -1.5176 -0.7319
  775MOL0     H 4570   5.112   5.270   7.244 -2.9787  4.5089 -0.8943
  775MOL0     H 4571   5.181   5.295   7.405 -0.8075  1.6557  0.1538
  775MOL0     H 4572   5.045   5.476   7.281  0.4781 -0.9437 -0.9800
  775MOL0     H 4573   5.194   5.545   7.354 -2.1599  2.0154 -0.5773
  775MOL0     H 4574   5.172   5.435   7.077 -3.8676  1.2483  0.8862
  775MOL0     H 4575   5.297   5.553   7.134 -0.0195  0.0640 -2.4191
  775MOL0     H 4576   5.163   5.788   7.244  0.3213  2.1159 -0.6737
  775MOL0     H 4577   4.866   5.996   7.117  0.6557  3.3004  1.2635
  775MOL0     H 4578   5.013   6.025   7.205 -1.8893  0.0474  0.6065
  775MOL0     H 4579   4.964   6.158   6.998  1.1809  0.6920 -1.2722
  775MOL0     H 4580   5.022   6.005   6.913  2.6160 -0.9214  0.3239
  775MOL0     H 4581   5.243   6.017   7.019  2.0072  1.6030 -0.4420
  775MOL0     H 4582   5.198   6.149   7.117  0.3969  1.4771 -0.1444
  775MOL0     H 4583   5.227   6.152   6.816  0.5839  0.9087  0.0432
  775MOL0     H 4584   5.318   6.236   6.942  1.2557 -1.5227 -0.9778
  775MOL0     H 4585   4.959   6.482   6.826  0.3003  3.1215  0.6772
  775MOL0     H 4586   4.937   6.721   6.547 -1.1811  2.1220  0.3967
  775MOL0     H 4587   4.851   6.616   6.672  0.5975 -0.5526 -1.9417
  775MOL0     H 4588   4.974   6.751   6.713  1.2503 -2.0357  1.5104
  775MOL0     H 4589   5.037   7.053   6.504  0.3407  2.1241  3.1107
  775MOL0     H 4590   5.122   7.262   6.403 -0.7273 -0.5278 -1.2113
  775MOL0     H 4591   5.537   7.327   6.362  1.5447  2.9919 -0.9827
  775MOL0     H 4592   5.515   7.248   6.197  1.6305  3.1406 -1.8857
  775MOL0     H 4593   5.414   7.478   6.130  0.9736  0.8343 -0.1732
  775MOL0     H 4594   5.482   7.532   6.282  1.9309  2.1563 -1.5066
  775MOL0     H 4595   5.698   7.392   6.177 -2.6157 -2.5011 -0.7136
  775MOL0     H 4596   5.670   7.564   6.135 -1.5117  1.6560 -1.8892
  775MOL0     H 4597   5.554   7.359   5.937  1.2062 -2.8839  2.3409
  775MOL0     H 4598   5.566   7.537   5.934  1.2292  1.0821 -0.3074
  775MOL0     H 4599   5.820   7.430   5.970 -2.4678 -3.7757  1.1122
  775MOL0     H 4600   5.775   7.551   5.852  1.5558 -0.0480  2.1017
  775MOL0     H 4601   5.765   7.241   5.819 -1.3564 -0.1736 -1.0130
  775MOL0     H 4602   5.661   7.347   5.727 -0.8480  2.0427  0.6435
  775MOL0     H 4603   5.955   7.417   5.751  0.7847 -0.9903 -2.0307
  775MOL0     H 4604   5.843   7.472   5.623  2.1047  0.1474 -2.7417
  775MOL0     H 4605   5.982   7.303   5.506 -1.4087  0.7846 -0.7351
  775MOL0     H 4606   5.847   7.209   5.567  0.8172  0.2346 -4.3372
  775MOL0     H 4607   5.495   7.074   6.333 -0.2912  1.1462 -0.9281
  775MOL0     H 4608   5.416   6.857   6.395  0.5511  0.6644 -1.9089
  775MOL0     H 4609   5.359   6.515   6.553  0.3400  0.1202  1.1043
  775MOL0     H 4610   5.353   6.348   6.737  2.0433  1.9650  1.2650
  775MOL0     H 4611   5.585   4.763   7.567  1.9571 -1.8115  2.7241
  775MOL0     H 4612   5.574   4.556   7.666  0.4454 -3.2588  0.9007
  775MOL0     H 4613   5.628   4.106   7.832 -0.0486  0.9124  2.1120
  775MOL0     H 4614   5.551   3.898   7.919  0.3200  0.4638 -0.7711
  775MOL0     H 4615   5.462   3.695   7.986  0.1612 -1.3330  0.0145
  775MOL0     H 4616   5.339   3.582   7.914 -0.7227  0.4230  0.0082
  775MOL0     H 4617   5.569   3.692   7.767 -0.8349  0.8557  0.8953
  775MOL0     H 4618   5.461   3.563   7.703  1.1872 -2.3298 -0.1308
  775MOL0     H 4619   5.488   3.421   7.904  1.6468 -0.3325  2.3767
  775MOL0     H 4620   5.624   3.520   7.943  1.0518 -0.8977  0.2494
  775MOL0     H 4621   5.597   3.381   7.674  0.5880 -0.5158 -0.5361
  775MOL0     H 4622   5.679   3.311   7.804  2.2546 -0.3208 -2.4337
  775MOL0     H 4623   5.959   3.615   7.694  2.6627 -2.5100  0.9712
  775MOL0     H 4624   5.225   3.905   7.634 -1.6953  1.6362  0.5473
  775MOL0     H 4625   5.291   4.133   7.572  0.7788  0.1575 -0.2369
  776MOL0     O 4626   6.144   6.814   4.106  0.4715  0.2594  0.8767
  776MOL0     C 4627   6.264   6.797   4.124  0.0715 -0.5464 -0.3174
  776MOL0     O 4628   6.319   6.681   4.166 -0.0715  0.0089  0.2747
  776MOL0     C 4629   6.239   6.594   4.241 -0.6731 -0.6001  0.0805
  776MOL0     C 4630   6.158   6.642   4.341 -0.8275 -0.0603  0.1869
  776MOL0     C 4631   6.083   6.550   4.426 -0.7475  0.5873  0.7546
  776MOL0     C 4632   6.096   6.411   4.406 -0.1040  0.5046  0.0753
  776MOL0     O 4633   6.019   6.340   4.491  0.1010  0.3640 -0.2059
  776MOL0     C 4634   5.969   6.206   4.446 -0.5614 -0.4800  0.5625
  776MOL0     C 4635   6.029   6.100   4.544  0.8267  0.0960 -0.7860
  776MOL0     C 4636   5.985   5.955   4.523 -0.1275  1.0018 -0.5720
  776MOL0     C 4637   5.838   5.929   4.507  0.5178 -0.6818 -1.4422
  776MOL0     C 4638   5.825   5.782   4.465 -0.3220 -0.6611  0.3913
  776MOL0     C 4639   5.873   5.763   4.321 -0.0491 -0.3551 -0.5079
  776MOL0     C 4640   5.815   5.637   4.258  1.5182  1.6197 -0.6731
  776MOL0     C 4641   5.828   5.509   4.344 -0.7481 -0.7566  0.2847
  776MOL0     N 4642   5.958   5.458   4.344  0.1088 -0.1127 -0.0866
  776MOL0     C 4643   6.021   5.389   4.238 -0.1874  0.0454  0.1418
  776MOL0     C 4644   6.153   5.368   4.268  0.2167  0.0089 -0.1400
  776MOL0     C 4645   6.266   5.281   4.198 -0.2953 -1.8122 -0.5147
  776MOL0     C 4646   6.190   5.162   4.127 -0.2756 -0.8707  0.5439
  776MOL0     C 4647   6.282   5.060   4.059  0.0973  0.5599  0.2642
  776MOL0     C 4648   6.226   4.969   3.949  0.3979  0.4896  0.8132
  776MOL0     O 4649   6.130   4.880   4.007 -0.2106  0.0810 -0.0946
  776MOL0     C 4650   6.130   4.744   3.977  0.3138 -0.0129 -0.0320
  776MOL0     C 4651   6.050   4.661   4.053 -0.4400  0.5630 -0.3834
  776MOL0     C 4652   6.066   4.524   4.041  0.4549  0.1196 -0.7384
  776MOL0     C 4653   6.012   4.445   4.153 -0.3681 -0.1686 -0.0010
  776MOL0     C 4654   6.141   4.467   3.935  0.0213  0.7331 -0.3058
  776MOL0     C 4655   6.138   4.315   3.904  0.2306  0.0491 -0.6159
  776MOL0     O 4656   6.073   4.225   3.985  0.1773  0.7469 -0.8800
  776MOL0     C 4657   6.043   4.099   3.924  0.0966  0.2859 -1.2575
  776MOL0     C 4658   6.120   3.989   3.967 -0.2986 -0.4242  1.1248
  776MOL0     C 4659   6.100   3.869   3.900  0.5414  0.2036 -0.3578
  776MOL0     C 4660   6.008   3.845   3.797 -0.5135  0.0048  0.3675
  776MOL0     O 4661   5.997   3.730   3.722 -0.2754  0.5143  0.1516
  776MOL0     C 4662   6.061   3.737   3.589 -0.2811  0.1387  0.1968
  776MOL0     C 4663   6.082   3.601   3.515  0.3597  0.7355 -0.0265
  776MOL0     C 4664   6.112   3.632   3.366 -0.2478  0.3724 -0.2669
  776MOL0     C 4665   6.145   3.501   3.278  0.3799 -0.2726 -0.4729
  776MOL0     C 4666   6.198   3.545   3.141 -0.0313 -0.3544 -0.3743
  776MOL0     C 4667   6.233   3.421   3.047 -0.2495 -0.6183 -0.3402
  776MOL0     C 4668   6.115   3.330   3.000 -0.1284 -0.4231 -0.8369
  776MOL0     C 4669   6.141   3.234   2.889 -0.5069  0.3401  0.5438
  776MOL0    Cl 4670   6.298   3.140   2.905 -0.3294  0.1369  0.3030
  776MOL0     C 4671   5.932   3.955   3.761 -0.6848 -0.2333  0.4318
  776MOL0     C 4672   5.949   4.074   3.832  0.5118 -0.1060  0.3081
  776MOL0     O 4673   6.186   4.282   3.792  0.6058 -0.6479 -0.3001
  776MOL0     C 4674   6.208   4.550   3.848 -0.6899  0.3525 -0.1256
  776MOL0     C 4675   6.206   4.690   3.866  0.2924  0.9814  0.6853
  776MOL0     N 4676   6.169   5.435   4.390 -0.4298 -0.1694  0.5890
  776MOL0     N 4677   6.060   5.491   4.430 -0.5739  0.0072 -0.1327
  776MOL0     C 4678   6.179   6.363   4.302 -0.2483 -0.5775  0.1092
  776MOL0     C 4679   6.248   6.456   4.217 -0.0302  0.1080  0.7030
  776MOL0     C 4680   6.365   6.904   4.091 -0.3182 -0.0741 -0.0413
  776MOL0     C 4681   6.315   7.022   4.034  0.7917  0.4580  0.0272
  776MOL0     C 4682   6.398   7.128   4.010  0.1346  0.3165  0.8497
  776MOL0     C 4683   6.525   7.126   4.057  0.4459 -0.0038  0.2614
  776MOL0     O 4684   6.607   7.236   4.053 -0.5289 -0.1600 -0.4957
  776MOL0     C 4685   6.641   7.293   3.923  0.3182  0.2776 -0.0447
  776MOL0     C 4686   6.781   7.229   3.878  1.1810  0.0468 -0.8184
  776MOL0     C 4687   6.844   7.271   3.753  1.0922 -1.6394  0.1721
  776MOL0     C 4688   6.787   7.217   3.619 -0.5655 -0.4640  0.4522
  776MOL0     C 4689   6.834   7.088   3.575 -0.4646 -0.1499 -0.4210
  776MOL0     C 4690   6.884   6.983   3.541  0.1404  0.6797  0.3882
  776MOL0     C 4691   6.577   7.016   4.115  0.1381  0.4999  0.7752
  776MOL0     C 4692   6.497   6.909   4.139 -0.7156 -1.1607  1.1225
  776MOL0     H 4693   6.160   6.749   4.358  0.8927 -0.2071  1.2142
  776MOL0     H 4694   6.044   6.576   4.524  1.7684  0.0493  1.9947
  776MOL0     H 4695   5.860   6.199   4.451 -0.6640  1.0866  1.0020
  776MOL0     H 4696   6.002   6.174   4.347 -0.5723  1.3379 -0.0701
  776MOL0     H 4697   6.138   6.112   4.534  1.2409 -0.2167  2.4970
  776MOL0     H 4698   6.004   6.141   4.642 -0.1683  1.9086 -1.7576
  776MOL0     H 4699   6.030   5.933   4.426 -2.1961  0.6870 -1.5279
  776MOL0     H 4700   6.021   5.888   4.602 -0.0848 -0.7430 -2.0004
  776MOL0     H 4701   5.777   5.950   4.595 -0.8709  1.0356 -2.7691
  776MOL0     H 4702   5.795   5.994   4.431 -1.0719 -1.6269 -1.3978
  776MOL0     H 4703   5.878   5.711   4.529  0.4355 -1.5175 -1.1233
  776MOL0     H 4704   5.719   5.760   4.472 -0.3609 -1.0063 -1.0649
  776MOL0     H 4705   5.848   5.853   4.264  3.1475  0.9475 -0.0924
  776MOL0     H 4706   5.983   5.766   4.326 -0.0529  1.2304 -0.9287
  776MOL0     H 4707   5.707   5.652   4.252  1.3215  1.1698  1.1546
  776MOL0     H 4708   5.856   5.622   4.157 -0.5638 -0.3488 -1.2976
  776MOL0     H 4709   5.758   5.428   4.318  1.0465 -2.7376  1.3635
  776MOL0     H 4710   5.809   5.539   4.447  1.0990 -1.9979  1.0416
  776MOL0     H 4711   5.976   5.341   4.151  0.7915 -2.4444  0.9141
  776MOL0     H 4712   6.313   5.332   4.114 -1.9254 -1.7280 -1.4338
  776MOL0     H 4713   6.349   5.260   4.266 -0.5219  0.6671  0.6498
  776MOL0     H 4714   6.131   5.205   4.046  2.0473  1.3854 -0.0699
  776MOL0     H 4715   6.124   5.109   4.197  0.7976 -1.6092  1.0397
  776MOL0     H 4716   6.315   4.989   4.136  1.0707 -0.8465 -1.3522
  776MOL0     H 4717   6.375   5.108   4.028  1.4456 -2.0630 -0.0647
  776MOL0     H 4718   6.313   4.917   3.906 -0.9032  1.5256 -3.6034
  776MOL0     H 4719   6.184   5.029   3.868 -0.2775 -0.4973  0.4031
  776MOL0     H 4720   5.987   4.706   4.130 -1.3425  1.5080 -1.6270
  776MOL0     H 4721   5.947   4.365   4.116  0.7574 -0.8631 -0.5097
  776MOL0     H 4722   6.097   4.397   4.201 -0.3528  0.8705  1.0757
  776MOL0     H 4723   5.953   4.509   4.221  0.3483  0.1726  0.3090
  776MOL0     H 4724   6.198   4.007   4.040 -1.0610  2.8000  1.2995
  776MOL0     H 4725   6.162   3.786   3.933  2.1961  2.7450  3.7076
  776MOL0     H 4726   6.009   3.810   3.526  0.4772  1.9411  1.5502
  776MOL0     H 4727   6.162   3.780   3.597 -0.3832  0.4620 -0.2434
  776MOL0     H 4728   6.160   3.542   3.563 -1.9103 -0.5568  2.3552
  776MOL0     H 4729   5.990   3.543   3.526  1.7733 -1.3941  1.1512
  776MOL0     H 4730   6.202   3.694   3.356  0.8267 -1.5164 -3.8832
  776MOL0     H 4731   6.035   3.685   3.310 -0.3312 -1.0840 -1.6111
  776MOL0     H 4732   6.219   3.437   3.327  1.2105 -0.2329 -1.6411
  776MOL0     H 4733   6.056   3.441   3.256 -1.5691  2.0812  0.4399
  776MOL0     H 4734   6.290   3.601   3.161  1.6398 -2.6408 -1.2564
  776MOL0     H 4735   6.132   3.620   3.096 -1.0372  0.5187  2.3431
  776MOL0     H 4736   6.289   3.454   2.959  2.2853 -3.5958 -0.0284
  776MOL0     H 4737   6.298   3.349   3.097  1.5915 -0.4281 -2.3361
  776MOL0     H 4738   6.034   3.394   2.963 -0.3037  2.4222  3.6776
  776MOL0     H 4739   6.090   3.282   3.094  1.1462 -1.2703 -0.9111
  776MOL0     H 4740   6.136   3.295   2.798  1.2843 -0.2687 -0.0042
  776MOL0     H 4741   6.055   3.167   2.880 -0.3570  0.2242 -0.1091
  776MOL0     H 4742   5.868   3.937   3.675  0.3884  4.7173 -1.7411
  776MOL0     H 4743   5.889   4.160   3.803 -1.2700 -0.9844  1.2058
  776MOL0     H 4744   6.264   4.498   3.771  3.3634  0.7094  2.3009
  776MOL0     H 4745   6.265   4.756   3.803  1.4343 -0.0393  0.6489
  776MOL0     H 4746   6.204   6.262   4.271  0.3336 -0.6982  0.9423
  776MOL0     H 4747   6.308   6.431   4.129  1.2859  1.0700  1.3093
  776MOL0     H 4748   6.216   7.006   3.992  0.6182  0.9995  0.2113
  776MOL0     H 4749   6.357   7.214   3.957  1.8539  0.5630 -0.1527
  776MOL0     H 4750   6.560   7.277   3.852  1.2135  2.9115 -1.7971
  776MOL0     H 4751   6.651   7.399   3.948 -0.7221  1.0016 -2.3924
  776MOL0     H 4752   6.760   7.122   3.874 -3.3262  0.6253  1.3741
  776MOL0     H 4753   6.840   7.243   3.969  1.9963 -0.0842 -1.3194
  776MOL0     H 4754   6.952   7.251   3.750  1.2760 -0.6731 -0.1847
  776MOL0     H 4755   6.841   7.381   3.754  2.3304 -1.5910  0.3504
  776MOL0     H 4756   6.807   7.272   3.527 -0.6685  2.1792  1.9058
  776MOL0     H 4757   6.679   7.223   3.630 -0.8250  1.1792 -2.0625
  776MOL0     H 4758   6.930   6.891   3.511 -3.5969 -0.7261 -1.6534
  776MOL0     H 4759   6.675   7.021   4.161  0.5177 -0.0166  0.0367
  776MOL0     H 4760   6.545   6.827   4.190 -0.9313 -1.8506  0.2419
  777MOL0     O 4761   0.973   3.864   4.036  0.6644  0.0198 -0.0095
  777MOL0     C 4762   1.021   3.803   3.938 -0.1751 -0.8373  0.6053
  777MOL0     O 4763   0.948   3.771   3.834  0.2226 -0.3631  0.4276
  777MOL0     C 4764   0.819   3.784   3.832 -0.8637  0.2366  1.0996
  777MOL0     C 4765   0.764   3.914   3.822  0.3889  0.3674  0.2564
  777MOL0     C 4766   0.625   3.931   3.823  0.3199 -0.6463  0.4145
  777MOL0     C 4767   0.543   3.814   3.829 -0.7714  0.2223  0.3427
  777MOL0     O 4768   0.404   3.818   3.839  0.1462 -0.0354  0.1372
  777MOL0     C 4769   0.338   3.945   3.821 -0.3967 -0.0011  0.1720
  777MOL0     C 4770   0.189   3.930   3.817  0.3176 -0.7694  0.0229
  777MOL0     C 4771   0.127   4.072   3.822 -0.8735  0.1498  0.8977
  777MOL0     C 4772  -0.020   4.076   3.824 -0.6337  0.1636  0.6418
  777MOL0     C 4773  -0.069   4.209   3.862 -0.0247  0.3088  0.8662
  777MOL0     C 4774  -0.224   4.228   3.854  0.4180  0.1976 -0.0877
  777MOL0     C 4775  -0.261   4.377   3.881 -0.3767 -0.2443 -0.2318
  777MOL0     C 4776  -0.411   4.393   3.856  0.7534  0.0398 -0.0343
  777MOL0     N 4777  -0.449   4.530   3.833  0.4486 -0.6440  0.4385
  777MOL0     C 4778  -0.439   4.635   3.922 -0.0229  0.1538  0.0886
  777MOL0     C 4779  -0.439   4.751   3.855 -0.1678  0.5416 -0.6649
  777MOL0     C 4780  -0.388   4.881   3.922  0.1170  0.1385  0.0751
  777MOL0     C 4781  -0.500   4.939   4.002 -0.8291  0.5432 -0.5992
  777MOL0     C 4782  -0.631   4.954   3.927 -0.1316 -1.0284 -0.5938
  777MOL0     C 4783  -0.740   5.010   4.013 -0.8785  1.1091  0.0615
  777MOL0     O 4784  -0.871   4.977   3.973  0.1029  0.0179  0.3896
  777MOL0     C 4785  -0.927   5.015   3.853 -0.0009 -0.7371  0.0804
  777MOL0     C 4786  -0.872   5.121   3.777 -0.2058 -0.3838 -0.6635
  777MOL0     C 4787  -0.930   5.164   3.657 -0.1502  0.1875 -0.2876
  777MOL0     C 4788  -0.851   5.275   3.583 -0.1053  0.3333  0.1213
  777MOL0     C 4789  -1.037   5.092   3.604  0.1378 -0.3320 -0.0057
  777MOL0     C 4790  -1.109   5.124   3.475 -0.3392 -0.1831 -0.1260
  777MOL0     O 4791  -1.096   5.246   3.414 -0.1804  0.5079 -0.0813
  777MOL0     C 4792  -1.167   5.260   3.296 -0.3948  0.8085 -0.5934
  777MOL0     C 4793  -1.301   5.250   3.312  0.1441 -0.9789  1.1788
  777MOL0     C 4794  -1.390   5.242   3.207 -0.8442 -0.0992 -0.0087
  777MOL0     C 4795  -1.338   5.251   3.071  0.0228 -0.3741  0.3338
  777MOL0     O 4796  -1.436   5.255   2.975 -0.2921 -0.0097 -0.1376
  777MOL0     C 4797  -1.398   5.245   2.837 -0.1341 -0.6010  0.3751
  777MOL0     C 4798  -1.369   5.098   2.798  0.5799 -0.3757 -0.2718
  777MOL0     C 4799  -1.424   5.051   2.667 -0.5034 -1.0990  0.4096
  777MOL0     C 4800  -1.375   5.142   2.549 -0.6963 -0.1256 -0.0542
  777MOL0     C 4801  -1.368   5.076   2.408  0.2060  0.0787  0.7468
  777MOL0     C 4802  -1.329   5.169   2.298 -1.1866 -0.0260  0.5225
  777MOL0     C 4803  -1.442   5.245   2.239 -0.4660  0.5106  0.4991
  777MOL0     C 4804  -1.412   5.330   2.119  0.2197  0.5473  0.3400
  777MOL0    Cl 4805  -1.303   5.249   2.000 -0.0830 -0.4240 -0.3084
  777MOL0     C 4806  -1.198   5.263   3.054 -0.1615  0.2772  0.1498
  777MOL0     C 4807  -1.115   5.268   3.161 -0.4929  1.2232  0.9539
  777MOL0     O 4808  -1.168   5.028   3.430  0.8111 -0.1123 -0.0686
  777MOL0     C 4809  -1.095   4.991   3.680 -0.2727 -0.7988  0.4745
  777MOL0     C 4810  -1.051   4.961   3.808 -0.3653  0.4656 -0.7424
  777MOL0     N 4811  -0.460   4.722   3.724  0.6915  0.5231  0.4120
  777MOL0     N 4812  -0.475   4.592   3.710 -0.9888  0.2726 -0.3864
  777MOL0     C 4813   0.601   3.691   3.834 -0.0296 -0.4163  0.9721
  777MOL0     C 4814   0.739   3.672   3.844 -0.5709  0.8345  1.2278
  777MOL0     C 4815   1.169   3.791   3.932 -0.0246 -0.7878 -0.5571
  777MOL0     C 4816   1.249   3.845   4.034 -1.0158  0.2718  0.5788
  777MOL0     C 4817   1.391   3.845   4.017 -0.7050  0.5696 -0.2039
  777MOL0     C 4818   1.453   3.794   3.900 -0.2590  0.3224  0.1480
  777MOL0     O 4819   1.588   3.779   3.879 -0.0748 -0.2212  0.3320
  777MOL0     C 4820   1.669   3.876   3.949 -0.5293 -0.2432 -0.1879
  777MOL0     C 4821   1.827   3.850   3.936  0.3325  0.1196  0.3301
  777MOL0     C 4822   1.880   3.880   3.799 -0.9295  0.2028 -0.5909
  777MOL0     C 4823   2.030   3.850   3.789 -0.2478  0.9457 -0.2718
  777MOL0     C 4824   2.046   3.705   3.790 -0.3206  0.2199  0.4042
  777MOL0     C 4825   2.048   3.581   3.781  0.2158 -0.0776 -0.2318
  777MOL0     C 4826   1.370   3.735   3.803 -0.0211 -0.5929 -0.1408
  777MOL0     C 4827   1.231   3.732   3.825 -0.8828  1.0598  0.7918
  777MOL0     H 4828   0.826   4.002   3.837  1.2440 -0.5392  2.4600
  777MOL0     H 4829   0.580   4.029   3.830  1.4440  0.0783 -1.7903
  777MOL0     H 4830   0.369   4.013   3.901  2.5635  0.0534 -0.9197
  777MOL0     H 4831   0.373   3.994   3.730  2.0490 -0.0384  1.0149
  777MOL0     H 4832   0.149   3.891   3.723 -1.1068  2.5763 -0.8924
  777MOL0     H 4833   0.139   3.876   3.898 -2.6340 -1.0109 -1.8102
  777MOL0     H 4834   0.155   4.112   3.920 -0.2549 -2.4946  1.8791
  777MOL0     H 4835   0.162   4.149   3.752  0.0079 -1.5700 -0.6353
  777MOL0     H 4836  -0.051   4.061   3.720  2.3063  0.7586 -0.4036
  777MOL0     H 4837  -0.068   3.997   3.883  2.4432 -0.5431  2.4184
  777MOL0     H 4838  -0.041   4.228   3.966  0.6598  1.0279  0.5603
  777MOL0     H 4839  -0.016   4.287   3.809 -0.5248 -1.1019 -1.9148
  777MOL0     H 4840  -0.276   4.194   3.764 -0.1252 -0.8452  0.5938
  777MOL0     H 4841  -0.273   4.167   3.931  2.8807  2.2206  3.3492
  777MOL0     H 4842  -0.224   4.406   3.980  1.2573 -1.4564 -0.4460
  777MOL0     H 4843  -0.209   4.439   3.808 -0.1349  1.0393  0.9955
  777MOL0     H 4844  -0.464   4.349   3.941  0.4481 -1.2967 -0.8815
  777MOL0     H 4845  -0.446   4.335   3.770  0.7106 -1.5123  0.9871
  777MOL0     H 4846  -0.408   4.621   4.025  0.4630  0.6738  0.0141
  777MOL0     H 4847  -0.299   4.865   3.984  0.4436 -2.3796 -0.9113
  777MOL0     H 4848  -0.357   4.941   3.836 -0.3449  0.2443 -0.0206
  777MOL0     H 4849  -0.488   5.042   4.037 -2.2282 -0.2528  2.5767
  777MOL0     H 4850  -0.502   4.885   4.097  2.8120  0.5883 -0.3398
  777MOL0     H 4851  -0.661   4.853   3.896 -0.1412 -1.3798  0.5317
  777MOL0     H 4852  -0.618   5.019   3.840 -3.5973 -2.4389 -2.3622
  777MOL0     H 4853  -0.734   5.117   4.033 -2.6330  1.2572 -0.0128
  777MOL0     H 4854  -0.729   4.953   4.106 -1.4331 -2.9962 -2.1665
  777MOL0     H 4855  -0.779   5.174   3.798  0.3684  0.1793 -4.1279
  777MOL0     H 4856  -0.790   5.345   3.641  1.9683  0.4061 -2.0267
  777MOL0     H 4857  -0.789   5.227   3.507 -2.2896 -1.0111 -0.9145
  777MOL0     H 4858  -0.919   5.346   3.535  0.0894  1.7082  1.7683
  777MOL0     H 4859  -1.318   5.254   3.419  0.5235  0.1003  1.2090
  777MOL0     H 4860  -1.497   5.241   3.222 -1.0988 -2.5666 -1.3598
  777MOL0     H 4861  -1.487   5.274   2.779  1.5415  0.2608 -1.9198
  777MOL0     H 4862  -1.313   5.309   2.812 -0.7480 -0.5423 -1.8359
  777MOL0     H 4863  -1.264   5.073   2.819 -0.8988 -3.4990  6.0637
  777MOL0     H 4864  -1.430   5.045   2.873 -2.7113  5.5547  1.8875
  777MOL0     H 4865  -1.531   5.064   2.684 -1.1432 -4.9342  0.2428
  777MOL0     H 4866  -1.404   4.946   2.644 -1.7205 -0.7595 -2.6348
  777MOL0     H 4867  -1.444   5.226   2.548 -0.8857 -0.2688 -1.3004
  777MOL0     H 4868  -1.279   5.182   2.582 -0.8523 -1.4290  2.1928
  777MOL0     H 4869  -1.468   5.035   2.389 -0.2970  1.6103 -0.0628
  777MOL0     H 4870  -1.290   5.000   2.419  1.6480  1.5695  1.1950
  777MOL0     H 4871  -1.262   5.235   2.354 -1.3946 -0.3890  1.2123
  777MOL0     H 4872  -1.273   5.116   2.220  0.6834  2.7051 -0.1618
  777MOL0     H 4873  -1.485   5.304   2.321  2.6297 -0.4089  2.9521
  777MOL0     H 4874  -1.523   5.174   2.216  0.8198 -1.1844  0.9706
  777MOL0     H 4875  -1.357   5.417   2.157  1.9112 -1.1121  1.9475
  777MOL0     H 4876  -1.512   5.358   2.085  0.2707  0.7032  0.3196
  777MOL0     H 4877  -1.154   5.269   2.955 -2.8264  1.6715 -1.0655
  777MOL0     H 4878  -1.010   5.292   3.147  0.0583 -0.3390  2.0946
  777MOL0     H 4879  -1.179   4.931   3.647 -0.7335  0.5521 -0.9123
  777MOL0     H 4880  -1.093   4.879   3.865  1.3615  0.4521  0.6091
  777MOL0     H 4881   0.530   3.608   3.834 -0.1831 -0.2863  0.7349
  777MOL0     H 4882   0.773   3.570   3.859 -3.4043 -0.8264 -2.1171
  777MOL0     H 4883   1.205   3.892   4.122 -2.0267  2.7579 -1.1391
  777MOL0     H 4884   1.443   3.892   4.099 -0.3355  0.5424 -0.4167
  777MOL0     H 4885   1.646   3.978   3.916  0.6464  0.2670  0.5167
  777MOL0     H 4886   1.649   3.855   4.055  3.5400 -1.4089  0.5138
  777MOL0     H 4887   1.850   3.750   3.974 -3.1423  0.4513  3.9512
  777MOL0     H 4888   1.879   3.923   3.998 -0.3574  0.9680 -0.0685
  777MOL0     H 4889   1.859   3.986   3.786 -1.3161  0.1213 -0.6606
  777MOL0     H 4890   1.832   3.814   3.726  0.1205 -4.1624  2.2652
  777MOL0     H 4891   2.087   3.878   3.878 -0.5462 -2.5477  1.1982
  777MOL0     H 4892   2.080   3.880   3.697  1.2389  1.1877  0.5938
  777MOL0     H 4893   2.036   3.476   3.765 -0.4110 -0.4538  2.2567
  777MOL0     H 4894   1.403   3.683   3.714 -3.2136  0.3242 -2.0198
  777MOL0     H 4895   1.176   3.673   3.753 -0.6613  2.3289 -0.4585
  778MOL0     O 4896   4.227   4.894   3.018 -0.1523  1.2372  0.1562
  778MOL0     C 4897   4.211   4.980   2.933 -1.0574 -0.9774  0.3056
  778MOL0     O 4898   4.129   5.094   2.943  0.9283  0.1713  0.6479
  778MOL0     C 4899   4.033   5.087   3.038  0.4469  0.2340 -0.2891
  778MOL0     C 4900   4.063   5.138   3.166 -0.4338 -0.0145  0.1015
  778MOL0     C 4901   3.975   5.136   3.272  0.5929  0.0991 -0.5757
  778MOL0     C 4902   3.856   5.065   3.256  1.0996 -0.1830 -0.5194
  778MOL0     O 4903   3.779   5.072   3.370 -0.3918  0.2529 -0.8997
  778MOL0     C 4904   3.657   4.988   3.377  0.5329  0.0295  0.4028
  778MOL0     C 4905   3.640   4.979   3.533 -0.4094  0.1903  0.6505
  778MOL0     C 4906   3.521   4.901   3.581 -0.3465 -0.5233 -0.8393
  778MOL0     C 4907   3.495   4.941   3.733  0.0267  0.4315 -0.2506
  778MOL0     C 4908   3.386   4.849   3.800 -0.2806  0.3631 -0.2094
  778MOL0     C 4909   3.371   4.888   3.947  0.0253 -0.4422  0.0968
  778MOL0     C 4910   3.253   4.839   4.015 -0.0122 -0.1910 -0.1074
  778MOL0     C 4911   3.269   4.690   4.067  0.4002 -0.0956 -0.7458
  778MOL0     N 4912   3.344   4.674   4.194 -0.7766 -1.3016  0.0375
  778MOL0     C 4913   3.286   4.674   4.318 -0.3499  0.2272  0.0043
  778MOL0     C 4914   3.379   4.652   4.405 -1.1723  0.5661  0.6939
  778MOL0     C 4915   3.361   4.625   4.552 -0.7079  0.2361  0.2507
  778MOL0     C 4916   3.260   4.506   4.578 -0.2539 -0.5202  0.3099
  778MOL0     C 4917   3.308   4.373   4.529 -0.0933 -0.4665  0.2033
  778MOL0     C 4918   3.450   4.338   4.569  0.4712  0.2252 -0.1013
  778MOL0     O 4919   3.499   4.393   4.697  0.7042 -0.1201  0.0638
  778MOL0     C 4920   3.626   4.349   4.728 -0.1017  0.6859 -0.9763
  778MOL0     C 4921   3.740   4.337   4.649  0.0542 -0.0961  0.5518
  778MOL0     C 4922   3.873   4.330   4.694  0.2578  0.4761 -0.1779
  778MOL0     C 4923   3.985   4.325   4.584 -0.4141 -0.7396 -0.9822
  778MOL0     C 4924   3.898   4.350   4.832 -0.4846  0.3150  0.0593
  778MOL0     C 4925   4.034   4.362   4.891  0.2061 -0.9960 -0.0121
  778MOL0     O 4926   4.040   4.392   5.022 -0.5021  0.0837  0.4959
  778MOL0     C 4927   4.165   4.403   5.081  0.2720  0.2458 -0.7260
  778MOL0     C 4928   4.209   4.311   5.173  0.1870  0.2979 -0.2508
  778MOL0     C 4929   4.335   4.336   5.237  0.7832  0.7189 -0.3103
  778MOL0     C 4930   4.412   4.449   5.208  0.7037  0.3121  0.0163
  778MOL0     O 4931   4.520   4.487   5.280 -0.5787  0.1728 -0.2967
  778MOL0     C 4932   4.629   4.404   5.304  0.4115 -0.0517 -0.6755
  778MOL0     C 4933   4.666   4.394   5.449 -1.1560  0.2915 -0.1554
  778MOL0     C 4934   4.566   4.313   5.527  0.5468  0.4330  1.2247
  778MOL0     C 4935   4.454   4.390   5.586  0.3705 -0.2409 -0.6841
  778MOL0     C 4936   4.389   4.315   5.705 -0.2032 -0.8040  0.0381
  778MOL0     C 4937   4.306   4.192   5.672 -0.4241 -0.4051  0.5359
  778MOL0     C 4938   4.207   4.164   5.781  0.4156 -0.0753  0.3395
  778MOL0     C 4939   4.176   4.013   5.789 -0.7635 -0.8366  0.1320
  778MOL0    Cl 4940   4.286   3.957   5.904 -0.5494 -0.5240 -0.1000
  778MOL0     C 4941   4.366   4.540   5.108  0.3094  0.1560  1.6560
  778MOL0     C 4942   4.237   4.517   5.046  0.2578 -0.6091  0.0661
  778MOL0     O 4943   4.134   4.342   4.818 -0.2005  0.0612 -0.6183
  778MOL0     C 4944   3.786   4.346   4.915  0.7339  0.4498  0.1969
  778MOL0     C 4945   3.654   4.343   4.863  0.3321  0.4061  0.8167
  778MOL0     N 4946   3.494   4.669   4.335  0.5507  0.8683  0.0422
  778MOL0     N 4947   3.479   4.668   4.212  0.2335 -0.1261  0.0440
  778MOL0     C 4948   3.830   5.005   3.125  0.3589 -0.5341 -0.2655
  778MOL0     C 4949   3.913   5.013   3.018 -0.7539 -0.3027 -0.0863
  778MOL0     C 4950   4.293   4.972   2.807  0.1219 -0.1285 -0.4044
  778MOL0     C 4951   4.307   5.091   2.729 -0.1736  0.2962 -0.5826
  778MOL0     C 4952   4.372   5.085   2.610 -0.8129 -0.3221  0.8978
  778MOL0     C 4953   4.440   4.965   2.575  0.6779  0.3480  0.3991
  778MOL0     O 4954   4.502   4.963   2.458  0.8074  0.0333  0.5951
  778MOL0     C 4955   4.546   4.840   2.401 -0.3361 -0.1402 -0.5738
  778MOL0     C 4956   4.597   4.868   2.259  0.6897 -0.2320 -0.9070
  778MOL0     C 4957   4.723   4.957   2.248 -0.0785 -0.0604 -0.1976
  778MOL0     C 4958   4.753   5.071   2.355 -0.3503  0.6847  1.0820
  778MOL0     C 4959   4.828   4.998   2.463 -0.3277 -0.0712  0.2948
  778MOL0     C 4960   4.890   4.933   2.544  0.4903  0.3484  0.0099
  778MOL0     C 4961   4.427   4.847   2.646  1.0201  1.3171 -0.8844
  778MOL0     C 4962   4.336   4.851   2.754 -1.0907  0.5625  0.1067
  778MOL0     H 4963   4.165   5.173   3.185 -0.5500  1.7415 -2.1472
  778MOL0     H 4964   4.003   5.175   3.369 -2.4584  0.5960  0.2105
  778MOL0     H 4965   3.572   5.033   3.325 -2.1352 -0.7213  3.7572
  778MOL0     H 4966   3.680   4.891   3.332 -1.7923 -0.3129 -0.1976
  778MOL0     H 4967   3.735   4.937   3.566  0.0568  1.7962  1.4892
  778MOL0     H 4968   3.640   5.084   3.564  2.5435  0.8205 -1.0871
  778MOL0     H 4969   3.429   4.926   3.527 -1.9666  0.2043  2.0126
  778MOL0     H 4970   3.531   4.793   3.574  0.8267 -0.4474 -0.5830
  778MOL0     H 4971   3.583   4.923   3.795 -0.1539 -0.1499 -0.1546
  778MOL0     H 4972   3.468   5.047   3.728  2.7852  1.6054  4.3435
  778MOL0     H 4973   3.292   4.848   3.744 -2.3189 -2.8806  2.8931
  778MOL0     H 4974   3.427   4.748   3.797  2.0899  1.2507  0.6026
  778MOL0     H 4975   3.467   4.858   3.991  1.3519  2.3556 -0.6283
  778MOL0     H 4976   3.361   4.997   3.945 -2.3622 -0.5586 -3.5745
  778MOL0     H 4977   3.231   4.895   4.106 -0.6128 -0.4066 -0.1136
  778MOL0     H 4978   3.166   4.865   3.955  1.3951 -1.4648 -2.8701
  778MOL0     H 4979   3.320   4.634   3.987  1.6090 -1.4743  0.8988
  778MOL0     H 4980   3.172   4.650   4.096  1.4522 -0.7881  2.1792
  778MOL0     H 4981   3.180   4.669   4.338 -0.5150  0.3950 -0.7875
  778MOL0     H 4982   3.459   4.607   4.596 -1.7692 -0.7796  2.3378
  778MOL0     H 4983   3.318   4.710   4.607 -3.9991 -0.1033 -1.5145
  778MOL0     H 4984   3.164   4.518   4.527 -1.0763 -2.6714  1.2156
  778MOL0     H 4985   3.238   4.497   4.685  0.8743 -0.0991  0.5873
  778MOL0     H 4986   3.309   4.375   4.419 -2.0865  1.9340  0.1405
  778MOL0     H 4987   3.243   4.292   4.564  1.4792 -1.6256  0.5379
  778MOL0     H 4988   3.519   4.363   4.487  0.0290 -0.9178 -0.8518
  778MOL0     H 4989   3.455   4.229   4.572 -0.4289  0.1375 -1.1728
  778MOL0     H 4990   3.724   4.350   4.543  0.8331  0.8099  0.5346
  778MOL0     H 4991   4.046   4.410   4.615 -1.3124 -0.8041  1.1728
  778MOL0     H 4992   4.039   4.230   4.583  2.3009  0.6298  1.4818
  778MOL0     H 4993   3.958   4.352   4.482  2.1013 -0.7561 -1.7127
  778MOL0     H 4994   4.147   4.228   5.205  2.4071 -1.0095  0.9177
  778MOL0     H 4995   4.365   4.279   5.325  1.8856  0.7049 -0.6718
  778MOL0     H 4996   4.617   4.306   5.256 -0.1801 -0.1810 -0.2717
  778MOL0     H 4997   4.721   4.446   5.262  1.5520 -0.2584  1.4841
  778MOL0     H 4998   4.764   4.345   5.450 -0.2372  1.9876 -1.9410
  778MOL0     H 4999   4.678   4.486   5.508  1.9647 -0.5582  0.7113
  778MOL0     H 5000   4.629   4.263   5.601  4.0330 -1.1162 -2.3774
  778MOL0     H 5001   4.518   4.234   5.468  0.3888  3.1571 -2.6567
  778MOL0     H 5002   4.495   4.481   5.629 -0.2923 -0.2902  0.0725
  778MOL0     H 5003   4.378   4.420   5.513 -0.3603  1.5998  0.7567
  778MOL0     H 5004   4.337   4.386   5.770  2.0730  3.4000 -2.3597
  778MOL0     H 5005   4.480   4.282   5.756 -0.8200 -1.9874  0.4302
  778MOL0     H 5006   4.251   4.230   5.585  0.9865  2.2683  0.6790
  778MOL0     H 5007   4.364   4.102   5.654  0.2686  0.1795 -0.2256
  778MOL0     H 5008   4.112   4.207   5.746  0.8029  0.9143  0.4809
  778MOL0     H 5009   4.227   4.204   5.881 -2.0766  0.2810  0.7636
  778MOL0     H 5010   4.185   3.954   5.697  3.7206 -4.6788  2.5569
  778MOL0     H 5011   4.072   4.007   5.823 -1.2021  3.4616  0.0747
  778MOL0     H 5012   4.418   4.632   5.084 -1.0229  1.3941  3.2859
  778MOL0     H 5013   4.190   4.581   4.972  0.7582 -1.0585 -0.6654
  778MOL0     H 5014   3.806   4.343   5.022  1.8332 -0.4680 -0.0184
  778MOL0     H 5015   3.592   4.374   4.947 -0.1832  1.4290  0.0863
  778MOL0     H 5016   3.733   4.961   3.107  0.9453 -0.8419 -3.2082
  778MOL0     H 5017   3.890   4.976   2.918 -0.3233  0.6770 -0.5660
  778MOL0     H 5018   4.264   5.187   2.760 -3.4212 -1.0428 -0.5036
  778MOL0     H 5019   4.363   5.156   2.529  3.4924  0.0177  0.4772
  778MOL0     H 5020   4.635   4.806   2.455 -1.0622  0.0212  0.7793
  778MOL0     H 5021   4.472   4.760   2.411  1.3173 -1.5703  0.7616
  778MOL0     H 5022   4.512   4.923   2.216  0.7817  0.3883 -0.3094
  778MOL0     H 5023   4.608   4.773   2.206  3.1968 -1.3299  1.3997
  778MOL0     H 5024   4.715   5.011   2.154 -1.8306  0.3975  0.1654
  778MOL0     H 5025   4.812   4.894   2.245  0.4321  0.6517 -3.0542
  778MOL0     H 5026   4.663   5.116   2.398  0.5112 -0.5807  4.5639
  778MOL0     H 5027   4.827   5.142   2.317  1.2532 -0.4244  2.0111
  778MOL0     H 5028   4.940   4.866   2.612 -1.8734 -0.7252  0.7824
  778MOL0     H 5029   4.456   4.748   2.612  0.1019  1.3986 -1.9826
  778MOL0     H 5030   4.308   4.761   2.807  0.4431  1.1248  2.0184
  779MOL0     O 5031   4.774  10.218   7.799 -0.3443  0.4184 -0.1519
  779MOL0     C 5032   4.720  10.318   7.828  0.2274 -0.5468  0.0735
  779MOL0     O 5033   4.632  10.394   7.740 -0.3353 -0.5323  0.0159
  779MOL0     C 5034   4.588  10.335   7.621 -1.1098 -0.3753  0.4077
  779MOL0     C 5035   4.539  10.199   7.611  0.5154 -0.3170 -0.7743
  779MOL0     C 5036   4.517  10.133   7.493 -0.1143 -0.4791  0.9362
  779MOL0     C 5037   4.532  10.209   7.372  0.1003 -0.0984  0.7602
  779MOL0     O 5038   4.524  10.136   7.252  0.6171 -0.6129  0.4770
  779MOL0     C 5039   4.488  10.212   7.136  0.4741 -0.7878  0.4875
  779MOL0     C 5040   4.480  10.125   7.011 -0.6326 -0.3626  0.4383
  779MOL0     C 5041   4.376  10.013   7.011 -0.1156 -0.0576 -0.5512
  779MOL0     C 5042   4.339   9.958   6.875  0.4670 -0.4179  0.2322
  779MOL0     C 5043   4.212   9.869   6.872  0.3926 -0.5522 -0.5774
  779MOL0     C 5044   4.088   9.949   6.925  0.7369 -0.5954  0.4964
  779MOL0     C 5045   3.959   9.859   6.904 -0.1257 -0.3998 -0.1008
  779MOL0     C 5046   3.952   9.753   7.023 -0.5215 -0.6014 -0.0691
  779MOL0     N 5047   3.820   9.697   7.015  0.7790 -0.5999 -0.0583
  779MOL0     C 5048   3.781   9.588   6.945 -0.2562 -0.3033  0.1086
  779MOL0     C 5049   3.647   9.588   6.945 -0.3268  0.1039 -0.1668
  779MOL0     C 5050   3.559   9.487   6.870 -0.0063  0.3663 -0.5763
  779MOL0     C 5051   3.564   9.481   6.720 -0.0475 -0.1198 -1.0716
  779MOL0     C 5052   3.532   9.624   6.666 -0.5855 -0.7233 -0.2253
  779MOL0     C 5053   3.588   9.651   6.526 -0.8454 -0.6426  0.3518
  779MOL0     O 5054   3.731   9.647   6.523 -0.8395  0.0725  0.1958
  779MOL0     C 5055   3.814   9.763   6.515  1.2305  0.2841 -1.6770
  779MOL0     C 5056   3.786   9.887   6.575 -0.5330  0.7388 -0.1985
  779MOL0     C 5057   3.877   9.998   6.561  1.7858 -0.0743  0.0305
  779MOL0     C 5058   3.843  10.128   6.633  0.1021  0.8110 -0.2608
  779MOL0     C 5059   3.981   9.990   6.470  0.1856  0.2917  0.9655
  779MOL0     C 5060   4.076  10.101   6.436  0.9627  0.0443 -0.3231
  779MOL0     O 5061   4.105  10.115   6.313  0.1868  0.1334 -0.1149
  779MOL0     C 5062   4.180  10.226   6.274  0.3514  0.4484  0.7638
  779MOL0     C 5063   4.114  10.350   6.254  0.2860 -0.9404  0.2391
  779MOL0     C 5064   4.184  10.451   6.186  0.2191  0.1624  0.0083
  779MOL0     C 5065   4.318  10.444   6.150  0.3902  0.6109  0.5632
  779MOL0     O 5066   4.373  10.567   6.105  0.7857 -0.0673 -0.4681
  779MOL0     C 5067   4.510  10.563   6.069  0.6223 -0.1982  0.3111
  779MOL0     C 5068   4.520  10.541   5.917  0.0609  0.0842 -0.2201
  779MOL0     C 5069   4.406  10.621   5.842 -0.6157 -0.1105 -0.5484
  779MOL0     C 5070   4.433  10.651   5.700 -0.4637  0.1961 -0.5525
  779MOL0     C 5071   4.559  10.714   5.655 -0.3459 -0.2470  0.9176
  779MOL0     C 5072   4.573  10.854   5.715 -0.3615 -0.3582  0.0469
  779MOL0     C 5073   4.684  10.926   5.646  0.3410 -0.9125  0.4232
  779MOL0     C 5074   4.735  11.033   5.747  0.1423  0.0631 -0.5204
  779MOL0    Cl 5075   4.605  11.132   5.792  0.5137  0.1538 -0.4689
  779MOL0     C 5076   4.378  10.321   6.176 -0.7446 -0.1895  0.3224
  779MOL0     C 5077   4.312  10.213   6.226  0.0481  0.7811 -0.4124
  779MOL0     O 5078   4.111  10.170   6.527  0.1346  0.4831  0.2427
  779MOL0     C 5079   3.999   9.872   6.398  0.5444  0.3547  0.2095
  779MOL0     C 5080   3.919   9.754   6.435  0.3708 -0.3885  0.6434
  779MOL0     N 5081   3.608   9.680   7.028  0.4416 -0.1241 -0.3698
  779MOL0     N 5082   3.707   9.753   7.073  1.2055 -0.2500  0.1570
  779MOL0     C 5083   4.562  10.349   7.387  0.0620 -0.0760  0.7753
  779MOL0     C 5084   4.584  10.411   7.500 -0.4570  0.6609 -0.5113
  779MOL0     C 5085   4.718  10.351   7.972 -0.2811 -0.2060  0.0997
  779MOL0     C 5086   4.633  10.447   8.026 -0.4025 -0.6468 -0.5477
  779MOL0     C 5087   4.644  10.484   8.162  0.0304 -0.6803 -0.2391
  779MOL0     C 5088   4.745  10.429   8.252  0.5130  0.2466  0.4971
  779MOL0     O 5089   4.774  10.473   8.374 -0.0532 -0.7660  0.2749
  779MOL0     C 5090   4.704  10.584   8.432 -0.3106  0.4203  0.2421
  779MOL0     C 5091   4.773  10.718   8.418  0.0128 -0.3672  0.4447
  779MOL0     C 5092   4.776  10.774   8.271 -0.1088  0.4602  0.5911
  779MOL0     C 5093   4.862  10.892   8.273  0.4810  0.6701 -0.2671
  779MOL0     C 5094   4.858  10.975   8.151  1.4599  0.2939  1.0957
  779MOL0     C 5095   4.860  11.042   8.048  0.0232 -0.7162 -0.3856
  779MOL0     C 5096   4.826  10.334   8.198 -0.5069  0.8212 -1.2480
  779MOL0     C 5097   4.813  10.291   8.059  0.0985  0.5006 -0.2512
  779MOL0     H 5098   4.524  10.127   7.692 -1.1612 -2.7685 -3.0653
  779MOL0     H 5099   4.497  10.026   7.494 -0.9939 -0.3411 -0.0416
  779MOL0     H 5100   4.388  10.254   7.150  0.4968 -0.3144 -0.6571
  779MOL0     H 5101   4.552  10.301   7.124 -2.3104  1.3662  0.4995
  779MOL0     H 5102   4.450  10.193   6.931  1.7849 -0.8494 -0.9940
  779MOL0     H 5103   4.577  10.079   6.987 -0.9994 -2.6186  2.7473
  779MOL0     H 5104   4.413   9.923   7.061  2.3803  1.1702 -0.0275
  779MOL0     H 5105   4.294  10.066   7.059  0.7473  0.2853  0.5802
  779MOL0     H 5106   4.325  10.042   6.806  0.9191 -1.4697 -1.1781
  779MOL0     H 5107   4.421   9.899   6.833  0.6176  0.9238 -1.5186
  779MOL0     H 5108   4.211   9.838   6.767  0.8483  0.7230 -0.9859
  779MOL0     H 5109   4.227   9.786   6.941  1.0528  0.6889  0.8300
  779MOL0     H 5110   4.086   9.970   7.033  1.6699  1.4384  0.1677
  779MOL0     H 5111   4.085  10.040   6.866  1.9129  0.3715  1.8413
  779MOL0     H 5112   3.875   9.929   6.900 -0.0426 -0.0136  2.5237
  779MOL0     H 5113   3.963   9.799   6.813 -1.6761 -2.4380  1.0861
  779MOL0     H 5114   3.955   9.797   7.123  2.7210 -0.3635 -0.1828
  779MOL0     H 5115   4.024   9.671   7.024  0.9152  0.6263  0.6236
  779MOL0     H 5116   3.840   9.504   6.909  0.7027  0.0584  0.7879
  779MOL0     H 5117   3.594   9.385   6.890 -1.6858 -0.1371  0.0064
  779MOL0     H 5118   3.454   9.496   6.901 -0.3743  3.5655 -2.3467
  779MOL0     H 5119   3.473   9.428   6.691 -1.5944  0.5685  2.0798
  779MOL0     H 5120   3.655   9.440   6.675  1.6665  2.0361  0.2243
  779MOL0     H 5121   3.589   9.699   6.721  0.1770  0.2554 -2.2185
  779MOL0     H 5122   3.426   9.649   6.670 -0.4549 -0.3108  1.0865
  779MOL0     H 5123   3.573   9.754   6.493  0.7477 -1.2919 -2.6910
  779MOL0     H 5124   3.540   9.601   6.442 -1.5987  2.8274 -1.4378
  779MOL0     H 5125   3.697   9.882   6.637 -0.1893 -1.3336  0.1972
  779MOL0     H 5126   3.756  10.114   6.697  0.2764 -1.4755 -0.4517
  779MOL0     H 5127   3.932  10.145   6.695  0.2578  2.5353 -0.9038
  779MOL0     H 5128   3.817  10.216   6.574 -2.5015 -0.4180 -1.0825
  779MOL0     H 5129   4.010  10.349   6.283 -0.9837  0.7548 -3.6353
  779MOL0     H 5130   4.126  10.540   6.163  0.1231  0.2257  0.4715
  779MOL0     H 5131   4.558  10.661   6.078  1.6193 -0.2057 -3.3025
  779MOL0     H 5132   4.564  10.482   6.119  0.2887 -2.0548 -2.1506
  779MOL0     H 5133   4.617  10.560   5.870 -0.5663  0.0524 -1.5665
  779MOL0     H 5134   4.502  10.435   5.900  1.3024 -0.2880  0.7259
  779MOL0     H 5135   4.394  10.716   5.894  1.5570 -0.4770  0.7705
  779MOL0     H 5136   4.306  10.580   5.860 -1.3595  2.1609  0.9437
  779MOL0     H 5137   4.422  10.558   5.644  0.6137 -0.6916  0.6378
  779MOL0     H 5138   4.352  10.720   5.675 -1.8993 -0.6044  1.5955
  779MOL0     H 5139   4.533  10.724   5.549  1.2898  1.6045  0.6410
  779MOL0     H 5140   4.646  10.649   5.654  0.5371  0.9069 -0.7690
  779MOL0     H 5141   4.483  10.916   5.705  1.1199  1.8757 -0.3832
  779MOL0     H 5142   4.598  10.837   5.821 -1.0122 -2.3708 -0.0843
  779MOL0     H 5143   4.647  10.986   5.563 -0.3677 -2.2792 -0.2667
  779MOL0     H 5144   4.765  10.871   5.598  0.6242  2.2184 -3.1314
  779MOL0     H 5145   4.813  11.083   5.689  1.0462 -2.8084 -1.9574
  779MOL0     H 5146   4.797  10.991   5.826  1.6706 -1.7849 -2.5939
  779MOL0     H 5147   4.477  10.306   6.133 -1.3494 -2.0991 -0.4945
  779MOL0     H 5148   4.366  10.119   6.228  3.5506  2.5997 -1.5712
  779MOL0     H 5149   4.083   9.862   6.330  0.1268  2.7492 -0.7543
  779MOL0     H 5150   3.943   9.662   6.383  0.4175  0.5579 -1.0922
  779MOL0     H 5151   4.567  10.406   7.295  1.9115 -0.3491  0.6676
  779MOL0     H 5152   4.601  10.518   7.509  0.2439  0.4816  0.4640
  779MOL0     H 5153   4.569  10.483   7.947  2.7619 -2.2980 -4.2408
  779MOL0     H 5154   4.569  10.550   8.204 -0.6476 -1.9313  0.5754
  779MOL0     H 5155   4.599  10.602   8.408 -0.5005 -1.7910 -0.8204
  779MOL0     H 5156   4.712  10.555   8.537  0.4092 -1.2214 -0.2290
  779MOL0     H 5157   4.871  10.708   8.467  2.1469  1.3941 -3.0182
  779MOL0     H 5158   4.721  10.793   8.478  0.7145  1.2603 -0.9042
  779MOL0     H 5159   4.673  10.799   8.246  0.0910  3.4701  2.3364
  779MOL0     H 5160   4.796  10.700   8.193 -2.0232  0.1148  0.3889
  779MOL0     H 5161   4.967  10.862   8.276 -0.1857 -2.2382 -2.0291
  779MOL0     H 5162   4.848  10.956   8.360  0.8915  0.0648  0.2514
  779MOL0     H 5163   4.856  11.100   7.957 -0.8144 -0.8987 -0.4776
  779MOL0     H 5164   4.901  10.295   8.266 -1.9978  1.0556  0.6149
  779MOL0     H 5165   4.897  10.236   8.017  2.1243  4.1693 -1.4336
  780MOL0     O 5166   2.143   5.433   4.172  0.1888 -0.1735  0.3761
  780MOL0     C 5167   2.070   5.423   4.072  0.0490  0.5085 -0.6156
  780MOL0     O 5168   1.938   5.407   4.067  0.2077 -0.2538  0.0310
  780MOL0     C 5169   1.871   5.409   4.189  0.8981  0.3204  0.1060
  780MOL0     C 5170   1.897   5.325   4.300  0.1552 -0.5798  0.9453
  780MOL0     C 5171   1.812   5.335   4.416 -0.3993  0.9636  0.6703
  780MOL0     C 5172   1.710   5.434   4.418 -0.0143  0.3697 -0.4989
  780MOL0     O 5173   1.623   5.465   4.523 -0.3778 -0.0491 -1.0808
  780MOL0     C 5174   1.510   5.381   4.552 -0.2635  0.1619 -0.0597
  780MOL0     C 5175   1.412   5.366   4.436 -0.1804  0.9088 -0.8045
  780MOL0     C 5176   1.291   5.265   4.460 -0.3141  0.5293 -0.1189
  780MOL0     C 5177   1.183   5.334   4.550 -0.0741  0.2854  0.4705
  780MOL0     C 5178   1.079   5.233   4.612  0.1513 -0.2038 -0.6751
  780MOL0     C 5179   0.987   5.185   4.502  0.2434 -0.5335  0.4825
  780MOL0     C 5180   0.910   5.051   4.544 -0.0814  0.2092  0.9153
  780MOL0     C 5181   0.781   5.079   4.621  0.4361 -0.9992 -0.2467
  780MOL0     N 5182   0.668   5.004   4.567 -0.4037 -0.0778  0.2262
  780MOL0     C 5183   0.630   4.991   4.431  1.0505 -1.0677  0.1531
  780MOL0     C 5184   0.535   4.896   4.435  0.8031  0.3627  0.3894
  780MOL0     C 5185   0.457   4.845   4.321  0.5419 -0.1477  0.7297
  780MOL0     C 5186   0.365   4.950   4.255  0.0266 -0.7122  0.2134
  780MOL0     C 5187   0.239   5.003   4.332 -0.5221  0.0716 -0.2297
  780MOL0     C 5188   0.158   5.097   4.252  0.3374 -0.3908  0.7905
  780MOL0     O 5189   0.244   5.189   4.189  0.0722  0.4189 -0.2708
  780MOL0     C 5190   0.190   5.307   4.134 -0.5298  0.0497  0.0033
  780MOL0     C 5191   0.280   5.414   4.100 -0.8960 -0.3724  0.8193
  780MOL0     C 5192   0.228   5.541   4.053 -0.2481 -0.6359  0.3159
  780MOL0     C 5193   0.338   5.647   4.019 -0.3385  0.6469  0.1486
  780MOL0     C 5194   0.088   5.563   4.028 -1.3347  0.7870 -0.3373
  780MOL0     C 5195   0.037   5.684   3.961  0.4951 -0.7740  0.2325
  780MOL0     O 5196  -0.100   5.694   3.963  0.2421  0.5139  0.1708
  780MOL0     C 5197  -0.156   5.796   3.879 -0.4083 -0.1714 -0.1609
  780MOL0     C 5198  -0.163   5.924   3.924  0.1670  0.9990 -0.5814
  780MOL0     C 5199  -0.213   6.022   3.846 -0.5059  0.4776 -0.9786
  780MOL0     C 5200  -0.284   5.996   3.731 -0.7612 -0.0035  0.7055
  780MOL0     O 5201  -0.322   6.112   3.676  0.5958 -0.3727 -0.7698
  780MOL0     C 5202  -0.440   6.090   3.587 -0.3999 -0.4521  0.1074
  780MOL0     C 5203  -0.496   6.218   3.536  1.1899 -0.4359  0.9359
  780MOL0     C 5204  -0.592   6.190   3.412  0.2932  0.0501 -0.2814
  780MOL0     C 5205  -0.609   6.310   3.323 -0.4960 -0.8767 -0.0678
  780MOL0     C 5206  -0.693   6.291   3.195  0.6815  0.3538  0.3012
  780MOL0     C 5207  -0.677   6.401   3.096  0.0370 -0.1911  0.4393
  780MOL0     C 5208  -0.784   6.505   3.116  0.5061 -0.7396  0.5631
  780MOL0     C 5209  -0.916   6.463   3.054 -0.5920 -0.2909  0.6128
  780MOL0    Cl 5210  -1.025   6.416   3.196 -0.0708  0.2804 -0.0915
  780MOL0     C 5211  -0.282   5.862   3.683  0.3431 -0.5530 -0.5251
  780MOL0     C 5212  -0.208   5.770   3.755  0.3614 -0.3573 -0.3266
  780MOL0     O 5213   0.111   5.761   3.903 -0.3049 -0.0917  0.0585
  780MOL0     C 5214   0.002   5.449   4.050 -0.0758 -0.0959  0.3636
  780MOL0     C 5215   0.048   5.322   4.100 -1.5439  0.0304 -0.2859
  780MOL0     N 5216   0.529   4.837   4.566 -0.0216  0.1684 -0.5986
  780MOL0     N 5217   0.597   4.911   4.638  0.2371 -0.2470 -0.1409
  780MOL0     C 5218   1.694   5.512   4.311  0.6538 -0.7118  0.1044
  780MOL0     C 5219   1.769   5.500   4.198  0.2827  0.1213 -0.8285
  780MOL0     C 5220   2.143   5.426   3.942 -0.3599 -0.5159  0.6156
  780MOL0     C 5221   2.066   5.397   3.822 -0.4521  0.3165 -0.1698
  780MOL0     C 5222   2.130   5.400   3.694  0.3489  0.3906 -0.1607
  780MOL0     C 5223   2.263   5.430   3.682 -0.8333  0.8676  0.1843
  780MOL0     O 5224   2.338   5.430   3.570 -0.2687 -0.3042  0.2873
  780MOL0     C 5225   2.279   5.384   3.447 -0.4319 -0.2534  0.2225
  780MOL0     C 5226   2.361   5.373   3.321 -0.3873 -0.3644 -0.2054
  780MOL0     C 5227   2.503   5.311   3.335 -0.3199 -0.1607  0.7191
  780MOL0     C 5228   2.532   5.223   3.208 -0.7770  0.0393  0.7284
  780MOL0     C 5229   2.664   5.161   3.217 -0.1497 -0.0044  0.4867
  780MOL0     C 5230   2.777   5.132   3.224 -0.1815  0.4920  0.4540
  780MOL0     C 5231   2.337   5.468   3.798  0.7072  0.1493  0.0007
  780MOL0     C 5232   2.280   5.459   3.928 -0.6829  1.1172  0.0902
  780MOL0     H 5233   1.988   5.268   4.287 -1.4111 -3.4073  1.7005
  780MOL0     H 5234   1.820   5.282   4.511 -0.5278  0.0584  0.1802
  780MOL0     H 5235   1.543   5.290   4.602  1.7379  1.6001  1.4185
  780MOL0     H 5236   1.451   5.434   4.629  0.5918  0.6566  0.2714
  780MOL0     H 5237   1.357   5.454   4.399 -1.0044  0.0736 -1.6378
  780MOL0     H 5238   1.477   5.327   4.357  0.8074 -1.3665  1.0223
  780MOL0     H 5239   1.244   5.235   4.366  0.4169 -2.1480  0.2741
  780MOL0     H 5240   1.329   5.174   4.508  0.7609  1.9479  1.8503
  780MOL0     H 5241   1.233   5.373   4.639 -3.2686  4.6975  0.6747
  780MOL0     H 5242   1.133   5.419   4.503 -0.2600  0.5595  1.1621
  780MOL0     H 5243   1.125   5.143   4.654 -1.3740 -1.5407 -1.7285
  780MOL0     H 5244   1.023   5.281   4.693 -3.0777 -0.4713 -2.5862
  780MOL0     H 5245   0.917   5.268   4.487 -1.1853 -1.2058  2.8291
  780MOL0     H 5246   1.040   5.168   4.408 -2.2585  1.5656 -1.4575
  780MOL0     H 5247   0.885   5.006   4.447  2.1862  1.4376 -0.3307
  780MOL0     H 5248   0.975   4.985   4.601 -1.6834 -3.1663 -0.8497
  780MOL0     H 5249   0.752   5.184   4.628  3.2102 -0.1644  0.0365
  780MOL0     H 5250   0.795   5.049   4.726  0.8590  2.1973  0.7093
  780MOL0     H 5251   0.665   5.032   4.337 -1.3636 -0.4743 -0.5448
  780MOL0     H 5252   0.533   4.812   4.250  1.2869 -4.9855  3.3699
  780MOL0     H 5253   0.401   4.753   4.339 -1.5657  0.6819 -1.0374
  780MOL0     H 5254   0.330   4.902   4.164  0.7999 -4.3934  1.6672
  780MOL0     H 5255   0.423   5.035   4.218 -4.0250  1.4233 -1.9145
  780MOL0     H 5256   0.287   5.060   4.412  0.8217  0.4387 -1.2523
  780MOL0     H 5257   0.167   4.928   4.366 -0.9818  0.3906 -0.4904
  780MOL0     H 5258   0.089   5.148   4.319 -1.6924 -3.2486  1.0739
  780MOL0     H 5259   0.113   5.045   4.166 -0.0830  0.3691  0.5422
  780MOL0     H 5260   0.386   5.410   4.120  0.0793  4.0185 -2.1734
  780MOL0     H 5261   0.439   5.627   4.055  1.7053  1.9968 -4.2038
  780MOL0     H 5262   0.359   5.638   3.912  1.7942 -1.5472  0.6682
  780MOL0     H 5263   0.312   5.753   4.033 -0.7624  0.4760  0.7087
  780MOL0     H 5264  -0.139   5.943   4.027 -0.6442 -0.2997 -0.1227
  780MOL0     H 5265  -0.189   6.115   3.898  0.9217 -0.1233 -0.5303
  780MOL0     H 5266  -0.397   6.035   3.502  1.4698  1.9838 -0.6341
  780MOL0     H 5267  -0.521   6.040   3.640  0.1707 -1.0790  0.4176
  780MOL0     H 5268  -0.546   6.274   3.616  2.3013  0.7907  0.8085
  780MOL0     H 5269  -0.409   6.273   3.499  0.8742 -0.4728  0.1330
  780MOL0     H 5270  -0.693   6.181   3.452  1.3947 -1.8279  2.3494
  780MOL0     H 5271  -0.570   6.097   3.358  2.1870 -0.2069  0.8320
  780MOL0     H 5272  -0.664   6.383   3.382  0.6221  0.1224 -0.2341
  780MOL0     H 5273  -0.509   6.349   3.304  0.3038 -2.8020 -0.0728
  780MOL0     H 5274  -0.798   6.277   3.222  0.1918 -0.8294 -1.9996
  780MOL0     H 5275  -0.671   6.195   3.147 -3.1105 -0.5333  0.0509
  780MOL0     H 5276  -0.579   6.447   3.113  0.9311 -1.4892 -1.0504
  780MOL0     H 5277  -0.682   6.374   2.991  4.1193 -0.7775  0.2315
  780MOL0     H 5278  -0.748   6.595   3.067 -1.9440 -0.1670 -0.3297
  780MOL0     H 5279  -0.792   6.539   3.220 -3.6328  0.3378  0.0894
  780MOL0     H 5280  -0.902   6.379   2.986  0.0110 -0.3785  0.8368
  780MOL0     H 5281  -0.967   6.550   3.014  1.0098  0.7890  0.8242
  780MOL0     H 5282  -0.330   5.839   3.588 -0.5991  0.0645 -0.2129
  780MOL0     H 5283  -0.200   5.675   3.704  1.6936  0.9461 -2.7017
  780MOL0     H 5284  -0.104   5.454   4.028  0.4461  1.3256 -2.2176
  780MOL0     H 5285  -0.022   5.242   4.121 -2.8470  0.3201 -3.1100
  780MOL0     H 5286   1.630   5.599   4.311 -0.1593 -1.2602  1.9469
  780MOL0     H 5287   1.730   5.543   4.107 -2.8175 -2.5028 -0.9200
  780MOL0     H 5288   1.961   5.373   3.826 -0.1349 -1.1363  0.0487
  780MOL0     H 5289   2.070   5.377   3.606  1.9550 -2.4759 -0.6376
  780MOL0     H 5290   2.236   5.284   3.454 -1.6261  0.2217  0.0885
  780MOL0     H 5291   2.202   5.453   3.412  2.0760  2.8780  0.4237
  780MOL0     H 5292   2.365   5.474   3.279  2.9263 -0.9163 -1.5415
  780MOL0     H 5293   2.304   5.327   3.240 -0.6781 -0.3466 -0.0112
  780MOL0     H 5294   2.495   5.235   3.413 -1.9041  0.6200  1.3509
  780MOL0     H 5295   2.576   5.388   3.360 -0.0755  0.9508 -2.8384
  780MOL0     H 5296   2.538   5.275   3.112  0.2818 -1.3679  0.0043
  780MOL0     H 5297   2.460   5.142   3.190 -0.9958  0.6603 -1.4483
  780MOL0     H 5298   2.880   5.103   3.238 -0.5869 -0.9122  0.6927
  780MOL0     H 5299   2.437   5.508   3.783  1.3347 -1.3481 -0.0057
  780MOL0     H 5300   2.332   5.468   4.023 -1.5217 -1.0389  0.8210
  781MOL0     O 5301   8.370  11.163   9.539 -0.2932  0.2166 -0.0648
  781MOL0     C 5302   8.327  11.078   9.621  0.1912 -0.5895  0.1466
  781MOL0     O 5303   8.395  11.006   9.703  0.5815 -0.1399 -0.3915
  781MOL0     C 5304   8.506  11.049   9.772 -0.6825  0.2196  1.2174
  781MOL0     C 5305   8.521  11.175   9.824  0.7977 -0.4698  0.2322
  781MOL0     C 5306   8.637  11.219   9.889  0.7294  0.3509 -0.5700
  781MOL0     C 5307   8.744  11.133   9.904  0.1207 -0.3224 -0.8584
  781MOL0     O 5308   8.852  11.182   9.970  0.1397 -0.0530  0.6359
  781MOL0     C 5309   8.962  11.096   9.996 -0.2848  0.2611  0.1006
  781MOL0     C 5310   9.044  11.166  10.101 -1.0821 -0.3629  0.3453
  781MOL0     C 5311   9.167  11.091  10.168 -0.0383  0.7070 -0.2117
  781MOL0     C 5312   9.269  11.038  10.060 -0.0771 -1.4011 -0.4175
  781MOL0     C 5313   9.360  11.141  10.004  0.6613 -0.2551 -0.5857
  781MOL0     C 5314   9.436  11.080   9.888  0.8339 -0.2133  0.3896
  781MOL0     C 5315   9.516  11.182   9.811  0.3110  0.2988  0.3146
  781MOL0     C 5316   9.607  11.128   9.711  0.1390  0.3935 -0.4689
  781MOL0     N 5317   9.689  11.020   9.762  0.0295  0.3706  0.3249
  781MOL0     C 5318   9.805  11.042   9.836 -0.0683 -0.9990 -0.1400
  781MOL0     C 5319   9.863  10.922   9.837 -0.5342 -0.4153 -0.5227
  781MOL0     C 5320   9.980  10.880   9.922  0.4275 -1.2277  0.2428
  781MOL0     C 5321   9.938  10.873  10.078  0.4685 -0.2314  0.1311
  781MOL0     C 5322  10.047  10.830  10.171 -0.8668 -0.5425 -0.4104
  781MOL0     C 5323  10.166  10.938  10.167  0.5717  0.3456 -0.0370
  781MOL0     O 5324  10.237  10.900  10.284  0.9286  0.0838  0.0717
  781MOL0     C 5325  10.358  10.847  10.267 -0.2514  0.2993  0.4400
  781MOL0     C 5326  10.401  10.733  10.332  0.4917 -0.4777 -1.2265
  781MOL0     C 5327  10.521  10.664  10.303 -0.2811 -2.0991  0.5727
  781MOL0     C 5328  10.549  10.538  10.389  0.8116 -0.5655  0.6279
  781MOL0     C 5329  10.606  10.719  10.196 -0.7460  0.2219 -0.4486
  781MOL0     C 5330  10.730  10.654  10.146  0.1510  0.1818  0.0203
  781MOL0     O 5331  10.787  10.705  10.035  1.1268  0.3418  0.8354
  781MOL0     C 5332  10.894  10.629   9.990  0.8582 -0.4958 -0.8915
  781MOL0     C 5333  10.880  10.551   9.880  0.2375 -0.0314  0.1263
  781MOL0     C 5334  10.982  10.469   9.831  0.5657  0.6615  0.7129
  781MOL0     C 5335  11.107  10.476   9.900 -0.2199 -0.0347  0.3717
  781MOL0     O 5336  11.209  10.383   9.886 -0.0276  1.4283  0.4995
  781MOL0     C 5337  11.190  10.273   9.794 -0.5821  0.4392  0.4988
  781MOL0     C 5338  11.280  10.160   9.851  0.9646 -2.0106 -0.0875
  781MOL0     C 5339  11.273  10.041   9.765 -0.7225  0.2736  0.4170
  781MOL0     C 5340  11.340   9.920   9.841  0.6175  0.3360 -0.5029
  781MOL0     C 5341  11.484   9.941   9.889 -0.8801  0.4612  0.7158
  781MOL0     C 5342  11.566   9.819   9.851  0.0390 -0.0384 -0.0009
  781MOL0     C 5343  11.712   9.836   9.891 -0.2724 -0.1179  0.1098
  781MOL0     C 5344  11.795   9.725   9.846  0.0184  0.4369  0.8169
  781MOL0    Cl 5345  11.757   9.581   9.952 -0.3436 -0.0337 -0.2575
  781MOL0     C 5346  11.125  10.571   9.995 -0.3267  0.0484  0.1623
  781MOL0     C 5347  11.020  10.647  10.048  0.2725 -0.6156  0.6825
  781MOL0     O 5348  10.768  10.543  10.196  0.3233  0.1405  0.0048
  781MOL0     C 5349  10.570  10.846  10.134  0.2383  0.4003 -0.0666
  781MOL0     C 5350  10.452  10.910  10.171  0.0246 -0.4451  0.9406
  781MOL0     N 5351   9.796  10.841   9.741 -0.7348 -0.2493  0.7298
  781MOL0     N 5352   9.696  10.901   9.697  0.4716  0.4622 -0.8729
  781MOL0     C 5353   8.733  11.006   9.833 -0.4498 -0.3100  0.8996
  781MOL0     C 5354   8.613  10.962   9.784 -0.4374  0.1792 -0.0266
  781MOL0     C 5355   8.196  11.013   9.596  0.4245 -0.3911  0.4117
  781MOL0     C 5356   8.121  11.039   9.478 -0.3063 -0.1541  0.3045
  781MOL0     C 5357   8.010  10.961   9.438 -0.0831 -0.3179  1.0198
  781MOL0     C 5358   7.956  10.877   9.533  0.4102 -0.1702  0.2349
  781MOL0     O 5359   7.832  10.822   9.498 -0.3172  0.2827  0.1571
  781MOL0     C 5360   7.751  10.767   9.592 -0.7045 -1.1148 -0.5142
  781MOL0     C 5361   7.800  10.616   9.622  0.5494  0.4174  0.7276
  781MOL0     C 5362   7.794  10.517   9.498 -0.4023 -0.5092  0.0318
  781MOL0     C 5363   7.840  10.373   9.531 -0.1740 -0.0091 -0.0600
  781MOL0     C 5364   7.836  10.297   9.408 -0.0534 -0.3243  0.2643
  781MOL0     C 5365   7.843  10.220   9.311 -0.2238  0.0255  0.3155
  781MOL0     C 5366   8.012  10.872   9.663 -0.0431 -0.1560  0.2273
  781MOL0     C 5367   8.139  10.929   9.694  0.8303  0.0275  0.4276
  781MOL0     H 5368   8.437  11.238   9.797  1.4031 -0.0703 -0.8091
  781MOL0     H 5369   8.655  11.317   9.931  0.9855 -0.7788  2.1576
  781MOL0     H 5370   8.933  11.000  10.040 -2.0802  0.9162  0.4639
  781MOL0     H 5371   9.015  11.081   9.902  0.9854  3.7072  0.1287
  781MOL0     H 5372   9.081  11.261  10.062 -2.3656  0.3115  0.7469
  781MOL0     H 5373   8.975  11.188  10.183 -2.1070 -0.7188 -0.4083
  781MOL0     H 5374   9.226  11.151  10.238  0.3803 -0.0718  0.1254
  781MOL0     H 5375   9.136  11.002  10.224  0.2283  0.1716 -0.8923
  781MOL0     H 5376   9.341  10.963  10.094  0.7595 -0.8898 -1.0095
  781MOL0     H 5377   9.218  10.980   9.983  2.6338 -2.6347 -1.4273
  781MOL0     H 5378   9.313  11.233   9.967  3.5672  0.9745 -1.5215
  781MOL0     H 5379   9.425  11.174  10.086 -2.4821  1.7907  1.2816
  781MOL0     H 5380   9.505  11.000   9.916  2.0022  0.0467 -1.5430
  781MOL0     H 5381   9.364  11.046   9.813  1.1858  0.8997 -0.4791
  781MOL0     H 5382   9.443  11.249   9.764 -0.2263  0.2972  1.1330
  781MOL0     H 5383   9.579  11.238   9.880 -0.2716  1.1014  0.2208
  781MOL0     H 5384   9.667  11.213   9.677  1.1203  0.0309  0.3038
  781MOL0     H 5385   9.558  11.092   9.619 -2.3865  2.1484  0.0788
  781MOL0     H 5386   9.816  11.138   9.886  1.7372 -0.3836 -1.6293
  781MOL0     H 5387  10.014  10.782   9.888 -1.1887 -1.7146 -0.0543
  781MOL0     H 5388  10.060  10.954   9.912 -0.3036 -0.5753 -1.0925
  781MOL0     H 5389   9.854  10.804  10.092  0.7981 -0.2082  2.6366
  781MOL0     H 5390   9.893  10.962  10.122  0.6387  0.1250 -0.4159
  781MOL0     H 5391  10.086  10.739  10.125 -4.5017 -1.3309 -2.3639
  781MOL0     H 5392  10.002  10.826  10.271 -4.1529  0.9557 -1.6729
  781MOL0     H 5393  10.135  11.042  10.183  1.4723  0.3046  2.3775
  781MOL0     H 5394  10.219  10.931  10.071  1.3521 -0.8969  0.4618
  781MOL0     H 5395  10.329  10.695  10.403  1.3978  1.2795  0.7168
  781MOL0     H 5396  10.656  10.526  10.406  1.3855  3.3309  0.5891
  781MOL0     H 5397  10.497  10.542  10.485  1.2803 -1.6583  0.9418
  781MOL0     H 5398  10.515  10.446  10.340  1.7917  0.3971 -2.0674
  781MOL0     H 5399  10.788  10.542   9.822  0.4138 -1.1577 -0.0086
  781MOL0     H 5400  10.970  10.402   9.747 -0.8639  0.4404  1.0676
  781MOL0     H 5401  11.092  10.225   9.789  0.0178 -0.7309 -1.0410
  781MOL0     H 5402  11.223  10.302   9.694 -2.7985 -0.3619 -0.5314
  781MOL0     H 5403  11.379  10.208   9.861 -0.7686  1.5228  2.4347
  781MOL0     H 5404  11.237  10.150   9.951  2.3587 -3.1229  0.4474
  781MOL0     H 5405  11.342  10.061   9.682  0.8000  1.7333  1.9409
  781MOL0     H 5406  11.173  10.017   9.729 -0.8817  2.7950 -1.0614
  781MOL0     H 5407  11.283   9.892   9.930 -1.6584 -1.6136 -2.4147
  781MOL0     H 5408  11.342   9.836   9.772  0.9522  0.0904 -0.1916
  781MOL0     H 5409  11.505   9.966   9.994  2.5456 -0.3256  0.3246
  781MOL0     H 5410  11.533  10.021   9.833 -0.1129  1.5075  2.7905
  781MOL0     H 5411  11.530   9.729   9.902 -0.0859 -1.4577 -2.4845
  781MOL0     H 5412  11.558   9.800   9.744  1.7311  1.5236 -0.4608
  781MOL0     H 5413  11.714   9.852   9.999 -1.5191 -0.2371  0.1632
  781MOL0     H 5414  11.742   9.931   9.845 -3.3938  1.9168  1.8837
  781MOL0     H 5415  11.903   9.740   9.855  0.3365 -1.1488 -0.0279
  781MOL0     H 5416  11.774   9.695   9.743 -0.3157 -2.5244  1.6540
  781MOL0     H 5417  11.227  10.570  10.034  0.0032 -0.7641 -0.6843
  781MOL0     H 5418  11.046  10.714  10.130  1.9566  0.9248 -0.9994
  781MOL0     H 5419  10.625  10.906  10.061 -0.6567  0.7807 -0.4371
  781MOL0     H 5420  10.433  11.004  10.119 -1.1253  0.8058  3.4431
  781MOL0     H 5421   8.824  10.947   9.828  0.3633  1.0355 -2.2999
  781MOL0     H 5422   8.614  10.855   9.763  1.0154 -0.8339  4.1861
  781MOL0     H 5423   8.169  11.102   9.404  1.1015 -2.6462 -1.0572
  781MOL0     H 5424   7.969  10.986   9.341  2.2223  0.4881  0.1737
  781MOL0     H 5425   7.751  10.838   9.675 -0.9528  1.5078 -2.6094
  781MOL0     H 5426   7.648  10.763   9.554 -1.6823  1.3416  1.6103
  781MOL0     H 5427   7.746  10.573   9.706  2.4820  1.4879  2.6238
  781MOL0     H 5428   7.902  10.620   9.662  1.1312 -0.0454 -0.6421
  781MOL0     H 5429   7.868  10.556   9.427  2.2050 -3.9459  0.6011
  781MOL0     H 5430   7.697  10.524   9.447  0.7032 -1.4276 -2.3718
  781MOL0     H 5431   7.770  10.333   9.605 -2.4203 -1.2435 -2.6519
  781MOL0     H 5432   7.941  10.381   9.573  0.1031 -3.5988  0.2959
  781MOL0     H 5433   7.867  10.155   9.229 -2.4820 -0.1036 -0.3289
  781MOL0     H 5434   7.953  10.823   9.739 -1.2525  1.4489  0.3595
  781MOL0     H 5435   8.190  10.903   9.786  1.0266 -0.4958  0.1761
  782MOL0     O 5436   7.889   1.327   7.644  0.0047  0.3165 -0.1165
  782MOL0     C 5437   7.929   1.440   7.658 -0.3249 -0.3368 -0.1971
  782MOL0     O 5438   7.886   1.552   7.595  0.4647 -0.4034  0.3213
  782MOL0     C 5439   7.789   1.538   7.501 -0.4250 -0.3120  0.6254
  782MOL0     C 5440   7.817   1.508   7.363  0.7725 -0.4248  0.8367
  782MOL0     C 5441   7.713   1.515   7.271  0.6230  0.1219 -0.4048
  782MOL0     C 5442   7.586   1.558   7.301  0.3893 -0.0626  0.4673
  782MOL0     O 5443   7.506   1.573   7.190  0.0488 -0.1101 -0.8648
  782MOL0     C 5444   7.365   1.571   7.203  0.6277 -0.0768 -0.7720
  782MOL0     C 5445   7.306   1.594   7.067 -0.1456  0.3677 -0.3592
  782MOL0     C 5446   7.153   1.577   7.068 -0.9101  0.4642  0.2149
  782MOL0     C 5447   7.072   1.684   7.132  0.1346  0.2061 -0.4932
  782MOL0     C 5448   6.922   1.661   7.094  0.6050  0.1149  0.7710
  782MOL0     C 5449   6.827   1.735   7.183  0.3528  0.6957 -0.7930
  782MOL0     C 5450   6.865   1.885   7.189  0.3541 -1.0360  0.3951
  782MOL0     C 5451   6.769   1.962   7.283  0.5750  0.9141  0.2978
  782MOL0     N 5452   6.624   1.958   7.242 -0.0469  0.3348 -0.3773
  782MOL0     C 5453   6.571   2.035   7.139  0.6627 -0.1271  0.0405
  782MOL0     C 5454   6.438   2.051   7.174 -0.0278 -0.3493 -1.2535
  782MOL0     C 5455   6.343   2.129   7.107  0.4435  0.8814  0.8188
  782MOL0     C 5456   6.291   2.237   7.200 -0.7451  0.6737  0.4091
  782MOL0     C 5457   6.385   2.350   7.214 -0.8595 -1.8019  0.7579
  782MOL0     C 5458   6.322   2.462   7.294  0.2557  0.5503  0.2223
  782MOL0     O 5459   6.283   2.414   7.423 -0.3438  0.0015 -0.1439
  782MOL0     C 5460   6.197   2.499   7.497 -0.4458 -0.2732 -0.1702
  782MOL0     C 5461   6.107   2.436   7.574  0.1391  0.3642 -0.3339
  782MOL0     C 5462   6.004   2.498   7.648  0.0253 -0.6081 -0.0261
  782MOL0     C 5463   5.902   2.405   7.706  0.5710  0.5446 -0.2910
  782MOL0     C 5464   5.992   2.642   7.640  0.8687  1.0858  0.9966
  782MOL0     C 5465   5.886   2.725   7.714 -0.2274  0.2531  0.7067
  782MOL0     O 5466   5.938   2.817   7.802 -0.1489 -0.1975 -0.3368
  782MOL0     C 5467   5.852   2.888   7.883  0.1467 -0.7326  0.5020
  782MOL0     C 5468   5.892   3.021   7.876 -0.3780  0.5284 -0.3290
  782MOL0     C 5469   5.825   3.107   7.955 -0.0410 -0.8641 -0.8573
  782MOL0     C 5470   5.717   3.072   8.031  0.0167 -0.8824  0.3717
  782MOL0     O 5471   5.649   3.177   8.088 -0.2430  1.0659 -0.0688
  782MOL0     C 5472   5.525   3.150   8.154  0.2161  0.5673 -0.2682
  782MOL0     C 5473   5.442   3.281   8.171  0.0620 -0.0221 -1.4438
  782MOL0     C 5474   5.317   3.266   8.263 -0.4522 -0.0089  0.2655
  782MOL0     C 5475   5.215   3.382   8.254 -0.4622  0.1631  0.7088
  782MOL0     C 5476   5.259   3.484   8.358 -0.3153  0.1205  0.3938
  782MOL0     C 5477   5.184   3.609   8.354  0.3893 -0.5984  0.2150
  782MOL0     C 5478   5.244   3.719   8.267 -0.5902  0.3417 -0.6491
  782MOL0     C 5479   5.379   3.769   8.314 -0.0566 -0.1406 -0.1220
  782MOL0    Cl 5480   5.392   3.929   8.267 -0.0792 -0.1703 -0.5154
  782MOL0     C 5481   5.675   2.934   8.044 -0.2223 -0.0176 -0.1141
  782MOL0     C 5482   5.747   2.842   7.967  0.6704 -0.1191  0.6461
  782MOL0     O 5483   5.770   2.714   7.679  0.9448 -0.7204 -0.2478
  782MOL0     C 5484   6.085   2.705   7.552  0.4596 -0.0348  0.0624
  782MOL0     C 5485   6.178   2.640   7.476  0.3630  0.4292  0.6238
  782MOL0     N 5486   6.404   1.970   7.279 -0.4452 -0.3452  0.1647
  782MOL0     N 5487   6.522   1.917   7.323 -0.6457 -0.4810  0.2150
  782MOL0     C 5488   7.556   1.598   7.430 -0.2451  0.2102  0.1956
  782MOL0     C 5489   7.666   1.589   7.526  0.6494 -0.3220 -0.9633
  782MOL0     C 5490   8.021   1.468   7.772 -0.1587  0.5799  0.4718
  782MOL0     C 5491   8.056   1.599   7.818  0.1633  0.4365 -0.1728
  782MOL0     C 5492   8.142   1.621   7.926  0.7015  0.3781 -0.7656
  782MOL0     C 5493   8.195   1.513   8.002 -0.0031 -0.1525 -0.2494
  782MOL0     O 5494   8.282   1.523   8.101 -0.6214  0.1266  0.1566
  782MOL0     C 5495   8.364   1.648   8.093  1.0032  0.3493 -0.0107
  782MOL0     C 5496   8.449   1.644   8.217 -0.2786 -0.1076  0.3014
  782MOL0     C 5497   8.563   1.546   8.201 -0.5857  0.5888 -0.3810
  782MOL0     C 5498   8.673   1.561   8.309  0.3111  0.2510  1.1759
  782MOL0     C 5499   8.779   1.467   8.280  0.0461  0.3254  0.1845
  782MOL0     C 5500   8.840   1.367   8.271 -0.7619  0.2983 -0.0822
  782MOL0     C 5501   8.156   1.384   7.959  0.3703  0.0571  0.5846
  782MOL0     C 5502   8.074   1.359   7.847  0.7176 -0.5795  0.3026
  782MOL0     H 5503   7.921   1.498   7.333  0.2932 -0.3904 -0.9506
  782MOL0     H 5504   7.732   1.500   7.165 -0.8395 -2.0427 -0.4143
  782MOL0     H 5505   7.333   1.469   7.229  0.3514  0.3099  0.4665
  782MOL0     H 5506   7.332   1.642   7.278  2.1248 -1.1722  1.0115
  782MOL0     H 5507   7.325   1.697   7.035  1.2829  1.0602  2.3782
  782MOL0     H 5508   7.358   1.519   7.005 -0.9074 -0.4101 -0.0810
  782MOL0     H 5509   7.134   1.569   6.960  2.9746  0.8408 -0.6447
  782MOL0     H 5510   7.128   1.485   7.123 -1.5499  0.5570  0.0852
  782MOL0     H 5511   7.082   1.680   7.241 -2.8988 -5.5267 -0.0376
  782MOL0     H 5512   7.117   1.777   7.096  0.8427 -0.4204 -1.2739
  782MOL0     H 5513   6.907   1.695   6.991 -6.0582  1.5391  1.7689
  782MOL0     H 5514   6.897   1.554   7.100  0.5102 -0.1070 -2.0759
  782MOL0     H 5515   6.729   1.730   7.135  0.4409  3.7033 -1.4632
  782MOL0     H 5516   6.824   1.681   7.278  0.7977  1.9698 -0.0385
  782MOL0     H 5517   6.962   1.907   7.235  0.5733 -0.8379 -0.1537
  782MOL0     H 5518   6.859   1.941   7.095 -0.3892  3.3604  2.7456
  782MOL0     H 5519   6.804   2.066   7.287 -0.4312  1.3719 -1.8074
  782MOL0     H 5520   6.772   1.918   7.383 -0.6321  0.0874 -0.0143
  782MOL0     H 5521   6.628   2.077   7.057 -0.3051  0.7155 -0.2188
  782MOL0     H 5522   6.369   2.176   7.012 -0.5112  0.9979  0.6054
  782MOL0     H 5523   6.261   2.058   7.092  0.3955  1.5202 -2.7819
  782MOL0     H 5524   6.270   2.201   7.301  2.0362 -2.7040 -0.0558
  782MOL0     H 5525   6.195   2.266   7.155 -1.4117  0.4260  1.6512
  782MOL0     H 5526   6.420   2.393   7.119 -0.8669  1.5856  2.1534
  782MOL0     H 5527   6.480   2.326   7.264  1.9019  2.3653 -1.8069
  782MOL0     H 5528   6.239   2.499   7.233  0.7872  0.5849 -0.4921
  782MOL0     H 5529   6.392   2.544   7.311  2.2607 -1.2862  1.3461
  782MOL0     H 5530   6.114   2.328   7.588 -3.2912  0.2684  1.7606
  782MOL0     H 5531   5.897   2.427   7.813 -0.9929 -2.1202  0.2966
  782MOL0     H 5532   5.799   2.428   7.676  0.1698  2.7197  2.3489
  782MOL0     H 5533   5.917   2.296   7.706  0.6430  0.5419  1.0694
  782MOL0     H 5534   5.977   3.054   7.816  1.1489  0.8002  1.8323
  782MOL0     H 5535   5.848   3.211   7.976  0.7778 -1.3562  0.8887
  782MOL0     H 5536   5.460   3.078   8.104 -0.2846  0.8866 -0.0868
  782MOL0     H 5537   5.552   3.108   8.251 -0.0229  0.9550 -0.0273
  782MOL0     H 5538   5.497   3.355   8.229 -2.2839  0.2584  0.6043
  782MOL0     H 5539   5.415   3.320   8.072 -2.3276  2.2255 -0.0451
  782MOL0     H 5540   5.347   3.238   8.364 -2.5786 -1.2121  0.6239
  782MOL0     H 5541   5.262   3.180   8.226  1.4604 -1.0329 -0.3383
  782MOL0     H 5542   5.220   3.424   8.153 -0.6175 -0.8147  0.2863
  782MOL0     H 5543   5.110   3.351   8.259 -0.2661 -1.1717 -1.7634
  782MOL0     H 5544   5.368   3.494   8.362 -0.1472 -1.0226 -0.7974
  782MOL0     H 5545   5.226   3.434   8.450 -0.2417 -1.2841 -0.3196
  782MOL0     H 5546   5.081   3.599   8.319  0.4755 -0.8906  0.0389
  782MOL0     H 5547   5.173   3.671   8.443 -0.3550  2.2870 -1.7236
  782MOL0     H 5548   5.180   3.807   8.283  1.2283  1.4709  0.8402
  782MOL0     H 5549   5.250   3.689   8.162 -0.8376  0.8898 -0.8268
  782MOL0     H 5550   5.457   3.703   8.274  1.2947  1.4466 -0.1883
  782MOL0     H 5551   5.383   3.765   8.423 -2.2988 -0.5193 -0.0043
  782MOL0     H 5552   5.586   2.897   8.094 -1.5029  0.2794 -2.0255
  782MOL0     H 5553   5.720   2.737   7.961 -2.7040  0.4390  3.0894
  782MOL0     H 5554   6.074   2.812   7.538 -2.8400 -0.3500 -0.6087
  782MOL0     H 5555   6.228   2.678   7.387  1.1820  1.4167  1.4961
  782MOL0     H 5556   7.464   1.647   7.463  0.3807  0.2127  2.0505
  782MOL0     H 5557   7.642   1.618   7.627  1.0397 -3.5195  0.1631
  782MOL0     H 5558   8.016   1.687   7.769 -2.0348 -0.7365 -0.6128
  782MOL0     H 5559   8.170   1.724   7.944 -5.1428  2.2990 -0.7261
  782MOL0     H 5560   8.417   1.656   7.997 -0.4297 -0.1532 -0.8703
  782MOL0     H 5561   8.301   1.737   8.097  1.0872  0.3686  1.1693
  782MOL0     H 5562   8.394   1.620   8.309  2.1918  0.9001  2.1407
  782MOL0     H 5563   8.481   1.746   8.240  0.4014 -0.8371  3.0411
  782MOL0     H 5564   8.607   1.573   8.105 -0.9650  1.9272 -0.2018
  782MOL0     H 5565   8.528   1.443   8.194 -2.2696  0.8156  2.6995
  782MOL0     H 5566   8.622   1.536   8.403 -1.6742 -0.4706 -0.0270
  782MOL0     H 5567   8.723   1.658   8.316 -0.7504  0.7279  6.2562
  782MOL0     H 5568   8.903   1.283   8.246 -3.1999 -0.7949 -3.1068
  782MOL0     H 5569   8.193   1.297   8.010 -0.3257 -0.0364  0.9431
  782MOL0     H 5570   8.069   1.254   7.821  1.0442 -0.3379 -0.7555
  783MOL0     O 5571   4.610  10.541   9.136 -0.7551  0.0815 -0.6630
  783MOL0     C 5572   4.597  10.480   9.030  0.3637  0.0777 -0.5313
  783MOL0     O 5573   4.477  10.454   8.972  0.5425  0.3255  0.2975
  783MOL0     C 5574   4.350  10.486   9.018 -0.9487  0.1761 -0.2916
  783MOL0     C 5575   4.316  10.548   9.140  0.3076  0.2741  1.3840
  783MOL0     C 5576   4.182  10.576   9.175 -0.3361 -0.6074  0.2263
  783MOL0     C 5577   4.081  10.540   9.088  0.2121 -0.1379 -0.7894
  783MOL0     O 5578   3.942  10.574   9.102 -0.1564  0.1218 -0.3340
  783MOL0     C 5579   3.896  10.625   9.232  0.6322  0.4308 -0.2243
  783MOL0     C 5580   3.748  10.652   9.203  0.0219 -0.0581  0.6460
  783MOL0     C 5581   3.672  10.518   9.173  0.1413 -0.0164 -0.2097
  783MOL0     C 5582   3.520  10.535   9.156  0.3437 -0.2656 -1.0330
  783MOL0     C 5583   3.447  10.547   9.288  0.3849  1.3935 -0.0040
  783MOL0     C 5584   3.296  10.560   9.285 -0.7052 -0.3799 -0.6411
  783MOL0     C 5585   3.240  10.619   9.419 -0.6589  0.0414  0.6582
  783MOL0     C 5586   3.083  10.608   9.422 -1.0283  0.0535 -0.2635
  783MOL0     N 5587   3.041  10.686   9.547  0.6178  0.0273  0.3025
  783MOL0     C 5588   3.020  10.821   9.564 -0.8528  0.6042 -0.7031
  783MOL0     C 5589   2.975  10.834   9.690  0.6246 -0.2815 -0.5696
  783MOL0     C 5590   2.941  10.964   9.757  0.7915  0.4596  0.1197
  783MOL0     C 5591   2.791  10.997   9.741 -0.2186  0.8275  0.2836
  783MOL0     C 5592   2.690  10.883   9.782  0.7183 -0.3265 -0.4163
  783MOL0     C 5593   2.556  10.938   9.752  1.4242 -0.1045 -0.7477
  783MOL0     O 5594   2.527  11.030   9.856  0.1276 -0.6798 -0.1047
  783MOL0     C 5595   2.417  11.100   9.872 -0.2803  0.8708 -0.1085
  783MOL0     C 5596   2.333  11.129   9.769  0.2549 -0.5387  0.8620
  783MOL0     C 5597   2.213  11.209   9.794 -0.4383 -0.4644 -0.5264
  783MOL0     C 5598   2.145  11.241   9.661  0.5327  0.3249  1.0012
  783MOL0     C 5599   2.184  11.261   9.921  0.0334 -0.3454 -0.0018
  783MOL0     C 5600   2.056  11.340   9.954 -0.2331 -0.0099  0.2840
  783MOL0     O 5601   2.010  11.334  10.082  0.1447 -0.1384  0.5382
  783MOL0     C 5602   1.893  11.397  10.118 -0.1219 -0.9800 -0.3968
  783MOL0     C 5603   1.891  11.515  10.202 -1.1626  0.9047 -0.9372
  783MOL0     C 5604   1.774  11.595  10.217  0.1328  0.7744 -0.3122
  783MOL0     C 5605   1.652  11.544  10.160 -0.1555 -0.0184  0.0766
  783MOL0     O 5606   1.536  11.612  10.150 -0.6033  0.1390 -0.3295
  783MOL0     C 5607   1.526  11.753  10.166  0.0282 -0.2430 -0.2931
  783MOL0     C 5608   1.392  11.809  10.122  0.6536  0.4698  0.5907
  783MOL0     C 5609   1.270  11.790  10.222 -1.4817 -0.0384 -0.3437
  783MOL0     C 5610   1.226  11.641  10.226 -0.2237 -0.0655  0.5769
  783MOL0     C 5611   1.091  11.643  10.302 -0.3333  0.0316  0.4969
  783MOL0     C 5612   1.032  11.495  10.308  0.1676  0.2923  0.0857
  783MOL0     C 5613   0.920  11.470  10.413  0.9062  0.6801 -0.7350
  783MOL0     C 5614   0.942  11.336  10.487  1.1402 -0.1190  0.1573
  783MOL0    Cl 5615   0.812  11.283  10.594 -0.0605 -0.2505  0.5232
  783MOL0     C 5616   1.658  11.424  10.085 -0.5398 -0.3135 -0.4226
  783MOL0     C 5617   1.777  11.352  10.061 -0.5085  0.6999 -0.8076
  783MOL0     O 5618   1.999  11.409   9.868  0.3858 -0.3562 -0.1881
  783MOL0     C 5619   2.270  11.233  10.032  0.7932 -0.4194  0.3284
  783MOL0     C 5620   2.393  11.161   9.999 -0.1077 -0.6860 -0.3445
  783MOL0     N 5621   2.973  10.710   9.749  0.0517 -0.5336  0.0072
  783MOL0     N 5622   3.010  10.622   9.663  0.4151 -0.2544 -0.5457
  783MOL0     C 5623   4.112  10.484   8.965  0.7689  0.6054  0.5505
  783MOL0     C 5624   4.245  10.457   8.928 -0.4081 -0.0840 -0.6396
  783MOL0     C 5625   4.725  10.433   8.964  0.0221 -1.0435  0.4778
  783MOL0     C 5626   4.720  10.398   8.829  0.6187  1.1625  0.1266
  783MOL0     C 5627   4.834  10.351   8.760  0.6663 -0.6226 -0.0230
  783MOL0     C 5628   4.957  10.337   8.822  0.6502  0.2733  0.3034
  783MOL0     O 5629   5.061  10.287   8.749 -0.9295 -0.0114  0.4287
  783MOL0     C 5630   5.135  10.181   8.817 -0.2819 -0.4001  0.2483
  783MOL0     C 5631   5.222  10.103   8.717 -0.6007  0.8163  0.0975
  783MOL0     C 5632   5.321  10.017   8.801  0.1931 -0.0362  0.1355
  783MOL0     C 5633   5.366   9.888   8.729  0.5388  0.0615 -0.2707
  783MOL0     C 5634   5.261   9.783   8.717  0.0409  0.1225 -0.6945
  783MOL0     C 5635   5.174   9.696   8.707 -0.2359  0.0543  0.3789
  783MOL0     C 5636   4.962  10.365   8.951  0.9618 -0.3749 -0.4889
  783MOL0     C 5637   4.852  10.410   9.028  0.1391 -0.0990 -0.5306
  783MOL0     H 5638   4.388  10.586   9.212  0.9802 -1.5538  1.7355
  783MOL0     H 5639   4.163  10.628   9.268  0.5448  1.5999 -0.7597
  783MOL0     H 5640   3.902  10.547   9.308  0.7309 -2.1144 -2.6848
  783MOL0     H 5641   3.951  10.714   9.263  1.3633 -0.7168  1.9164
  783MOL0     H 5642   3.715  10.688   9.301 -2.6945 -1.0124  0.1651
  783MOL0     H 5643   3.742  10.727   9.122  3.6039  0.8008  1.0055
  783MOL0     H 5644   3.696  10.481   9.073 -4.7280  0.2920 -1.7646
  783MOL0     H 5645   3.698  10.432   9.235 -1.3254 -1.7637 -1.8889
  783MOL0     H 5646   3.495  10.627   9.102 -3.9210 -1.0776 -0.7657
  783MOL0     H 5647   3.480  10.451   9.098  0.4206  0.6023 -2.3962
  783MOL0     H 5648   3.468  10.453   9.341 -1.9829 -0.0493 -1.4484
  783MOL0     H 5649   3.491  10.624   9.353  1.3968 -1.7516  3.4195
  783MOL0     H 5650   3.267  10.631   9.207 -0.0879 -1.1776 -1.6323
  783MOL0     H 5651   3.248  10.466   9.257 -0.9013 -0.3515 -0.3956
  783MOL0     H 5652   3.280  10.562   9.504 -2.6330  1.8085  2.9047
  783MOL0     H 5653   3.271  10.723   9.427  2.7566 -0.7341 -0.6536
  783MOL0     H 5654   3.061  10.501   9.430 -0.5183  0.0316  1.2485
  783MOL0     H 5655   3.033  10.648   9.333 -0.3240  0.4287 -0.5000
  783MOL0     H 5656   3.044  10.908   9.504 -0.8035  0.1328 -1.3747
  783MOL0     H 5657   2.964  10.960   9.864  0.7073 -1.0717  0.0985
  783MOL0     H 5658   2.999  11.045   9.711  0.8713  0.3555  0.0350
  783MOL0     H 5659   2.779  11.017   9.635  4.1204 -0.1347 -0.5757
  783MOL0     H 5660   2.764  11.088   9.796 -0.0554 -0.4056  2.5429
  783MOL0     H 5661   2.700  10.859   9.888 -1.2651  0.8713  0.0918
  783MOL0     H 5662   2.696  10.794   9.718 -1.6073 -3.1986  2.9484
  783MOL0     H 5663   2.476  10.863   9.745  2.1156 -0.7213 -2.9520
  783MOL0     H 5664   2.559  10.988   9.655  1.5966  2.5464  0.5495
  783MOL0     H 5665   2.346  11.102   9.664 -2.9379 -0.9344  0.4649
  783MOL0     H 5666   2.043  11.202   9.655  0.1377  1.2703  1.4033
  783MOL0     H 5667   2.115  11.346   9.654 -2.1069 -0.2368  2.5864
  783MOL0     H 5668   2.199  11.204   9.573  1.1842 -0.6449  1.7880
  783MOL0     H 5669   1.981  11.552  10.249  0.6861 -0.0472 -3.4985
  783MOL0     H 5670   1.766  11.696  10.256  1.5240  0.2813  1.3531
  783MOL0     H 5671   1.554  11.776  10.269  1.0096  0.4285 -0.7007
  783MOL0     H 5672   1.595  11.786  10.088 -1.4003 -1.6223 -2.2724
  783MOL0     H 5673   1.396  11.916  10.103 -3.2494  0.4230 -1.6899
  783MOL0     H 5674   1.376  11.776  10.019  2.4647  1.8938 -0.1818
  783MOL0     H 5675   1.195  11.856  10.178  0.4704  2.8374  0.3168
  783MOL0     H 5676   1.289  11.819  10.326 -1.2613 -0.6696 -0.2046
  783MOL0     H 5677   1.209  11.594  10.129 -2.9619  1.7375  0.0726
  783MOL0     H 5678   1.303  11.587  10.281  0.6632 -1.7107 -2.1344
  783MOL0     H 5679   1.028  11.711  10.245 -0.3111 -2.3492 -2.5990
  783MOL0     H 5680   1.089  11.686  10.403 -0.9166 -0.0943  0.5442
  783MOL0     H 5681   1.003  11.458  10.209 -0.1272 -2.9595  1.2530
  783MOL0     H 5682   1.111  11.422  10.330 -0.2335 -0.0293  0.4875
  783MOL0     H 5683   0.824  11.456  10.361 -0.1882  0.1227  1.3345
  783MOL0     H 5684   0.910  11.553  10.484  2.9660  0.3625 -0.0183
  783MOL0     H 5685   1.037  11.334  10.541  1.2893  2.0788  0.0782
  783MOL0     H 5686   0.945  11.260  10.409 -2.4336 -0.0676 -0.2142
  783MOL0     H 5687   1.561  11.391  10.048  0.1737 -2.5828 -0.4559
  783MOL0     H 5688   1.776  11.265   9.997 -0.9306  0.4057 -0.4094
  783MOL0     H 5689   2.251  11.273  10.131 -1.6160  1.1026 -0.6693
  783MOL0     H 5690   2.459  11.143  10.083  1.7451  0.9671 -1.3682
  783MOL0     H 5691   4.033  10.471   8.893 -0.9316  1.5993  2.1597
  783MOL0     H 5692   4.263  10.421   8.827 -0.7897 -3.3475  0.3148
  783MOL0     H 5693   4.627  10.395   8.773  0.7799 -0.7721 -0.0992
  783MOL0     H 5694   4.817  10.319   8.658 -3.3836  1.9604 -0.3816
  783MOL0     H 5695   5.198  10.222   8.897 -0.3582 -1.2840  0.7672
  783MOL0     H 5696   5.062  10.108   8.852  1.8876 -1.9941  1.7085
  783MOL0     H 5697   5.274  10.170   8.648 -2.3038 -1.8278 -4.1935
  783MOL0     H 5698   5.164  10.033   8.656  0.1611 -1.2316  1.5737
  783MOL0     H 5699   5.270   9.995   8.895 -0.4756  1.8845  0.2611
  783MOL0     H 5700   5.412  10.072   8.825  0.2015 -1.5193  4.1454
  783MOL0     H 5701   5.441   9.841   8.793 -1.4080  0.3659  2.4020
  783MOL0     H 5702   5.419   9.910   8.636  2.1048 -3.3796 -0.3611
  783MOL0     H 5703   5.095   9.624   8.699 -0.5122  0.4461 -0.5892
  783MOL0     H 5704   5.055  10.351   9.005  0.3413  0.9099  1.0040
  783MOL0     H 5705   4.873  10.421   9.134  1.8003  2.8155 -1.0628
  784MOL0     O 5706   0.054   7.799   2.650 -0.1673 -0.1664 -0.0213
  784MOL0     C 5707  -0.057   7.853   2.672 -0.8856 -0.4333 -0.9828
  784MOL0     O 5708  -0.115   7.839   2.797 -0.5415  0.4657 -0.3765
  784MOL0     C 5709  -0.079   7.734   2.878 -0.0629 -0.0490  0.2386
  784MOL0     C 5710  -0.109   7.601   2.849 -0.4088 -0.2942  0.2937
  784MOL0     C 5711  -0.076   7.504   2.940  0.0108  0.1783  0.3355
  784MOL0     C 5712  -0.008   7.522   3.058  0.0359 -0.6542  1.1769
  784MOL0     O 5713   0.015   7.423   3.142  0.0945  0.5826 -0.1495
  784MOL0     C 5714   0.061   7.460   3.276  0.2987  0.5538  0.1433
  784MOL0     C 5715  -0.051   7.526   3.361  0.1428 -0.2835  0.3241
  784MOL0     C 5716  -0.174   7.439   3.370 -0.9329 -0.0006 -0.3024
  784MOL0     C 5717  -0.272   7.444   3.252  0.0026  0.3900  0.4390
  784MOL0     C 5718  -0.332   7.577   3.219 -0.5426  0.6337 -0.2400
  784MOL0     C 5719  -0.435   7.563   3.100  0.0246 -0.6064  0.1716
  784MOL0     C 5720  -0.520   7.690   3.075 -0.1460 -0.0093 -0.4793
  784MOL0     C 5721  -0.432   7.809   3.037  0.0673 -0.1950  0.7099
  784MOL0     N 5722  -0.497   7.933   2.995  0.2164  0.4045 -0.0742
  784MOL0     C 5723  -0.602   7.940   2.899 -0.3814  0.6201 -0.6031
  784MOL0     C 5724  -0.607   8.068   2.870  0.1630 -0.1163  0.6364
  784MOL0     C 5725  -0.689   8.146   2.773 -0.0994  0.3258 -0.3176
  784MOL0     C 5726  -0.653   8.121   2.625 -0.0526 -0.3581 -0.7072
  784MOL0     C 5727  -0.761   8.064   2.549 -0.4721 -0.1569 -0.4796
  784MOL0     C 5728  -0.722   8.068   2.396  0.1336  0.2264 -0.0477
  784MOL0     O 5729  -0.836   8.045   2.311 -0.8172 -0.8880 -0.1896
  784MOL0     C 5730  -0.883   7.920   2.300 -0.5384 -0.4286 -0.3643
  784MOL0     C 5731  -0.806   7.804   2.287 -0.0963  0.1242 -0.3007
  784MOL0     C 5732  -0.869   7.676   2.269  0.0475 -0.5251  0.6015
  784MOL0     C 5733  -0.796   7.558   2.235 -0.6218  0.4468  0.2054
  784MOL0     C 5734  -1.007   7.679   2.276 -1.0202  0.2988 -0.2317
  784MOL0     C 5735  -1.089   7.561   2.253  0.2225  1.2993  0.5148
  784MOL0     O 5736  -1.172   7.552   2.145  0.9018 -0.3506 -0.0368
  784MOL0     C 5737  -1.291   7.474   2.137 -0.0886  0.3130 -1.5582
  784MOL0     C 5738  -1.361   7.402   2.248 -0.5808  0.3779  1.5499
  784MOL0     C 5739  -1.485   7.347   2.230  1.4228 -0.0501 -0.2293
  784MOL0     C 5740  -1.550   7.356   2.106  0.1900 -0.2289  1.0655
  784MOL0     O 5741  -1.679   7.314   2.080 -0.5786 -0.4547  0.6565
  784MOL0     C 5742  -1.782   7.352   2.168 -0.0301 -0.2664 -0.7433
  784MOL0     C 5743  -1.873   7.472   2.124 -0.5171  0.3961 -0.2059
  784MOL0     C 5744  -1.928   7.455   1.978 -0.8928 -0.2489 -0.0230
  784MOL0     C 5745  -2.023   7.570   1.940  0.9285 -0.0234 -0.1251
  784MOL0     C 5746  -2.076   7.551   1.800 -1.2052 -0.1693  0.1038
  784MOL0     C 5747  -2.087   7.694   1.740 -0.9793  0.3656 -0.3913
  784MOL0     C 5748  -2.208   7.762   1.790  1.0567 -0.7416 -0.7112
  784MOL0     C 5749  -2.281   7.866   1.697 -0.1414  0.4055  0.1924
  784MOL0    Cl 5750  -2.162   7.996   1.690  0.0518  0.1630  0.3353
  784MOL0     C 5751  -1.481   7.411   1.997  0.8053  0.1377 -0.5799
  784MOL0     C 5752  -1.351   7.477   2.010  0.6560  1.3651  0.1705
  784MOL0     O 5753  -1.083   7.473   2.342  0.0319  0.0603  0.5167
  784MOL0     C 5754  -1.086   7.790   2.305  0.0929  0.1387 -0.6201
  784MOL0     C 5755  -1.025   7.913   2.316  0.1658 -0.2242  0.1220
  784MOL0     N 5756  -0.489   8.123   2.912  0.3066  0.2012 -0.1359
  784MOL0     N 5757  -0.424   8.044   2.991  0.5458 -0.3328  0.1201
  784MOL0     C 5758   0.038   7.660   3.077 -0.3107  1.1563 -0.9231
  784MOL0     C 5759  -0.006   7.762   2.992  0.5451  0.4527 -0.6160
  784MOL0     C 5760  -0.117   7.952   2.591  1.0663 -0.0519  0.4467
  784MOL0     C 5761  -0.067   7.971   2.456  0.1646 -0.0774  0.1395
  784MOL0     C 5762  -0.134   8.059   2.367  0.8097  0.1532 -0.0178
  784MOL0     C 5763  -0.244   8.131   2.413  0.0421 -0.4714  0.8341
  784MOL0     O 5764  -0.320   8.228   2.339 -0.3878  0.0978  0.5115
  784MOL0     C 5765  -0.281   8.247   2.199  0.5004 -0.2367 -0.6715
  784MOL0     C 5766  -0.394   8.336   2.137  0.1234  0.1000 -0.1255
  784MOL0     C 5767  -0.516   8.247   2.127  0.5377 -0.7252  0.8293
  784MOL0     C 5768  -0.627   8.328   2.056  0.0835  1.0264 -1.5899
  784MOL0     C 5769  -0.754   8.245   2.060 -1.0589 -0.4321  0.9256
  784MOL0     C 5770  -0.859   8.189   2.060 -0.0315  0.1098 -0.3886
  784MOL0     C 5771  -0.293   8.116   2.550 -0.0939 -1.0802 -0.1134
  784MOL0     C 5772  -0.229   8.028   2.636  0.7275  0.4331  0.2537
  784MOL0     H 5773  -0.166   7.573   2.761 -0.9283  1.2639  0.1053
  784MOL0     H 5774  -0.115   7.406   2.913 -3.1237  1.3497  0.1677
  784MOL0     H 5775   0.092   7.368   3.326 -0.2624  0.3813  0.1827
  784MOL0     H 5776   0.150   7.522   3.262 -0.6923  2.5109  1.8726
  784MOL0     H 5777   0.000   7.533   3.457  1.3982 -1.1042 -0.2602
  784MOL0     H 5778  -0.064   7.625   3.315 -1.8427 -1.4865 -1.9082
  784MOL0     H 5779  -0.157   7.335   3.399  0.4512  0.8606  2.3586
  784MOL0     H 5780  -0.228   7.466   3.461  0.3655 -2.5791  1.3732
  784MOL0     H 5781  -0.220   7.413   3.161  0.5043  2.1898  0.0666
  784MOL0     H 5782  -0.353   7.371   3.268 -3.7144  4.0415  0.0685
  784MOL0     H 5783  -0.387   7.617   3.305  0.3600  0.0142  0.6459
  784MOL0     H 5784  -0.251   7.645   3.196  0.7135 -0.7680 -0.0978
  784MOL0     H 5785  -0.375   7.550   3.010 -2.1109  3.7513 -2.1665
  784MOL0     H 5786  -0.497   7.477   3.127  3.3152 -2.6922  1.7695
  784MOL0     H 5787  -0.593   7.658   3.000  2.2065 -0.6380 -2.6351
  784MOL0     H 5788  -0.583   7.713   3.162  0.0967 -0.4854 -0.1716
  784MOL0     H 5789  -0.363   7.766   2.963 -2.9201 -3.0025 -0.6583
  784MOL0     H 5790  -0.373   7.832   3.126 -1.1045 -0.5030  1.5871
  784MOL0     H 5791  -0.674   7.866   2.866 -0.0994  0.5989 -1.1665
  784MOL0     H 5792  -0.793   8.115   2.789 -0.2651 -1.3721 -3.7698
  784MOL0     H 5793  -0.696   8.250   2.805  2.8954 -0.0810  2.2108
  784MOL0     H 5794  -0.573   8.051   2.599  1.9653  2.3344 -2.3063
  784MOL0     H 5795  -0.625   8.221   2.590 -1.6477  0.2597 -0.2809
  784MOL0     H 5796  -0.851   8.125   2.564  0.0608  0.8253 -1.1362
  784MOL0     H 5797  -0.784   7.962   2.581  1.8029 -0.3651  0.6933
  784MOL0     H 5798  -0.645   7.990   2.388  0.2126  0.2872  0.1203
  784MOL0     H 5799  -0.683   8.166   2.366 -0.9063  0.6673  0.0239
  784MOL0     H 5800  -0.697   7.807   2.281 -0.0697 -0.7501 -0.4747
  784MOL0     H 5801  -0.844   7.494   2.161  1.5290 -1.9373  0.7327
  784MOL0     H 5802  -0.694   7.582   2.205 -0.6879 -1.3265 -1.6712
  784MOL0     H 5803  -0.795   7.492   2.323 -3.8686  2.0866  1.6287
  784MOL0     H 5804  -1.325   7.407   2.351  1.6742 -0.2317  0.8473
  784MOL0     H 5805  -1.526   7.288   2.312  1.3292  2.1021  1.3427
  784MOL0     H 5806  -1.856   7.278   2.198 -0.5853  1.8186  3.8765
  784MOL0     H 5807  -1.737   7.374   2.265  1.6917 -1.1286 -1.3060
  784MOL0     H 5808  -1.952   7.478   2.199 -0.2569 -0.2924  0.1183
  784MOL0     H 5809  -1.813   7.563   2.113  1.2724 -0.9120 -1.9874
  784MOL0     H 5810  -1.981   7.359   1.975 -3.1234  0.9061  0.2064
  784MOL0     H 5811  -1.841   7.445   1.914 -1.5625  1.4232 -1.2671
  784MOL0     H 5812  -2.106   7.583   2.010 -0.8123 -0.3609 -2.0033
  784MOL0     H 5813  -1.961   7.658   1.959  3.4228 -1.5604 -0.6524
  784MOL0     H 5814  -2.171   7.498   1.803 -0.8338 -0.8313  0.2746
  784MOL0     H 5815  -2.010   7.500   1.729 -0.8795  0.2236  0.1191
  784MOL0     H 5816  -1.999   7.759   1.748 -1.9211  1.8036 -1.1940
  784MOL0     H 5817  -2.103   7.668   1.635 -1.0661 -1.7602  0.0979
  784MOL0     H 5818  -2.184   7.818   1.882  0.2951 -1.6540  0.0585
  784MOL0     H 5819  -2.280   7.685   1.819  0.8402 -1.1137 -2.1741
  784MOL0     H 5820  -2.373   7.896   1.749 -0.7732  1.3328 -1.3953
  784MOL0     H 5821  -2.317   7.814   1.607  0.5050 -0.1328  0.2432
  784MOL0     H 5822  -1.533   7.407   1.902 -0.5209 -0.8456  0.1517
  784MOL0     H 5823  -1.310   7.533   1.926  2.6459  0.8308  0.7344
  784MOL0     H 5824  -1.194   7.790   2.301  0.0272 -1.8796  0.0909
  784MOL0     H 5825  -1.068   8.012   2.319  1.4938  0.4922 -2.1751
  784MOL0     H 5826   0.094   7.687   3.166 -1.4912  1.2279 -0.1691
  784MOL0     H 5827   0.021   7.861   3.027 -0.8351 -0.1921  2.5393
  784MOL0     H 5828   0.022   7.914   2.430 -0.3708 -1.8297  1.8242
  784MOL0     H 5829  -0.110   8.057   2.261 -1.5249  1.2021 -0.6312
  784MOL0     H 5830  -0.182   8.292   2.196 -0.2101  1.3717 -1.5060
  784MOL0     H 5831  -0.286   8.148   2.152 -1.2471 -0.2705 -0.4712
  784MOL0     H 5832  -0.372   8.368   2.035  2.4916 -0.9418  0.0101
  784MOL0     H 5833  -0.424   8.420   2.200 -3.4966 -1.3498  0.3378
  784MOL0     H 5834  -0.543   8.205   2.225 -3.9764 -1.6267 -0.5233
  784MOL0     H 5835  -0.490   8.164   2.061  1.7145 -0.1009  0.4981
  784MOL0     H 5836  -0.604   8.354   1.952  0.0110  2.4625 -1.2684
  784MOL0     H 5837  -0.645   8.422   2.110 -2.5953 -0.8273  1.0674
  784MOL0     H 5838  -0.936   8.116   2.043  0.8724 -0.9804  0.0755
  784MOL0     H 5839  -0.376   8.176   2.587 -0.7964 -1.5709 -0.8466
  784MOL0     H 5840  -0.263   8.010   2.738 -1.6714  3.1365  0.0422
  785MOL0     O 5841   9.264  10.729   0.248  0.2277 -0.2105  0.1607
  785MOL0     C 5842   9.189  10.692   0.329 -0.7290 -0.3680 -0.4726
  785MOL0     O 5843   9.101  10.770   0.387  1.1573 -0.2672 -0.2044
  785MOL0     C 5844   9.045  10.885   0.329  0.3660  0.3134 -0.6045
  785MOL0     C 5845   8.960  10.968   0.410  0.2249 -0.6907 -0.6931
  785MOL0     C 5846   8.911  11.097   0.368  0.7426 -0.1199  0.1848
  785MOL0     C 5847   8.941  11.143   0.240  0.2468  0.1238 -0.1335
  785MOL0     O 5848   8.917  11.270   0.195  0.3472  0.2644 -0.4926
  785MOL0     C 5849   8.783  11.274   0.140  1.3708 -0.0647 -0.4140
  785MOL0     C 5850   8.781  11.263  -0.014  0.1059 -0.0473 -0.1616
  785MOL0     C 5851   8.638  11.280  -0.071 -0.9566 -0.1351 -0.2275
  785MOL0     C 5852   8.638  11.288  -0.222  0.5872  0.3937 -0.7943
  785MOL0     C 5853   8.502  11.264  -0.283  0.2451  0.0446  0.3094
  785MOL0     C 5854   8.415  11.384  -0.256  0.1887  0.1936  0.1319
  785MOL0     C 5855   8.284  11.356  -0.332 -0.1374  1.2476  0.2626
  785MOL0     C 5856   8.198  11.482  -0.325  0.5306  0.4919  0.2609
  785MOL0     N 5857   8.088  11.473  -0.416  0.2268  0.3681  1.0781
  785MOL0     C 5858   7.999  11.365  -0.447  0.2049  0.0259  1.1277
  785MOL0     C 5859   7.916  11.421  -0.545  0.0018  0.0829 -1.3769
  785MOL0     C 5860   7.802  11.345  -0.601 -1.0372 -0.0901  0.2466
  785MOL0     C 5861   7.692  11.423  -0.662  0.6689  0.0477 -0.9898
  785MOL0     C 5862   7.617  11.505  -0.560 -0.2678 -0.3284 -0.1797
  785MOL0     C 5863   7.478  11.537  -0.604  0.4441  0.3074 -0.7143
  785MOL0     O 5864   7.386  11.425  -0.607  0.0060  0.1182 -0.1183
  785MOL0     C 5865   7.259  11.450  -0.662  0.2688  0.0890 -0.1326
  785MOL0     C 5866   7.209  11.587  -0.695 -0.5873 -0.0207  0.7179
  785MOL0     C 5867   7.081  11.616  -0.731  0.6463 -0.3589 -0.2153
  785MOL0     C 5868   7.063  11.758  -0.764 -0.1891 -0.1891 -0.6244
  785MOL0     C 5869   6.983  11.517  -0.740 -0.0667  0.0249  0.3528
  785MOL0     C 5870   6.838  11.538  -0.770  1.1479  0.8335 -0.4900
  785MOL0     O 5871   6.761  11.433  -0.770 -1.3606  0.3435 -0.1507
  785MOL0     C 5872   6.625  11.443  -0.759 -0.6823  0.2740  0.0650
  785MOL0     C 5873   6.560  11.335  -0.826  1.0248 -0.2684  1.2238
  785MOL0     C 5874   6.425  11.323  -0.818  0.7422  0.9707  1.3236
  785MOL0     C 5875   6.353  11.414  -0.753 -0.3307 -0.2312 -0.5402
  785MOL0     O 5876   6.212  11.396  -0.756 -0.2824 -0.1505  0.1522
  785MOL0     C 5877   6.131  11.443  -0.648 -0.2252  0.2849  0.0731
  785MOL0     C 5878   6.016  11.349  -0.621  1.8866  0.8695 -0.1943
  785MOL0     C 5879   5.964  11.395  -0.479  0.3319 -0.5091  0.8223
  785MOL0     C 5880   5.849  11.302  -0.428 -1.0871 -0.7341  0.0958
  785MOL0     C 5881   5.780  11.358  -0.302  0.0674  0.4923 -0.4062
  785MOL0     C 5882   5.671  11.251  -0.261 -0.5111 -0.4429 -0.5663
  785MOL0     C 5883   5.601  11.276  -0.130  0.1788  0.7197 -0.0019
  785MOL0     C 5884   5.502  11.180  -0.076  0.4035  0.2897  0.8021
  785MOL0    Cl 5885   5.360  11.161  -0.190  0.0385 -0.1575 -0.2177
  785MOL0     C 5886   6.416  11.525  -0.696  1.3192 -0.8525  0.7461
  785MOL0     C 5887   6.555  11.539  -0.693  0.1281 -0.5528  0.3449
  785MOL0     O 5888   6.803  11.650  -0.806 -0.2878  0.3970  0.5450
  785MOL0     C 5889   7.032  11.383  -0.711  0.0126 -0.8333  0.0880
  785MOL0     C 5890   7.163  11.356  -0.669 -0.2982 -0.0407 -0.6892
  785MOL0     N 5891   7.940  11.554  -0.554  0.5266 -0.4891 -0.7478
  785MOL0     N 5892   8.038  11.580  -0.480 -0.4746 -0.2631  0.1487
  785MOL0     C 5893   9.007  11.051   0.156 -0.5508 -0.2127  0.0290
  785MOL0     C 5894   9.060  10.923   0.201  0.5034 -0.6066  0.3437
  785MOL0     C 5895   9.201  10.559   0.395  0.1259 -0.5610 -0.5260
  785MOL0     C 5896   9.140  10.532   0.518  0.3148  0.3594  0.5432
  785MOL0     C 5897   9.173  10.405   0.575  1.2096  0.2323  0.4792
  785MOL0     C 5898   9.259  10.317   0.513 -0.7390  0.2631 -1.2719
  785MOL0     O 5899   9.293  10.199   0.583 -0.5689 -0.9764  0.1485
  785MOL0     C 5900   9.357  10.101   0.510 -0.2254  0.5694  0.4399
  785MOL0     C 5901   9.365   9.965   0.582 -0.2783 -0.3870 -0.5250
  785MOL0     C 5902   9.223   9.916   0.636 -0.2587  0.5573  0.7607
  785MOL0     C 5903   9.227   9.821   0.759  0.2344  0.0674  0.0965
  785MOL0     C 5904   9.333   9.722   0.764  0.3611  0.6724  0.2331
  785MOL0     C 5905   9.412   9.633   0.745  0.2852  0.2917  0.9584
  785MOL0     C 5906   9.314  10.352   0.395 -0.3880 -0.2014 -0.6459
  785MOL0     C 5907   9.290  10.467   0.340 -0.4794  0.0530  0.2923
  785MOL0     H 5908   8.949  10.942   0.515  1.0694  3.7501  0.6980
  785MOL0     H 5909   8.868  11.163   0.443 -3.6922  1.1076 -2.9912
  785MOL0     H 5910   8.719  11.192   0.175 -0.4994  1.5411  0.1472
  785MOL0     H 5911   8.733  11.370   0.157  2.2159  0.0906  1.4276
  785MOL0     H 5912   8.840  11.346  -0.055 -0.3800  0.3720 -0.0222
  785MOL0     H 5913   8.823  11.168  -0.048 -2.6835 -0.1294 -4.0061
  785MOL0     H 5914   8.581  11.192  -0.041 -0.4717 -0.0526  1.0403
  785MOL0     H 5915   8.588  11.369  -0.032  1.2939  1.0549  0.1592
  785MOL0     H 5916   8.664  11.388  -0.258  0.3995  1.3722  1.5810
  785MOL0     H 5917   8.702  11.211  -0.267 -0.8555 -1.0208 -0.4934
  785MOL0     H 5918   8.508  11.231  -0.387 -1.7664 -0.1553  0.2064
  785MOL0     H 5919   8.461  11.175  -0.233 -0.3572 -0.7492 -1.5208
  785MOL0     H 5920   8.390  11.396  -0.150 -3.5141 -0.8114 -0.4892
  785MOL0     H 5921   8.468  11.475  -0.286  1.2466 -0.3489  0.2975
  785MOL0     H 5922   8.289  11.318  -0.434  0.2405  0.7522  0.4609
  785MOL0     H 5923   8.231  11.276  -0.280 -2.6337  2.0371 -0.9334
  785MOL0     H 5924   8.251  11.572  -0.357 -1.3842  1.2989 -0.7819
  785MOL0     H 5925   8.158  11.503  -0.226  1.8274  3.1707  0.3048
  785MOL0     H 5926   7.999  11.257  -0.434 -2.1930 -0.7603 -3.5359
  785MOL0     H 5927   7.853  11.297  -0.685  0.9363 -0.1026  1.3885
  785MOL0     H 5928   7.766  11.272  -0.528  2.9086 -2.1118  0.4359
  785MOL0     H 5929   7.615  11.355  -0.700 -0.6449  1.4982 -1.0292
  785MOL0     H 5930   7.720  11.483  -0.748 -3.7294 -2.6730 -4.7896
  785MOL0     H 5931   7.672  11.596  -0.535  0.1638 -1.5439  4.0530
  785MOL0     H 5932   7.606  11.435  -0.477  0.6534 -1.3454 -0.8871
  785MOL0     H 5933   7.484  11.567  -0.710 -1.3020 -2.0039 -1.5577
  785MOL0     H 5934   7.434  11.610  -0.536  1.0674 -2.4472  2.9262
  785MOL0     H 5935   7.287  11.661  -0.681 -1.1278  0.2914  2.4090
  785MOL0     H 5936   6.994  11.815  -0.700  0.7186  0.7684 -0.4734
  785MOL0     H 5937   7.160  11.809  -0.766  0.8493 -2.1011 -1.0753
  785MOL0     H 5938   7.016  11.765  -0.863 -2.2613  1.0601  0.3682
  785MOL0     H 5939   6.610  11.244  -0.857 -1.3614 -0.7757 -1.5766
  785MOL0     H 5940   6.375  11.235  -0.857  0.2576  1.9971 -0.4703
  785MOL0     H 5941   6.189  11.444  -0.555  0.0095  1.9550 -0.0572
  785MOL0     H 5942   6.093  11.545  -0.664  0.8747  0.4506 -1.6976
  785MOL0     H 5943   5.941  11.354  -0.700  2.5587  1.2058 -0.8302
  785MOL0     H 5944   6.044  11.243  -0.623 -2.3832 -0.4349 -1.2720
  785MOL0     H 5945   5.932  11.499  -0.489 -2.5367 -1.4107 -0.7729
  785MOL0     H 5946   6.056  11.387  -0.420  0.8981 -0.5417 -0.0533
  785MOL0     H 5947   5.781  11.290  -0.513 -0.0662  1.7107 -1.1527
  785MOL0     H 5948   5.897  11.207  -0.401 -0.2614 -0.2983  0.1840
  785MOL0     H 5949   5.728  11.453  -0.318 -0.3707 -0.1910 -3.6934
  785MOL0     H 5950   5.855  11.362  -0.222 -1.0971 -1.3846  0.8709
  785MOL0     H 5951   5.598  11.258  -0.341 -4.3866  2.3278  2.7941
  785MOL0     H 5952   5.713  11.151  -0.249  1.9814  0.5949 -0.0537
  785MOL0     H 5953   5.555  11.375  -0.143  4.0970  2.7585  0.3135
  785MOL0     H 5954   5.666  11.300  -0.046  0.2409  2.0376 -0.4043
  785MOL0     H 5955   5.464  11.215   0.020 -0.6014 -0.6532  0.7667
  785MOL0     H 5956   5.546  11.082  -0.056 -1.3176 -0.7346 -0.1732
  785MOL0     H 5957   6.345  11.593  -0.651 -1.0221 -0.6513 -2.8311
  785MOL0     H 5958   6.601  11.622  -0.641  0.8530  1.2050 -2.8199
  785MOL0     H 5959   6.970  11.295  -0.721 -0.1199 -0.6288 -0.9875
  785MOL0     H 5960   7.194  11.254  -0.646 -1.6811 -0.0086  1.6672
  785MOL0     H 5961   9.031  11.083   0.055  0.1995 -1.7486 -0.3075
  785MOL0     H 5962   9.106  10.860   0.126 -0.4646  0.9941 -1.6940
  785MOL0     H 5963   9.102  10.620   0.568  0.0415 -0.6086  2.1148
  785MOL0     H 5964   9.126  10.393   0.672  2.3917 -1.5396  0.8790
  785MOL0     H 5965   9.307  10.087   0.413  3.0249  0.0057 -1.3089
  785MOL0     H 5966   9.456  10.138   0.482 -0.2977 -0.6919 -1.7412
  785MOL0     H 5967   9.434   9.977   0.665 -0.3687 -3.4764  0.1359
  785MOL0     H 5968   9.410   9.882   0.526  4.6929  1.1544  0.6898
  785MOL0     H 5969   9.175   9.877   0.546  2.1930  1.0148 -0.8364
  785MOL0     H 5970   9.165   9.999   0.679 -0.7154  0.8421 -0.3703
  785MOL0     H 5971   9.129   9.775   0.775  0.6821 -1.8785 -2.1639
  785MOL0     H 5972   9.248   9.885   0.846 -3.5978  0.6750  0.7198
  785MOL0     H 5973   9.478   9.553   0.718 -0.9998 -0.4740 -0.0344
  785MOL0     H 5974   9.386  10.290   0.343 -0.9313 -1.0779 -0.3823
  785MOL0     H 5975   9.359  10.486   0.258  0.1779  0.6200  0.9608
  786MOL0     O 5976   5.535   3.496   9.834  0.1172 -0.3404 -0.5918
  786MOL0     C 5977   5.652   3.479   9.807 -0.2005  0.7807 -0.3012
  786MOL0     O 5978   5.766   3.545   9.848 -0.5346 -0.2277 -0.0863
  786MOL0     C 5979   5.751   3.678   9.893 -0.1317  0.4411  0.1087
  786MOL0     C 5980   5.720   3.784   9.814 -0.1667 -0.0092  0.5496
  786MOL0     C 5981   5.716   3.920   9.857  0.3441 -0.2352 -0.4595
  786MOL0     C 5982   5.730   3.940   9.988  0.7432 -1.0316 -0.2288
  786MOL0     O 5983   5.701   4.067  10.026 -0.5062  0.1128  0.2197
  786MOL0     C 5984   5.661   4.089  10.162 -0.0276  0.2985  0.0635
  786MOL0     C 5985   5.609   4.232  10.174 -0.1277 -0.2297  0.3952
  786MOL0     C 5986   5.546   4.251  10.309 -0.7170  0.6199  0.8735
  786MOL0     C 5987   5.496   4.397  10.314 -0.2550  0.5200  0.4003
  786MOL0     C 5988   5.602   4.502  10.355 -0.0071 -0.3024 -1.1567
  786MOL0     C 5989   5.549   4.648  10.347 -0.8826 -0.3650  0.9779
  786MOL0     C 5990   5.666   4.748  10.373 -0.7401  0.2119 -0.5790
  786MOL0     C 5991   5.685   4.761  10.526 -0.4237 -0.5887 -0.2000
  786MOL0     N 5992   5.569   4.805  10.600  0.5753  1.3537  0.1795
  786MOL0     C 5993   5.504   4.932  10.584 -0.3203  0.6776  0.2966
  786MOL0     C 5994   5.410   4.935  10.677 -0.3426  0.7684 -0.3420
  786MOL0     C 5995   5.335   5.054  10.714  0.0969 -0.9657 -0.5373
  786MOL0     C 5996   5.228   5.077  10.613  0.4036 -0.1232  0.4146
  786MOL0     C 5997   5.146   5.203  10.647  0.8448 -0.5688  0.3185
  786MOL0     C 5998   5.009   5.222  10.571 -0.8373 -0.2633 -0.2245
  786MOL0     O 5999   4.930   5.104  10.585 -0.8468 -1.3707  0.5651
  786MOL0     C 6000   4.811   5.097  10.518 -0.4648 -0.1932  0.2900
  786MOL0     C 6001   4.735   4.982  10.545  0.1464  0.3349 -0.3182
  786MOL0     C 6002   4.610   4.966  10.489 -0.0610 -0.7286 -0.0315
  786MOL0     C 6003   4.535   4.835  10.519  0.0145  0.0280 -0.3922
  786MOL0     C 6004   4.570   5.061  10.391 -0.1487 -0.3741 -0.3696
  786MOL0     C 6005   4.442   5.051  10.326 -0.1498 -0.3994 -0.3350
  786MOL0     O 6006   4.415   5.126  10.219 -0.0767 -0.1896  0.0053
  786MOL0     C 6007   4.311   5.085  10.136 -0.4303  0.1835 -0.5680
  786MOL0     C 6008   4.307   4.954  10.091  0.4933 -0.0812  0.3026
  786MOL0     C 6009   4.188   4.918  10.017  0.3115 -0.0710  0.3798
  786MOL0     C 6010   4.082   5.005   9.993  0.6166  1.6876  0.0656
  786MOL0     O 6011   3.983   4.949   9.914 -0.5881 -0.7381 -0.0798
  786MOL0     C 6012   3.873   5.036   9.879  0.2984 -0.3365  0.2943
  786MOL0     C 6013   3.779   4.950   9.791 -1.1628 -0.7787  0.2289
  786MOL0     C 6014   3.778   4.806   9.835  0.5026 -0.2948 -0.1525
  786MOL0     C 6015   3.652   4.730   9.776 -0.3991 -0.0940  0.5374
  786MOL0     C 6016   3.621   4.590   9.836 -0.2772  0.4412 -0.1312
  786MOL0     C 6017   3.535   4.499   9.757 -0.1791  0.5406 -0.1100
  786MOL0     C 6018   3.389   4.547   9.744  1.1088  0.1216  0.5521
  786MOL0     C 6019   3.313   4.566   9.869 -0.5144  0.1447 -0.2493
  786MOL0    Cl 6020   3.147   4.589   9.819  0.1065 -0.0587 -0.4089
  786MOL0     C 6021   4.093   5.139  10.035  0.7443  0.6034  0.4264
  786MOL0     C 6022   4.210   5.177  10.110  0.4908  0.9493  1.0977
  786MOL0     O 6023   4.354   4.981  10.376  0.1479 -0.3516  0.7006
  786MOL0     C 6024   4.656   5.169  10.360 -0.1625 -0.1703  0.6018
  786MOL0     C 6025   4.783   5.184  10.413 -0.3281  0.1246 -0.7984
  786MOL0     N 6026   5.401   4.810  10.745  0.2280  0.8840 -0.0569
  786MOL0     N 6027   5.498   4.739  10.697 -0.1598  0.3740 -0.0655
  786MOL0     C 6028   5.743   3.834  10.078  0.3149 -0.0190 -0.3255
  786MOL0     C 6029   5.746   3.708  10.032 -0.0325 -0.7895  1.2865
  786MOL0     C 6030   5.692   3.360   9.735  0.5235 -0.4358  0.5847
  786MOL0     C 6031   5.597   3.255   9.694 -1.4364 -0.0396 -0.2200
  786MOL0     C 6032   5.648   3.132   9.645 -0.7267 -0.4372 -0.2495
  786MOL0     C 6033   5.778   3.116   9.590 -0.2347 -0.6481  0.1349
  786MOL0     O 6034   5.809   3.001   9.517 -0.3708 -0.4896 -0.6220
  786MOL0     C 6035   5.942   2.991   9.468 -0.0901  0.1333 -0.1927
  786MOL0     C 6036   6.035   2.932   9.576 -0.9623 -0.0958 -0.1490
  786MOL0     C 6037   6.184   2.928   9.539  0.2293  0.6859 -0.4942
  786MOL0     C 6038   6.255   2.800   9.612 -0.2363 -0.1210 -0.6676
  786MOL0     C 6039   6.400   2.801   9.612  0.0551  0.3281 -0.4402
  786MOL0     C 6040   6.521   2.790   9.620 -0.3087 -0.5394 -0.5742
  786MOL0     C 6041   5.864   3.222   9.620  0.1380 -0.8703 -0.1552
  786MOL0     C 6042   5.822   3.340   9.690 -0.7022  0.9197 -0.0789
  786MOL0     H 6043   5.706   3.752   9.711  1.2869  0.5418  0.1654
  786MOL0     H 6044   5.688   4.005   9.795 -4.6878 -0.8631  0.5462
  786MOL0     H 6045   5.584   4.021  10.201  1.5860 -1.8698 -0.3676
  786MOL0     H 6046   5.749   4.070  10.224 -0.0283  0.1804  0.0281
  786MOL0     H 6047   5.689   4.305  10.156 -3.0300  2.9674 -0.4793
  786MOL0     H 6048   5.532   4.229  10.097 -1.8341 -1.1008  2.0663
  786MOL0     H 6049   5.467   4.176  10.315 -1.5546  0.4980 -5.1243
  786MOL0     H 6050   5.629   4.240  10.380  0.6842 -1.3824 -0.9576
  786MOL0     H 6051   5.442   4.415  10.221 -0.9797 -0.1880  0.6754
  786MOL0     H 6052   5.425   4.390  10.398  0.1151 -1.1751  0.6106
  786MOL0     H 6053   5.632   4.482  10.458 -0.0924  3.1590 -0.3496
  786MOL0     H 6054   5.693   4.496  10.295  0.1386  0.2424 -0.9959
  786MOL0     H 6055   5.508   4.657  10.246 -0.3956 -1.8756  0.6123
  786MOL0     H 6056   5.473   4.664  10.424  1.7241 -1.3912  3.9783
  786MOL0     H 6057   5.754   4.694  10.335 -2.2877 -0.6870 -3.1686
  786MOL0     H 6058   5.650   4.845  10.325 -1.7388  1.2510  1.7429
  786MOL0     H 6059   5.756   4.840  10.552 -1.6024  1.8570 -3.6797
  786MOL0     H 6060   5.706   4.658  10.559  0.8676 -1.0621 -2.3003
  786MOL0     H 6061   5.537   5.017  10.526  1.5880  0.0700  0.4246
  786MOL0     H 6062   5.279   5.058  10.809 -0.7673  2.9654 -1.0564
  786MOL0     H 6063   5.396   5.144  10.720 -1.2806 -0.0898  0.9986
  786MOL0     H 6064   5.170   4.984  10.613 -0.5911  0.4234 -2.1048
  786MOL0     H 6065   5.269   5.090  10.512  0.2140  1.2942  0.5028
  786MOL0     H 6066   5.209   5.290  10.626  1.0684 -1.0045 -0.9161
  786MOL0     H 6067   5.129   5.219  10.754  1.7696  0.5809  0.3251
  786MOL0     H 6068   5.044   5.242  10.469  1.5150 -2.0782  0.1314
  786MOL0     H 6069   4.960   5.314  10.603  3.8865  2.6478 -0.3179
  786MOL0     H 6070   4.776   4.917  10.622  1.6369  1.0458 -0.4808
  786MOL0     H 6071   4.597   4.763  10.572  0.3210  0.6876  0.1663
  786MOL0     H 6072   4.443   4.853  10.574 -0.0549 -0.6589 -0.2774
  786MOL0     H 6073   4.506   4.782  10.428 -1.0804 -0.3672  0.1813
  786MOL0     H 6074   4.384   4.879  10.108 -0.5822 -1.3465 -0.3096
  786MOL0     H 6075   4.184   4.815   9.981  0.7367 -0.4109  1.2512
  786MOL0     H 6076   3.818   5.063   9.969  1.9063 -0.6542  1.4148
  786MOL0     H 6077   3.901   5.127   9.826 -0.6335  0.3883  1.0086
  786MOL0     H 6078   3.681   4.999   9.792  0.2992  2.7188 -2.4218
  786MOL0     H 6079   3.803   4.953   9.684 -2.1189 -1.1644 -0.0069
  786MOL0     H 6080   3.769   4.814   9.944  0.4286  1.2815 -0.2626
  786MOL0     H 6081   3.870   4.760   9.797  2.3094  0.9264  2.4169
  786MOL0     H 6082   3.561   4.790   9.786 -0.7171 -0.7390  1.7134
  786MOL0     H 6083   3.662   4.716   9.668  0.2261 -0.0715  0.5869
  786MOL0     H 6084   3.595   4.600   9.942 -0.8919 -0.7051 -0.1591
  786MOL0     H 6085   3.710   4.526   9.839 -1.5861 -1.4154  1.5426
  786MOL0     H 6086   3.578   4.482   9.658  3.8702  1.3447  1.2959
  786MOL0     H 6087   3.550   4.401   9.805  2.1282 -0.3644 -2.4474
  786MOL0     H 6088   3.333   4.474   9.686  0.6264 -0.5605  1.8358
  786MOL0     H 6089   3.389   4.634   9.677 -1.6821 -1.2216 -1.3925
  786MOL0     H 6090   3.352   4.658   9.915  5.2279 -0.7807 -2.3654
  786MOL0     H 6091   3.318   4.481   9.938  2.7075  0.6989  0.4108
  786MOL0     H 6092   4.016   5.215  10.035  0.0297 -0.0118  3.1333
  786MOL0     H 6093   4.215   5.279  10.144 -0.5602  0.7918  1.7646
  786MOL0     H 6094   4.632   5.239  10.280  1.9813  1.4663  1.2998
  786MOL0     H 6095   4.836   5.276  10.394  1.3676 -0.5810  0.2931
  786MOL0     H 6096   5.747   3.847  10.186  1.6302 -1.7150 -0.1227
  786MOL0     H 6097   5.759   3.619  10.094  0.0886 -1.8779 -0.2522
  786MOL0     H 6098   5.491   3.276   9.706 -1.3222  0.5460 -0.1936
  786MOL0     H 6099   5.571   3.057   9.627 -0.8350 -0.4440  0.2309
  786MOL0     H 6100   5.950   2.920   9.385  0.5886 -0.9437  0.7834
  786MOL0     H 6101   5.978   3.089   9.433  1.5538 -0.7957 -1.2487
  786MOL0     H 6102   6.008   2.826   9.581 -1.4185 -0.0080 -0.6672
  786MOL0     H 6103   6.014   2.979   9.673 -4.2153 -0.5840 -0.5030
  786MOL0     H 6104   6.229   3.021   9.575 -2.1607  1.7388 -0.0732
  786MOL0     H 6105   6.194   2.922   9.430 -1.4269 -3.1620 -0.6012
  786MOL0     H 6106   6.229   2.709   9.558 -3.2172 -0.1320  0.5870
  786MOL0     H 6107   6.214   2.796   9.713 -2.8091 -1.0056 -1.6600
  786MOL0     H 6108   6.628   2.790   9.624 -0.2838 -2.0457  2.5359
  786MOL0     H 6109   5.971   3.227   9.601  0.1554  0.4210  0.1820
  786MOL0     H 6110   5.897   3.415   9.713  2.0165 -2.0852  1.7417
  787MOL0     O 6111   0.839   8.339   7.565  0.1573  0.2526  0.5570
  787MOL0     C 6112   0.832   8.223   7.525 -0.1362  0.0466  0.2290
  787MOL0     O 6113   0.726   8.173   7.453 -0.4604  0.0045 -0.4514
  787MOL0     C 6114   0.599   8.228   7.446  0.0011 -0.5666 -0.7415
  787MOL0     C 6115   0.555   8.336   7.521 -0.0699  0.7337  0.4876
  787MOL0     C 6116   0.425   8.386   7.499 -0.2151  0.1510  0.0963
  787MOL0     C 6117   0.326   8.315   7.423 -0.4304 -0.3838 -0.3323
  787MOL0     O 6118   0.201   8.374   7.407 -0.3340 -0.7855 -0.1633
  787MOL0     C 6119   0.092   8.274   7.397  0.0249  0.4574 -0.7377
  787MOL0     C 6120  -0.023   8.361   7.353  0.7404  0.6270 -0.5112
  787MOL0     C 6121  -0.069   8.465   7.457  0.4676 -1.3083  0.0779
  787MOL0     C 6122  -0.206   8.548   7.421  0.4405  0.7206  1.1131
  787MOL0     C 6123  -0.237   8.666   7.522 -0.2705  0.5994 -0.0436
  787MOL0     C 6124  -0.275   8.608   7.655 -0.7236  0.7544  0.5685
  787MOL0     C 6125  -0.365   8.708   7.737 -0.5158  0.6262 -0.6854
  787MOL0     C 6126  -0.403   8.636   7.869 -0.2304 -0.1234  0.2711
  787MOL0     N 6127  -0.533   8.684   7.911  0.6119 -0.1193 -0.1735
  787MOL0     C 6128  -0.646   8.666   7.832  0.1512  0.4761 -0.8736
  787MOL0     C 6129  -0.737   8.745   7.892 -0.7778  0.8249  0.0099
  787MOL0     C 6130  -0.879   8.752   7.860  0.1097 -0.2729  0.5118
  787MOL0     C 6131  -0.929   8.894   7.847  0.5665  0.6466 -0.4311
  787MOL0     C 6132  -0.864   8.989   7.741  0.0394  0.5340  0.1199
  787MOL0     C 6133  -0.923   8.960   7.595 -1.1209 -0.3369  0.0481
  787MOL0     O 6134  -0.828   8.999   7.490 -0.2706  0.3030 -0.4092
  787MOL0     C 6135  -0.878   8.989   7.362 -0.2965 -0.0520  1.4571
  787MOL0     C 6136  -0.793   8.999   7.256  0.1397  0.1889 -0.5936
  787MOL0     C 6137  -0.836   8.979   7.115  0.3208 -0.8484 -0.4333
  787MOL0     C 6138  -0.732   8.982   7.011 -0.2880 -0.3377  0.4038
  787MOL0     C 6139  -0.976   8.978   7.084 -0.1008 -0.0631  0.1525
  787MOL0     C 6140  -1.030   8.978   6.944 -0.2244  0.5293 -0.4157
  787MOL0     O 6141  -1.095   8.868   6.922  0.7531  0.1605 -0.2487
  787MOL0     C 6142  -1.158   8.821   6.803 -0.3142 -0.3104  1.8157
  787MOL0     C 6143  -1.115   8.854   6.675  0.4393  0.0547 -0.0223
  787MOL0     C 6144  -1.187   8.799   6.565  1.1885 -0.1210 -0.0343
  787MOL0     C 6145  -1.288   8.711   6.576  0.9558 -0.3888  0.2160
  787MOL0     O 6146  -1.352   8.650   6.469 -0.1454 -0.0456 -0.0079
  787MOL0     C 6147  -1.372   8.716   6.340 -0.7373  1.1009 -0.3362
  787MOL0     C 6148  -1.431   8.603   6.257  1.0758  0.0790  0.2189
  787MOL0     C 6149  -1.492   8.650   6.123  0.0636 -0.3226 -0.0778
  787MOL0     C 6150  -1.631   8.702   6.126 -0.2443  0.4394 -0.2223
  787MOL0     C 6151  -1.699   8.728   5.985 -1.0090 -0.0679 -0.7962
  787MOL0     C 6152  -1.758   8.589   5.931 -0.4973 -0.8157 -0.2020
  787MOL0     C 6153  -1.843   8.621   5.811 -0.2273  0.3363  0.6977
  787MOL0     C 6154  -1.751   8.627   5.690  0.8905  0.0608  0.2472
  787MOL0    Cl 6155  -1.838   8.620   5.533  0.1395 -0.5755  0.0941
  787MOL0     C 6156  -1.323   8.683   6.707  0.6590  1.0104  0.2934
  787MOL0     C 6157  -1.263   8.732   6.817  0.1538 -0.0645 -0.7870
  787MOL0     O 6158  -1.016   9.068   6.864  0.3551  0.3881  0.2118
  787MOL0     C 6159  -1.064   8.955   7.194 -0.5963  0.0362 -0.3932
  787MOL0     C 6160  -1.015   8.971   7.330  0.2730  0.1321 -1.1734
  787MOL0     N 6161  -0.677   8.822   7.994 -0.5348  0.6474 -0.1017
  787MOL0     N 6162  -0.559   8.778   8.004  0.0827 -0.1837 -0.0400
  787MOL0     C 6163   0.370   8.196   7.356 -0.2401  0.2313  0.0609
  787MOL0     C 6164   0.510   8.161   7.361 -0.2599  0.0216 -0.4375
  787MOL0     C 6165   0.951   8.136   7.534  0.6480 -0.0137 -1.1608
  787MOL0     C 6166   0.945   7.998   7.492  0.1620  0.0940 -0.6474
  787MOL0     C 6167   1.056   7.917   7.487  0.3101 -0.7482  0.3106
  787MOL0     C 6168   1.173   7.957   7.557  0.2553 -0.6576  0.2803
  787MOL0     O 6169   1.285   7.884   7.562 -0.1068 -0.0672 -0.3393
  787MOL0     C 6170   1.319   7.764   7.501  0.0450 -0.7078 -0.4630
  787MOL0     C 6171   1.452   7.711   7.544 -0.0712  0.5283 -0.1737
  787MOL0     C 6172   1.468   7.562   7.481  0.4218  0.0330  0.0461
  787MOL0     C 6173   1.613   7.526   7.463 -0.8182 -0.8316  0.2403
  787MOL0     C 6174   1.698   7.528   7.585 -0.3029 -0.7643 -0.6680
  787MOL0     C 6175   1.781   7.554   7.673  0.9786 -1.0690 -0.4850
  787MOL0     C 6176   1.174   8.083   7.616 -0.3526  0.2006  0.8199
  787MOL0     C 6177   1.065   8.169   7.605 -0.3055 -0.1635 -0.2932
  787MOL0     H 6178   0.610   8.392   7.595  2.2444  2.0086 -1.9917
  787MOL0     H 6179   0.404   8.478   7.553  2.7405  0.4359  0.9112
  787MOL0     H 6180   0.107   8.185   7.335  1.6825 -1.6021  2.3615
  787MOL0     H 6181   0.073   8.236   7.498  0.5901  0.9468 -0.4434
  787MOL0     H 6182   0.005   8.398   7.253  1.9292 -0.4386 -0.6033
  787MOL0     H 6183  -0.114   8.308   7.323 -1.7087  4.8361 -1.4142
  787MOL0     H 6184  -0.080   8.417   7.555 -1.2782  1.0933  1.1665
  787MOL0     H 6185   0.015   8.535   7.471 -1.2822  1.2042 -1.2169
  787MOL0     H 6186  -0.185   8.605   7.331 -1.4175 -0.1885  0.0501
  787MOL0     H 6187  -0.289   8.480   7.402 -1.1130  2.8346 -0.0723
  787MOL0     H 6188  -0.154   8.736   7.538  0.8630 -0.7457  0.1606
  787MOL0     H 6189  -0.321   8.720   7.479  1.2183  0.9443 -2.7151
  787MOL0     H 6190  -0.323   8.512   7.634  1.4812 -1.5178  4.6913
  787MOL0     H 6191  -0.178   8.575   7.693 -0.8126  0.4257  0.5118
  787MOL0     H 6192  -0.317   8.805   7.753 -0.3784  0.5768 -0.7890
  787MOL0     H 6193  -0.451   8.731   7.673 -1.2061  0.3192  0.1113
  787MOL0     H 6194  -0.322   8.640   7.942 -0.6278 -3.6624  1.0583
  787MOL0     H 6195  -0.428   8.531   7.852  0.8145  0.0502 -3.0329
  787MOL0     H 6196  -0.659   8.597   7.750 -1.7382 -2.0887  1.4168
  787MOL0     H 6197  -0.890   8.700   7.765  0.9637 -2.3393  1.4772
  787MOL0     H 6198  -0.946   8.702   7.929 -2.6465  1.6369 -0.6105
  787MOL0     H 6199  -0.911   8.949   7.940 -0.6830 -0.7227  0.6800
  787MOL0     H 6200  -1.037   8.879   7.834  0.9092 -1.7451 -0.9514
  787MOL0     H 6201  -0.755   8.983   7.740  0.1095  0.3344 -3.1151
  787MOL0     H 6202  -0.895   9.092   7.762 -1.5785 -0.1706  1.3871
  787MOL0     H 6203  -1.028   8.990   7.585 -0.9599 -0.1010 -1.0802
  787MOL0     H 6204  -0.922   8.850   7.595  0.5902 -0.4124  2.7885
  787MOL0     H 6205  -0.686   9.000   7.270  0.3089  1.2028 -1.7138
  787MOL0     H 6206  -0.757   9.013   6.909 -2.2794 -2.4646  0.1451
  787MOL0     H 6207  -0.643   9.036   7.042  1.4954 -0.9103 -3.1998
  787MOL0     H 6208  -0.703   8.877   6.997 -1.6394 -0.5359 -1.3801
  787MOL0     H 6209  -1.025   8.912   6.666  0.4863  0.5579  2.6987
  787MOL0     H 6210  -1.154   8.808   6.462 -1.5826 -0.3470 -1.0234
  787MOL0     H 6211  -1.440   8.796   6.373 -0.3104  0.4702  2.3097
  787MOL0     H 6212  -1.278   8.750   6.295 -0.3513 -2.6229 -2.7889
  787MOL0     H 6213  -1.350   8.529   6.244  1.7691  0.6880  0.9584
  787MOL0     H 6214  -1.506   8.548   6.315 -2.0343 -0.0217 -3.4830
  787MOL0     H 6215  -1.501   8.563   6.057 -3.4042  0.5432 -0.9797
  787MOL0     H 6216  -1.433   8.726   6.071  1.8343 -2.3567 -1.2023
  787MOL0     H 6217  -1.688   8.623   6.176  0.5420 -1.3978 -2.0636
  787MOL0     H 6218  -1.633   8.788   6.194  0.1186  0.6996 -0.5336
  787MOL0     H 6219  -1.627   8.766   5.912  0.0353 -0.9791 -0.2778
  787MOL0     H 6220  -1.781   8.800   5.985  1.6812  3.3118  1.8981
  787MOL0     H 6221  -1.678   8.517   5.913  0.0587 -0.7780  1.8235
  787MOL0     H 6222  -1.819   8.543   6.008 -2.9939 -2.0256 -2.7471
  787MOL0     H 6223  -1.897   8.713   5.833 -0.5029 -0.0116  1.5387
  787MOL0     H 6224  -1.918   8.542   5.802  1.0789 -1.4372  3.7522
  787MOL0     H 6225  -1.687   8.539   5.703  1.8091  0.9253  1.9885
  787MOL0     H 6226  -1.689   8.717   5.687 -2.2906  2.4236 -0.0167
  787MOL0     H 6227  -1.402   8.612   6.728 -0.3353  2.3825  1.3174
  787MOL0     H 6228  -1.300   8.720   6.918  1.3500 -0.3990 -0.3677
  787MOL0     H 6229  -1.171   8.949   7.177 -0.8150 -1.0208  1.1585
  787MOL0     H 6230  -1.100   8.978   7.397  1.2890 -0.6066  0.2290
  787MOL0     H 6231   0.303   8.137   7.294  0.5658  0.2167 -0.8071
  787MOL0     H 6232   0.550   8.067   7.326  0.3212 -0.8420  2.3401
  787MOL0     H 6233   0.851   7.955   7.458  0.9005 -2.1710 -0.0075
  787MOL0     H 6234   1.051   7.819   7.440  2.0400 -1.3021  1.1968
  787MOL0     H 6235   1.235   7.701   7.531 -1.2554  1.2893  0.2951
  787MOL0     H 6236   1.323   7.765   7.392 -0.0020 -1.8449 -0.4780
  787MOL0     H 6237   1.452   7.705   7.653 -1.3284 -1.4122 -0.2322
  787MOL0     H 6238   1.536   7.774   7.516  1.2321 -2.1283 -2.7627
  787MOL0     H 6239   1.412   7.555   7.387  0.4659  0.2180  0.0052
  787MOL0     H 6240   1.430   7.497   7.559  1.9321  2.6978  3.2574
  787MOL0     H 6241   1.638   7.603   7.390 -1.7483 -1.5521 -0.8721
  787MOL0     H 6242   1.623   7.423   7.427 -2.3855 -1.0815  0.4335
  787MOL0     H 6243   1.852   7.580   7.749 -0.2223 -1.7169  0.9167
  787MOL0     H 6244   1.267   8.112   7.664  0.6883 -1.6252 -0.0026
  787MOL0     H 6245   1.093   8.266   7.646 -1.7402  0.5889 -1.0154
  788MOL0     O 6246  10.410  10.954   0.630 -0.1413 -0.3815 -0.4238
  788MOL0     C 6247  10.387  10.860   0.705 -1.0785 -0.1397 -0.1930
  788MOL0     O 6248  10.296  10.764   0.675 -0.0666 -0.1965 -0.1354
  788MOL0     C 6249  10.264  10.742   0.544  0.9538 -0.1991  0.0595
  788MOL0     C 6250  10.356  10.718   0.450 -0.5945 -0.1192  0.1872
  788MOL0     C 6251  10.321  10.696   0.314  0.3127 -0.2238 -0.6159
  788MOL0     C 6252  10.188  10.686   0.278  0.3430  0.2920  0.3135
  788MOL0     O 6253  10.148  10.660   0.149 -0.4999 -0.6566  0.2190
  788MOL0     C 6254  10.235  10.599   0.059 -0.0753 -0.2953  0.0365
  788MOL0     C 6255  10.164  10.583  -0.077 -0.4796  0.0731 -0.0715
  788MOL0     C 6256  10.191  10.705  -0.155 -0.0927 -0.0182  0.2175
  788MOL0     C 6257  10.120  10.698  -0.293 -0.1774  1.0780 -0.6076
  788MOL0     C 6258  10.163  10.801  -0.398  0.4900 -0.3865  0.1667
  788MOL0     C 6259  10.096  10.938  -0.381 -0.0692 -0.1371 -0.4908
  788MOL0     C 6260  10.148  11.038  -0.482  0.3198  0.7596 -0.4171
  788MOL0     C 6261  10.103  11.177  -0.433  0.5235 -0.6320 -0.0269
  788MOL0     N 6262   9.965  11.201  -0.447  0.4540  0.4045 -0.2780
  788MOL0     C 6263   9.898  11.228  -0.565 -0.2683  0.1938  0.0140
  788MOL0     C 6264   9.773  11.237  -0.524  0.5423  0.8547  0.1857
  788MOL0     C 6265   9.644  11.250  -0.601  0.5425 -0.3309 -0.0470
  788MOL0     C 6266   9.608  11.117  -0.668  0.3077 -0.3604 -0.8258
  788MOL0     C 6267   9.500  11.041  -0.585  0.2854 -0.3542 -0.0134
  788MOL0     C 6268   9.498  10.888  -0.614  0.2905 -1.3322 -0.4000
  788MOL0     O 6269   9.419  10.825  -0.512  0.0058 -0.4699 -0.3532
  788MOL0     C 6270   9.356  10.717  -0.555 -1.1320 -0.0285 -0.8127
  788MOL0     C 6271   9.414  10.589  -0.545 -0.2913  0.4713  0.0961
  788MOL0     C 6272   9.359  10.483  -0.613  0.6724  0.0053 -0.4312
  788MOL0     C 6273   9.437  10.349  -0.623 -1.3044 -0.8023 -0.5931
  788MOL0     C 6274   9.236  10.502  -0.678 -0.4429  0.3677 -0.2639
  788MOL0     C 6275   9.166  10.404  -0.765 -0.2143 -0.9503 -0.0704
  788MOL0     O 6276   9.070  10.454  -0.851 -0.4259 -0.1102  0.5120
  788MOL0     C 6277   9.001  10.382  -0.940 -1.3253 -0.2971  1.0962
  788MOL0     C 6278   9.046  10.260  -1.005 -0.3784 -0.1350  0.0356
  788MOL0     C 6279   8.954  10.192  -1.087 -0.7338 -0.6134  0.3494
  788MOL0     C 6280   8.823  10.224  -1.105 -0.5904  0.7920 -0.5344
  788MOL0     O 6281   8.735  10.157  -1.179  0.7418  0.3204 -0.2817
  788MOL0     C 6282   8.791  10.119  -1.309 -0.0922  0.0022  0.4752
  788MOL0     C 6283   8.671  10.102  -1.403  0.0025 -0.1897 -0.4590
  788MOL0     C 6284   8.730  10.105  -1.547  0.4564  0.2311 -1.8452
  788MOL0     C 6285   8.641  10.027  -1.641 -0.7052 -0.0210 -0.8792
  788MOL0     C 6286   8.686  10.035  -1.792  0.1066  0.8772 -0.1952
  788MOL0     C 6287   8.612   9.930  -1.878  0.0390 -0.0240  0.3269
  788MOL0     C 6288   8.647   9.937  -2.029  0.2039  0.3485  0.2573
  788MOL0     C 6289   8.586   9.833  -2.121 -0.1328  0.0407 -0.2890
  788MOL0    Cl 6290   8.668   9.672  -2.096  0.1034  0.6184 -0.4922
  788MOL0     C 6291   8.781  10.334  -1.035 -0.0676 -0.6826  0.5425
  788MOL0     C 6292   8.865  10.415  -0.963 -0.5372 -1.0327  0.0534
  788MOL0     O 6293   9.209  10.284  -0.757 -0.2120  0.4701  0.7091
  788MOL0     C 6294   9.167  10.623  -0.671  0.0941  0.4775  0.2298
  788MOL0     C 6295   9.234  10.732  -0.619  1.2384  0.4071 -0.5891
  788MOL0     N 6296   9.759  11.218  -0.389  0.0748  0.4132  0.5325
  788MOL0     N 6297   9.881  11.211  -0.342 -0.2077  0.0094 -0.7697
  788MOL0     C 6298  10.088  10.693   0.379 -0.1421  0.1509 -0.2039
  788MOL0     C 6299  10.129  10.718   0.515  0.3035  1.0527 -0.8011
  788MOL0     C 6300  10.467  10.854   0.839  1.2548 -0.1638  0.7353
  788MOL0     C 6301  10.595  10.924   0.853  0.4132 -0.1181 -0.8997
  788MOL0     C 6302  10.665  10.910   0.973  0.7161 -0.0406 -0.1273
  788MOL0     C 6303  10.626  10.824   1.076 -0.8490 -0.5629  0.5357
  788MOL0     O 6304  10.715  10.813   1.182  0.1219  0.2081 -0.0038
  788MOL0     C 6305  10.663  10.733   1.296 -0.3125 -0.4704 -1.8175
  788MOL0     C 6306  10.563  10.819   1.374  0.3249 -0.1962  0.3062
  788MOL0     C 6307  10.614  10.948   1.428 -0.4538  0.2807 -0.5162
  788MOL0     C 6308  10.493  11.039   1.462  0.1878 -0.6491 -0.6265
  788MOL0     C 6309  10.413  11.082   1.344  0.1581  0.2288 -0.8185
  788MOL0     C 6310  10.342  11.128   1.259 -0.2100  0.1365 -0.6686
  788MOL0     C 6311  10.502  10.751   1.056 -0.3434  0.5439  0.6622
  788MOL0     C 6312  10.429  10.761   0.936  1.0525 -0.1728  0.1354
  788MOL0     H 6313  10.455  10.743   0.486 -0.4697  0.7539 -0.7307
  788MOL0     H 6314  10.395  10.679   0.236 -0.2689  0.5823 -1.3696
  788MOL0     H 6315  10.326  10.657   0.041 -0.5859 -0.3360 -3.1110
  788MOL0     H 6316  10.262  10.504   0.105 -3.1435 -0.6255  1.4025
  788MOL0     H 6317  10.210  10.501  -0.134 -1.2812 -0.4550  0.0190
  788MOL0     H 6318  10.057  10.561  -0.070 -0.5012  0.6594  4.9190
  788MOL0     H 6319  10.154  10.793  -0.102  3.2698  0.5735  1.8592
  788MOL0     H 6320  10.297  10.728  -0.169 -0.8145  5.4467  1.5065
  788MOL0     H 6321  10.155  10.597  -0.315 -3.9123 -0.8114  1.1603
  788MOL0     H 6322  10.011  10.695  -0.286 -0.3097 -3.0806 -1.8231
  788MOL0     H 6323  10.270  10.823  -0.400  0.0676  1.7596 -0.3133
  788MOL0     H 6324  10.136  10.777  -0.501 -0.6485 -0.7319  0.5216
  788MOL0     H 6325   9.988  10.928  -0.395 -0.8072  3.0804  1.9604
  788MOL0     H 6326  10.111  10.986  -0.284 -0.8940  1.0119 -0.9188
  788MOL0     H 6327  10.257  11.036  -0.484  0.4242  2.1549  1.7721
  788MOL0     H 6328  10.102  11.017  -0.579  1.7929 -0.8888 -0.8243
  788MOL0     H 6329  10.160  11.256  -0.483 -0.3085  0.5865  0.8998
  788MOL0     H 6330  10.114  11.191  -0.325 -1.9374 -1.0084  0.3402
  788MOL0     H 6331   9.935  11.229  -0.667  1.2029 -1.6352  0.4671
  788MOL0     H 6332   9.564  11.291  -0.539  2.7416  2.2716  1.2799
  788MOL0     H 6333   9.662  11.320  -0.683  1.1403  0.6033  0.8673
  788MOL0     H 6334   9.694  11.053  -0.690  0.0323 -0.7873 -0.6657
  788MOL0     H 6335   9.549  11.137  -0.758 -1.4242  0.9828  0.5182
  788MOL0     H 6336   9.401  11.088  -0.595  0.3630 -0.6361 -3.1126
  788MOL0     H 6337   9.533  11.044  -0.481 -1.3604  0.0602  0.5167
  788MOL0     H 6338   9.604  10.862  -0.613  0.9938  1.2685  1.7334
  788MOL0     H 6339   9.463  10.873  -0.717 -2.5678  1.7751 -0.0592
  788MOL0     H 6340   9.510  10.582  -0.494 -0.2905  1.9504  0.3350
  788MOL0     H 6341   9.469  10.334  -0.726  3.7789 -0.3614  0.6778
  788MOL0     H 6342   9.536  10.363  -0.578 -1.8516  0.2294  0.3598
  788MOL0     H 6343   9.378  10.270  -0.575 -2.7609  0.6820  0.1969
  788MOL0     H 6344   9.147  10.231  -0.981  1.9045  3.3097 -4.0515
  788MOL0     H 6345   9.000  10.113  -1.147  4.8134 -0.4567  3.7335
  788MOL0     H 6346   8.848  10.204  -1.348 -0.7181  0.4082  0.4169
  788MOL0     H 6347   8.854  10.030  -1.311 -0.3907 -0.2326 -1.8983
  788MOL0     H 6348   8.613  10.010  -1.388 -0.6181  0.2343 -0.2112
  788MOL0     H 6349   8.598  10.182  -1.388 -1.2476 -1.4038  0.1516
  788MOL0     H 6350   8.832  10.066  -1.545  0.4133 -0.1018  2.5422
  788MOL0     H 6351   8.736  10.210  -1.576 -1.6139  0.8338 -0.3218
  788MOL0     H 6352   8.626   9.922  -1.613 -3.4522  0.3029 -0.8564
  788MOL0     H 6353   8.541  10.071  -1.638 -0.2363  1.0171  0.5476
  788MOL0     H 6354   8.789  10.004  -1.813 -0.3904 -0.5313 -0.6583
  788MOL0     H 6355   8.672  10.139  -1.824  4.5497  0.4644 -4.7519
  788MOL0     H 6356   8.629   9.835  -1.828 -2.7227  1.1929  4.0830
  788MOL0     H 6357   8.503   9.945  -1.879  0.2016  1.3067 -0.3612
  788MOL0     H 6358   8.755   9.944  -2.048 -0.0872  2.1742 -1.0260
  788MOL0     H 6359   8.618  10.036  -2.066  0.8631  1.0845  1.6492
  788MOL0     H 6360   8.605   9.872  -2.221  1.1214 -2.5003 -1.1136
  788MOL0     H 6361   8.477   9.832  -2.119 -0.1915  0.5615  3.0811
  788MOL0     H 6362   8.677  10.357  -1.056 -0.3055 -3.4525 -2.0103
  788MOL0     H 6363   8.820  10.498  -0.909  1.0586 -0.1815  0.1282
  788MOL0     H 6364   9.063  10.633  -0.698  0.0397  2.0735  0.8990
  788MOL0     H 6365   9.179  10.825  -0.608  0.6628 -0.1770  2.6041
  788MOL0     H 6366   9.982  10.687   0.355  0.0978 -2.2425 -0.9473
  788MOL0     H 6367  10.048  10.709   0.588 -0.0815  0.4651 -1.2925
  788MOL0     H 6368  10.632  10.991   0.777  0.5375  0.3677 -0.4214
  788MOL0     H 6369  10.752  10.973   0.985 -0.4792  1.4596  1.0312
  788MOL0     H 6370  10.615  10.638   1.270 -1.3552 -0.8901  1.2031
  788MOL0     H 6371  10.748  10.710   1.362  1.9810  2.0806 -3.6252
  788MOL0     H 6372  10.533  10.762   1.462  0.8007 -2.2636 -0.8100
  788MOL0     H 6373  10.480  10.829   1.304  0.5806 -0.8885 -0.1030
  788MOL0     H 6374  10.676  11.003   1.355  0.8932 -1.5627 -0.8361
  788MOL0     H 6375  10.680  10.930   1.513 -0.1723 -0.7177 -0.9312
  788MOL0     H 6376  10.537  11.121   1.519  3.3403 -0.6608 -2.7422
  788MOL0     H 6377  10.426  10.988   1.531 -0.3043 -0.6722 -1.1175
  788MOL0     H 6378  10.284  11.177   1.183  2.4887  0.6500 -2.5486
  788MOL0     H 6379  10.458  10.686   1.131 -1.6715 -0.0446 -0.5790
  788MOL0     H 6380  10.335  10.707   0.933 -0.1871  1.9248 -1.2630
  789MOL0     O 6381  10.123   2.776   8.085 -0.0499  0.6483 -0.1424
  789MOL0     C 6382  10.016   2.840   8.090 -0.3400 -0.3479 -0.6809
  789MOL0     O 6383   9.933   2.864   7.989  0.0118 -0.1599 -0.2675
  789MOL0     C 6384   9.972   2.813   7.865  0.7852 -0.2240  0.5656
  789MOL0     C 6385   9.913   2.692   7.815 -0.3211  0.0457 -0.1151
  789MOL0     C 6386   9.955   2.642   7.689 -0.5744  0.1389  0.2572
  789MOL0     C 6387  10.050   2.698   7.605  0.5234 -0.1045  0.6281
  789MOL0     O 6388  10.078   2.643   7.492  0.3823  0.5229  0.5853
  789MOL0     C 6389   9.998   2.696   7.376 -0.2045 -0.1555  0.1304
  789MOL0     C 6390  10.018   2.622   7.237 -0.2552 -0.3870 -0.2104
  789MOL0     C 6391  10.168   2.624   7.198  0.0784  0.5272 -0.8832
  789MOL0     C 6392  10.225   2.763   7.171  0.0227 -0.1362 -0.1662
  789MOL0     C 6393  10.385   2.770   7.138  0.0611 -0.4480  0.5104
  789MOL0     C 6394  10.474   2.715   7.246 -0.9578 -0.4717  1.0004
  789MOL0     C 6395  10.453   2.744   7.394  0.5360 -0.2445  0.4174
  789MOL0     C 6396  10.478   2.892   7.421  1.0684 -1.2904  0.4497
  789MOL0     N 6397  10.607   2.935   7.380 -1.0059 -0.1889  0.2915
  789MOL0     C 6398  10.732   2.883   7.419  0.3876  0.5957  0.2543
  789MOL0     C 6399  10.811   2.902   7.316  0.6547 -0.0507  0.1342
  789MOL0     C 6400  10.948   2.845   7.301  0.5860  0.3679  0.2856
  789MOL0     C 6401  11.060   2.938   7.348  0.0813  0.5589  1.1176
  789MOL0     C 6402  11.097   3.060   7.253 -0.4868 -0.4592  0.7822
  789MOL0     C 6403  11.165   3.019   7.124 -0.3520  0.5910  0.4869
  789MOL0     O 6404  11.255   2.908   7.144 -0.2604  0.1750 -0.5279
  789MOL0     C 6405  11.384   2.909   7.104  0.8187  1.1790 -0.1141
  789MOL0     C 6406  11.435   2.985   6.994 -0.4642 -0.8013 -0.2963
  789MOL0     C 6407  11.571   2.976   6.958  1.2696 -0.3910 -0.1583
  789MOL0     C 6408  11.605   3.067   6.847 -0.3624  1.0485 -0.6883
  789MOL0     C 6409  11.659   2.883   7.024 -0.3952 -0.7152 -0.3022
  789MOL0     C 6410  11.802   2.857   6.996 -0.2671 -0.5032  0.6282
  789MOL0     O 6411  11.870   2.758   7.059 -0.3842  0.5087  0.3089
  789MOL0     C 6412  12.005   2.748   7.039  0.2438 -0.4565  0.3547
  789MOL0     C 6413  12.083   2.848   7.097  0.3688 -0.0569  0.2635
  789MOL0     C 6414  12.223   2.845   7.082  0.0012 -0.6613  0.4488
  789MOL0     C 6415  12.270   2.753   6.983 -0.2109  0.2958 -0.8253
  789MOL0     O 6416  12.404   2.747   6.958  0.7469  0.9298 -0.6521
  789MOL0     C 6417  12.499   2.809   7.054 -0.4400  0.0290  0.7712
  789MOL0     C 6418  12.633   2.759   7.016 -0.2486  0.2525  0.4790
  789MOL0     C 6419  12.731   2.777   7.137  0.1839 -0.1263 -0.1131
  789MOL0     C 6420  12.852   2.692   7.137 -0.2651 -0.4462 -0.4061
  789MOL0     C 6421  12.921   2.726   7.277  0.4082  0.9364 -0.0537
  789MOL0     C 6422  13.066   2.667   7.284 -0.0845  0.1694 -0.4073
  789MOL0     C 6423  13.137   2.724   7.410 -0.7376 -0.2649  0.8651
  789MOL0     C 6424  13.276   2.670   7.424  0.2069  0.0393  0.7234
  789MOL0    Cl 6425  13.366   2.726   7.281  0.2091  0.0751  0.0120
  789MOL0     C 6426  12.186   2.671   6.901 -0.4625 -0.1632 -0.2853
  789MOL0     C 6427  12.053   2.667   6.938 -0.9054 -0.7587  0.3448
  789MOL0     O 6428  11.849   2.931   6.908  0.2111  0.6035 -0.5530
  789MOL0     C 6429  11.595   2.803   7.124 -0.0283 -0.0322  0.0110
  789MOL0     C 6430  11.469   2.825   7.171  0.9363  0.0588  0.1452
  789MOL0     N 6431  10.763   3.011   7.242  0.2381  0.8407  0.8266
  789MOL0     N 6432  10.638   3.013   7.273 -0.3050 -0.3435  0.6857
  789MOL0     C 6433  10.121   2.805   7.663  0.8109 -0.1234 -0.1786
  789MOL0     C 6434  10.081   2.861   7.792 -0.1128  0.8040 -0.2004
  789MOL0     C 6435   9.990   2.899   8.225  1.0156  0.5776  0.6634
  789MOL0     C 6436   9.870   2.969   8.247  0.1529 -0.0761 -0.2153
  789MOL0     C 6437   9.826   3.002   8.375  0.7438  1.3741 -0.4806
  789MOL0     C 6438   9.914   2.971   8.486  0.0362 -0.3064 -0.1039
  789MOL0     O 6439   9.873   3.015   8.609 -0.5037 -0.3647 -0.2676
  789MOL0     C 6440   9.946   3.002   8.733 -0.4156  0.4544  0.6691
  789MOL0     C 6441  10.075   3.082   8.733  0.9248  0.1339 -0.1675
  789MOL0     C 6442  10.066   3.231   8.707 -0.0182 -0.0314 -0.1817
  789MOL0     C 6443  10.187   3.304   8.732 -0.2440  0.4323 -0.6610
  789MOL0     C 6444  10.241   3.285   8.867 -0.7741 -0.0550 -0.2847
  789MOL0     C 6445  10.291   3.272   8.977  1.3567 -0.0651  0.0392
  789MOL0     C 6446  10.034   2.908   8.464 -0.2738  0.8241 -0.0751
  789MOL0     C 6447  10.068   2.867   8.337 -1.0400  0.8697  0.5098
  789MOL0     H 6448   9.828   2.648   7.866 -0.6537  0.9630  0.1309
  789MOL0     H 6449   9.904   2.557   7.645  0.6554  1.0057 -3.1473
  789MOL0     H 6450   9.891   2.689   7.400 -0.1296 -1.2874  0.1798
  789MOL0     H 6451  10.019   2.802   7.363  3.2616 -0.8540 -0.8555
  789MOL0     H 6452   9.976   2.521   7.231 -1.5883  0.2212 -2.0380
  789MOL0     H 6453   9.977   2.689   7.161  1.7049  2.4676  1.0633
  789MOL0     H 6454  10.213   2.592   7.292 -1.0554  1.1326 -0.1051
  789MOL0     H 6455  10.184   2.559   7.112  2.7612  1.7397 -1.4125
  789MOL0     H 6456  10.177   2.799   7.080 -0.9617  0.7231  0.6578
  789MOL0     H 6457  10.192   2.834   7.248  0.1795 -0.7628  0.4937
  789MOL0     H 6458  10.397   2.727   7.038  0.5039  2.1364 -0.6255
  789MOL0     H 6459  10.407   2.876   7.124 -3.2343  0.1989 -0.6380
  789MOL0     H 6460  10.455   2.607   7.248 -1.1395 -0.4558  0.4426
  789MOL0     H 6461  10.578   2.731   7.216 -0.5396 -1.7368  1.6978
  789MOL0     H 6462  10.354   2.719   7.432 -0.1068 -3.3623 -2.8007
  789MOL0     H 6463  10.534   2.685   7.439  3.4316  1.6579 -1.8864
  789MOL0     H 6464  10.477   2.912   7.529  3.1266 -0.3822  0.3438
  789MOL0     H 6465  10.402   2.953   7.373  2.5412  1.1419  1.0709
  789MOL0     H 6466  10.753   2.809   7.495  1.2778 -1.8601 -2.2162
  789MOL0     H 6467  10.950   2.755   7.363 -2.1105  2.0059  2.9945
  789MOL0     H 6468  10.952   2.827   7.193  2.3848  1.9313  0.0427
  789MOL0     H 6469  11.154   2.885   7.367  0.2491  0.0825 -0.8218
  789MOL0     H 6470  11.037   2.988   7.443 -0.8207  0.6666  0.8492
  789MOL0     H 6471  11.164   3.128   7.307  0.0426  1.2596 -1.8570
  789MOL0     H 6472  11.009   3.121   7.230 -2.1208 -2.2491  1.9434
  789MOL0     H 6473  11.204   3.116   7.091 -1.7871  1.9578  2.5494
  789MOL0     H 6474  11.098   2.982   7.046  2.3342 -0.0441 -1.6695
  789MOL0     H 6475  11.375   3.053   6.934 -2.0022 -1.7077  0.1466
  789MOL0     H 6476  11.643   3.160   6.890 -2.1339  1.8711 -0.8203
  789MOL0     H 6477  11.681   3.012   6.791 -0.7339 -1.2479  0.9049
  789MOL0     H 6478  11.527   3.077   6.771  0.2248 -0.3442 -1.4949
  789MOL0     H 6479  12.038   2.910   7.174 -2.5070  1.0445 -2.0681
  789MOL0     H 6480  12.288   2.914   7.135 -1.0822  1.3656 -0.7261
  789MOL0     H 6481  12.492   2.917   7.037  2.6090  0.3265  0.8163
  789MOL0     H 6482  12.476   2.793   7.160 -2.8708  0.0330  0.2856
  789MOL0     H 6483  12.627   2.651   6.997  1.6651  0.3934 -1.2645
  789MOL0     H 6484  12.665   2.805   6.922 -0.3462 -0.6329  0.0017
  789MOL0     H 6485  12.668   2.755   7.223 -2.5573 -1.3730 -2.2635
  789MOL0     H 6486  12.763   2.881   7.149  2.5117 -0.8947  0.9982
  789MOL0     H 6487  12.833   2.584   7.137  0.8653 -0.6588 -0.0796
  789MOL0     H 6488  12.915   2.716   7.052 -1.0421 -1.1224 -1.1953
  789MOL0     H 6489  12.853   2.699   7.357  0.5722 -0.8984 -0.4949
  789MOL0     H 6490  12.934   2.834   7.281 -0.6344  1.0633  0.2261
  789MOL0     H 6491  13.060   2.559   7.299 -0.2798  0.4313  1.6319
  789MOL0     H 6492  13.124   2.686   7.193 -0.5889  1.8722 -0.4095
  789MOL0     H 6493  13.071   2.694   7.493 -1.8375  3.8177  1.6751
  789MOL0     H 6494  13.138   2.833   7.420 -0.9786 -0.1006 -0.6689
  789MOL0     H 6495  13.275   2.562   7.437  0.7023 -0.0453  0.0894
  789MOL0     H 6496  13.321   2.713   7.514  0.9590 -1.3188  1.0222
  789MOL0     H 6497  12.233   2.603   6.830 -1.3894 -0.6768 -0.4232
  789MOL0     H 6498  11.984   2.607   6.878  1.5735 -3.4911 -0.0149
  789MOL0     H 6499  11.667   2.733   7.165  1.1448 -0.7185 -2.9166
  789MOL0     H 6500  11.440   2.777   7.264  2.0554  0.9209  0.9789
  789MOL0     H 6501  10.201   2.843   7.600  0.8527  0.6294  0.3146
  789MOL0     H 6502  10.130   2.953   7.824  0.2908  0.2552  0.8437
  789MOL0     H 6503   9.804   2.993   8.163  1.7244  1.7110 -1.0293
  789MOL0     H 6504   9.731   3.053   8.388  1.2907  2.4192 -0.4772
  789MOL0     H 6505   9.878   3.035   8.812 -1.6135 -0.6898  0.1551
  789MOL0     H 6506   9.959   2.894   8.747 -1.2428  0.0028 -1.5407
  789MOL0     H 6507  10.154   3.028   8.680  0.6647  0.8057 -1.2669
  789MOL0     H 6508  10.103   3.080   8.839 -5.6482 -1.6979  2.0027
  789MOL0     H 6509   9.987   3.280   8.765  1.1474  1.3573  0.2930
  789MOL0     H 6510  10.041   3.248   8.602 -1.1173 -1.5685 -0.2090
  789MOL0     H 6511  10.154   3.408   8.722  0.1666  0.7776  1.2876
  789MOL0     H 6512  10.263   3.285   8.655 -0.5490  1.0647 -1.1331
  789MOL0     H 6513  10.345   3.274   9.070 -0.7218  1.7562  1.3201
  789MOL0     H 6514  10.085   2.879   8.555  0.0446  1.0115 -0.1910
  789MOL0     H 6515  10.154   2.801   8.326 -0.5692  1.3456  1.2328
  790MOL0     O 6516  11.157   1.748   6.059  0.0718 -0.4415 -0.8707
  790MOL0     C 6517  11.042   1.745   6.033  0.5433  0.2192  0.9149
  790MOL0     O 6518  10.941   1.725   6.115  0.3003 -0.2875 -0.7174
  790MOL0     C 6519  10.951   1.668   6.240  0.6729 -0.0081 -0.0975
  790MOL0     C 6520  11.055   1.615   6.320  0.1688  0.1809  0.1879
  790MOL0     C 6521  11.043   1.575   6.445 -0.0043  0.2407 -0.5395
  790MOL0     C 6522  10.919   1.579   6.515 -0.0526 -0.6166  0.1513
  790MOL0     O 6523  10.881   1.567   6.649 -0.7169 -0.1527 -0.2958
  790MOL0     C 6524  10.972   1.613   6.749 -1.4639 -0.1228 -0.4577
  790MOL0     C 6525  10.910   1.611   6.885  0.3378  0.6201 -0.0661
  790MOL0     C 6526  11.022   1.594   6.991  0.9748 -0.7394 -0.4027
  790MOL0     C 6527  10.969   1.537   7.122  0.5684 -0.4701 -0.3974
  790MOL0     C 6528  11.079   1.516   7.222  0.6968  0.3073  1.2141
  790MOL0     C 6529  11.039   1.402   7.308  0.9484 -0.3429 -1.1354
  790MOL0     C 6530  11.124   1.380   7.428 -1.4579  0.6618 -0.8645
  790MOL0     C 6531  11.039   1.310   7.534  0.2849  0.7729  0.9150
  790MOL0     N 6532  11.127   1.217   7.606  0.3071  0.2771 -0.2802
  790MOL0     C 6533  11.233   1.257   7.683 -0.9473  0.2084  1.3314
  790MOL0     C 6534  11.296   1.136   7.698  0.5611  0.4248 -0.8969
  790MOL0     C 6535  11.422   1.103   7.776  0.0074  0.2273 -0.8270
  790MOL0     C 6536  11.545   1.193   7.741  0.4334  0.2407  0.5490
  790MOL0     C 6537  11.590   1.175   7.591  0.7371 -0.0139  0.2470
  790MOL0     C 6538  11.701   1.269   7.538  0.3517 -0.7215 -0.2356
  790MOL0     O 6539  11.721   1.238   7.401  0.3358 -0.1819  0.4413
  790MOL0     C 6540  11.696   1.331   7.290 -0.4043  0.7384 -0.2638
  790MOL0     C 6541  11.735   1.285   7.164  0.5127 -0.0961 -0.9690
  790MOL0     C 6542  11.711   1.366   7.050  0.1094 -0.3268  0.2752
  790MOL0     C 6543  11.769   1.312   6.922 -0.0277 -0.3077  0.6652
  790MOL0     C 6544  11.649   1.488   7.062  0.6205  0.3394  0.5750
  790MOL0     C 6545  11.631   1.571   6.940  0.8752 -0.0020 -1.1429
  790MOL0     O 6546  11.742   1.599   6.860  0.4799 -0.8823 -0.2929
  790MOL0     C 6547  11.731   1.665   6.736 -0.3277  0.3806 -0.2369
  790MOL0     C 6548  11.679   1.791   6.718  0.1662  0.1075  1.3368
  790MOL0     C 6549  11.690   1.842   6.587 -0.8327 -0.2459 -0.5184
  790MOL0     C 6550  11.735   1.768   6.480  1.1357 -0.3300  0.3371
  790MOL0     O 6551  11.723   1.838   6.362 -0.6682  0.3769  0.5849
  790MOL0     C 6552  11.796   1.777   6.247 -0.4214  0.1913  0.2323
  790MOL0     C 6553  11.811   1.874   6.144 -0.0909 -0.1961  1.4855
  790MOL0     C 6554  11.937   1.858   6.057  0.0426  0.4141 -0.4202
  790MOL0     C 6555  12.058   1.922   6.138 -0.2418 -0.0183 -0.4957
  790MOL0     C 6556  12.162   1.991   6.038  0.8068  0.6582 -0.5422
  790MOL0     C 6557  12.307   1.992   6.083 -0.7638 -0.1639  0.0582
  790MOL0     C 6558  12.336   2.103   6.185  0.7685  0.2656 -0.0675
  790MOL0     C 6559  12.475   2.111   6.250  1.1244  0.2756 -0.2511
  790MOL0    Cl 6560  12.509   1.956   6.347 -0.0187 -0.2156  0.3430
  790MOL0     C 6561  11.777   1.639   6.503 -0.2668  0.5189 -0.4702
  790MOL0     C 6562  11.782   1.585   6.635 -0.5379 -0.0591  0.4039
  790MOL0     O 6563  11.525   1.620   6.929  0.1693  1.0139  0.7625
  790MOL0     C 6564  11.602   1.533   7.188 -0.5221 -0.3832 -0.4967
  790MOL0     C 6565  11.616   1.443   7.298 -1.4906 -0.9580  0.2078
  790MOL0     N 6566  11.213   1.032   7.650  1.0109  0.4087  0.4662
  790MOL0     N 6567  11.105   1.082   7.596 -0.7992 -0.7198  0.0965
  790MOL0     C 6568  10.807   1.622   6.437 -0.1466 -0.4270  0.3986
  790MOL0     C 6569  10.827   1.658   6.298  0.1474 -0.3281 -0.1721
  790MOL0     C 6570  11.013   1.776   5.895 -0.2079 -1.3968 -0.1000
  790MOL0     C 6571  10.881   1.783   5.852 -0.6405 -0.2820  0.0350
  790MOL0     C 6572  10.852   1.824   5.722 -0.0942  0.5508  0.2038
  790MOL0     C 6573  10.957   1.842   5.634 -0.1117 -0.6209 -0.1130
  790MOL0     O 6574  10.912   1.875   5.509  0.0959 -0.1369  0.0972
  790MOL0     C 6575  11.009   1.924   5.416  0.3450 -1.3551  0.2120
  790MOL0     C 6576  10.930   2.018   5.325  0.0025 -0.0205 -0.4813
  790MOL0     C 6577  11.021   2.079   5.220  0.4261 -1.1327 -0.6404
  790MOL0     C 6578  11.099   2.201   5.279  0.0999  0.6836 -0.9524
  790MOL0     C 6579  11.170   2.272   5.169  0.1384 -0.1763  0.0283
  790MOL0     C 6580  11.234   2.334   5.085  0.6901 -0.0212  0.5284
  790MOL0     C 6581  11.086   1.816   5.674  0.2470  0.6063 -0.2864
  790MOL0     C 6582  11.112   1.782   5.802 -0.4247  0.1261  1.4398
  790MOL0     H 6583  11.158   1.614   6.283  0.6161  0.5321  1.3925
  790MOL0     H 6584  11.124   1.543   6.510 -0.1183  0.0856 -0.4736
  790MOL0     H 6585  11.052   1.538   6.754 -1.4655 -0.0598  1.2305
  790MOL0     H 6586  11.003   1.717   6.732  2.4856 -0.9043  0.7416
  790MOL0     H 6587  10.855   1.706   6.894 -0.4021  0.0098  2.9792
  790MOL0     H 6588  10.839   1.530   6.899  0.3277  0.5891 -0.2922
  790MOL0     H 6589  11.104   1.528   6.963  0.5061 -1.2419 -0.6026
  790MOL0     H 6590  11.056   1.698   6.997 -1.9637  0.3696 -0.9309
  790MOL0     H 6591  10.885   1.596   7.161 -1.4797 -2.1123 -2.0936
  790MOL0     H 6592  10.934   1.438   7.094  0.2423 -1.3863  2.7856
  790MOL0     H 6593  11.167   1.485   7.166 -0.6352 -1.3399 -0.0741
  790MOL0     H 6594  11.082   1.609   7.279 -5.2693  0.1358  2.4415
  790MOL0     H 6595  10.938   1.431   7.341  1.3904  0.3069 -0.3098
  790MOL0     H 6596  11.039   1.317   7.239  2.6521  1.3584 -3.3776
  790MOL0     H 6597  11.216   1.331   7.395 -0.2779  3.0246 -1.2662
  790MOL0     H 6598  11.151   1.472   7.481 -0.5387  1.4422 -2.5912
  790MOL0     H 6599  10.959   1.253   7.485  2.3553 -1.3182 -0.2710
  790MOL0     H 6600  10.986   1.373   7.605 -0.0539  1.2114  0.2799
  790MOL0     H 6601  11.268   1.356   7.711  0.0615 -1.2093  6.0198
  790MOL0     H 6602  11.403   1.108   7.884  2.1112  1.7742 -0.4676
  790MOL0     H 6603  11.448   0.999   7.757 -1.2710 -0.2628 -0.0151
  790MOL0     H 6604  11.632   1.169   7.802  2.2286  1.0152 -1.5954
  790MOL0     H 6605  11.527   1.297   7.770  1.4397 -0.0715  2.4656
  790MOL0     H 6606  11.499   1.172   7.530  0.6651 -0.6465  0.3831
  790MOL0     H 6607  11.631   1.077   7.564  0.3124  0.8493 -4.2789
  790MOL0     H 6608  11.792   1.232   7.587 -0.1454 -2.6663 -0.7028
  790MOL0     H 6609  11.668   1.371   7.561  0.9326 -0.4215 -0.7180
  790MOL0     H 6610  11.779   1.186   7.161 -0.9246 -0.7961 -0.1374
  790MOL0     H 6611  11.715   1.218   6.914  0.1417 -0.3814  0.3555
  790MOL0     H 6612  11.745   1.371   6.833 -0.2789  0.2462  1.0956
  790MOL0     H 6613  11.875   1.286   6.927  0.4568  1.1080 -0.8881
  790MOL0     H 6614  11.639   1.854   6.797  3.4738  1.5915  1.9683
  790MOL0     H 6615  11.674   1.949   6.577 -2.1224 -0.3210  0.5781
  790MOL0     H 6616  11.894   1.753   6.290  0.6690  2.9034 -0.5121
  790MOL0     H 6617  11.747   1.689   6.204 -3.0859  1.7764 -0.1989
  790MOL0     H 6618  11.720   1.866   6.084  0.6145 -1.0046  0.4758
  790MOL0     H 6619  11.802   1.977   6.181 -2.7662  0.2292 -0.1100
  790MOL0     H 6620  11.930   1.927   5.973  0.5835  5.9358  3.5027
  790MOL0     H 6621  11.948   1.751   6.037 -4.1463 -0.2774  0.0631
  790MOL0     H 6622  12.029   2.004   6.204  2.7159  1.1113 -0.4325
  790MOL0     H 6623  12.126   1.858   6.195  2.0155  1.4511 -1.3850
  790MOL0     H 6624  12.122   2.088   6.007  0.6435  0.3676 -1.2575
  790MOL0     H 6625  12.153   1.938   5.942  1.1776  0.0891 -0.2639
  790MOL0     H 6626  12.344   1.894   6.114  1.0788  0.8124  1.1006
  790MOL0     H 6627  12.361   2.025   5.994  0.9709  2.2169  1.8510
  790MOL0     H 6628  12.261   2.086   6.263 -1.4519 -1.0329 -2.3722
  790MOL0     H 6629  12.323   2.206   6.150  1.2706  0.9769  1.7282
  790MOL0     H 6630  12.479   2.189   6.327  1.5487 -0.4270  0.4545
  790MOL0     H 6631  12.551   2.142   6.177  0.1776  0.4102 -1.2033
  790MOL0     H 6632  11.805   1.567   6.426  0.1125 -0.1406  0.2721
  790MOL0     H 6633  11.816   1.490   6.675  0.1027  0.2258  0.5596
  790MOL0     H 6634  11.558   1.632   7.189  1.9288  0.8070  0.8906
  790MOL0     H 6635  11.584   1.482   7.394 -0.8800 -2.2280  0.9545
  790MOL0     H 6636  10.707   1.635   6.477 -0.7402 -1.5220 -0.6555
  790MOL0     H 6637  10.739   1.700   6.250  0.6735  1.2537  0.1850
  790MOL0     H 6638  10.797   1.776   5.921 -1.0406  3.1342  0.0453
  790MOL0     H 6639  10.751   1.839   5.686 -0.3315 -0.1121  0.5826
  790MOL0     H 6640  11.088   1.979   5.468 -1.2036  2.0679 -0.8001
  790MOL0     H 6641  11.053   1.846   5.353 -0.7477 -1.1765 -0.8022
  790MOL0     H 6642  10.876   2.100   5.373 -2.2013 -1.4560 -0.3822
  790MOL0     H 6643  10.862   1.950   5.274 -0.4490  0.9766 -1.2470
  790MOL0     H 6644  10.960   2.097   5.131 -2.0038 -1.6978  0.8101
  790MOL0     H 6645  11.092   2.001   5.195  2.9010  1.0701 -0.8897
  790MOL0     H 6646  11.159   2.162   5.361 -3.1878 -0.6745  1.0426
  790MOL0     H 6647  11.032   2.278   5.319 -0.4634 -0.6639  0.8064
  790MOL0     H 6648  11.298   2.365   5.005  1.7176 -2.5920  0.2494
  790MOL0     H 6649  11.173   1.815   5.610 -0.2714 -1.1819 -1.0092
  790MOL0     H 6650  11.216   1.767   5.830  0.9741  4.5060 -0.5280
  791MOL0     O 6651   5.875   2.727   1.939 -0.5801  0.2776 -0.1580
  791MOL0     C 6652   5.848   2.769   2.054  0.3355 -0.2452 -0.4701
  791MOL0     O 6653   5.765   2.703   2.145  0.7010  0.1545  0.0539
  791MOL0     C 6654   5.635   2.696   2.125  0.1286  0.0057 -0.9225
  791MOL0     C 6655   5.546   2.742   2.224 -0.9557 -1.7624 -0.2591
  791MOL0     C 6656   5.413   2.731   2.212  0.3196 -0.2760  0.5871
  791MOL0     C 6657   5.358   2.661   2.103  0.1769  0.5923  0.3708
  791MOL0     O 6658   5.228   2.657   2.062  0.4970 -0.1626 -0.3139
  791MOL0     C 6659   5.126   2.709   2.146 -0.2186  0.0021  0.6669
  791MOL0     C 6660   4.992   2.711   2.066 -0.3518  0.1297 -1.1856
  791MOL0     C 6661   4.869   2.724   2.154  0.0491  1.5441 -0.3817
  791MOL0     C 6662   4.858   2.615   2.269  0.7234 -0.5024  0.4069
  791MOL0     C 6663   4.725   2.634   2.352 -0.2185  0.9373  0.0953
  791MOL0     C 6664   4.743   2.543   2.478  0.0434  0.1619  0.5115
  791MOL0     C 6665   4.756   2.393   2.456  0.4973  0.0029  0.8548
  791MOL0     C 6666   4.620   2.346   2.405  0.6441  0.2412  0.5408
  791MOL0     N 6667   4.634   2.199   2.400  0.4827 -0.7047 -0.2717
  791MOL0     C 6668   4.668   2.137   2.281 -0.5505  0.2089 -0.2077
  791MOL0     C 6669   4.740   2.027   2.327  0.3263  0.2361 -0.3741
  791MOL0     C 6670   4.805   1.905   2.259  0.4843 -0.7526 -0.9186
  791MOL0     C 6671   4.829   1.900   2.104  1.1817 -0.4644 -0.4468
  791MOL0     C 6672   4.701   1.875   2.024  0.6951 -0.5098  0.4034
  791MOL0     C 6673   4.695   1.935   1.883  0.9026  0.7439 -0.6969
  791MOL0     O 6674   4.747   1.829   1.796 -0.1417 -0.2507  0.2463
  791MOL0     C 6675   4.711   1.834   1.668  0.5072  0.1264 -0.1747
  791MOL0     C 6676   4.754   1.730   1.589  0.1475  0.3063 -0.4108
  791MOL0     C 6677   4.722   1.712   1.455  0.0400 -0.6796  0.1077
  791MOL0     C 6678   4.772   1.593   1.386 -0.4683 -0.0598  0.1887
  791MOL0     C 6679   4.635   1.807   1.392  0.3258  0.2561  0.2234
  791MOL0     C 6680   4.588   1.799   1.248  0.1470  0.0781 -0.2860
  791MOL0     O 6681   4.490   1.887   1.209 -0.2562 -0.1830  0.1001
  791MOL0     C 6682   4.420   1.858   1.094 -0.1126 -0.4828  0.6517
  791MOL0     C 6683   4.313   1.777   1.097 -0.1619  0.0411  0.6543
  791MOL0     C 6684   4.231   1.764   0.991  0.9877 -0.1421  0.7584
  791MOL0     C 6685   4.262   1.817   0.863 -0.0674 -0.0511 -0.2513
  791MOL0     O 6686   4.171   1.816   0.757  0.0454  0.3761  0.2901
  791MOL0     C 6687   4.052   1.879   0.779  0.6102 -0.3072  0.1333
  791MOL0     C 6688   3.991   1.908   0.652 -0.0398 -1.0548  0.8400
  791MOL0     C 6689   3.935   1.786   0.577 -0.0857  0.0594 -0.2499
  791MOL0     C 6690   3.786   1.753   0.612 -0.3899 -0.0246 -0.2052
  791MOL0     C 6691   3.741   1.617   0.561 -0.4232  0.1109  0.4005
  791MOL0     C 6692   3.754   1.608   0.403 -0.0853  1.0697  0.6803
  791MOL0     C 6693   3.657   1.717   0.348 -0.3168  0.7793  0.7179
  791MOL0     C 6694   3.591   1.670   0.216 -0.6588  0.2549  0.0785
  791MOL0    Cl 6695   3.460   1.538   0.232  0.1330  0.3670 -0.5478
  791MOL0     C 6696   4.381   1.879   0.858 -0.5788 -0.7974  0.3951
  791MOL0     C 6697   4.467   1.903   0.967 -0.1872  0.8108  0.1271
  791MOL0     O 6698   4.632   1.714   1.171 -0.5385 -0.0670 -0.4684
  791MOL0     C 6699   4.604   1.921   1.475  0.1839  0.3614  0.0251
  791MOL0     C 6700   4.651   1.938   1.604  0.9106 -0.3606 -0.4676
  791MOL0     N 6701   4.725   2.015   2.465  0.6593 -0.5712 -0.3538
  791MOL0     N 6702   4.657   2.119   2.505 -0.6313 -0.5460 -0.2393
  791MOL0     C 6703   5.446   2.605   2.005  0.3667 -0.4705 -0.0200
  791MOL0     C 6704   5.581   2.618   2.016 -0.2669 -0.4055  0.1910
  791MOL0     C 6705   5.943   2.873   2.107 -0.1460 -0.6254 -0.8399
  791MOL0     C 6706   6.042   2.930   2.033 -0.8245 -0.2441 -0.5318
  791MOL0     C 6707   6.128   3.035   2.079  0.0365 -0.5444 -0.6260
  791MOL0     C 6708   6.109   3.073   2.210  0.7622 -0.3770  0.3292
  791MOL0     O 6709   6.166   3.174   2.277 -0.4590 -0.5668  0.7248
  791MOL0     C 6710   6.272   3.257   2.225 -1.1858  1.0551 -1.3640
  791MOL0     C 6711   6.224   3.352   2.117  0.4653  0.3876 -0.7542
  791MOL0     C 6712   6.316   3.471   2.105  0.6268 -0.1809 -0.0856
  791MOL0     C 6713   6.438   3.445   2.024 -0.2661 -0.5278  0.0856
  791MOL0     C 6714   6.439   3.330   1.939  0.8579  0.4756 -0.7258
  791MOL0     C 6715   6.442   3.232   1.861  0.5108 -0.6220  0.2513
  791MOL0     C 6716   6.011   3.007   2.294  0.1388 -0.1772  0.1535
  791MOL0     C 6717   5.939   2.910   2.241 -0.0223 -0.1008  0.3488
  791MOL0     H 6718   5.588   2.798   2.307 -1.7944 -0.7568 -0.4784
  791MOL0     H 6719   5.341   2.769   2.284 -0.6635  0.5352 -0.7683
  791MOL0     H 6720   5.130   2.644   2.233  1.5595 -3.6529 -1.9029
  791MOL0     H 6721   5.140   2.814   2.174  0.0668  0.1344  0.0610
  791MOL0     H 6722   4.980   2.801   2.005 -2.9984  2.3581  2.2220
  791MOL0     H 6723   4.994   2.619   2.008  2.1723 -1.8838  1.7662
  791MOL0     H 6724   4.857   2.822   2.201 -1.0774  0.4002  1.9029
  791MOL0     H 6725   4.782   2.711   2.090  0.5265 -2.0229 -0.4890
  791MOL0     H 6726   4.847   2.517   2.221 -3.0613  0.2413 -0.6443
  791MOL0     H 6727   4.948   2.621   2.330  1.6932  0.6204 -1.0755
  791MOL0     H 6728   4.720   2.740   2.375  0.5801  0.7841  1.0268
  791MOL0     H 6729   4.638   2.609   2.291  0.2049  4.8123 -2.4684
  791MOL0     H 6730   4.825   2.567   2.546 -1.3618  0.2822  2.2106
  791MOL0     H 6731   4.655   2.569   2.537  0.8282  1.7607  1.0231
  791MOL0     H 6732   4.844   2.362   2.400  1.2924 -0.6796  2.4267
  791MOL0     H 6733   4.771   2.337   2.549 -0.6985 -2.7600 -0.5057
  791MOL0     H 6734   4.607   2.378   2.301  2.8219 -4.4090 -1.4361
  791MOL0     H 6735   4.530   2.367   2.464 -0.0767  2.1703 -1.1394
  791MOL0     H 6736   4.662   2.173   2.179  1.8920 -1.2412 -0.9317
  791MOL0     H 6737   4.903   1.901   2.306  1.0176 -0.5527 -1.9939
  791MOL0     H 6738   4.755   1.814   2.293 -0.8508  0.7858  1.5817
  791MOL0     H 6739   4.903   1.822   2.086  3.0167  1.7955 -3.6939
  791MOL0     H 6740   4.875   1.997   2.080 -0.0098  0.9847  2.6239
  791MOL0     H 6741   4.619   1.907   2.088  1.8241  0.2898  1.4950
  791MOL0     H 6742   4.687   1.767   2.012 -0.1572 -0.5079  1.2362
  791MOL0     H 6743   4.742   2.033   1.877 -1.3110  2.3532  3.9581
  791MOL0     H 6744   4.589   1.951   1.860  0.3690 -1.3364  0.0485
  791MOL0     H 6745   4.823   1.653   1.622 -0.0982  0.3293  0.1707
  791MOL0     H 6746   4.857   1.626   1.326 -0.1861  0.9241  1.1003
  791MOL0     H 6747   4.796   1.516   1.460 -3.0746 -0.5898  0.5740
  791MOL0     H 6748   4.690   1.556   1.323 -1.7893  1.3062  1.0368
  791MOL0     H 6749   4.284   1.736   1.193  4.2422  0.0045  2.2293
  791MOL0     H 6750   4.140   1.711   1.015 -2.1238  4.2232 -0.1082
  791MOL0     H 6751   3.981   1.830   0.846  1.7956 -1.1536  0.8193
  791MOL0     H 6752   4.069   1.971   0.836  1.3079 -1.9354  2.7502
  791MOL0     H 6753   3.911   1.983   0.657  0.6637 -0.1483 -0.8740
  791MOL0     H 6754   4.068   1.950   0.587  0.6427  0.5189  2.5872
  791MOL0     H 6755   3.991   1.692   0.581 -1.3936 -0.7698 -0.5881
  791MOL0     H 6756   3.931   1.801   0.469 -0.6799  0.6405 -0.1558
  791MOL0     H 6757   3.775   1.741   0.721 -0.8072 -2.9127 -0.4928
  791MOL0     H 6758   3.713   1.827   0.578  0.1075 -0.9993 -3.7574
  791MOL0     H 6759   3.640   1.596   0.596 -1.8813  2.6655 -1.8872
  791MOL0     H 6760   3.815   1.549   0.604  1.4577  1.2922 -0.8183
  791MOL0     H 6761   3.861   1.623   0.382 -0.2990  4.7435  1.5994
  791MOL0     H 6762   3.722   1.508   0.372  0.8183 -0.7731  4.9302
  791MOL0     H 6763   3.707   1.813   0.331 -1.6248  1.4819  0.6937
  791MOL0     H 6764   3.577   1.736   0.420 -0.7951  2.0999 -0.1216
  791MOL0     H 6765   3.666   1.628   0.149  1.4438 -0.0475  2.4886
  791MOL0     H 6766   3.540   1.757   0.173 -2.3864  0.2417  1.9642
  791MOL0     H 6767   4.421   1.909   0.762 -1.7149 -3.0584 -0.8682
  791MOL0     H 6768   4.550   1.972   0.966 -0.7330  1.5715  2.0702
  791MOL0     H 6769   4.545   1.999   1.429 -0.6109 -0.4830 -0.4157
  791MOL0     H 6770   4.626   2.031   1.654 -0.0270 -1.3314  0.9606
  791MOL0     H 6771   5.400   2.559   1.918  1.0409 -1.3447  0.0610
  791MOL0     H 6772   5.645   2.571   1.942 -0.0092 -0.4825  0.4571
  791MOL0     H 6773   6.059   2.890   1.933 -6.0846 -2.3299 -0.9145
  791MOL0     H 6774   6.211   3.062   2.014  0.9999 -1.9469 -0.0374
  791MOL0     H 6775   6.302   3.310   2.316 -2.7641 -4.9468  3.2264
  791MOL0     H 6776   6.352   3.191   2.191 -1.8006  0.1510 -1.0780
  791MOL0     H 6777   6.129   3.390   2.155  0.5899 -1.2356  1.3103
  791MOL0     H 6778   6.209   3.299   2.023 -0.6124  1.5775 -1.2888
  791MOL0     H 6779   6.338   3.514   2.203  2.2825  1.6217 -1.1834
  791MOL0     H 6780   6.258   3.552   2.060 -0.5192  0.6260  2.6231
  791MOL0     H 6781   6.521   3.432   2.093  0.1896 -1.6845 -0.6515
  791MOL0     H 6782   6.472   3.527   1.960  3.5021 -2.3574 -0.4801
  791MOL0     H 6783   6.443   3.143   1.802 -1.2393 -0.3124 -0.2880
  791MOL0     H 6784   5.991   3.056   2.389  1.2379  1.5068 -0.4353
  791MOL0     H 6785   5.865   2.859   2.301 -2.1649 -3.0466 -4.2578
  792MOL0     O 6786   7.478   8.311   9.053  0.1253  0.5159 -0.0805
  792MOL0     C 6787   7.409   8.247   9.139  0.2605  0.0960  0.2483
  792MOL0     O 6788   7.451   8.126   9.193  1.0058 -0.7032 -1.3785
  792MOL0     C 6789   7.584   8.093   9.189  0.7304 -0.1441 -0.0906
  792MOL0     C 6790   7.624   7.975   9.130 -0.0174 -0.0400 -0.4120
  792MOL0     C 6791   7.762   7.942   9.116  0.2369 -0.1590 -1.1308
  792MOL0     C 6792   7.858   8.030   9.175  0.2502  0.5374 -0.9701
  792MOL0     O 6793   7.979   7.990   9.184 -0.4307 -0.2134 -0.3738
  792MOL0     C 6794   8.090   8.061   9.130 -0.7036 -0.9392  0.4328
  792MOL0     C 6795   8.198   7.966   9.056  0.2342  0.3670  0.3679
  792MOL0     C 6796   8.144   7.883   8.933 -0.6026  0.3287  0.3657
  792MOL0     C 6797   8.097   7.970   8.817 -1.3865 -0.3996 -0.2245
  792MOL0     C 6798   8.180   7.948   8.691 -0.4283 -0.0979 -1.0256
  792MOL0     C 6799   8.320   8.006   8.681  0.7649  0.5562 -0.0783
  792MOL0     C 6800   8.356   8.000   8.532  0.2782  0.5333  0.4766
  792MOL0     C 6801   8.482   8.080   8.501  0.9094 -0.0701  0.0184
  792MOL0     N 6802   8.595   7.998   8.549  0.2223  0.0726 -1.0365
  792MOL0     C 6803   8.631   7.868   8.532 -0.8467  1.1301  0.2779
  792MOL0     C 6804   8.749   7.849   8.588 -0.4977  0.4025  0.1173
  792MOL0     C 6805   8.841   7.725   8.582 -0.3392 -0.0672  0.6328
  792MOL0     C 6806   8.805   7.601   8.676  0.4747 -0.0234 -0.3113
  792MOL0     C 6807   8.918   7.513   8.735  0.5579  0.6742 -0.0702
  792MOL0     C 6808   9.043   7.516   8.644  0.5790 -0.1846 -0.1060
  792MOL0     O 6809   9.123   7.403   8.678 -0.5795  0.2044 -0.4592
  792MOL0     C 6810   9.182   7.402   8.799  0.5578  0.2279 -0.3030
  792MOL0     C 6811   9.273   7.498   8.846  0.6182  0.6635  0.8674
  792MOL0     C 6812   9.329   7.489   8.976 -0.9455 -0.0299 -0.5761
  792MOL0     C 6813   9.435   7.594   9.008  0.5567  0.4108  1.2090
  792MOL0     C 6814   9.284   7.395   9.066  0.1168 -0.4862  0.5924
  792MOL0     C 6815   9.330   7.391   9.201  0.8959 -0.3740 -0.5271
  792MOL0     O 6816   9.322   7.268   9.269 -0.3447 -0.5818 -0.0436
  792MOL0     C 6817   9.350   7.252   9.408  0.6578  0.2231 -0.6394
  792MOL0     C 6818   9.330   7.359   9.501 -0.2241  1.4325 -0.5359
  792MOL0     C 6819   9.367   7.342   9.638  0.1554 -0.7124  0.4065
  792MOL0     C 6820   9.423   7.222   9.681 -0.3635  0.7462  0.0596
  792MOL0     O 6821   9.461   7.202   9.812 -0.9461 -0.8102  0.6546
  792MOL0     C 6822   9.605   7.215   9.837 -0.5818  0.8533 -0.5382
  792MOL0     C 6823   9.638   7.361   9.868  0.2736  0.0036  0.0085
  792MOL0     C 6824   9.776   7.405   9.915  0.5307  0.8957  0.0434
  792MOL0     C 6825   9.794   7.553   9.889 -0.8645  0.6083 -0.3997
  792MOL0     C 6826   9.935   7.616   9.909  0.0557  0.2535  0.3172
  792MOL0     C 6827   9.938   7.774   9.900 -0.1723 -1.0593 -1.1652
  792MOL0     C 6828  10.073   7.818   9.965 -0.2669 -1.0986 -0.8609
  792MOL0     C 6829  10.080   7.837  10.118 -0.3609  0.1073  0.0948
  792MOL0    Cl 6830   9.972   7.977  10.158 -0.0314  0.4013 -0.1601
  792MOL0     C 6831   9.425   7.110   9.591 -0.1483 -0.0178 -1.0779
  792MOL0     C 6832   9.394   7.125   9.454  0.3770  0.1287 -0.2828
  792MOL0     O 6833   9.345   7.502   9.258  0.2650 -0.1079 -0.2810
  792MOL0     C 6834   9.198   7.294   9.017 -0.1490 -0.0004 -0.3354
  792MOL0     C 6835   9.161   7.295   8.884  0.0643 -0.0637  0.1403
  792MOL0     N 6836   8.779   7.962   8.659 -0.2280  0.3121  1.1945
  792MOL0     N 6837   8.683   8.046   8.640  0.4425 -0.3657  1.1267
  792MOL0     C 6838   7.819   8.138   9.247 -0.3174  0.1663 -1.2250
  792MOL0     C 6839   7.686   8.168   9.263  0.1461 -0.4881  0.5503
  792MOL0     C 6840   7.288   8.305   9.198  0.1919 -0.3353  0.2141
  792MOL0     C 6841   7.253   8.432   9.157 -1.0938 -0.1324 -0.1038
  792MOL0     C 6842   7.151   8.493   9.236 -0.2475  0.1547  0.4969
  792MOL0     C 6843   7.073   8.413   9.316  0.1262  0.1316  0.7852
  792MOL0     O 6844   6.981   8.493   9.376 -0.2324  0.3322 -0.6784
  792MOL0     C 6845   6.896   8.443   9.475  0.4963 -0.0172 -0.2998
  792MOL0     C 6846   6.786   8.537   9.520  0.6794  0.1710 -0.8633
  792MOL0     C 6847   6.839   8.673   9.553  0.3683  0.0228  0.0961
  792MOL0     C 6848   6.773   8.724   9.677 -0.3796  0.4068  0.5545
  792MOL0     C 6849   6.819   8.646   9.786 -0.7045 -0.5924  0.8879
  792MOL0     C 6850   6.869   8.591   9.883 -0.8451 -0.4813 -0.5468
  792MOL0     C 6851   7.113   8.289   9.346 -0.4648  0.0223  0.2967
  792MOL0     C 6852   7.217   8.234   9.289  0.1473  0.5967 -0.1660
  792MOL0     H 6853   7.548   7.905   9.099  0.4593 -0.1769 -1.3256
  792MOL0     H 6854   7.793   7.856   9.058  0.2395  0.2048 -1.6786
  792MOL0     H 6855   8.049   8.119   9.047  3.2475 -1.6119 -2.2687
  792MOL0     H 6856   8.134   8.138   9.194 -0.5582 -1.0732  0.4948
  792MOL0     H 6857   8.283   8.023   9.019 -1.3465  1.0238 -2.5203
  792MOL0     H 6858   8.230   7.904   9.141 -0.9998  0.3332  0.8333
  792MOL0     H 6859   8.221   7.810   8.906 -1.8516 -1.1270  0.6132
  792MOL0     H 6860   8.059   7.832   8.979 -0.9433  0.2776 -0.3015
  792MOL0     H 6861   7.990   7.952   8.805 -1.5904 -1.5813  2.6594
  792MOL0     H 6862   8.112   8.076   8.839  1.8643 -0.6044 -1.0043
  792MOL0     H 6863   8.185   7.839   8.679 -4.7524 -0.5798 -0.0943
  792MOL0     H 6864   8.125   7.995   8.609 -0.2691 -0.5507 -1.3991
  792MOL0     H 6865   8.322   8.110   8.715 -0.7693  0.5596  0.0698
  792MOL0     H 6866   8.388   7.953   8.749 -1.2041 -1.8808  0.1618
  792MOL0     H 6867   8.360   7.894   8.505 -1.8637  0.6535 -0.4644
  792MOL0     H 6868   8.277   8.057   8.483  0.0558  0.2143  0.4650
  792MOL0     H 6869   8.468   8.168   8.564 -0.4536 -1.0592  1.1725
  792MOL0     H 6870   8.490   8.113   8.397 -0.9982  1.0938  0.1825
  792MOL0     H 6871   8.574   7.800   8.469  0.8775 -1.9379  1.7454
  792MOL0     H 6872   8.819   7.697   8.479 -2.4877 -2.0257  1.5443
  792MOL0     H 6873   8.941   7.766   8.604 -0.2822 -0.4545  1.0982
  792MOL0     H 6874   8.728   7.536   8.634  0.2029  0.8130 -1.1493
  792MOL0     H 6875   8.760   7.642   8.767  1.8487 -2.6150  1.6509
  792MOL0     H 6876   8.893   7.411   8.766  4.2476 -1.1745 -2.4387
  792MOL0     H 6877   8.941   7.570   8.826 -1.4337  0.9992  0.2584
  792MOL0     H 6878   9.094   7.610   8.663  1.6951 -0.8039  0.0624
  792MOL0     H 6879   9.013   7.513   8.539 -2.3862 -2.2100  0.6675
  792MOL0     H 6880   9.298   7.573   8.770  0.2584 -1.5168 -1.5453
  792MOL0     H 6881   9.528   7.552   9.047  0.9729  1.6184  1.5684
  792MOL0     H 6882   9.460   7.647   8.916 -2.8586 -1.3169 -0.9373
  792MOL0     H 6883   9.399   7.670   9.079 -0.8814  0.5419  0.3722
  792MOL0     H 6884   9.303   7.461   9.478 -0.6476  1.5781  0.5367
  792MOL0     H 6885   9.364   7.432   9.699  0.8464 -0.7126  0.4540
  792MOL0     H 6886   9.626   7.155   9.925 -2.3721  0.0865 -0.5931
  792MOL0     H 6887   9.674   7.177   9.761  1.1360  1.1784  0.7971
  792MOL0     H 6888   9.621   7.416   9.775  0.1079  0.9167  0.5687
  792MOL0     H 6889   9.564   7.398   9.940  0.4412  2.3352 -0.9303
  792MOL0     H 6890   9.855   7.348   9.865 -1.9902 -2.0235 -0.9248
  792MOL0     H 6891   9.775   7.394  10.024  2.0123  0.0229 -0.0076
  792MOL0     H 6892   9.778   7.549   9.781 -3.3570 -3.7138 -0.0955
  792MOL0     H 6893   9.720   7.617   9.938 -0.1208  0.3455  1.1569
  792MOL0     H 6894   9.990   7.574   9.824  1.1834  0.4081  0.9393
  792MOL0     H 6895   9.984   7.585  10.002 -1.2412  1.6456  1.5297
  792MOL0     H 6896   9.921   7.819   9.802 -0.2360 -0.9936 -1.1243
  792MOL0     H 6897   9.855   7.813   9.960 -0.4806  1.2304 -2.9767
  792MOL0     H 6898  10.100   7.913   9.917 -0.6956 -0.7605 -0.4450
  792MOL0     H 6899  10.150   7.744   9.940 -0.4979 -0.7062 -2.9445
  792MOL0     H 6900  10.184   7.864  10.141 -0.8982 -0.1649  3.2112
  792MOL0     H 6901  10.061   7.752  10.184  1.4627  1.3699  2.4421
  792MOL0     H 6902   9.437   7.009   9.629 -0.9683  0.4169  0.4360
  792MOL0     H 6903   9.402   7.047   9.379  0.9881  3.3072 -3.8397
  792MOL0     H 6904   9.167   7.210   9.079 -1.8602  0.3417 -0.6823
  792MOL0     H 6905   9.088   7.226   8.843 -0.6080  1.4058 -1.2422
  792MOL0     H 6906   7.902   8.200   9.282 -2.0453  2.0513 -0.2391
  792MOL0     H 6907   7.652   8.251   9.323 -3.5006 -1.4123 -0.0360
  792MOL0     H 6908   7.321   8.496   9.103 -0.6900 -0.8733 -0.4909
  792MOL0     H 6909   7.137   8.599   9.218  3.3757  0.6023 -0.4890
  792MOL0     H 6910   6.840   8.357   9.438 -0.3554  0.7248 -0.7797
  792MOL0     H 6911   6.946   8.411   9.567  1.1060 -1.6865 -1.1621
  792MOL0     H 6912   6.733   8.494   9.606  1.9477 -3.2882 -1.6247
  792MOL0     H 6913   6.704   8.538   9.448  0.5765 -3.6525 -0.9912
  792MOL0     H 6914   6.813   8.748   9.478  0.3661 -0.7178 -0.6609
  792MOL0     H 6915   6.948   8.668   9.562  0.2570 -1.2017  1.1557
  792MOL0     H 6916   6.665   8.710   9.666 -0.1395 -1.1786 -0.1347
  792MOL0     H 6917   6.789   8.829   9.701 -1.0434  0.0779  2.6302
  792MOL0     H 6918   6.894   8.552   9.980 -1.0162  2.7866  0.9174
  792MOL0     H 6919   7.058   8.238   9.424  0.8280 -2.9778 -0.6140
  792MOL0     H 6920   7.259   8.143   9.331  1.2685  0.1944 -2.0863
  793MOL0     O 6921   1.072   2.458   2.720  0.4716 -0.2536  0.3317
  793MOL0     C 6922   1.050   2.525   2.617  0.0085 -0.5058  0.2714
  793MOL0     O 6923   1.141   2.547   2.520 -0.3014 -1.1628 -0.3134
  793MOL0     C 6924   1.262   2.495   2.525 -0.2566 -0.5376 -0.1034
  793MOL0     C 6925   1.359   2.542   2.614 -0.2280  0.5109  0.1536
  793MOL0     C 6926   1.488   2.483   2.608 -0.3442  0.6022 -0.7138
  793MOL0     C 6927   1.507   2.368   2.525 -0.3883  0.1113  0.4230
  793MOL0     O 6928   1.629   2.304   2.494  0.3054 -0.1401  0.3040
  793MOL0     C 6929   1.750   2.378   2.507  0.1242 -0.7872 -0.3234
  793MOL0     C 6930   1.863   2.297   2.429  0.3670 -0.4463 -0.8927
  793MOL0     C 6931   1.867   2.152   2.466 -0.1750 -0.0575  0.2763
  793MOL0     C 6932   1.935   2.081   2.347 -0.4143  0.3639  0.1569
  793MOL0     C 6933   1.967   1.931   2.366  0.0860 -0.5858 -0.2636
  793MOL0     C 6934   1.849   1.851   2.428 -0.0928  0.0368  0.4374
  793MOL0     C 6935   1.724   1.863   2.350 -0.5616  0.4087  0.4424
  793MOL0     C 6936   1.613   1.775   2.404 -0.7666 -0.2651  0.5163
  793MOL0     N 6937   1.564   1.836   2.530  0.4353 -0.0184  0.0082
  793MOL0     C 6938   1.526   1.965   2.554 -0.3695  0.0990  0.4443
  793MOL0     C 6939   1.502   1.966   2.688  1.0986  0.2901  0.4227
  793MOL0     C 6940   1.450   2.089   2.762  0.3765  0.2431  0.5759
  793MOL0     C 6941   1.307   2.141   2.726  0.1011 -0.3904  0.8551
  793MOL0     C 6942   1.198   2.061   2.790  0.3368  1.1040  0.3724
  793MOL0     C 6943   1.069   2.106   2.765  0.7338 -0.6523 -1.1029
  793MOL0     O 6944   0.990   2.027   2.838 -0.4518 -0.5375 -0.3252
  793MOL0     C 6945   0.863   2.068   2.869 -0.5902 -0.0815  0.3403
  793MOL0     C 6946   0.800   2.178   2.808 -0.1938 -0.4626 -0.6133
  793MOL0     C 6947   0.660   2.207   2.832  0.0634  0.6409 -0.7252
  793MOL0     C 6948   0.601   2.332   2.767  0.0067  0.0207 -0.8360
  793MOL0     C 6949   0.582   2.118   2.921 -0.3041 -0.4445  0.5599
  793MOL0     C 6950   0.441   2.131   2.939 -0.0390 -0.1658 -0.2265
  793MOL0     O 6951   0.399   2.255   2.947  0.0830 -0.5796  0.1325
  793MOL0     C 6952   0.265   2.277   2.956  0.3995  1.0087  0.0280
  793MOL0     C 6953   0.223   2.393   3.029  0.6868  0.6516  1.0206
  793MOL0     C 6954   0.092   2.435   3.026 -1.6262 -0.7984 -0.0707
  793MOL0     C 6955  -0.005   2.374   2.955  0.6850  0.0070 -0.0518
  793MOL0     O 6956  -0.136   2.414   2.951 -0.5107  0.9922 -0.4028
  793MOL0     C 6957  -0.226   2.343   3.039 -1.1447  0.0786  0.1984
  793MOL0     C 6958  -0.341   2.430   3.073 -0.0478 -0.6660 -0.6551
  793MOL0     C 6959  -0.421   2.369   3.191  1.3188  0.7519  0.8418
  793MOL0     C 6960  -0.526   2.464   3.246  0.3162  0.9882  0.9343
  793MOL0     C 6961  -0.611   2.398   3.356 -0.0179  0.1264  0.5819
  793MOL0     C 6962  -0.704   2.505   3.429  0.8249  0.3531  0.3400
  793MOL0     C 6963  -0.632   2.606   3.520 -0.5760  1.0508 -0.4673
  793MOL0     C 6964  -0.718   2.658   3.637  0.4396  0.3036  0.1123
  793MOL0    Cl 6965  -0.681   2.581   3.787  0.4475 -0.3571  0.1890
  793MOL0     C 6966   0.041   2.256   2.894  1.6543  0.5742 -0.8079
  793MOL0     C 6967   0.166   2.208   2.893 -0.2883 -0.6181 -0.5566
  793MOL0     O 6968   0.381   2.027   2.972 -0.0364 -0.6194 -0.0445
  793MOL0     C 6969   0.658   2.012   2.975 -0.8291 -0.2552 -1.2879
  793MOL0     C 6970   0.796   1.990   2.959 -0.9181 -0.7927  0.0995
  793MOL0     N 6971   1.526   1.841   2.741 -0.8166  0.1341  0.3385
  793MOL0     N 6972   1.557   1.761   2.649  0.4370  0.3435 -0.3791
  793MOL0     C 6973   1.407   2.329   2.434 -0.5620 -0.1410 -0.0210
  793MOL0     C 6974   1.288   2.392   2.432  0.2242 -0.9316 -0.0264
  793MOL0     C 6975   0.923   2.597   2.607  0.6057  0.6722 -0.4842
  793MOL0     C 6976   0.816   2.598   2.705 -0.0334 -0.3215 -0.4158
  793MOL0     C 6977   0.705   2.669   2.678  0.2502  0.4932 -0.6120
  793MOL0     C 6978   0.674   2.722   2.556  0.2380  0.1449  0.5482
  793MOL0     O 6979   0.554   2.773   2.543  0.2443  0.3610  0.0644
  793MOL0     C 6980   0.496   2.839   2.423  0.9413  0.4972 -0.1882
  793MOL0     C 6981   0.343   2.841   2.444  0.8146 -0.5820  0.1898
  793MOL0     C 6982   0.278   2.949   2.358  0.8255 -0.0694  0.1348
  793MOL0     C 6983   0.128   2.961   2.396 -0.3753  0.0725 -1.3634
  793MOL0     C 6984   0.100   3.047   2.509 -0.2765 -0.0287  0.0280
  793MOL0     C 6985   0.094   3.116   2.611 -0.1460 -0.0322  0.0976
  793MOL0     C 6986   0.765   2.708   2.461  0.0793 -0.3995  0.0089
  793MOL0     C 6987   0.891   2.657   2.486 -1.0325  0.4438  0.6486
  793MOL0     H 6988   1.343   2.622   2.686 -1.3247  0.1507  0.3299
  793MOL0     H 6989   1.571   2.526   2.663  1.2700 -2.2584 -0.7014
  793MOL0     H 6990   1.743   2.478   2.465 -0.6268 -0.6383  0.1428
  793MOL0     H 6991   1.776   2.398   2.612 -0.2335  3.1456 -0.8655
  793MOL0     H 6992   1.837   2.304   2.323  0.5492  0.4924 -0.8907
  793MOL0     H 6993   1.958   2.350   2.442  0.9908 -1.9659  1.3228
  793MOL0     H 6994   1.926   2.122   2.553  1.2640 -4.8611 -1.9987
  793MOL0     H 6995   1.774   2.112   2.506  1.0182  0.3956  3.8684
  793MOL0     H 6996   1.875   2.086   2.256 -1.8324  0.8901  1.0831
  793MOL0     H 6997   2.031   2.130   2.325 -0.7114  2.0362  2.2345
  793MOL0     H 6998   1.994   1.885   2.270  0.1814 -1.5099  0.1963
  793MOL0     H 6999   2.056   1.904   2.422  1.9326 -1.1063 -3.2017
  793MOL0     H 7000   1.872   1.744   2.437 -0.4927  0.0468  1.9675
  793MOL0     H 7001   1.830   1.881   2.532 -0.5994  1.3054 -0.0097
  793MOL0     H 7002   1.685   1.965   2.345  0.7914  0.9490  0.6607
  793MOL0     H 7003   1.750   1.837   2.247 -0.2198 -0.4837  0.7492
  793MOL0     H 7004   1.644   1.671   2.420 -1.0795 -0.2212  1.4858
  793MOL0     H 7005   1.533   1.778   2.330  1.2984  2.9210 -1.8575
  793MOL0     H 7006   1.530   2.044   2.480  0.9303 -1.3219 -1.0600
  793MOL0     H 7007   1.442   2.063   2.868 -0.7536 -0.9530  0.2106
  793MOL0     H 7008   1.521   2.172   2.749  2.2474 -1.5263 -1.2403
  793MOL0     H 7009   1.302   2.147   2.617  2.4830 -0.4394  0.6855
  793MOL0     H 7010   1.290   2.245   2.754 -1.0414 -0.3312 -0.0063
  793MOL0     H 7011   1.220   2.058   2.897 -1.0112  2.5190  0.7258
  793MOL0     H 7012   1.205   1.965   2.738  0.5623  1.5635 -0.4625
  793MOL0     H 7013   1.041   2.118   2.660 -1.6451  1.3602 -0.3712
  793MOL0     H 7014   1.070   2.205   2.812  3.9731 -1.7976  1.5658
  793MOL0     H 7015   0.859   2.244   2.745  3.4483 -1.4096  1.5167
  793MOL0     H 7016   0.670   2.390   2.705  2.3443 -0.5926  1.0399
  793MOL0     H 7017   0.512   2.298   2.713 -0.5569  0.6274 -0.3179
  793MOL0     H 7018   0.571   2.412   2.836 -0.4166 -0.7067 -0.1592
  793MOL0     H 7019   0.300   2.458   3.069 -1.5719  2.5579  2.5885
  793MOL0     H 7020   0.059   2.528   3.071  0.0060 -1.5577  2.9833
  793MOL0     H 7021  -0.268   2.257   2.986  0.8741 -0.8534  0.0225
  793MOL0     H 7022  -0.175   2.303   3.127 -0.2516  0.2299 -0.2360
  793MOL0     H 7023  -0.294   2.522   3.110 -0.0782 -0.3367 -1.4012
  793MOL0     H 7024  -0.405   2.443   2.985 -1.2344 -1.2212  0.1015
  793MOL0     H 7025  -0.359   2.341   3.277  2.4011 -0.4434 -0.2984
  793MOL0     H 7026  -0.481   2.285   3.156  0.9119  1.0520  0.8022
  793MOL0     H 7027  -0.474   2.544   3.299  0.6544  1.2774  0.1901
  793MOL0     H 7028  -0.591   2.497   3.164 -0.6855  0.3989  1.4753
  793MOL0     H 7029  -0.540   2.363   3.431 -0.2654 -1.0256  0.3013
  793MOL0     H 7030  -0.671   2.318   3.311  1.7944 -1.1478  0.2996
  793MOL0     H 7031  -0.754   2.562   3.350  0.5843 -1.5972 -0.9988
  793MOL0     H 7032  -0.782   2.452   3.484  2.5411 -2.0602  0.6208
  793MOL0     H 7033  -0.602   2.686   3.451  1.2898  0.3714 -0.5069
  793MOL0     H 7034  -0.538   2.564   3.557 -0.9405  1.7402  1.3071
  793MOL0     H 7035  -0.818   2.638   3.597  0.6937 -4.3490  1.3032
  793MOL0     H 7036  -0.697   2.766   3.639  1.6555  0.0626  1.7708
  793MOL0     H 7037  -0.026   2.196   2.834 -0.2371  1.6911  0.0772
  793MOL0     H 7038   0.174   2.115   2.839 -0.4046 -3.3057  3.6222
  793MOL0     H 7039   0.600   1.951   3.044 -0.8562  0.6100 -0.5173
  793MOL0     H 7040   0.851   1.907   3.001 -0.5567 -0.0607  1.1127
  793MOL0     H 7041   1.442   2.251   2.368  0.9669  0.4732  0.0217
  793MOL0     H 7042   1.204   2.367   2.368  0.8155  2.0130 -2.1220
  793MOL0     H 7043   0.835   2.558   2.804  2.6245 -0.1670 -0.7916
  793MOL0     H 7044   0.625   2.668   2.751  2.9197 -1.3184  2.5558
  793MOL0     H 7045   0.542   2.938   2.422  0.6223  0.6518  0.2605
  793MOL0     H 7046   0.513   2.786   2.328  1.8592 -1.9048  1.2339
  793MOL0     H 7047   0.313   2.850   2.549 -0.7053 -0.9438 -0.1801
  793MOL0     H 7048   0.299   2.744   2.417 -0.6268  0.0204  0.2795
  793MOL0     H 7049   0.285   2.920   2.252  1.1073 -0.5635  0.2874
  793MOL0     H 7050   0.333   3.044   2.362  2.6838 -0.8556 -2.8922
  793MOL0     H 7051   0.096   2.861   2.427  0.3104  0.0844 -0.5795
  793MOL0     H 7052   0.069   2.988   2.308 -0.9049 -2.5525 -1.9117
  793MOL0     H 7053   0.090   3.172   2.703 -1.7823 -1.1743  0.7820
  793MOL0     H 7054   0.740   2.745   2.362 -0.7439 -2.2757 -0.5372
  793MOL0     H 7055   0.952   2.655   2.396  0.6047 -3.8092  1.6179
  794MOL0     O 7056   6.784   9.210   1.937 -0.2343  0.6486 -0.0965
  794MOL0     C 7057   6.858   9.191   2.037  1.4035 -0.0006 -0.0588
  794MOL0     O 7058   6.922   9.075   2.064 -0.0672 -0.7169  0.7778
  794MOL0     C 7059   6.941   8.984   1.963 -0.5412 -1.1806 -0.2108
  794MOL0     C 7060   6.888   8.853   1.976 -0.7371 -0.3400  0.4033
  794MOL0     C 7061   6.910   8.761   1.874  1.0720  0.0479 -0.3333
  794MOL0     C 7062   6.967   8.808   1.748 -0.0160 -0.3034 -0.0198
  794MOL0     O 7063   7.008   8.709   1.665  0.4019  0.1368 -0.5142
  794MOL0     C 7064   7.140   8.726   1.598 -0.0416 -0.2126  0.0434
  794MOL0     C 7065   7.195   8.601   1.519  0.1719  0.2785  0.1798
  794MOL0     C 7066   7.130   8.573   1.380  0.9982 -0.1248  0.7315
  794MOL0     C 7067   7.141   8.700   1.292 -0.2859 -0.1939  0.1675
  794MOL0     C 7068   7.057   8.693   1.166  1.3699  0.3212 -0.5376
  794MOL0     C 7069   7.124   8.752   1.043  0.0898  0.8886 -0.6941
  794MOL0     C 7070   7.032   8.794   0.929 -0.4860  1.1122  0.2780
  794MOL0     C 7071   6.976   8.661   0.860 -0.6576 -0.3192  0.6847
  794MOL0     N 7072   7.066   8.614   0.752  0.1161 -0.1888 -0.0251
  794MOL0     C 7073   7.084   8.679   0.631  0.9218  0.1660 -0.3739
  794MOL0     C 7074   7.172   8.597   0.576 -0.2305 -0.2501  0.8222
  794MOL0     C 7075   7.213   8.613   0.434 -0.8699  0.4809  0.0751
  794MOL0     C 7076   7.315   8.512   0.384 -0.1484  0.3272  0.0447
  794MOL0     C 7077   7.280   8.356   0.381  0.1827 -0.6210  0.4947
  794MOL0     C 7078   7.140   8.300   0.410  0.5785 -0.4361  0.3235
  794MOL0     O 7079   7.035   8.367   0.336  0.3906 -0.6709 -0.1653
  794MOL0     C 7080   6.907   8.348   0.385 -0.1250 -0.0176  0.7170
  794MOL0     C 7081   6.863   8.392   0.514  0.2165 -0.6116 -0.4169
  794MOL0     C 7082   6.731   8.377   0.548  1.0639 -0.0076 -0.1046
  794MOL0     C 7083   6.702   8.419   0.699 -0.2494 -0.3887  0.1035
  794MOL0     C 7084   6.629   8.320   0.460  0.3652 -0.6652  0.1131
  794MOL0     C 7085   6.493   8.307   0.489  0.6393  0.2300 -0.5738
  794MOL0     O 7086   6.407   8.278   0.393  0.7183  0.0192  0.0469
  794MOL0     C 7087   6.288   8.216   0.418 -0.5089 -0.7634  0.0452
  794MOL0     C 7088   6.178   8.271   0.499 -0.2145 -1.1047 -0.3927
  794MOL0     C 7089   6.057   8.199   0.519 -0.3983 -0.3064  0.7503
  794MOL0     C 7090   6.041   8.080   0.452  0.8793  1.4244  0.1839
  794MOL0     O 7091   5.933   8.002   0.461 -0.1535 -0.4814  0.4968
  794MOL0     C 7092   5.802   8.054   0.467 -0.0939 -0.4413 -0.2669
  794MOL0     C 7093   5.704   7.937   0.427 -1.1148 -0.2592 -0.9374
  794MOL0     C 7094   5.680   7.860   0.555  0.2405  0.4232 -0.9700
  794MOL0     C 7095   5.562   7.780   0.526  0.0615  0.2046 -0.7199
  794MOL0     C 7096   5.512   7.712   0.657  1.0466  0.4532 -0.3887
  794MOL0     C 7097   5.407   7.608   0.619  0.8404  0.8902  0.7538
  794MOL0     C 7098   5.449   7.473   0.547 -0.7576  0.0362 -0.3171
  794MOL0     C 7099   5.325   7.388   0.556 -0.4981  0.5925 -0.3806
  794MOL0    Cl 7100   5.218   7.438   0.426 -0.4600 -0.1435  0.2162
  794MOL0     C 7101   6.145   8.026   0.373 -0.2864 -0.5073  0.0430
  794MOL0     C 7102   6.261   8.093   0.362 -0.4898 -0.0806 -0.0684
  794MOL0     O 7103   6.463   8.311   0.605  0.5009 -0.9232  0.2688
  794MOL0     C 7104   6.676   8.291   0.325  0.1004  0.2831 -0.3429
  794MOL0     C 7105   6.809   8.313   0.293 -0.0473  0.1825 -0.5651
  794MOL0     N 7106   7.233   8.510   0.667  0.1853 -0.4698 -0.3860
  794MOL0     N 7107   7.164   8.527   0.775 -0.5747 -0.2552 -0.0573
  794MOL0     C 7108   7.012   8.935   1.733  0.2166 -0.3317  1.0736
  794MOL0     C 7109   7.010   9.023   1.843  0.2320 -0.0701 -0.0788
  794MOL0     C 7110   6.861   9.293   2.141 -0.2748 -1.1974 -0.4829
  794MOL0     C 7111   6.955   9.286   2.251  0.0527  0.0540  0.2140
  794MOL0     C 7112   6.961   9.382   2.344 -0.5542 -0.3012 -0.2294
  794MOL0     C 7113   6.866   9.481   2.357  0.3104 -0.2134  0.0532
  794MOL0     O 7114   6.878   9.564   2.466  0.0463  0.5311 -0.2083
  794MOL0     C 7115   6.774   9.667   2.484 -0.8882  0.4142 -0.3480
  794MOL0     C 7116   6.793   9.727   2.629  0.1718  0.3655 -1.1818
  794MOL0     C 7117   6.761   9.611   2.728 -0.0403 -0.1207 -1.3791
  794MOL0     C 7118   6.766   9.663   2.873 -0.2810  0.2107  0.9463
  794MOL0     C 7119   6.892   9.717   2.912 -0.1126  0.7954 -0.0788
  794MOL0     C 7120   6.995   9.763   2.971  0.8808 -0.1630  0.5228
  794MOL0     C 7121   6.776   9.486   2.252  0.6657 -0.3908 -0.7617
  794MOL0     C 7122   6.773   9.401   2.142 -0.7594  0.1363 -0.4745
  794MOL0     H 7123   6.858   8.827   2.078  0.4635  1.4662  1.2755
  794MOL0     H 7124   6.890   8.656   1.891 -4.1099  0.5921 -1.2812
  794MOL0     H 7125   7.158   8.811   1.532  0.8768 -1.5094 -1.4703
  794MOL0     H 7126   7.206   8.725   1.685 -0.8236 -0.4176  0.6397
  794MOL0     H 7127   7.300   8.616   1.495  0.1926  0.6822  0.5096
  794MOL0     H 7128   7.179   8.519   1.589  0.3469  1.1027  1.2214
  794MOL0     H 7129   7.194   8.502   1.326 -1.2310 -1.3923 -0.4358
  794MOL0     H 7130   7.028   8.535   1.397  1.8694 -2.0750  2.0249
  794MOL0     H 7131   7.092   8.780   1.348  0.6840  0.4233  0.1628
  794MOL0     H 7132   7.243   8.733   1.268  0.1070 -0.4973  1.3259
  794MOL0     H 7133   7.041   8.586   1.147  0.9493  0.4419 -0.8651
  794MOL0     H 7134   6.975   8.758   1.198  0.1782 -0.6442 -1.5558
  794MOL0     H 7135   7.177   8.844   1.071 -3.8735  3.0728  0.3602
  794MOL0     H 7136   7.195   8.677   1.006 -1.2919 -2.0591  2.1218
  794MOL0     H 7137   6.943   8.841   0.972 -1.3025 -0.3952  0.3125
  794MOL0     H 7138   7.092   8.853   0.860  1.7964 -2.6934 -1.3393
  794MOL0     H 7139   6.881   8.692   0.815  1.2209  1.1244 -2.6368
  794MOL0     H 7140   6.953   8.577   0.925  2.1132 -1.8003 -0.1125
  794MOL0     H 7141   7.032   8.762   0.584  0.1169 -0.1154  0.0023
  794MOL0     H 7142   7.120   8.604   0.377 -0.0372  1.3323 -1.4467
  794MOL0     H 7143   7.258   8.711   0.415  1.2846 -0.2759  0.9810
  794MOL0     H 7144   7.410   8.531   0.434  1.3073  0.7427 -2.6731
  794MOL0     H 7145   7.348   8.535   0.282  3.2196  0.3014  1.0169
  794MOL0     H 7146   7.354   8.308   0.446 -0.3899 -4.6038 -1.4705
  794MOL0     H 7147   7.305   8.316   0.282 -1.6995  0.0120 -0.2772
  794MOL0     H 7148   7.116   8.316   0.516 -2.4946 -3.5760  0.2944
  794MOL0     H 7149   7.135   8.194   0.386  2.2416 -1.3082  3.2776
  794MOL0     H 7150   6.938   8.431   0.581  1.6881  0.2456 -2.4582
  794MOL0     H 7151   6.656   8.337   0.755 -1.9112  1.2641  1.2842
  794MOL0     H 7152   6.799   8.433   0.746  1.8271 -4.7861 -2.2859
  794MOL0     H 7153   6.632   8.501   0.719  2.2543  1.6283  1.0603
  794MOL0     H 7154   6.193   8.365   0.551  0.9307 -1.1447 -0.6211
  794MOL0     H 7155   5.981   8.252   0.575  0.7300  1.2617  0.8497
  794MOL0     H 7156   5.778   8.094   0.566 -0.6170 -0.6963 -0.2874
  794MOL0     H 7157   5.785   8.133   0.393 -1.4133  0.7049  1.1610
  794MOL0     H 7158   5.613   7.972   0.378 -0.5096  2.3388 -0.3211
  794MOL0     H 7159   5.760   7.892   0.344 -0.2985  0.5161 -0.8151
  794MOL0     H 7160   5.655   7.915   0.645  3.5477 -0.3050  0.5489
  794MOL0     H 7161   5.757   7.789   0.589 -2.3062 -1.1622  2.0413
  794MOL0     H 7162   5.479   7.845   0.497 -1.9821 -1.9164  0.0032
  794MOL0     H 7163   5.595   7.705   0.454 -1.4179  0.0190 -1.2415
  794MOL0     H 7164   5.461   7.779   0.727 -0.9080 -0.6849 -0.6429
  794MOL0     H 7165   5.594   7.664   0.711  1.0777  2.2659  1.2974
  794MOL0     H 7166   5.349   7.595   0.710  2.3464 -1.1046  1.5230
  794MOL0     H 7167   5.338   7.664   0.555  0.8455 -2.8601 -2.9882
  794MOL0     H 7168   5.538   7.438   0.600  0.4691  3.2610 -0.0112
  794MOL0     H 7169   5.484   7.482   0.444 -0.9522  2.0608 -0.2369
  794MOL0     H 7170   5.277   7.402   0.653 -1.7238  1.0886 -1.0218
  794MOL0     H 7171   5.352   7.283   0.552  0.3039  0.6031  2.6455
  794MOL0     H 7172   6.141   7.929   0.325  0.7418 -0.4003 -0.2749
  794MOL0     H 7173   6.342   8.037   0.315 -2.0307 -0.9343 -1.8384
  794MOL0     H 7174   6.608   8.255   0.249  2.3129 -1.7452 -1.5012
  794MOL0     H 7175   6.837   8.303   0.189 -0.6534  2.4887 -0.9837
  794MOL0     H 7176   7.068   8.957   1.643  0.3891 -2.1793  0.6918
  794MOL0     H 7177   7.053   9.122   1.830 -1.1399  0.4802 -0.6706
  794MOL0     H 7178   7.025   9.204   2.261  0.3486  0.4384  1.6272
  794MOL0     H 7179   7.033   9.387   2.425 -3.5407  1.5026  2.5513
  794MOL0     H 7180   6.768   9.738   2.401  5.0730  1.6228 -0.1908
  794MOL0     H 7181   6.676   9.619   2.478 -0.7784 -0.0859  1.3537
  794MOL0     H 7182   6.734   9.817   2.643 -1.8955 -1.3394  2.4049
  794MOL0     H 7183   6.900   9.750   2.637 -0.2183  1.9145 -0.0669
  794MOL0     H 7184   6.835   9.532   2.713 -0.9725 -1.0876 -0.9416
  794MOL0     H 7185   6.659   9.582   2.702 -2.0244  1.9042  3.0582
  794MOL0     H 7186   6.740   9.587   2.947 -2.6117  3.4679  3.8694
  794MOL0     H 7187   6.693   9.745   2.880 -0.3554  0.2497 -0.0954
  794MOL0     H 7188   7.093   9.797   2.998  1.7800 -2.0238 -0.1991
  794MOL0     H 7189   6.698   9.562   2.254 -1.6950 -2.6684  0.6696
  794MOL0     H 7190   6.694   9.420   2.070 -1.6830  1.4161  0.8137
  795MOL0     O 7191   1.248   8.322   6.074 -0.4748 -0.3227 -0.9476
  795MOL0     C 7192   1.272   8.430   6.030  0.4428 -0.5282  0.2584
  795MOL0     O 7193   1.389   8.494   6.021 -0.4296  0.1376 -0.1579
  795MOL0     C 7194   1.514   8.449   6.070  0.3756  0.0854  0.0049
  795MOL0     C 7195   1.615   8.542   6.056 -0.3938  0.6508 -0.3160
  795MOL0     C 7196   1.746   8.504   6.103 -0.6899 -0.3586 -0.6123
  795MOL0     C 7197   1.771   8.381   6.177 -0.4172 -0.2713  0.6327
  795MOL0     O 7198   1.903   8.348   6.222  0.7401 -0.3161  0.3460
  795MOL0     C 7199   1.946   8.214   6.193  0.2582 -0.9230 -0.4160
  795MOL0     C 7200   1.983   8.196   6.049 -0.2577  0.2946  0.2799
  795MOL0     C 7201   2.080   8.305   6.006 -0.0536 -0.1840  0.8845
  795MOL0     C 7202   2.219   8.303   6.080 -0.6399  1.1969  0.2533
  795MOL0     C 7203   2.324   8.416   6.052 -0.7213 -1.1582  0.5524
  795MOL0     C 7204   2.449   8.407   6.130 -0.0457  0.3811  0.7939
  795MOL0     C 7205   2.530   8.282   6.100  0.2713  0.8220  0.9390
  795MOL0     C 7206   2.602   8.282   5.965  0.4716  0.1323 -0.1908
  795MOL0     N 7207   2.704   8.173   5.965 -0.2847  0.5405  1.3272
  795MOL0     C 7208   2.695   8.031   5.946  0.0136 -0.7690  1.5947
  795MOL0     C 7209   2.824   7.990   5.962 -0.2687  0.0789  0.1858
  795MOL0     C 7210   2.879   7.848   5.979 -0.3477 -0.2527 -0.0582
  795MOL0     C 7211   2.937   7.781   5.857  0.3699 -0.5718  0.0911
  795MOL0     C 7212   3.074   7.836   5.816  0.6951 -0.0404  0.0597
  795MOL0     C 7213   3.178   7.811   5.920 -0.5082 -0.7736 -0.4813
  795MOL0     O 7214   3.215   7.934   5.980  0.2981 -0.9000 -0.0395
  795MOL0     C 7215   3.335   7.946   6.047  1.1362 -0.8829  0.0643
  795MOL0     C 7216   3.428   7.845   6.065 -0.2091  0.0309  0.5945
  795MOL0     C 7217   3.562   7.880   6.094  0.0128  0.6974 -0.6650
  795MOL0     C 7218   3.661   7.779   6.090 -0.2018 -0.0859  0.3754
  795MOL0     C 7219   3.595   8.007   6.139 -0.6087  0.3980  0.1111
  795MOL0     C 7220   3.725   8.053   6.193 -0.5524  0.0482  0.0803
  795MOL0     O 7221   3.721   8.171   6.256  0.0650  0.0898 -1.0139
  795MOL0     C 7222   3.832   8.206   6.327 -0.0774  0.1894  0.9939
  795MOL0     C 7223   3.916   8.296   6.276  0.3075 -0.4596  0.4768
  795MOL0     C 7224   4.033   8.328   6.343 -0.0617 -0.7738  0.8004
  795MOL0     C 7225   4.065   8.273   6.466 -0.0517  0.3816  1.7302
  795MOL0     O 7226   4.175   8.274   6.539  1.1405  0.0926 -0.2127
  795MOL0     C 7227   4.299   8.271   6.468  0.0463 -0.3514  0.0651
  795MOL0     C 7228   4.395   8.169   6.515  0.2224 -0.3161 -0.7309
  795MOL0     C 7229   4.418   8.162   6.670  0.0453 -0.1816  1.5188
  795MOL0     C 7230   4.502   8.273   6.725  0.1557 -0.3304 -0.2025
  795MOL0     C 7231   4.514   8.289   6.875  0.6798 -0.9182 -0.2323
  795MOL0     C 7232   4.380   8.306   6.947  0.5548  0.7587  0.1612
  795MOL0     C 7233   4.305   8.445   6.918  0.8059  0.5804 -0.4538
  795MOL0     C 7234   4.393   8.563   6.915 -0.0823 -0.5291 -0.2880
  795MOL0    Cl 7235   4.496   8.585   7.068  0.2078  0.0557 -0.2371
  795MOL0     C 7236   3.976   8.177   6.519  0.2152  0.5788  0.0457
  795MOL0     C 7237   3.864   8.140   6.449  0.3921  0.1311  0.0473
  795MOL0     O 7238   3.832   7.998   6.151  0.3798  0.0785 -0.2877
  795MOL0     C 7239   3.494   8.105   6.123 -0.3535  0.0803  0.1773
  795MOL0     C 7240   3.363   8.069   6.091 -0.8284 -0.6496  0.4825
  795MOL0     N 7241   2.904   8.099   5.999 -0.1978  0.1930  0.3448
  795MOL0     N 7242   2.827   8.204   5.999  0.5140  0.0758  0.0225
  795MOL0     C 7243   1.662   8.294   6.183 -0.2563  0.0353 -0.3341
  795MOL0     C 7244   1.543   8.332   6.126 -0.4499  0.6918 -0.1616
  795MOL0     C 7245   1.155   8.498   5.970 -0.2068 -0.7960  0.1116
  795MOL0     C 7246   1.029   8.440   5.978 -0.7920 -0.3232 -0.1463
  795MOL0     C 7247   0.925   8.477   5.899  0.3383 -0.0875  0.0713
  795MOL0     C 7248   0.936   8.588   5.815  0.1337 -0.5100 -0.2481
  795MOL0     O 7249   0.831   8.641   5.746  0.3141  0.0168  0.3124
  795MOL0     C 7250   0.800   8.547   5.642  0.1139  0.7871  0.4986
  795MOL0     C 7251   0.658   8.568   5.581  1.3667  0.0842  0.1565
  795MOL0     C 7252   0.538   8.552   5.677 -0.3384 -0.2567 -0.9295
  795MOL0     C 7253   0.527   8.419   5.745  0.8076 -0.0399 -0.5040
  795MOL0     C 7254   0.387   8.399   5.793 -0.6683  0.4481  1.4567
  795MOL0     C 7255   0.273   8.383   5.829 -0.2681 -0.3151 -0.2296
  795MOL0     C 7256   1.048   8.660   5.828 -0.2334  0.3497 -0.0299
  795MOL0     C 7257   1.157   8.613   5.902 -0.2506 -0.3536  0.6244
  795MOL0     H 7258   1.589   8.631   6.002 -0.9474 -0.4966 -2.0189
  795MOL0     H 7259   1.838   8.562   6.099  1.0778 -3.0438 -1.4379
  795MOL0     H 7260   2.039   8.200   6.247  0.6393 -1.2853 -1.1422
  795MOL0     H 7261   1.879   8.134   6.226  0.1675 -0.7863 -0.2676
  795MOL0     H 7262   2.032   8.100   6.031 -1.7810 -0.0970 -2.4077
  795MOL0     H 7263   1.895   8.190   5.985  2.7005 -2.6505 -4.1324
  795MOL0     H 7264   2.100   8.299   5.899  0.5643 -1.8118  1.0644
  795MOL0     H 7265   2.037   8.405   6.020  1.1512  0.9197 -2.4627
  795MOL0     H 7266   2.208   8.299   6.188 -2.6638 -0.3375  0.0498
  795MOL0     H 7267   2.264   8.213   6.037 -0.5409  3.0323 -4.0319
  795MOL0     H 7268   2.351   8.420   5.946  2.8321  1.9484  1.3611
  795MOL0     H 7269   2.269   8.508   6.071  1.0251  0.3796 -1.3429
  795MOL0     H 7270   2.515   8.494   6.117  1.9449 -1.3256 -1.2780
  795MOL0     H 7271   2.420   8.399   6.235  0.5432 -2.0547  0.8148
  795MOL0     H 7272   2.603   8.281   6.182  2.5100 -0.5007 -0.9547
  795MOL0     H 7273   2.463   8.195   6.101  0.5645  0.5605  2.9991
  795MOL0     H 7274   2.656   8.374   5.941  4.8820 -2.7555 -2.9266
  795MOL0     H 7275   2.532   8.260   5.884 -0.2438 -2.3124  0.9786
  795MOL0     H 7276   2.612   7.966   5.919  0.3648 -0.4760 -0.3358
  795MOL0     H 7277   2.956   7.848   6.056  3.1570 -1.9054 -3.2444
  795MOL0     H 7278   2.805   7.780   6.024 -1.1602 -0.4498 -1.6188
  795MOL0     H 7279   2.870   7.792   5.771  0.6569 -2.8870 -0.5144
  795MOL0     H 7280   2.943   7.673   5.878  0.4789 -0.5999 -0.0841
  795MOL0     H 7281   3.075   7.943   5.794  0.9917 -0.0395  0.0720
  795MOL0     H 7282   3.099   7.787   5.721 -0.2922  2.0685 -1.3766
  795MOL0     H 7283   3.261   7.772   5.861 -3.0300 -3.3184 -2.6337
  795MOL0     H 7284   3.160   7.730   5.992 -0.3129 -0.9592 -0.6409
  795MOL0     H 7285   3.406   7.742   6.042  3.0242 -0.9766  1.4980
  795MOL0     H 7286   3.620   7.686   6.048  1.1074 -1.6699  2.4202
  795MOL0     H 7287   3.744   7.810   6.025 -1.7047  0.4536 -1.3949
  795MOL0     H 7288   3.701   7.745   6.186 -2.3179 -0.8950  1.0478
  795MOL0     H 7289   3.897   8.338   6.178 -2.0156 -1.6089  0.3689
  795MOL0     H 7290   4.098   8.407   6.306  0.2094 -0.5491  1.7518
  795MOL0     H 7291   4.293   8.268   6.359 -0.2813  1.0487  0.0151
  795MOL0     H 7292   4.338   8.372   6.485 -0.8962 -0.2127  1.6500
  795MOL0     H 7293   4.359   8.068   6.489  1.2796 -2.5649  5.0778
  795MOL0     H 7294   4.491   8.187   6.465  0.4672  1.0796  0.1828
  795MOL0     H 7295   4.469   8.069   6.697 -0.2032 -0.5604  0.7278
  795MOL0     H 7296   4.313   8.159   6.702 -1.1509 -3.2013 -1.8708
  795MOL0     H 7297   4.606   8.270   6.691 -0.1045 -0.6110 -1.0030
  795MOL0     H 7298   4.472   8.362   6.668 -0.4964 -1.9554 -2.5762
  795MOL0     H 7299   4.589   8.360   6.912  0.2381  0.6363 -2.1525
  795MOL0     H 7300   4.558   8.194   6.908 -0.2419 -1.0275  0.7269
  795MOL0     H 7301   4.311   8.229   6.912  0.8189  0.4409  0.3308
  795MOL0     H 7302   4.392   8.284   7.054  0.0617  1.3484  0.3458
  795MOL0     H 7303   4.230   8.459   6.996 -0.8591 -1.1175 -1.6465
  795MOL0     H 7304   4.242   8.432   6.829  1.1181 -0.7621 -0.4975
  795MOL0     H 7305   4.331   8.651   6.892 -1.0181 -1.1383 -0.1773
  795MOL0     H 7306   4.465   8.567   6.833 -1.3243  0.2289 -1.3923
  795MOL0     H 7307   4.003   8.136   6.617  1.6731  4.8285  1.6444
  795MOL0     H 7308   3.804   8.058   6.487  0.5372  0.8981  2.0357
  795MOL0     H 7309   3.507   8.209   6.152  4.6678 -0.2055 -0.1255
  795MOL0     H 7310   3.302   8.158   6.080  0.5423  0.3859  0.9794
  795MOL0     H 7311   1.664   8.200   6.236  1.0665  0.4899  0.4642
  795MOL0     H 7312   1.461   8.260   6.130 -0.8508  1.1317 -0.4204
  795MOL0     H 7313   1.007   8.348   6.031  1.2225 -0.8880 -0.1877
  795MOL0     H 7314   0.833   8.422   5.910 -0.6664  1.5177 -0.0452
  795MOL0     H 7315   0.873   8.554   5.561 -1.6744  4.9694 -1.0810
  795MOL0     H 7316   0.809   8.446   5.681 -2.4405  0.3059  0.0127
  795MOL0     H 7317   0.646   8.494   5.501  0.2078 -0.1386  0.5163
  795MOL0     H 7318   0.647   8.660   5.524 -1.4785  0.1612  0.6643
  795MOL0     H 7319   0.446   8.577   5.624  1.1662  2.3423 -2.5612
  795MOL0     H 7320   0.536   8.628   5.757 -0.2840 -1.8385  0.6325
  795MOL0     H 7321   0.601   8.412   5.825  0.8600  1.9299 -0.3254
  795MOL0     H 7322   0.544   8.342   5.669 -0.6055 -0.3889 -0.4822
  795MOL0     H 7323   0.175   8.365   5.868  0.4034 -3.5201  0.2535
  795MOL0     H 7324   1.047   8.746   5.763  3.9484 -2.3426 -4.3064
  795MOL0     H 7325   1.249   8.668   5.884  0.0848 -1.1876 -0.2694
  796MOL0     O 7326   2.134   3.213   7.637  0.2557  0.4172  0.4199
  796MOL0     C 7327   2.123   3.202   7.758  0.4797  0.1344 -0.4429
  796MOL0     O 7328   2.205   3.263   7.855 -0.2623 -0.1251 -0.0929
  796MOL0     C 7329   2.303   3.351   7.805  0.8489  0.6585 -0.4437
  796MOL0     C 7330   2.422   3.300   7.751  0.1125 -0.5610  0.4058
  796MOL0     C 7331   2.525   3.383   7.706 -0.0388 -0.0536  0.0430
  796MOL0     C 7332   2.522   3.521   7.716 -0.0791  0.1310 -0.5897
  796MOL0     O 7333   2.618   3.616   7.669  1.1070  0.8019  0.0926
  796MOL0     C 7334   2.730   3.570   7.587 -0.5545 -0.0306  0.2569
  796MOL0     C 7335   2.842   3.546   7.685 -0.5332  0.5719 -0.2554
  796MOL0     C 7336   2.962   3.504   7.607 -0.1739  0.0772  0.4150
  796MOL0     C 7337   3.074   3.485   7.700 -0.1066 -0.1193 -0.6951
  796MOL0     C 7338   3.167   3.389   7.648 -0.4038 -0.0467  0.1094
  796MOL0     C 7339   3.286   3.358   7.747 -0.7438  0.7173  0.6996
  796MOL0     C 7340   3.379   3.246   7.690 -1.0845 -0.5140 -0.9502
  796MOL0     C 7341   3.308   3.111   7.679 -0.1093 -0.6517 -0.0825
  796MOL0     N 7342   3.272   3.064   7.821  0.9867  0.4486  1.0929
  796MOL0     C 7343   3.144   3.080   7.871 -0.2897 -0.5025  0.4533
  796MOL0     C 7344   3.158   3.016   7.995  0.5767  0.0731  0.0193
  796MOL0     C 7345   3.045   3.007   8.092  0.8341  0.1611  0.0878
  796MOL0     C 7346   3.084   3.090   8.205  0.8629  0.3807 -0.3381
  796MOL0     C 7347   2.960   3.125   8.291 -0.1447  0.0170 -0.6395
  796MOL0     C 7348   3.005   3.206   8.413 -0.1887  0.0799  0.4017
  796MOL0     O 7349   3.052   3.112   8.509  0.2129 -0.3334  0.4938
  796MOL0     C 7350   3.033   3.144   8.641  0.0505 -0.1920  1.3806
  796MOL0     C 7351   2.936   3.082   8.713 -0.1405  0.0592  0.2423
  796MOL0     C 7352   2.904   3.106   8.847  0.2081 -0.8230  0.2496
  796MOL0     C 7353   2.807   3.013   8.922  0.0512 -0.4338  0.2869
  796MOL0     C 7354   2.976   3.221   8.905 -0.5672  0.1432  0.1986
  796MOL0     C 7355   2.953   3.287   9.034 -0.4395  0.3091 -0.8359
  796MOL0     O 7356   2.999   3.411   9.056  0.3385  0.0121 -0.0458
  796MOL0     C 7357   2.971   3.492   9.171  0.0153 -0.4727  0.6336
  796MOL0     C 7358   2.924   3.460   9.299  0.3294 -0.4634  0.1640
  796MOL0     C 7359   2.892   3.547   9.398 -0.8083 -0.0463 -0.0894
  796MOL0     C 7360   2.936   3.678   9.389 -0.2299 -0.0997 -0.1005
  796MOL0     O 7361   2.913   3.766   9.491  0.0303 -0.6829  0.1503
  796MOL0     C 7362   3.018   3.867   9.515  0.5394  0.7764  0.2149
  796MOL0     C 7363   3.065   3.864   9.663 -0.0121 -0.0749  0.7948
  796MOL0     C 7364   3.172   3.958   9.692  0.5697 -0.3324 -0.0501
  796MOL0     C 7365   3.226   3.937   9.824 -0.0615  0.8067 -0.5179
  796MOL0     C 7366   3.342   4.027   9.858  0.3194 -0.0853  0.1074
  796MOL0     C 7367   3.467   3.998   9.778  0.3658 -0.8270 -0.1466
  796MOL0     C 7368   3.573   4.114   9.787  0.9018  0.7389 -0.3934
  796MOL0     C 7369   3.704   4.081   9.710  0.3267 -0.5024  0.3961
  796MOL0    Cl 7370   3.777   4.241   9.703  0.5016 -0.2422 -0.0587
  796MOL0     C 7371   2.976   3.723   9.261  0.4278 -0.3211  0.0238
  796MOL0     C 7372   2.997   3.630   9.150  0.7834 -0.2241 -0.6597
  796MOL0     O 7373   2.868   3.229   9.108  0.4364 -0.3769  0.6470
  796MOL0     C 7374   3.078   3.279   8.824 -0.1955 -0.4409  0.8537
  796MOL0     C 7375   3.109   3.244   8.695 -0.1476 -0.0936  0.2869
  796MOL0     N 7376   3.284   2.975   8.009  0.8534  0.3580 -0.0477
  796MOL0     N 7377   3.353   3.009   7.914  0.3694  0.4560  0.4265
  796MOL0     C 7378   2.404   3.569   7.778  0.2417 -0.7426 -0.4309
  796MOL0     C 7379   2.295   3.494   7.818 -0.3923 -0.3008 -0.5087
  796MOL0     C 7380   2.016   3.109   7.812 -0.0723 -0.6143  0.4028
  796MOL0     C 7381   1.931   3.046   7.722 -1.0481  0.2259 -0.9509
  796MOL0     C 7382   1.824   2.970   7.770 -0.4415  0.3553 -0.1998
  796MOL0     C 7383   1.807   2.941   7.904  0.8752 -0.1349 -0.5014
  796MOL0     O 7384   1.691   2.873   7.937 -0.2674  0.2012 -0.0372
  796MOL0     C 7385   1.673   2.831   8.072 -1.6670 -1.9980  0.0673
  796MOL0     C 7386   1.581   2.708   8.073  0.0781  0.1371 -0.2897
  796MOL0     C 7387   1.592   2.615   7.957  0.4700 -0.0786 -0.1116
  796MOL0     C 7388   1.492   2.502   7.974  0.3927 -0.4893 -0.0451
  796MOL0     C 7389   1.455   2.430   7.856  0.5704  0.1306 -0.7907
  796MOL0     C 7390   1.427   2.385   7.751 -0.0740 -0.6379  0.2139
  796MOL0     C 7391   1.888   3.005   8.002 -0.1447  0.4109  0.4856
  796MOL0     C 7392   1.999   3.074   7.947  0.4636  0.0638  0.3221
  796MOL0     H 7393   2.442   3.195   7.731  0.7730  0.1211 -3.2627
  796MOL0     H 7394   2.618   3.354   7.658  0.7268  2.5911 -0.2143
  796MOL0     H 7395   2.716   3.475   7.533  0.0018 -0.5313  0.9819
  796MOL0     H 7396   2.752   3.636   7.502  0.6887 -3.7920 -2.6513
  796MOL0     H 7397   2.872   3.635   7.741  0.0460  0.3562 -0.2149
  796MOL0     H 7398   2.806   3.467   7.751 -1.0340 -0.4870 -1.7233
  796MOL0     H 7399   2.944   3.412   7.552  1.7243 -0.7911  1.1627
  796MOL0     H 7400   2.985   3.591   7.544 -0.2804  2.3793  3.3340
  796MOL0     H 7401   3.116   3.584   7.722 -1.4286  1.9337 -5.8500
  796MOL0     H 7402   3.030   3.445   7.791  1.7322 -3.3640 -1.0919
  796MOL0     H 7403   3.102   3.301   7.652 -0.5178  0.0902  1.5611
  796MOL0     H 7404   3.216   3.412   7.553  0.8864  1.3447  1.0712
  796MOL0     H 7405   3.350   3.447   7.757 -1.1174  1.0218  0.4302
  796MOL0     H 7406   3.248   3.325   7.844  0.6844 -3.2019  0.0950
  796MOL0     H 7407   3.419   3.280   7.595 -1.3799 -0.4273 -1.0458
  796MOL0     H 7408   3.471   3.226   7.746  0.7174  0.6502 -3.3543
  796MOL0     H 7409   3.386   3.047   7.635 -1.5885 -0.7384 -2.7761
  796MOL0     H 7410   3.227   3.103   7.606 -0.9330  0.0904  0.7332
  796MOL0     H 7411   3.049   3.116   7.833 -0.7340 -1.0754  0.9820
  796MOL0     H 7412   2.941   3.027   8.063 -0.1393  0.2147  3.2680
  796MOL0     H 7413   3.035   2.904   8.128 -0.3428  0.0590 -0.4719
  796MOL0     H 7414   3.127   3.180   8.161 -1.6398  1.9264  0.1539
  796MOL0     H 7415   3.165   3.050   8.267  1.7954 -3.3133 -3.5628
  796MOL0     H 7416   2.906   3.037   8.328  1.3905 -0.4384  0.6307
  796MOL0     H 7417   2.894   3.189   8.230 -1.9301 -0.6817  0.4749
  796MOL0     H 7418   2.913   3.254   8.447  0.1132  2.7349 -2.1375
  796MOL0     H 7419   3.083   3.277   8.384 -0.0012  0.7878  2.4303
  796MOL0     H 7420   2.873   3.004   8.671 -0.7040  0.1211  0.9539
  796MOL0     H 7421   2.747   3.065   8.997  0.4360  1.2575 -0.5280
  796MOL0     H 7422   2.733   2.969   8.855  2.1732  1.1965 -3.4235
  796MOL0     H 7423   2.874   2.940   8.969  1.7176  0.4338 -0.6375
  796MOL0     H 7424   2.894   3.356   9.311  1.0394 -0.8760 -1.3956
  796MOL0     H 7425   2.845   3.509   9.488 -0.5996  0.6565  0.3261
  796MOL0     H 7426   3.110   3.853   9.458  0.4617 -2.2691  0.6656
  796MOL0     H 7427   2.988   3.968   9.486 -0.2865  1.2275  2.4175
  796MOL0     H 7428   2.973   3.873   9.723 -1.4837 -0.9955 -1.1987
  796MOL0     H 7429   3.099   3.760   9.672 -0.8210 -0.7514 -2.4949
  796MOL0     H 7430   3.124   4.056   9.680  1.1311  0.4813  3.4188
  796MOL0     H 7431   3.246   3.944   9.612 -0.1344 -3.9841 -0.1976
  796MOL0     H 7432   3.147   3.951   9.899 -0.9226 -0.3104 -1.1834
  796MOL0     H 7433   3.253   3.831   9.827 -2.6493  0.0041 -2.3914
  796MOL0     H 7434   3.369   4.035   9.964 -1.4451  3.1988  0.4582
  796MOL0     H 7435   3.312   4.130   9.838 -1.4271 -0.6078 -0.1021
  796MOL0     H 7436   3.506   3.904   9.820 -2.0022 -1.8717 -0.1576
  796MOL0     H 7437   3.456   3.970   9.672  2.6246 -0.1005 -0.6258
  796MOL0     H 7438   3.586   4.124   9.895 -1.2628  1.7791 -0.1791
  796MOL0     H 7439   3.523   4.203   9.747  0.8397  1.0173  0.2902
  796MOL0     H 7440   3.674   4.031   9.617 -3.1790  0.5818  0.8090
  796MOL0     H 7441   3.760   4.005   9.766 -3.1936 -2.0316  2.1421
  796MOL0     H 7442   2.993   3.829   9.240  0.8946 -0.8465 -2.7171
  796MOL0     H 7443   3.037   3.666   9.056  1.5309  0.4946 -0.0809
  796MOL0     H 7444   3.141   3.360   8.860  0.1385  0.2334 -1.1424
  796MOL0     H 7445   3.184   3.291   8.632 -3.2337 -0.4048 -4.0093
  796MOL0     H 7446   2.396   3.676   7.798  1.4712 -0.9233  1.3271
  796MOL0     H 7447   2.208   3.536   7.868  0.1445 -1.3571  1.4133
  796MOL0     H 7448   1.943   3.051   7.614 -0.5847  0.4045 -0.8923
  796MOL0     H 7449   1.743   2.937   7.704  0.0177  2.6973 -2.0807
  796MOL0     H 7450   1.771   2.816   8.119 -1.1813  4.0727  1.8446
  796MOL0     H 7451   1.631   2.914   8.129 -0.1821 -1.1292 -0.0473
  796MOL0     H 7452   1.477   2.740   8.076 -1.0403 -2.9563 -1.7580
  796MOL0     H 7453   1.598   2.652   8.166 -6.3578  1.9507  2.5645
  796MOL0     H 7454   1.683   2.558   7.937 -0.1649 -0.9243 -0.7059
  796MOL0     H 7455   1.559   2.671   7.868 -0.1345  0.1731  0.2608
  796MOL0     H 7456   1.400   2.548   8.012  2.1030  1.7890  1.6397
  796MOL0     H 7457   1.523   2.436   8.055  1.4358 -1.3162 -1.0870
  796MOL0     H 7458   1.418   2.341   7.654  2.2829 -0.9411  0.0926
  796MOL0     H 7459   1.875   3.022   8.109  3.1674  2.2645  0.7350
  796MOL0     H 7460   2.060   3.121   8.023 -0.7587 -1.7271  2.5311
  797MOL0     O 7461   9.752  10.851  10.334  0.4673  1.0306  0.5012
  797MOL0     C 7462   9.651  10.786  10.354  0.4919  0.2689  0.3206
  797MOL0     O 7463   9.638  10.646  10.328  0.0010  0.4703  0.0742
  797MOL0     C 7464   9.742  10.573  10.280  0.9126 -0.1593  0.1745
  797MOL0     C 7465   9.722  10.471  10.187 -0.0945  0.4582  0.0568
  797MOL0     C 7466   9.832  10.383  10.146  0.1565  0.5212  0.0123
  797MOL0     C 7467   9.957  10.404  10.193 -0.2465 -0.2123  0.0680
  797MOL0     O 7468  10.056  10.318  10.141  0.2184 -0.0290  0.1507
  797MOL0     C 7469  10.186  10.343  10.193 -0.8946 -0.1184 -0.1930
  797MOL0     C 7470  10.282  10.249  10.126  1.0751  0.5927 -0.7759
  797MOL0     C 7471  10.334  10.298   9.990 -0.0944 -0.2294  0.8051
  797MOL0     C 7472  10.444  10.418  10.000 -0.1143  0.1712  0.2995
  797MOL0     C 7473  10.483  10.472   9.863 -0.0061 -0.3500 -0.0036
  797MOL0     C 7474  10.376  10.545   9.779 -0.0282 -0.6167 -0.0853
  797MOL0     C 7475  10.436  10.623   9.662 -0.3351  0.3031  0.1210
  797MOL0     C 7476  10.318  10.693   9.581  0.6234  0.8898 -0.5373
  797MOL0     N 7477  10.250  10.622   9.476 -0.5052 -0.3704 -0.7437
  797MOL0     C 7478  10.113  10.623   9.465  0.0385  0.9703  0.2298
  797MOL0     C 7479  10.087  10.567   9.349 -0.2376 -0.5221  0.4812
  797MOL0     C 7480   9.950  10.532   9.296 -0.8438  0.1185  0.1095
  797MOL0     C 7481   9.866  10.662   9.277  0.4276 -0.8285 -0.8438
  797MOL0     C 7482   9.742  10.679   9.388 -0.2771  0.1850 -0.3649
  797MOL0     C 7483   9.645  10.784   9.354  0.1814 -0.1415  0.0593
  797MOL0     O 7484   9.528  10.776   9.432  0.4141 -0.1479 -0.3998
  797MOL0     C 7485   9.426  10.872   9.438  0.4235 -0.5576 -0.3404
  797MOL0     C 7486   9.308  10.857   9.512  0.2820  0.7681 -0.8209
  797MOL0     C 7487   9.219  10.963   9.528  0.5902 -0.0742  0.1145
  797MOL0     C 7488   9.104  10.930   9.623  0.4222  0.6741 -0.3363
  797MOL0     C 7489   9.239  11.072   9.445  0.3420 -0.9735 -1.0225
  797MOL0     C 7490   9.153  11.186   9.465  0.0565  0.2766  0.2164
  797MOL0     O 7491   9.014  11.157   9.449  0.0573  0.8704  0.6096
  797MOL0     C 7492   8.920  11.258   9.447 -0.1659  0.3440 -0.3894
  797MOL0     C 7493   8.802  11.224   9.516 -0.2677 -0.2178  1.1577
  797MOL0     C 7494   8.699  11.316   9.522  0.0751  0.1480 -0.8536
  797MOL0     C 7495   8.709  11.442   9.455 -0.2555  0.7003 -0.2773
  797MOL0     O 7496   8.604  11.530   9.460 -0.2211  0.2262  0.1284
  797MOL0     C 7497   8.468  11.481   9.447 -0.8452 -0.0201  0.1360
  797MOL0     C 7498   8.390  11.604   9.398 -0.4153  0.2869 -0.3801
  797MOL0     C 7499   8.428  11.643   9.256 -0.0046 -0.0981  0.1667
  797MOL0     C 7500   8.380  11.781   9.205  1.0266 -0.0903  0.8485
  797MOL0     C 7501   8.224  11.818   9.213 -0.0217  0.4945  0.0028
  797MOL0     C 7502   8.212  11.961   9.159  0.6079 -0.4157  0.1146
  797MOL0     C 7503   8.073  12.003   9.100  0.3615 -0.5841 -0.2501
  797MOL0     C 7504   7.969  12.010   9.221  0.5215 -0.0166 -0.4874
  797MOL0    Cl 7505   7.831  12.114   9.171  0.3906 -0.2917 -0.2154
  797MOL0     C 7506   8.829  11.474   9.384  0.0013  1.3300  0.2209
  797MOL0     C 7507   8.937  11.383   9.384 -0.5014  0.0598 -0.7743
  797MOL0     O 7508   9.204  11.295   9.498  0.0455 -0.2123  0.6268
  797MOL0     C 7509   9.352  11.088   9.360 -0.7107 -0.9438 -0.7147
  797MOL0     C 7510   9.442  10.986   9.359 -0.0501  0.1869  0.4423
  797MOL0     N 7511  10.209  10.529   9.284 -0.0290 -0.3312 -0.6364
  797MOL0     N 7512  10.308  10.557   9.372 -0.0322  0.0666 -0.0378
  797MOL0     C 7513   9.979  10.501  10.291 -0.7532 -0.0897 -0.5921
  797MOL0     C 7514   9.867  10.571  10.342 -0.1583  0.1222  0.4193
  797MOL0     C 7515   9.527  10.859  10.397  0.9928 -0.3479 -0.5522
  797MOL0     C 7516   9.509  11.002  10.420 -0.4615 -0.6038  1.0622
  797MOL0     C 7517   9.401  11.060  10.478  0.7121  0.5582 -0.1015
  797MOL0     C 7518   9.295  10.983  10.522  0.7497  0.5009  0.1676
  797MOL0     O 7519   9.173  11.028  10.571 -0.3859  0.8600  0.0677
  797MOL0     C 7520   9.165  11.164  10.628  0.3172 -0.2849  0.0499
  797MOL0     C 7521   9.057  11.167  10.745  0.4854  0.3346  0.1604
  797MOL0     C 7522   8.912  11.127  10.686 -0.5969  0.7102  0.5965
  797MOL0     C 7523   8.804  11.161  10.773  0.9618  0.0144  0.6459
  797MOL0     C 7524   8.795  11.304  10.810  0.7141 -1.3639  0.3754
  797MOL0     C 7525   8.785  11.413  10.860 -0.0788 -1.0449 -0.0657
  797MOL0     C 7526   9.303  10.847  10.519  0.1649  0.0536  0.4513
  797MOL0     C 7527   9.415  10.786  10.456 -0.4535 -0.3586 -1.1128
  797MOL0     H 7528   9.623  10.460  10.146  0.1618 -1.6601 -0.1239
  797MOL0     H 7529   9.811  10.302  10.077 -3.4639  1.0023  0.3723
  797MOL0     H 7530  10.228  10.442  10.170 -0.9909 -0.1035 -0.3060
  797MOL0     H 7531  10.182  10.352  10.302  2.9911  1.3193 -0.0072
  797MOL0     H 7532  10.371  10.230  10.186  1.7892  2.2631 -1.2681
  797MOL0     H 7533  10.232  10.152  10.114  0.5575  1.2041 -4.8640
  797MOL0     H 7534  10.373  10.214   9.932  1.1784 -0.0991  1.4383
  797MOL0     H 7535  10.252  10.332   9.926  1.0102  0.2310 -0.4287
  797MOL0     H 7536  10.403  10.498  10.063  0.4496 -0.3150  1.2984
  797MOL0     H 7537  10.532  10.382  10.054  0.1924  0.2963 -0.1191
  797MOL0     H 7538  10.574  10.533   9.861 -0.4592  0.3297  0.1034
  797MOL0     H 7539  10.517  10.383   9.809 -0.0631 -0.5175  0.2368
  797MOL0     H 7540  10.293  10.479   9.750  0.3303 -0.8256 -0.6555
  797MOL0     H 7541  10.332  10.614   9.851  1.4253 -2.1103  2.3663
  797MOL0     H 7542  10.504  10.700   9.701  0.1681 -0.0554 -0.0323
  797MOL0     H 7543  10.494  10.565   9.590 -0.6423 -0.7508  0.7065
  797MOL0     H 7544  10.364  10.773   9.522  0.3655 -0.6993 -3.0449
  797MOL0     H 7545  10.242  10.735   9.646  1.8314  0.8255  0.9635
  797MOL0     H 7546  10.034  10.646   9.536 -3.2768  2.7589 -3.6183
  797MOL0     H 7547   9.961  10.474   9.204  0.9501  1.8116 -0.8190
  797MOL0     H 7548   9.894  10.469   9.366 -0.1668 -0.3176  0.2758
  797MOL0     H 7549   9.809  10.656   9.184 -1.7951 -2.6692  0.5301
  797MOL0     H 7550   9.926  10.754   9.275 -1.1711  0.3247  0.8921
  797MOL0     H 7551   9.786  10.698   9.486 -0.3881 -1.7391  0.0949
  797MOL0     H 7552   9.685  10.586   9.395 -0.9344  0.6406  0.4703
  797MOL0     H 7553   9.619  10.770   9.249 -1.1781 -1.3690  0.5165
  797MOL0     H 7554   9.698  10.878   9.368 -1.3294  0.5032  2.0223
  797MOL0     H 7555   9.297  10.769   9.575 -1.2213  1.0972 -0.5871
  797MOL0     H 7556   9.019  10.997   9.612 -0.7728 -0.7158  0.1057
  797MOL0     H 7557   9.074  10.828   9.599  2.8593 -0.6753  1.8428
  797MOL0     H 7558   9.132  10.934   9.729 -2.5948 -0.3687  0.6068
  797MOL0     H 7559   8.784  11.134   9.574 -0.3313 -0.7502  0.3320
  797MOL0     H 7560   8.610  11.285   9.575  0.2473  1.4401  0.2443
  797MOL0     H 7561   8.460  11.413   9.362 -0.8682  2.5735 -2.0486
  797MOL0     H 7562   8.422  11.434   9.535  1.2467  1.9615  2.4428
  797MOL0     H 7563   8.282  11.585   9.394 -0.2407 -0.9282  0.2242
  797MOL0     H 7564   8.406  11.686   9.469 -1.6154  1.2010 -1.1217
  797MOL0     H 7565   8.383  11.573   9.185  0.1971  1.4588 -1.5765
  797MOL0     H 7566   8.536  11.628   9.245 -0.5646 -4.5419 -1.2234
  797MOL0     H 7567   8.436  11.867   9.244  0.8420  0.8504 -0.8875
  797MOL0     H 7568   8.403  11.791   9.099 -2.5731  0.4543  0.0004
  797MOL0     H 7569   8.190  11.819   9.317 -2.0228 -0.3779 -0.6073
  797MOL0     H 7570   8.172  11.743   9.153 -1.0615 -0.9187  2.5137
  797MOL0     H 7571   8.243  12.038   9.230 -2.0995  1.8227 -0.9248
  797MOL0     H 7572   8.284  11.971   9.077  0.8707 -1.0987  0.2631
  797MOL0     H 7573   8.035  11.922   9.038  0.2238 -2.1027  1.6979
  797MOL0     H 7574   8.079  12.097   9.045 -2.1225  0.3852  0.9663
  797MOL0     H 7575   8.010  12.047   9.315  1.3276 -3.0672  0.4739
  797MOL0     H 7576   7.932  11.910   9.246 -1.9569  1.5751  3.0003
  797MOL0     H 7577   8.828  11.563   9.321  3.8063  1.2159 -0.2073
  797MOL0     H 7578   9.033  11.410   9.342  0.7621  1.5105  2.6723
  797MOL0     H 7579   9.376  11.174   9.298  1.4323 -2.2854 -1.8802
  797MOL0     H 7580   9.526  10.991   9.291  0.1915  0.8967  0.7851
  797MOL0     H 7581  10.076  10.524  10.335  0.6419 -1.8013 -2.5700
  797MOL0     H 7582   9.884  10.650  10.415 -0.6923 -0.4110  1.1233
  797MOL0     H 7583   9.601  11.056  10.407 -1.3938  1.0448  1.0762
  797MOL0     H 7584   9.401  11.165  10.504  2.5159  0.5500  0.0597
  797MOL0     H 7585   9.264  11.181  10.671 -1.2173 -0.2006  3.9143
  797MOL0     H 7586   9.147  11.238  10.549  0.8156  1.8005  1.8004
  797MOL0     H 7587   9.065  11.272  10.775 -2.4797  0.7316 -0.1652
  797MOL0     H 7588   9.091  11.106  10.830  1.4253  1.3710  0.5493
  797MOL0     H 7589   8.916  11.017  10.679  0.0089  0.8099 -1.2288
  797MOL0     H 7590   8.890  11.172  10.589 -1.5055 -1.4623 -0.2808
  797MOL0     H 7591   8.810  11.110  10.870 -0.2936  1.1115  1.3328
  797MOL0     H 7592   8.709  11.130  10.726  1.4034  0.1400 -0.3489
  797MOL0     H 7593   8.775  11.502  10.919  0.7645 -0.5790 -0.5994
  797MOL0     H 7594   9.222  10.783  10.555  1.0998 -2.3062 -1.3507
  797MOL0     H 7595   9.412  10.677  10.453  1.0604 -0.5350  1.5900
  798MOL0     O 7596  10.635   9.259   4.212 -0.7090 -0.2658 -1.0611
  798MOL0     C 7597  10.584   9.318   4.308  0.9281  0.0717  0.4512
  798MOL0     O 7598  10.636   9.441   4.360 -0.5427  1.0746 -0.1592
  798MOL0     C 7599  10.758   9.498   4.321  0.2470 -0.2865 -0.0732
  798MOL0     C 7600  10.861   9.443   4.235  0.2139  0.0770  1.1125
  798MOL0     C 7601  10.979   9.516   4.197  0.9997  0.7123 -0.5300
  798MOL0     C 7602  10.992   9.651   4.241  0.5261  0.5359  0.3378
  798MOL0     O 7603  11.095   9.730   4.199 -0.5386  0.7733 -0.4645
  798MOL0     C 7604  11.172   9.759   4.317  0.8761  1.1590  0.2026
  798MOL0     C 7605  11.304   9.818   4.263 -0.0361 -0.9655 -0.6344
  798MOL0     C 7606  11.282   9.936   4.166 -1.4746 -0.0736 -0.1264
  798MOL0     C 7607  11.211  10.054   4.242  0.5336 -0.3963  0.5059
  798MOL0     C 7608  11.189  10.183   4.159  0.1673 -0.0019  0.1235
  798MOL0     C 7609  11.313  10.250   4.117  0.5858  0.0382  0.0196
  798MOL0     C 7610  11.413  10.291   4.234 -0.3678 -0.0312  0.2269
  798MOL0     C 7611  11.550  10.344   4.174 -0.2508 -0.0452 -0.1172
  798MOL0     N 7612  11.595  10.253   4.075  0.1510 -0.3715 -0.0214
  798MOL0     C 7613  11.586  10.272   3.937 -0.0179 -0.0513  0.0023
  798MOL0     C 7614  11.648  10.162   3.883  0.7647  0.5389 -0.1933
  798MOL0     C 7615  11.667  10.122   3.740  0.6066 -0.1099  0.0170
  798MOL0     C 7616  11.531  10.106   3.670  1.0821 -0.4763  0.8770
  798MOL0     C 7617  11.525  10.035   3.530 -0.1386 -0.6065 -0.6265
  798MOL0     C 7618  11.563  10.126   3.419  1.0150 -0.3925  0.1742
  798MOL0     O 7619  11.453  10.184   3.341  0.0845  0.0979 -0.2849
  798MOL0     C 7620  11.375  10.264   3.420 -0.2707  1.0342  0.6554
  798MOL0     C 7621  11.413  10.379   3.484 -0.6219 -0.4948 -0.3307
  798MOL0     C 7622  11.335  10.460   3.560 -0.6489 -0.2768  0.4149
  798MOL0     C 7623  11.388  10.582   3.623  0.3306  0.0950 -0.2004
  798MOL0     C 7624  11.196  10.429   3.558 -0.2201  0.3672  0.2849
  798MOL0     C 7625  11.092  10.503   3.637 -0.0241  0.0222  0.2366
  798MOL0     O 7626  11.107  10.493   3.772 -0.8823 -0.0100 -0.0285
  798MOL0     C 7627  11.013  10.538   3.862 -0.3705  0.6429 -0.8341
  798MOL0     C 7628  10.955  10.672   3.854 -0.3061  0.7222  0.2097
  798MOL0     C 7629  10.869  10.721   3.950  0.1874 -0.5889 -1.1312
  798MOL0     C 7630  10.818  10.635   4.051 -0.4291 -1.1826 -1.0808
  798MOL0     O 7631  10.726  10.691   4.141  0.2641  0.5266  0.0659
  798MOL0     C 7632  10.788  10.782   4.236 -1.2350 -0.4667  0.8022
  798MOL0     C 7633  10.687  10.854   4.324 -0.5065  1.1075  0.3708
  798MOL0     C 7634  10.625  10.766   4.434  0.3799 -0.4875 -0.4635
  798MOL0     C 7635  10.522  10.664   4.395 -0.3555  0.1537  0.5503
  798MOL0     C 7636  10.441  10.615   4.513 -0.5709 -0.1883  0.5213
  798MOL0     C 7637  10.520  10.519   4.598 -0.6302  0.3514 -0.1519
  798MOL0     C 7638  10.442  10.511   4.729  0.0709  0.0717  1.3636
  798MOL0     C 7639  10.497  10.412   4.845  0.4348  0.0162 -0.2898
  798MOL0    Cl 7640  10.661  10.461   4.892 -0.3086  0.2648 -0.0080
  798MOL0     C 7641  10.883  10.510   4.070 -0.3090 -0.4706  0.1336
  798MOL0     C 7642  10.980  10.461   3.970  0.1061  0.4552  0.4504
  798MOL0     O 7643  10.990  10.555   3.581  0.0918  0.8581 -0.4575
  798MOL0     C 7644  11.151  10.302   3.513  0.0759 -0.1565 -0.1070
  798MOL0     C 7645  11.244  10.219   3.445 -0.3216  0.0802  0.8509
  798MOL0     N 7646  11.688  10.086   3.986 -0.4335 -0.6829 -0.5867
  798MOL0     N 7647  11.656  10.133   4.096  0.3805 -0.5819  0.4926
  798MOL0     C 7648  10.886   9.708   4.318  0.2727  0.3358 -0.4851
  798MOL0     C 7649  10.769   9.629   4.357 -0.2125 -0.9850 -0.8000
  798MOL0     C 7650  10.446   9.275   4.366 -0.7851  0.4182  0.1146
  798MOL0     C 7651  10.370   9.191   4.281  0.2751 -0.9505 -0.6610
  798MOL0     C 7652  10.241   9.160   4.309  0.2088 -0.3192  0.5921
  798MOL0     C 7653  10.193   9.191   4.439  0.2916 -0.6669  0.5793
  798MOL0     O 7654  10.068   9.150   4.488  0.4829 -0.8930 -0.0970
  798MOL0     C 7655   9.989   9.066   4.410  0.0066  0.5588 -0.3072
  798MOL0     C 7656   9.847   9.054   4.453  0.2673 -0.3429 -0.1979
  798MOL0     C 7657   9.829   8.994   4.598 -0.8834 -0.2802 -0.5452
  798MOL0     C 7658   9.679   8.976   4.636 -1.3757 -0.3259 -0.0487
  798MOL0     C 7659   9.623   8.852   4.576 -0.8420 -1.6504  0.3497
  798MOL0     C 7660   9.570   8.751   4.543  0.0541 -0.2655  0.0073
  798MOL0     C 7661  10.277   9.260   4.528  0.7215 -0.5763  0.3322
  798MOL0     C 7662  10.403   9.307   4.496  0.0106 -0.3773  0.7011
  798MOL0     H 7663  10.848   9.351   4.178  0.3187  0.8193 -0.1540
  798MOL0     H 7664  11.062   9.476   4.138  0.3910 -0.1680 -0.8028
  798MOL0     H 7665  11.129   9.822   4.396  1.0460 -1.8890  2.9555
  798MOL0     H 7666  11.214   9.674   4.372  1.1265  1.2021  0.0816
  798MOL0     H 7667  11.367   9.855   4.344 -0.9937  3.8045 -1.7241
  798MOL0     H 7668  11.361   9.738   4.215  1.5840  0.4693 -1.2256
  798MOL0     H 7669  11.379   9.972   4.129 -2.5575  2.4277 -0.7155
  798MOL0     H 7670  11.226   9.891   4.084 -1.9264 -1.6036  0.9616
  798MOL0     H 7671  11.116  10.020   4.283  1.9248 -1.5720  2.9775
  798MOL0     H 7672  11.273  10.073   4.331  1.3470  0.3360 -0.1910
  798MOL0     H 7673  11.125  10.172   4.072  1.5680  3.5803 -1.5842
  798MOL0     H 7674  11.138  10.251   4.229  2.6122  0.7059  1.3438
  798MOL0     H 7675  11.355  10.173   4.051 -0.0410  0.5762 -1.0304
  798MOL0     H 7676  11.277  10.336   4.061 -2.1242  0.2346  1.8452
  798MOL0     H 7677  11.355  10.371   4.282  0.3027 -0.5926  2.0743
  798MOL0     H 7678  11.435  10.212   4.307  1.3974 -0.4940 -0.7659
  798MOL0     H 7679  11.629  10.358   4.249  0.4973  0.0313 -0.9015
  798MOL0     H 7680  11.539  10.440   4.123 -1.2488 -0.7910 -1.3621
  798MOL0     H 7681  11.555  10.362   3.884 -0.9577  0.4144  1.2861
  798MOL0     H 7682  11.717  10.202   3.685 -2.4357  0.4272 -2.2789
  798MOL0     H 7683  11.725  10.030   3.734 -1.4104 -1.3870 -1.4121
  798MOL0     H 7684  11.483  10.204   3.664  0.9910 -0.5923 -2.1571
  798MOL0     H 7685  11.471  10.051   3.743 -0.1711 -0.3781 -0.0417
  798MOL0     H 7686  11.424   9.996   3.517  0.2469 -1.0166 -2.8528
  798MOL0     H 7687  11.596   9.952   3.531  3.9296  2.5609  0.8825
  798MOL0     H 7688  11.618  10.071   3.342 -0.4821  0.1397 -1.3469
  798MOL0     H 7689  11.632  10.201   3.459  1.3420 -1.4992  1.7551
  798MOL0     H 7690  11.513  10.409   3.456 -0.2464 -0.7806  0.6955
  798MOL0     H 7691  11.481  10.626   3.587 -0.5038  0.1369 -2.4877
  798MOL0     H 7692  11.315  10.663   3.618  0.6599  0.3170 -2.8819
  798MOL0     H 7693  11.401  10.560   3.729  0.9224  0.0540 -0.2779
  798MOL0     H 7694  10.972  10.742   3.773  1.1273  1.0545  0.7627
  798MOL0     H 7695  10.822  10.819   3.955  1.3426 -0.0797  0.6560
  798MOL0     H 7696  10.869  10.735   4.293 -1.6358 -1.3476  0.6706
  798MOL0     H 7697  10.847  10.862   4.191  1.1234 -1.0064  2.7047
  798MOL0     H 7698  10.745  10.933   4.373  0.6921  0.7636 -0.4496
  798MOL0     H 7699  10.603  10.897   4.269  0.5424  1.7894 -0.7453
  798MOL0     H 7700  10.581  10.832   4.508  0.9261  0.6620 -1.1304
  798MOL0     H 7701  10.711  10.718   4.482  0.0619  1.5422  2.3522
  798MOL0     H 7702  10.450  10.717   4.331 -2.1594 -2.0978  0.5561
  798MOL0     H 7703  10.569  10.582   4.341  0.3694  1.0398 -0.1909
  798MOL0     H 7704  10.348  10.568   4.478 -1.4781 -0.0688  2.6205
  798MOL0     H 7705  10.406  10.702   4.569 -2.8358  0.1178 -1.1781
  798MOL0     H 7706  10.536  10.423   4.547  1.1237  1.4472 -1.8151
  798MOL0     H 7707  10.621  10.556   4.615  0.0151 -1.0392 -0.8185
  798MOL0     H 7708  10.352  10.455   4.703  1.5579 -1.5069 -0.7146
  798MOL0     H 7709  10.423  10.614   4.762  1.7107  0.8962 -0.0887
  798MOL0     H 7710  10.500  10.312   4.802 -2.6829  0.4040 -1.6445
  798MOL0     H 7711  10.424  10.427   4.925  0.7299  1.4729 -0.2579
  798MOL0     H 7712  10.855  10.454   4.158  0.3076  0.2174  0.7782
  798MOL0     H 7713  11.021  10.362   3.988 -0.4211 -0.0576 -0.9839
  798MOL0     H 7714  11.046  10.283   3.534  0.5042 -0.6313  1.7689
  798MOL0     H 7715  11.216  10.120   3.412  0.1642  0.1025  0.3573
  798MOL0     H 7716  10.882   9.807   4.361 -2.5327 -0.6918  1.8853
  798MOL0     H 7717  10.705   9.675   4.432 -0.0444 -1.6303 -0.2465
  798MOL0     H 7718  10.404   9.178   4.179  1.3905  3.3138 -1.0186
  798MOL0     H 7719  10.169   9.110   4.246 -1.3507  1.5818  0.7541
  798MOL0     H 7720   9.984   9.093   4.304  0.9393 -0.0424 -0.5131
  798MOL0     H 7721  10.041   8.970   4.415  0.5610  0.8824  0.1134
  798MOL0     H 7722   9.787   9.006   4.375  1.4703  2.5790 -3.1284
  798MOL0     H 7723   9.805   9.155   4.456  1.3807  0.1442  2.8385
  798MOL0     H 7724   9.881   9.065   4.663 -0.9498 -1.2279  0.5937
  798MOL0     H 7725   9.880   8.897   4.608 -2.7678 -1.1001  2.5315
  798MOL0     H 7726   9.617   9.063   4.614  1.9942  1.5551 -3.1713
  798MOL0     H 7727   9.678   8.962   4.745  0.4264  1.2625  0.2183
  798MOL0     H 7728   9.509   8.671   4.505 -2.0567  0.9135  0.7351
  798MOL0     H 7729  10.239   9.278   4.629  2.7080  3.2453  0.5514
  798MOL0     H 7730  10.461   9.373   4.559  0.8980 -0.6281  0.1734
  799MOL0     O 7731   9.234   8.939   4.906 -0.7850 -0.1669  0.1445
  799MOL0     C 7732   9.309   8.852   4.873 -0.6470 -0.1982  0.2584
  799MOL0     O 7733   9.437   8.841   4.927 -0.6087  0.6707 -0.0616
  799MOL0     C 7734   9.479   8.926   5.028 -0.2878 -0.8387  0.1166
  799MOL0     C 7735   9.525   8.886   5.153  0.6581  0.1955 -0.5962
  799MOL0     C 7736   9.578   8.980   5.242 -0.3732  0.0434 -0.7494
  799MOL0     C 7737   9.584   9.117   5.203  0.1062  0.8938  0.2585
  799MOL0     O 7738   9.626   9.219   5.285 -0.0029  0.3263 -0.4686
  799MOL0     C 7739   9.579   9.217   5.422  0.3305  0.2053 -0.6295
  799MOL0     C 7740   9.426   9.263   5.445  0.4137  0.4146  0.3414
  799MOL0     C 7741   9.325   9.152   5.419 -0.3506  0.6749  1.0316
  799MOL0     C 7742   9.178   9.190   5.446 -0.0069 -0.1588  0.5469
  799MOL0     C 7743   9.076   9.074   5.429 -0.1075 -1.3994 -1.1762
  799MOL0     C 7744   9.081   8.970   5.534 -0.3709 -0.3216  0.8428
  799MOL0     C 7745   9.024   9.026   5.670  1.1055 -0.2027 -0.4774
  799MOL0     C 7746   8.974   8.913   5.754 -0.1171 -0.6598  0.1698
  799MOL0     N 7747   8.850   8.853   5.708  0.1862 -0.8355  0.9414
  799MOL0     C 7748   8.829   8.734   5.658  0.4323  1.2437 -0.4688
  799MOL0     C 7749   8.698   8.722   5.629 -0.6543 -0.0270  0.9379
  799MOL0     C 7750   8.613   8.612   5.578 -0.2892  0.4008 -0.7341
  799MOL0     C 7751   8.578   8.518   5.695  1.9716 -0.4856 -0.6393
  799MOL0     C 7752   8.652   8.388   5.674  1.1381 -0.3736  0.1632
  799MOL0     C 7753   8.674   8.314   5.804 -0.6562  0.4802 -0.4023
  799MOL0     O 7754   8.765   8.210   5.774 -1.2926  0.2046 -0.6918
  799MOL0     C 7755   8.725   8.098   5.825 -0.2560  0.3774  0.5731
  799MOL0     C 7756   8.740   8.076   5.965 -0.3259  0.0027 -0.2863
  799MOL0     C 7757   8.678   7.965   6.023 -0.3483  0.5773  0.2528
  799MOL0     C 7758   8.680   7.973   6.176  0.6415  0.0398 -0.0601
  799MOL0     C 7759   8.601   7.866   5.950  0.2697  0.0776  0.0159
  799MOL0     C 7760   8.535   7.747   6.015  0.2992 -0.3960  0.4339
  799MOL0     O 7761   8.447   7.697   5.929  0.6014  0.3941  0.3404
  799MOL0     C 7762   8.407   7.565   5.942  0.3263 -0.0329  0.0574
  799MOL0     C 7763   8.321   7.537   5.834  0.2168  0.4211 -0.1321
  799MOL0     C 7764   8.255   7.419   5.820 -0.4201  0.0083 -0.0020
  799MOL0     C 7765   8.262   7.324   5.928  0.3807  0.2192 -0.3897
  799MOL0     O 7766   8.185   7.213   5.917 -0.4597  0.1515  0.2302
  799MOL0     C 7767   8.253   7.084   5.935 -0.3644 -0.7995  0.1632
  799MOL0     C 7768   8.161   6.986   5.864  0.5998 -0.1420 -0.2777
  799MOL0     C 7769   8.162   6.846   5.927  0.3694  0.3130 -0.0619
  799MOL0     C 7770   8.271   6.756   5.873 -0.9497  0.1210 -0.9630
  799MOL0     C 7771   8.294   6.747   5.720  0.3357  0.7680 -0.1456
  799MOL0     C 7772   8.424   6.674   5.683 -0.4136  0.6956  0.1406
  799MOL0     C 7773   8.420   6.620   5.533  0.0056 -0.3066 -0.2746
  799MOL0     C 7774   8.373   6.720   5.438  0.4589 -1.1237  0.6388
  799MOL0    Cl 7775   8.425   6.681   5.272 -0.1130 -0.2131 -0.3172
  799MOL0     C 7776   8.349   7.351   6.039  0.0968  0.5759  0.1054
  799MOL0     C 7777   8.419   7.475   6.048 -0.7648  0.1764  0.1550
  799MOL0     O 7778   8.564   7.705   6.127  0.9333 -0.1293  0.0896
  799MOL0     C 7779   8.603   7.888   5.811  0.6365  0.3385  0.8655
  799MOL0     C 7780   8.664   7.997   5.752  0.0688  0.8226  0.7948
  799MOL0     N 7781   8.637   8.840   5.661 -0.0917 -0.1780 -0.4985
  799MOL0     N 7782   8.732   8.917   5.692 -0.2530  0.0868 -0.4692
  799MOL0     C 7783   9.522   9.151   5.079 -0.3878  1.3113 -0.1993
  799MOL0     C 7784   9.483   9.061   4.993  0.7971  0.0776  0.3417
  799MOL0     C 7785   9.261   8.740   4.789  0.1283  0.3425 -0.4866
  799MOL0     C 7786   9.127   8.731   4.748  0.2960 -0.4166 -0.7667
  799MOL0     C 7787   9.080   8.618   4.677  0.1636  0.3528  0.0140
  799MOL0     C 7788   9.164   8.506   4.673 -0.0425 -0.2224 -1.2958
  799MOL0     O 7789   9.112   8.393   4.610  0.0628 -0.5159 -0.6700
  799MOL0     C 7790   9.165   8.262   4.630  0.1081 -1.1800  0.0761
  799MOL0     C 7791   9.046   8.164   4.634 -0.3067 -0.5925 -0.8369
  799MOL0     C 7792   9.070   8.074   4.521 -0.2521  0.2116  0.0527
  799MOL0     C 7793   8.967   7.959   4.531  1.4011 -0.3327 -0.2153
  799MOL0     C 7794   8.978   7.870   4.645 -0.4319 -0.4310 -0.6107
  799MOL0     C 7795   8.993   7.795   4.740 -0.0761 -1.0518  1.0609
  799MOL0     C 7796   9.293   8.512   4.707  0.2603 -0.1866 -0.2574
  799MOL0     C 7797   9.343   8.627   4.772 -0.3792 -0.6359  0.3571
  799MOL0     H 7798   9.522   8.780   5.174  1.5321  0.0671 -1.0545
  799MOL0     H 7799   9.620   8.950   5.338 -1.2893 -1.8381 -0.8906
  799MOL0     H 7800   9.581   9.118   5.469 -0.1587  2.0839  3.9372
  799MOL0     H 7801   9.640   9.283   5.484 -0.9778 -1.5234  2.8046
  799MOL0     H 7802   9.427   9.298   5.548 -0.7241 -0.9211  0.8359
  799MOL0     H 7803   9.389   9.350   5.390 -0.0846  0.6774  1.0919
  799MOL0     H 7804   9.349   9.125   5.315  1.2719 -0.9383  1.7582
  799MOL0     H 7805   9.351   9.067   5.482 -0.5311 -0.3638 -0.2406
  799MOL0     H 7806   9.175   9.224   5.549 -2.2708  1.1250  0.1096
  799MOL0     H 7807   9.129   9.262   5.379 -0.6039  0.5148  1.6864
  799MOL0     H 7808   8.976   9.118   5.431 -0.5227 -2.3089  0.0996
  799MOL0     H 7809   9.100   9.034   5.331  2.0680 -0.2393 -1.1679
  799MOL0     H 7810   9.034   8.880   5.494  2.0760  0.5065 -4.7334
  799MOL0     H 7811   9.185   8.938   5.540 -0.6017 -1.6627 -1.3973
  799MOL0     H 7812   9.101   9.086   5.720  0.5372 -0.6093  0.9385
  799MOL0     H 7813   8.945   9.100   5.653  1.3513 -0.5181 -3.4408
  799MOL0     H 7814   8.955   8.944   5.857  0.3870 -0.5320  0.2271
  799MOL0     H 7815   9.054   8.842   5.778  3.9126  2.8240 -1.6141
  799MOL0     H 7816   8.898   8.652   5.639 -1.4812 -0.2716 -1.1880
  799MOL0     H 7817   8.515   8.652   5.551 -1.2652  0.8155  2.8969
  799MOL0     H 7818   8.646   8.557   5.489  0.7067 -0.8442  0.3830
  799MOL0     H 7819   8.472   8.494   5.699  2.5500 -3.1656  1.0441
  799MOL0     H 7820   8.618   8.568   5.784  2.7262 -1.5019 -0.3873
  799MOL0     H 7821   8.748   8.404   5.624  0.0290  0.6313 -1.7992
  799MOL0     H 7822   8.592   8.324   5.608  0.9949 -1.2496  1.1273
  799MOL0     H 7823   8.580   8.278   5.845 -0.2837 -0.2661 -0.1936
  799MOL0     H 7824   8.719   8.377   5.881  1.1669  0.2471 -1.2253
  799MOL0     H 7825   8.791   8.151   6.024  0.3765 -1.2994  0.8265
  799MOL0     H 7826   8.684   8.071   6.225  1.6244 -0.7465  1.5064
  799MOL0     H 7827   8.590   7.926   6.217  0.9191 -0.4361  0.0160
  799MOL0     H 7828   8.765   7.907   6.194 -0.1686 -1.3498 -1.1068
  799MOL0     H 7829   8.290   7.613   5.764 -1.0709 -1.1268 -1.3157
  799MOL0     H 7830   8.181   7.418   5.741 -0.9023  3.0603  0.3083
  799MOL0     H 7831   8.351   7.083   5.886 -0.9114 -2.0196 -0.9809
  799MOL0     H 7832   8.264   7.069   6.042 -2.6967  0.0322  0.5822
  799MOL0     H 7833   8.059   7.024   5.877  1.0634  0.5693  1.5247
  799MOL0     H 7834   8.187   6.997   5.758  4.8814  0.2466  0.6454
  799MOL0     H 7835   8.069   6.800   5.890 -2.1802  4.0254  1.1539
  799MOL0     H 7836   8.151   6.835   6.035  1.9762 -2.6256 -0.1084
  799MOL0     H 7837   8.370   6.775   5.917 -0.9601  0.0575 -0.9098
  799MOL0     H 7838   8.247   6.652   5.897  0.6660 -0.1989 -0.6223
  799MOL0     H 7839   8.285   6.849   5.679 -0.0069  0.5907 -0.5216
  799MOL0     H 7840   8.210   6.685   5.687  2.1235 -0.5038 -2.5598
  799MOL0     H 7841   8.515   6.735   5.690  1.2338 -1.7855  1.5684
  799MOL0     H 7842   8.435   6.586   5.746  2.9815 -0.9317 -2.4016
  799MOL0     H 7843   8.355   6.533   5.522  3.2184 -2.8946 -0.0531
  799MOL0     H 7844   8.520   6.586   5.504  0.1593 -1.0776  1.0538
  799MOL0     H 7845   8.417   6.815   5.469 -2.5719  1.3288 -1.8749
  799MOL0     H 7846   8.264   6.730   5.441  0.4471  0.9215 -2.2677
  799MOL0     H 7847   8.377   7.273   6.109 -3.0242 -0.7722  0.0276
  799MOL0     H 7848   8.467   7.502   6.142  0.4913  2.4348 -1.0587
  799MOL0     H 7849   8.559   7.819   5.741  2.5943 -0.2642  0.1678
  799MOL0     H 7850   8.647   8.015   5.646  0.3893  0.3614  0.6637
  799MOL0     H 7851   9.517   9.258   5.059  0.6982  1.0642 -1.9949
  799MOL0     H 7852   9.433   9.098   4.904 -1.9991 -0.7254  1.4504
  799MOL0     H 7853   9.057   8.810   4.775  2.6431  1.1248  1.2593
  799MOL0     H 7854   8.978   8.622   4.641 -0.0710 -1.1935  0.4648
  799MOL0     H 7855   9.236   8.238   4.550 -0.2006  1.6996 -1.1707
  799MOL0     H 7856   9.220   8.265   4.724 -0.0573  0.7664  0.1364
  799MOL0     H 7857   8.953   8.220   4.618 -1.0768 -2.5471 -4.3412
  799MOL0     H 7858   9.046   8.119   4.733 -1.4871 -1.7226 -1.3150
  799MOL0     H 7859   9.161   8.016   4.501 -1.7115 -1.8436 -1.0775
  799MOL0     H 7860   9.048   8.134   4.432 -0.4255 -1.4892 -1.0906
  799MOL0     H 7861   8.993   7.889   4.451 -0.2961 -0.4200 -0.7408
  799MOL0     H 7862   8.862   7.989   4.527  1.2698 -0.6596  0.6307
  799MOL0     H 7863   9.026   7.725   4.814  0.4452  2.3905  4.3301
  799MOL0     H 7864   9.364   8.431   4.692  1.6774  0.3261  2.7864
  799MOL0     H 7865   9.446   8.605   4.799 -1.0071 -2.8117  1.1868
  800MOL0     O 7866   6.978   4.383   6.746 -0.3197  0.4868  0.0456
  800MOL0     C 7867   6.873   4.436   6.762  0.6295 -0.1569 -0.7143
  800MOL0     O 7868   6.798   4.421   6.883  0.0601 -0.2049 -0.0978
  800MOL0     C 7869   6.837   4.353   6.997 -0.6120 -0.0131 -0.2629
  800MOL0     C 7870   6.780   4.392   7.122  0.5411 -0.0371  0.3093
  800MOL0     C 7871   6.810   4.327   7.239 -0.9449  0.4914 -0.2406
  800MOL0     C 7872   6.895   4.213   7.242 -0.2348 -0.3435 -0.3803
  800MOL0     O 7873   6.920   4.151   7.370  0.5879 -0.2849  1.1517
  800MOL0     C 7874   7.036   4.076   7.374  0.0412  0.1509 -0.0023
  800MOL0     C 7875   7.083   4.040   7.515  0.2535  0.9697  0.4028
  800MOL0     C 7876   7.201   3.934   7.512  0.1140  0.4033  0.8155
  800MOL0     C 7877   7.226   3.884   7.656  0.5415  0.1678  0.4338
  800MOL0     C 7878   7.349   3.781   7.661  0.3082 -0.3584 -0.4675
  800MOL0     C 7879   7.379   3.757   7.812  0.1440 -1.0813  0.0262
  800MOL0     C 7880   7.483   3.654   7.838  0.5497 -0.0358  0.3219
  800MOL0     C 7881   7.531   3.640   7.991 -0.0058 -0.3341  0.1025
  800MOL0     N 7882   7.649   3.722   8.015  0.0861  0.1432  0.4112
  800MOL0     C 7883   7.776   3.694   8.063 -0.5380 -0.9527  0.0177
  800MOL0     C 7884   7.846   3.811   8.088 -0.4716 -0.2100  0.1564
  800MOL0     C 7885   7.992   3.826   8.116  0.8985  0.0961 -0.2623
  800MOL0     C 7886   8.025   3.799   8.270  0.1090  0.0224  0.7932
  800MOL0     C 7887   7.967   3.913   8.367 -0.0160  0.6182  1.2245
  800MOL0     C 7888   7.992   4.061   8.322  0.2273 -0.2645  0.3486
  800MOL0     O 7889   8.137   4.077   8.315  1.1673 -1.4335  0.0289
  800MOL0     C 7890   8.189   4.203   8.289  0.4432  0.3888  0.1494
  800MOL0     C 7891   8.333   4.206   8.286  0.3509 -0.8504 -0.3273
  800MOL0     C 7892   8.408   4.318   8.258 -0.2272  0.8091 -0.3845
  800MOL0     C 7893   8.560   4.295   8.271 -0.6855 -0.0691 -0.0380
  800MOL0     C 7894   8.334   4.438   8.227  0.6050 -0.4204  0.8254
  800MOL0     C 7895   8.400   4.561   8.190 -0.3004 -0.7227  0.3217
  800MOL0     O 7896   8.341   4.676   8.242  0.6420 -0.3384  0.0350
  800MOL0     C 7897   8.398   4.799   8.244  0.8160 -0.6642 -0.4936
  800MOL0     C 7898   8.539   4.815   8.255 -0.4038 -0.6145  0.0571
  800MOL0     C 7899   8.603   4.935   8.246  0.1541  0.3959  0.0681
  800MOL0     C 7900   8.533   5.061   8.241  0.7115  0.6536  0.3988
  800MOL0     O 7901   8.597   5.179   8.223 -0.4732  0.3379  0.1900
  800MOL0     C 7902   8.730   5.190   8.269 -0.4904  0.1553 -0.4746
  800MOL0     C 7903   8.841   5.144   8.167 -0.0692  0.6708  0.4836
  800MOL0     C 7904   8.861   5.262   8.051 -0.0199  0.3731  0.3057
  800MOL0     C 7905   8.996   5.234   7.978 -0.3362 -0.0740  0.8664
  800MOL0     C 7906   9.025   5.354   7.888 -0.2249  0.1246 -0.4098
  800MOL0     C 7907   9.142   5.336   7.786 -0.3797 -0.4397  0.6420
  800MOL0     C 7908   9.279   5.332   7.848  0.0036 -0.1707 -0.0228
  800MOL0     C 7909   9.394   5.320   7.747 -0.4960  0.7617  0.7309
  800MOL0    Cl 7910   9.432   5.471   7.668  0.3638  0.1712 -0.0386
  800MOL0     C 7911   8.393   5.043   8.236  1.3133  0.7321  0.7962
  800MOL0     C 7912   8.325   4.925   8.236 -0.5431  0.0240 -0.0695
  800MOL0     O 7913   8.496   4.561   8.112  0.5236  0.0668 -0.8168
  800MOL0     C 7914   8.192   4.427   8.224  0.4266 -0.5934 -0.7050
  800MOL0     C 7915   8.125   4.316   8.269 -0.0061 -0.5435  0.0777
  800MOL0     N 7916   7.750   3.910   8.067  0.0492  0.2900  0.3802
  800MOL0     N 7917   7.643   3.855   8.015  0.4109  0.1975 -0.7657
  800MOL0     C 7918   6.925   4.160   7.116 -0.4939  0.1744 -0.2263
  800MOL0     C 7919   6.901   4.228   6.995 -0.2443  0.1926  0.1768
  800MOL0     C 7920   6.802   4.517   6.661  0.4675 -0.5848  0.5089
  800MOL0     C 7921   6.671   4.566   6.677  0.5289 -0.0419  0.4869
  800MOL0     C 7922   6.619   4.657   6.584 -0.2173 -0.0385 -0.5029
  800MOL0     C 7923   6.697   4.704   6.477 -0.3804  0.4977  0.3037
  800MOL0     O 7924   6.650   4.800   6.395 -0.3671  0.4321  0.7474
  800MOL0     C 7925   6.519   4.861   6.406 -0.4052  0.1328 -0.3731
  800MOL0     C 7926   6.502   5.000   6.340  0.3383  0.4114  0.7718
  800MOL0     C 7927   6.566   5.007   6.200 -0.3981  0.1446 -0.3715
  800MOL0     C 7928   6.525   5.129   6.110 -0.0621 -0.6835  0.3152
  800MOL0     C 7929   6.588   5.252   6.157  0.4735 -0.5633  0.3944
  800MOL0     C 7930   6.655   5.349   6.169  0.3263  0.0028  0.3274
  800MOL0     C 7931   6.834   4.653   6.458  0.3314 -0.2374  0.3038
  800MOL0     C 7932   6.874   4.564   6.547  0.6516 -0.6762  0.1145
  800MOL0     H 7933   6.706   4.471   7.130  0.2768  0.1145 -2.6092
  800MOL0     H 7934   6.768   4.359   7.334  1.8069 -1.4843  1.7984
  800MOL0     H 7935   7.016   3.980   7.325 -1.7934 -0.1151  1.1456
  800MOL0     H 7936   7.110   4.135   7.321 -0.6087  1.1102  0.1355
  800MOL0     H 7937   7.126   4.121   7.575 -0.1749  0.1650  1.8556
  800MOL0     H 7938   6.992   4.004   7.564 -0.4725  1.4123 -0.5958
  800MOL0     H 7939   7.186   3.848   7.446  1.0731 -0.2094  1.3685
  800MOL0     H 7940   7.282   3.991   7.467  0.9884 -0.6439  1.0031
  800MOL0     H 7941   7.247   3.963   7.729  0.0855  0.9217 -0.2387
  800MOL0     H 7942   7.134   3.830   7.682  0.5496 -0.8316 -1.4669
  800MOL0     H 7943   7.311   3.687   7.620  0.3506 -0.0690 -1.1779
  800MOL0     H 7944   7.438   3.818   7.608  0.6453  0.0013  0.3276
  800MOL0     H 7945   7.415   3.853   7.849 -1.8957 -0.1691 -0.2171
  800MOL0     H 7946   7.287   3.739   7.869  1.3645 -1.1753  2.0649
  800MOL0     H 7947   7.460   3.557   7.793  0.3028 -0.3781  1.1672
  800MOL0     H 7948   7.577   3.679   7.789  0.6950 -2.0624 -0.5280
  800MOL0     H 7949   7.558   3.537   8.016 -0.3481 -0.3463  0.4307
  800MOL0     H 7950   7.455   3.680   8.059 -0.4440 -0.1983 -0.4612
  800MOL0     H 7951   7.818   3.595   8.077  1.8224 -0.2491 -1.5543
  800MOL0     H 7952   8.041   3.761   8.042 -0.4869  1.6376 -2.6691
  800MOL0     H 7953   8.022   3.930   8.097 -1.3378  1.0025  0.8536
  800MOL0     H 7954   8.132   3.791   8.290  1.3820 -0.7997 -4.7380
  800MOL0     H 7955   7.998   3.700   8.307  4.4511 -0.7509  2.4261
  800MOL0     H 7956   8.019   3.917   8.462  1.3252  0.6998  0.5064
  800MOL0     H 7957   7.863   3.885   8.388  0.4292 -1.9985  0.2819
  800MOL0     H 7958   7.943   4.129   8.392 -2.5613 -2.7013  0.9475
  800MOL0     H 7959   7.943   4.086   8.228 -1.5857  2.1448  1.8335
  800MOL0     H 7960   8.383   4.110   8.298 -0.3809 -1.2850 -0.7274
  800MOL0     H 7961   8.580   4.191   8.298 -2.0389 -0.8487 -1.8606
  800MOL0     H 7962   8.612   4.327   8.181  1.8228  0.0308  1.3469
  800MOL0     H 7963   8.603   4.342   8.361 -2.0459  0.7240  0.2155
  800MOL0     H 7964   8.603   4.729   8.268 -1.7431 -1.6206  0.2189
  800MOL0     H 7965   8.711   4.929   8.247  0.3637 -1.0299 -4.8293
  800MOL0     H 7966   8.751   5.291   8.306  2.2352 -0.1051 -1.0544
  800MOL0     H 7967   8.749   5.134   8.362  0.2162  1.0687 -0.0533
  800MOL0     H 7968   8.937   5.135   8.218  0.4731 -1.5906 -0.7882
  800MOL0     H 7969   8.810   5.055   8.110 -3.1362  1.6177  0.4540
  800MOL0     H 7970   8.871   5.355   8.109 -0.4900  1.4341 -1.2562
  800MOL0     H 7971   8.772   5.272   7.989 -0.6503  1.6303  1.3544
  800MOL0     H 7972   9.079   5.232   8.050  0.5343  3.3683  0.1423
  800MOL0     H 7973   8.993   5.148   7.910  0.3756  0.5912 -0.0309
  800MOL0     H 7974   9.049   5.437   7.955  0.8876 -3.3865  4.0303
  800MOL0     H 7975   8.936   5.373   7.828 -1.1647 -2.8126 -0.1380
  800MOL0     H 7976   9.119   5.245   7.730  1.0001 -1.3986  1.5679
  800MOL0     H 7977   9.144   5.417   7.713 -0.4355 -0.8725  0.1546
  800MOL0     H 7978   9.278   5.249   7.920  3.6663 -0.2037  0.1956
  800MOL0     H 7979   9.304   5.417   7.912  0.6927 -1.5492  1.6537
  800MOL0     H 7980   9.364   5.238   7.682  1.5360 -0.7368  1.5607
  800MOL0     H 7981   9.484   5.301   7.806  1.4789  4.2436 -0.8409
  800MOL0     H 7982   8.331   5.132   8.236  0.4858  0.1646  0.5536
  800MOL0     H 7983   8.219   4.906   8.226 -0.5444  0.0367 -0.0783
  800MOL0     H 7984   8.135   4.516   8.200  0.0995 -1.0415 -1.6336
  800MOL0     H 7985   8.017   4.323   8.272  0.0674  0.6063  0.6223
  800MOL0     H 7986   6.968   4.062   7.099  0.3388  0.3525  0.7879
  800MOL0     H 7987   6.919   4.189   6.895 -0.4319  0.2444  0.1220
  800MOL0     H 7988   6.600   4.546   6.757 -0.6707 -0.4261 -0.6452
  800MOL0     H 7989   6.526   4.705   6.612 -0.8531 -1.6504  0.2595
  800MOL0     H 7990   6.449   4.789   6.364 -0.0714  0.2953 -1.2353
  800MOL0     H 7991   6.495   4.879   6.511  0.0817 -2.4335  0.2397
  800MOL0     H 7992   6.552   5.075   6.402  3.3403 -0.9464  0.1562
  800MOL0     H 7993   6.400   5.040   6.338  1.3421  3.2889 -1.4587
  800MOL0     H 7994   6.533   4.914   6.154 -2.0389 -0.6222  2.1568
  800MOL0     H 7995   6.675   5.011   6.201 -0.4026  1.3410 -1.6795
  800MOL0     H 7996   6.416   5.130   6.117 -0.1822 -1.5554 -1.0186
  800MOL0     H 7997   6.545   5.115   6.003 -1.9251 -1.5615  0.0507
  800MOL0     H 7998   6.697   5.448   6.174 -1.9727  1.0238  0.5380
  800MOL0     H 7999   6.894   4.689   6.375  0.3035 -2.1255 -0.5827
  800MOL0     H 8000   6.962   4.509   6.517  0.7861  0.7878 -2.3685
  801MOL0     O 8001   9.558   7.525   2.542  0.3059  0.6826  0.5206
  801MOL0     C 8002   9.590   7.442   2.630 -0.7784 -0.6881 -0.5423
  801MOL0     O 8003   9.569   7.310   2.626 -0.6254 -0.1951 -0.2814
  801MOL0     C 8004   9.488   7.248   2.540  0.0119  0.6647 -0.8019
  801MOL0     C 8005   9.359   7.297   2.516  0.4234  0.3999  1.0460
  801MOL0     C 8006   9.276   7.237   2.421 -0.1524 -0.1970  0.2755
  801MOL0     C 8007   9.329   7.151   2.333 -0.2442 -0.1151  0.9592
  801MOL0     O 8008   9.249   7.108   2.225  0.6490  0.4339  0.7043
  801MOL0     C 8009   9.255   7.211   2.129  0.3038  0.7822 -0.7936
  801MOL0     C 8010   9.152   7.175   2.021 -0.6703  0.0545  0.9677
  801MOL0     C 8011   9.011   7.183   2.084  0.4198  0.5280 -0.3877
  801MOL0     C 8012   8.918   7.086   2.017 -0.6888 -0.6244  0.8306
  801MOL0     C 8013   8.768   7.111   2.070  0.1153 -0.2875  0.2354
  801MOL0     C 8014   8.750   7.060   2.216 -1.0188 -0.2767 -0.6120
  801MOL0     C 8015   8.607   7.063   2.244 -0.6582 -0.4978  0.5741
  801MOL0     C 8016   8.574   7.047   2.391 -0.2590  0.6428  0.2213
  801MOL0     N 8017   8.427   7.058   2.423 -0.2512 -0.7219 -0.0486
  801MOL0     C 8018   8.370   7.129   2.522 -0.0306  0.1665 -0.2142
  801MOL0     C 8019   8.242   7.089   2.533  0.7765 -0.2811  0.3864
  801MOL0     C 8020   8.151   7.137   2.648 -0.5744 -0.6930  0.5531
  801MOL0     C 8021   8.042   7.229   2.610  0.7079 -1.0594  0.2715
  801MOL0     C 8022   8.091   7.370   2.565  0.0771 -0.2921 -0.0344
  801MOL0     C 8023   8.138   7.451   2.684  0.2397  0.1273  0.5708
  801MOL0     O 8024   8.035   7.456   2.788  0.2170 -0.6972  0.2916
  801MOL0     C 8025   8.076   7.474   2.919 -0.4339 -0.6623  0.2241
  801MOL0     C 8026   8.021   7.402   3.021  0.7219  0.8587  0.5739
  801MOL0     C 8027   8.065   7.415   3.150  1.1861 -0.2176 -0.6082
  801MOL0     C 8028   7.999   7.327   3.250 -0.0121  0.0244  0.1283
  801MOL0     C 8029   8.170   7.504   3.193  0.9318 -0.0268 -0.8524
  801MOL0     C 8030   8.218   7.529   3.335  1.2516  1.0265  0.4842
  801MOL0     O 8031   8.299   7.640   3.352 -0.0429  0.1396  0.1964
  801MOL0     C 8032   8.332   7.674   3.487 -0.3814  0.2209  0.2548
  801MOL0     C 8033   8.264   7.779   3.545  1.5415 -0.4282  0.5330
  801MOL0     C 8034   8.303   7.823   3.669 -0.0031  0.6248 -1.0128
  801MOL0     C 8035   8.396   7.743   3.740  0.0185 -0.2116 -0.6165
  801MOL0     O 8036   8.447   7.764   3.866 -0.1070  0.3265  0.2348
  801MOL0     C 8037   8.472   7.906   3.898  0.2728  0.1087  0.4062
  801MOL0     C 8038   8.549   7.934   4.016 -0.1077  0.3873  0.7009
  801MOL0     C 8039   8.581   8.083   4.026  0.2554 -0.6893 -0.0621
  801MOL0     C 8040   8.454   8.166   4.047 -0.2109 -0.0597  0.2628
  801MOL0     C 8041   8.503   8.305   4.074  0.3594 -0.1473 -0.5844
  801MOL0     C 8042   8.387   8.400   4.070  1.5424 -0.3484 -0.2306
  801MOL0     C 8043   8.267   8.384   4.176  0.1779 -0.2680 -0.0564
  801MOL0     C 8044   8.302   8.376   4.327  0.0976  0.9070 -0.3284
  801MOL0    Cl 8045   8.383   8.527   4.377 -0.0242 -0.7302  0.7288
  801MOL0     C 8046   8.449   7.624   3.688  0.9567 -0.3620  0.2590
  801MOL0     C 8047   8.422   7.591   3.556  0.4052 -0.3405 -0.3180
  801MOL0     O 8048   8.189   7.450   3.425  0.0503 -0.1930 -0.6398
  801MOL0     C 8049   8.208   7.581   3.089  0.0499 -0.6592 -0.4704
  801MOL0     C 8050   8.165   7.574   2.954 -0.2065 -0.4412 -0.4686
  801MOL0     N 8051   8.221   6.983   2.445 -0.5155  0.2200 -0.1141
  801MOL0     N 8052   8.334   6.964   2.377  0.8083  0.6950 -0.5775
  801MOL0     C 8053   9.465   7.103   2.351  0.6774  0.6988 -0.3017
  801MOL0     C 8054   9.540   7.140   2.463  0.0579 -0.0949  0.0466
  801MOL0     C 8055   9.640   7.508   2.759  0.2705 -0.2561  0.1085
  801MOL0     C 8056   9.673   7.429   2.872  0.1356  0.9213 -0.2002
  801MOL0     C 8057   9.737   7.484   2.991  0.1192  0.9362  0.5634
  801MOL0     C 8058   9.779   7.619   2.983 -0.0555  0.3344 -0.4823
  801MOL0     O 8059   9.850   7.670   3.088 -0.2927  0.2717 -0.0772
  801MOL0     C 8060   9.908   7.798   3.072  0.0021 -0.0160 -0.4018
  801MOL0     C 8061   9.827   7.908   3.143 -0.4695 -0.6378 -0.0457
  801MOL0     C 8062   9.798   7.892   3.299 -0.9083  0.0957 -0.1738
  801MOL0     C 8063   9.928   7.873   3.381  0.0650 -0.4852 -0.1962
  801MOL0     C 8064  10.034   7.962   3.362  0.5425 -0.3487  0.3942
  801MOL0     C 8065  10.120   8.045   3.356  0.5432  0.5840 -0.5448
  801MOL0     C 8066   9.717   7.700   2.880  0.2543  0.7154 -0.0993
  801MOL0     C 8067   9.652   7.648   2.772  0.1338  0.9121 -0.2137
  801MOL0     H 8068   9.330   7.379   2.580  3.7365  1.4999  1.3133
  801MOL0     H 8069   9.177   7.279   2.408 -1.0232 -1.6927  1.6931
  801MOL0     H 8070   9.228   7.308   2.172  0.4368  0.5781 -0.2336
  801MOL0     H 8071   9.358   7.217   2.093  1.2284 -2.5060  0.9150
  801MOL0     H 8072   9.154   7.246   1.939 -1.6955 -0.2406  0.6654
  801MOL0     H 8073   9.160   7.071   1.989 -5.6164 -1.0325  2.2981
  801MOL0     H 8074   9.016   7.152   2.188  1.3226  0.1826 -0.5216
  801MOL0     H 8075   8.970   7.285   2.083  0.3619  0.5095 -1.3213
  801MOL0     H 8076   8.920   7.101   1.909 -1.4326  3.2263  1.1931
  801MOL0     H 8077   8.956   6.984   2.028  1.4684  0.1849  1.4773
  801MOL0     H 8078   8.747   7.218   2.072 -0.0109 -0.1637 -2.6127
  801MOL0     H 8079   8.701   7.050   2.008  0.0766 -3.4800  3.1474
  801MOL0     H 8080   8.792   6.960   2.228  1.9707  1.1156  2.3834
  801MOL0     H 8081   8.806   7.130   2.280  0.6971 -0.4454 -1.8735
  801MOL0     H 8082   8.570   7.161   2.212  1.6608  0.9134  1.8735
  801MOL0     H 8083   8.557   6.984   2.188 -0.1560  0.5964 -1.5340
  801MOL0     H 8084   8.612   7.127   2.454  0.1941  0.1126  0.6274
  801MOL0     H 8085   8.604   6.951   2.433 -1.0299  1.4074  2.6406
  801MOL0     H 8086   8.406   7.205   2.590 -4.0327  1.0062  1.2785
  801MOL0     H 8087   8.098   7.048   2.682 -1.7505 -1.9681 -3.9139
  801MOL0     H 8088   8.208   7.178   2.732 -1.4186 -2.4951  2.0581
  801MOL0     H 8089   7.986   7.242   2.703 -1.6452  1.4955 -1.3516
  801MOL0     H 8090   7.981   7.188   2.530  2.7875 -1.5327 -1.1645
  801MOL0     H 8091   8.005   7.427   2.529 -1.0573 -1.1216  1.2587
  801MOL0     H 8092   8.168   7.363   2.488 -0.6883 -1.2280 -0.7314
  801MOL0     H 8093   8.153   7.550   2.642  1.2505  0.7306  2.2339
  801MOL0     H 8094   8.239   7.416   2.707  1.0334 -0.1537 -2.9119
  801MOL0     H 8095   7.949   7.328   2.989  2.0113  0.9189 -2.9521
  801MOL0     H 8096   8.067   7.250   3.287  0.1035  0.0312 -0.0704
  801MOL0     H 8097   7.947   7.392   3.322 -1.8647 -1.6536  0.3935
  801MOL0     H 8098   7.908   7.274   3.219  0.7562 -0.6104 -1.1129
  801MOL0     H 8099   8.190   7.840   3.493  2.4294  1.0187  0.9119
  801MOL0     H 8100   8.251   7.907   3.715  1.8011  0.5675  1.2978
  801MOL0     H 8101   8.519   7.953   3.811  0.9709  0.4175  0.9371
  801MOL0     H 8102   8.371   7.945   3.916  0.2144 -1.3726  4.1200
  801MOL0     H 8103   8.517   7.885   4.109  1.6334 -3.0651 -0.3563
  801MOL0     H 8104   8.647   7.891   3.996  0.1931  1.4865 -0.2865
  801MOL0     H 8105   8.638   8.118   3.941  1.4936  0.7683  1.3148
  801MOL0     H 8106   8.644   8.105   4.112  2.4968 -0.8773 -1.5864
  801MOL0     H 8107   8.385   8.149   3.964  1.2414  0.4915 -1.1090
  801MOL0     H 8108   8.398   8.130   4.134 -1.3345 -3.9379 -1.8522
  801MOL0     H 8109   8.578   8.340   4.004  0.0252  1.4765 -0.1711
  801MOL0     H 8110   8.547   8.318   4.174 -2.5326 -0.0562  0.7998
  801MOL0     H 8111   8.419   8.504   4.078 -4.6115  2.2661 -3.2706
  801MOL0     H 8112   8.341   8.398   3.971 -0.3622  3.7635  0.3840
  801MOL0     H 8113   8.210   8.295   4.148  1.6608 -0.4758 -2.6551
  801MOL0     H 8114   8.202   8.472   4.163  0.3602 -0.4709 -2.7578
  801MOL0     H 8115   8.363   8.287   4.344 -1.7292 -0.1477  1.0263
  801MOL0     H 8116   8.208   8.361   4.382 -0.6084 -0.0521 -1.7336
  801MOL0     H 8117   8.506   7.554   3.749 -0.9137 -1.1078  1.2315
  801MOL0     H 8118   8.462   7.503   3.507  0.3624  0.3144 -1.5967
  801MOL0     H 8119   8.281   7.661   3.102  1.0607 -1.6722  0.3002
  801MOL0     H 8120   8.209   7.641   2.880 -0.0708 -0.0823 -0.0625
  801MOL0     H 8121   9.511   7.035   2.280  0.5811  0.5468 -0.2192
  801MOL0     H 8122   9.639   7.097   2.470 -0.3700 -1.1520 -0.2485
  801MOL0     H 8123   9.646   7.324   2.867 -0.7119  0.8751  3.0472
  801MOL0     H 8124   9.756   7.422   3.078 -2.0263 -0.9967 -0.2490
  801MOL0     H 8125  10.003   7.800   3.125 -1.0725 -0.6680  1.6450
  801MOL0     H 8126   9.927   7.827   2.968 -0.4747 -0.0793 -0.5104
  801MOL0     H 8127   9.727   7.912   3.097 -1.4465  2.7719  2.0531
  801MOL0     H 8128   9.860   8.006   3.108 -2.8741  0.3342  0.1844
  801MOL0     H 8129   9.746   7.801   3.332  2.9324 -1.1561  3.3105
  801MOL0     H 8130   9.746   7.983   3.329 -0.2055 -0.3874  2.8064
  801MOL0     H 8131   9.972   7.776   3.357 -2.4556 -1.9455  0.6678
  801MOL0     H 8132   9.910   7.886   3.488 -1.2118 -0.9906 -0.3199
  801MOL0     H 8133  10.188   8.128   3.360  0.7604  0.3531  2.0015
  801MOL0     H 8134   9.723   7.807   2.895 -2.4998  0.7121  1.5728
  801MOL0     H 8135   9.627   7.705   2.683 -1.3220 -0.1643 -0.5365
  802MOL0     O 8136  11.355   1.639   7.435  0.7504  0.5310 -0.2872
  802MOL0     C 8137  11.398   1.754   7.459  0.0818  0.2935 -1.0149
  802MOL0     O 8138  11.438   1.796   7.579 -0.3564 -0.0848 -0.8467
  802MOL0     C 8139  11.410   1.719   7.695 -0.2350 -0.0417  0.2654
  802MOL0     C 8140  11.275   1.706   7.723 -0.2192 -0.4516 -0.7116
  802MOL0     C 8141  11.254   1.632   7.841  0.0125 -0.1268 -0.1039
  802MOL0     C 8142  11.350   1.565   7.924 -0.4546 -1.0082  0.7021
  802MOL0     O 8143  11.322   1.497   8.041  0.2106 -0.5632 -0.2122
  802MOL0     C 8144  11.188   1.510   8.096  0.1449 -0.2649 -0.9605
  802MOL0     C 8145  11.095   1.407   8.020 -0.1719 -0.4097  0.0257
  802MOL0     C 8146  11.085   1.277   8.095  0.0812  0.8606 -0.9215
  802MOL0     C 8147  10.992   1.287   8.217  0.4089 -0.0667  0.0555
  802MOL0     C 8148  10.910   1.155   8.236 -0.5379 -0.6127 -0.1058
  802MOL0     C 8149  10.800   1.195   8.339  0.1946  0.3435 -0.8390
  802MOL0     C 8150  10.719   1.068   8.365 -0.2070 -0.0137 -0.0387
  802MOL0     C 8151  10.794   0.968   8.465  0.0916 -0.2490 -0.4229
  802MOL0     N 8152  10.786   1.015   8.604 -0.3865 -0.2537 -0.6266
  802MOL0     C 8153  10.673   1.017   8.681  0.0443  1.3801  0.9562
  802MOL0     C 8154  10.722   1.052   8.806 -0.0236 -0.0021 -0.0820
  802MOL0     C 8155  10.656   1.056   8.945  0.3471  0.5922  0.8193
  802MOL0     C 8156  10.733   1.156   9.041  0.0264  0.1705 -0.0790
  802MOL0     C 8157  10.695   1.170   9.188  0.1306  0.1698  0.2218
  802MOL0     C 8158  10.546   1.174   9.222  1.0986  0.1118  0.2313
  802MOL0     O 8159  10.490   1.299   9.262  0.3183  0.2301  0.1962
  802MOL0     C 8160  10.368   1.307   9.325  0.0516  0.3544  0.4417
  802MOL0     C 8161  10.330   1.437   9.364 -0.6152  0.4044 -0.6866
  802MOL0     C 8162  10.204   1.464   9.425 -0.2330  0.3088 -0.7517
  802MOL0     C 8163  10.181   1.608   9.450 -0.1084  0.1660  0.5925
  802MOL0     C 8164  10.111   1.359   9.446 -0.1093  0.0959  0.2510
  802MOL0     C 8165   9.985   1.372   9.511  0.2533  0.8374  0.1687
  802MOL0     O 8166   9.925   1.252   9.556  0.1785 -0.2009  0.3237
  802MOL0     C 8167   9.829   1.236   9.649 -0.2478 -0.6182  0.5371
  802MOL0     C 8168   9.787   1.108   9.668  0.1713  0.3679 -0.5038
  802MOL0     C 8169   9.675   1.081   9.750  0.0415 -1.3107 -0.1129
  802MOL0     C 8170   9.608   1.181   9.817  0.2359  0.0927 -0.5805
  802MOL0     O 8171   9.487   1.150   9.883 -0.3815 -0.8824  0.0179
  802MOL0     C 8172   9.404   1.062   9.804 -0.1410 -0.0960 -0.5398
  802MOL0     C 8173   9.263   1.063   9.864 -0.2776 -0.4381  0.2032
  802MOL0     C 8174   9.159   1.181   9.814 -0.2369  0.4339 -0.3320
  802MOL0     C 8175   9.034   1.162   9.910 -0.8059  0.2727  0.0234
  802MOL0     C 8176   8.934   1.280   9.897  0.3029 -0.8777 -0.1180
  802MOL0     C 8177   8.804   1.254   9.972 -0.3488  0.2996 -0.1624
  802MOL0     C 8178   8.705   1.377   9.966 -0.0890  0.3911  0.3456
  802MOL0     C 8179   8.635   1.393  10.099 -0.2905 -0.0802 -0.4080
  802MOL0    Cl 8180   8.494   1.491  10.077 -0.3362  0.6668  0.4179
  802MOL0     C 8181   9.657   1.319   9.803  0.5265  0.1385  0.3547
  802MOL0     C 8182   9.768   1.340   9.720 -0.2848  0.0198 -1.2482
  802MOL0     O 8183   9.939   1.485   9.534 -0.7306  0.6016  0.6210
  802MOL0     C 8184  10.144   1.233   9.385  0.6624  0.5862 -0.6258
  802MOL0     C 8185  10.266   1.210   9.327 -0.6614  0.7536  0.0700
  802MOL0     N 8186  10.849   1.093   8.787 -0.0386  0.3473  0.9150
  802MOL0     N 8187  10.890   1.086   8.667  0.2967  0.6018  0.0028
  802MOL0     C 8188  11.486   1.576   7.884 -0.6731 -0.4684  1.1953
  802MOL0     C 8189  11.517   1.655   7.771  0.1770  0.4221 -1.2295
  802MOL0     C 8190  11.396   1.848   7.342 -0.1375  0.7935 -0.0479
  802MOL0     C 8191  11.403   1.983   7.360 -0.0889 -0.5175 -0.0026
  802MOL0     C 8192  11.384   2.079   7.259 -0.2950  0.4198  0.0766
  802MOL0     C 8193  11.342   2.046   7.131  0.3247  0.4005 -0.6332
  802MOL0     O 8194  11.314   2.151   7.042 -0.1051  0.0781  0.1594
  802MOL0     C 8195  11.293   2.119   6.906 -0.0491  0.3025 -0.4202
  802MOL0     C 8196  11.421   2.082   6.838  0.6382 -0.4855  0.0413
  802MOL0     C 8197  11.392   2.092   6.692 -0.3846 -0.4469 -0.3746
  802MOL0     C 8198  11.276   2.013   6.644  0.6842  0.3979 -0.1424
  802MOL0     C 8199  11.293   1.859   6.638 -0.8082  0.2530  0.9928
  802MOL0     C 8200  11.309   1.738   6.650 -0.2418 -0.3447  0.5601
  802MOL0     C 8201  11.328   1.909   7.113  0.2267  1.2370 -0.4359
  802MOL0     C 8202  11.354   1.816   7.210  0.2167 -0.5184  1.1108
  802MOL0     H 8203  11.199   1.761   7.670 -1.9735 -0.2680  1.8199
  802MOL0     H 8204  11.147   1.631   7.859  0.4017 -1.9756  2.5757
  802MOL0     H 8205  11.186   1.495   8.204 -0.1896  1.9623 -0.5983
  802MOL0     H 8206  11.141   1.607   8.078 -0.4904 -0.4403 -0.3014
  802MOL0     H 8207  10.993   1.445   8.009 -0.6219 -1.9578 -1.8938
  802MOL0     H 8208  11.141   1.388   7.922  0.0580  0.2011  0.0082
  802MOL0     H 8209  11.053   1.193   8.034  2.9867 -1.6236  0.6900
  802MOL0     H 8210  11.183   1.245   8.131  0.7396 -0.4588 -3.6199
  802MOL0     H 8211  11.047   1.312   8.308 -1.0725  0.0407  0.9678
  802MOL0     H 8212  10.915   1.365   8.209 -0.7195 -0.8983  1.9841
  802MOL0     H 8213  10.853   1.135   8.145  0.2435  0.6923 -0.9177
  802MOL0     H 8214  10.982   1.085   8.278  0.5155  1.3446  1.5357
  802MOL0     H 8215  10.842   1.238   8.430 -2.2550  0.2629  0.3953
  802MOL0     H 8216  10.731   1.268   8.295 -4.2178 -3.4533 -1.0208
  802MOL0     H 8217  10.617   1.085   8.399 -0.4369 -1.3919  0.0127
  802MOL0     H 8218  10.704   1.028   8.265 -2.0511  1.2989 -0.3264
  802MOL0     H 8219  10.896   0.965   8.426 -0.7579  2.9938 -3.4572
  802MOL0     H 8220  10.756   0.866   8.460  2.0871 -1.0754  0.1945
  802MOL0     H 8221  10.573   0.984   8.654 -0.3320  1.0825  2.6145
  802MOL0     H 8222  10.554   1.097   8.944 -0.3996 -1.0498  2.5518
  802MOL0     H 8223  10.649   0.956   8.988 -1.6406  1.1085  1.8409
  802MOL0     H 8224  10.730   1.255   8.995 -2.2739 -1.7126 -4.4876
  802MOL0     H 8225  10.839   1.131   9.036 -0.6204 -2.7583 -1.4567
  802MOL0     H 8226  10.746   1.248   9.246  0.5046 -0.2738  0.4985
  802MOL0     H 8227  10.730   1.074   9.226  0.6786 -0.5838 -2.0721
  802MOL0     H 8228  10.549   1.098   9.301  2.2731 -0.3849 -0.2589
  802MOL0     H 8229  10.477   1.139   9.145 -0.8001  0.9226  1.4968
  802MOL0     H 8230  10.403   1.514   9.343 -0.7101  0.1907 -1.8648
  802MOL0     H 8231  10.280   1.651   9.469  0.9506 -1.9857  0.2561
  802MOL0     H 8232  10.134   1.642   9.357  0.8002  0.6595  0.3011
  802MOL0     H 8233  10.120   1.636   9.537 -0.9794  2.6346 -0.7284
  802MOL0     H 8234   9.843   1.023   9.633 -0.8848 -0.4760 -0.2048
  802MOL0     H 8235   9.658   0.974   9.757  1.5720 -1.6717 -1.4227
  802MOL0     H 8236   9.399   1.084   9.697  0.0059 -3.8896 -1.4517
  802MOL0     H 8237   9.446   0.962   9.813  1.0596  0.5470  1.7329
  802MOL0     H 8238   9.224   0.962   9.850 -0.0138 -0.5934  0.5649
  802MOL0     H 8239   9.281   1.068   9.972  0.5584 -0.7276  0.0861
  802MOL0     H 8240   9.119   1.166   9.713 -2.6823  0.2395  0.5929
  802MOL0     H 8241   9.211   1.277   9.810  3.2846 -1.3117 -2.4013
  802MOL0     H 8242   8.990   1.064   9.891  0.7705 -0.3617 -0.5030
  802MOL0     H 8243   9.078   1.159  10.010 -1.0026  2.7430  0.2494
  802MOL0     H 8244   8.916   1.296   9.790 -1.0567  1.0446  0.3447
  802MOL0     H 8245   8.984   1.372   9.930  0.9929 -0.4512 -2.1588
  802MOL0     H 8246   8.757   1.169   9.923 -0.2812 -0.3533  0.8850
  802MOL0     H 8247   8.840   1.234  10.073  1.0669  3.2708  0.0343
  802MOL0     H 8248   8.630   1.342   9.895  1.0410 -0.7001 -0.3442
  802MOL0     H 8249   8.748   1.476   9.948  1.7888  0.6220  4.7540
  802MOL0     H 8250   8.692   1.448  10.175 -1.2788 -1.0674  1.1002
  802MOL0     H 8251   8.598   1.297  10.136  0.2771  0.0984  0.6872
  802MOL0     H 8252   9.591   1.394   9.845 -0.8979 -0.2545 -1.0667
  802MOL0     H 8253   9.781   1.447   9.715 -1.2379  0.1365 -1.4885
  802MOL0     H 8254  10.072   1.153   9.389 -0.3158  1.4639 -0.2744
  802MOL0     H 8255  10.290   1.110   9.293  0.1288  0.9111  0.1437
  802MOL0     H 8256  11.566   1.513   7.921 -0.2901  0.4370  1.9721
  802MOL0     H 8257  11.616   1.669   7.729  1.5427  2.7975  2.2777
  802MOL0     H 8258  11.399   2.021   7.462  0.4479  1.7062 -0.7392
  802MOL0     H 8259  11.390   2.183   7.289  2.4917  1.1191 -2.4826
  802MOL0     H 8260  11.215   2.042   6.902  0.5567 -0.4237  1.0037
  802MOL0     H 8261  11.251   2.209   6.859 -1.4808 -0.0834  0.0681
  802MOL0     H 8262  11.449   1.979   6.864  0.2417 -0.6003  0.0214
  802MOL0     H 8263  11.504   2.145   6.872  0.0584 -1.1571  3.0454
  802MOL0     H 8264  11.480   2.068   6.631 -0.0027 -0.2890  0.1054
  802MOL0     H 8265  11.368   2.198   6.680 -0.5771 -0.4530 -0.0631
  802MOL0     H 8266  11.256   2.040   6.541 -0.1767  0.3589  0.0120
  802MOL0     H 8267  11.184   2.042   6.695  0.2395 -3.8964  2.0280
  802MOL0     H 8268  11.321   1.634   6.673  2.4671 -0.1737  0.2313
  802MOL0     H 8269  11.300   1.865   7.018  1.8274 -3.4648  0.9540
  802MOL0     H 8270  11.319   1.716   7.183 -0.4085 -0.8085  2.8266
  803MOL0     O 8271   6.988  10.645   0.872 -0.0747  0.3389 -0.7586
  803MOL0     C 8272   7.044  10.673   0.978 -0.5449 -0.0784 -0.8374
  803MOL0     O 8273   7.180  10.651   1.020  0.2482 -0.0354  0.1857
  803MOL0     C 8274   7.284  10.640   0.926  1.4465  0.5445 -0.4399
  803MOL0     C 8275   7.388  10.736   0.914  0.0510  0.0376 -0.0878
  803MOL0     C 8276   7.491  10.723   0.825  0.0409 -0.8471 -0.9829
  803MOL0     C 8277   7.503  10.607   0.750  0.9550 -0.3839 -0.2924
  803MOL0     O 8278   7.612  10.577   0.667 -0.3064 -0.2237  0.7449
  803MOL0     C 8279   7.649  10.682   0.574  0.9586 -0.1270  0.0476
  803MOL0     C 8280   7.666  10.632   0.425 -0.8247 -0.6995 -0.0703
  803MOL0     C 8281   7.734  10.501   0.406  1.1795 -0.1156 -1.0376
  803MOL0     C 8282   7.880  10.505   0.383  0.1615  0.3815 -0.1579
  803MOL0     C 8283   7.945  10.363   0.369 -0.1013 -0.0087  0.9903
  803MOL0     C 8284   7.932  10.283   0.495 -0.0713  0.8614  0.2948
  803MOL0     C 8285   8.057  10.191   0.498  0.7950  0.2759 -0.4473
  803MOL0     C 8286   8.043  10.075   0.404 -0.0366 -0.1953 -1.2249
  803MOL0     N 8287   8.131   9.962   0.440  0.1193  0.7092 -0.0712
  803MOL0     C 8288   8.273   9.954   0.420 -1.5686 -0.6361 -1.1489
  803MOL0     C 8289   8.302   9.826   0.455  0.2040 -0.0434  1.0257
  803MOL0     C 8290   8.444   9.765   0.465 -0.2721  0.3589  0.5241
  803MOL0     C 8291   8.437   9.614   0.430 -0.2746 -0.9367  0.8102
  803MOL0     C 8292   8.429   9.601   0.281  0.4782 -0.0696 -0.5295
  803MOL0     C 8293   8.443   9.459   0.241  0.0108 -0.1617 -0.1055
  803MOL0     O 8294   8.424   9.437   0.100  0.2374 -0.1588  0.1290
  803MOL0     C 8295   8.304   9.448   0.031  0.8006  0.1993  0.2306
  803MOL0     C 8296   8.307   9.417  -0.107 -0.7421  0.7650 -0.9707
  803MOL0     C 8297   8.203   9.444  -0.191 -0.9560  1.1233  0.4988
  803MOL0     C 8298   8.234   9.405  -0.332  0.0874  0.5154  0.6910
  803MOL0     C 8299   8.086   9.488  -0.140 -0.5126  0.4293 -0.0555
  803MOL0     C 8300   7.974   9.509  -0.224  0.3557 -0.0690 -0.4980
  803MOL0     O 8301   7.892   9.612  -0.184  0.1208  0.4575 -0.2562
  803MOL0     C 8302   7.764   9.607  -0.229  1.4128 -0.0936  0.3243
  803MOL0     C 8303   7.657   9.542  -0.152  0.8110 -0.1317 -0.6637
  803MOL0     C 8304   7.525   9.562  -0.192  0.7286 -0.0140  0.2415
  803MOL0     C 8305   7.488   9.640  -0.296 -0.1309 -0.7465  0.5027
  803MOL0     O 8306   7.347   9.657  -0.316 -0.2717  0.4278  1.1947
  803MOL0     C 8307   7.307   9.716  -0.441  0.5730 -0.0360 -0.0135
  803MOL0     C 8308   7.149   9.716  -0.461 -0.2251  0.2047 -0.6031
  803MOL0     C 8309   7.071   9.761  -0.340 -0.6984 -0.3192  0.2446
  803MOL0     C 8310   6.907   9.756  -0.352 -0.4739 -0.5285 -0.6350
  803MOL0     C 8311   6.838   9.793  -0.478  0.9599  0.3424  0.1994
  803MOL0     C 8312   6.876   9.918  -0.539 -0.7005  0.4705 -0.0922
  803MOL0     C 8313   6.795   9.970  -0.654 -0.2197 -0.3639 -0.4895
  803MOL0     C 8314   6.876  10.050  -0.767  0.7745  0.3246 -0.7399
  803MOL0    Cl 8315   6.982   9.941  -0.856  0.3662  0.3329  0.2011
  803MOL0     C 8316   7.588   9.712  -0.366 -0.5110 -0.2955 -0.5098
  803MOL0     C 8317   7.724   9.697  -0.329 -0.3742  0.1087  0.0122
  803MOL0     O 8318   7.950   9.439  -0.323  0.2076 -0.0935  0.0310
  803MOL0     C 8319   8.071   9.520  -0.004 -0.2415  0.2022  0.3340
  803MOL0     C 8320   8.184   9.504   0.077 -0.7405  0.2011 -0.1628
  803MOL0     N 8321   8.185   9.755   0.487  0.1120 -0.1097  0.6083
  803MOL0     N 8322   8.091   9.841   0.490 -0.3167 -0.3008  0.8278
  803MOL0     C 8323   7.410  10.496   0.769  0.3097 -0.7983  0.1650
  803MOL0     C 8324   7.304  10.518   0.858 -0.3163  0.4356 -0.0745
  803MOL0     C 8325   6.947  10.717   1.085 -0.3609 -0.4123 -0.4766
  803MOL0     C 8326   6.829  10.785   1.045 -0.3358  0.4777 -0.4382
  803MOL0     C 8327   6.743  10.838   1.140  0.1498 -0.0255  0.0758
  803MOL0     C 8328   6.764  10.816   1.277  0.4395  0.5542  0.1003
  803MOL0     O 8329   6.672  10.869   1.367 -0.0485 -0.0565 -1.0960
  803MOL0     C 8330   6.722  10.904   1.497 -0.9815 -0.1915  0.0561
  803MOL0     C 8331   6.620  10.964   1.598  0.0264 -0.3002 -0.0431
  803MOL0     C 8332   6.512  10.859   1.654 -1.0832 -0.4049 -0.7499
  803MOL0     C 8333   6.379  10.925   1.667 -0.0913 -0.1896 -0.2461
  803MOL0     C 8334   6.296  10.840   1.761 -0.3709 -0.3046 -0.1508
  803MOL0     C 8335   6.217  10.780   1.834 -0.0661  0.5034  0.5098
  803MOL0     C 8336   6.877  10.747   1.316 -0.1484 -0.0585 -0.1208
  803MOL0     C 8337   6.970  10.702   1.222  0.1230  0.1461  1.1453
  803MOL0     H 8338   7.385  10.830   0.969  1.5031  1.2214 -1.9138
  803MOL0     H 8339   7.558  10.806   0.804 -4.0337  3.5546  1.5123
  803MOL0     H 8340   7.573  10.759   0.588  0.2076 -0.9888  0.8481
  803MOL0     H 8341   7.745  10.729   0.599 -0.0267  1.0263  1.8839
  803MOL0     H 8342   7.569  10.640   0.375  0.2800  0.2080 -2.1940
  803MOL0     H 8343   7.706  10.717   0.369 -4.2028  0.9627 -0.2481
  803MOL0     H 8344   7.711  10.437   0.493  4.0122  3.2326  2.5348
  803MOL0     H 8345   7.692  10.456   0.316 -2.0669 -1.5878  1.0177
  803MOL0     H 8346   7.909  10.549   0.287 -2.4934  1.8079 -0.4131
  803MOL0     H 8347   7.932  10.553   0.467  0.1862 -1.1963  0.7675
  803MOL0     H 8348   7.892  10.313   0.287  0.0139 -0.5742  1.2621
  803MOL0     H 8349   8.046  10.382   0.331 -0.2394  0.7784  0.9917
  803MOL0     H 8350   7.935  10.348   0.582  0.6442  2.2920 -0.7546
  803MOL0     H 8351   7.842  10.222   0.482  0.6770 -0.1009 -0.6982
  803MOL0     H 8352   8.143  10.254   0.472  1.7420 -0.0969  1.5771
  803MOL0     H 8353   8.064  10.147   0.598 -1.2255  1.0123  0.0784
  803MOL0     H 8354   8.081  10.101   0.305 -0.7660 -0.9014 -1.7094
  803MOL0     H 8355   7.937  10.048   0.409  0.2569 -1.2326  2.1212
  803MOL0     H 8356   8.337  10.038   0.393 -1.5904 -0.0446  0.5276
  803MOL0     H 8357   8.514   9.826   0.408 -0.6559  2.6219  2.3283
  803MOL0     H 8358   8.470   9.769   0.572 -1.1201  0.0134  0.7562
  803MOL0     H 8359   8.343   9.563   0.453 -1.5179 -0.1201 -2.0148
  803MOL0     H 8360   8.521   9.557   0.471  0.3432 -1.3557 -0.9283
  803MOL0     H 8361   8.508   9.662   0.235 -0.9771  0.9402 -1.7875
  803MOL0     H 8362   8.333   9.647   0.254 -0.2928  0.7688  3.0735
  803MOL0     H 8363   8.374   9.392   0.293  2.3634 -1.6069  1.3400
  803MOL0     H 8364   8.541   9.422   0.271  0.1256 -0.4358 -0.8068
  803MOL0     H 8365   8.395   9.364  -0.141 -0.6420 -1.0166  1.7757
  803MOL0     H 8366   8.147   9.346  -0.362 -0.1731  1.7137 -1.0570
  803MOL0     H 8367   8.236   9.491  -0.400 -1.8409 -0.2092 -0.3744
  803MOL0     H 8368   8.326   9.351  -0.356 -1.2853 -2.1633  1.0644
  803MOL0     H 8369   7.673   9.509  -0.049  0.9690  1.3526 -0.1757
  803MOL0     H 8370   7.449   9.525  -0.123  0.5499 -2.2238 -1.0614
  803MOL0     H 8371   7.322   9.824  -0.442 -2.9748  0.5970 -1.4257
  803MOL0     H 8372   7.354   9.657  -0.520 -0.4075 -1.3216  0.3290
  803MOL0     H 8373   7.133   9.763  -0.558  3.3715 -0.7922 -1.8371
  803MOL0     H 8374   7.102   9.620  -0.486  0.2607 -0.5776  1.2669
  803MOL0     H 8375   7.095   9.867  -0.326  0.8120 -0.5527 -0.4303
  803MOL0     H 8376   7.115   9.709  -0.255  1.0345  1.6643  0.6566
  803MOL0     H 8377   6.875   9.653  -0.335 -1.8668 -0.1031 -0.5791
  803MOL0     H 8378   6.862   9.815  -0.273 -0.0500 -1.1771  0.1045
  803MOL0     H 8379   6.729   9.786  -0.471  0.6748  0.5559 -2.7716
  803MOL0     H 8380   6.866   9.714  -0.549  0.6505  0.2067  0.2275
  803MOL0     H 8381   6.853   9.983  -0.454 -1.2097 -1.4259  1.3068
  803MOL0     H 8382   6.981   9.927  -0.567 -1.5424 -0.6617 -4.4040
  803MOL0     H 8383   6.727  10.042  -0.608  0.2183  0.3653 -0.9561
  803MOL0     H 8384   6.744   9.890  -0.709  0.4932 -0.3104 -1.2425
  803MOL0     H 8385   6.941  10.126  -0.721  0.1884 -0.1033  0.8622
  803MOL0     H 8386   6.808  10.101  -0.836  0.3562 -0.9639 -1.3116
  803MOL0     H 8387   7.561   9.777  -0.449  2.6913  1.0717 -0.6270
  803MOL0     H 8388   7.793   9.748  -0.395 -1.5907  1.7350 -0.0772
  803MOL0     H 8389   7.980   9.552   0.045 -1.4417 -1.4425 -0.7619
  803MOL0     H 8390   8.160   9.519   0.182 -2.5844  1.0583 -0.6561
  803MOL0     H 8391   7.427  10.400   0.721  1.0447 -2.7887  3.9571
  803MOL0     H 8392   7.234  10.440   0.886  0.9819 -0.4246  0.8749
  803MOL0     H 8393   6.809  10.792   0.938 -2.4866 -1.3757 -0.2329
  803MOL0     H 8394   6.652  10.876   1.095  0.5043  2.0884  1.0282
  803MOL0     H 8395   6.757  10.813   1.546 -1.8836 -0.1864  0.7426
  803MOL0     H 8396   6.806  10.972   1.485 -1.0220 -0.3100 -1.0118
  803MOL0     H 8397   6.561  11.039   1.544 -0.2005 -2.4676 -3.0539
  803MOL0     H 8398   6.671  11.003   1.686 -1.2051  2.9205 -0.6249
  803MOL0     H 8399   6.552  10.824   1.750  4.2188 -1.7002 -3.0675
  803MOL0     H 8400   6.508  10.778   1.581  3.5599 -1.0995 -0.5630
  803MOL0     H 8401   6.334  10.934   1.568 -1.0225 -1.1451  0.0767
  803MOL0     H 8402   6.399  11.025   1.705  3.8092 -0.1618 -1.8182
  803MOL0     H 8403   6.149  10.722   1.894 -0.6319  1.7123  1.0774
  803MOL0     H 8404   6.900  10.725   1.419  1.2382 -3.6285 -1.0414
  803MOL0     H 8405   7.058  10.649   1.259  1.0665  0.3115 -0.7020
  804MOL0     O 8406   5.091   3.574   2.306 -0.2998  0.0627 -0.3452
  804MOL0     C 8407   5.060   3.605   2.191 -1.0878  0.2546 -0.4210
  804MOL0     O 8408   4.964   3.546   2.106 -0.2021  0.3262  0.4832
  804MOL0     C 8409   4.913   3.426   2.152  0.1762 -0.2631  0.0424
  804MOL0     C 8410   4.783   3.430   2.206  0.7439  0.5459  0.1104
  804MOL0     C 8411   4.711   3.311   2.226  0.0788 -0.3686 -0.0819
  804MOL0     C 8412   4.772   3.182   2.203  0.0137  0.0257  0.1275
  804MOL0     O 8413   4.707   3.067   2.213 -0.0342 -0.0840 -0.4984
  804MOL0     C 8414   4.570   3.070   2.249 -0.8988  0.6402 -0.4565
  804MOL0     C 8415   4.522   2.926   2.244  0.0126 -0.4730 -0.2268
  804MOL0     C 8416   4.367   2.914   2.238 -0.1895  0.5676  0.2467
  804MOL0     C 8417   4.321   2.773   2.217 -0.6048  0.5541  0.3595
  804MOL0     C 8418   4.334   2.680   2.331 -0.2313  0.0204 -0.4827
  804MOL0     C 8419   4.247   2.557   2.297  1.0131 -0.1800 -0.2649
  804MOL0     C 8420   4.220   2.495   2.432 -0.6002  0.9424 -0.1125
  804MOL0     C 8421   4.148   2.359   2.421 -0.6788  0.3136 -0.3532
  804MOL0     N 8422   3.997   2.363   2.393 -0.2968 -0.2671 -0.4950
  804MOL0     C 8423   3.923   2.480   2.378 -0.4576  0.2657  0.5101
  804MOL0     C 8424   3.794   2.448   2.347 -0.3723  1.1552 -0.6297
  804MOL0     C 8425   3.667   2.528   2.340 -0.3567  0.1344  0.5157
  804MOL0     C 8426   3.581   2.518   2.471 -0.3564  0.1162 -0.2106
  804MOL0     C 8427   3.642   2.566   2.608 -0.3080  0.3411 -0.6715
  804MOL0     C 8428   3.648   2.719   2.619  0.2675  0.8839 -1.2604
  804MOL0     O 8429   3.747   2.787   2.536 -0.5099 -0.3103  0.2449
  804MOL0     C 8430   3.869   2.823   2.575 -0.2730 -0.1744 -0.1145
  804MOL0     C 8431   3.932   2.780   2.694  0.1780  0.5756 -0.5293
  804MOL0     C 8432   4.072   2.791   2.721  1.0740  0.6635  0.4332
  804MOL0     C 8433   4.130   2.748   2.849  0.5009  1.2649  0.2994
  804MOL0     C 8434   4.145   2.873   2.636  0.8885 -0.0213  1.2976
  804MOL0     C 8435   4.286   2.913   2.648 -0.1565 -0.6400  0.1850
  804MOL0     O 8436   4.386   2.815   2.669  0.0826  0.1407 -1.3447
  804MOL0     C 8437   4.523   2.830   2.670  0.7382 -0.7177  0.4394
  804MOL0     C 8438   4.594   2.741   2.742 -0.3342 -0.0608 -0.3217
  804MOL0     C 8439   4.739   2.748   2.749  0.4302 -0.1548  0.0672
  804MOL0     C 8440   4.806   2.848   2.678 -0.4590  0.6918  0.1053
  804MOL0     O 8441   4.943   2.845   2.685  0.7216  0.0801 -0.6987
  804MOL0     C 8442   5.020   2.937   2.603 -0.1508  0.0242 -0.6746
  804MOL0     C 8443   5.174   2.936   2.603 -0.3755 -0.0248  0.0086
  804MOL0     C 8444   5.242   2.799   2.575 -0.0587  0.6960  0.1247
  804MOL0     C 8445   5.396   2.800   2.581 -0.7953  0.3900 -0.6187
  804MOL0     C 8446   5.466   2.658   2.574  0.0388 -0.1616 -0.0490
  804MOL0     C 8447   5.619   2.669   2.585 -0.1785 -0.5473  0.1922
  804MOL0     C 8448   5.702   2.549   2.535 -0.7849 -0.1789  0.6356
  804MOL0     C 8449   5.845   2.576   2.581  0.8438  0.6520 -0.2032
  804MOL0    Cl 8450   5.944   2.440   2.532 -0.0769 -0.7010 -0.0181
  804MOL0     C 8451   4.733   2.921   2.588 -0.2742 -0.2509 -0.5897
  804MOL0     C 8452   4.593   2.920   2.588  0.5816 -0.3924 -0.0457
  804MOL0     O 8453   4.318   3.028   2.616 -0.0600 -0.4786  0.4068
  804MOL0     C 8454   4.074   2.932   2.524  0.1049 -0.3773  0.3819
  804MOL0     C 8455   3.942   2.907   2.490 -0.2408  0.0752  0.2240
  804MOL0     N 8456   3.797   2.305   2.343 -0.1050  0.4351  1.0890
  804MOL0     N 8457   3.921   2.261   2.367 -0.3961  0.2400  0.0001
  804MOL0     C 8458   4.904   3.175   2.174 -0.2387  0.9642  0.0857
  804MOL0     C 8459   4.970   3.296   2.126  0.0712 -0.0159 -0.1052
  804MOL0     C 8460   5.119   3.725   2.137  0.4429 -0.4439 -0.4979
  804MOL0     C 8461   5.116   3.752   1.998 -0.2372 -0.5018  0.3020
  804MOL0     C 8462   5.172   3.875   1.945  0.6627  0.1644 -0.5211
  804MOL0     C 8463   5.228   3.972   2.023 -0.7214  0.2824  0.1239
  804MOL0     O 8464   5.291   4.074   1.966 -0.4974 -0.9256 -1.0031
  804MOL0     C 8465   5.375   4.158   2.041  0.4628 -0.4409 -0.6959
  804MOL0     C 8466   5.394   4.286   1.964  0.0341 -0.2750  0.3295
  804MOL0     C 8467   5.413   4.253   1.814  0.1665 -0.5763  0.7938
  804MOL0     C 8468   5.469   4.368   1.732 -0.2443 -0.2768  0.2256
  804MOL0     C 8469   5.603   4.345   1.661 -0.9515 -0.1728  0.7975
  804MOL0     C 8470   5.717   4.312   1.625 -0.2074 -0.0219 -0.2412
  804MOL0     C 8471   5.226   3.946   2.164 -0.2124 -0.5240 -0.0241
  804MOL0     C 8472   5.178   3.830   2.218  0.0286  0.0825 -0.0854
  804MOL0     H 8473   4.731   3.522   2.231 -2.3153 -1.2509  0.8587
  804MOL0     H 8474   4.610   3.332   2.259  0.1018  0.6775 -0.6558
  804MOL0     H 8475   4.558   3.105   2.351 -0.7752  2.6760 -1.0908
  804MOL0     H 8476   4.506   3.127   2.181 -2.4013  1.0180  1.2124
  804MOL0     H 8477   4.565   2.880   2.154  2.4782  5.3912 -2.5184
  804MOL0     H 8478   4.561   2.869   2.329 -2.5475  1.0982  2.1487
  804MOL0     H 8479   4.328   2.954   2.332  0.2055  3.3359 -0.7017
  804MOL0     H 8480   4.321   2.965   2.153 -3.9253 -1.1251  1.0368
  804MOL0     H 8481   4.219   2.790   2.183 -0.1753  3.1022  0.1594
  804MOL0     H 8482   4.381   2.731   2.136 -0.0813  1.3300  0.3294
  804MOL0     H 8483   4.439   2.655   2.351 -0.7093 -2.2286 -0.5491
  804MOL0     H 8484   4.294   2.731   2.419 -1.4210  0.2895 -1.1464
  804MOL0     H 8485   4.150   2.575   2.250  0.1566 -2.1470  0.6330
  804MOL0     H 8486   4.307   2.490   2.235  0.0450  0.4987 -2.0185
  804MOL0     H 8487   4.320   2.479   2.474 -0.0031  0.5801 -1.6052
  804MOL0     H 8488   4.163   2.568   2.491  3.1810  3.5150  0.7171
  804MOL0     H 8489   4.146   2.312   2.520 -0.7922 -0.0546 -0.5288
  804MOL0     H 8490   4.191   2.302   2.339  0.6990  1.3513 -0.3921
  804MOL0     H 8491   3.952   2.584   2.387 -0.3471  0.3335 -0.5164
  804MOL0     H 8492   3.693   2.632   2.316  0.7873 -0.4285 -0.8144
  804MOL0     H 8493   3.608   2.502   2.251 -1.1226  0.4371  0.9222
  804MOL0     H 8494   3.564   2.411   2.490  3.9859 -0.6887  0.2993
  804MOL0     H 8495   3.483   2.565   2.461 -0.6974 -0.0771  1.7834
  804MOL0     H 8496   3.736   2.513   2.623 -0.7663 -0.4650 -0.5943
  804MOL0     H 8497   3.578   2.528   2.688  0.0642 -2.2265 -1.4882
  804MOL0     H 8498   3.666   2.747   2.723  1.5315  2.4531 -1.8500
  804MOL0     H 8499   3.549   2.755   2.588 -0.2563  0.7842  0.2513
  804MOL0     H 8500   3.882   2.721   2.769  2.2768  1.5827  1.8028
  804MOL0     H 8501   4.218   2.811   2.865  3.5381 -2.6501  0.3721
  804MOL0     H 8502   4.065   2.768   2.935  1.5251  2.7445  0.7671
  804MOL0     H 8503   4.153   2.641   2.847  1.9912  1.5871 -0.3787
  804MOL0     H 8504   4.527   2.672   2.792  1.4713 -1.7745 -0.1101
  804MOL0     H 8505   4.784   2.673   2.813 -0.1853 -0.6642 -0.0863
  804MOL0     H 8506   4.994   2.934   2.497  1.5086  1.5816 -1.1815
  804MOL0     H 8507   4.996   3.039   2.634 -3.3961 -0.7495 -0.3185
  804MOL0     H 8508   5.202   3.014   2.532  0.1426 -0.9525 -0.8203
  804MOL0     H 8509   5.223   2.971   2.694  0.4522  0.7487 -0.7206
  804MOL0     H 8510   5.212   2.753   2.480 -0.9107  1.4181  0.0324
  804MOL0     H 8511   5.219   2.714   2.640  1.8181 -1.1542 -1.4583
  804MOL0     H 8512   5.435   2.869   2.505 -2.5850 -1.0859 -3.0402
  804MOL0     H 8513   5.439   2.839   2.673 -1.0319 -0.5177 -0.1082
  804MOL0     H 8514   5.442   2.609   2.480  3.4306  0.1535 -1.2088
  804MOL0     H 8515   5.430   2.600   2.660 -1.4516  0.1188 -0.4581
  804MOL0     H 8516   5.650   2.759   2.530  0.6912 -0.7792  0.2881
  804MOL0     H 8517   5.640   2.686   2.691  3.2982 -0.0952 -0.4725
  804MOL0     H 8518   5.707   2.551   2.426  1.8302 -1.1374  0.6887
  804MOL0     H 8519   5.663   2.454   2.574  1.5113 -1.1183  0.7830
  804MOL0     H 8520   5.846   2.598   2.688 -0.3233 -3.2752  0.7969
  804MOL0     H 8521   5.872   2.661   2.518 -1.0685  0.4907 -1.3177
  804MOL0     H 8522   4.790   2.979   2.515  1.1387  0.2724  0.8713
  804MOL0     H 8523   4.531   2.981   2.523 -2.2101 -0.9439  1.9179
  804MOL0     H 8524   4.124   2.999   2.455 -0.2053  0.6990  1.1769
  804MOL0     H 8525   3.906   2.940   2.393  0.8218 -0.7374 -0.4753
  804MOL0     H 8526   4.960   3.084   2.156  4.6298  3.9999 -2.2722
  804MOL0     H 8527   5.059   3.282   2.065  0.4039 -0.5806  0.4979
  804MOL0     H 8528   5.063   3.684   1.932 -1.6758 -1.1370  2.0179
  804MOL0     H 8529   5.169   3.897   1.838 -0.5805  4.2058  0.1858
  804MOL0     H 8530   5.343   4.179   2.143  2.0016 -1.2222 -0.0154
  804MOL0     H 8531   5.469   4.105   2.058  0.4496 -1.6575 -3.8041
  804MOL0     H 8532   5.481   4.332   2.012  1.3280 -2.7077  0.4959
  804MOL0     H 8533   5.303   4.345   1.974  0.6763  0.7609  0.1565
  804MOL0     H 8534   5.313   4.232   1.775  1.2723 -0.4601 -2.3531
  804MOL0     H 8535   5.484   4.172   1.795  1.8496  1.5819 -3.5485
  804MOL0     H 8536   5.482   4.455   1.798 -1.4349 -0.3018  0.5233
  804MOL0     H 8537   5.388   4.393   1.662  0.1671 -0.1202 -0.1970
  804MOL0     H 8538   5.819   4.291   1.600 -0.4084 -3.1834  1.0480
  804MOL0     H 8539   5.251   4.015   2.244 -0.5746 -0.4822  0.0565
  804MOL0     H 8540   5.192   3.816   2.324  1.7256 -1.4405 -0.4688
  805MOL0     O 8541   2.329   3.338   4.108  0.5348 -0.4655  0.2171
  805MOL0     C 8542   2.274   3.303   4.215  0.1895 -0.0740  0.3192
  805MOL0     O 8543   2.334   3.261   4.330  0.4468  0.4065  0.0796
  805MOL0     C 8544   2.468   3.256   4.323 -0.1816 -0.2857  0.2456
  805MOL0     C 8545   2.514   3.144   4.252 -0.2455  0.1398  0.2323
  805MOL0     C 8546   2.654   3.130   4.233 -0.0332 -0.3103  0.5455
  805MOL0     C 8547   2.738   3.222   4.288 -0.4387 -0.2022  0.1613
  805MOL0     O 8548   2.874   3.222   4.273 -0.9934 -0.5544 -0.0095
  805MOL0     C 8549   2.923   3.256   4.153  0.2479  0.2697  0.6114
  805MOL0     C 8550   3.074   3.275   4.159 -0.3657 -0.1225 -0.3868
  805MOL0     C 8551   3.135   3.128   4.176 -0.9878 -0.4260 -0.6001
  805MOL0     C 8552   3.283   3.141   4.209 -0.9287  0.4048  0.3727
  805MOL0     C 8553   3.348   3.014   4.255  0.3352  0.5992  0.3186
  805MOL0     C 8554   3.491   3.033   4.301  0.1537 -0.4825  0.0653
  805MOL0     C 8555   3.583   3.054   4.180  0.0262  0.8300 -0.6660
  805MOL0     C 8556   3.728   3.046   4.218  0.0638  0.0251 -0.0760
  805MOL0     N 8557   3.776   2.909   4.234  0.9038 -0.0839  1.1843
  805MOL0     C 8558   3.888   2.862   4.171  0.0812 -0.4765 -0.0246
  805MOL0     C 8559   3.924   2.759   4.247  0.9619  0.4681 -1.1983
  805MOL0     C 8560   4.048   2.677   4.227  0.4187  0.5915 -1.3241
  805MOL0     C 8561   4.007   2.524   4.257 -0.4220  0.0768  0.3643
  805MOL0     C 8562   3.947   2.470   4.128 -1.0511 -0.3062 -0.1345
  805MOL0     C 8563   3.841   2.364   4.155 -0.4140 -0.6558  0.8031
  805MOL0     O 8564   3.762   2.339   4.045 -0.1756 -0.4113  0.6916
  805MOL0     C 8565   3.642   2.399   4.039  0.4027  0.0165 -0.7026
  805MOL0     C 8566   3.600   2.510   4.112  0.1619 -1.0517  1.0468
  805MOL0     C 8567   3.468   2.556   4.105  1.0230 -0.6107 -0.7929
  805MOL0     C 8568   3.425   2.647   4.220  0.1934  0.1660 -0.2257
  805MOL0     C 8569   3.379   2.517   3.999 -0.3509  0.3635 -0.1037
  805MOL0     C 8570   3.244   2.583   3.985  0.6466 -0.1314  0.9509
  805MOL0     O 8571   3.256   2.715   3.969 -0.5248  0.1054 -0.5093
  805MOL0     C 8572   3.142   2.785   3.937  0.5178 -0.0400 -0.3472
  805MOL0     C 8573   3.121   2.833   3.807  0.2274  0.9826 -0.6751
  805MOL0     C 8574   2.997   2.890   3.761 -0.9657 -0.5669  1.1019
  805MOL0     C 8575   2.890   2.891   3.857 -0.8717 -0.2423 -0.3714
  805MOL0     O 8576   2.765   2.919   3.806 -0.2920 -0.3485 -0.8023
  805MOL0     C 8577   2.644   2.924   3.889  0.4001  0.4935  0.9362
  805MOL0     C 8578   2.538   2.979   3.805  0.2920  0.1172 -0.1519
  805MOL0     C 8579   2.399   2.989   3.877 -0.5259 -0.1451 -0.5321
  805MOL0     C 8580   2.324   2.865   3.917  0.3985  0.2892  0.1277
  805MOL0     C 8581   2.200   2.903   3.992  0.2140  0.7674 -0.5202
  805MOL0     C 8582   2.084   2.962   3.908 -0.2329 -0.2043  0.0504
  805MOL0     C 8583   1.967   3.012   3.985  0.1464 -0.1528  0.1731
  805MOL0     C 8584   1.857   3.045   3.889  1.4960  0.2615 -0.6064
  805MOL0    Cl 8585   1.819   2.922   3.765  0.2550  0.2811  0.0535
  805MOL0     C 8586   2.914   2.847   3.984  0.4315 -1.0690  0.1069
  805MOL0     C 8587   3.040   2.807   4.028  0.3606 -0.2616  0.3328
  805MOL0     O 8588   3.133   2.521   3.985 -0.6243  0.1963  0.2097
  805MOL0     C 8589   3.433   2.419   3.907 -0.3586 -0.1375  0.3690
  805MOL0     C 8590   3.559   2.365   3.931 -0.6806 -0.0303 -0.1955
  805MOL0     N 8591   3.809   2.728   4.333  0.1787  0.0072 -0.5152
  805MOL0     N 8592   3.730   2.821   4.329 -0.4840 -0.2008  0.0887
  805MOL0     C 8593   2.690   3.324   4.365  0.2212 -0.0951  0.0443
  805MOL0     C 8594   2.551   3.336   4.382 -0.0757 -0.8234 -0.1690
  805MOL0     C 8595   2.126   3.320   4.223  0.0749 -0.2678  0.7339
  805MOL0     C 8596   2.060   3.261   4.322  0.5934 -0.2346  0.9479
  805MOL0     C 8597   1.917   3.267   4.334 -0.5686  1.0172  0.7137
  805MOL0     C 8598   1.849   3.346   4.237  0.7083 -0.2657 -0.3930
  805MOL0     O 8599   1.713   3.355   4.233  0.4532 -0.3151 -0.0632
  805MOL0     C 8600   1.628   3.267   4.306  0.6460  0.6234 -0.0190
  805MOL0     C 8601   1.630   3.123   4.251  0.1364  0.4354  0.1871
  805MOL0     C 8602   1.537   3.098   4.126  0.6141 -0.4686  0.4260
  805MOL0     C 8603   1.389   3.104   4.142  0.3209 -0.0189  0.5347
  805MOL0     C 8604   1.332   3.000   4.228  0.6144  1.0181 -0.1955
  805MOL0     C 8605   1.267   2.926   4.305 -0.6864 -1.5044 -0.2400
  805MOL0     C 8606   1.910   3.408   4.134  0.0211 -0.9087  0.0350
  805MOL0     C 8607   2.054   3.399   4.129  0.4750 -0.5008  0.0437
  805MOL0     H 8608   2.453   3.069   4.204  0.7269  0.1161 -1.0432
  805MOL0     H 8609   2.703   3.059   4.168 -1.3819  0.1532 -1.0720
  805MOL0     H 8610   2.897   3.182   4.077 -0.8125  0.3301  0.9037
  805MOL0     H 8611   2.895   3.358   4.128  0.6323  1.0483  3.0297
  805MOL0     H 8612   3.110   3.317   4.064 -2.1107  0.3564 -0.8682
  805MOL0     H 8613   3.109   3.337   4.242  2.8907  2.0801 -3.1474
  805MOL0     H 8614   3.079   3.084   4.258 -2.6333  2.4664 -0.0290
  805MOL0     H 8615   3.126   3.074   4.082  2.7549 -0.5665 -1.0357
  805MOL0     H 8616   3.340   3.172   4.121 -0.6625  0.3731  0.5315
  805MOL0     H 8617   3.298   3.209   4.294  0.1202 -1.4840  1.7994
  805MOL0     H 8618   3.299   2.977   4.345 -1.4248 -1.3569 -1.3381
  805MOL0     H 8619   3.340   2.942   4.172  2.9333 -0.1869  0.6489
  805MOL0     H 8620   3.498   3.127   4.358  0.8283 -0.6854  0.3259
  805MOL0     H 8621   3.517   2.956   4.374 -2.8561 -1.7708 -0.0916
  805MOL0     H 8622   3.567   2.975   4.107 -2.1837 -3.1032  3.5624
  805MOL0     H 8623   3.558   3.156   4.149 -4.7222  1.1863  3.2280
  805MOL0     H 8624   3.735   3.085   4.320  1.1392 -1.1815  0.3351
  805MOL0     H 8625   3.787   3.094   4.140 -0.3661 -2.1410 -1.8157
  805MOL0     H 8626   3.946   2.895   4.085 -0.7260 -1.3501 -0.9374
  805MOL0     H 8627   4.086   2.670   4.125 -1.9963  0.8363 -2.3158
  805MOL0     H 8628   4.122   2.709   4.302 -0.3122  0.2119 -0.4176
  805MOL0     H 8629   3.938   2.520   4.342 -2.9553 -1.5987 -1.6258
  805MOL0     H 8630   4.101   2.470   4.274 -0.7667 -2.0409 -3.4477
  805MOL0     H 8631   4.034   2.435   4.070  0.1905 -1.1704  2.1342
  805MOL0     H 8632   3.892   2.555   4.087  0.2999  2.4585  3.2916
  805MOL0     H 8633   3.783   2.401   4.241 -0.4295  0.6235  0.2703
  805MOL0     H 8634   3.890   2.277   4.198  2.1292  1.4449  2.4506
  805MOL0     H 8635   3.673   2.571   4.164 -1.1825  3.2637 -1.6222
  805MOL0     H 8636   3.409   2.746   4.176  1.2593  0.7222  0.5959
  805MOL0     H 8637   3.345   2.605   4.280  0.7141  1.4226  1.4142
  805MOL0     H 8638   3.503   2.660   4.295 -0.0924  0.1868  0.0694
  805MOL0     H 8639   3.203   2.824   3.736  1.7267 -0.5486  1.1315
  805MOL0     H 8640   2.989   2.925   3.659 -1.9946 -0.2349  1.2781
  805MOL0     H 8641   2.610   2.833   3.939  1.0918  0.0366  0.5999
  805MOL0     H 8642   2.649   2.995   3.972 -1.2375  2.5756 -0.6307
  805MOL0     H 8643   2.562   3.071   3.750  2.4798 -1.9923 -3.0865
  805MOL0     H 8644   2.522   2.909   3.722 -0.3022  1.2961 -1.0655
  805MOL0     H 8645   2.346   3.055   3.807 -0.1704  1.3709  0.5642
  805MOL0     H 8646   2.409   3.052   3.966 -3.2228 -0.8409  0.3935
  805MOL0     H 8647   2.290   2.812   3.827 -1.1740 -0.9885  1.4251
  805MOL0     H 8648   2.386   2.796   3.974  1.4801 -3.2433 -4.6814
  805MOL0     H 8649   2.224   2.965   4.078  1.7212  2.6512 -2.2138
  805MOL0     H 8650   2.163   2.806   4.027  1.0048  0.0450 -1.6257
  805MOL0     H 8651   2.124   3.052   3.862  0.2512  2.2921  4.7339
  805MOL0     H 8652   2.056   2.888   3.833  0.4245  1.9750 -2.4824
  805MOL0     H 8653   1.995   3.092   4.054  3.2692 -1.7928  1.0108
  805MOL0     H 8654   1.944   2.924   4.046  2.6755  0.4838  2.1819
  805MOL0     H 8655   1.869   3.142   3.839 -1.9812  0.9840 -0.3067
  805MOL0     H 8656   1.760   3.066   3.935  0.4202 -0.5299 -2.4076
  805MOL0     H 8657   2.833   2.846   4.057 -0.4720 -1.4430 -0.8795
  805MOL0     H 8658   3.049   2.777   4.132  4.5007  5.4842  2.1362
  805MOL0     H 8659   3.362   2.395   3.829 -0.9102 -3.1970  1.6544
  805MOL0     H 8660   3.602   2.302   3.854  2.4832  1.5152  0.1798
  805MOL0     H 8661   2.755   3.396   4.415  0.4324 -0.6582  0.5920
  805MOL0     H 8662   2.524   3.431   4.425  1.0049  1.1705 -3.5280
  805MOL0     H 8663   2.105   3.207   4.405  0.5033  1.0905  1.8840
  805MOL0     H 8664   1.866   3.192   4.394  1.2080 -1.2613 -0.4728
  805MOL0     H 8665   1.658   3.255   4.411 -1.1068  0.6671  0.5229
  805MOL0     H 8666   1.528   3.306   4.328 -0.0619 -2.6334  3.7802
  805MOL0     H 8667   1.589   3.056   4.327 -0.2748  0.0734 -0.3405
  805MOL0     H 8668   1.732   3.085   4.238 -0.1017 -0.8212  1.6655
  805MOL0     H 8669   1.563   2.999   4.087  1.0764 -0.1315 -0.1560
  805MOL0     H 8670   1.556   3.181   4.057 -1.3490  2.5000  3.2011
  805MOL0     H 8671   1.334   3.110   4.048  0.2757 -1.6066  0.4337
  805MOL0     H 8672   1.364   3.200   4.188 -0.6008  0.0612 -0.1233
  805MOL0     H 8673   1.203   2.874   4.374 -0.0108 -2.1719 -0.1089
  805MOL0     H 8674   1.869   3.479   4.062  1.6668 -0.8862 -0.9485
  805MOL0     H 8675   2.108   3.453   4.052  2.3666  2.1882  3.0497
  806MOL0     O 8676   6.780   6.613   5.720 -0.1551  0.0145  0.2210
  806MOL0     C 8677   6.744   6.502   5.691 -0.0204  0.0489  0.8917
  806MOL0     O 8678   6.626   6.470   5.618  0.1834 -0.2830  0.6053
  806MOL0     C 8679   6.548   6.573   5.560  0.0804  0.7215  0.1102
  806MOL0     C 8680   6.577   6.595   5.427 -0.7219 -0.4260  1.1477
  806MOL0     C 8681   6.521   6.705   5.358  0.4336 -0.6033 -0.3949
  806MOL0     C 8682   6.424   6.790   5.435 -1.1554  0.1286  0.4689
  806MOL0     O 8683   6.346   6.885   5.372 -0.0368 -0.4687 -0.0457
  806MOL0     C 8684   6.404   6.947   5.254  0.0459  0.7154 -0.4226
  806MOL0     C 8685   6.326   7.068   5.214  0.6022  0.0373 -0.7744
  806MOL0     C 8686   6.414   7.156   5.119 -0.2073  0.4289  0.1936
  806MOL0     C 8687   6.395   7.110   4.978  0.3598 -0.1966 -0.1909
  806MOL0     C 8688   6.477   7.194   4.882  0.2100 -0.6552  0.4432
  806MOL0     C 8689   6.507   7.131   4.753  0.0366  0.0242  0.0554
  806MOL0     C 8690   6.379   7.101   4.670 -0.3402 -1.2041 -0.4996
  806MOL0     C 8691   6.411   7.047   4.530  0.7900  0.6383 -0.8829
  806MOL0     N 8692   6.457   6.906   4.531 -0.5675 -1.1503 -0.2773
  806MOL0     C 8693   6.403   6.792   4.585 -0.0869 -0.4682  0.2665
  806MOL0     C 8694   6.475   6.691   4.542  0.3289 -0.1155  0.2134
  806MOL0     C 8695   6.431   6.548   4.566  0.1977  0.0305 -0.5818
  806MOL0     C 8696   6.498   6.488   4.685 -0.0420 -0.5226  0.2398
  806MOL0     C 8697   6.486   6.336   4.682 -0.6369 -0.1439 -0.0136
  806MOL0     C 8698   6.502   6.298   4.830  0.2395  0.2809 -0.1864
  806MOL0     O 8699   6.541   6.171   4.836  0.1799 -0.0374  0.3772
  806MOL0     C 8700   6.554   6.120   4.964  0.3416 -0.1597 -0.9423
  806MOL0     C 8701   6.532   6.187   5.091 -0.3018 -0.5615 -0.0115
  806MOL0     C 8702   6.574   6.136   5.216  0.5902 -0.3825 -0.2061
  806MOL0     C 8703   6.534   6.214   5.338 -0.0814 -0.0093 -0.7764
  806MOL0     C 8704   6.644   6.011   5.222  0.0907  0.6204  0.6901
  806MOL0     C 8705   6.714   5.965   5.339 -0.5768 -0.7385 -1.1265
  806MOL0     O 8706   6.733   5.825   5.344  0.3491 -0.0356 -0.9329
  806MOL0     C 8707   6.776   5.774   5.470  0.3475  0.2068  0.7913
  806MOL0     C 8708   6.726   5.644   5.490 -0.4375 -0.1780  0.7806
  806MOL0     C 8709   6.762   5.552   5.593  0.4335  0.8968 -0.5186
  806MOL0     C 8710   6.845   5.605   5.690  0.5171 -0.0362 -0.1445
  806MOL0     O 8711   6.879   5.532   5.800 -0.4077 -0.1665  0.0714
  806MOL0     C 8712   6.820   5.404   5.829  0.0377  0.9829  0.8033
  806MOL0     C 8713   6.892   5.297   5.747  0.5040  0.0725 -1.2253
  806MOL0     C 8714   6.825   5.162   5.784 -0.4459 -0.0067  1.0463
  806MOL0     C 8715   6.878   5.104   5.919 -0.1563  0.2615  0.5298
  806MOL0     C 8716   6.826   4.953   5.951 -0.1437 -0.0706 -0.8196
  806MOL0     C 8717   6.914   4.849   5.886 -0.0515  0.0997  0.8327
  806MOL0     C 8718   6.876   4.705   5.933 -0.1502  1.7258  0.8414
  806MOL0     C 8719   6.892   4.602   5.814  0.9048 -0.1119 -0.1761
  806MOL0    Cl 8720   6.748   4.608   5.708  0.2363 -0.2415  0.0180
  806MOL0     C 8721   6.897   5.732   5.678 -0.8937  0.8585  0.0972
  806MOL0     C 8722   6.864   5.815   5.571 -0.4366  0.3840 -0.0427
  806MOL0     O 8723   6.750   6.048   5.422 -0.0548  0.6110 -0.3013
  806MOL0     C 8724   6.659   5.944   5.096 -0.0800  0.3621  0.6487
  806MOL0     C 8725   6.606   5.994   4.973 -1.0064  1.1819 -0.2227
  806MOL0     N 8726   6.579   6.738   4.463  0.9526 -0.3701  0.0434
  806MOL0     N 8727   6.570   6.866   4.468  0.7620  0.1752 -0.5888
  806MOL0     C 8728   6.393   6.761   5.567 -0.1953  0.7126 -0.1337
  806MOL0     C 8729   6.449   6.647   5.628  0.4247  0.0124 -0.0632
  806MOL0     C 8730   6.824   6.387   5.728  0.9976  0.2694 -0.1297
  806MOL0     C 8731   6.928   6.401   5.819  0.3005 -0.6815 -0.5008
  806MOL0     C 8732   7.002   6.291   5.861  0.4078 -0.4358  0.3722
  806MOL0     C 8733   6.974   6.169   5.816  0.4221  0.1118  0.0228
  806MOL0     O 8734   7.043   6.056   5.835  0.4961 -0.4198 -0.1999
  806MOL0     C 8735   7.183   6.069   5.820 -0.5345  0.2924  0.4071
  806MOL0     C 8736   7.244   5.920   5.828 -0.7462 -0.4421 -0.6457
  806MOL0     C 8737   7.248   5.869   5.975 -0.0767  0.4311  0.0792
  806MOL0     C 8738   7.332   5.738   5.981 -0.4373 -0.7106  0.1169
  806MOL0     C 8739   7.267   5.629   5.904 -0.6342 -0.3147  1.1393
  806MOL0     C 8740   7.199   5.544   5.848 -0.2056  0.0707 -0.0030
  806MOL0     C 8741   6.862   6.147   5.731 -0.4254  0.3321  0.1562
  806MOL0     C 8742   6.789   6.262   5.681 -0.6419  0.6636 -0.6280
  806MOL0     H 8743   6.659   6.534   5.388 -0.9788  0.4301 -0.8680
  806MOL0     H 8744   6.558   6.738   5.261 -1.6847 -0.7684 -1.3246
  806MOL0     H 8745   6.506   6.981   5.273 -0.5766  2.2347  0.3335
  806MOL0     H 8746   6.407   6.878   5.169  2.2125 -0.9189  0.8681
  806MOL0     H 8747   6.237   7.028   5.164  0.4109  2.0420 -2.1712
  806MOL0     H 8748   6.300   7.126   5.303  2.3095  0.2713 -0.3885
  806MOL0     H 8749   6.369   7.256   5.123  0.0625  0.5705 -0.1748
  806MOL0     H 8750   6.521   7.165   5.141 -0.4649  2.9153  0.7110
  806MOL0     H 8751   6.439   7.009   4.974 -1.2212 -0.8730 -1.9100
  806MOL0     H 8752   6.292   7.101   4.942  0.2434 -2.6322  0.5579
  806MOL0     H 8753   6.442   7.298   4.876  1.6830 -0.0913  0.9764
  806MOL0     H 8754   6.569   7.207   4.940 -0.4075 -0.3716  1.3950
  806MOL0     H 8755   6.587   7.190   4.707  0.3739  0.5813  1.3015
  806MOL0     H 8756   6.557   7.036   4.773 -1.6473 -0.7288  0.8563
  806MOL0     H 8757   6.321   7.030   4.729 -3.7151 -0.3437 -2.5364
  806MOL0     H 8758   6.324   7.192   4.645  0.2936 -1.4221 -2.9814
  806MOL0     H 8759   6.489   7.106   4.480  1.3442 -1.1263 -2.2327
  806MOL0     H 8760   6.327   7.048   4.460  0.4965  3.2207 -0.5670
  806MOL0     H 8761   6.312   6.791   4.643 -0.7258  0.5422 -0.6908
  806MOL0     H 8762   6.323   6.544   4.580 -0.4308  4.1719 -2.7125
  806MOL0     H 8763   6.449   6.477   4.485 -1.8516 -2.5736  1.0825
  806MOL0     H 8764   6.458   6.522   4.781  2.1675  2.6827  0.1959
  806MOL0     H 8765   6.606   6.507   4.680  0.1868 -1.5899  0.8239
  806MOL0     H 8766   6.565   6.296   4.617  2.3419  1.0279  2.5959
  806MOL0     H 8767   6.389   6.305   4.644 -1.9400  2.8659  0.5498
  806MOL0     H 8768   6.406   6.300   4.882 -0.2142 -1.4186 -0.8897
  806MOL0     H 8769   6.578   6.357   4.882 -0.7822  0.3895  1.2695
  806MOL0     H 8770   6.488   6.286   5.081  1.0979  0.2418  1.3648
  806MOL0     H 8771   6.608   6.292   5.358  1.8425 -2.5396  3.3293
  806MOL0     H 8772   6.435   6.260   5.339 -1.0561 -2.0187 -0.6957
  806MOL0     H 8773   6.528   6.151   5.427  0.7891 -1.4470 -1.6954
  806MOL0     H 8774   6.660   5.605   5.412  0.5353 -2.2738  0.9391
  806MOL0     H 8775   6.720   5.452   5.595  0.8828  0.6981 -0.7939
  806MOL0     H 8776   6.826   5.386   5.937  1.4817 -0.0009  0.5871
  806MOL0     H 8777   6.714   5.406   5.802  0.5119 -2.6436 -1.9503
  806MOL0     H 8778   6.889   5.326   5.641  1.3390 -1.2026 -1.6239
  806MOL0     H 8779   6.997   5.286   5.774 -0.0240  0.5578  1.2557
  806MOL0     H 8780   6.833   5.087   5.706 -1.3161 -0.3596  1.2743
  806MOL0     H 8781   6.719   5.182   5.806 -0.7019 -2.5825  2.5940
  806MOL0     H 8782   6.987   5.100   5.920 -0.0696  1.1999  3.2387
  806MOL0     H 8783   6.847   5.170   6.000 -2.4516 -0.5408  0.3727
  806MOL0     H 8784   6.718   4.953   5.933 -1.0628  2.2723  3.4227
  806MOL0     H 8785   6.830   4.943   6.060  1.6245 -3.8595 -1.0413
  806MOL0     H 8786   6.899   4.860   5.778  3.2410 -2.7571 -0.0722
  806MOL0     H 8787   7.013   4.875   5.922  1.3722 -1.5502 -1.6168
  806MOL0     H 8788   6.776   4.705   5.978 -1.4113 -1.4002 -1.5871
  806MOL0     H 8789   6.949   4.674   6.008  0.6164  0.8709 -0.2248
  806MOL0     H 8790   6.890   4.504   5.862 -2.5803 -0.1512 -0.1575
  806MOL0     H 8791   6.989   4.616   5.764  1.4802  0.9716  1.1872
  806MOL0     H 8792   6.976   5.767   5.744  2.7993 -3.9263 -1.1768
  806MOL0     H 8793   6.921   5.907   5.558  0.2992 -0.2354 -1.4409
  806MOL0     H 8794   6.703   5.846   5.081  0.1831  0.3998  1.1392
  806MOL0     H 8795   6.617   5.931   4.885  1.5273 -0.2688  1.0199
  806MOL0     H 8796   6.307   6.821   5.598 -0.9648  0.2723 -1.3113
  806MOL0     H 8797   6.423   6.626   5.731  0.3988 -1.9348 -0.4385
  806MOL0     H 8798   6.955   6.498   5.860 -4.4852  1.0140 -0.7239
  806MOL0     H 8799   7.089   6.314   5.922  1.5927  1.5865 -1.9217
  806MOL0     H 8800   7.207   6.106   5.720 -0.5725  1.0948  0.6893
  806MOL0     H 8801   7.227   6.129   5.900  0.2012  1.0145 -0.5178
  806MOL0     H 8802   7.343   5.919   5.783 -0.2372  0.6677  0.3961
  806MOL0     H 8803   7.176   5.860   5.767 -2.4355 -1.0770  1.7027
  806MOL0     H 8804   7.144   5.857   6.008  0.4227  2.4271  2.7843
  806MOL0     H 8805   7.288   5.940   6.049 -3.1391 -0.9265  3.3471
  806MOL0     H 8806   7.336   5.710   6.086  1.5935 -1.2270 -0.0541
  806MOL0     H 8807   7.438   5.747   5.957 -0.1403  3.0155  2.1409
  806MOL0     H 8808   7.140   5.462   5.811 -0.5015  0.7256 -1.0065
  806MOL0     H 8809   6.834   6.050   5.693  2.8851  0.0224 -1.8386
  806MOL0     H 8810   6.702   6.241   5.620 -0.8383  0.8642 -0.4191
  807MOL0     O 8811   6.618   7.023   8.209 -0.4709 -0.3733  0.0460
  807MOL0     C 8812   6.653   6.909   8.245 -0.4636 -0.6193 -0.5929
  807MOL0     O 8813   6.560   6.824   8.295  0.2035 -0.1420  0.5967
  807MOL0     C 8814   6.431   6.864   8.297  0.0344  0.7128 -0.3857
  807MOL0     C 8815   6.338   6.769   8.241 -0.0098  0.0500 -0.4795
  807MOL0     C 8816   6.206   6.791   8.235 -0.5170  0.3039 -0.5413
  807MOL0     C 8817   6.151   6.900   8.297 -0.4464  0.3067 -0.0388
  807MOL0     O 8818   6.015   6.900   8.300 -0.2197 -0.3488  0.6172
  807MOL0     C 8819   5.945   6.960   8.412  0.1751  0.0991  0.1634
  807MOL0     C 8820   5.798   6.919   8.405  0.0191 -0.5587  0.7892
  807MOL0     C 8821   5.737   6.957   8.268 -0.0436  0.3039  0.4369
  807MOL0     C 8822   5.587   6.965   8.293 -1.3487  0.5469 -0.6070
  807MOL0     C 8823   5.493   6.960   8.168  0.0874  0.0684  0.0812
  807MOL0     C 8824   5.355   7.014   8.212 -0.5824  0.3379 -0.8281
  807MOL0     C 8825   5.247   6.997   8.100 -0.4801  0.2001  0.5723
  807MOL0     C 8826   5.201   7.122   8.022 -0.2123 -0.2673  0.3687
  807MOL0     N 8827   5.078   7.120   7.941 -0.4278 -0.0180  0.1443
  807MOL0     C 8828   5.042   7.006   7.872 -1.0866 -0.3789  0.5977
  807MOL0     C 8829   4.934   7.045   7.806  0.8570 -0.7322  0.5342
  807MOL0     C 8830   4.852   6.947   7.725 -0.2849  0.0202  0.2715
  807MOL0     C 8831   4.712   7.004   7.697 -0.1475 -1.0796  0.6634
  807MOL0     C 8832   4.631   6.906   7.612 -0.0320  0.3786 -0.8593
  807MOL0     C 8833   4.491   6.962   7.611 -0.1603  1.0753  0.6784
  807MOL0     O 8834   4.412   6.906   7.505 -0.1796 -0.7240  0.0076
  807MOL0     C 8835   4.416   6.962   7.379  0.2026 -0.0045  0.8092
  807MOL0     C 8836   4.472   7.087   7.337  0.0357  0.2527 -0.1130
  807MOL0     C 8837   4.435   7.142   7.219 -0.4402 -0.1348 -0.7392
  807MOL0     C 8838   4.511   7.273   7.180  0.1724 -0.4449 -0.8124
  807MOL0     C 8839   4.363   7.073   7.122  0.0372 -0.4070 -0.2800
  807MOL0     C 8840   4.311   7.131   6.995 -0.3207 -0.9168 -0.7732
  807MOL0     O 8841   4.265   7.053   6.894 -0.3414 -0.1138  1.5233
  807MOL0     C 8842   4.157   7.099   6.815 -0.0424 -0.3251 -0.3094
  807MOL0     C 8843   4.058   7.001   6.790 -0.8651  0.6305  0.8858
  807MOL0     C 8844   3.949   7.036   6.704 -0.1166 -0.4641  1.0793
  807MOL0     C 8845   3.941   7.164   6.639 -0.1222  0.3684  0.9997
  807MOL0     O 8846   3.842   7.178   6.538  0.8306  0.5644 -0.1615
  807MOL0     C 8847   3.834   7.297   6.459  0.5777  0.9164  0.2973
  807MOL0     C 8848   3.711   7.306   6.363 -0.8059  0.4918  0.0764
  807MOL0     C 8849   3.717   7.182   6.259 -0.0400 -0.4677  0.6661
  807MOL0     C 8850   3.595   7.191   6.155  0.4354 -0.8444 -0.0338
  807MOL0     C 8851   3.459   7.198   6.223  0.1897  0.0463  0.0623
  807MOL0     C 8852   3.327   7.179   6.139 -0.2423  0.2235  0.0074
  807MOL0     C 8853   3.277   7.315   6.074 -0.2072 -0.0179 -0.5438
  807MOL0     C 8854   3.379   7.343   5.968 -0.2033 -0.2190 -0.2452
  807MOL0    Cl 8855   3.283   7.436   5.855  0.0250 -0.6001  0.4555
  807MOL0     C 8856   4.039   7.254   6.665 -0.6053 -0.1373  0.0661
  807MOL0     C 8857   4.141   7.230   6.753 -0.3888  0.1453  0.5338
  807MOL0     O 8858   4.292   7.260   7.006  0.4109 -0.0205  0.3978
  807MOL0     C 8859   4.308   6.951   7.153 -0.1444  0.4666 -1.2477
  807MOL0     C 8860   4.339   6.893   7.283  0.0251 -0.3716  1.1284
  807MOL0     N 8861   4.905   7.181   7.824  0.8191  0.1688 -0.4685
  807MOL0     N 8862   4.996   7.230   7.900  0.2499  0.1519 -0.3922
  807MOL0     C 8863   6.237   6.995   8.354  1.0245 -0.8995 -0.1118
  807MOL0     C 8864   6.375   6.979   8.353  0.0679 -0.6557  0.0169
  807MOL0     C 8865   6.791   6.858   8.231 -0.1862  0.6376 -0.0174
  807MOL0     C 8866   6.890   6.959   8.237  0.0373 -0.1175  0.2776
  807MOL0     C 8867   7.026   6.921   8.213  1.2738 -0.5007  0.4532
  807MOL0     C 8868   7.057   6.784   8.205  0.5912 -0.6091 -0.5424
  807MOL0     O 8869   7.187   6.740   8.199 -0.2875  0.5223  0.4586
  807MOL0     C 8870   7.298   6.818   8.153  0.0836  0.4220  0.2749
  807MOL0     C 8871   7.354   6.888   8.278 -0.8666  0.1535  0.1780
  807MOL0     C 8872   7.414   6.799   8.401 -0.1301  1.1960  0.7259
  807MOL0     C 8873   7.491   6.900   8.482 -0.5369 -0.7621  0.0139
  807MOL0     C 8874   7.625   6.924   8.424  0.1649  0.0902 -0.5003
  807MOL0     C 8875   7.740   6.945   8.386 -0.4643  0.4572  0.2784
  807MOL0     C 8876   6.965   6.679   8.202  0.7816 -0.3414  0.2425
  807MOL0     C 8877   6.823   6.721   8.215 -0.2208  0.9279  0.5531
  807MOL0     H 8878   6.385   6.680   8.201 -0.9445 -0.4372 -0.5132
  807MOL0     H 8879   6.152   6.704   8.198 -0.2969  1.8347 -4.9749
  807MOL0     H 8880   5.980   6.909   8.502 -0.5955 -2.2577 -0.7792
  807MOL0     H 8881   5.956   7.069   8.416 -4.8307  0.8729 -0.3734
  807MOL0     H 8882   5.790   6.814   8.434  3.1843 -1.3875 -0.8315
  807MOL0     H 8883   5.744   6.976   8.481 -1.8600  1.3820 -1.7976
  807MOL0     H 8884   5.775   7.050   8.226 -0.4196  0.3503  0.1977
  807MOL0     H 8885   5.762   6.877   8.198  1.4711 -1.2901  2.6204
  807MOL0     H 8886   5.554   6.878   8.350 -0.7680 -1.3777 -3.0387
  807MOL0     H 8887   5.565   7.053   8.354  0.8742 -0.1687  1.3867
  807MOL0     H 8888   5.534   7.004   8.077 -0.8936 -0.2737 -0.5458
  807MOL0     H 8889   5.473   6.856   8.140 -1.5621  1.0772 -2.8774
  807MOL0     H 8890   5.323   6.962   8.303  1.1087  0.5697 -0.0518
  807MOL0     H 8891   5.363   7.121   8.233 -3.2863  1.1834 -3.3396
  807MOL0     H 8892   5.268   6.914   8.032 -1.0354 -0.1652  0.8389
  807MOL0     H 8893   5.155   6.959   8.145 -0.4555 -1.3032 -0.5732
  807MOL0     H 8894   5.289   7.161   7.970 -0.7865  1.1546  0.4091
  807MOL0     H 8895   5.166   7.194   8.097 -0.8726  1.6391 -1.6425
  807MOL0     H 8896   5.086   6.907   7.877  0.6359  0.3235  0.2203
  807MOL0     H 8897   4.900   6.925   7.629 -0.7164  0.9510 -0.1749
  807MOL0     H 8898   4.833   6.855   7.782 -2.1134  0.7857  0.9968
  807MOL0     H 8899   4.713   7.102   7.649 -0.1695 -0.8241  1.1858
  807MOL0     H 8900   4.651   7.018   7.786 -0.4389 -1.1082  0.4709
  807MOL0     H 8901   4.626   6.801   7.641 -0.0388  0.0826 -1.8628
  807MOL0     H 8902   4.678   6.922   7.514  1.5537  0.2372 -0.1481
  807MOL0     H 8903   4.488   7.070   7.625  1.0401  1.2659 -0.3686
  807MOL0     H 8904   4.448   6.913   7.699  0.3789 -0.0757  0.3263
  807MOL0     H 8905   4.526   7.143   7.413 -0.5939  0.8957 -0.1314
  807MOL0     H 8906   4.589   7.292   7.254  1.7212 -1.8685 -2.0102
  807MOL0     H 8907   4.558   7.258   7.082  1.3124 -0.0361 -0.3490
  807MOL0     H 8908   4.439   7.356   7.179 -1.9470 -2.1465  1.1965
  807MOL0     H 8909   4.067   6.900   6.828 -1.4411  1.0044  2.0554
  807MOL0     H 8910   3.882   6.954   6.680  0.5384 -0.6883 -0.0008
  807MOL0     H 8911   3.834   7.382   6.527 -0.7519  1.3531 -0.2130
  807MOL0     H 8912   3.932   7.319   6.417  0.8727  0.6122  0.8183
  807MOL0     H 8913   3.625   7.292   6.429 -2.4186 -0.2198 -2.0619
  807MOL0     H 8914   3.702   7.404   6.315  0.9720 -0.3578 -2.2231
  807MOL0     H 8915   3.707   7.094   6.323  0.9609 -0.3327  1.0393
  807MOL0     H 8916   3.812   7.181   6.205 -0.9486 -1.0242 -0.9887
  807MOL0     H 8917   3.623   7.280   6.097 -0.7350  0.4855  1.3605
  807MOL0     H 8918   3.609   7.099   6.098  0.6184 -0.0044 -1.3835
  807MOL0     H 8919   3.443   7.284   6.288  1.5379  1.3632 -1.2627
  807MOL0     H 8920   3.460   7.110   6.288 -3.3339  0.3829  0.7745
  807MOL0     H 8921   3.336   7.094   6.070 -0.1416 -0.2178  0.5567
  807MOL0     H 8922   3.254   7.154   6.216  0.9159  0.3425  1.1655
  807MOL0     H 8923   3.267   7.395   6.148 -3.0988 -0.6495 -0.1354
  807MOL0     H 8924   3.179   7.294   6.030 -0.4293  0.3917 -0.2497
  807MOL0     H 8925   3.421   7.259   5.911  2.7659  0.2151  1.1285
  807MOL0     H 8926   3.463   7.401   6.008  0.6958  2.6248 -5.3199
  807MOL0     H 8927   4.029   7.353   6.622 -0.3991  1.0458  2.5766
  807MOL0     H 8928   4.209   7.311   6.775  0.6384 -1.0000  1.7353
  807MOL0     H 8929   4.225   6.905   7.101 -1.1529  1.1755 -0.3086
  807MOL0     H 8930   4.283   6.805   7.315 -0.4200 -0.9547 -1.0857
  807MOL0     H 8931   6.201   7.091   8.389  0.2449  0.1819 -3.5013
  807MOL0     H 8932   6.442   7.061   8.379  1.0045 -0.4349 -2.7568
  807MOL0     H 8933   6.875   7.066   8.251 -0.0293  0.1675 -1.6332
  807MOL0     H 8934   7.095   7.004   8.197 -0.0812  1.8743  5.2184
  807MOL0     H 8935   7.367   6.752   8.100 -1.8406 -2.8432  1.5634
  807MOL0     H 8936   7.266   6.899   8.087 -1.4075 -2.2418 -2.4688
  807MOL0     H 8937   7.286   6.963   8.321  0.3814  2.9349 -2.3520
  807MOL0     H 8938   7.442   6.943   8.244 -1.2381  0.6214 -0.0484
  807MOL0     H 8939   7.469   6.714   8.359 -1.8671 -0.6030  1.9236
  807MOL0     H 8940   7.326   6.759   8.453 -0.7997 -1.4913 -2.1216
  807MOL0     H 8941   7.501   6.882   8.590 -0.0080  0.6698  0.2226
  807MOL0     H 8942   7.445   6.999   8.480  0.0122 -0.4635  1.3750
  807MOL0     H 8943   7.842   6.948   8.355  0.1304  1.7634  2.2197
  807MOL0     H 8944   6.993   6.575   8.187 -1.3360 -0.6104 -2.7732
  807MOL0     H 8945   6.750   6.642   8.232  0.3209  1.0018  4.0115
  808MOL0     O 8946   4.293   9.362   3.754  0.4122 -0.3169  0.3701
  808MOL0     C 8947   4.392   9.382   3.680 -0.0418 -0.9175 -0.4770
  808MOL0     O 8948   4.458   9.502   3.657 -0.2445 -0.1845  0.0072
  808MOL0     C 8949   4.418   9.613   3.730  0.3678  1.4056  0.7647
  808MOL0     C 8950   4.349   9.629   3.851 -0.6115 -0.0769  0.9132
  808MOL0     C 8951   4.325   9.753   3.904  0.6090 -0.1286 -0.0988
  808MOL0     C 8952   4.379   9.868   3.840 -0.3038  0.6650 -0.1880
  808MOL0     O 8953   4.345   9.980   3.910  0.4239 -0.3926  0.2511
  808MOL0     C 8954   4.369  10.105   3.846  0.5563 -0.2925  0.0257
  808MOL0     C 8955   4.316  10.208   3.954  0.4398  0.0299  0.2712
  808MOL0     C 8956   4.312  10.341   3.879  0.0374 -0.0624  0.0384
  808MOL0     C 8957   4.175  10.419   3.907  0.1399 -0.3428 -0.9593
  808MOL0     C 8958   4.147  10.517   3.799 -0.2205 -0.2326 -0.3910
  808MOL0     C 8959   4.228  10.648   3.819 -0.4657  0.5929  0.1265
  808MOL0     C 8960   4.168  10.760   3.741 -0.5350 -0.7207 -0.2032
  808MOL0     C 8961   4.225  10.899   3.768 -0.6330  0.1915 -0.0232
  808MOL0     N 8962   4.147  10.999   3.703  0.2727 -0.1710  0.0039
  808MOL0     C 8963   4.161  11.017   3.566 -0.7828 -0.3969 -0.9024
  808MOL0     C 8964   4.052  11.098   3.546 -0.2225  0.2202  0.0126
  808MOL0     C 8965   4.009  11.148   3.409 -0.1059  0.0155 -1.1275
  808MOL0     C 8966   3.886  11.078   3.350 -0.1975  0.1095  0.2685
  808MOL0     C 8967   3.761  11.068   3.433  0.4220  0.0022 -0.4796
  808MOL0     C 8968   3.689  11.204   3.447 -0.3316  0.3112  0.4687
  808MOL0     O 8969   3.716  11.295   3.329 -0.1191  0.3626 -0.0523
  808MOL0     C 8970   3.664  11.421   3.339  0.3083  0.4146  0.4667
  808MOL0     C 8971   3.721  11.512   3.257  0.2539 -0.9080 -0.0199
  808MOL0     C 8972   3.690  11.649   3.266 -0.1030  0.9545  0.4763
  808MOL0     C 8973   3.739  11.742   3.154 -0.5939 -0.7968  0.1445
  808MOL0     C 8974   3.593  11.694   3.363 -0.2364 -0.2873  0.6414
  808MOL0     C 8975   3.560  11.832   3.368  1.0592 -0.6848 -0.3998
  808MOL0     O 8976   3.428  11.855   3.417 -0.2552 -0.4401 -0.5914
  808MOL0     C 8977   3.353  11.970   3.389  0.2264 -0.4055  0.7403
  808MOL0     C 8978   3.369  12.047   3.268 -1.4120 -0.9635 -0.5167
  808MOL0     C 8979   3.296  12.164   3.247 -0.0896 -0.4465  0.0241
  808MOL0     C 8980   3.201  12.207   3.340 -0.5923  0.5106 -0.0099
  808MOL0     O 8981   3.145  12.327   3.310 -0.1074 -0.0078 -0.1290
  808MOL0     C 8982   3.140  12.425   3.415 -0.5184  0.0470 -0.5082
  808MOL0     C 8983   3.040  12.534   3.385 -0.0982  0.6612  0.2130
  808MOL0     C 8984   2.895  12.478   3.398 -1.0319 -0.3390  1.0109
  808MOL0     C 8985   2.797  12.570   3.463 -0.6446  0.4858  0.2145
  808MOL0     C 8986   2.651  12.530   3.423  0.4243  0.0536 -1.1550
  808MOL0     C 8987   2.535  12.590   3.508 -0.0422 -0.1303  0.6640
  808MOL0     C 8988   2.539  12.748   3.514 -0.5995  0.4202  0.7785
  808MOL0     C 8989   2.454  12.827   3.599  0.6096  0.1789  0.3988
  808MOL0    Cl 8990   2.538  12.825   3.754 -0.1882  0.0714  0.0138
  808MOL0     C 8991   3.182  12.132   3.461  0.1096 -0.0997  0.3364
  808MOL0     C 8992   3.253  12.019   3.478 -0.4369  0.2903 -0.3018
  808MOL0     O 8993   3.636  11.927   3.357  0.1071  0.0499  0.2740
  808MOL0     C 8994   3.542  11.599   3.451  0.7825 -0.3487  0.1633
  808MOL0     C 8995   3.568  11.458   3.429 -0.3677  0.2622 -0.6108
  808MOL0     N 8996   3.978  11.118   3.662 -0.3749  0.2603 -0.0879
  808MOL0     N 8997   4.029  11.049   3.752 -0.1845  0.0413 -0.1926
  808MOL0     C 8998   4.450   9.852   3.726  0.6972 -0.0895 -0.1200
  808MOL0     C 8999   4.470   9.723   3.672 -0.6572  0.4739 -0.5214
  808MOL0     C 9000   4.439   9.270   3.597  0.4752 -0.3835  0.7029
  808MOL0     C 9001   4.582   9.249   3.577  1.0771  1.0285 -0.1869
  808MOL0     C 9002   4.623   9.122   3.524  0.1971 -0.6330  0.3485
  808MOL0     C 9003   4.528   9.023   3.488 -0.0302  0.2300 -0.1259
  808MOL0     O 9004   4.554   8.896   3.430 -0.1502 -0.1210  0.0028
  808MOL0     C 9005   4.677   8.879   3.368  0.8946 -0.8117  1.0004
  808MOL0     C 9006   4.651   8.793   3.239 -0.6379 -0.3065 -0.9683
  808MOL0     C 9007   4.598   8.650   3.282 -0.5567 -0.0222  0.0881
  808MOL0     C 9008   4.600   8.541   3.171 -0.9525  1.3480  0.0632
  808MOL0     C 9009   4.550   8.579   3.041  0.4928 -0.3349  0.2820
  808MOL0     C 9010   4.496   8.594   2.931  0.5036  0.1843 -0.2747
  808MOL0     C 9011   4.393   9.051   3.511 -0.2076  0.2025  0.2567
  808MOL0     C 9012   4.356   9.172   3.561  1.1133  0.0910  0.0251
  808MOL0     H 9013   4.318   9.540   3.905 -1.6545 -1.3846 -1.6626
  808MOL0     H 9014   4.261   9.761   3.991  0.0052  0.0982 -0.5637
  808MOL0     H 9015   4.475  10.127   3.835  0.0466  1.7039 -1.3516
  808MOL0     H 9016   4.314  10.112   3.752  2.0992 -2.0769 -1.0711
  808MOL0     H 9017   4.215  10.176   3.983 -1.2919 -1.8489 -6.1286
  808MOL0     H 9018   4.384  10.222   4.038 -0.6377 -0.8642  1.3346
  808MOL0     H 9019   4.398  10.404   3.902 -0.8941  1.8446 -1.4250
  808MOL0     H 9020   4.318  10.324   3.771  1.5040  1.5475 -0.1632
  808MOL0     H 9021   4.100  10.341   3.919 -1.4913  0.9157 -2.4093
  808MOL0     H 9022   4.166  10.472   4.002  0.9887  1.4560 -1.8191
  808MOL0     H 9023   4.159  10.470   3.701  3.0213 -1.1043  0.3038
  808MOL0     H 9024   4.040  10.534   3.795 -0.5779 -2.4276 -1.7939
  808MOL0     H 9025   4.236  10.680   3.923 -0.5551 -3.5983  1.6374
  808MOL0     H 9026   4.332  10.630   3.789  0.6270  3.0160  2.0990
  808MOL0     H 9027   4.186  10.739   3.635  1.4572 -1.3892  0.2282
  808MOL0     H 9028   4.061  10.762   3.763 -0.2277 -0.0946  1.4273
  808MOL0     H 9029   4.332  10.901   3.745 -1.3904  3.0312 -4.7105
  808MOL0     H 9030   4.215  10.917   3.876  0.1638 -2.2738  0.5225
  808MOL0     H 9031   4.241  10.976   3.506 -1.3325 -2.3321 -0.3793
  808MOL0     H 9032   3.982  11.254   3.420 -0.9479 -0.1452 -1.5896
  808MOL0     H 9033   4.102  11.142   3.352  0.0610 -1.8920 -0.6999
  808MOL0     H 9034   3.909  10.974   3.323 -0.3783  0.4376 -1.1925
  808MOL0     H 9035   3.861  11.122   3.253  0.6286  0.3731  0.1691
  808MOL0     H 9036   3.790  11.018   3.526 -2.2913 -0.0038  0.4493
  808MOL0     H 9037   3.688  10.997   3.392  0.5876 -0.2480 -0.3469
  808MOL0     H 9038   3.732  11.247   3.538  5.1275  0.7199 -1.9406
  808MOL0     H 9039   3.584  11.182   3.471  0.6371 -3.6957  1.8086
  808MOL0     H 9040   3.782  11.474   3.176  0.3794 -0.4154 -0.1619
  808MOL0     H 9041   3.822  11.806   3.186 -0.6616  0.4559 -2.0141
  808MOL0     H 9042   3.788  11.692   3.070  0.9128 -1.7721  1.5228
  808MOL0     H 9043   3.656  11.794   3.107 -0.8364 -3.0974 -2.2332
  808MOL0     H 9044   3.431  12.030   3.181 -0.3155  1.9955 -0.4363
  808MOL0     H 9045   3.302  12.217   3.152 -1.6177  0.3448  0.3401
  808MOL0     H 9046   3.121  12.383   3.514  0.3204  1.1336  0.1387
  808MOL0     H 9047   3.243  12.461   3.425  0.2999 -2.4446  0.6944
  808MOL0     H 9048   3.063  12.623   3.444  1.5926  1.6857 -1.8695
  808MOL0     H 9049   3.055  12.573   3.283 -1.1233 -3.0500 -1.5337
  808MOL0     H 9050   2.877  12.386   3.453 -2.7698  1.5015  3.7782
  808MOL0     H 9051   2.857  12.463   3.296 -0.3847 -2.0239  0.9916
  808MOL0     H 9052   2.816  12.565   3.571 -0.0574 -1.8701  0.0655
  808MOL0     H 9053   2.809  12.670   3.420  1.8434 -0.5946 -1.8745
  808MOL0     H 9054   2.637  12.423   3.441 -1.4519  0.4390 -0.0383
  808MOL0     H 9055   2.645  12.542   3.314  0.8530  2.1311 -0.9938
  808MOL0     H 9056   2.437  12.563   3.469  0.3076  2.6679 -2.6666
  808MOL0     H 9057   2.533  12.535   3.602  0.2129 -0.8399  0.2617
  808MOL0     H 9058   2.516  12.789   3.415 -0.3876 -1.3359 -0.0188
  808MOL0     H 9059   2.640  12.782   3.538 -0.7960  0.8558  1.0061
  808MOL0     H 9060   2.358  12.778   3.620 -0.9576  1.8488 -2.2561
  808MOL0     H 9061   2.432  12.931   3.571 -1.6647  0.0006  1.2781
  808MOL0     H 9062   3.104  12.151   3.534 -2.6299 -0.4449 -2.2958
  808MOL0     H 9063   3.247  11.965   3.572  2.5662  0.7933  0.3027
  808MOL0     H 9064   3.455  11.617   3.515  0.9502  1.0442  0.0299
  808MOL0     H 9065   3.510  11.391   3.491 -0.3304 -0.4329 -1.3163
  808MOL0     H 9066   4.495   9.940   3.681 -0.0234  0.2182 -0.2423
  808MOL0     H 9067   4.525   9.707   3.579  2.0635  2.8896  0.5280
  808MOL0     H 9068   4.644   9.329   3.616 -0.2621  1.7956  0.4464
  808MOL0     H 9069   4.727   9.091   3.518 -0.4244 -3.7683  2.8122
  808MOL0     H 9070   4.725   8.973   3.338 -0.3134  0.3055  2.4757
  808MOL0     H 9071   4.732   8.823   3.444 -1.1574 -1.9809  1.7055
  808MOL0     H 9072   4.744   8.774   3.186  0.5343 -0.3574  1.0122
  808MOL0     H 9073   4.578   8.839   3.172 -1.1945 -0.1719 -0.2805
  808MOL0     H 9074   4.497   8.651   3.326  0.1652 -0.2791  1.8516
  808MOL0     H 9075   4.652   8.627   3.374  0.3630  0.0446 -0.4276
  808MOL0     H 9076   4.548   8.447   3.193  0.2198  0.0266 -2.4144
  808MOL0     H 9077   4.706   8.516   3.163 -1.0414  0.7656  0.6076
  808MOL0     H 9078   4.449   8.616   2.838  0.2602 -2.5253 -0.8693
  808MOL0     H 9079   4.322   8.970   3.496 -0.3565  0.2098  0.8860
  808MOL0     H 9080   4.250   9.193   3.576  0.7806 -1.4278 -0.0539
  809MOL0     O 9081   2.436  10.901   5.721 -0.2721  0.0913  0.2035
  809MOL0     C 9082   2.358  10.932   5.630 -0.4777  0.3147  0.7230
  809MOL0     O 9083   2.393  10.935   5.496  0.1610 -0.1071  0.3799
  809MOL0     C 9084   2.516  10.875   5.467 -1.1210 -0.3310  0.2057
  809MOL0     C 9085   2.554  10.744   5.507  0.0253 -0.0120 -0.2286
  809MOL0     C 9086   2.665  10.682   5.454 -0.4166 -0.3241 -0.2776
  809MOL0     C 9087   2.750  10.757   5.368  0.1007 -0.8135 -0.3239
  809MOL0     O 9088   2.873  10.705   5.339 -0.3622 -0.8693  0.2685
  809MOL0     C 9089   2.990  10.776   5.317  0.6025 -0.0444  0.0099
  809MOL0     C 9090   3.048  10.836   5.445  0.0608  0.9879 -0.3652
  809MOL0     C 9091   3.062  10.729   5.546 -0.2426 -0.0389 -0.1919
  809MOL0     C 9092   3.104  10.801   5.679 -0.5529  0.4931  0.9596
  809MOL0     C 9093   3.176  10.720   5.785 -0.0671 -0.5294 -0.6448
  809MOL0     C 9094   3.182  10.795   5.921 -0.1429 -0.0475  0.0562
  809MOL0     C 9095   3.270  10.724   6.022  0.6081 -0.2681  0.7225
  809MOL0     C 9096   3.262  10.795   6.165 -0.5255 -0.4308 -0.1059
  809MOL0     N 9097   3.139  10.757   6.237  0.3309  0.5530  0.0908
  809MOL0     C 9098   3.014  10.826   6.225 -0.2077  1.0760 -0.3023
  809MOL0     C 9099   2.941  10.794   6.339  0.3298 -0.4231  0.2950
  809MOL0     C 9100   2.812  10.848   6.390  0.2100  0.7340  0.8843
  809MOL0     C 9101   2.826  10.966   6.487  0.5978 -0.5286 -0.2152
  809MOL0     C 9102   2.700  10.995   6.566  0.1355 -0.9918  0.2893
  809MOL0     C 9103   2.652  10.889   6.671 -0.8824 -0.4714 -0.4167
  809MOL0     O 9104   2.540  10.801   6.640  0.2685 -0.3690  0.4888
  809MOL0     C 9105   2.415  10.855   6.681  0.3820  0.0135  0.6755
  809MOL0     C 9106   2.311  10.767   6.698  0.2844 -0.3180 -0.9384
  809MOL0     C 9107   2.182  10.802   6.737  0.6039  0.1464 -0.4692
  809MOL0     C 9108   2.075  10.696   6.755 -0.1546 -0.2454 -1.2079
  809MOL0     C 9109   2.151  10.940   6.754 -0.1278  0.4339 -1.1388
  809MOL0     C 9110   2.021  10.989   6.822  0.1541  0.4314  1.8061
  809MOL0     O 9111   1.947  10.887   6.889 -0.6761 -0.2679 -0.1764
  809MOL0     C 9112   1.816  10.909   6.909  0.2949  0.2999 -0.0881
  809MOL0     C 9113   1.753  10.927   7.032 -0.5809 -0.5932 -0.9235
  809MOL0     C 9114   1.615  10.939   7.042  0.2927 -0.1281  0.4885
  809MOL0     C 9115   1.529  10.918   6.932  0.0316 -0.0484 -0.7572
  809MOL0     O 9116   1.391  10.902   6.940 -0.5278 -0.1570  0.6514
  809MOL0     C 9117   1.321  10.918   7.057 -0.4436 -0.1962  0.9143
  809MOL0     C 9118   1.175  10.884   7.031 -0.4445  0.3992 -0.0900
  809MOL0     C 9119   1.098  10.860   7.161  1.2594  0.1747  0.1361
  809MOL0     C 9120   0.941  10.880   7.132 -0.4256  0.8180 -0.5826
  809MOL0     C 9121   0.848  10.850   7.259 -0.2400 -0.1946 -0.0441
  809MOL0     C 9122   0.829  10.694   7.270 -0.0376  0.2609  0.2044
  809MOL0     C 9123   0.698  10.655   7.347 -0.5185 -0.2417 -0.3127
  809MOL0     C 9124   0.636  10.521   7.330  0.4946  0.2996 -0.3902
  809MOL0    Cl 9125   0.499  10.531   7.449  0.1998 -0.2039  0.4009
  809MOL0     C 9126   1.592  10.890   6.810  0.0512 -0.3794 -0.8298
  809MOL0     C 9127   1.725  10.888   6.804 -0.1014 -0.0716 -0.1491
  809MOL0     O 9128   1.988  11.108   6.804  0.1344 -0.6061 -0.1657
  809MOL0     C 9129   2.261  11.032   6.727 -0.2609  0.7793  0.2277
  809MOL0     C 9130   2.393  10.989   6.695  0.2197 -0.0673  0.3182
  809MOL0     N 9131   3.021  10.700   6.401  0.5362  0.6854  0.0651
  809MOL0     N 9132   3.140  10.683   6.350  0.4278  0.4989  0.8530
  809MOL0     C 9133   2.709  10.886   5.324  0.1035  0.2488  1.2008
  809MOL0     C 9134   2.600  10.950   5.383  0.4018  0.5749  0.3909
  809MOL0     C 9135   2.217  10.957   5.664 -0.1785  0.0517 -0.1948
  809MOL0     C 9136   2.134  11.036   5.591 -0.3524 -0.0306  0.6194
  809MOL0     C 9137   1.993  11.041   5.614  0.0012  0.2745  0.6531
  809MOL0     C 9138   1.934  10.961   5.714 -0.0221 -0.4258 -0.0395
  809MOL0     O 9139   1.792  10.952   5.739 -0.3826 -0.5943  0.6107
  809MOL0     C 9140   1.704  11.016   5.639 -0.7779 -0.4871  0.3254
  809MOL0     C 9141   1.564  10.975   5.671  0.5699 -0.4632  0.4467
  809MOL0     C 9142   1.452  11.066   5.617  0.9919 -1.3122 -0.7462
  809MOL0     C 9143   1.389  11.171   5.720 -0.0902  0.7543  0.0929
  809MOL0     C 9144   1.285  11.259   5.663  0.0162 -0.3100  0.1302
  809MOL0     C 9145   1.192  11.326   5.619  0.0418  0.9886 -0.4623
  809MOL0     C 9146   2.021  10.886   5.794 -0.5128 -0.4704 -1.1093
  809MOL0     C 9147   2.162  10.878   5.768  0.4204 -0.8979  0.6537
  809MOL0     H 9148   2.504  10.688   5.585  0.5489 -2.1612 -1.3546
  809MOL0     H 9149   2.695  10.584   5.487 -2.3667 -1.5283 -1.8628
  809MOL0     H 9150   3.051  10.699   5.269 -0.7719 -1.0706 -0.1681
  809MOL0     H 9151   2.966  10.854   5.244 -1.7541 -0.1004  0.6355
  809MOL0     H 9152   3.143  10.887   5.427  0.3733  1.7324  2.8269
  809MOL0     H 9153   2.969  10.900   5.486 -1.0564 -0.7115  0.2821
  809MOL0     H 9154   2.972  10.672   5.571  0.2126 -0.2050  1.1570
  809MOL0     H 9155   3.134  10.652   5.515  1.8068  0.6717  2.4609
  809MOL0     H 9156   3.161  10.890   5.649 -1.1264 -0.0748 -2.2238
  809MOL0     H 9157   3.006  10.819   5.723 -2.0491 -3.7838 -0.0796
  809MOL0     H 9158   3.117  10.629   5.801 -2.4242  1.2283  1.4524
  809MOL0     H 9159   3.280  10.709   5.753  0.2753  1.2667 -0.2490
  809MOL0     H 9160   3.221  10.896   5.907 -1.0210  0.5480  1.6885
  809MOL0     H 9161   3.082  10.798   5.965 -0.1876 -0.1118 -0.0414
  809MOL0     H 9162   3.234  10.621   6.023  0.3902 -0.3149 -2.0595
  809MOL0     H 9163   3.374  10.733   5.987  1.3965  1.9577  3.3119
  809MOL0     H 9164   3.269  10.904   6.159 -6.0142  0.2866  1.2608
  809MOL0     H 9165   3.346  10.770   6.229  1.7540  2.7325 -1.6086
  809MOL0     H 9166   2.980  10.891   6.146 -0.4642 -0.7109 -1.7075
  809MOL0     H 9167   2.765  10.886   6.299 -0.9140  0.0865  1.1751
  809MOL0     H 9168   2.754  10.763   6.428  1.1163 -1.4863 -2.2612
  809MOL0     H 9169   2.854  11.053   6.426 -1.2529 -0.1878 -0.6363
  809MOL0     H 9170   2.901  10.940   6.563 -0.6615  1.5366  1.8603
  809MOL0     H 9171   2.622  11.022   6.494  1.6148 -3.0658 -2.2746
  809MOL0     H 9172   2.722  11.085   6.624  1.0390 -0.2843 -1.0726
  809MOL0     H 9173   2.636  10.939   6.766 -0.3241 -2.1362  0.5885
  809MOL0     H 9174   2.733  10.821   6.699 -1.5172 -0.8039  0.6491
  809MOL0     H 9175   2.337  10.662   6.695 -1.6042 -0.7967 -2.0957
  809MOL0     H 9176   2.044  10.677   6.858 -1.0687  1.1880 -1.1806
  809MOL0     H 9177   1.984  10.728   6.702 -0.7987  1.4974  0.8193
  809MOL0     H 9178   2.095  10.597   6.713 -1.2125 -1.1097  0.2121
  809MOL0     H 9179   1.812  10.941   7.122 -1.4271 -2.3407 -0.0566
  809MOL0     H 9180   1.573  10.958   7.141  0.1396 -2.3593  0.8953
  809MOL0     H 9181   1.351  10.847   7.135 -1.1058  2.0663  3.3642
  809MOL0     H 9182   1.345  11.021   7.083  0.7475  0.7136 -3.0422
  809MOL0     H 9183   1.133  10.962   6.967  0.9984  0.2829 -1.2573
  809MOL0     H 9184   1.163  10.786   6.983  0.6196 -0.9895  2.3169
  809MOL0     H 9185   1.136  10.932   7.234  1.0045  1.1827 -0.6979
  809MOL0     H 9186   1.118  10.761   7.201 -1.1208 -0.3614  0.1826
  809MOL0     H 9187   0.928  10.987   7.111 -1.8389  0.6060 -0.8585
  809MOL0     H 9188   0.909  10.827   7.042  3.0829 -1.9125 -0.4755
  809MOL0     H 9189   0.752  10.903   7.251  0.4898  0.8830 -2.8245
  809MOL0     H 9190   0.911  10.889   7.340  2.8329  3.8241 -3.9182
  809MOL0     H 9191   0.815  10.654   7.169  0.5092  1.6952 -0.4735
  809MOL0     H 9192   0.918  10.644   7.308  0.9988  1.4480 -0.5750
  809MOL0     H 9193   0.615  10.717   7.310 -0.7942 -1.1195 -1.2211
  809MOL0     H 9194   0.711  10.675   7.453 -1.5613 -0.7399 -0.0716
  809MOL0     H 9195   0.705  10.444   7.364  0.6690  0.3988 -0.5174
  809MOL0     H 9196   0.604  10.507   7.227 -2.0299 -3.2332  0.6946
  809MOL0     H 9197   1.539  10.855   6.722 -0.7067  0.2267 -0.6208
  809MOL0     H 9198   1.775  10.865   6.710  1.7497  2.6649  0.0653
  809MOL0     H 9199   2.249  11.138   6.747 -0.0971  0.4578  2.1830
  809MOL0     H 9200   2.475  11.058   6.683  0.2240  0.2248  1.7536
  809MOL0     H 9201   2.773  10.946   5.260  1.3312  1.1228  3.1858
  809MOL0     H 9202   2.569  11.047   5.346 -0.4615  0.4260  0.6954
  809MOL0     H 9203   2.169  11.080   5.498 -2.0892 -2.4455 -1.3240
  809MOL0     H 9204   1.934  11.103   5.547 -0.0669 -0.1703  0.2960
  809MOL0     H 9205   1.720  11.124   5.645  0.7076 -0.7797  2.4728
  809MOL0     H 9206   1.729  10.986   5.536  0.4440  1.8840 -0.1512
  809MOL0     H 9207   1.551  10.981   5.779 -0.4911 -0.4517  0.3328
  809MOL0     H 9208   1.549  10.875   5.629  0.0902  0.6214 -2.1610
  809MOL0     H 9209   1.376  10.997   5.578 -0.4683  0.3654 -0.9768
  809MOL0     H 9210   1.474  11.127   5.529 -1.8323  1.5240  0.3573
  809MOL0     H 9211   1.474  11.229   5.755  0.5375  0.2477 -0.5521
  809MOL0     H 9212   1.347  11.107   5.798  0.4140 -1.7289 -1.5422
  809MOL0     H 9213   1.118  11.380   5.563  0.2859  0.1521 -1.6281
  809MOL0     H 9214   1.988  10.833   5.883 -0.3272  1.2722  0.0507
  809MOL0     H 9215   2.230  10.822   5.832  4.6909  0.9946 -1.8209
  810MOL0     O 9216   3.777   0.685   8.126  0.6258  0.7149  0.2948
  810MOL0     C 9217   3.817   0.738   8.232 -0.1550 -0.3301  0.1974
  810MOL0     O 9218   3.735   0.776   8.332 -0.3271  0.0259  0.0397
  810MOL0     C 9219   3.598   0.777   8.319 -0.0916  0.5180 -0.9337
  810MOL0     C 9220   3.539   0.902   8.305  0.2367 -0.1398 -0.4259
  810MOL0     C 9221   3.404   0.920   8.317  0.6058  0.2169 -0.0356
  810MOL0     C 9222   3.325   0.808   8.350  0.1860 -0.1600 -0.3741
  810MOL0     O 9223   3.191   0.837   8.381  0.0943  0.0927  0.5402
  810MOL0     C 9224   3.097   0.730   8.421 -0.3040 -0.9218 -0.4467
  810MOL0     C 9225   3.009   0.779   8.529  0.6150  0.1786 -0.0714
  810MOL0     C 9226   3.067   0.873   8.628  0.5029  0.8417 -0.2698
  810MOL0     C 9227   2.972   0.891   8.750 -0.2378  0.2506 -0.0222
  810MOL0     C 9228   3.025   0.987   8.863 -0.0069 -0.2078 -1.5990
  810MOL0     C 9229   3.168   0.961   8.921 -0.0727 -0.0809  1.2104
  810MOL0     C 9230   3.202   1.057   9.033 -0.5773  0.4699 -0.0418
  810MOL0     C 9231   3.363   1.057   9.075  1.2290 -0.0880 -0.1075
  810MOL0     N 9232   3.450   1.024   8.966 -0.5189  0.3515  0.2189
  810MOL0     C 9233   3.452   1.081   8.836 -1.3367 -0.6246  1.5377
  810MOL0     C 9234   3.545   1.003   8.770 -0.5344  0.6543 -0.0468
  810MOL0     C 9235   3.576   1.017   8.626  0.8134 -0.8887  0.5883
  810MOL0     C 9236   3.718   1.065   8.600 -0.2256 -0.2557 -0.4535
  810MOL0     C 9237   3.754   1.193   8.684  0.0528  0.2441 -0.1418
  810MOL0     C 9238   3.696   1.334   8.647 -0.3766  0.1311 -0.2972
  810MOL0     O 9239   3.553   1.340   8.634 -0.5819 -0.0391 -0.0429
  810MOL0     C 9240   3.467   1.419   8.707  0.3338 -0.0698 -0.5072
  810MOL0     C 9241   3.508   1.483   8.827 -0.0972  0.1220 -0.9859
  810MOL0     C 9242   3.418   1.545   8.908 -0.6789 -0.0259  0.3485
  810MOL0     C 9243   3.480   1.598   9.026  0.1947  1.3415 -0.3146
  810MOL0     C 9244   3.284   1.528   8.882  0.1550  0.1647 -0.7487
  810MOL0     C 9245   3.182   1.604   8.971 -0.0033 -0.8470  0.0437
  810MOL0     O 9246   3.218   1.684   9.066 -0.8602  0.1160  0.7235
  810MOL0     C 9247   3.127   1.777   9.103 -0.7149 -0.2783 -0.7288
  810MOL0     C 9248   3.100   1.883   9.018 -0.5639 -0.1286  0.1194
  810MOL0     C 9249   3.003   1.981   9.041 -0.1240  0.6877 -0.6339
  810MOL0     C 9250   2.935   1.983   9.162  0.1383  0.4798  0.4183
  810MOL0     O 9251   2.852   2.089   9.177  0.2984  0.0743 -0.0916
  810MOL0     C 9252   2.794   2.121   9.309  0.2558  0.7587 -0.0701
  810MOL0     C 9253   2.679   2.220   9.313 -0.4502 -0.4242  1.3866
  810MOL0     C 9254   2.732   2.364   9.282 -0.0705 -0.6385 -1.2243
  810MOL0     C 9255   2.653   2.422   9.163 -0.6029  0.7144 -1.3693
  810MOL0     C 9256   2.700   2.364   9.028 -1.3241  0.8247 -0.3941
  810MOL0     C 9257   2.642   2.416   8.891  0.0678  0.3908 -0.5618
  810MOL0     C 9258   2.606   2.566   8.885 -0.1570  0.7271 -0.0126
  810MOL0     C 9259   2.729   2.662   8.869  0.0487  0.2547  0.8216
  810MOL0    Cl 9260   2.851   2.596   8.747 -0.3867 -0.0201  0.1785
  810MOL0     C 9261   2.970   1.886   9.260 -0.6504 -0.0525 -0.3225
  810MOL0     C 9262   3.068   1.787   9.235 -0.2020  0.4069  0.3346
  810MOL0     O 9263   3.071   1.598   8.928 -0.3978  0.2423 -0.3325
  810MOL0     C 9264   3.239   1.464   8.771 -0.5059  0.3084  0.3640
  810MOL0     C 9265   3.334   1.418   8.679 -0.0311 -0.4675  0.4964
  810MOL0     N 9266   3.601   0.903   8.856  1.1714  0.0986 -0.5884
  810MOL0     N 9267   3.536   0.918   8.964  0.0175 -0.5881 -1.2915
  810MOL0     C 9268   3.384   0.684   8.360  1.0809  0.2047 -0.6315
  810MOL0     C 9269   3.512   0.669   8.334  0.2058  0.1568 -0.2644
  810MOL0     C 9270   3.960   0.752   8.253 -0.0411  0.0667  0.9513
  810MOL0     C 9271   4.012   0.824   8.365 -0.3904  1.1184 -0.1101
  810MOL0     C 9272   4.152   0.839   8.385 -0.0388  0.2792  0.5250
  810MOL0     C 9273   4.244   0.778   8.300 -0.4756  0.1454  0.4149
  810MOL0     O 9274   4.378   0.783   8.313 -0.5462  0.9531  0.0785
  810MOL0     C 9275   4.446   0.888   8.245  0.6994 -0.0620  0.5304
  810MOL0     C 9276   4.494   0.989   8.351 -0.0358  0.1525 -0.0428
  810MOL0     C 9277   4.611   0.940   8.430  0.0970 -0.0737 -0.1581
  810MOL0     C 9278   4.724   0.886   8.345 -0.2586  0.5486  0.9277
  810MOL0     C 9279   4.835   0.840   8.438  1.4690  0.2535  0.4456
  810MOL0     C 9280   4.932   0.817   8.515 -0.1150 -0.4269  0.0743
  810MOL0     C 9281   4.191   0.712   8.189  0.3223 -0.2248  0.5537
  810MOL0     C 9282   4.053   0.698   8.164  0.0229  0.3258 -0.3878
  810MOL0     H 9283   3.598   0.988   8.274 -0.7457  0.5374 -0.4596
  810MOL0     H 9284   3.358   1.019   8.316  2.0543  0.9028 -0.5468
  810MOL0     H 9285   3.043   0.703   8.329 -0.5105 -0.6467 -0.4101
  810MOL0     H 9286   3.151   0.651   8.473  3.3355  2.5638  1.6180
  810MOL0     H 9287   2.928   0.826   8.473 -1.9261 -3.2235  0.4127
  810MOL0     H 9288   2.970   0.693   8.584  1.1991 -1.0899 -1.5689
  810MOL0     H 9289   3.163   0.836   8.665  0.8070  0.8805 -1.0230
  810MOL0     H 9290   3.088   0.970   8.584 -0.2375  0.6514 -1.0723
  810MOL0     H 9291   2.880   0.933   8.708  0.7558  4.9778  1.9567
  810MOL0     H 9292   2.961   0.799   8.808  2.5502  0.7696  1.5174
  810MOL0     H 9293   3.015   1.091   8.829  4.7111  0.5418 -1.2997
  810MOL0     H 9294   2.958   0.977   8.949  1.3028 -0.8421 -0.6200
  810MOL0     H 9295   3.168   0.856   8.951 -0.8660 -0.7174 -0.8315
  810MOL0     H 9296   3.240   0.973   8.839 -0.7106  3.6722  1.0328
  810MOL0     H 9297   3.159   1.150   8.998 -2.4175 -0.9833 -1.8547
  810MOL0     H 9298   3.148   1.030   9.125  0.0224 -1.5775 -0.2444
  810MOL0     H 9299   3.375   0.984   9.155 -0.0833  0.8614  1.0119
  810MOL0     H 9300   3.407   1.151   9.110  1.4720 -0.4075  0.4661
  810MOL0     H 9301   3.389   1.161   8.800 -1.5517 -1.6596 -0.5241
  810MOL0     H 9302   3.545   0.926   8.573 -0.2714  0.2253 -0.7304
  810MOL0     H 9303   3.521   1.109   8.607  2.6899  0.2779  0.5888
  810MOL0     H 9304   3.726   1.086   8.493  0.2689 -1.8241 -0.7584
  810MOL0     H 9305   3.797   0.991   8.618 -0.0663 -0.0035 -0.1151
  810MOL0     H 9306   3.862   1.211   8.681 -0.1675  1.4789 -1.2589
  810MOL0     H 9307   3.733   1.167   8.789  1.0966 -1.5857 -0.3358
  810MOL0     H 9308   3.737   1.356   8.548 -0.8670 -3.1924 -1.3490
  810MOL0     H 9309   3.735   1.416   8.709 -1.8053 -0.1070  0.9787
  810MOL0     H 9310   3.613   1.493   8.852 -0.3285  0.6493 -0.1779
  810MOL0     H 9311   3.471   1.707   9.019 -0.9929  1.3676  1.1596
  810MOL0     H 9312   3.435   1.553   9.114  3.7731 -1.4481  0.3513
  810MOL0     H 9313   3.585   1.569   9.037  0.0048  0.5489 -0.5240
  810MOL0     H 9314   3.155   1.902   8.927 -0.7850  0.4337  0.0968
  810MOL0     H 9315   2.983   2.050   8.959  2.2635  1.1310 -0.9150
  810MOL0     H 9316   2.762   2.040   9.375  1.5305  1.9235  2.0824
  810MOL0     H 9317   2.871   2.169   9.370  4.2480 -2.3104 -2.1829
  810MOL0     H 9318   2.608   2.182   9.238  2.5289  0.2053 -2.0609
  810MOL0     H 9319   2.641   2.205   9.414  0.6266  2.8232  2.4133
  810MOL0     H 9320   2.841   2.378   9.276 -0.2986  1.7539 -0.7660
  810MOL0     H 9321   2.696   2.414   9.373  1.4011 -1.9603  0.1581
  810MOL0     H 9322   2.546   2.413   9.184 -0.2305 -2.2164 -0.3084
  810MOL0     H 9323   2.671   2.530   9.166  0.6494  0.4921  1.2634
  810MOL0     H 9324   2.697   2.255   9.034  3.7374  0.5560  2.6488
  810MOL0     H 9325   2.809   2.373   9.025 -1.0862 -1.4654 -2.4624
  810MOL0     H 9326   2.711   2.391   8.810  2.2938  1.9335  0.7382
  810MOL0     H 9327   2.556   2.350   8.877  0.5902 -0.7739  1.3595
  810MOL0     H 9328   2.547   2.592   8.973 -2.3501  2.1749 -1.7832
  810MOL0     H 9329   2.535   2.586   8.804 -0.0980  0.8315 -0.0401
  810MOL0     H 9330   2.784   2.654   8.963 -0.7443 -1.9428  1.1468
  810MOL0     H 9331   2.697   2.762   8.838 -1.5149 -0.5425 -0.3278
  810MOL0     H 9332   2.928   1.899   9.359 -4.0259 -0.9563 -1.5107
  810MOL0     H 9333   3.091   1.720   9.317 -1.4995 -0.8465 -0.2819
  810MOL0     H 9334   3.133   1.466   8.745 -0.0881 -0.7245 -1.6428
  810MOL0     H 9335   3.300   1.378   8.583  2.2745 -0.7881 -0.2316
  810MOL0     H 9336   3.328   0.598   8.396  0.2953  1.9987  2.9754
  810MOL0     H 9337   3.560   0.574   8.355 -1.4334 -0.0599  3.3899
  810MOL0     H 9338   3.933   0.878   8.418 -3.2880  0.0441 -2.9679
  810MOL0     H 9339   4.188   0.908   8.460 -2.0687  1.7856  0.1973
  810MOL0     H 9340   4.524   0.843   8.182  0.7304 -2.3640  2.0876
  810MOL0     H 9341   4.368   0.940   8.188  0.7625 -0.1442  0.3664
  810MOL0     H 9342   4.416   1.006   8.425 -0.2538 -3.0131  0.5776
  810MOL0     H 9343   4.525   1.084   8.306  1.7684 -0.1334  0.4975
  810MOL0     H 9344   4.569   0.876   8.509 -2.0079  2.2772  0.7675
  810MOL0     H 9345   4.656   1.027   8.479 -0.4220  0.0932  0.0306
  810MOL0     H 9346   4.761   0.970   8.286 -0.1475 -3.6332 -6.0696
  810MOL0     H 9347   4.694   0.801   8.282 -0.0162 -1.3340  3.2005
  810MOL0     H 9348   5.005   0.798   8.590 -2.3807 -2.4327  1.9455
  810MOL0     H 9349   4.263   0.665   8.122 -1.0910  0.2935 -1.3928
  810MOL0     H 9350   4.031   0.626   8.086  1.5389 -1.6816  0.9190
  811MOL0     O 9351   4.435   4.926   1.909  0.6111  1.4212  0.3349
  811MOL0     C 9352   4.460   4.978   1.798 -0.3231 -0.2375 -1.0666
  811MOL0     O 9353   4.381   5.083   1.741 -0.3877 -0.6484 -0.2470
  811MOL0     C 9354   4.275   5.149   1.801 -0.7248 -0.9843  0.5932
  811MOL0     C 9355   4.188   5.082   1.880 -0.0530 -0.7346 -0.0970
  811MOL0     C 9356   4.070   5.140   1.906 -0.6297 -0.3910  0.2336
  811MOL0     C 9357   4.048   5.274   1.867 -0.4856  0.2190  0.5925
  811MOL0     O 9358   3.939   5.326   1.922 -0.7421  0.5869  0.9327
  811MOL0     C 9359   3.832   5.365   1.838 -0.5039  0.7678 -0.5932
  811MOL0     C 9360   3.770   5.498   1.851  0.6849  0.2024 -0.7133
  811MOL0     C 9361   3.708   5.541   1.716  0.4878 -0.1406  0.2514
  811MOL0     C 9362   3.667   5.690   1.724  0.4820 -0.1992 -0.2962
  811MOL0     C 9363   3.526   5.712   1.804 -0.0937  0.0029  0.2654
  811MOL0     C 9364   3.420   5.789   1.717  0.4387 -0.2443  0.4436
  811MOL0     C 9365   3.278   5.789   1.777 -0.4309 -0.1265  0.8356
  811MOL0     C 9366   3.167   5.888   1.721 -0.2993  1.2595  0.0668
  811MOL0     N 9367   3.039   5.878   1.786 -0.2432  0.2554 -0.1928
  811MOL0     C 9368   3.009   5.930   1.903 -0.3695 -0.1515 -0.0618
  811MOL0     C 9369   2.889   5.876   1.927 -0.0495 -0.3539 -0.2699
  811MOL0     C 9370   2.825   5.901   2.063 -0.0659  0.2183  0.5454
  811MOL0     C 9371   2.752   5.769   2.114  0.4857  0.7045 -0.8199
  811MOL0     C 9372   2.661   5.801   2.233  0.3432 -0.4434  0.3215
  811MOL0     C 9373   2.559   5.692   2.238 -0.7120  0.1843  0.8592
  811MOL0     O 9374   2.437   5.716   2.322 -0.9413  0.4313 -0.4853
  811MOL0     C 9375   2.318   5.753   2.273 -1.1386 -0.1087  0.2679
  811MOL0     C 9376   2.288   5.825   2.149 -0.4704  0.7704  0.0603
  811MOL0     C 9377   2.156   5.870   2.125 -0.2170  0.2264 -0.1052
  811MOL0     C 9378   2.134   5.961   2.009 -0.5959 -0.2569  0.7985
  811MOL0     C 9379   2.051   5.833   2.215 -1.2873  0.1800 -0.2233
  811MOL0     C 9380   1.906   5.877   2.208  0.0309  0.6967  0.2979
  811MOL0     O 9381   1.883   5.975   2.123 -0.5275  0.2139  1.0462
  811MOL0     C 9382   1.750   6.001   2.107  0.0906 -0.3397  0.9100
  811MOL0     C 9383   1.682   6.097   2.187  0.9770 -0.9528  0.0793
  811MOL0     C 9384   1.540   6.113   2.167 -0.0004 -0.2890  0.0619
  811MOL0     C 9385   1.472   6.040   2.067  0.7506  0.3688  0.2213
  811MOL0     O 9386   1.338   6.046   2.046  0.4707  0.2505  0.2529
  811MOL0     C 9387   1.281   6.168   2.083  0.2080  0.0748 -0.4991
  811MOL0     C 9388   1.122   6.160   2.051 -0.4782 -0.3723 -0.3443
  811MOL0     C 9389   1.076   6.126   1.904  0.5051  0.1828 -0.4539
  811MOL0     C 9390   0.931   6.163   1.899 -0.1423 -0.1127  0.0744
  811MOL0     C 9391   0.869   6.120   1.764 -0.8757  0.6293 -0.5081
  811MOL0     C 9392   0.722   6.147   1.739 -0.0758  0.7713  0.5050
  811MOL0     C 9393   0.637   6.071   1.841 -1.0051  0.1079  0.6131
  811MOL0     C 9394   0.491   6.111   1.834  0.3260 -0.8257  0.3821
  811MOL0    Cl 9395   0.387   6.057   1.967 -0.1424 -0.1948  0.4459
  811MOL0     C 9396   1.538   5.947   1.995 -0.6417  0.7094  0.4096
  811MOL0     C 9397   1.675   5.931   2.017  0.4206  0.3281  0.9473
  811MOL0     O 9398   1.824   5.833   2.295 -0.1181 -0.4001  0.7841
  811MOL0     C 9399   2.083   5.756   2.326  0.1705 -0.0076  0.1169
  811MOL0     C 9400   2.212   5.718   2.362 -0.6401 -0.0637  0.1455
  811MOL0     N 9401   2.845   5.799   1.831 -0.2727 -0.3404 -0.1993
  811MOL0     N 9402   2.930   5.817   1.733 -0.5017  0.1195  0.8903
  811MOL0     C 9403   4.126   5.340   1.772  0.3604 -0.6642  0.1573
  811MOL0     C 9404   4.240   5.274   1.740 -0.4070  0.7208  0.1359
  811MOL0     C 9405   4.569   4.928   1.721 -0.1598 -0.1523  0.7245
  811MOL0     C 9406   4.610   4.969   1.589  0.6222 -0.6069 -0.1596
  811MOL0     C 9407   4.723   4.924   1.526  0.4031 -0.6867  0.0857
  811MOL0     C 9408   4.820   4.853   1.600 -0.0809  0.0331  0.1880
  811MOL0     O 9409   4.946   4.819   1.579 -0.1092  0.2785  0.2122
  811MOL0     C 9410   5.024   4.883   1.478  0.2354  0.7732  0.6247
  811MOL0     C 9411   5.168   4.839   1.497 -0.3164  0.3050  0.4365
  811MOL0     C 9412   5.214   4.898   1.626  0.4027 -0.1136 -0.4341
  811MOL0     C 9413   5.350   4.860   1.671 -0.0888  0.8109 -0.2727
  811MOL0     C 9414   5.445   4.939   1.595 -0.2870  0.3736  0.4401
  811MOL0     C 9415   5.511   5.004   1.518 -0.8680 -0.0361 -0.1572
  811MOL0     C 9416   4.776   4.807   1.719  0.4023 -0.2009  1.1709
  811MOL0     C 9417   4.659   4.851   1.784 -0.2451  0.5141 -0.2325
  811MOL0     H 9418   4.196   4.982   1.922  0.0862  0.8534  4.1675
  811MOL0     H 9419   3.987   5.094   1.958 -0.8450  1.1960  1.3762
  811MOL0     H 9420   3.872   5.356   1.737 -3.3210  1.9444 -1.9048
  811MOL0     H 9421   3.762   5.283   1.853  0.4137 -0.1140 -1.0117
  811MOL0     H 9422   3.689   5.490   1.924  0.2517 -1.1052 -1.2994
  811MOL0     H 9423   3.851   5.565   1.881 -0.8134  1.9756 -0.4926
  811MOL0     H 9424   3.792   5.532   1.646  1.1210 -1.6088  1.1507
  811MOL0     H 9425   3.621   5.490   1.674 -0.7289  3.0845 -1.5287
  811MOL0     H 9426   3.742   5.760   1.761 -0.3771  0.8862 -0.5502
  811MOL0     H 9427   3.658   5.719   1.619  1.4956  3.9417  0.6003
  811MOL0     H 9428   3.477   5.617   1.823 -1.5575  0.4062 -1.2425
  811MOL0     H 9429   3.547   5.762   1.899  0.9794  0.6531 -0.2890
  811MOL0     H 9430   3.447   5.894   1.699 -2.7812  0.7745  0.7658
  811MOL0     H 9431   3.410   5.735   1.623 -0.3313  0.0849  0.3266
  811MOL0     H 9432   3.242   5.687   1.759  1.5041 -0.7728  0.3714
  811MOL0     H 9433   3.292   5.803   1.884 -0.1643  0.1447  0.7648
  811MOL0     H 9434   3.177   5.870   1.613  2.2887  2.1812  0.0939
  811MOL0     H 9435   3.207   5.989   1.730  1.3943  0.7592 -1.3295
  811MOL0     H 9436   3.074   5.995   1.960  0.1200  0.7178 -1.5592
  811MOL0     H 9437   2.883   5.948   2.142 -2.2384  2.6112  0.8498
  811MOL0     H 9438   2.745   5.973   2.043 -0.7729  0.0724  2.6298
  811MOL0     H 9439   2.835   5.706   2.147 -0.0887  1.7751  3.1329
  811MOL0     H 9440   2.704   5.712   2.034  1.5607  0.7177 -1.5018
  811MOL0     H 9441   2.615   5.900   2.226  0.3822 -0.5010 -0.9655
  811MOL0     H 9442   2.721   5.782   2.322 -0.9399 -2.6792  0.7810
  811MOL0     H 9443   2.609   5.602   2.274  3.4620  0.9114 -2.4305
  811MOL0     H 9444   2.521   5.669   2.138  0.7062  1.4358  0.0026
  811MOL0     H 9445   2.361   5.874   2.086  0.5088 -3.3235 -2.3195
  811MOL0     H 9446   2.061   5.908   1.947 -0.6733 -0.1212  0.7738
  811MOL0     H 9447   2.112   6.064   2.038  1.4245  0.6040 -0.5322
  811MOL0     H 9448   2.226   5.958   1.950 -0.5434  2.2092  0.6445
  811MOL0     H 9449   1.737   6.159   2.258 -1.1582 -0.3250  1.2901
  811MOL0     H 9450   1.496   6.181   2.238 -1.0179  0.3454 -1.1260
  811MOL0     H 9451   1.278   6.184   2.191 -1.8995 -0.1769 -0.4661
  811MOL0     H 9452   1.324   6.256   2.035 -0.8423  2.2383  2.2347
  811MOL0     H 9453   1.090   6.082   2.120 -0.2263 -3.2442 -3.2155
  811MOL0     H 9454   1.081   6.254   2.090  3.7464  1.6859 -0.2734
  811MOL0     H 9455   1.075   6.020   1.877 -1.0600  0.0833 -0.1001
  811MOL0     H 9456   1.116   6.185   1.821 -1.2877 -1.3532 -2.5206
  811MOL0     H 9457   0.883   6.113   1.984 -2.4937 -5.1101 -3.6497
  811MOL0     H 9458   0.908   6.269   1.909 -2.0025 -0.5140  0.4133
  811MOL0     H 9459   0.882   6.013   1.750 -1.8742  0.2898  0.8985
  811MOL0     H 9460   0.930   6.171   1.689 -0.6639 -0.4753 -1.1012
  811MOL0     H 9461   0.711   6.256   1.732 -1.3078  0.8102  2.4139
  811MOL0     H 9462   0.690   6.115   1.639  0.0185  1.3332  0.2897
  811MOL0     H 9463   0.661   6.113   1.939 -0.6370 -0.5382  0.8035
  811MOL0     H 9464   0.662   5.964   1.842  2.8487  0.8232 -1.5870
  811MOL0     H 9465   0.449   6.079   1.738 -1.2480  1.8502  0.0750
  811MOL0     H 9466   0.494   6.220   1.837  3.2840 -0.8284  0.5611
  811MOL0     H 9467   1.489   5.891   1.916 -0.1443 -1.7180  1.7027
  811MOL0     H 9468   1.729   5.862   1.953  2.1972  1.8184  0.7412
  811MOL0     H 9469   2.007   5.717   2.393  2.4745 -1.3438  2.1448
  811MOL0     H 9470   2.229   5.662   2.453  1.1399 -0.5940 -0.4610
  811MOL0     H 9471   4.113   5.441   1.733  2.9077 -1.3978 -3.0495
  811MOL0     H 9472   4.309   5.323   1.671 -0.9630  1.2187 -0.0760
  811MOL0     H 9473   4.537   5.039   1.548  3.6134  3.8467  1.3352
  811MOL0     H 9474   4.740   4.969   1.428  0.0076  0.5211  0.5576
  811MOL0     H 9475   4.991   4.845   1.381 -3.3316  1.5993  1.3768
  811MOL0     H 9476   5.012   4.991   1.468 -2.4388  0.4067 -0.8279
  811MOL0     H 9477   5.222   4.864   1.405 -1.4481  1.8012  0.1524
  811MOL0     H 9478   5.173   4.729   1.498  0.8190  0.3453  1.7312
  811MOL0     H 9479   5.150   4.868   1.708 -2.0348  3.7165 -0.6856
  811MOL0     H 9480   5.202   5.007   1.624  1.4092  0.0550  1.0501
  811MOL0     H 9481   5.360   4.751   1.662 -0.3024  0.6335  1.3949
  811MOL0     H 9482   5.365   4.899   1.772 -0.4876  0.2613  0.0036
  811MOL0     H 9483   5.558   5.061   1.440 -1.4936  2.2637  1.0408
  811MOL0     H 9484   4.846   4.745   1.774 -0.6598 -0.2730  2.4889
  811MOL0     H 9485   4.637   4.805   1.880 -0.5362  0.8379 -0.1409
  812MOL0     O 9486   0.891  10.130   2.811 -0.1512  0.1407 -0.0071
  812MOL0     C 9487   0.961  10.067   2.891 -0.0135 -0.7159 -0.9816
  812MOL0     O 9488   0.984  10.123   3.016 -0.1624 -0.4206  0.1584
  812MOL0     C 9489   0.963  10.259   3.043 -0.7609 -0.0966  1.0015
  812MOL0     C 9490   1.002  10.356   2.950 -0.2147 -0.0698  0.5187
  812MOL0     C 9491   0.965  10.489   2.974  0.7142 -0.1539 -0.6844
  812MOL0     C 9492   0.913  10.527   3.099 -0.5167 -0.8053  0.0473
  812MOL0     O 9493   0.900  10.662   3.136  0.0668 -0.7773  0.3131
  812MOL0     C 9494   1.011  10.759   3.108  0.0259  0.1276  0.7068
  812MOL0     C 9495   1.007  10.869   3.213 -0.0553 -0.8037 -0.0414
  812MOL0     C 9496   0.904  10.991   3.178 -0.4678  0.4674 -0.1082
  812MOL0     C 9497   0.850  11.010   3.034  0.3624 -0.3241 -0.5693
  812MOL0     C 9498   0.764  11.135   3.042  0.4349 -1.1247  0.5625
  812MOL0     C 9499   0.856  11.257   3.042  0.3102 -0.3452 -0.2930
  812MOL0     C 9500   0.777  11.399   3.034  0.0706  0.6736 -0.0885
  812MOL0     C 9501   0.679  11.423   3.146  0.4252  0.3752 -0.6129
  812MOL0     N 9502   0.608  11.554   3.131  0.1928 -0.1559 -0.6159
  812MOL0     C 9503   0.474  11.583   3.104 -0.5301  0.0362  0.6897
  812MOL0     C 9504   0.474  11.716   3.084  0.5606 -0.5257  0.3042
  812MOL0     C 9505   0.354  11.795   3.038 -0.6667  0.4779 -0.1495
  812MOL0     C 9506   0.344  11.802   2.887  0.4304 -0.3035  0.9424
  812MOL0     C 9507   0.474  11.856   2.816  0.1375 -0.6134  0.4372
  812MOL0     C 9508   0.466  11.842   2.655 -1.0339 -0.1125  0.6416
  812MOL0     O 9509   0.592  11.792   2.609 -0.9700 -0.1880  0.6435
  812MOL0     C 9510   0.628  11.664   2.617 -0.1893 -0.0870 -0.6882
  812MOL0     C 9511   0.554  11.563   2.670  0.3833 -1.0215  0.6771
  812MOL0     C 9512   0.600  11.429   2.681 -0.2365 -0.6029 -0.0322
  812MOL0     C 9513   0.504  11.324   2.708 -0.0269  0.1852  0.7151
  812MOL0     C 9514   0.733  11.397   2.628  0.7675 -0.4937 -0.3679
  812MOL0     C 9515   0.787  11.257   2.629 -0.3572 -0.0765 -0.4399
  812MOL0     O 9516   0.708  11.151   2.641  0.4694 -0.2598 -0.5952
  812MOL0     C 9517   0.749  11.021   2.649 -0.6931  0.1063  0.4679
  812MOL0     C 9518   0.640  10.937   2.648 -0.9452  0.3035 -0.5645
  812MOL0     C 9519   0.659  10.798   2.661  0.0260  0.1629 -1.2295
  812MOL0     C 9520   0.789  10.744   2.681 -0.4642  0.2284  0.0570
  812MOL0     O 9521   0.817  10.607   2.692  0.3078 -0.5854  0.3869
  812MOL0     C 9522   0.755  10.507   2.610 -0.3002  0.6893  0.8747
  812MOL0     C 9523   0.625  10.453   2.673 -0.0470 -0.1972  0.3943
  812MOL0     C 9524   0.634  10.419   2.826 -0.8676 -0.3558  0.1034
  812MOL0     C 9525   0.502  10.364   2.875 -0.2864 -0.2705 -0.6080
  812MOL0     C 9526   0.493  10.340   3.029  0.1102  0.7540 -0.1897
  812MOL0     C 9527   0.461  10.478   3.094  1.1208 -0.4095 -0.0960
  812MOL0     C 9528   0.496  10.467   3.241 -0.1373 -0.1749 -1.3352
  812MOL0     C 9529   0.454  10.584   3.328  1.0377  0.0373 -0.4155
  812MOL0    Cl 9530   0.280  10.615   3.301  0.0634  0.0052 -0.1505
  812MOL0     C 9531   0.898  10.832   2.690 -0.3373  0.3568  0.3773
  812MOL0     C 9532   0.881  10.969   2.669 -0.2249  0.0081 -0.9832
  812MOL0     O 9533   0.909  11.253   2.614 -0.4434  0.1792 -0.4014
  812MOL0     C 9534   0.810  11.504   2.578 -0.3192  0.0540  0.0092
  812MOL0     C 9535   0.759  11.632   2.572  0.1242 -1.1551 -0.7911
  812MOL0     N 9536   0.596  11.768   3.113  1.0289 -0.3110 -0.1433
  812MOL0     N 9537   0.669  11.674   3.149  0.0042  0.1937  0.6227
  812MOL0     C 9538   0.886  10.433   3.190 -1.4568 -0.6022 -0.2349
  812MOL0     C 9539   0.907  10.302   3.165  0.2737 -0.1914  0.2359
  812MOL0     C 9540   1.019   9.937   2.871 -0.8263  0.3270  0.2744
  812MOL0     C 9541   1.042   9.887   2.739 -0.6463 -0.3305 -0.3093
  812MOL0     C 9542   1.113   9.770   2.709 -0.4315  0.1379 -0.5645
  812MOL0     C 9543   1.162   9.694   2.812  0.0954 -0.3020 -0.5890
  812MOL0     O 9544   1.223   9.573   2.799  0.2312  0.1939  0.1521
  812MOL0     C 9545   1.242   9.517   2.670  0.5252 -0.1597  0.4784
  812MOL0     C 9546   1.303   9.375   2.663  0.2152  0.0311 -0.0878
  812MOL0     C 9547   1.293   9.320   2.523 -0.0042 -1.0411 -0.2090
  812MOL0     C 9548   1.349   9.179   2.526 -0.2453  0.3337 -0.4665
  812MOL0     C 9549   1.321   9.109   2.397 -0.8176 -0.1515 -0.7027
  812MOL0     C 9550   1.284   9.048   2.298 -0.1679 -0.4025  0.2966
  812MOL0     C 9551   1.157   9.739   2.945 -0.6892 -0.1744  0.2819
  812MOL0     C 9552   1.082   9.853   2.972  0.0746 -0.1523  0.3456
  812MOL0     H 9553   1.040  10.323   2.854 -2.3524 -3.2442  0.6223
  812MOL0     H 9554   0.970  10.555   2.888  1.5688  0.3592 -0.2493
  812MOL0     H 9555   1.108  10.710   3.117  0.3536  0.1014 -2.0306
  812MOL0     H 9556   0.998  10.803   3.008 -0.6975  4.1337  2.3576
  812MOL0     H 9557   0.981  10.831   3.312  3.8222  1.7860  2.2391
  812MOL0     H 9558   1.101  10.924   3.224 -0.4478 -0.2015  0.4416
  812MOL0     H 9559   0.815  10.953   3.230  1.8935 -4.4394  0.9718
  812MOL0     H 9560   0.950  11.082   3.218  0.1801 -0.1927  0.6889
  812MOL0     H 9561   0.929  11.033   2.962  1.2617 -0.0007  0.4787
  812MOL0     H 9562   0.783  10.928   3.007  0.8494 -0.4839 -1.3404
  812MOL0     H 9563   0.703  11.132   2.952 -0.4223 -1.3370  1.1422
  812MOL0     H 9564   0.703  11.141   3.132  1.6175  0.0754  1.3209
  812MOL0     H 9565   0.919  11.263   3.131 -1.3032  0.1462  0.8554
  812MOL0     H 9566   0.929  11.242   2.961 -1.8734 -1.0022 -2.2336
  812MOL0     H 9567   0.851  11.479   3.026 -1.2225  1.7191 -2.6222
  812MOL0     H 9568   0.725  11.416   2.940  0.7039 -0.7801 -0.7363
  812MOL0     H 9569   0.743  11.440   3.233  0.1233  2.5663 -0.7713
  812MOL0     H 9570   0.615  11.340   3.178 -1.0686  0.5867 -2.8427
  812MOL0     H 9571   0.395  11.509   3.095 -0.2393 -0.4239  1.7634
  812MOL0     H 9572   0.259  11.751   3.072 -0.4659 -0.5536 -0.8782
  812MOL0     H 9573   0.363  11.893   3.086 -0.8414  1.2480 -1.6308
  812MOL0     H 9574   0.261  11.864   2.851 -0.9934 -1.8828  1.3498
  812MOL0     H 9575   0.326  11.699   2.855 -0.0375  0.1619 -0.3713
  812MOL0     H 9576   0.567  11.813   2.855  0.7807  1.2276  1.0863
  812MOL0     H 9577   0.484  11.964   2.832 -2.5449 -0.0540 -1.0454
  812MOL0     H 9578   0.454  11.947   2.625  1.6206 -0.5223 -2.4255
  812MOL0     H 9579   0.382  11.783   2.618 -1.0470  0.5974 -0.5117
  812MOL0     H 9580   0.455  11.594   2.703  1.2404  1.6605  0.9326
  812MOL0     H 9581   0.410  11.375   2.732  1.2921  3.6179 -0.7048
  812MOL0     H 9582   0.488  11.264   2.618  0.0530 -0.2245  0.9715
  812MOL0     H 9583   0.534  11.259   2.791  0.6263 -0.8626 -0.3259
  812MOL0     H 9584   0.536  10.968   2.645 -2.0434 -3.0333 -1.5176
  812MOL0     H 9585   0.588  10.722   2.691  2.6703 -1.1395  2.5434
  812MOL0     H 9586   0.728  10.541   2.510 -2.0134 -1.7505  0.4207
  812MOL0     H 9587   0.819  10.419   2.602 -1.5915 -0.1922 -0.0723
  812MOL0     H 9588   0.555  10.537   2.661  0.2035  0.0264  0.4917
  812MOL0     H 9589   0.580  10.371   2.616  1.2079 -1.3347  0.9898
  812MOL0     H 9590   0.645  10.513   2.880 -0.2146 -0.5665  0.3359
  812MOL0     H 9591   0.722  10.359   2.852 -1.5915 -1.1738  0.7439
  812MOL0     H 9592   0.417  10.426   2.846 -0.1423  0.9299  1.3430
  812MOL0     H 9593   0.482  10.268   2.827  2.6069 -0.4674 -1.6656
  812MOL0     H 9594   0.593  10.305   3.056 -0.1037  1.3293  1.4312
  812MOL0     H 9595   0.425  10.260   3.062  4.0280 -4.1744 -2.7100
  812MOL0     H 9596   0.514  10.565   3.055 -2.3893  2.4715  1.0196
  812MOL0     H 9597   0.357  10.504   3.072  0.9049 -0.9737  0.2440
  812MOL0     H 9598   0.604  10.466   3.255 -0.2430  2.2377  0.3408
  812MOL0     H 9599   0.453  10.385   3.299  1.0503  1.6310  2.4232
  812MOL0     H 9600   0.513  10.665   3.284  3.4654 -0.3301  1.8824
  812MOL0     H 9601   0.471  10.579   3.436 -2.0129 -3.8932  0.0961
  812MOL0     H 9602   0.999  10.795   2.703 -0.3869  0.9799  3.2252
  812MOL0     H 9603   0.963  11.038   2.686 -1.3686  0.7491  2.2173
  812MOL0     H 9604   0.909  11.479   2.539 -0.3727  1.4200 -1.0805
  812MOL0     H 9605   0.808  11.719   2.529 -0.9010 -1.0492 -1.7656
  812MOL0     H 9606   0.840  10.462   3.284  3.1492 -1.2769  2.5138
  812MOL0     H 9607   0.869  10.228   3.235 -1.2096  1.8575  1.6983
  812MOL0     H 9608   1.017   9.952   2.656 -0.2749 -1.1263 -1.0687
  812MOL0     H 9609   1.119   9.747   2.603 -0.1287  0.9931 -0.7435
  812MOL0     H 9610   1.146   9.515   2.616 -0.2281 -0.7431  1.7855
  812MOL0     H 9611   1.307   9.589   2.621  0.3598 -1.0812 -1.1869
  812MOL0     H 9612   1.243   9.332   2.743 -0.8627  2.8860  0.7678
  812MOL0     H 9613   1.409   9.374   2.690  0.3280  3.4508  0.0868
  812MOL0     H 9614   1.351   9.382   2.455  0.8853 -0.4788  1.0375
  812MOL0     H 9615   1.187   9.303   2.502 -0.8090  1.0612  1.7363
  812MOL0     H 9616   1.290   9.139   2.608 -0.0121  1.0955  0.0818
  812MOL0     H 9617   1.455   9.172   2.553 -0.8445 -0.1182  2.0313
  812MOL0     H 9618   1.248   8.986   2.219 -3.0614 -2.3512  2.9357
  812MOL0     H 9619   1.199   9.676   3.022  1.0361  0.8170  0.1988
  812MOL0     H 9620   1.049   9.891   3.068  0.3612  2.2447 -0.4342
  813MOL0     O 9621   5.438   6.097   7.273 -0.6733  0.6723 -0.2611
  813MOL0     C 9622   5.471   5.980   7.251  0.9436 -0.4655 -0.0860
  813MOL0     O 9623   5.557   5.936   7.155  0.1273 -0.2181 -0.4510
  813MOL0     C 9624   5.579   6.007   7.039  0.3746 -0.2643  0.1149
  813MOL0     C 9625   5.520   5.972   6.919 -0.4377  0.4902  0.4515
  813MOL0     C 9626   5.534   6.061   6.806  0.0822  1.1003 -0.3022
  813MOL0     C 9627   5.615   6.170   6.822 -0.7110 -0.7103 -0.3383
  813MOL0     O 9628   5.641   6.267   6.732  0.3616  0.0594 -0.0686
  813MOL0     C 9629   5.595   6.245   6.598  1.2076 -0.3203  0.3151
  813MOL0     C 9630   5.630   6.376   6.520 -0.1531 -0.1455 -0.8213
  813MOL0     C 9631   5.574   6.350   6.386  0.4521 -0.3343  0.3809
  813MOL0     C 9632   5.599   6.460   6.283  0.6490  0.3376 -0.6691
  813MOL0     C 9633   5.578   6.420   6.134  0.2645  0.3370 -0.7000
  813MOL0     C 9634   5.619   6.534   6.044  0.7558 -1.1899 -0.4589
  813MOL0     C 9635   5.509   6.647   6.067  0.5234  0.4750  0.8335
  813MOL0     C 9636   5.359   6.605   6.071 -0.7417 -0.2296 -0.0972
  813MOL0     N 9637   5.293   6.717   5.998 -0.2461  0.4697 -0.8061
  813MOL0     C 9638   5.221   6.818   6.061  0.4865  0.0026  0.4121
  813MOL0     C 9639   5.171   6.873   5.950 -0.1114  0.8355 -0.6730
  813MOL0     C 9640   5.084   6.990   5.955  1.1228 -0.2732  0.4771
  813MOL0     C 9641   5.159   7.120   6.005  0.0249  0.3606  0.0530
  813MOL0     C 9642   5.276   7.162   5.913 -0.0649 -0.5097  0.2765
  813MOL0     C 9643   5.237   7.195   5.774 -0.7318 -0.1298 -0.6257
  813MOL0     O 9644   5.103   7.251   5.763 -0.2480 -0.5706  0.6284
  813MOL0     C 9645   5.065   7.287   5.638 -0.1192 -0.6207 -0.0293
  813MOL0     C 9646   5.069   7.208   5.523 -0.7516 -0.0156  0.8030
  813MOL0     C 9647   5.001   7.247   5.404  0.1855  0.5442  0.1562
  813MOL0     C 9648   4.990   7.137   5.290 -0.0868  0.5586 -0.8628
  813MOL0     C 9649   4.950   7.375   5.386 -0.2459 -0.6383 -0.2979
  813MOL0     C 9650   4.894   7.438   5.271  0.3716 -0.5468  0.3300
  813MOL0     O 9651   4.864   7.576   5.266  0.3767  0.0730  1.3473
  813MOL0     C 9652   4.794   7.622   5.152 -0.6435 -0.1194  0.5964
  813MOL0     C 9653   4.720   7.741   5.178 -0.5689  0.5477  0.3566
  813MOL0     C 9654   4.645   7.804   5.085 -0.4138  0.7400 -0.0224
  813MOL0     C 9655   4.628   7.743   4.956 -0.3197  0.4184  0.0603
  813MOL0     O 9656   4.545   7.800   4.858 -0.2991 -0.3073 -0.4702
  813MOL0     C 9657   4.428   7.874   4.894  0.3388  0.0773 -0.3325
  813MOL0     C 9658   4.305   7.824   4.975  0.8510  0.4240 -0.6636
  813MOL0     C 9659   4.196   7.919   5.006 -0.5919 -0.2295 -0.6302
  813MOL0     C 9660   4.090   7.851   5.095 -0.6973  0.8578  0.4472
  813MOL0     C 9661   3.988   7.951   5.147  0.2659 -0.1175 -0.4909
  813MOL0     C 9662   3.881   7.898   5.240  0.5421  0.7230  0.9688
  813MOL0     C 9663   3.773   8.000   5.263 -0.2451 -0.3651 -0.5836
  813MOL0     C 9664   3.657   8.015   5.168 -0.0516 -0.1935  0.3458
  813MOL0    Cl 9665   3.544   8.132   5.253  0.0770  0.1368  0.5802
  813MOL0     C 9666   4.693   7.619   4.927  0.0723 -0.0835 -0.4910
  813MOL0     C 9667   4.794   7.574   5.019  0.0631  0.0899  0.3293
  813MOL0     O 9668   4.856   7.358   5.187 -0.1205  0.3569 -0.3994
  813MOL0     C 9669   4.946   7.457   5.499 -0.8566  0.8710 -0.5027
  813MOL0     C 9670   5.002   7.413   5.620 -0.0419  0.0477  1.2131
  813MOL0     N 9671   5.215   6.822   5.831  0.1802 -0.3870  0.2679
  813MOL0     N 9672   5.287   6.722   5.862  0.1361 -0.4207 -0.2238
  813MOL0     C 9673   5.680   6.195   6.936 -0.5330 -0.3551 -0.6204
  813MOL0     C 9674   5.666   6.116   7.045 -0.3899 -0.6544  0.1485
  813MOL0     C 9675   5.418   5.886   7.345  0.3815  1.0518 -0.4579
  813MOL0     C 9676   5.294   5.906   7.401  0.0983 -0.6620 -0.0693
  813MOL0     C 9677   5.244   5.823   7.497 -0.0500 -0.1150  0.4006
  813MOL0     C 9678   5.313   5.714   7.549 -0.1486  0.3410 -0.1026
  813MOL0     O 9679   5.259   5.623   7.639  0.6228  0.8937  0.2668
  813MOL0     C 9680   5.308   5.486   7.647  0.5972  0.4660 -0.4920
  813MOL0     C 9681   5.221   5.403   7.740  0.1301  0.2100 -0.3042
  813MOL0     C 9682   5.069   5.429   7.713 -0.0272  0.7889  0.2580
  813MOL0     C 9683   4.980   5.320   7.769 -0.3914  0.4890 -0.4607
  813MOL0     C 9684   4.991   5.180   7.707  0.1476  0.4279 -0.3103
  813MOL0     C 9685   4.989   5.055   7.689  0.3483 -0.3041 -0.7046
  813MOL0     C 9686   5.432   5.688   7.483 -0.0885 -0.7229 -0.2377
  813MOL0     C 9687   5.482   5.767   7.379 -0.6673 -0.4493  0.1490
  813MOL0     H 9688   5.465   5.879   6.917  0.3640 -0.0182  1.5296
  813MOL0     H 9689   5.476   6.048   6.715  2.0879 -1.6627 -1.3451
  813MOL0     H 9690   5.627   6.157   6.542 -1.8813 -1.4933  0.1557
  813MOL0     H 9691   5.487   6.232   6.615  0.2976  4.7891  0.1209
  813MOL0     H 9692   5.590   6.466   6.568  1.1794 -0.8082  1.6497
  813MOL0     H 9693   5.738   6.383   6.528 -0.0694  0.1157 -1.9592
  813MOL0     H 9694   5.602   6.255   6.340  0.2583 -0.2969  0.1802
  813MOL0     H 9695   5.465   6.348   6.383  0.4690 -0.6738 -0.1623
  813MOL0     H 9696   5.537   6.546   6.311  0.1833  0.0219 -0.7250
  813MOL0     H 9697   5.701   6.498   6.294  0.9072 -0.2322 -1.0466
  813MOL0     H 9698   5.646   6.336   6.116  2.1480  1.5511  0.4245
  813MOL0     H 9699   5.476   6.384   6.120  0.5151 -0.6763 -0.0565
  813MOL0     H 9700   5.713   6.583   6.070 -0.3441  1.2627 -0.8364
  813MOL0     H 9701   5.647   6.491   5.947  4.1016 -2.4558  0.9166
  813MOL0     H 9702   5.523   6.708   6.157 -0.2491  3.0474 -0.6760
  813MOL0     H 9703   5.523   6.711   5.980  1.9301  1.1115  1.5025
  813MOL0     H 9704   5.327   6.580   6.173 -0.8286 -2.1478 -0.5393
  813MOL0     H 9705   5.343   6.514   6.012 -0.3035 -0.1340 -0.3679
  813MOL0     H 9706   5.225   6.846   6.166 -2.2373 -0.9606  0.8503
  813MOL0     H 9707   5.049   7.004   5.852  2.0326 -0.3815  0.1502
  813MOL0     H 9708   4.999   6.964   6.019 -0.7052 -2.6299 -2.6284
  813MOL0     H 9709   5.194   7.100   6.107 -0.1606 -3.6514 -0.5422
  813MOL0     H 9710   5.092   7.206   6.017 -0.7355 -0.2344  0.1529
  813MOL0     H 9711   5.357   7.088   5.921  1.4966  1.1620  0.6185
  813MOL0     H 9712   5.327   7.249   5.957 -2.7345  1.1339  0.2923
  813MOL0     H 9713   5.249   7.109   5.708  0.4059 -0.0222 -0.5786
  813MOL0     H 9714   5.313   7.267   5.742  3.0524 -2.4784  2.1886
  813MOL0     H 9715   5.116   7.110   5.525  0.9966  0.6943 -1.4102
  813MOL0     H 9716   4.883   7.131   5.271  0.1419 -0.5810 -1.9405
  813MOL0     H 9717   5.042   7.168   5.198  0.3049 -3.1725 -2.0809
  813MOL0     H 9718   5.014   7.037   5.325 -5.1930 -0.3740  0.7207
  813MOL0     H 9719   4.711   7.787   5.276 -0.9700  0.3721  0.4020
  813MOL0     H 9720   4.599   7.899   5.109  3.7872  3.9059 -2.9097
  813MOL0     H 9721   4.481   7.948   4.954  2.1333  0.1430 -1.9365
  813MOL0     H 9722   4.393   7.924   4.804  2.7452  1.3644 -0.6265
  813MOL0     H 9723   4.258   7.754   4.906  2.5212 -0.8927 -0.5436
  813MOL0     H 9724   4.327   7.781   5.073  2.3106  1.6225 -0.4277
  813MOL0     H 9725   4.150   7.956   4.914 -3.9964 -1.6141  0.3523
  813MOL0     H 9726   4.232   8.001   5.068 -1.3619 -0.8459  0.6690
  813MOL0     H 9727   4.040   7.777   5.032  0.4751 -3.9583  4.4836
  813MOL0     H 9728   4.136   7.800   5.180  3.1688 -0.4808 -2.1547
  813MOL0     H 9729   3.931   8.000   5.067 -3.8057 -2.1857  0.8936
  813MOL0     H 9730   4.043   8.028   5.202 -0.4743 -2.4064  3.9159
  813MOL0     H 9731   3.837   7.805   5.204 -0.9415  2.9073 -3.7070
  813MOL0     H 9732   3.915   7.880   5.342  1.4051 -2.2046  0.2672
  813MOL0     H 9733   3.827   8.091   5.291  2.0590 -1.4864 -1.1990
  813MOL0     H 9734   3.716   7.965   5.350 -0.7755 -1.6681 -1.4314
  813MOL0     H 9735   3.612   7.918   5.143 -0.0957 -0.8317  2.6778
  813MOL0     H 9736   3.686   8.068   5.077 -4.2263  2.1348  0.1473
  813MOL0     H 9737   4.690   7.560   4.836  1.3018 -0.2697 -0.4251
  813MOL0     H 9738   4.855   7.488   4.995  0.3438 -0.1669  1.8783
  813MOL0     H 9739   4.900   7.555   5.500 -2.8186 -0.0026  0.1300
  813MOL0     H 9740   5.004   7.457   5.720  2.2737  0.2529  1.1257
  813MOL0     H 9741   5.736   6.287   6.949  2.4999 -2.1998  0.3384
  813MOL0     H 9742   5.725   6.130   7.136 -2.5807 -3.5567  2.1963
  813MOL0     H 9743   5.240   5.998   7.381 -1.2757 -1.0923  1.4431
  813MOL0     H 9744   5.146   5.843   7.538 -1.1100 -0.3600 -1.8912
  813MOL0     H 9745   5.281   5.434   7.554 -0.2277 -1.7410  0.9059
  813MOL0     H 9746   5.412   5.475   7.677  0.3625 -1.0466 -0.1820
  813MOL0     H 9747   5.257   5.424   7.841 -0.2690 -1.9278  0.3206
  813MOL0     H 9748   5.242   5.296   7.734 -1.2605 -0.2830  2.4252
  813MOL0     H 9749   5.062   5.433   7.604  0.5071  1.0094  0.2290
  813MOL0     H 9750   5.041   5.524   7.760 -0.0521  0.8315  0.1592
  813MOL0     H 9751   4.873   5.345   7.761 -0.7627 -0.9405 -0.2755
  813MOL0     H 9752   5.007   5.328   7.875 -0.6999  0.2023 -0.3573
  813MOL0     H 9753   4.975   4.949   7.691  0.1951 -0.2855  1.1216
  813MOL0     H 9754   5.495   5.604   7.511  1.1043  0.5177  0.9650
  813MOL0     H 9755   5.577   5.749   7.329 -0.6338  3.1675 -1.4095
  814MOL0     O 9756   0.117   3.740   5.014  0.8750  0.4202  0.2805
  814MOL0     C 9757   0.206   3.818   5.008 -0.6400  0.0441 -0.0359
  814MOL0     O 9758   0.286   3.823   4.899  0.1174 -0.0409 -0.2343
  814MOL0     C 9759   0.273   3.746   4.782 -0.0697 -1.2984  0.1402
  814MOL0     C 9760   0.153   3.714   4.725  0.2329 -0.5643  0.7013
  814MOL0     C 9761   0.142   3.644   4.606  0.1131 -0.3265  0.4905
  814MOL0     C 9762   0.257   3.618   4.532  0.1485 -0.2066  0.4587
  814MOL0     O 9763   0.234   3.529   4.426 -0.6258 -0.2263  0.4309
  814MOL0     C 9764   0.345   3.452   4.381  0.8077 -0.9733 -0.6841
  814MOL0     C 9765   0.297   3.332   4.296  0.4456  0.0502  0.6393
  814MOL0     C 9766   0.250   3.215   4.375 -0.2224 -0.4456  0.2149
  814MOL0     C 9767   0.190   3.101   4.287 -0.2250  0.4248  0.5698
  814MOL0     C 9768   0.138   2.974   4.365 -0.7596 -0.1898 -0.8693
  814MOL0     C 9769   0.015   3.016   4.437  0.7067 -0.1271  0.3128
  814MOL0     C 9770  -0.065   2.890   4.483 -1.0823 -0.1677  0.1994
  814MOL0     C 9771  -0.123   2.926   4.622 -0.2914  0.5400  0.4793
  814MOL0     N 9772  -0.177   2.802   4.679  0.1977 -0.4142 -0.4754
  814MOL0     C 9773  -0.290   2.744   4.630  0.0561 -0.2504 -0.5287
  814MOL0     C 9774  -0.320   2.645   4.718 -0.8989  1.4088 -0.1742
  814MOL0     C 9775  -0.433   2.552   4.695 -0.6141  0.6790 -0.5608
  814MOL0     C 9776  -0.562   2.609   4.618 -0.5440 -0.3230 -1.1858
  814MOL0     C 9777  -0.681   2.516   4.656  0.0194 -0.2848 -0.5225
  814MOL0     C 9778  -0.809   2.574   4.590  0.4828 -0.4043 -0.4639
  814MOL0     O 9779  -0.822   2.720   4.606 -0.6005  1.1365  0.5063
  814MOL0     C 9780  -0.922   2.765   4.523 -0.2653 -0.4435  0.2147
  814MOL0     C 9781  -1.044   2.699   4.486 -0.0570  0.8461 -0.5339
  814MOL0     C 9782  -1.148   2.748   4.412  0.7575 -0.1327  0.0448
  814MOL0     C 9783  -1.271   2.654   4.389 -0.3201 -0.2864  0.3912
  814MOL0     C 9784  -1.131   2.870   4.351 -0.3584  0.9333  1.1153
  814MOL0     C 9785  -1.227   2.939   4.265  0.2373  0.0244 -0.1917
  814MOL0     O 9786  -1.293   2.862   4.179 -0.6360 -0.1102 -0.1451
  814MOL0     C 9787  -1.378   2.919   4.084 -0.2469  0.3069 -1.2837
  814MOL0     C 9788  -1.363   3.039   4.025  0.3761 -0.2661 -0.3192
  814MOL0     C 9789  -1.467   3.092   3.945 -0.8041  0.3920  0.7003
  814MOL0     C 9790  -1.582   3.032   3.923 -0.4754  0.0892 -0.0485
  814MOL0     O 9791  -1.674   3.097   3.840 -0.1004  0.4338 -0.3601
  814MOL0     C 9792  -1.815   3.098   3.876 -0.4463  0.4162  0.3573
  814MOL0     C 9793  -1.880   3.070   3.738 -0.0605  0.5052 -0.1264
  814MOL0     C 9794  -2.031   3.065   3.762 -0.5060  0.3976  0.6539
  814MOL0     C 9795  -2.086   3.026   3.620 -0.4603 -0.2618 -0.3895
  814MOL0     C 9796  -2.230   3.032   3.626  0.3696  0.1210 -0.1821
  814MOL0     C 9797  -2.293   2.929   3.721  0.1655  0.4323 -0.2748
  814MOL0     C 9798  -2.444   2.918   3.718  0.7026 -0.7818  0.0519
  814MOL0     C 9799  -2.502   2.795   3.773 -0.8496  0.2900 -0.9867
  814MOL0    Cl 9800  -2.481   2.782   3.954  0.2123 -0.5496  0.3068
  814MOL0     C 9801  -1.605   2.903   3.984 -0.2461 -0.3347 -0.3841
  814MOL0     C 9802  -1.499   2.848   4.067  0.6165 -0.2854  0.7927
  814MOL0     O 9803  -1.242   3.062   4.288 -0.1259 -0.1797 -0.6513
  814MOL0     C 9804  -1.009   2.938   4.378 -0.4967 -0.2156 -0.2544
  814MOL0     C 9805  -0.909   2.891   4.463  0.2840  0.5207  0.0474
  814MOL0     N 9806  -0.227   2.640   4.818  0.0236  0.1705  0.1147
  814MOL0     N 9807  -0.149   2.735   4.798  0.1344 -0.2195 -0.1362
  814MOL0     C 9808   0.385   3.664   4.577 -0.0415  0.4743 -0.3824
  814MOL0     C 9809   0.385   3.728   4.701 -0.9894  0.6248  0.5870
  814MOL0     C 9810   0.260   3.885   5.128  0.0781  0.2343  0.3087
  814MOL0     C 9811   0.179   3.897   5.237 -0.2392 -0.2149 -0.7803
  814MOL0     C 9812   0.220   3.969   5.347  0.0118 -0.0369 -0.4378
  814MOL0     C 9813   0.346   4.025   5.351  0.3455  0.5581  0.8993
  814MOL0     O 9814   0.404   4.096   5.456 -0.0091  0.2339  0.3812
  814MOL0     C 9815   0.370   4.081   5.593  0.6527  0.1588 -0.2307
  814MOL0     C 9816   0.302   4.204   5.656 -1.2560 -0.2516  0.2900
  814MOL0     C 9817   0.168   4.216   5.607 -0.6579  0.3535 -0.7422
  814MOL0     C 9818   0.078   4.298   5.689 -0.2621 -0.0889 -0.6343
  814MOL0     C 9819  -0.043   4.318   5.603 -1.1542 -0.7407  0.4200
  814MOL0     C 9820  -0.145   4.329   5.544 -0.4062  0.1478  0.4450
  814MOL0     C 9821   0.433   4.014   5.240  0.9007  0.1164 -0.3231
  814MOL0     C 9822   0.383   3.945   5.130  0.6349 -0.2334  0.4390
  814MOL0     H 9823   0.063   3.724   4.786 -1.6458  2.0729 -2.1915
  814MOL0     H 9824   0.043   3.609   4.576 -0.1533 -1.3744  2.4014
  814MOL0     H 9825   0.406   3.527   4.330  0.6039 -2.1875 -2.8730
  814MOL0     H 9826   0.399   3.416   4.468  0.3510 -0.0857 -0.0225
  814MOL0     H 9827   0.219   3.377   4.233 -1.1816 -0.9151  1.8915
  814MOL0     H 9828   0.391   3.299   4.250  1.0989  2.6105 -0.0185
  814MOL0     H 9829   0.334   3.167   4.425  1.8354  4.3594  1.9753
  814MOL0     H 9830   0.168   3.242   4.442 -4.3415 -3.3643 -3.0399
  814MOL0     H 9831   0.111   3.141   4.224  1.1863 -1.5737 -2.7226
  814MOL0     H 9832   0.255   3.081   4.201 -2.6892  2.5552 -1.9874
  814MOL0     H 9833   0.113   2.908   4.281  2.0979 -1.6563 -0.7107
  814MOL0     H 9834   0.202   2.912   4.427 -2.8872 -0.8069  0.8363
  814MOL0     H 9835   0.050   3.080   4.519 -0.2257  0.0445  0.5867
  814MOL0     H 9836  -0.046   3.071   4.364  0.8386  0.3220  0.5321
  814MOL0     H 9837  -0.141   2.872   4.406  0.2176 -1.2190 -0.9124
  814MOL0     H 9838   0.001   2.803   4.492 -0.2174  0.5742  1.2475
  814MOL0     H 9839  -0.189   3.014   4.618  1.3225  1.8422  1.3433
  814MOL0     H 9840  -0.045   2.963   4.689 -0.5317  0.1597  0.9747
  814MOL0     H 9841  -0.354   2.782   4.551 -0.5634  2.3871  1.1122
  814MOL0     H 9842  -0.398   2.460   4.649 -0.9986 -0.9838  2.2690
  814MOL0     H 9843  -0.466   2.496   4.783 -2.5639 -1.7302 -2.6774
  814MOL0     H 9844  -0.562   2.615   4.509  0.3269 -3.1169 -1.4284
  814MOL0     H 9845  -0.578   2.708   4.663  1.5667 -0.5894  0.3209
  814MOL0     H 9846  -0.694   2.504   4.764 -0.4559  1.8653 -0.2891
  814MOL0     H 9847  -0.665   2.417   4.612 -1.5946  0.0342 -1.9407
  814MOL0     H 9848  -0.896   2.526   4.635 -0.7969 -0.2689 -2.6580
  814MOL0     H 9849  -0.808   2.557   4.482  1.9551  3.3670 -1.1816
  814MOL0     H 9850  -1.046   2.594   4.515 -2.9464 -0.1457 -3.6208
  814MOL0     H 9851  -1.277   2.574   4.464 -1.8757 -0.1087  0.5016
  814MOL0     H 9852  -1.361   2.712   4.409 -1.8595 -0.0252 -5.4424
  814MOL0     H 9853  -1.275   2.626   4.283 -0.0625 -1.0604  0.5792
  814MOL0     H 9854  -1.269   3.082   4.059  0.8918 -2.5752  1.4753
  814MOL0     H 9855  -1.452   3.195   3.914 -0.5482  0.4165  0.8990
  814MOL0     H 9856  -1.843   3.018   3.945 -0.7913 -0.4112 -0.7089
  814MOL0     H 9857  -1.842   3.194   3.922 -2.9992  0.3007 -0.7622
  814MOL0     H 9858  -1.855   3.137   3.656 -0.9668 -0.1677 -0.9715
  814MOL0     H 9859  -1.844   2.972   3.705 -1.9665 -0.5171  0.6534
  814MOL0     H 9860  -2.072   3.161   3.794 -1.4137 -0.5867  2.5695
  814MOL0     H 9861  -2.057   2.999   3.845  0.6853  1.9236  2.3338
  814MOL0     H 9862  -2.042   3.093   3.545 -1.0611  0.8306  0.2128
  814MOL0     H 9863  -2.054   2.922   3.605  0.2055 -0.0997 -0.1513
  814MOL0     H 9864  -2.263   3.012   3.524 -1.7028  2.6805 -0.0967
  814MOL0     H 9865  -2.252   3.132   3.664  0.2680  0.1847 -0.4108
  814MOL0     H 9866  -2.263   2.828   3.694  0.1182  0.4024 -0.2156
  814MOL0     H 9867  -2.273   2.950   3.826  1.0482 -1.9646  0.0879
  814MOL0     H 9868  -2.483   2.936   3.618  1.9044 -1.1493 -0.4996
  814MOL0     H 9869  -2.478   2.989   3.794  2.5486 -3.1444  3.3320
  814MOL0     H 9870  -2.458   2.706   3.725 -0.9858 -0.7261  0.7040
  814MOL0     H 9871  -2.610   2.786   3.762 -0.9214 -3.4149  1.0258
  814MOL0     H 9872  -1.703   2.861   3.966  0.4431 -1.3478 -2.1092
  814MOL0     H 9873  -1.515   2.748   4.107  3.2602 -1.2299 -0.3013
  814MOL0     H 9874  -0.986   3.039   4.346 -0.3247  0.4056  1.6876
  814MOL0     H 9875  -0.830   2.963   4.482 -0.6852  1.7666 -0.4951
  814MOL0     H 9876   0.483   3.665   4.530  1.2901  1.3797  2.2195
  814MOL0     H 9877   0.483   3.750   4.740  0.0639 -2.1307 -0.2588
  814MOL0     H 9878   0.080   3.862   5.211 -0.5148  2.5000 -3.9466
  814MOL0     H 9879   0.153   3.991   5.430  0.4890 -2.0335  0.5177
  814MOL0     H 9880   0.301   3.997   5.605  1.1943 -0.2990 -0.2653
  814MOL0     H 9881   0.461   4.055   5.647  0.3614 -2.3955 -0.8526
  814MOL0     H 9882   0.364   4.288   5.626 -1.0066  0.1328  1.7996
  814MOL0     H 9883   0.310   4.204   5.765  1.3691  0.6038  0.1449
  814MOL0     H 9884   0.123   4.116   5.600 -2.4723  1.2094 -2.1375
  814MOL0     H 9885   0.178   4.268   5.511  0.1754 -0.0463 -0.8772
  814MOL0     H 9886   0.128   4.394   5.704 -2.4073  1.2345 -1.5741
  814MOL0     H 9887   0.062   4.250   5.787 -1.3988 -0.4037 -0.9603
  814MOL0     H 9888  -0.240   4.333   5.494 -1.7206  0.9042  2.8504
  814MOL0     H 9889   0.534   4.055   5.242  0.6412  0.7442  0.5667
  814MOL0     H 9890   0.453   3.937   5.047 -0.0469  2.2658 -0.4537
  815MOL0     O 9891   9.240   2.197   2.781  0.0427  0.9292  0.1409
  815MOL0     C 9892   9.167   2.112   2.737  0.0147  0.7166  0.6090
  815MOL0     O 9893   9.048   2.077   2.791  0.4682  0.0814 -0.6324
  815MOL0     C 9894   9.000   2.136   2.897 -0.2635  0.0513  1.0179
  815MOL0     C 9895   9.013   2.074   3.022 -0.4297  0.2903 -0.6461
  815MOL0     C 9896   8.962   2.133   3.142 -0.5828 -0.0013 -0.5309
  815MOL0     C 9897   8.892   2.250   3.132 -0.6112  0.0428 -0.8061
  815MOL0     O 9898   8.822   2.299   3.233 -0.4431 -0.1399  0.1513
  815MOL0     C 9899   8.873   2.301   3.365 -0.5011  0.9634 -0.4306
  815MOL0     C 9900   8.990   2.408   3.363 -0.0051  0.8042 -0.5332
  815MOL0     C 9901   9.099   2.380   3.465  0.7643  0.3411  0.6807
  815MOL0     C 9902   9.048   2.393   3.612 -0.0052 -0.0921 -0.9938
  815MOL0     C 9903   9.165   2.395   3.721  0.0759  0.2956 -0.5096
  815MOL0     C 9904   9.254   2.515   3.704 -0.6907 -0.6907 -0.4473
  815MOL0     C 9905   9.310   2.563   3.843 -0.6164 -0.1839 -0.6568
  815MOL0     C 9906   9.432   2.668   3.823 -0.4857  0.4000 -0.2216
  815MOL0     N 9907   9.540   2.581   3.769  1.3313  0.7920 -0.2292
  815MOL0     C 9908   9.608   2.475   3.845  0.1883 -1.0988 -0.4040
  815MOL0     C 9909   9.700   2.434   3.752  0.6400  0.0425 -0.0531
  815MOL0     C 9910   9.805   2.316   3.762 -0.3996 -1.0419 -0.5662
  815MOL0     C 9911   9.860   2.240   3.636 -0.5689 -0.1694  0.8304
  815MOL0     C 9912   9.782   2.123   3.577 -0.9890 -0.1221  0.3848
  815MOL0     C 9913   9.877   2.038   3.481 -0.0687  0.0820  0.3144
  815MOL0     O 9914   9.996   1.994   3.542  0.1966  0.4380  0.4928
  815MOL0     C 9915   9.989   1.875   3.605  0.5347 -0.2359  0.3228
  815MOL0     C 9916  10.065   1.877   3.724  0.0495 -0.5441 -0.5823
  815MOL0     C 9917  10.063   1.765   3.812  0.1836  0.4399 -0.7495
  815MOL0     C 9918  10.178   1.768   3.907  0.0031  0.3723  0.0675
  815MOL0     C 9919   9.997   1.646   3.777 -0.1230 -0.2332  0.0733
  815MOL0     C 9920  10.003   1.516   3.843  0.3869  0.0129 -1.3707
  815MOL0     O 9921   9.957   1.403   3.787 -0.4401 -0.2309 -0.1995
  815MOL0     C 9922   9.986   1.280   3.850 -0.2663  0.1408  0.2616
  815MOL0     C 9923  10.124   1.245   3.861  0.6675  0.7944  0.0667
  815MOL0     C 9924  10.158   1.121   3.913 -0.2371  0.3652 -0.1491
  815MOL0     C 9925  10.055   1.039   3.952  0.8382  0.1321 -0.2247
  815MOL0     O 9926  10.092   0.928   4.024  0.2367 -0.7538  0.7259
  815MOL0     C 9927  10.008   0.890   4.131 -0.2666 -0.2316  0.2635
  815MOL0     C 9928  10.083   0.805   4.224  0.7013 -0.0338 -0.4321
  815MOL0     C 9929  10.161   0.871   4.336  0.0912 -0.2670  0.1762
  815MOL0     C 9930  10.244   0.991   4.294 -0.0693  0.0857 -0.8676
  815MOL0     C 9931  10.371   0.999   4.385 -0.7139 -0.9732  0.0816
  815MOL0     C 9932  10.449   1.131   4.354 -0.4782  0.7299  0.1386
  815MOL0     C 9933  10.588   1.142   4.418  0.1256 -0.8120  0.1182
  815MOL0     C 9934  10.695   1.060   4.343  0.4099 -0.2002 -0.0821
  815MOL0    Cl 9935  10.855   1.119   4.398 -0.5362 -0.7275  0.4704
  815MOL0     C 9936   9.917   1.072   3.943 -0.1909 -0.5645  0.8128
  815MOL0     C 9937   9.890   1.196   3.890  0.4368  1.0247 -0.2887
  815MOL0     O 9938  10.067   1.511   3.947 -0.3139 -0.4079 -0.4652
  815MOL0     C 9939   9.911   1.655   3.661  0.6141 -0.2180  0.0711
  815MOL0     C 9940   9.921   1.759   3.566 -0.3311  0.2616 -0.2883
  815MOL0     N 9941   9.677   2.492   3.628 -1.0968 -0.1014 -0.1086
  815MOL0     N 9942   9.589   2.583   3.643 -0.3530  0.7568 -0.1761
  815MOL0     C 9943   8.892   2.319   3.009  0.3299 -0.4440  0.4498
  815MOL0     C 9944   8.945   2.258   2.894  0.4224  0.0080 -0.5702
  815MOL0     C 9945   9.192   2.058   2.608  1.0596  0.2624  1.6662
  815MOL0     C 9946   9.084   1.994   2.532 -0.2762 -0.0275 -0.5622
  815MOL0     C 9947   9.108   1.970   2.397  0.1887 -0.3477  0.0534
  815MOL0     C 9948   9.225   1.992   2.322 -0.5275  0.8912 -0.3015
  815MOL0     O 9949   9.225   1.930   2.197  0.2758  0.0563 -0.0792
  815MOL0     C 9950   9.332   1.950   2.093 -0.2056 -0.0161 -1.2136
  815MOL0     C 9951   9.331   2.094   2.038  0.1634  0.0707  0.1966
  815MOL0     C 9952   9.427   2.116   1.927  0.5278 -1.3716  0.3748
  815MOL0     C 9953   9.435   2.271   1.904  0.1419  0.2221 -0.5709
  815MOL0     C 9954   9.383   2.298   1.776  0.1017  0.4026  0.4776
  815MOL0     C 9955   9.337   2.315   1.668 -0.7587  0.3092  0.8454
  815MOL0     C 9956   9.333   2.040   2.398 -0.3574 -0.1678  1.0216
  815MOL0     C 9957   9.320   2.076   2.537 -0.4685  0.3772 -0.4467
  815MOL0     H 9958   9.051   1.972   3.026  1.0687  0.8598  1.8148
  815MOL0     H 9959   8.967   2.075   3.233  1.4282 -1.2814 -1.3735
  815MOL0     H 9960   8.797   2.338   3.434 -1.1890 -0.1659 -0.5502
  815MOL0     H 9961   8.908   2.204   3.402  0.1328  0.9376 -1.0553
  815MOL0     H 9962   9.036   2.404   3.264  0.8703 -0.1057 -0.1072
  815MOL0     H 9963   8.937   2.503   3.375 -3.8705 -1.0018 -1.8455
  815MOL0     H 9964   9.145   2.281   3.454  2.9873  1.4411 -0.7305
  815MOL0     H 9965   9.175   2.459   3.453 -1.2142  1.9104 -3.9880
  815MOL0     H 9966   8.996   2.486   3.634 -0.1551 -0.6250  1.0819
  815MOL0     H 9967   8.979   2.310   3.634 -2.1914  1.7656 -0.4922
  815MOL0     H 9968   9.108   2.387   3.814  0.1712 -6.5553 -0.5582
  815MOL0     H 9969   9.231   2.309   3.708 -0.0090  0.4195 -1.8926
  815MOL0     H 9970   9.333   2.486   3.635 -1.4325 -0.4894 -1.4090
  815MOL0     H 9971   9.200   2.593   3.650  0.8367  0.0319 -0.9747
  815MOL0     H 9972   9.222   2.609   3.890 -1.4634 -0.7595 -1.6437
  815MOL0     H 9973   9.338   2.485   3.915 -0.3978  1.6305  1.3546
  815MOL0     H 9974   9.466   2.721   3.912 -1.2840 -0.0778  0.3876
  815MOL0     H 9975   9.391   2.724   3.739 -5.5826  1.9702  2.8426
  815MOL0     H 9976   9.614   2.466   3.953 -0.3767  2.8074  0.1119
  815MOL0     H 9977   9.888   2.357   3.820  0.7700 -0.7324 -2.3929
  815MOL0     H 9978   9.759   2.237   3.823  0.3831 -0.1715  1.2449
  815MOL0     H 9979   9.958   2.196   3.658 -0.6517 -0.7374  0.1222
  815MOL0     H 9980   9.876   2.312   3.555  0.0628  4.7956  4.9042
  815MOL0     H 9981   9.700   2.152   3.509 -0.4499  0.9893  0.1842
  815MOL0     H 9982   9.751   2.059   3.659 -2.0358  0.8076  0.7537
  815MOL0     H 9983   9.906   2.106   3.400 -1.9678  0.0724 -0.4251
  815MOL0     H 9984   9.819   1.964   3.426  2.9662 -0.4092 -2.4667
  815MOL0     H 9985  10.130   1.963   3.729 -0.4478 -0.2211  0.7180
  815MOL0     H 9986  10.249   1.847   3.881 -1.3995  1.4401 -0.6686
  815MOL0     H 9987  10.137   1.790   4.006 -1.3298 -0.9799 -0.1560
  815MOL0     H 9988  10.236   1.677   3.925 -0.4942  0.6029  3.7188
  815MOL0     H 9989  10.192   1.320   3.823  0.7126  0.3108 -0.8457
  815MOL0     H 9990  10.259   1.086   3.929 -1.0732 -2.4854 -0.6274
  815MOL0     H 9991   9.973   0.987   4.168 -1.5577  0.1587 -1.8430
  815MOL0     H 9992   9.913   0.845   4.101 -0.7574 -0.5692  2.1758
  815MOL0     H 9993   9.994   0.750   4.256  1.0672 -0.8287 -0.7486
  815MOL0     H 9994  10.148   0.732   4.176  0.6896 -1.2010  1.2223
  815MOL0     H 9995  10.236   0.801   4.372  1.5744  0.9142 -0.4858
  815MOL0     H 9996  10.098   0.892   4.423  2.2780 -3.6296  2.7998
  815MOL0     H 9997  10.268   0.989   4.187 -0.9281 -1.8688 -1.0740
  815MOL0     H 9998  10.180   1.079   4.306  0.2186  0.1427  0.3835
  815MOL0     H 9999  10.446   0.920   4.368  1.3205  1.2422 -1.9476
  815MOL0     H10000  10.344   1.005   4.491  0.9296 -0.5563  0.5175
  815MOL0     H10001  10.443   1.156   4.247 -3.4119 -0.0451  0.0384
  815MOL0     H10002  10.395   1.209   4.408 -0.0841  1.1956 -0.1350
  815MOL0     H10003  10.590   1.108   4.522 -0.0887  0.5098  0.5728
  815MOL0     H10004  10.623   1.246   4.424  1.1503 -1.2342  2.5265
  815MOL0     H10005  10.686   1.081   4.236  0.3941  1.7952  0.2673
  815MOL0     H10006  10.672   0.956   4.367  2.0367 -0.8893 -1.3575
  815MOL0     H10007   9.851   0.989   3.964  0.4268 -1.3884 -0.3829
  815MOL0     H10008   9.785   1.220   3.881  0.5119  1.2739 -0.4991
  815MOL0     H10009   9.849   1.571   3.631 -0.0998 -0.0231  0.9653
  815MOL0     H10010   9.865   1.756   3.473 -1.1244 -2.0126  0.2208
  815MOL0     H10011   8.827   2.406   3.014 -0.7866 -1.1917 -0.5346
  815MOL0     H10012   8.939   2.307   2.797 -1.7100 -1.7960 -1.4108
  815MOL0     H10013   8.982   1.974   2.564  0.1882  0.4403  1.3413
  815MOL0     H10014   9.029   1.919   2.342 -2.2181  0.1035  2.8358
  815MOL0     H10015   9.430   1.936   2.139 -0.7073  1.0435  0.2697
  815MOL0     H10016   9.312   1.876   2.016 -0.5346  0.1019 -1.2447
  815MOL0     H10017   9.348   2.159   2.124 -0.2040 -1.7113  1.6675
  815MOL0     H10018   9.228   2.107   2.005 -1.1477 -2.2629  3.0295
  815MOL0     H10019   9.395   2.063   1.837 -0.2912  1.0145 -0.8125
  815MOL0     H10020   9.528   2.086   1.955  1.7708  2.2510  0.2192
  815MOL0     H10021   9.538   2.307   1.917 -0.0223 -0.2522  3.7204
  815MOL0     H10022   9.372   2.322   1.977  0.4015 -0.8725  0.4553
  815MOL0     H10023   9.288   2.328   1.574  1.1526  2.7239  0.0541
  815MOL0     H10024   9.431   2.039   2.350 -0.1614  0.2880  1.3928
  815MOL0     H10025   9.411   2.103   2.589  1.0577 -4.1329 -0.3089
  816MOL0     O10026  10.478   4.380   2.287  0.3700  0.0667  0.2425
  816MOL0     C10027  10.434   4.434   2.181  0.5078  0.9876 -0.2777
  816MOL0     O10028  10.313   4.401   2.116 -0.0857 -0.6684  0.1425
  816MOL0     C10029  10.227   4.306   2.161  1.5496  0.3821  0.5767
  816MOL0     C10030  10.113   4.352   2.225  0.5543  0.4588 -0.2399
  816MOL0     C10031  10.007   4.256   2.254 -0.3267  0.7158  0.2440
  816MOL0     C10032  10.028   4.124   2.207  0.4631  0.2309  0.4983
  816MOL0     O10033   9.911   4.051   2.214 -0.0533  0.1160  0.3682
  816MOL0     C10034   9.908   3.912   2.172  0.2788 -0.4235 -0.2195
  816MOL0     C10035   9.782   3.846   2.215 -0.1679 -0.5528  0.3104
  816MOL0     C10036   9.772   3.823   2.366  0.0150  0.4578 -0.0805
  816MOL0     C10037   9.640   3.768   2.398 -0.2151  0.1610 -0.1557
  816MOL0     C10038   9.591   3.762   2.538 -0.5741  0.1566 -0.2965
  816MOL0     C10039   9.462   3.673   2.552  0.5505  0.0349 -0.3368
  816MOL0     C10040   9.336   3.740   2.484 -0.4866 -0.0399 -0.6661
  816MOL0     C10041   9.212   3.649   2.465 -0.9508  0.3525 -0.2272
  816MOL0     N10042   9.143   3.633   2.590  0.2835 -0.4061  0.0036
  816MOL0     C10043   9.037   3.705   2.642  0.3852 -0.7646 -0.0068
  816MOL0     C10044   8.989   3.642   2.753 -0.0274  0.3655 -0.3834
  816MOL0     C10045   8.874   3.692   2.844  0.5893  0.7994 -0.5068
  816MOL0     C10046   8.774   3.576   2.868  1.0276 -0.8520 -0.5433
  816MOL0     C10047   8.651   3.625   2.952  0.5960  0.2004  0.1657
  816MOL0     C10048   8.689   3.703   3.082  0.8747 -0.0435 -0.0349
  816MOL0     O10049   8.684   3.848   3.059 -0.5705 -0.3391  0.1005
  816MOL0     C10050   8.709   3.930   3.169 -1.0050 -0.3519  0.3090
  816MOL0     C10051   8.813   3.908   3.265 -0.1191 -0.0172 -0.2513
  816MOL0     C10052   8.835   4.003   3.374 -0.5782 -1.2089  0.2159
  816MOL0     C10053   8.938   3.963   3.475 -0.4988 -1.0853  0.0504
  816MOL0     C10054   8.743   4.105   3.388  1.5315 -0.0796  0.3707
  816MOL0     C10055   8.740   4.193   3.502 -0.0614  0.2829  0.9715
  816MOL0     O10056   8.696   4.318   3.473  0.2113  0.3789  0.2520
  816MOL0     C10057   8.689   4.416   3.572  0.1828  0.4508  0.2977
  816MOL0     C10058   8.679   4.394   3.712  0.0978 -0.3128 -0.0436
  816MOL0     C10059   8.650   4.509   3.791  0.2138  0.0894 -0.0674
  816MOL0     C10060   8.633   4.641   3.732  0.0957  0.6130  0.6558
  816MOL0     O10061   8.606   4.760   3.792 -0.5110  0.1934  0.0222
  816MOL0     C10062   8.599   4.756   3.932  0.1732 -0.5157  0.0675
  816MOL0     C10063   8.605   4.913   3.969 -0.8322  0.8022 -0.0592
  816MOL0     C10064   8.484   4.959   4.051 -0.0980 -0.1377 -0.8025
  816MOL0     C10065   8.379   5.025   3.964  0.7699 -0.1294  0.9363
  816MOL0     C10066   8.256   5.059   4.038  0.6400 -0.5329 -0.7640
  816MOL0     C10067   8.161   5.147   3.953 -0.1901  0.7549 -0.4245
  816MOL0     C10068   8.086   5.075   3.847 -0.3613  0.6621 -0.0706
  816MOL0     C10069   8.008   5.173   3.755  0.8801  0.0242 -0.2900
  816MOL0    Cl10070   8.096   5.314   3.690  0.2258  0.1276  0.0250
  816MOL0     C10071   8.648   4.654   3.596  0.9568 -0.5720 -0.3575
  816MOL0     C10072   8.669   4.545   3.520 -0.0458  0.3157  0.5847
  816MOL0     O10073   8.758   4.149   3.618 -0.1530  0.0689  0.0767
  816MOL0     C10074   8.628   4.113   3.295 -0.0586  0.1805  0.7370
  816MOL0     C10075   8.615   4.028   3.185  0.2083  0.2503 -0.5672
  816MOL0     N10076   9.080   3.544   2.777 -0.3009  0.7039 -0.8215
  816MOL0     N10077   9.169   3.531   2.677  0.5476 -0.4575 -0.5554
  816MOL0     C10078  10.146   4.081   2.138 -0.1879  0.0657  1.3562
  816MOL0     C10079  10.237   4.176   2.114  0.0839 -0.2517 -0.3603
  816MOL0     C10080  10.508   4.539   2.117 -0.4874  0.2855 -0.0369
  816MOL0     C10081  10.591   4.623   2.199 -0.1453  0.7868  0.5582
  816MOL0     C10082  10.669   4.720   2.143  0.1549 -0.2492  0.0894
  816MOL0     C10083  10.673   4.740   1.999 -0.2125  0.5969 -0.7782
  816MOL0     O10084  10.734   4.839   1.925  0.8982 -0.0902 -0.1298
  816MOL0     C10085  10.803   4.945   1.991  0.3246  0.7519  0.4387
  816MOL0     C10086  10.955   4.924   1.971 -0.4692 -0.1256  0.0543
  816MOL0     C10087  11.024   5.034   2.048 -0.1412  0.4723  0.3587
  816MOL0     C10088  11.146   5.106   1.979  0.5207  0.6273 -0.4581
  816MOL0     C10089  11.200   5.209   2.072  0.1487 -0.5280 -0.4896
  816MOL0     C10090  11.233   5.309   2.138 -0.0521  0.5885 -0.5368
  816MOL0     C10091  10.590   4.660   1.923  0.0050  0.9671  0.0256
  816MOL0     C10092  10.501   4.563   1.977 -1.0811 -0.1236 -0.5352
  816MOL0     H10093  10.107   4.460   2.237  0.9053  0.5882 -1.1182
  816MOL0     H10094   9.927   4.292   2.318  0.3719  1.8236  0.5173
  816MOL0     H10095   9.923   3.912   2.064  2.9023 -0.8003  0.0784
  816MOL0     H10096   9.995   3.854   2.205  0.6273  1.0305  1.5428
  816MOL0     H10097   9.687   3.891   2.186 -2.2264 -3.7286  1.5580
  816MOL0     H10098   9.801   3.754   2.160  2.6541  1.0961 -1.7762
  816MOL0     H10099   9.857   3.758   2.391 -0.5038 -1.5404 -2.9663
  816MOL0     H10100   9.790   3.915   2.421 -0.1296 -1.9617  4.5340
  816MOL0     H10101   9.565   3.826   2.343  0.4492  0.0001 -1.2554
  816MOL0     H10102   9.641   3.669   2.353 -0.1124  0.4417 -0.7897
  816MOL0     H10103   9.666   3.723   2.607 -1.6944 -0.8074  0.4234
  816MOL0     H10104   9.569   3.866   2.563  0.0951 -0.3717  2.9025
  816MOL0     H10105   9.481   3.585   2.491  2.4418 -0.6341  1.1265
  816MOL0     H10106   9.447   3.652   2.658  4.1967 -0.0845  0.2550
  816MOL0     H10107   9.304   3.825   2.544  0.3034 -0.3018  0.1610
  816MOL0     H10108   9.361   3.778   2.385  0.8292  2.8384  0.6719
  816MOL0     H10109   9.247   3.554   2.424  1.3620  1.2111 -0.4223
  816MOL0     H10110   9.148   3.700   2.392 -0.7953  1.2324  0.2351
  816MOL0     H10111   9.002   3.798   2.598 -2.0394 -1.9434 -0.7425
  816MOL0     H10112   8.915   3.731   2.938 -1.7169  1.9637  0.0908
  816MOL0     H10113   8.816   3.775   2.802  2.2951  2.9019  1.0550
  816MOL0     H10114   8.827   3.507   2.934  0.6515  0.6165  1.3817
  816MOL0     H10115   8.738   3.535   2.773 -0.0595  2.4252 -1.6706
  816MOL0     H10116   8.603   3.531   2.980  0.6937 -0.4159 -1.6080
  816MOL0     H10117   8.578   3.682   2.893  0.6584 -0.2372 -0.3398
  816MOL0     H10118   8.780   3.664   3.128  0.3984  0.1096  1.0691
  816MOL0     H10119   8.618   3.686   3.164 -1.4866  0.1713 -1.9000
  816MOL0     H10120   8.884   3.825   3.257  0.6922  0.5062  1.1787
  816MOL0     H10121   8.970   4.051   3.532 -1.2970  1.2341 -2.8198
  816MOL0     H10122   8.884   3.895   3.540 -0.2084  0.9568  2.5940
  816MOL0     H10123   9.030   3.924   3.429 -0.9938 -1.5982 -0.5186
  816MOL0     H10124   8.676   4.298   3.762 -0.6003  0.7292  2.0135
  816MOL0     H10125   8.633   4.483   3.895  0.0965  0.2967 -0.0335
  816MOL0     H10126   8.506   4.706   3.961  1.7359 -2.5082  2.0517
  816MOL0     H10127   8.667   4.692   3.989  1.6883 -0.2287 -1.3234
  816MOL0     H10128   8.689   4.914   4.040 -0.3737 -2.7667 -0.3882
  816MOL0     H10129   8.617   4.983   3.886  0.2582 -0.2688 -0.8429
  816MOL0     H10130   8.507   5.034   4.127  0.2195  1.0391 -2.0055
  816MOL0     H10131   8.446   4.861   4.080  3.6378 -1.1782  1.1886
  816MOL0     H10132   8.416   5.122   3.929 -1.1084  0.5890  0.8496
  816MOL0     H10133   8.360   4.967   3.873  0.1558  1.1108  0.2606
  816MOL0     H10134   8.298   5.112   4.124 -1.5841  1.6874 -0.9120
  816MOL0     H10135   8.197   4.977   4.080 -1.6380  1.7711  0.8172
  816MOL0     H10136   8.080   5.187   4.014  0.4552  3.4156 -1.1949
  816MOL0     H10137   8.212   5.234   3.911 -1.0081  1.7274  0.5533
  816MOL0     H10138   8.004   5.014   3.886 -0.2670  0.6695  0.1370
  816MOL0     H10139   8.149   5.006   3.791 -1.9720  1.7163 -3.5039
  816MOL0     H10140   7.933   5.222   3.818  1.1318 -0.8806  0.7440
  816MOL0     H10141   7.961   5.115   3.674  0.6403 -0.5527  0.2462
  816MOL0     H10142   8.628   4.747   3.544  1.0894  0.5240  1.4514
  816MOL0     H10143   8.665   4.541   3.411  0.2260  1.6105  0.5068
  816MOL0     H10144   8.551   4.187   3.309 -0.9796 -0.3058 -1.3477
  816MOL0     H10145   8.549   4.047   3.101 -0.9436 -0.7729  0.0766
  816MOL0     H10146  10.148   3.978   2.104 -2.6205 -0.6502  3.1149
  816MOL0     H10147  10.325   4.146   2.059  2.7081 -0.2701  3.4124
  816MOL0     H10148  10.584   4.613   2.307 -3.0167 -0.2739  0.3636
  816MOL0     H10149  10.725   4.784   2.210 -0.0377  0.1217 -0.0969
  816MOL0     H10150  10.761   5.031   1.938  0.1243 -0.2654 -1.1261
  816MOL0     H10151  10.785   4.958   2.098 -0.4748  2.8718  0.0822
  816MOL0     H10152  10.982   4.932   1.866 -0.7290 -0.5517 -0.0457
  816MOL0     H10153  10.977   4.824   2.009  0.6244  0.5983  1.4280
  816MOL0     H10154  11.051   4.988   2.143 -1.6589 -2.5497 -0.5224
  816MOL0     H10155  10.961   5.119   2.078  1.2682  1.2946  1.0688
  816MOL0     H10156  11.113   5.165   1.893 -1.2726  0.4374  0.0640
  816MOL0     H10157  11.224   5.031   1.962 -0.3201 -0.1786 -0.8200
  816MOL0     H10158  11.267   5.400   2.184  1.0929 -0.2167  0.2624
  816MOL0     H10159  10.576   4.668   1.816 -0.2979 -1.0132 -0.1124
  816MOL0     H10160  10.428   4.507   1.921  1.4193 -3.3994 -0.8378
  817MOL0     O10161   7.137   9.205  10.290 -0.2565  0.1569  0.1387
  817MOL0     C10162   7.238   9.243  10.354 -0.3699 -0.6031  0.0016
  817MOL0     O10163   7.249   9.224  10.495 -0.1604 -0.1786  0.1438
  817MOL0     C10164   7.187   9.115  10.549 -0.4967  0.3945 -0.3944
  817MOL0     C10165   7.065   9.131  10.606 -0.1850 -0.5018 -0.2472
  817MOL0     C10166   7.004   9.025  10.669 -0.7527 -0.1233 -0.6053
  817MOL0     C10167   7.075   8.903  10.677 -0.4840  0.2628  0.1755
  817MOL0     O10168   7.024   8.792  10.738  0.3667  0.2631 -0.1212
  817MOL0     C10169   6.895   8.797  10.793  0.2225  0.4341  0.9474
  817MOL0     C10170   6.885   8.870  10.931 -0.0578  0.8042 -0.0032
  817MOL0     C10171   6.972   8.807  11.046 -0.1801 -0.2588 -0.0773
  817MOL0     C10172   7.115   8.859  11.037  0.6761 -0.9085 -0.0360
  817MOL0     C10173   7.191   8.819  11.166  0.9612 -1.0054  0.0569
  817MOL0     C10174   7.343   8.851  11.144 -0.6547 -0.3455  0.2496
  817MOL0     C10175   7.410   8.773  11.037 -0.2844 -0.3062  0.7309
  817MOL0     C10176   7.547   8.720  11.053  0.2069 -0.4357  0.2777
  817MOL0     N10177   7.651   8.801  10.996 -0.0086  0.5440  0.4273
  817MOL0     C10178   7.694   8.799  10.868  0.3168 -0.2723 -0.2924
  817MOL0     C10179   7.781   8.904  10.847  0.1699  1.7564 -0.3323
  817MOL0     C10180   7.833   8.945  10.713  0.7594  0.5074 -0.2165
  817MOL0     C10181   7.931   9.056  10.726  0.6892  0.2731  0.2989
  817MOL0     C10182   8.066   9.015  10.784 -0.1189 -0.3124  0.1871
  817MOL0     C10183   8.147   9.143  10.805  0.4364 -0.0138  0.1041
  817MOL0     O10184   8.271   9.105  10.858  0.1490  0.3154 -0.1997
  817MOL0     C10185   8.371   9.191  10.851 -0.2522 -0.2349  0.0670
  817MOL0     C10186   8.366   9.323  10.814 -0.3632  0.0086 -0.5642
  817MOL0     C10187   8.483   9.402  10.802 -0.5219  1.0564 -0.1651
  817MOL0     C10188   8.468   9.540  10.749 -0.3192  0.7138  0.1042
  817MOL0     C10189   8.617   9.343  10.827  0.2289  0.9342 -0.1533
  817MOL0     C10190   8.748   9.415  10.803  0.4264  0.6494 -0.1594
  817MOL0     O10191   8.862   9.344  10.844  1.0562  0.5282 -0.2498
  817MOL0     C10192   8.982   9.414  10.855  0.3387  1.0350 -0.0111
  817MOL0     C10193   9.102   9.344  10.829 -0.0911  0.0509 -0.3634
  817MOL0     C10194   9.225   9.407  10.858 -0.1118 -0.4475 -0.0748
  817MOL0     C10195   9.231   9.539  10.893 -0.9821  0.2471  0.4880
  817MOL0     O10196   9.361   9.595  10.912 -0.3105 -0.4096 -0.1240
  817MOL0     C10197   9.462   9.575  10.811 -0.0800  0.2022 -1.1952
  817MOL0     C10198   9.525   9.698  10.757  0.7484 -0.2582  0.0225
  817MOL0     C10199   9.675   9.673  10.724 -0.3041 -0.3812  0.3132
  817MOL0     C10200   9.769   9.666  10.845 -0.0999 -0.1665  0.6708
  817MOL0     C10201   9.915   9.688  10.813 -0.2069 -0.3690 -0.3482
  817MOL0     C10202   9.965   9.585  10.702  1.3334  0.0312  0.0707
  817MOL0     C10203  10.108   9.546  10.700 -0.1097 -0.1167 -0.6325
  817MOL0     C10204  10.188   9.608  10.593  0.2866  0.7073 -0.0728
  817MOL0    Cl10205  10.154   9.521  10.433  0.2020  0.1866 -0.3907
  817MOL0     C10206   9.112   9.605  10.925 -0.1450  0.3700  0.9872
  817MOL0     C10207   8.990   9.536  10.919 -0.1837 -0.3325  0.5661
  817MOL0     O10208   8.743   9.524  10.755  0.3779 -0.4728  0.6745
  817MOL0     C10209   8.616   9.207  10.875 -0.3866 -0.1614  0.0462
  817MOL0     C10210   8.494   9.136  10.891 -0.2963 -1.1650  0.1965
  817MOL0     N10211   7.794   8.966  10.967 -0.0676 -0.2478  0.4060
  817MOL0     N10212   7.720   8.900  11.060 -0.4427  0.6270  0.1001
  817MOL0     C10213   7.208   8.892  10.624 -0.8715  0.8015  0.2276
  817MOL0     C10214   7.260   8.999  10.561 -0.4592  0.5624  0.3018
  817MOL0     C10215   7.351   9.309  10.277  0.4814 -0.6163  0.4144
  817MOL0     C10216   7.469   9.367  10.343  0.3209 -0.0732  0.8310
  817MOL0     C10217   7.568   9.418  10.258  0.3205  0.2596  0.5586
  817MOL0     C10218   7.559   9.431  10.118  0.3966  0.4214  0.1147
  817MOL0     O10219   7.665   9.462  10.037  0.2416 -0.0765  0.9912
  817MOL0     C10220   7.670   9.420   9.894 -0.2556 -0.0626 -0.0436
  817MOL0     C10221   7.784   9.500   9.826 -0.2220 -0.0408 -0.0140
  817MOL0     C10222   7.916   9.487   9.904 -0.0802  0.6380 -0.0252
  817MOL0     C10223   7.987   9.349   9.862  0.0661  0.9128 -0.5670
  817MOL0     C10224   8.122   9.359   9.899 -0.3306 -0.1881 -0.0978
  817MOL0     C10225   8.232   9.356   9.941 -0.4579 -0.7126  0.2243
  817MOL0     C10226   7.437   9.380  10.058 -0.1306 -0.0142 -0.0557
  817MOL0     C10227   7.337   9.324  10.137  0.1987 -0.3640 -0.1513
  817MOL0     H10228   7.006   9.222  10.608  0.4423 -0.0618  2.5297
  817MOL0     H10229   6.901   9.029  10.703 -1.2349 -2.4270 -1.5360
  817MOL0     H10230   6.824   8.846  10.726  1.6048  2.3961  0.8464
  817MOL0     H10231   6.852   8.696  10.799  2.0728 -0.4553 -0.0521
  817MOL0     H10232   6.909   8.976  10.923  0.3390  0.6696 -0.5877
  817MOL0     H10233   6.781   8.868  10.966 -0.1456  4.3700  0.3909
  817MOL0     H10234   6.939   8.845  11.144 -1.1094 -0.5082 -0.2792
  817MOL0     H10235   6.958   8.699  11.048 -1.5540 -0.1022  0.5055
  817MOL0     H10236   7.172   8.815  10.954  1.1344 -0.6193  0.1225
  817MOL0     H10237   7.112   8.965  11.012  0.1479 -1.4113 -2.3793
  817MOL0     H10238   7.146   8.885  11.241  2.4148 -2.5528  2.3930
  817MOL0     H10239   7.177   8.713  11.189 -2.1371 -0.5576  0.6637
  817MOL0     H10240   7.362   8.958  11.127  0.3248 -0.3983  0.9746
  817MOL0     H10241   7.390   8.822  11.239  1.7092 -3.9297 -1.7807
  817MOL0     H10242   7.349   8.682  11.033 -1.9301  0.7786 -0.1557
  817MOL0     H10243   7.405   8.829  10.943 -0.0305  2.4692  2.2655
  817MOL0     H10244   7.551   8.616  11.020  2.1827 -0.5320  0.7004
  817MOL0     H10245   7.552   8.713  11.162 -0.7886 -0.2091  0.3448
  817MOL0     H10246   7.667   8.741  10.780 -1.1187 -0.1873  0.0607
  817MOL0     H10247   7.883   8.862  10.662 -0.5833 -0.8651  0.6103
  817MOL0     H10248   7.750   8.985  10.654  1.5670 -0.3414 -2.0013
  817MOL0     H10249   7.882   9.131  10.789  2.1740  0.5877  1.1336
  817MOL0     H10250   7.940   9.097  10.625 -1.8328 -0.5694 -0.3289
  817MOL0     H10251   8.122   8.948  10.718 -0.7222 -0.7555  0.1154
  817MOL0     H10252   8.045   8.978  10.885  0.8968  2.5951  1.5886
  817MOL0     H10253   8.092   9.203  10.878 -0.6629 -2.2453  1.2294
  817MOL0     H10254   8.151   9.203  10.714  0.2806 -0.5525 -0.2647
  817MOL0     H10255   8.270   9.361  10.782 -0.5443 -0.5234 -0.6689
  817MOL0     H10256   8.522   9.559  10.656  0.4238  1.2219  0.6251
  817MOL0     H10257   8.361   9.556  10.732 -1.2723 -2.0184  2.6363
  817MOL0     H10258   8.518   9.608  10.818 -2.3142  1.3056  1.0553
  817MOL0     H10259   9.093   9.241  10.797  0.4253  0.4524 -1.8964
  817MOL0     H10260   9.313   9.344  10.846  1.5054  1.4910  1.1359
  817MOL0     H10261   9.545   9.514  10.848  2.0461  4.2847  1.6694
  817MOL0     H10262   9.420   9.525  10.724 -0.2100  0.2633 -1.1680
  817MOL0     H10263   9.462   9.718  10.670 -1.2491 -1.7630  1.0174
  817MOL0     H10264   9.499   9.783  10.820 -2.3817 -0.1348 -1.2567
  817MOL0     H10265   9.708   9.757  10.663 -0.3723 -0.2896  0.4020
  817MOL0     H10266   9.693   9.577  10.675  0.8086  0.9138 -1.9354
  817MOL0     H10267   9.736   9.734  10.924 -0.9588 -0.1911  0.3442
  817MOL0     H10268   9.780   9.563  10.879 -2.1056 -0.0142  1.8674
  817MOL0     H10269   9.971   9.653  10.900  1.0985  0.1986 -0.9286
  817MOL0     H10270   9.942   9.793  10.794  2.1288 -0.6116  1.2582
  817MOL0     H10271   9.917   9.487  10.699 -0.8972  1.0754 -0.0651
  817MOL0     H10272   9.924   9.636  10.615 -2.9903  0.6942  2.2362
  817MOL0     H10273  10.105   9.437  10.692 -3.0176 -0.4544  2.6085
  817MOL0     H10274  10.156   9.570  10.795 -2.4323  0.5783  0.4450
  817MOL0     H10275  10.296   9.608  10.606  0.6219  2.5338 -2.1707
  817MOL0     H10276  10.156   9.712  10.584 -0.6179  0.4251 -0.2766
  817MOL0     H10277   9.132   9.698  10.978 -0.6440  0.4897  0.9706
  817MOL0     H10278   8.898   9.573  10.963 -0.4661 -1.4028  0.8892
  817MOL0     H10279   8.708   9.151  10.891 -0.4725 -0.0726  0.8945
  817MOL0     H10280   8.506   9.036  10.930  0.3676 -0.6019  1.4944
  817MOL0     H10281   7.261   8.798  10.638 -0.1613  0.6438 -2.7455
  817MOL0     H10282   7.362   9.004  10.525 -1.8677  2.3135 -4.0262
  817MOL0     H10283   7.486   9.352  10.450  0.1104 -0.3684  0.8269
  817MOL0     H10284   7.662   9.446  10.304  0.1709  2.2628 -0.2814
  817MOL0     H10285   7.679   9.311   9.896 -0.2375 -0.0502  1.0443
  817MOL0     H10286   7.571   9.446   9.855 -0.9505 -0.6037  1.2979
  817MOL0     H10287   7.752   9.604   9.820 -2.2521 -0.5660  0.8220
  817MOL0     H10288   7.794   9.472   9.720 -1.8010 -0.6681 -0.0294
  817MOL0     H10289   7.899   9.507  10.010 -1.0862  2.3136 -0.4613
  817MOL0     H10290   7.979   9.568   9.866  0.6027 -0.6675 -1.8104
  817MOL0     H10291   7.976   9.319   9.757  5.4227 -0.2657 -1.0613
  817MOL0     H10292   7.957   9.263   9.923 -0.7121  1.8727  0.4323
  817MOL0     H10293   8.324   9.352   9.995 -1.5174 -0.7717  2.1118
  817MOL0     H10294   7.408   9.379   9.953 -1.4159 -0.6502  0.2863
  817MOL0     H10295   7.259   9.277  10.079 -0.5005 -0.1305  0.5758
  818MOL0     O10296   3.198   2.832   5.518  0.3060 -0.5983 -0.4210
  818MOL0     C10297   3.123   2.927   5.526  0.7467 -0.3951 -0.4280
  818MOL0     O10298   2.985   2.916   5.553 -0.7669  0.0186 -0.6457
  818MOL0     C10299   2.939   2.784   5.568  0.8958  0.5203 -0.6876
  818MOL0     C10300   2.887   2.726   5.691 -0.6548 -0.4560  0.0838
  818MOL0     C10301   2.819   2.605   5.681 -0.5692 -0.1794  0.9391
  818MOL0     C10302   2.816   2.518   5.563 -0.7492 -0.3961 -0.5894
  818MOL0     O10303   2.766   2.396   5.560 -0.0637 -0.2936 -0.1041
  818MOL0     C10304   2.804   2.303   5.457 -0.0541 -0.7459 -0.1361
  818MOL0     C10305   2.760   2.172   5.510 -0.1784  0.7533  0.0204
  818MOL0     C10306   2.830   2.058   5.445  0.9185  1.0884 -0.0789
  818MOL0     C10307   2.789   2.039   5.297  0.5757  0.3105 -0.0691
  818MOL0     C10308   2.893   1.965   5.213 -0.0136  0.5480  0.7120
  818MOL0     C10309   2.837   1.947   5.072 -0.2132 -0.5960  0.4492
  818MOL0     C10310   2.924   1.849   4.990  1.4408 -0.2491 -0.0172
  818MOL0     C10311   3.061   1.907   4.935  0.1565 -0.4039  0.4655
  818MOL0     N10312   3.140   1.794   4.880  0.3346 -0.4452  0.6202
  818MOL0     C10313   3.128   1.736   4.759 -0.4462 -0.3940  0.3176
  818MOL0     C10314   3.209   1.630   4.771 -0.8375  0.1708 -0.0379
  818MOL0     C10315   3.244   1.536   4.660 -0.1942 -0.2556  0.0627
  818MOL0     C10316   3.153   1.547   4.528 -0.0231 -0.7078  0.2347
  818MOL0     C10317   3.192   1.440   4.435 -0.5880  0.6620  1.1892
  818MOL0     C10318   3.149   1.463   4.285 -0.1674  0.0409 -0.0424
  818MOL0     O10319   3.125   1.340   4.215 -0.2898  0.0881  0.4386
  818MOL0     C10320   3.041   1.242   4.270 -0.5898 -0.8963 -0.1620
  818MOL0     C10321   2.934   1.270   4.357  0.3058  0.4394  1.5162
  818MOL0     C10322   2.826   1.181   4.371 -0.6851 -0.0134 -0.8130
  818MOL0     C10323   2.704   1.213   4.457  0.0237  0.7967  0.1559
  818MOL0     C10324   2.829   1.054   4.315  1.0206 -0.9175 -0.5230
  818MOL0     C10325   2.733   0.942   4.340  0.1370  0.6895 -0.2269
  818MOL0     O10326   2.669   0.932   4.464 -0.2158  0.2449  0.7288
  818MOL0     C10327   2.557   0.852   4.478 -0.7277 -1.2135  0.4200
  818MOL0     C10328   2.461   0.838   4.377  0.5551  0.9723  0.7846
  818MOL0     C10329   2.338   0.759   4.404 -0.5115 -0.8449  0.4815
  818MOL0     C10330   2.340   0.659   4.502 -0.6392 -0.4200 -0.5806
  818MOL0     O10331   2.246   0.559   4.521  0.2981 -0.2477  0.1699
  818MOL0     C10332   2.132   0.545   4.426 -0.4509 -0.9258 -0.5871
  818MOL0     C10333   2.055   0.424   4.481 -0.1743  0.0049  1.1465
  818MOL0     C10334   1.926   0.386   4.411  0.6173 -0.9514 -1.5132
  818MOL0     C10335   1.812   0.477   4.451 -0.5231  0.2078 -0.5056
  818MOL0     C10336   1.698   0.471   4.348 -0.0470 -0.5903 -0.4303
  818MOL0     C10337   1.558   0.504   4.393  0.7465 -0.1401  0.3843
  818MOL0     C10338   1.446   0.499   4.276  0.1640 -0.7620  1.1552
  818MOL0     C10339   1.476   0.570   4.142  0.5285  0.8693  0.3052
  818MOL0    Cl10340   1.480   0.741   4.168  0.1679 -0.4151 -0.2172
  818MOL0     C10341   2.456   0.657   4.584 -0.1409 -0.4651  0.0931
  818MOL0     C10342   2.555   0.767   4.582 -0.8642  0.9564 -0.1502
  818MOL0     O10343   2.718   0.860   4.251 -0.0663 -0.0589 -0.5722
  818MOL0     C10344   2.933   1.029   4.228 -0.1585  0.6891  0.2011
  818MOL0     C10345   3.046   1.115   4.211  0.0449  0.1044  0.1097
  818MOL0     N10346   3.261   1.629   4.895  0.3084  0.1626  0.5879
  818MOL0     N10347   3.210   1.717   4.963  0.6517 -0.5298  0.0180
  818MOL0     C10348   2.888   2.573   5.457 -0.4739  0.1483  0.0189
  818MOL0     C10349   2.942   2.703   5.457  0.2943 -0.0340 -0.4972
  818MOL0     C10350   3.174   3.066   5.519  0.4554  0.6043  0.0920
  818MOL0     C10351   3.294   3.091   5.457 -0.0481 -0.2799  0.3417
  818MOL0     C10352   3.337   3.219   5.445  0.2852 -0.9232 -0.4690
  818MOL0     C10353   3.262   3.324   5.495 -1.1513  0.0899 -0.4770
  818MOL0     O10354   3.307   3.446   5.449  0.5971  0.3829  0.4469
  818MOL0     C10355   3.211   3.549   5.429  0.8187 -0.1923 -0.6845
  818MOL0     C10356   3.292   3.676   5.416  1.2496 -0.5791 -0.0442
  818MOL0     C10357   3.207   3.796   5.454  0.1353  0.2014 -0.0709
  818MOL0     C10358   3.293   3.916   5.483 -0.3197 -0.8858  0.2546
  818MOL0     C10359   3.359   3.921   5.615 -0.8112 -0.3316 -0.5485
  818MOL0     C10360   3.412   3.917   5.727 -0.1653  0.4269  0.3577
  818MOL0     C10361   3.141   3.303   5.561 -0.1461  1.0698 -0.3872
  818MOL0     C10362   3.101   3.172   5.568  0.3116 -0.3314 -0.0106
  818MOL0     H10363   2.892   2.792   5.777 -3.9220  1.0514 -0.7021
  818MOL0     H10364   2.772   2.567   5.771 -0.0724 -1.9598  0.4921
  818MOL0     H10365   2.749   2.331   5.367  0.0493 -2.2580 -0.6999
  818MOL0     H10366   2.909   2.301   5.427  1.1538 -0.4415  3.5815
  818MOL0     H10367   2.783   2.165   5.617  0.2693  3.0846  0.1123
  818MOL0     H10368   2.652   2.163   5.492 -0.3181 -1.3229  1.4985
  818MOL0     H10369   2.938   2.073   5.459  0.8169  1.0924  0.7450
  818MOL0     H10370   2.790   1.967   5.491  2.2416 -0.0819 -1.1234
  818MOL0     H10371   2.697   1.980   5.295 -1.0421  2.6931 -0.2216
  818MOL0     H10372   2.751   2.127   5.245  1.7079  1.7694  1.4524
  818MOL0     H10373   2.982   2.029   5.209  0.4974 -0.0267  2.2742
  818MOL0     H10374   2.921   1.866   5.248 -3.9886 -1.1975 -0.4091
  818MOL0     H10375   2.733   1.912   5.071  0.2657 -2.0864 -1.2726
  818MOL0     H10376   2.825   2.045   5.027 -0.7933 -1.2826 -0.9578
  818MOL0     H10377   2.938   1.751   5.037  3.3830 -0.1977 -0.4140
  818MOL0     H10378   2.870   1.825   4.898 -2.3957  0.8099  1.7735
  818MOL0     H10379   3.114   1.952   5.019  0.8774  0.8308 -0.6097
  818MOL0     H10380   3.044   1.981   4.856 -0.0954  1.6921  2.3797
  818MOL0     H10381   3.074   1.766   4.670  4.3134  1.3812 -2.3497
  818MOL0     H10382   3.352   1.539   4.641  0.0995  0.1681  1.6314
  818MOL0     H10383   3.223   1.442   4.712  0.1085  0.9913  2.5921
  818MOL0     H10384   3.172   1.647   4.487  0.5071 -0.8236  0.1954
  818MOL0     H10385   3.050   1.553   4.563  0.8877  1.3480  2.9213
  818MOL0     H10386   3.151   1.346   4.474  0.0496 -0.1631 -0.0661
  818MOL0     H10387   3.301   1.431   4.429 -0.8554 -3.2140 -1.4750
  818MOL0     H10388   3.237   1.517   4.247 -0.2944  0.8743  0.8239
  818MOL0     H10389   3.064   1.531   4.277 -2.4132 -2.5588  0.2095
  818MOL0     H10390   2.927   1.372   4.393 -0.8711  0.4488  1.2974
  818MOL0     H10391   2.706   1.173   4.558 -0.1673  1.0647  0.2678
  818MOL0     H10392   2.700   1.320   4.479  1.0211  0.6527  1.1076
  818MOL0     H10393   2.608   1.190   4.409 -0.2439 -2.8938  2.0999
  818MOL0     H10394   2.459   0.902   4.290  0.3322  0.1002  0.1419
  818MOL0     H10395   2.250   0.766   4.341 -0.7528  1.8037  1.0299
  818MOL0     H10396   2.065   0.629   4.445  1.9392  0.4296  2.9791
  818MOL0     H10397   2.161   0.531   4.321  1.0194  1.0052 -0.4789
  818MOL0     H10398   2.118   0.338   4.455  2.9664  2.6914 -1.1412
  818MOL0     H10399   2.038   0.443   4.587  1.2865  1.9044  1.0848
  818MOL0     H10400   1.907   0.279   4.426  2.4312 -1.0702  0.4560
  818MOL0     H10401   1.946   0.389   4.303  0.3726 -2.4585 -1.6279
  818MOL0     H10402   1.769   0.437   4.542 -0.4418  0.1329 -0.5008
  818MOL0     H10403   1.835   0.583   4.466 -4.9551  1.2059  0.4637
  818MOL0     H10404   1.689   0.372   4.301 -0.8408 -0.7510  0.0412
  818MOL0     H10405   1.727   0.537   4.266 -1.6457 -0.7779 -1.1988
  818MOL0     H10406   1.523   0.433   4.469 -1.3182 -1.0601 -1.3363
  818MOL0     H10407   1.553   0.601   4.444 -0.0076  0.6157 -1.0802
  818MOL0     H10408   1.352   0.534   4.320 -0.2425 -0.8582  0.3792
  818MOL0     H10409   1.425   0.395   4.250 -1.4525 -0.0703 -0.5587
  818MOL0     H10410   1.409   0.543   4.060  0.8801  1.2625 -0.1197
  818MOL0     H10411   1.574   0.548   4.099  0.9598 -0.6396  1.9140
  818MOL0     H10412   2.470   0.581   4.660  2.5277  0.6352  0.8378
  818MOL0     H10413   2.628   0.769   4.662 -0.8793 -0.6752 -0.0601
  818MOL0     H10414   2.935   0.929   4.186  2.8663  1.3094 -1.4481
  818MOL0     H10415   3.130   1.088   4.148 -0.2868  2.1280 -1.3036
  818MOL0     H10416   2.899   2.517   5.365  2.2331  2.2578 -1.0703
  818MOL0     H10417   2.995   2.748   5.374  1.4271  0.6463  0.5601
  818MOL0     H10418   3.352   3.003   5.430 -1.1431 -1.8225  2.6855
  818MOL0     H10419   3.435   3.242   5.406  1.8423 -0.5473  3.2735
  818MOL0     H10420   3.136   3.537   5.349 -0.1916 -1.5657  0.4285
  818MOL0     H10421   3.162   3.563   5.525  2.0895  3.4040 -0.4104
  818MOL0     H10422   3.311   3.684   5.308 -1.2852 -4.4132 -0.9889
  818MOL0     H10423   3.384   3.677   5.476  1.8213 -0.8246 -0.8966
  818MOL0     H10424   3.143   3.779   5.541 -0.0786  3.1251  0.4505
  818MOL0     H10425   3.135   3.801   5.371  1.6674 -0.0014 -1.4693
  818MOL0     H10426   3.234   4.004   5.458 -1.7856 -2.0492 -0.4822
  818MOL0     H10427   3.378   3.913   5.414  1.4746 -2.0781  2.3838
  818MOL0     H10428   3.458   3.925   5.823 -4.1153 -1.5945  2.6670
  818MOL0     H10429   3.083   3.390   5.592 -1.9101  0.7291 -2.4648
  818MOL0     H10430   3.003   3.151   5.609  0.0050 -1.2985 -1.1767
  819MOL0     O10431   0.145   5.576   0.920 -0.6354 -0.5262 -1.3721
  819MOL0     C10432   0.264   5.614   0.933  0.2419  0.7410  0.4503
  819MOL0     O10433   0.330   5.704   0.860 -0.4665 -1.0738 -0.0072
  819MOL0     C10434   0.271   5.774   0.751 -0.3938  0.0660 -0.4384
  819MOL0     C10435   0.139   5.821   0.738 -0.3037  0.0109  0.6579
  819MOL0     C10436   0.090   5.859   0.610 -0.4378  0.2651 -0.1510
  819MOL0     C10437   0.169   5.884   0.501 -0.3816  0.4573 -0.7868
  819MOL0     O10438   0.137   5.935   0.374  0.1343 -0.4089  0.2246
  819MOL0     C10439   0.045   5.857   0.301 -0.2607 -0.1536  0.2899
  819MOL0     C10440   0.005   5.908   0.153 -0.4379  0.0001 -0.0923
  819MOL0     C10441  -0.106   5.821   0.101  0.4215 -0.3268  0.0888
  819MOL0     C10442  -0.061   5.672   0.053 -0.4079  0.8714 -0.0921
  819MOL0     C10443  -0.173   5.595  -0.017  0.7863 -0.5793  0.0168
  819MOL0     C10444  -0.210   5.612  -0.162 -1.0531 -0.3524  0.2342
  819MOL0     C10445  -0.350   5.561  -0.186  0.0304  0.4985 -0.0481
  819MOL0     C10446  -0.401   5.543  -0.333 -0.3831  0.0825 -0.0727
  819MOL0     N10447  -0.400   5.667  -0.418  0.3312  0.2326  0.1953
  819MOL0     C10448  -0.480   5.780  -0.393 -0.0525 -0.8141 -0.7612
  819MOL0     C10449  -0.474   5.856  -0.506  0.2488  0.8202 -0.1563
  819MOL0     C10450  -0.528   5.991  -0.538 -0.6001 -0.9676 -0.0073
  819MOL0     C10451  -0.468   6.090  -0.436  0.0258 -0.0964  0.3161
  819MOL0     C10452  -0.337   6.157  -0.476 -0.2270 -0.5195  0.1985
  819MOL0     C10453  -0.237   6.066  -0.538  0.4613  0.4771 -0.1929
  819MOL0     O10454  -0.110   6.132  -0.541  0.1222  0.3565  0.3089
  819MOL0     C10455   0.001   6.055  -0.555  0.6531 -0.7919  0.5434
  819MOL0     C10456   0.010   5.912  -0.558 -0.2205  0.2382  0.2497
  819MOL0     C10457   0.126   5.842  -0.588 -0.2493 -0.2724  0.3696
  819MOL0     C10458   0.110   5.693  -0.607 -0.4263 -0.5805 -1.0620
  819MOL0     C10459   0.246   5.914  -0.584 -0.3463  0.0738 -0.7761
  819MOL0     C10460   0.378   5.840  -0.582 -0.3291  0.1077 -0.7061
  819MOL0     O10461   0.379   5.714  -0.530 -0.5384 -0.5801 -0.2467
  819MOL0     C10462   0.495   5.640  -0.551 -0.2609 -0.4490  0.2106
  819MOL0     C10463   0.614   5.645  -0.476 -0.4403 -0.2205  0.1888
  819MOL0     C10464   0.718   5.550  -0.488  0.4267  0.2885  0.7296
  819MOL0     C10465   0.706   5.449  -0.588  0.7594 -0.5715  0.0868
  819MOL0     O10466   0.799   5.356  -0.590 -0.2483 -0.0105  0.5162
  819MOL0     C10467   0.847   5.312  -0.712  0.7952  0.4443 -1.0829
  819MOL0     C10468   0.789   5.186  -0.764  0.8550  0.8048  0.1774
  819MOL0     C10469   0.803   5.065  -0.664 -0.0334 -0.0301 -0.1166
  819MOL0     C10470   0.919   4.968  -0.703 -0.9178  0.3533 -0.1215
  819MOL0     C10471   0.904   4.835  -0.628  0.0660  0.0476  0.0050
  819MOL0     C10472   0.869   4.845  -0.479  0.3737 -0.5419 -0.4364
  819MOL0     C10473   0.854   4.721  -0.389 -0.3815  0.5313  0.1284
  819MOL0     C10474   0.728   4.623  -0.430  0.2552 -0.0618  0.2266
  819MOL0    Cl10475   0.740   4.556  -0.592 -0.0402 -0.8769 -0.1910
  819MOL0     C10476   0.594   5.449  -0.678 -0.4229 -0.0490  1.3483
  819MOL0     C10477   0.494   5.541  -0.655  0.4466  0.2878  0.4308
  819MOL0     O10478   0.480   5.906  -0.597  0.5623 -0.6496 -0.5345
  819MOL0     C10479   0.242   6.053  -0.568  0.5259 -0.3796  0.0053
  819MOL0     C10480   0.124   6.118  -0.549 -0.0515  0.2892  0.7550
  819MOL0     N10481  -0.397   5.786  -0.590 -0.3914  0.3883  0.4539
  819MOL0     N10482  -0.342   5.674  -0.538 -0.8710 -0.2799  0.9248
  819MOL0     C10483   0.306   5.847   0.520 -0.3533 -0.0949 -0.7326
  819MOL0     C10484   0.361   5.787   0.645  0.2004  0.0591  1.1124
  819MOL0     C10485   0.350   5.564   1.041 -0.0312 -0.6376  0.0733
  819MOL0     C10486   0.293   5.473   1.131 -0.0615 -0.9027 -0.7948
  819MOL0     C10487   0.379   5.411   1.222  1.4432  0.7306 -0.4704
  819MOL0     C10488   0.512   5.440   1.236  0.1952 -0.2778 -0.3656
  819MOL0     O10489   0.585   5.389   1.338  0.1508  0.6025 -0.1537
  819MOL0     C10490   0.728   5.360   1.330  1.1244  0.3770  0.4414
  819MOL0     C10491   0.753   5.262   1.456 -0.5203  0.6824 -0.7889
  819MOL0     C10492   0.893   5.290   1.517  0.4926  0.8751 -1.2761
  819MOL0     C10493   0.906   5.184   1.639 -0.5834 -0.4347  0.1410
  819MOL0     C10494   0.985   5.261   1.740  0.0940 -0.7422  0.4725
  819MOL0     C10495   1.059   5.321   1.820 -0.5344 -0.5471  0.4608
  819MOL0     C10496   0.559   5.550   1.158 -0.0514 -0.2667 -0.4380
  819MOL0     C10497   0.478   5.611   1.064 -0.9182 -0.3433  0.4039
  819MOL0     H10498   0.074   5.811   0.824  0.5353 -2.0089  1.0966
  819MOL0     H10499  -0.012   5.892   0.600  0.0075  1.3858 -1.2482
  819MOL0     H10500   0.093   5.761   0.280 -1.6102 -0.8898  0.4835
  819MOL0     H10501  -0.052   5.847   0.352  0.5171 -1.3927  1.6206
  819MOL0     H10502  -0.017   6.015   0.152 -1.2122 -0.1002  1.6096
  819MOL0     H10503   0.096   5.895   0.094 -0.4725  1.2239 -0.4312
  819MOL0     H10504  -0.194   5.810   0.165 -2.5855 -1.3611 -3.7853
  819MOL0     H10505  -0.150   5.879   0.019 -1.3149 -0.9030  0.5680
  819MOL0     H10506   0.026   5.669  -0.014 -0.4235 -3.4774 -0.1780
  819MOL0     H10507  -0.038   5.605   0.137 -1.7053 -0.1196 -0.4888
  819MOL0     H10508  -0.146   5.489  -0.012 -0.5049 -0.9653 -0.6869
  819MOL0     H10509  -0.265   5.614   0.040  1.0899 -0.2029  0.3879
  819MOL0     H10510  -0.206   5.718  -0.190  0.1437 -0.0493  1.4243
  819MOL0     H10511  -0.130   5.556  -0.210 -1.7285  0.4422 -1.9051
  819MOL0     H10512  -0.360   5.463  -0.139 -1.1565 -0.4679 -2.1595
  819MOL0     H10513  -0.417   5.627  -0.129 -0.8669 -1.0339  0.7295
  819MOL0     H10514  -0.499   5.496  -0.331 -0.3081 -0.2451 -1.8785
  819MOL0     H10515  -0.331   5.483  -0.393  1.6596  1.1594  1.1018
  819MOL0     H10516  -0.530   5.797  -0.297  1.5186 -0.7073  0.0606
  819MOL0     H10517  -0.488   6.020  -0.636  2.6242  2.8036  2.1133
  819MOL0     H10518  -0.637   5.991  -0.535 -0.7296  1.0939 -1.6764
  819MOL0     H10519  -0.450   6.040  -0.340  0.1576 -0.2951  0.1877
  819MOL0     H10520  -0.538   6.171  -0.413 -0.3449 -0.2214 -0.3482
  819MOL0     H10521  -0.293   6.212  -0.392 -1.9179  3.3628 -1.2351
  819MOL0     H10522  -0.354   6.234  -0.551  0.0344 -0.1251  0.5424
  819MOL0     H10523  -0.269   6.036  -0.638  0.1108 -0.1135  0.0881
  819MOL0     H10524  -0.236   5.980  -0.470 -1.8222  0.0030 -0.6715
  819MOL0     H10525  -0.087   5.862  -0.552 -0.8246  1.4546  0.9348
  819MOL0     H10526   0.012   5.648  -0.625 -0.1742 -3.2009  2.8319
  819MOL0     H10527   0.167   5.666  -0.696 -0.2886  0.4046 -1.2775
  819MOL0     H10528   0.150   5.639  -0.520  0.2967  1.0597 -0.3263
  819MOL0     H10529   0.619   5.719  -0.397  1.5700 -1.1394  0.9972
  819MOL0     H10530   0.806   5.559  -0.424  0.3555 -1.0730  1.0521
  819MOL0     H10531   0.831   5.393  -0.784 -3.7137  1.5890  0.9179
  819MOL0     H10532   0.955   5.297  -0.700  0.3548 -1.6768  0.9953
  819MOL0     H10533   0.681   5.206  -0.769  1.2125  2.7786 -1.3390
  819MOL0     H10534   0.823   5.160  -0.865 -1.1280  1.7189 -0.7927
  819MOL0     H10535   0.705   5.017  -0.666 -0.6519  1.0383  2.0244
  819MOL0     H10536   0.822   5.103  -0.564  0.6392 -1.2657  0.2474
  819MOL0     H10537   0.918   4.945  -0.810 -0.7425  2.5113 -0.6339
  819MOL0     H10538   1.018   5.014  -0.690 -1.3071  1.7540 -1.7372
  819MOL0     H10539   0.991   4.769  -0.636 -1.0527 -1.3864 -0.9611
  819MOL0     H10540   0.835   4.772  -0.685  3.1886 -2.6981 -1.1051
  819MOL0     H10541   0.952   4.902  -0.437  2.0825 -2.2216 -1.4076
  819MOL0     H10542   0.773   4.898  -0.480  0.9206  0.6762 -4.1203
  819MOL0     H10543   0.838   4.758  -0.288 -0.3993 -0.1844  0.3943
  819MOL0     H10544   0.947   4.664  -0.384 -0.9115 -0.4010 -0.2550
  819MOL0     H10545   0.639   4.685  -0.423 -0.2665 -0.9004  1.1890
  819MOL0     H10546   0.727   4.542  -0.357  0.9802  0.3837  0.7438
  819MOL0     H10547   0.571   5.375  -0.755 -0.9429  0.8076  0.6597
  819MOL0     H10548   0.401   5.530  -0.709  0.7717 -4.2821  0.4380
  819MOL0     H10549   0.332   6.112  -0.569 -0.4177  1.4180  3.3043
  819MOL0     H10550   0.149   6.224  -0.539  2.2159 -0.2897  1.7761
  819MOL0     H10551   0.380   5.849   0.440 -0.8636 -4.7549 -1.6171
  819MOL0     H10552   0.461   5.746   0.646 -0.1523 -0.8297  1.8866
  819MOL0     H10553   0.186   5.458   1.136 -0.1082 -0.2107  2.4508
  819MOL0     H10554   0.337   5.342   1.295  1.3132 -1.0050 -2.1052
  819MOL0     H10555   0.770   5.302   1.247 -1.3453 -3.0616  1.3650
  819MOL0     H10556   0.780   5.455   1.343  1.9350  0.3322 -2.0090
  819MOL0     H10557   0.738   5.159   1.423 -3.0222  1.1204 -1.2454
  819MOL0     H10558   0.678   5.282   1.533 -0.0516 -0.9117  0.1180
  819MOL0     H10559   0.894   5.390   1.561 -2.0325 -0.7453  3.1263
  819MOL0     H10560   0.977   5.277   1.448  2.4983  2.3730  0.7111
  819MOL0     H10561   0.953   5.088   1.616  1.2290  0.8752 -2.1414
  819MOL0     H10562   0.814   5.156   1.691 -0.2273  2.9500  2.9900
  819MOL0     H10563   1.120   5.357   1.901  3.7295  0.5490 -2.8312
  819MOL0     H10564   0.657   5.596   1.173  1.1305 -2.7164 -0.1485
  819MOL0     H10565   0.533   5.687   1.010 -1.1671 -0.9700 -0.7947
  820MOL0     O10566   5.903   1.792   9.575  0.0435  0.4709 -0.2986
  820MOL0     C10567   5.931   1.735   9.681 -0.1156  0.1799  0.3162
  820MOL0     O10568   5.873   1.758   9.801  0.5863 -0.7968  0.6187
  820MOL0     C10569   5.789   1.860   9.816  0.3810  0.3377  0.5217
  820MOL0     C10570   5.840   1.980   9.862 -0.5167  0.8265  0.4957
  820MOL0     C10571   5.756   2.093   9.855 -0.2710 -0.1555 -0.5889
  820MOL0     C10572   5.627   2.088   9.815  0.0884  0.2649 -0.3995
  820MOL0     O10573   5.547   2.195   9.832  0.4870 -0.2081 -0.2209
  820MOL0     C10574   5.435   2.177   9.917 -0.2076  0.4900  0.8507
  820MOL0     C10575   5.350   2.306   9.933 -0.2434 -0.2835 -0.0552
  820MOL0     C10576   5.310   2.362   9.792  1.1290  0.9241  0.0300
  820MOL0     C10577   5.185   2.456   9.788 -0.6946 -1.1308 -1.4434
  820MOL0     C10578   5.140   2.484   9.642  1.0540 -0.1529  0.2248
  820MOL0     C10579   5.078   2.627   9.604  0.1857  0.1480  0.5325
  820MOL0     C10580   4.946   2.646   9.670 -0.4092  0.3000 -0.0844
  820MOL0     C10581   4.882   2.773   9.631 -0.3891  0.0308 -0.0628
  820MOL0     N10582   4.844   2.765   9.486 -0.5834  0.0208 -0.1558
  820MOL0     C10583   4.743   2.683   9.443 -0.9237  0.3658 -0.0801
  820MOL0     C10584   4.761   2.674   9.311 -0.2543  0.3077  0.2278
  820MOL0     C10585   4.667   2.619   9.214 -0.0984 -0.0704 -0.3736
  820MOL0     C10586   4.609   2.477   9.256 -0.2380 -0.0935  0.4711
  820MOL0     C10587   4.602   2.379   9.135  0.1563  0.5384 -0.5334
  820MOL0     C10588   4.528   2.434   9.010  0.5559  0.1097  0.0843
  820MOL0     O10589   4.401   2.489   9.064  0.2407  0.0609  0.4884
  820MOL0     C10590   4.352   2.592   9.002 -1.0841  0.2096  0.8050
  820MOL0     C10591   4.387   2.638   8.877  0.1619  0.0741 -0.5863
  820MOL0     C10592   4.330   2.760   8.819  0.0902  0.4200 -0.0588
  820MOL0     C10593   4.375   2.805   8.685  0.2279  0.2600  0.3493
  820MOL0     C10594   4.225   2.827   8.892  0.2136 -0.3545  0.1864
  820MOL0     C10595   4.157   2.948   8.850  0.1268 -0.3888 -0.0999
  820MOL0     O10596   4.234   3.042   8.775  0.1473  0.5572 -0.4945
  820MOL0     C10597   4.180   3.156   8.730  0.1888  1.1834 -0.4412
  820MOL0     C10598   4.210   3.191   8.602 -0.1493  0.3214 -0.5225
  820MOL0     C10599   4.163   3.310   8.549 -0.1200  0.0569 -0.3601
  820MOL0     C10600   4.090   3.407   8.625 -0.7811 -0.6643 -0.1208
  820MOL0     O10601   4.043   3.519   8.564  0.3085  0.3683  0.4275
  820MOL0     C10602   4.099   3.650   8.598  0.3202  1.0552  0.2445
  820MOL0     C10603   4.236   3.655   8.517  0.2623  0.2276 -0.6366
  820MOL0     C10604   4.221   3.670   8.373 -0.5465 -0.2929  0.0261
  820MOL0     C10605   4.336   3.600   8.299  0.0354 -1.1759 -1.2568
  820MOL0     C10606   4.472   3.655   8.341  0.2957 -0.4205 -0.2770
  820MOL0     C10607   4.578   3.581   8.259 -0.5379  0.6961  0.0103
  820MOL0     C10608   4.708   3.655   8.249 -0.3840 -0.2248  0.1762
  820MOL0     C10609   4.790   3.603   8.134  0.2377 -0.1572 -0.3751
  820MOL0    Cl10610   4.884   3.453   8.187 -0.1538  0.1142  0.3874
  820MOL0     C10611   4.050   3.364   8.752 -0.0545  0.2334  0.4755
  820MOL0     C10612   4.091   3.242   8.808 -1.3372 -0.3180  0.2602
  820MOL0     O10613   4.045   2.964   8.893 -0.2650 -0.3177 -0.0130
  820MOL0     C10614   4.192   2.770   9.014 -0.2344 -0.1364 -0.0664
  820MOL0     C10615   4.253   2.662   9.071  0.4715  0.3840 -0.0648
  820MOL0     N10616   4.865   2.752   9.276  0.1684 -0.4563  0.1534
  820MOL0     N10617   4.915   2.814   9.381 -0.2849 -0.3227  0.2042
  820MOL0     C10618   5.572   1.965   9.782 -0.5552  0.8062  0.1808
  820MOL0     C10619   5.651   1.848   9.788  0.5348  0.4867  0.1081
  820MOL0     C10620   6.055   1.649   9.692 -0.4391  0.1518  1.1944
  820MOL0     C10621   6.116   1.585   9.579  0.6498 -1.0366  0.7512
  820MOL0     C10622   6.226   1.497   9.598 -0.0840 -0.2772  0.4525
  820MOL0     C10623   6.290   1.480   9.723  0.2428  0.4839 -0.7383
  820MOL0     O10624   6.415   1.419   9.748 -0.5575 -1.1797 -0.3839
  820MOL0     C10625   6.440   1.308   9.650  0.1814 -0.1447  0.0271
  820MOL0     C10626   6.566   1.227   9.678  0.2578 -0.5374 -0.3178
  820MOL0     C10627   6.556   1.168   9.824  0.7128 -0.4995  0.3052
  820MOL0     C10628   6.632   1.252   9.923  0.0518 -0.1919  0.4562
  820MOL0     C10629   6.774   1.209   9.928  0.0075  0.4043 -0.4308
  820MOL0     C10630   6.897   1.190   9.923 -0.0385 -0.4459 -0.2963
  820MOL0     C10631   6.227   1.548   9.825 -0.0117 -0.0986  0.4083
  820MOL0     C10632   6.119   1.627   9.814  0.8185 -0.3444 -0.2306
  820MOL0     H10633   5.948   1.980   9.878 -0.3960 -1.2882 -0.0442
  820MOL0     H10634   5.796   2.192   9.875  0.1512 -0.4247 -0.0896
  820MOL0     H10635   5.359   2.106   9.882 -0.2886  1.4965 -1.1774
  820MOL0     H10636   5.476   2.157  10.016  0.1648  1.7910  0.9679
  820MOL0     H10637   5.260   2.291   9.992 -1.7601  2.0226 -1.5945
  820MOL0     H10638   5.409   2.389   9.973  0.8729 -0.0898 -1.9242
  820MOL0     H10639   5.395   2.415   9.745  0.9912 -0.7710 -2.3338
  820MOL0     H10640   5.283   2.273   9.735  1.3143  0.9419 -0.0899
  820MOL0     H10641   5.109   2.405   9.848 -1.3780  1.4366 -0.0060
  820MOL0     H10642   5.193   2.550   9.843 -1.5265 -1.3824 -0.8687
  820MOL0     H10643   5.215   2.462   9.566 -0.3362  2.1010 -1.9335
  820MOL0     H10644   5.065   2.405   9.628 -0.9345  1.7458 -0.4072
  820MOL0     H10645   5.143   2.705   9.643  0.0273 -0.2111  1.5410
  820MOL0     H10646   5.070   2.629   9.495 -4.0625 -0.0790  0.6436
  820MOL0     H10647   4.877   2.567   9.636  0.3881 -0.6718  0.4976
  820MOL0     H10648   4.962   2.649   9.778  1.2815 -0.5172 -0.2810
  820MOL0     H10649   4.947   2.860   9.639  0.7325 -0.8842  1.6510
  820MOL0     H10650   4.797   2.794   9.696  0.6091  1.5041  0.8282
  820MOL0     H10651   4.667   2.621   9.488 -1.6572  0.6182 -0.9283
  820MOL0     H10652   4.581   2.684   9.193 -0.6689 -0.9689 -0.8571
  820MOL0     H10653   4.718   2.610   9.118  3.0575 -0.5546  1.2353
  820MOL0     H10654   4.510   2.488   9.302 -0.0418 -0.8444  1.0886
  820MOL0     H10655   4.673   2.425   9.327  0.0243 -4.0134 -2.3340
  820MOL0     H10656   4.548   2.290   9.169  0.3698  0.8527  0.6879
  820MOL0     H10657   4.706   2.352   9.112  0.1713 -4.0344  3.4497
  820MOL0     H10658   4.505   2.351   8.942 -0.8013  0.4927  0.0555
  820MOL0     H10659   4.597   2.504   8.962  2.7773 -0.4953  2.1891
  820MOL0     H10660   4.462   2.584   8.819  1.8786 -1.4777  2.8017
  820MOL0     H10661   4.408   2.909   8.695 -0.6937  0.4832  1.3165
  820MOL0     H10662   4.456   2.749   8.637  1.7667  3.9580 -1.8096
  820MOL0     H10663   4.302   2.791   8.605  0.6992  0.3594 -0.1053
  820MOL0     H10664   4.269   3.122   8.543  1.1211  0.0824  0.9837
  820MOL0     H10665   4.190   3.349   8.451  0.4520  0.1127 -0.1830
  820MOL0     H10666   4.029   3.729   8.571  1.0550  0.8525 -2.4688
  820MOL0     H10667   4.123   3.647   8.705  3.2282  0.3265 -0.3429
  820MOL0     H10668   4.286   3.750   8.543 -0.4171  0.1479  1.0748
  820MOL0     H10669   4.305   3.571   8.533 -2.3699 -1.7704  0.9864
  820MOL0     H10670   4.218   3.774   8.340  0.3932 -0.4918 -0.7354
  820MOL0     H10671   4.131   3.613   8.347  1.8532 -4.2736 -0.3284
  820MOL0     H10672   4.334   3.495   8.329 -1.8466 -0.5683  1.0460
  820MOL0     H10673   4.321   3.608   8.191 -2.1442  0.2743 -0.9127
  820MOL0     H10674   4.477   3.633   8.448 -5.0814 -1.1739  0.0894
  820MOL0     H10675   4.476   3.763   8.324  2.3687 -0.6287 -1.5171
  820MOL0     H10676   4.605   3.482   8.299  0.5305  1.5752  1.5964
  820MOL0     H10677   4.543   3.572   8.156  1.7572  2.7788 -1.0600
  820MOL0     H10678   4.752   3.661   8.349  0.1994  1.4526 -0.1555
  820MOL0     H10679   4.684   3.759   8.225  0.3087 -0.5312 -2.1084
  820MOL0     H10680   4.867   3.679   8.115  1.5444 -1.0186  1.2435
  820MOL0     H10681   4.740   3.568   8.043  0.5496 -3.4170  0.6049
  820MOL0     H10682   3.987   3.435   8.804  2.2746  0.3026  3.5325
  820MOL0     H10683   4.048   3.211   8.903 -0.8274 -3.6271 -0.4661
  820MOL0     H10684   4.116   2.816   9.076 -1.7216 -1.6102 -0.7172
  820MOL0     H10685   4.231   2.620   9.168  4.5282 -0.9446  0.4610
  820MOL0     H10686   5.469   1.958   9.748 -0.5010  1.4788 -0.1191
  820MOL0     H10687   5.592   1.758   9.774  1.1908 -0.7078  4.0357
  820MOL0     H10688   6.061   1.603   9.487 -1.6634 -2.3072  1.8045
  820MOL0     H10689   6.269   1.438   9.517  2.1955  1.7917  0.0553
  820MOL0     H10690   6.344   1.256   9.645  0.4055 -0.4625 -1.3408
  820MOL0     H10691   6.458   1.352   9.551  3.3263 -0.1663  0.4861
  820MOL0     H10692   6.658   1.285   9.670 -1.0134  2.1514  2.4378
  820MOL0     H10693   6.577   1.145   9.607  2.8706 -0.6882  0.1540
  820MOL0     H10694   6.572   1.060   9.822 -0.4011 -0.6762 -1.1948
  820MOL0     H10695   6.451   1.182   9.853 -0.5944 -2.8964 -2.7343
  820MOL0     H10696   6.588   1.232  10.021  1.0855  0.7953  1.1527
  820MOL0     H10697   6.623   1.356   9.891 -0.2172 -0.9864 -2.3545
  820MOL0     H10698   7.004   1.185   9.924  0.0660 -0.6435  4.0734
  820MOL0     H10699   6.276   1.536   9.921  0.2801 -0.0710  0.2630
  820MOL0     H10700   6.090   1.682   9.903 -1.3860 -2.2514  0.3195
  821MOL0     O10701   7.664   9.207   9.663  0.0145  0.4390 -0.5152
  821MOL0     C10702   7.602   9.099   9.654  0.6089  0.6596 -0.0625
  821MOL0     O10703   7.657   8.976   9.603  0.5451  0.3250  0.1200
  821MOL0     C10704   7.787   8.950   9.601  0.3018  0.2631 -0.3096
  821MOL0     C10705   7.875   9.000   9.699  0.4452  0.1513  0.6471
  821MOL0     C10706   8.014   8.981   9.684 -0.4564 -0.0055 -0.1176
  821MOL0     C10707   8.064   8.896   9.579  0.0892 -0.0319 -1.1767
  821MOL0     O10708   8.195   8.868   9.575  0.4007 -0.9136 -0.4413
  821MOL0     C10709   8.253   8.855   9.439  0.3418  0.7647 -1.0198
  821MOL0     C10710   8.405   8.871   9.434 -0.5066 -0.7967 -0.6313
  821MOL0     C10711   8.471   8.918   9.297 -0.4686  0.5690 -0.2367
  821MOL0     C10712   8.489   8.809   9.189  0.7205 -0.0366 -0.5853
  821MOL0     C10713   8.557   8.852   9.056 -0.8154 -0.6759 -0.6542
  821MOL0     C10714   8.555   8.735   8.962  0.7092 -0.1118  0.6955
  821MOL0     C10715   8.590   8.757   8.810 -0.8594  0.7870 -0.4267
  821MOL0     C10716   8.719   8.826   8.788 -0.3787  0.4263  0.6481
  821MOL0     N10717   8.735   8.902   8.664 -0.0210 -0.3499  0.8094
  821MOL0     C10718   8.778   8.855   8.545 -0.2213  0.2350 -0.6609
  821MOL0     C10719   8.775   8.964   8.477  0.0063  0.8196  0.6503
  821MOL0     C10720   8.836   8.985   8.335  0.9379  0.7927  0.4789
  821MOL0     C10721   8.719   8.988   8.242  0.7305 -0.6597  0.0254
  821MOL0     C10722   8.765   9.068   8.117 -0.2985 -0.3098 -0.6984
  821MOL0     C10723   8.640   9.103   8.044  0.0496  0.1092  0.6105
  821MOL0     O10724   8.565   8.985   8.006 -0.1806  0.7713 -0.3413
  821MOL0     C10725   8.453   9.003   7.934  0.1125 -0.3249 -0.2487
  821MOL0     C10726   8.385   8.894   7.892  0.6824  0.3175 -0.2392
  821MOL0     C10727   8.268   8.903   7.811  0.8155  0.1619 -0.1603
  821MOL0     C10728   8.210   8.769   7.763 -0.3691  0.4015 -1.6125
  821MOL0     C10729   8.218   9.025   7.778  0.9530 -0.5701 -0.5834
  821MOL0     C10730   8.104   9.053   7.680 -0.6454 -0.3377 -0.3193
  821MOL0     O10731   8.053   9.184   7.680 -0.4209  0.0934  0.0635
  821MOL0     C10732   7.931   9.200   7.615 -0.2093  0.7632 -0.9583
  821MOL0     C10733   7.824   9.101   7.639  0.2810 -0.0342  0.2534
  821MOL0     C10734   7.704   9.128   7.580 -0.4754  0.5260  0.1559
  821MOL0     C10735   7.672   9.246   7.513 -0.6406 -0.2619  0.5120
  821MOL0     O10736   7.540   9.257   7.467 -1.2083 -0.0348 -0.1479
  821MOL0     C10737   7.500   9.379   7.406  1.1271 -0.2379  0.7666
  821MOL0     C10738   7.354   9.366   7.363 -0.0615 -0.8120 -0.2819
  821MOL0     C10739   7.329   9.417   7.219 -0.2844 -0.1151  0.3620
  821MOL0     C10740   7.256   9.304   7.138 -0.2573  0.8396 -0.3471
  821MOL0     C10741   7.245   9.334   6.993 -0.5916  0.3183  0.2850
  821MOL0     C10742   7.137   9.250   6.929 -1.0563  0.4594 -0.0757
  821MOL0     C10743   6.991   9.317   6.944  0.5115  0.2143 -0.4769
  821MOL0     C10744   6.877   9.215   6.963 -0.3790  0.1078 -0.7670
  821MOL0    Cl10745   6.893   9.139   7.128 -0.3094  0.2647 -0.5248
  821MOL0     C10746   7.783   9.339   7.486  0.0473 -0.1470  0.2388
  821MOL0     C10747   7.905   9.316   7.536 -0.6932  0.1694 -1.4122
  821MOL0     O10748   8.063   8.960   7.607  0.2663  0.0348 -0.5129
  821MOL0     C10749   8.277   9.138   7.835  0.1326 -0.1551  0.1887
  821MOL0     C10750   8.392   9.127   7.912 -0.4593 -0.1295 -0.1538
  821MOL0     N10751   8.734   9.069   8.549  0.0226  0.5266 -0.7754
  821MOL0     N10752   8.704   9.035   8.668  0.1977  0.3919  0.4593
  821MOL0     C10753   7.970   8.842   9.490 -0.0183  0.1610 -0.2180
  821MOL0     C10754   7.841   8.880   9.492  0.5746 -0.1317 -0.2133
  821MOL0     C10755   7.456   9.098   9.701  1.3412 -0.4066  0.3241
  821MOL0     C10756   7.387   9.224   9.703 -0.1724 -0.2337  1.1594
  821MOL0     C10757   7.260   9.236   9.751  0.4392  1.4136 -0.1996
  821MOL0     C10758   7.185   9.120   9.780 -0.5529 -0.2774 -1.1787
  821MOL0     O10759   7.062   9.154   9.838 -0.2212 -0.1631  0.6965
  821MOL0     C10760   7.003   9.068   9.926 -0.4370 -0.1038  0.6980
  821MOL0     C10761   6.893   9.150   9.995  1.1318  0.3701 -0.3142
  821MOL0     C10762   6.820   9.076  10.114 -0.4689  0.0812 -0.0704
  821MOL0     C10763   6.732   8.960  10.072  0.7001 -0.6580 -0.0954
  821MOL0     C10764   6.690   8.881  10.191 -0.3332 -0.2919 -0.2082
  821MOL0     C10765   6.666   8.831  10.303  0.5137  0.4801  0.3518
  821MOL0     C10766   7.253   8.993   9.765  0.2906 -0.9553  0.4615
  821MOL0     C10767   7.387   8.982   9.733 -0.4241 -0.6923  0.0575
  821MOL0     H10768   7.838   9.057   9.783 -2.8654  0.2717 -0.7462
  821MOL0     H10769   8.085   9.014   9.760 -0.2103 -1.3233  0.2458
  821MOL0     H10770   8.241   8.750   9.409 -0.5187  1.0784 -1.8121
  821MOL0     H10771   8.197   8.920   9.372 -1.1223  3.2208  2.3004
  821MOL0     H10772   8.423   8.959   9.496 -2.9672  0.2732 -1.3218
  821MOL0     H10773   8.460   8.783   9.469  1.4615 -1.1839 -4.1930
  821MOL0     H10774   8.412   9.003   9.262 -2.4940 -0.1076  1.3577
  821MOL0     H10775   8.574   8.949   9.319 -1.1653  1.9249  1.3973
  821MOL0     H10776   8.550   8.729   9.232  0.3430 -2.4118 -4.0591
  821MOL0     H10777   8.390   8.767   9.167  0.5261 -0.8168  1.5346
  821MOL0     H10778   8.496   8.936   9.022 -1.4372 -0.7565  0.2199
  821MOL0     H10779   8.660   8.882   9.080 -0.6790 -2.6790  1.6893
  821MOL0     H10780   8.616   8.657   9.008  2.5418 -0.1550 -1.5671
  821MOL0     H10781   8.451   8.701   8.960  0.2858  0.5505  4.6413
  821MOL0     H10782   8.602   8.664   8.754  1.2531 -0.1010  1.3188
  821MOL0     H10783   8.515   8.813   8.753 -0.1238  1.2316 -0.9739
  821MOL0     H10784   8.804   8.758   8.793 -0.1393  0.2396 -3.1897
  821MOL0     H10785   8.746   8.888   8.874  1.2092 -1.9272  1.9276
  821MOL0     H10786   8.813   8.757   8.516 -0.9853 -1.2085  2.7874
  821MOL0     H10787   8.911   9.065   8.332  1.6193  0.4106  3.7140
  821MOL0     H10788   8.892   8.893   8.317  2.4271  2.0483 -1.8426
  821MOL0     H10789   8.629   9.028   8.290 -0.9817 -2.9546 -1.0593
  821MOL0     H10790   8.691   8.887   8.212  0.1394  0.1817 -2.6163
  821MOL0     H10791   8.832   9.006   8.057  0.1047 -0.3416 -0.2241
  821MOL0     H10792   8.812   9.160   8.153 -1.6881 -0.9725  3.3526
  821MOL0     H10793   8.670   9.165   7.960 -2.1075  1.5172  0.7959
  821MOL0     H10794   8.567   9.163   8.099 -3.7895 -2.2672 -1.4162
  821MOL0     H10795   8.422   8.796   7.919 -0.0137 -0.1034 -0.7819
  821MOL0     H10796   8.119   8.733   7.810  0.6212 -4.0295 -2.5925
  821MOL0     H10797   8.197   8.769   7.654 -1.7774 -0.5746 -1.4673
  821MOL0     H10798   8.280   8.687   7.782 -0.0173  0.7312 -1.4502
  821MOL0     H10799   7.840   9.018   7.707 -0.9939  1.4738  2.5315
  821MOL0     H10800   7.617   9.064   7.591  2.0264 -3.2027  0.2806
  821MOL0     H10801   7.512   9.470   7.465  1.9809  0.3686 -0.2994
  821MOL0     H10802   7.558   9.392   7.314 -1.7097 -0.2795 -1.1769
  821MOL0     H10803   7.310   9.266   7.372 -0.9141 -0.8747 -3.5841
  821MOL0     H10804   7.298   9.428   7.433  0.6179 -0.4803 -0.0283
  821MOL0     H10805   7.420   9.460   7.176 -0.1205  0.8101  1.5839
  821MOL0     H10806   7.270   9.509   7.226 -0.9983 -0.5490  0.1635
  821MOL0     H10807   7.322   9.218   7.152  0.7611  1.5635 -0.6021
  821MOL0     H10808   7.162   9.278   7.186 -0.1793 -0.2650 -0.7582
  821MOL0     H10809   7.341   9.317   6.944 -2.0184 -2.8750 -1.7654
  821MOL0     H10810   7.218   9.439   6.979  0.7135  0.6023 -0.2146
  821MOL0     H10811   7.167   9.230   6.825  1.3675  1.0628  0.4384
  821MOL0     H10812   7.140   9.152   6.976 -1.8597 -0.1896 -1.3396
  821MOL0     H10813   6.971   9.385   6.861  1.0662 -0.6104 -1.3022
  821MOL0     H10814   6.993   9.376   7.037 -0.6766 -1.2488  0.5323
  821MOL0     H10815   6.884   9.134   6.890  3.8734 -0.2988 -0.1677
  821MOL0     H10816   6.781   9.267   6.956  0.3875  1.4961 -1.5860
  821MOL0     H10817   7.753   9.434   7.443 -1.1582  0.1753  1.6869
  821MOL0     H10818   7.985   9.388   7.522 -0.5177 -0.2105 -2.4484
  821MOL0     H10819   8.241   9.240   7.829  2.1598  0.6073  0.0460
  821MOL0     H10820   8.433   9.218   7.953 -0.7194 -0.0127 -0.1527
  821MOL0     H10821   8.001   8.776   9.410  0.4388  0.3862 -0.2325
  821MOL0     H10822   7.771   8.852   9.414  2.7439  2.2568 -3.2837
  821MOL0     H10823   7.441   9.313   9.672  3.1100 -3.0202 -2.0304
  821MOL0     H10824   7.214   9.335   9.742  1.8517  1.8878 -3.4492
  821MOL0     H10825   6.979   8.980   9.867  0.6566  0.9494 -1.4281
  821MOL0     H10826   7.078   9.034   9.998 -1.6753 -1.6002  1.3235
  821MOL0     H10827   6.815   9.182   9.926 -0.8896 -3.9720 -0.4225
  821MOL0     H10828   6.927   9.246  10.035  1.2247  0.9002 -1.6117
  821MOL0     H10829   6.763   9.152  10.168 -1.2731  0.1948 -1.0604
  821MOL0     H10830   6.894   9.044  10.189  0.3346  1.2918 -0.3293
  821MOL0     H10831   6.777   8.904   9.989  0.0100  0.4515 -1.2575
  821MOL0     H10832   6.637   8.995  10.032 -1.5515 -2.1252  3.4919
  821MOL0     H10833   6.646   8.796  10.402  0.3646  1.5285  0.7000
  821MOL0     H10834   7.190   8.907   9.784 -1.6410  0.1022 -0.8304
  821MOL0     H10835   7.439   8.887   9.738 -1.0105 -1.0852 -1.0038
  822MOL0     O10836   3.215   7.852   9.371  0.2001 -1.0344 -0.5737
  822MOL0     C10837   3.300   7.787   9.327 -0.1149  0.2356  0.2599
  822MOL0     O10838   3.357   7.802   9.203 -0.7038  0.0027 -1.5842
  822MOL0     C10839   3.345   7.911   9.125  0.6424 -0.5991  0.1358
  822MOL0     C10840   3.241   8.011   9.131  1.0990  0.4047  0.0687
  822MOL0     C10841   3.241   8.118   9.039  0.3661 -0.2409  0.1995
  822MOL0     C10842   3.352   8.137   8.956 -0.2026 -0.1407 -0.3702
  822MOL0     O10843   3.346   8.246   8.880  0.2418  1.0298 -0.4192
  822MOL0     C10844   3.450   8.293   8.792 -0.3051  0.4266 -0.3710
  822MOL0     C10845   3.399   8.234   8.659 -0.5539 -0.0588  0.7233
  822MOL0     C10846   3.511   8.276   8.554  0.2951 -0.0096 -0.6192
  822MOL0     C10847   3.463   8.260   8.411  0.2220  0.3599 -0.2086
  822MOL0     C10848   3.569   8.339   8.331  0.4362 -0.0917 -0.1957
  822MOL0     C10849   3.542   8.303   8.189  0.1833  0.6552 -0.2466
  822MOL0     C10850   3.627   8.376   8.089  1.1132  0.0789  0.3229
  822MOL0     C10851   3.749   8.287   8.041  0.4385 -0.4461 -0.4061
  822MOL0     N10852   3.812   8.364   7.924  0.6356  0.3215  0.0159
  822MOL0     C10853   3.748   8.352   7.805 -1.0350 -0.8285  0.7848
  822MOL0     C10854   3.799   8.445   7.726  0.0357  0.8983  0.2345
  822MOL0     C10855   3.754   8.475   7.593 -0.5340 -0.3593 -0.5794
  822MOL0     C10856   3.856   8.531   7.501  0.0926 -0.5971 -0.1284
  822MOL0     C10857   3.811   8.546   7.358  0.7085  0.1695  0.3460
  822MOL0     C10858   3.919   8.619   7.271 -0.4296  0.2296  0.6565
  822MOL0     O10859   3.838   8.650   7.155 -0.9326 -0.1119  0.5373
  822MOL0     C10860   3.862   8.772   7.090 -0.2203 -0.2036  0.4123
  822MOL0     C10861   3.763   8.820   7.017  0.5390  0.0041  0.3430
  822MOL0     C10862   3.752   8.952   6.969  0.1300 -0.5680  0.1037
  822MOL0     C10863   3.620   9.004   6.915  0.2094  0.3850  0.2333
  822MOL0     C10864   3.872   9.036   6.978 -0.0239 -0.0510  0.2033
  822MOL0     C10865   3.877   9.168   6.908 -0.3008 -0.6815  0.6616
  822MOL0     O10866   3.996   9.224   6.921  0.3307  0.2383 -0.0483
  822MOL0     C10867   4.042   9.332   6.846  0.6332 -1.4181  0.6971
  822MOL0     C10868   3.997   9.352   6.711 -1.1527 -0.0927  0.1571
  822MOL0     C10869   4.064   9.449   6.634 -0.3405  0.3232 -0.0221
  822MOL0     C10870   4.173   9.514   6.685 -0.2716 -0.3931 -0.1949
  822MOL0     O10871   4.243   9.599   6.601  0.4779 -1.5388  0.9487
  822MOL0     C10872   4.371   9.648   6.639 -0.0524  0.6513 -0.1639
  822MOL0     C10873   4.419   9.738   6.526  0.1543  0.0548  0.5800
  822MOL0     C10874   4.559   9.800   6.542  0.2870  0.7113 -0.6917
  822MOL0     C10875   4.674   9.702   6.511  1.0144 -0.4924  0.1020
  822MOL0     C10876   4.814   9.771   6.535  0.2913 -0.3228 -0.3359
  822MOL0     C10877   4.913   9.672   6.500 -0.6579  0.6274  0.4043
  822MOL0     C10878   5.039   9.743   6.472 -0.3874  1.1904  0.8632
  822MOL0     C10879   5.157   9.637   6.471  0.5050 -0.1007  0.1004
  822MOL0    Cl10880   5.211   9.597   6.639  0.2804  0.0296  0.2299
  822MOL0     C10881   4.215   9.495   6.818 -0.0959  0.3293 -0.2680
  822MOL0     C10882   4.149   9.407   6.901  0.2670  0.9870  0.4433
  822MOL0     O10883   3.782   9.228   6.860 -0.6178 -0.1159  0.1360
  822MOL0     C10884   3.977   8.986   7.059  0.0890 -0.5473  0.1365
  822MOL0     C10885   3.973   8.851   7.111  0.1789 -1.1083  0.3411
  822MOL0     N10886   3.895   8.513   7.795 -0.1889  0.7188  0.4126
  822MOL0     N10887   3.894   8.472   7.920  0.4560  0.7409  0.0672
  822MOL0     C10888   3.460   8.044   8.958  0.1089 -0.5580  0.0003
  822MOL0     C10889   3.452   7.931   9.039 -0.8666  0.2720  0.4648
  822MOL0     C10890   3.347   7.666   9.411  0.5021 -0.9667  0.8567
  822MOL0     C10891   3.291   7.657   9.538 -0.6645 -1.3903 -0.9121
  822MOL0     C10892   3.341   7.558   9.623  0.0818  0.3086 -0.4230
  822MOL0     C10893   3.418   7.454   9.568 -0.4605  0.0073 -0.3211
  822MOL0     O10894   3.444   7.354   9.659  0.0326  0.5685  0.1596
  822MOL0     C10895   3.575   7.299   9.667  0.2731 -0.1032 -0.4107
  822MOL0     C10896   3.632   7.297   9.806  0.0507  0.1508 -0.0266
  822MOL0     C10897   3.779   7.288   9.810 -0.0118  0.0293 -0.2821
  822MOL0     C10898   3.849   7.292   9.954 -0.9737 -0.0847 -0.1057
  822MOL0     C10899   3.797   7.177  10.040 -0.7590  0.6369  0.0830
  822MOL0     C10900   3.753   7.101  10.122  0.2843 -0.1743  0.9585
  822MOL0     C10901   3.471   7.467   9.448  0.2171  0.3945 -0.7348
  822MOL0     C10902   3.425   7.569   9.362 -0.0891 -1.5533 -1.0550
  822MOL0     H10903   3.151   8.001   9.191  1.7461 -0.4796  0.9207
  822MOL0     H10904   3.152   8.179   9.034  1.8295  1.9053 -1.5014
  822MOL0     H10905   3.447   8.402   8.796 -0.2780  0.4049  2.7202
  822MOL0     H10906   3.550   8.253   8.815 -1.1722 -1.4954  0.2319
  822MOL0     H10907   3.396   8.126   8.678  1.9656 -0.0444  1.6003
  822MOL0     H10908   3.304   8.271   8.619  1.4809  2.6408 -2.1185
  822MOL0     H10909   3.527   8.382   8.572  1.7035 -0.1320 -1.0560
  822MOL0     H10910   3.598   8.211   8.565  0.2810  0.3825  2.9201
  822MOL0     H10911   3.460   8.152   8.395 -0.3666  0.1473  1.2296
  822MOL0     H10912   3.363   8.298   8.390  0.1002 -0.3113 -0.8872
  822MOL0     H10913   3.568   8.448   8.338  0.8249 -0.1987  2.2549
  822MOL0     H10914   3.669   8.300   8.352 -1.1996 -4.0953  1.1365
  822MOL0     H10915   3.562   8.196   8.177  0.9634  0.8133 -0.4086
  822MOL0     H10916   3.443   8.339   8.157  0.5484 -0.1667 -2.5332
  822MOL0     H10917   3.563   8.404   8.005  0.5563 -0.7965  0.4475
  822MOL0     H10918   3.655   8.476   8.125 -0.4360  0.9124 -0.6721
  822MOL0     H10919   3.733   8.179   8.030  2.9378 -0.9478  0.1818
  822MOL0     H10920   3.819   8.308   8.123 -1.0369 -0.4342  0.8881
  822MOL0     H10921   3.671   8.285   7.768  0.8340 -1.5431 -2.2125
  822MOL0     H10922   3.719   8.384   7.545 -2.0830 -0.6776  1.0572
  822MOL0     H10923   3.671   8.546   7.600 -1.6884 -1.7153 -0.0128
  822MOL0     H10924   3.939   8.460   7.510 -0.9260 -1.6394  1.4386
  822MOL0     H10925   3.882   8.631   7.537  3.3805 -0.6421 -1.9521
  822MOL0     H10926   3.720   8.604   7.377  1.1261  0.6878  0.8046
  822MOL0     H10927   3.773   8.453   7.316 -2.7995  1.1206  1.0580
  822MOL0     H10928   4.006   8.556   7.253  2.9253  4.3814  0.5912
  822MOL0     H10929   3.957   8.708   7.324  1.3264 -0.2305  0.2338
  822MOL0     H10930   3.686   8.744   7.004 -1.1440  1.4692  1.3033
  822MOL0     H10931   3.630   9.018   6.808 -0.6638  0.4695  0.1509
  822MOL0     H10932   3.535   8.941   6.945  1.5846 -0.5326  2.4535
  822MOL0     H10933   3.597   9.094   6.972 -0.7021 -1.6888  3.4832
  822MOL0     H10934   3.926   9.292   6.654 -1.2792  0.8694 -0.7332
  822MOL0     H10935   4.038   9.460   6.529 -1.0337 -3.4457 -0.4001
  822MOL0     H10936   4.357   9.698   6.736  0.3321 -0.3813  0.4386
  822MOL0     H10937   4.449   9.572   6.648 -0.8771 -0.3766 -1.3884
  822MOL0     H10938   4.417   9.687   6.429 -0.6602  0.8402  0.1718
  822MOL0     H10939   4.350   9.823   6.523 -0.6210 -0.5725  0.3434
  822MOL0     H10940   4.568   9.839   6.644  0.4107 -1.7946  0.3163
  822MOL0     H10941   4.570   9.882   6.469 -0.6302  1.6990  0.2374
  822MOL0     H10942   4.674   9.612   6.574  1.0026 -1.4273 -1.1878
  822MOL0     H10943   4.654   9.677   6.406 -1.8301 -1.9423  0.9000
  822MOL0     H10944   4.832   9.821   6.631  3.2040  2.9436 -2.3382
  822MOL0     H10945   4.816   9.862   6.474  0.3778  1.8986  2.7137
  822MOL0     H10946   4.926   9.596   6.578 -1.6387 -0.2777 -0.2864
  822MOL0     H10947   4.887   9.621   6.406 -0.6952 -0.8783  1.2001
  822MOL0     H10948   5.056   9.823   6.544  1.9863  3.9735 -2.4536
  822MOL0     H10949   5.013   9.793   6.378 -2.1940 -0.5799  0.3481
  822MOL0     H10950   5.231   9.694   6.414 -0.4747 -1.8736 -3.1706
  822MOL0     H10951   5.134   9.546   6.416  0.0447  0.9001 -1.4212
  822MOL0     H10952   4.295   9.546   6.870  1.2260 -1.3710 -0.5656
  822MOL0     H10953   4.190   9.384   6.999  1.7315  2.3557  0.1979
  822MOL0     H10954   4.060   9.054   7.076  0.4757 -1.4608  2.2361
  822MOL0     H10955   4.049   8.805   7.173 -0.2100 -2.4216 -0.1065
  822MOL0     H10956   3.554   8.065   8.907  0.9308 -2.5004  0.6226
  822MOL0     H10957   3.532   7.858   9.030  0.3966  1.7366 -0.7658
  822MOL0     H10958   3.222   7.734   9.571 -0.0018  0.4347 -3.4677
  822MOL0     H10959   3.329   7.566   9.730  0.3033  1.7016 -0.4803
  822MOL0     H10960   3.590   7.200   9.623  0.0491 -1.4930  2.3871
  822MOL0     H10961   3.630   7.374   9.610  0.8047 -0.8801 -0.9364
  822MOL0     H10962   3.595   7.206   9.853  1.1561 -0.4157 -0.2170
  822MOL0     H10963   3.607   7.396   9.847  1.7310  0.4887  0.2591
  822MOL0     H10964   3.827   7.367   9.751 -1.3651  1.1863  0.1062
  822MOL0     H10965   3.803   7.195   9.758  0.2413  0.0670 -0.2355
  822MOL0     H10966   3.831   7.390   9.998 -0.3096  0.5010 -1.1213
  822MOL0     H10967   3.955   7.271   9.934 -0.9697  0.2903 -0.5015
  822MOL0     H10968   3.719   7.038  10.202 -1.3603 -1.0165 -0.3548
  822MOL0     H10969   3.534   7.388   9.409 -0.2899  0.6452 -2.0995
  822MOL0     H10970   3.459   7.583   9.259 -1.9524  0.8203 -1.4320
  823MOL0     O10971   3.310  10.474   7.339 -0.0885  0.4057 -0.1011
  823MOL0     C10972   3.191  10.443   7.310 -0.9848 -0.3525 -0.0501
  823MOL0     O10973   3.138  10.410   7.184 -0.4840 -0.0621  0.2186
  823MOL0     C10974   3.189  10.451   7.062 -0.9723  0.4007  0.1111
  823MOL0     C10975   3.236  10.585   7.038  0.3064 -0.5387 -0.1752
  823MOL0     C10976   3.315  10.624   6.927 -0.5050  0.2391  0.0915
  823MOL0     C10977   3.340  10.528   6.832  0.2428 -0.0903  0.1679
  823MOL0     O10978   3.412  10.578   6.724  0.8489 -0.1700 -0.0909
  823MOL0     C10979   3.486  10.486   6.645  0.3872 -1.0758  0.0014
  823MOL0     C10980   3.576  10.566   6.546  0.1218  0.5886  0.4030
  823MOL0     C10981   3.702  10.628   6.604  0.6461  0.0996  0.0173
  823MOL0     C10982   3.830  10.569   6.534 -0.2246 -0.0844 -0.3878
  823MOL0     C10983   3.962  10.615   6.601  0.0603  0.1500 -0.2766
  823MOL0     C10984   4.012  10.492   6.684  0.0947 -0.6823  1.0697
  823MOL0     C10985   4.161  10.507   6.703  0.1425  0.3137  0.0403
  823MOL0     C10986   4.220  10.375   6.768 -0.0312  0.2072  0.4210
  823MOL0     N10987   4.189  10.374   6.913  0.5193  0.6269 -0.4948
  823MOL0     C10988   4.084  10.298   6.970 -0.6644  0.9281 -0.7839
  823MOL0     C10989   4.082  10.338   7.100 -0.3219  0.4937 -0.6857
  823MOL0     C10990   3.984  10.307   7.203 -0.3532  0.6455 -0.5738
  823MOL0     C10991   3.978  10.154   7.249 -0.2574 -0.0510 -0.5188
  823MOL0     C10992   4.114  10.103   7.303 -0.4523 -0.1605 -0.4476
  823MOL0     C10993   4.163  10.171   7.431 -0.1513 -1.1135 -0.2032
  823MOL0     O10994   4.060  10.146   7.522  0.5968  0.2983 -1.4835
  823MOL0     C10995   4.088  10.165   7.651  0.1872  0.4227  0.7292
  823MOL0     C10996   4.195  10.252   7.702  0.1880  0.2893 -0.4215
  823MOL0     C10997   4.206  10.282   7.842  0.9506  0.0246  0.2728
  823MOL0     C10998   4.318  10.364   7.890 -0.7613  0.1308  0.0608
  823MOL0     C10999   4.119  10.221   7.939 -0.0195 -0.7650 -0.1218
  823MOL0     C11000   4.148  10.218   8.092  1.0211 -0.7602  0.0854
  823MOL0     O11001   4.218  10.325   8.148 -0.4071 -0.3955  0.8796
  823MOL0     C11002   4.269  10.295   8.267 -0.2205  0.0044  0.5552
  823MOL0     C11003   4.410  10.272   8.280 -0.0764  0.9168  1.2276
  823MOL0     C11004   4.474  10.251   8.407  0.1086 -0.4569  1.0492
  823MOL0     C11005   4.388  10.257   8.522  0.2643  0.8195 -0.3944
  823MOL0     O11006   4.440  10.230   8.650 -0.0034 -0.3877  0.7653
  823MOL0     C11007   4.448  10.090   8.689 -0.1575 -0.0356 -0.4199
  823MOL0     C11008   4.455  10.094   8.848 -0.5056  0.2184 -0.0923
  823MOL0     C11009   4.397   9.975   8.913  0.4557  0.6959  0.5246
  823MOL0     C11010   4.349  10.012   9.050  0.3350 -0.6017 -1.2884
  823MOL0     C11011   4.208  10.080   9.056  0.1916  0.8891 -0.4748
  823MOL0     C11012   4.126  10.113   8.927 -0.4902  0.3356  0.6406
  823MOL0     C11013   3.986  10.167   8.955  0.9163  0.2777 -0.5375
  823MOL0     C11014   3.917  10.215   8.835  0.9135 -0.6407  0.3051
  823MOL0    Cl11015   3.855  10.088   8.742 -0.0863  0.6210 -0.0535
  823MOL0     C11016   4.247  10.264   8.504  0.5228 -0.1972 -0.6692
  823MOL0     C11017   4.182  10.292   8.379 -1.2521  0.4220  0.1396
  823MOL0     O11018   4.104  10.120   8.154 -0.4684 -0.0292  0.2068
  823MOL0     C11019   4.022  10.136   7.880 -0.0514 -0.4729 -0.5490
  823MOL0     C11020   4.010  10.111   7.749  0.2841  0.6304  0.4629
  823MOL0     N11021   4.181  10.425   7.123 -0.6132  0.2701  0.5356
  823MOL0     N11022   4.241  10.443   7.017 -0.4184  0.1204 -0.4825
  823MOL0     C11023   3.288  10.398   6.849  0.6165 -0.0668 -1.4140
  823MOL0     C11024   3.209  10.360   6.959  0.1256 -0.6325 -1.5136
  823MOL0     C11025   3.090  10.429   7.412  0.1019 -0.4315 -0.8123
  823MOL0     C11026   3.106  10.482   7.539  0.2191 -0.9069 -0.6084
  823MOL0     C11027   3.014  10.469   7.639  0.9005  0.1932  0.3112
  823MOL0     C11028   2.896  10.401   7.616  0.3041 -0.2414  0.6360
  823MOL0     O11029   2.791  10.385   7.700  0.2579 -0.1483  0.6632
  823MOL0     C11030   2.801  10.418   7.841 -1.6293  0.7969  0.4164
  823MOL0     C11031   2.703  10.330   7.914  0.5777  0.3358 -0.1310
  823MOL0     C11032   2.739  10.181   7.911  0.3954 -0.1008  0.2509
  823MOL0     C11033   2.676  10.105   8.019  0.2399  0.0464 -0.4378
  823MOL0     C11034   2.533  10.093   7.994 -0.7963 -0.0178  0.9533
  823MOL0     C11035   2.422  10.096   7.960  0.5058 -0.8899  0.0917
  823MOL0     C11036   2.861  10.371   7.485 -0.3036  0.4736 -0.2197
  823MOL0     C11037   2.965  10.363   7.392  1.0548 -0.9924 -0.1660
  823MOL0     H11038   3.227  10.668   7.106  4.3719  0.3956 -0.5337
  823MOL0     H11039   3.371  10.716   6.911  0.3030 -0.3288 -0.4199
  823MOL0     H11040   3.536  10.413   6.710  0.2548 -0.8404  0.3730
  823MOL0     H11041   3.415  10.428   6.585  2.2003 -1.5109 -1.8421
  823MOL0     H11042   3.601  10.488   6.473 -0.7528  0.4289  0.2576
  823MOL0     H11043   3.511  10.633   6.489  0.3114  0.4085 -0.0309
  823MOL0     H11044   3.707  10.734   6.577  0.7753  0.1213  0.1339
  823MOL0     H11045   3.702  10.617   6.712  0.8396  3.8089  0.5303
  823MOL0     H11046   3.827  10.460   6.530  1.4292 -0.1187 -1.8159
  823MOL0     H11047   3.827  10.601   6.429 -0.5144  1.9180  0.1953
  823MOL0     H11048   4.031  10.653   6.526  0.7462 -2.3717 -1.0111
  823MOL0     H11049   3.943  10.695   6.674  2.9120  2.1184 -1.5234
  823MOL0     H11050   3.960  10.512   6.779 -0.1408  2.4438  0.3907
  823MOL0     H11051   3.987  10.399   6.632 -5.6555  2.0109 -1.8340
  823MOL0     H11052   4.201  10.526   6.603 -0.7709  3.8934  0.2254
  823MOL0     H11053   4.182  10.594   6.766  0.0574 -0.2567  0.8734
  823MOL0     H11054   4.327  10.367   6.752  0.0249 -0.8766  1.2305
  823MOL0     H11055   4.167  10.298   6.711  0.0794  1.5725 -1.6302
  823MOL0     H11056   4.016  10.234   6.916  1.3340 -0.3267 -1.9766
  823MOL0     H11057   3.988  10.372   7.291  0.2808 -0.5650  0.3204
  823MOL0     H11058   3.887  10.327   7.156 -0.4839 -1.4804 -1.3445
  823MOL0     H11059   3.941  10.087   7.171 -2.3222 -1.1864  1.3197
  823MOL0     H11060   3.900  10.143   7.325 -0.4762 -0.9948 -0.8678
  823MOL0     H11061   4.192  10.121   7.228 -1.4962  2.2526 -1.0596
  823MOL0     H11062   4.107   9.996   7.326  0.5609  0.2818  2.2644
  823MOL0     H11063   4.169  10.272   7.390  2.2497 -2.1001 -2.5521
  823MOL0     H11064   4.262  10.137   7.461 -0.8621 -2.5287  0.6748
  823MOL0     H11065   4.247  10.310   7.626 -1.3605  3.8355  1.0263
  823MOL0     H11066   4.294  10.455   7.946 -0.8112  0.0247  0.2141
  823MOL0     H11067   4.387  10.303   7.951 -4.1489 -3.8097  0.4181
  823MOL0     H11068   4.378  10.399   7.806  1.2060  0.6514  1.6019
  823MOL0     H11069   4.460  10.258   8.185 -2.5695  0.6811 -0.1341
  823MOL0     H11070   4.581  10.248   8.421  0.1774  1.5877  1.1953
  823MOL0     H11071   4.360  10.037   8.652  0.0181 -1.6169  1.3094
  823MOL0     H11072   4.540  10.040   8.659 -0.9357 -0.3041 -2.5341
  823MOL0     H11073   4.559  10.102   8.882 -0.1547  1.7579 -1.3980
  823MOL0     H11074   4.398  10.179   8.885 -0.8807 -0.2085  0.3170
  823MOL0     H11075   4.476   9.904   8.937  1.2310  1.2147 -0.4189
  823MOL0     H11076   4.316   9.940   8.848  0.5022 -0.5289  1.0941
  823MOL0     H11077   4.339   9.921   9.110  1.9581  1.2746  2.1066
  823MOL0     H11078   4.425  10.061   9.111  0.7665 -2.0330 -0.6405
  823MOL0     H11079   4.223  10.176   9.107 -2.1750  2.3795 -2.3490
  823MOL0     H11080   4.138  10.026   9.120  0.7781 -1.2364 -1.5245
  823MOL0     H11081   4.181  10.177   8.857 -0.3946 -0.2653  0.1558
  823MOL0     H11082   4.119  10.022   8.868  1.9409  1.6628 -1.9026
  823MOL0     H11083   3.994  10.245   9.031  0.5172 -0.2687  0.0780
  823MOL0     H11084   3.919  10.093   9.000  2.3389 -1.1982 -0.7537
  823MOL0     H11085   3.985  10.277   8.775  1.6192 -2.0061 -0.3526
  823MOL0     H11086   3.833  10.277   8.866  1.3749  0.5766 -0.7703
  823MOL0     H11087   4.185  10.240   8.589  0.3267  1.3956 -0.3203
  823MOL0     H11088   4.075  10.302   8.369 -1.6839 -3.1038  0.1197
  823MOL0     H11089   3.963  10.074   7.947 -1.1808 -1.5999 -2.4984
  823MOL0     H11090   3.923  10.052   7.722  1.2173  0.8813 -3.9615
  823MOL0     H11091   3.288  10.330   6.765 -0.5373  0.0489 -1.5161
  823MOL0     H11092   3.170  10.261   6.978 -2.7220  0.6824  0.0876
  823MOL0     H11093   3.193  10.533   7.578  0.8375 -1.6923 -0.9262
  823MOL0     H11094   3.037  10.509   7.737 -1.1598 -0.6815  1.2072
  823MOL0     H11095   2.903  10.398   7.874 -2.7070 -1.2350  2.7923
  823MOL0     H11096   2.769  10.522   7.855  0.9674  1.7416 -0.0990
  823MOL0     H11097   2.605  10.341   7.867  0.9058 -1.6293 -1.4195
  823MOL0     H11098   2.705  10.360   8.019  1.6226  5.0291 -1.2304
  823MOL0     H11099   2.846  10.163   7.926  0.4953  0.8023  0.6991
  823MOL0     H11100   2.716  10.130   7.817 -1.5640  0.4737  0.3899
  823MOL0     H11101   2.695  10.145   8.119  1.7039 -0.8709 -0.3311
  823MOL0     H11102   2.712  10.002   8.030  0.1095 -0.0865 -1.1781
  823MOL0     H11103   2.323  10.101   7.921 -0.2744  2.3310  2.1463
  823MOL0     H11104   2.762  10.330   7.469 -0.1403 -0.6029  1.3203
  823MOL0     H11105   2.946  10.313   7.297  1.9331  1.2322 -1.5880
  824MOL0     O11106   9.351   4.066   4.745  0.0356 -0.2974  0.0927
  824MOL0     C11107   9.265   3.987   4.759  0.0111  0.4795 -0.9325
  824MOL0     O11108   9.274   3.849   4.741 -0.4242 -0.2512 -0.5374
  824MOL0     C11109   9.396   3.791   4.726  0.1495  0.1008  0.2278
  824MOL0     C11110   9.428   3.697   4.819  0.1198 -0.4779 -0.2174
  824MOL0     C11111   9.548   3.629   4.816 -0.2494  0.1677  1.0777
  824MOL0     C11112   9.642   3.649   4.707 -0.1903  0.2791 -0.0097
  824MOL0     O11113   9.758   3.573   4.714 -0.2969 -0.8411 -0.4839
  824MOL0     C11114   9.856   3.582   4.612  0.2217  0.4927  0.1719
  824MOL0     C11115   9.974   3.488   4.656 -0.5567  0.6889  0.5909
  824MOL0     C11116  10.077   3.471   4.537 -0.5855 -0.1679  1.0792
  824MOL0     C11117  10.220   3.433   4.590 -0.3585 -0.1415  0.6890
  824MOL0     C11118  10.313   3.391   4.479 -0.0196 -0.1310 -0.2701
  824MOL0     C11119  10.454   3.356   4.540  0.2927  0.3907 -1.0027
  824MOL0     C11120  10.562   3.311   4.441 -0.1267  0.0550  0.5797
  824MOL0     C11121  10.627   3.437   4.370  0.7464 -0.0294 -0.1052
  824MOL0     N11122  10.745   3.407   4.300 -0.8313 -0.0544  0.5613
  824MOL0     C11123  10.761   3.371   4.172  0.1122 -0.8618  0.5290
  824MOL0     C11124  10.891   3.339   4.150 -0.7041  0.0345  0.5389
  824MOL0     C11125  10.965   3.318   4.019  0.4403  0.3220  0.5839
  824MOL0     C11126  10.923   3.410   3.902  0.5290 -0.2378  1.0206
  824MOL0     C11127  10.943   3.568   3.941 -0.9257  1.0009 -0.4923
  824MOL0     C11128  10.848   3.639   4.039 -0.7789  0.0080  0.0760
  824MOL0     O11129  10.711   3.640   3.983  0.0683 -0.2997 -0.2515
  824MOL0     C11130  10.610   3.691   4.060  0.7102  0.1607 -0.4398
  824MOL0     C11131  10.633   3.740   4.187  0.2614 -0.5375  0.5027
  824MOL0     C11132  10.522   3.790   4.266  0.3541 -0.7864  0.5067
  824MOL0     C11133  10.558   3.865   4.390  0.3248  0.2918 -0.5419
  824MOL0     C11134  10.392   3.770   4.222  0.1839 -0.1389 -0.1755
  824MOL0     C11135  10.278   3.802   4.318  0.0240 -0.2095  0.5234
  824MOL0     O11136  10.169   3.837   4.250  0.0655 -0.5180 -0.3567
  824MOL0     C11137  10.056   3.888   4.310 -0.4702 -0.6417 -0.6184
  824MOL0     C11138   9.977   3.976   4.232 -0.3320  0.0810 -1.0025
  824MOL0     C11139   9.861   4.040   4.285 -0.2274  0.4138 -0.3889
  824MOL0     C11140   9.824   4.022   4.419 -0.3533 -0.0435 -0.4288
  824MOL0     O11141   9.720   4.095   4.471  0.6141 -0.0633  0.6508
  824MOL0     C11142   9.600   4.118   4.389  0.0653 -0.4240  0.4913
  824MOL0     C11143   9.501   4.176   4.493 -0.3043 -0.3541 -0.3204
  824MOL0     C11144   9.489   4.325   4.473 -0.0980 -0.7504  0.5034
  824MOL0     C11145   9.344   4.373   4.518  0.4957 -0.0316  0.0546
  824MOL0     C11146   9.326   4.524   4.497  0.8980  0.3485 -1.5439
  824MOL0     C11147   9.177   4.561   4.513  1.0118 -0.2756 -0.2998
  824MOL0     C11148   9.142   4.710   4.482  0.0619  0.3197  0.2632
  824MOL0     C11149   9.176   4.809   4.585 -0.0036 -0.2275  0.1433
  824MOL0    Cl11150   9.162   4.745   4.757 -0.3106  0.0134 -0.0828
  824MOL0     C11151   9.912   3.947   4.498  0.2160 -1.4398 -0.4910
  824MOL0     C11152  10.020   3.877   4.452  0.0359 -0.1570  0.9177
  824MOL0     O11153  10.290   3.799   4.437 -0.0687  0.1733 -0.5071
  824MOL0     C11154  10.372   3.701   4.100 -0.4300 -0.5666  0.7029
  824MOL0     C11155  10.480   3.672   4.019  0.8189 -0.7008  0.3399
  824MOL0     N11156  10.956   3.380   4.265 -0.6076  0.1344 -0.0244
  824MOL0     N11157  10.866   3.399   4.356 -0.6746  0.0124  0.2692
  824MOL0     C11158   9.616   3.749   4.616 -0.3286  0.2588 -0.4926
  824MOL0     C11159   9.492   3.817   4.621 -0.2141 -0.2719 -0.3298
  824MOL0     C11160   9.128   4.041   4.798  0.3843 -0.4706  0.2130
  824MOL0     C11161   9.007   3.974   4.767 -1.0258 -0.2589 -0.4378
  824MOL0     C11162   8.889   4.045   4.793 -0.9579  0.4316  0.4935
  824MOL0     C11163   8.884   4.171   4.837 -0.4217 -0.9277  0.0652
  824MOL0     O11164   8.758   4.245   4.833 -0.8297  0.1324 -0.1661
  824MOL0     C11165   8.765   4.373   4.890 -0.4709  0.4515 -0.0368
  824MOL0     C11166   8.627   4.435   4.895  0.3699 -0.4391 -0.2463
  824MOL0     C11167   8.611   4.547   5.008 -0.6333  0.5217  0.5514
  824MOL0     C11168   8.658   4.694   4.972  0.2269  0.5381 -0.8867
  824MOL0     C11169   8.550   4.763   4.898  0.2166 -0.0735  0.3863
  824MOL0     C11170   8.486   4.821   4.823  0.4983 -0.3579  1.2814
  824MOL0     C11171   9.001   4.239   4.861  0.2019  0.4223 -1.0335
  824MOL0     C11172   9.123   4.174   4.837 -0.2050  0.0711 -0.1860
  824MOL0     H11173   9.350   3.670   4.889  2.3206 -3.3507  1.3148
  824MOL0     H11174   9.570   3.550   4.888  0.3148 -0.7801 -0.1042
  824MOL0     H11175   9.825   3.560   4.510  2.1227  3.8195 -1.2832
  824MOL0     H11176   9.887   3.686   4.597  0.6928  0.4648  0.9167
  824MOL0     H11177  10.022   3.530   4.745 -0.4569  4.0291 -0.9196
  824MOL0     H11178   9.944   3.384   4.674  3.6418 -0.7340  0.3073
  824MOL0     H11179  10.050   3.387   4.472 -1.9864 -0.6254  2.1841
  824MOL0     H11180  10.080   3.563   4.479 -0.1213 -0.8600 -0.0234
  824MOL0     H11181  10.257   3.532   4.620  0.4994 -0.4487  0.6808
  824MOL0     H11182  10.221   3.372   4.680 -3.9078 -0.3899  0.6773
  824MOL0     H11183  10.265   3.308   4.427 -2.3159 -0.0177  1.5119
  824MOL0     H11184  10.332   3.469   4.406  1.6795 -3.0240 -3.1939
  824MOL0     H11185  10.484   3.444   4.597  0.6044 -0.1233 -0.3590
  824MOL0     H11186  10.444   3.273   4.611 -0.6764 -0.2486 -1.8601
  824MOL0     H11187  10.644   3.262   4.495 -1.4015  0.8310  3.4184
  824MOL0     H11188  10.527   3.238   4.368  1.6527  0.0456 -0.3215
  824MOL0     H11189  10.674   3.507   4.440 -0.4446 -1.7231  2.5453
  824MOL0     H11190  10.556   3.485   4.303 -0.7124 -2.4221 -0.4006
  824MOL0     H11191  10.673   3.383   4.110  0.1579 -0.6802  0.4998
  824MOL0     H11192  11.071   3.325   4.045  0.3427 -1.3434  1.5718
  824MOL0     H11193  10.950   3.216   3.982  2.4772  0.3495 -0.4490
  824MOL0     H11194  10.820   3.390   3.874  0.5832  1.5569 -0.6593
  824MOL0     H11195  10.986   3.378   3.819  1.2395  0.0049  1.4497
  824MOL0     H11196  10.934   3.633   3.853  1.1880  0.9330 -0.8003
  824MOL0     H11197  11.042   3.579   3.986 -0.2716 -1.1528 -1.3183
  824MOL0     H11198  10.878   3.744   4.042 -0.2273  0.0126 -2.6850
  824MOL0     H11199  10.856   3.596   4.139  2.2038 -1.8245 -0.8326
  824MOL0     H11200  10.734   3.748   4.225  0.8542 -3.3627 -0.2722
  824MOL0     H11201  10.540   3.802   4.478 -1.0673  2.1070  0.5267
  824MOL0     H11202  10.665   3.888   4.390  0.0890  1.5634  1.3320
  824MOL0     H11203  10.504   3.960   4.396  2.7491  1.8023 -1.1670
  824MOL0     H11204  10.008   3.984   4.128  0.5019  0.9382 -0.7009
  824MOL0     H11205   9.814   4.116   4.224 -0.1070 -2.1384 -3.9959
  824MOL0     H11206   9.619   4.189   4.307  1.3619 -0.4144  0.7657
  824MOL0     H11207   9.564   4.022   4.351  1.5867  0.3920 -3.5333
  824MOL0     H11208   9.404   4.125   4.492 -1.0478  0.8414  2.1668
  824MOL0     H11209   9.534   4.148   4.594 -3.0174 -0.7712  0.5282
  824MOL0     H11210   9.489   4.365   4.371  0.4447  1.1065  1.2023
  824MOL0     H11211   9.568   4.373   4.531 -2.9199  2.3257  2.1036
  824MOL0     H11212   9.276   4.314   4.456  1.4405  0.6549 -1.7165
  824MOL0     H11213   9.317   4.354   4.622 -3.1160 -2.6328 -1.1708
  824MOL0     H11214   9.350   4.560   4.397  4.0715  2.5693 -0.1655
  824MOL0     H11215   9.401   4.576   4.556 -0.2295  0.4081 -0.0928
  824MOL0     H11216   9.110   4.496   4.456  1.8025 -0.6579 -0.7970
  824MOL0     H11217   9.163   4.545   4.620  0.0605  2.5341  0.0998
  824MOL0     H11218   9.033   4.721   4.473  0.0959  0.2361 -0.2464
  824MOL0     H11219   9.194   4.738   4.390 -1.3058  1.1431 -0.2918
  824MOL0     H11220   9.119   4.902   4.591  3.0401  1.7172  0.7614
  824MOL0     H11221   9.278   4.847   4.574 -0.8453  2.9513  1.9466
  824MOL0     H11222   9.891   3.955   4.605  4.0023 -0.8685  0.3638
  824MOL0     H11223  10.071   3.808   4.519 -0.0327  1.0706  2.2669
  824MOL0     H11224  10.277   3.699   4.048  0.4411 -0.1818 -0.9613
  824MOL0     H11225  10.464   3.636   3.918 -0.6817 -1.6796  0.8885
  824MOL0     H11226   9.686   3.766   4.536  0.8346  0.9979  0.6394
  824MOL0     H11227   9.474   3.885   4.538  0.8972 -0.7168 -0.9573
  824MOL0     H11228   8.998   3.875   4.722  0.0850  0.2559 -1.8322
  824MOL0     H11229   8.801   3.997   4.752 -0.7645  2.0304 -1.9963
  824MOL0     H11230   8.797   4.362   4.994  0.9356  1.9873 -0.2589
  824MOL0     H11231   8.833   4.433   4.829  0.4160 -3.1693 -2.9711
  824MOL0     H11232   8.546   4.363   4.908 -0.0148 -0.5425 -2.7731
  824MOL0     H11233   8.603   4.478   4.798  0.7203 -1.2598 -0.7065
  824MOL0     H11234   8.673   4.512   5.091 -2.8692 -2.1103  1.2511
  824MOL0     H11235   8.508   4.550   5.044 -0.7082 -0.7590  0.4848
  824MOL0     H11236   8.739   4.702   4.899 -0.0703 -1.1996 -1.4583
  824MOL0     H11237   8.686   4.748   5.063  0.8673 -1.2777  0.0348
  824MOL0     H11238   8.415   4.875   4.763  1.1985 -1.8975 -1.0473
  824MOL0     H11239   9.013   4.344   4.884 -0.8639  0.1833  0.7797
  824MOL0     H11240   9.213   4.234   4.846 -0.5415  0.4524  0.8221
  825MOL0     O11241   1.090   8.377   4.488 -0.6307 -1.6605  0.1428
  825MOL0     C11242   1.107   8.281   4.412  0.1508 -0.3540 -0.0845
  825MOL0     O11243   1.077   8.274   4.279 -0.3663 -0.0966  0.3390
  825MOL0     C11244   1.015   8.385   4.233  0.8100 -0.3779  0.2914
  825MOL0     C11245   1.074   8.504   4.202 -0.1054 -0.6582  0.3992
  825MOL0     C11246   0.999   8.620   4.167  0.2893  0.1290  0.2136
  825MOL0     C11247   0.862   8.605   4.148 -0.0417 -0.0162  0.3713
  825MOL0     O11248   0.806   8.724   4.124  0.0850  0.5714  0.2981
  825MOL0     C11249   0.662   8.722   4.145  0.3892 -0.0539  0.1559
  825MOL0     C11250   0.605   8.860   4.103  0.1051  1.1390  0.1975
  825MOL0     C11251   0.665   8.989   4.175  1.2877  0.9544  0.7488
  825MOL0     C11252   0.577   9.111   4.157 -1.3380 -0.5041  0.0635
  825MOL0     C11253   0.647   9.242   4.197 -0.1984  0.2577 -0.2776
  825MOL0     C11254   0.577   9.368   4.145 -0.3068  0.4229 -0.4171
  825MOL0     C11255   0.616   9.388   4.000  0.2635  0.2348 -0.0652
  825MOL0     C11256   0.554   9.514   3.942 -0.7196 -0.2940 -0.1101
  825MOL0     N11257   0.588   9.645   4.002 -0.3405 -0.6451  0.6596
  825MOL0     C11258   0.503   9.704   4.091  0.0351 -0.0914  0.5292
  825MOL0     C11259   0.588   9.807   4.133  0.0497  0.7208 -0.1778
  825MOL0     C11260   0.552   9.885   4.253 -0.2321 -0.4312  0.4944
  825MOL0     C11261   0.400   9.856   4.306  1.0069  0.1387  0.2268
  825MOL0     C11262   0.376   9.951   4.425 -0.0055  0.2828  0.5380
  825MOL0     C11263   0.231   9.960   4.461 -0.6354  0.1252 -0.1427
  825MOL0     O11264   0.227  10.071   4.551 -0.5058  0.0415 -0.9616
  825MOL0     C11265   0.124  10.068   4.640 -0.9674  0.6566 -0.2282
  825MOL0     C11266   0.009  10.002   4.623 -0.2642 -0.9616 -0.3146
  825MOL0     C11267  -0.093   9.997   4.723  0.0709  0.0878  0.5660
  825MOL0     C11268  -0.215   9.921   4.693 -0.6415  0.1183 -0.3716
  825MOL0     C11269  -0.066  10.051   4.844  0.4862 -0.4312  0.2958
  825MOL0     C11270  -0.174  10.061   4.951  0.0670 -0.6043 -0.6868
  825MOL0     O11271  -0.185   9.950   5.040  0.8590 -0.1374  0.9501
  825MOL0     C11272  -0.289   9.938   5.133 -1.0452 -0.1354  0.0930
  825MOL0     C11273  -0.314  10.032   5.234  0.3174 -1.2725  0.8902
  825MOL0     C11274  -0.400   9.996   5.344 -0.0485  0.7537  0.4737
  825MOL0     C11275  -0.460   9.865   5.345 -0.2543 -0.7863 -0.3808
  825MOL0     O11276  -0.547   9.842   5.447 -0.7493 -0.0174 -0.1631
  825MOL0     C11277  -0.512   9.888   5.584 -0.3685  0.2162  0.7878
  825MOL0     C11278  -0.603   9.810   5.684 -0.0039  0.5314 -0.3034
  825MOL0     C11279  -0.748   9.874   5.691 -0.5502  1.4363 -0.7895
  825MOL0     C11280  -0.828   9.810   5.806  0.1321  0.6213 -1.0079
  825MOL0     C11281  -0.981   9.845   5.796 -0.4774 -0.3957  0.8883
  825MOL0     C11282  -1.076   9.728   5.845  0.1190 -0.0667 -0.4003
  825MOL0     C11283  -1.218   9.795   5.838  0.1576  0.2121 -0.5566
  825MOL0     C11284  -1.346   9.711   5.864 -0.1332  0.3531 -0.0074
  825MOL0    Cl11285  -1.362   9.575   5.748  0.4388  0.6008  0.5575
  825MOL0     C11286  -0.427   9.768   5.250 -0.1724  0.2425  0.1406
  825MOL0     C11287  -0.339   9.807   5.148 -0.6634 -0.3665 -0.8513
  825MOL0     O11288  -0.243  10.161   4.962  0.5063  0.6166  0.3156
  825MOL0     C11289   0.056  10.116   4.864  0.4796 -0.3213 -0.2641
  825MOL0     C11290   0.151  10.120   4.759  0.0167  0.1280 -0.3026
  825MOL0     N11291   0.704   9.818   4.055 -0.3733  0.3943 -0.5455
  825MOL0     N11292   0.704   9.719   3.974  0.7051  0.1090  0.1537
  825MOL0     C11293   0.799   8.485   4.168 -0.4429  0.3869  0.4770
  825MOL0     C11294   0.880   8.375   4.211 -0.8837 -1.0014  1.3225
  825MOL0     C11295   1.171   8.155   4.461  1.1484 -0.3121  0.8265
  825MOL0     C11296   1.231   8.166   4.582 -0.4892 -0.0040 -0.5099
  825MOL0     C11297   1.298   8.054   4.633 -0.2141 -0.0913  0.3216
  825MOL0     C11298   1.304   7.934   4.562  0.5206 -0.5414  0.6852
  825MOL0     O11299   1.347   7.820   4.612  0.8592 -0.8797 -0.7616
  825MOL0     C11300   1.312   7.784   4.750  0.1295  0.2145  0.8148
  825MOL0     C11301   1.438   7.709   4.802 -0.2818 -0.1989  0.4295
  825MOL0     C11302   1.428   7.662   4.946 -1.4681  0.3550  0.3531
  825MOL0     C11303   1.560   7.683   5.018  1.0634 -0.7403 -1.2187
  825MOL0     C11304   1.665   7.594   4.963  0.4780  0.8385  0.4321
  825MOL0     C11305   1.755   7.525   4.932 -0.0227 -0.1151  0.9306
  825MOL0     C11306   1.229   7.922   4.440  0.4737 -0.9425 -0.0171
  825MOL0     C11307   1.157   8.040   4.394  0.6235  0.4336 -0.6838
  825MOL0     H11308   1.182   8.511   4.204 -0.1070 -0.7141  0.7008
  825MOL0     H11309   1.050   8.715   4.151  0.8922 -0.0429  1.0579
  825MOL0     H11310   0.612   8.637   4.098 -2.2628  0.8298  1.1627
  825MOL0     H11311   0.639   8.706   4.251  0.8556 -0.8552  0.1457
  825MOL0     H11312   0.627   8.863   3.995 -0.3039 -3.5305 -0.2228
  825MOL0     H11313   0.498   8.854   4.120  0.4565  0.7549  2.5875
  825MOL0     H11314   0.681   8.976   4.282  1.5514 -2.6244  0.3871
  825MOL0     H11315   0.764   8.998   4.129  1.2037 -0.7596  0.1640
  825MOL0     H11316   0.550   9.125   4.052  1.0318  0.1967 -0.5057
  825MOL0     H11317   0.486   9.095   4.215 -3.2353 -0.2390 -2.6589
  825MOL0     H11318   0.648   9.241   4.307  2.6055  0.1275 -0.2326
  825MOL0     H11319   0.749   9.237   4.159 -0.7589  2.0008 -2.2012
  825MOL0     H11320   0.468   9.358   4.145 -0.2193 -1.0622 -2.2361
  825MOL0     H11321   0.600   9.462   4.194 -0.5179 -0.2681  1.0600
  825MOL0     H11322   0.724   9.403   3.995  0.2354  0.3559 -0.3371
  825MOL0     H11323   0.586   9.302   3.940 -2.9619  1.3219 -0.2236
  825MOL0     H11324   0.446   9.506   3.954 -1.4146  1.8817 -3.5808
  825MOL0     H11325   0.564   9.513   3.833  0.7179 -1.6706  0.0042
  825MOL0     H11326   0.403   9.680   4.125  0.5916  1.0414  3.2298
  825MOL0     H11327   0.618   9.873   4.340 -0.2011  0.3631  0.5902
  825MOL0     H11328   0.564   9.991   4.229  4.4358 -0.4834  1.7341
  825MOL0     H11329   0.379   9.752   4.333 -4.4620  0.6451 -0.9433
  825MOL0     H11330   0.327   9.892   4.233  1.8119  2.8609  0.6483
  825MOL0     H11331   0.419  10.046   4.389  1.3008 -1.6581 -3.6996
  825MOL0     H11332   0.435   9.924   4.513  1.7227  1.4346 -0.1985
  825MOL0     H11333   0.213   9.875   4.526  0.4252  2.1029  2.9615
  825MOL0     H11334   0.170   9.973   4.371  0.6080 -3.0790 -1.6038
  825MOL0     H11335  -0.009   9.949   4.530 -2.2299 -0.0630 -0.5062
  825MOL0     H11336  -0.259   9.867   4.777 -0.1880 -1.4324 -1.0840
  825MOL0     H11337  -0.298   9.976   4.648 -0.5298  0.8700  0.3161
  825MOL0     H11338  -0.191   9.843   4.619 -1.9044  0.3616 -1.0784
  825MOL0     H11339  -0.276  10.132   5.216  0.4011 -1.4883 -0.2749
  825MOL0     H11340  -0.418  10.065   5.426  1.0541  0.3690  1.0615
  825MOL0     H11341  -0.407   9.869   5.609 -0.5575  1.2076  2.4580
  825MOL0     H11342  -0.527   9.996   5.591  2.4880  0.7848 -0.3451
  825MOL0     H11343  -0.618   9.707   5.651 -0.4923 -0.0368  1.5532
  825MOL0     H11344  -0.555   9.805   5.783 -1.6957  1.6205  0.6211
  825MOL0     H11345  -0.809   9.849   5.604 -1.6590  0.3955  0.2399
  825MOL0     H11346  -0.739   9.982   5.700 -1.3236  1.4412  0.0605
  825MOL0     H11347  -0.818   9.701   5.795 -3.2145  0.2692 -1.6564
  825MOL0     H11348  -0.782   9.827   5.904  1.0993  2.4097 -1.7289
  825MOL0     H11349  -0.998   9.863   5.690  2.1454  1.9248  0.7438
  825MOL0     H11350  -1.010   9.934   5.852 -1.7853 -0.2144 -0.0387
  825MOL0     H11351  -1.075   9.631   5.795  1.3457 -0.2650 -0.0183
  825MOL0     H11352  -1.060   9.695   5.948 -0.6516 -3.3792 -1.2239
  825MOL0     H11353  -1.230   9.839   5.738  1.6570  1.9587 -0.0280
  825MOL0     H11354  -1.220   9.877   5.911  1.2053  1.6356 -2.0573
  825MOL0     H11355  -1.442   9.764   5.861 -2.7275 -3.8499 -2.7867
  825MOL0     H11356  -1.321   9.665   5.961 -0.2726  2.7511  1.2314
  825MOL0     H11357  -0.471   9.670   5.255 -0.0214  0.2032  0.8522
  825MOL0     H11358  -0.299   9.730   5.083  2.1105  0.5105 -0.3044
  825MOL0     H11359   0.075  10.174   4.954 -3.8760  0.0145  0.6151
  825MOL0     H11360   0.247  10.167   4.780  0.4489  0.2374 -2.3255
  825MOL0     H11361   0.693   8.479   4.150 -0.0567  1.2774 -2.8285
  825MOL0     H11362   0.835   8.276   4.221  1.0046 -2.3813 -2.1389
  825MOL0     H11363   1.239   8.255   4.643  0.0373 -0.4464  0.0705
  825MOL0     H11364   1.355   8.057   4.725  1.1164  1.3333 -0.4960
  825MOL0     H11365   1.284   7.872   4.809 -0.8451  2.0149 -2.1008
  825MOL0     H11366   1.235   7.707   4.749  0.6429 -0.3136 -0.5803
  825MOL0     H11367   1.535   7.758   4.788 -1.3184  2.1987  1.1453
  825MOL0     H11368   1.445   7.619   4.741  3.1114  1.6416 -2.2825
  825MOL0     H11369   1.392   7.559   4.940 -1.4907  0.4324 -4.1614
  825MOL0     H11370   1.359   7.724   5.005 -0.6196  0.2917  1.4328
  825MOL0     H11371   1.539   7.648   5.119  2.9619 -0.6848 -0.7671
  825MOL0     H11372   1.603   7.784   5.024 -0.1593 -0.1461 -1.9616
  825MOL0     H11373   1.843   7.473   4.899  0.6617  1.7893 -0.4935
  825MOL0     H11374   1.217   7.828   4.387  0.5178 -0.7740 -0.3245
  825MOL0     H11375   1.097   8.034   4.305  3.8421 -2.0901 -2.9616
  826MOL0     O11376  11.397   9.688   0.642  0.4167  0.3798  0.3583
  826MOL0     C11377  11.365   9.608   0.729  0.9659 -0.3007  0.0047
  826MOL0     O11378  11.426   9.610   0.851  0.4500 -0.0029 -0.4643
  826MOL0     C11379  11.532   9.692   0.872 -0.0026  0.2838  1.1190
  826MOL0     C11380  11.503   9.797   0.954 -0.6936 -0.4096 -0.9032
  826MOL0     C11381  11.597   9.910   0.966  0.1886  1.0066  0.0170
  826MOL0     C11382  11.716   9.901   0.903  0.9244 -0.5574 -0.5542
  826MOL0     O11383  11.804  10.005   0.927  0.6082 -0.5052 -0.2083
  826MOL0     C11384  11.942   9.992   0.889 -0.0592 -0.3562 -0.0699
  826MOL0     C11385  12.028  10.121   0.892  0.5777  0.0243 -0.3493
  826MOL0     C11386  12.164  10.092   0.835  0.5991 -0.7411  0.3130
  826MOL0     C11387  12.244  10.008   0.929 -0.3046  0.3288  0.0850
  826MOL0     C11388  12.395  10.047   0.926  0.2538  0.2266 -0.1428
  826MOL0     C11389  12.426  10.190   0.970 -0.2843 -1.3625 -2.0196
  826MOL0     C11390  12.571  10.223   1.011 -0.1467  0.6515  0.7791
  826MOL0     C11391  12.669  10.184   0.897  0.3049 -0.2588 -0.4872
  826MOL0     N11392  12.683  10.282   0.788  0.6850  0.7594  0.2013
  826MOL0     C11393  12.665  10.243   0.660 -0.9519  0.6586 -0.1822
  826MOL0     C11394  12.681  10.353   0.583  0.3125  0.0489 -0.0773
  826MOL0     C11395  12.676  10.363   0.429  0.3990 -0.6900 -0.4201
  826MOL0     C11396  12.772  10.461   0.366  0.1273  1.2978  0.1191
  826MOL0     C11397  12.752  10.460   0.218  0.3885  1.1288 -0.4873
  826MOL0     C11398  12.880  10.516   0.175 -0.7306 -0.0116  0.2594
  826MOL0     O11399  12.894  10.655   0.200 -0.5681 -0.0562 -1.1772
  826MOL0     C11400  13.010  10.718   0.183  0.3097  0.9128  0.7007
  826MOL0     C11401  13.016  10.840   0.116  0.5778 -0.0943  0.3356
  826MOL0     C11402  13.146  10.900   0.091  1.0505 -0.9370 -0.0942
  826MOL0     C11403  13.145  11.034   0.020  0.2561  0.1816 -0.1281
  826MOL0     C11404  13.262  10.845   0.148  0.5922  0.8670 -0.3180
  826MOL0     C11405  13.401  10.901   0.130 -0.4112  0.4674  0.8147
  826MOL0     O11406  13.445  10.948   0.010  1.0681  0.0281 -0.0291
  826MOL0     C11407  13.580  10.946   0.002 -0.3135 -0.1832 -0.0506
  826MOL0     C11408  13.653  11.066   0.024  0.3149 -0.3147  0.6322
  826MOL0     C11409  13.795  11.064   0.001 -0.5107  0.5740  0.1566
  826MOL0     C11410  13.862  10.937  -0.042 -0.2844  0.4039 -0.3299
  826MOL0     O11411  14.001  10.944  -0.076  0.2445 -0.3843  0.0448
  826MOL0     C11412  14.066  10.814  -0.108 -0.3387 -1.5528  0.0965
  826MOL0     C11413  14.220  10.849  -0.119 -0.3233  1.4199  0.6274
  826MOL0     C11414  14.273  10.957  -0.022 -0.0532  0.1228 -0.2569
  826MOL0     C11415  14.242  10.909   0.124 -0.3719 -0.6569  0.0242
  826MOL0     C11416  14.302  11.011   0.219  0.1632  0.1224 -0.1789
  826MOL0     C11417  14.253  11.160   0.200 -0.0577  1.0445 -0.4438
  826MOL0     C11418  14.276  11.237   0.324  0.2349  0.8496  0.3747
  826MOL0     C11419  14.169  11.213   0.433 -0.1871 -0.0743 -0.4894
  826MOL0    Cl11420  14.006  11.240   0.370  0.0614 -0.0631  0.1757
  826MOL0     C11421  13.783  10.825  -0.054 -0.4835 -0.6905  0.9912
  826MOL0     C11422  13.646  10.829  -0.027 -0.4552  0.0928 -0.5712
  826MOL0     O11423  13.474  10.908   0.227 -0.6697 -0.2849 -0.3361
  826MOL0     C11424  13.253  10.721   0.215  0.6623 -0.1272  1.0483
  826MOL0     C11425  13.136  10.659   0.230  0.1762 -0.3507  1.3902
  826MOL0     N11426  12.712  10.451   0.675  0.4659 -1.6588  0.4887
  826MOL0     N11427  12.703  10.411   0.794 -1.1294 -0.0534 -0.4696
  826MOL0     C11428  11.746   9.781   0.834  0.2910 -0.3768 -0.7267
  826MOL0     C11429  11.660   9.680   0.818  0.6706  0.5202 -0.2316
  826MOL0     C11430  11.251   9.516   0.699  0.2304  1.2693 -0.3041
  826MOL0     C11431  11.208   9.490   0.569  0.3637  0.2870  1.3898
  826MOL0     C11432  11.099   9.415   0.543  0.8825  0.0166 -0.1715
  826MOL0     C11433  11.027   9.359   0.648  0.0385 -0.7621 -1.0387
  826MOL0     O11434  10.919   9.280   0.607 -0.2531 -0.2238 -0.3520
  826MOL0     C11435  10.818   9.224   0.700 -0.7582 -0.4182 -0.0462
  826MOL0     C11436  10.711   9.328   0.732  0.1329 -0.5616 -0.8849
  826MOL0     C11437  10.588   9.317   0.640  0.3948  0.5661  0.3605
  826MOL0     C11438  10.604   9.369   0.491 -0.0055 -0.0345  0.4136
  826MOL0     C11439  10.630   9.514   0.490  0.4914 -0.0890 -0.5277
  826MOL0     C11440  10.674   9.631   0.497  0.0028  0.6618  0.1631
  826MOL0     C11441  11.072   9.376   0.776  0.5695 -0.4458  0.6464
  826MOL0     C11442  11.186   9.453   0.803  0.1060 -0.0253  0.0726
  826MOL0     H11443  11.404   9.820   0.992  0.4210  1.6555  1.0050
  826MOL0     H11444  11.577   9.996   1.030 -0.5761 -0.2695  1.5542
  826MOL0     H11445  11.998   9.918   0.946 -1.6039 -4.0440 -2.8964
  826MOL0     H11446  11.941   9.949   0.788 -1.6711 -4.4949  1.4810
  826MOL0     H11447  11.979  10.190   0.823  0.8710 -0.5989 -1.2005
  826MOL0     H11448  12.040  10.157   0.995  2.3945  1.1894 -0.9270
  826MOL0     H11449  12.160  10.046   0.736 -2.3148 -1.6428  0.7551
  826MOL0     H11450  12.198  10.196   0.830  0.1233 -0.4631  2.1161
  826MOL0     H11451  12.211  10.028   1.032 -2.3959  1.5209 -0.7516
  826MOL0     H11452  12.233   9.900   0.917 -0.7523  0.0649  2.3692
  826MOL0     H11453  12.449   9.977   0.991  0.5571  1.4229  0.9169
  826MOL0     H11454  12.420  10.044   0.819  0.0130  2.6421 -0.3273
  826MOL0     H11455  12.397  10.264   0.894  2.4278  0.3083 -1.5593
  826MOL0     H11456  12.378  10.216   1.065  0.5216 -2.7549 -1.2071
  826MOL0     H11457  12.598  10.329   1.023  2.1675  0.2443 -0.2268
  826MOL0     H11458  12.608  10.169   1.098  2.0006 -1.1555 -1.1033
  826MOL0     H11459  12.648  10.084   0.858 -0.3554  0.1330 -1.1668
  826MOL0     H11460  12.765  10.196   0.947  0.6606 -0.3172 -1.1427
  826MOL0     H11461  12.658  10.143   0.619  2.3866 -0.5053  1.7286
  826MOL0     H11462  12.697  10.267   0.381  2.0735  0.3987 -1.9747
  826MOL0     H11463  12.574  10.388   0.397 -1.4228 -3.3271  2.7121
  826MOL0     H11464  12.875  10.445   0.397  0.8995  4.6126 -0.2995
  826MOL0     H11465  12.745  10.566   0.384 -0.0045  1.6557 -1.8561
  826MOL0     H11466  12.669  10.525   0.188 -1.9705 -2.9757 -3.8536
  826MOL0     H11467  12.736  10.357   0.186  0.5879 -0.1007  2.9578
  826MOL0     H11468  12.865  10.514   0.067  0.5269 -1.5632  0.0911
  826MOL0     H11469  12.975  10.468   0.198 -0.8083  0.5179  1.8047
  826MOL0     H11470  12.924  10.889   0.086  1.8793  1.0298 -2.1043
  826MOL0     H11471  13.243  11.061  -0.020  0.3223 -1.7980 -1.4354
  826MOL0     H11472  13.086  11.035  -0.072 -0.1202  0.8928  0.1141
  826MOL0     H11473  13.105  11.112   0.084  0.4785 -0.1008  0.3629
  826MOL0     H11474  13.611  11.161   0.053 -0.2737 -0.1020 -0.8288
  826MOL0     H11475  13.851  11.156   0.013  0.4601 -0.2165  2.1137
  826MOL0     H11476  14.050  10.746  -0.024  0.5713 -1.1641  0.5928
  826MOL0     H11477  14.029  10.779  -0.205 -0.3225  1.1177 -0.9731
  826MOL0     H11478  14.274  10.757  -0.095 -0.8633  1.2779  1.3301
  826MOL0     H11479  14.241  10.891  -0.218 -0.0463  2.1028  0.9708
  826MOL0     H11480  14.218  11.050  -0.034 -3.2632 -1.6674 -0.3995
  826MOL0     H11481  14.379  10.971  -0.046  0.0798  0.7581  0.6831
  826MOL0     H11482  14.136  10.901   0.149 -0.5787 -2.9589 -1.3276
  826MOL0     H11483  14.279  10.807   0.138 -3.2488 -1.4239  3.4842
  826MOL0     H11484  14.411  11.010   0.224  0.1391 -1.1546  0.7772
  826MOL0     H11485  14.269  10.962   0.311  0.7968 -1.3214 -0.6868
  826MOL0     H11486  14.309  11.213   0.122 -2.6110  1.7334 -1.9532
  826MOL0     H11487  14.148  11.154   0.170  0.2940 -1.6612 -1.4554
  826MOL0     H11488  14.283  11.339   0.286  2.5680  1.0738  1.2309
  826MOL0     H11489  14.376  11.226   0.366  1.5276  4.6074 -1.2236
  826MOL0     H11490  14.177  11.288   0.513 -0.4824 -1.9789  1.4379
  826MOL0     H11491  14.188  11.116   0.481  2.1271 -0.8602 -2.7661
  826MOL0     H11492  13.828  10.735  -0.097  1.4033  1.5228 -2.1259
  826MOL0     H11493  13.577  10.745  -0.039 -3.8361  2.8987 -3.2178
  826MOL0     H11494  13.343  10.675   0.253 -0.6116 -0.9216  3.2447
  826MOL0     H11495  13.126  10.566   0.284  1.8459 -0.9176  0.7928
  826MOL0     H11496  11.846   9.772   0.793  2.4770 -0.1338  3.9057
  826MOL0     H11497  11.677   9.595   0.752  1.8804  0.6281 -0.0779
  826MOL0     H11498  11.268   9.531   0.489  0.9342 -2.8213  0.0950
  826MOL0     H11499  11.056   9.398   0.444 -0.3674 -2.4470  0.7137
  826MOL0     H11500  10.786   9.123   0.675 -3.5685  0.2594  0.4328
  826MOL0     H11501  10.863   9.209   0.798  0.2036  1.6952 -0.1005
  826MOL0     H11502  10.754   9.429   0.732 -1.9013  0.6290  4.0733
  826MOL0     H11503  10.683   9.318   0.838 -1.9467  2.3059 -1.0426
  826MOL0     H11504  10.502   9.365   0.688 -0.3733  0.6420 -1.0227
  826MOL0     H11505  10.547   9.215   0.640  1.3982  0.1364 -1.2745
  826MOL0     H11506  10.506   9.344   0.448 -0.2142  1.1319  0.1852
  826MOL0     H11507  10.681   9.314   0.437  0.0335 -1.2004  1.6193
  826MOL0     H11508  10.728   9.724   0.490 -0.2212  0.7930  0.1884
  826MOL0     H11509  11.021   9.326   0.858  3.1091 -2.2092  1.2690
  826MOL0     H11510  11.210   9.464   0.908  1.4061  1.2476 -0.3148
  827MOL0     O11511   6.139   2.391  10.164  0.9828  0.1084 -0.2639
  827MOL0     C11512   6.153   2.338  10.275  0.1344 -0.1515  1.5077
  827MOL0     O11513   6.059   2.328  10.376 -0.7595  0.1972  0.5075
  827MOL0     C11514   5.919   2.370  10.362 -0.0375 -0.0199 -0.2708
  827MOL0     C11515   5.860   2.377  10.487  0.0881 -0.4248 -0.5171
  827MOL0     C11516   5.725   2.413  10.501  0.2791  0.2175  0.9365
  827MOL0     C11517   5.645   2.472  10.399 -0.4710  0.6698 -0.0459
  827MOL0     O11518   5.515   2.520  10.419 -0.1565 -0.1771  0.3046
  827MOL0     C11519   5.429   2.508  10.307  0.5523  0.9719 -0.4964
  827MOL0     C11520   5.404   2.652  10.269  0.1662 -0.6783  0.5111
  827MOL0     C11521   5.300   2.660  10.156 -0.7520  0.0080  0.0138
  827MOL0     C11522   5.160   2.710  10.209 -0.0751 -0.3483  0.5154
  827MOL0     C11523   5.055   2.692  10.100  1.4488  0.1005 -0.3649
  827MOL0     C11524   4.922   2.738  10.151  0.0918 -0.9088 -0.2219
  827MOL0     C11525   4.831   2.753  10.023 -0.9635  0.3795 -0.3153
  827MOL0     C11526   4.708   2.819  10.080  0.9602  0.6416 -0.2905
  827MOL0     N11527   4.616   2.830   9.971 -0.4440  0.1531  0.7671
  827MOL0     C11528   4.498   2.763   9.960 -0.0268  0.1178  0.6179
  827MOL0     C11529   4.445   2.829   9.857 -0.6350  0.1813  0.0339
  827MOL0     C11530   4.316   2.801   9.787 -0.1559  0.8091 -0.0274
  827MOL0     C11531   4.358   2.756   9.644 -0.1706  0.0733 -0.2879
  827MOL0     C11532   4.233   2.758   9.548  0.0608 -0.6710  0.3404
  827MOL0     C11533   4.217   2.634   9.466 -0.3787  0.0567 -0.7983
  827MOL0     O11534   4.154   2.517   9.524 -0.7024  0.1240 -0.0145
  827MOL0     C11535   4.216   2.455   9.625  0.4154 -0.2905  0.2658
  827MOL0     C11536   4.334   2.385   9.602 -0.6734 -0.1303  0.2461
  827MOL0     C11537   4.411   2.319   9.702 -0.2019 -0.1898 -0.2076
  827MOL0     C11538   4.535   2.250   9.663  0.5648  0.2523  0.2026
  827MOL0     C11539   4.353   2.327   9.837 -0.4498  0.4664  0.0022
  827MOL0     C11540   4.435   2.290   9.953 -0.1496  0.1051  0.8903
  827MOL0     O11541   4.572   2.326   9.945  0.2414  0.1674  0.3064
  827MOL0     C11542   4.672   2.263  10.017  0.2762  0.5751  0.2456
  827MOL0     C11543   4.664   2.132  10.071  0.6311  0.0987  0.0387
  827MOL0     C11544   4.769   2.066  10.140  0.2776  0.2673  0.4754
  827MOL0     C11545   4.895   2.131  10.156  0.5165  0.5043 -0.8536
  827MOL0     O11546   4.973   2.057  10.245  0.2782  0.3288 -0.2620
  827MOL0     C11547   5.122   2.089  10.261  1.5954  0.2117  0.3349
  827MOL0     C11548   5.176   2.020  10.383  0.4538  0.1406 -1.0727
  827MOL0     C11549   5.295   2.101  10.427  0.5112  0.7428 -0.4974
  827MOL0     C11550   5.366   2.005  10.531 -0.8243  0.4327 -0.2972
  827MOL0     C11551   5.503   2.055  10.573 -0.6426 -0.4726 -0.1942
  827MOL0     C11552   5.587   1.986  10.688 -0.8335 -0.5635  0.1136
  827MOL0     C11553   5.720   2.060  10.695 -0.4629 -1.2033 -0.7541
  827MOL0     C11554   5.833   2.014  10.616 -0.3119 -0.5019  1.1336
  827MOL0    Cl11555   5.990   2.097  10.672  0.1145 -0.1367  0.1872
  827MOL0     C11556   4.918   2.253  10.091  0.2492 -1.2981 -0.0298
  827MOL0     C11557   4.802   2.314  10.021 -0.9941 -0.2950 -0.7017
  827MOL0     O11558   4.387   2.237  10.053  0.2888  0.6901 -0.0924
  827MOL0     C11559   4.227   2.390   9.852  0.1393  0.1656 -0.1775
  827MOL0     C11560   4.168   2.460   9.752 -0.0868 -0.2117  0.1824
  827MOL0     N11561   4.521   2.937   9.811 -0.7621 -0.0858  0.5680
  827MOL0     N11562   4.623   2.931   9.881  0.0423 -0.1577  0.0560
  827MOL0     C11563   5.714   2.483  10.271  0.7705  0.3710  0.0776
  827MOL0     C11564   5.847   2.426  10.257 -0.6401 -0.4056  0.0850
  827MOL0     C11565   6.286   2.290  10.302 -0.1628  1.1351 -0.0001
  827MOL0     C11566   6.385   2.255  10.207  0.3227  0.7324  0.1614
  827MOL0     C11567   6.507   2.215  10.257 -1.8946 -0.5930 -0.3400
  827MOL0     C11568   6.544   2.206  10.393  0.5506  0.0528 -0.2590
  827MOL0     O11569   6.665   2.139  10.407  0.5912 -0.6997  0.8297
  827MOL0     C11570   6.692   2.124  10.545 -0.2845  0.3637 -0.9460
  827MOL0     C11571   6.834   2.047  10.572 -0.3257 -0.4445  0.3484
  827MOL0     C11572   6.842   1.907  10.493  0.5762 -0.9262 -0.3503
  827MOL0     C11573   6.746   1.792  10.537 -1.0649  0.1789 -0.5601
  827MOL0     C11574   6.778   1.764  10.679 -0.1622  1.1169  0.6772
  827MOL0     C11575   6.821   1.753  10.795 -0.5870  0.8235  1.1234
  827MOL0     C11576   6.454   2.257  10.487  0.3648  0.1653  0.4055
  827MOL0     C11577   6.323   2.291  10.442  0.2873 -0.2559  0.0719
  827MOL0     H11578   5.911   2.333  10.572 -0.6470 -1.9422 -0.8356
  827MOL0     H11579   5.682   2.397  10.599  0.5935  2.0987  1.4102
  827MOL0     H11580   5.461   2.446  10.222  0.0435 -0.3052  0.2233
  827MOL0     H11581   5.339   2.455  10.339  0.3691  0.9156 -1.0855
  827MOL0     H11582   5.360   2.697  10.358 -1.1456 -3.6596  1.5067
  827MOL0     H11583   5.495   2.702  10.235 -0.5401  0.0409 -0.3748
  827MOL0     H11584   5.330   2.728  10.076  0.2190 -0.7369 -0.2664
  827MOL0     H11585   5.298   2.556  10.120  0.2670 -0.3783  1.0061
  827MOL0     H11586   5.141   2.649  10.298  1.8199  0.7550  1.7343
  827MOL0     H11587   5.162   2.810  10.253  0.9779 -0.4640  0.7585
  827MOL0     H11588   5.081   2.750  10.011  1.1065 -3.2455 -2.8485
  827MOL0     H11589   5.044   2.587  10.072  2.2390  0.6459 -3.0087
  827MOL0     H11590   4.873   2.667  10.219 -1.9922 -0.1492 -0.8389
  827MOL0     H11591   4.929   2.833  10.205  2.8106 -1.4129  0.4631
  827MOL0     H11592   4.873   2.817   9.945 -1.0208  1.9050  0.8612
  827MOL0     H11593   4.812   2.652   9.983 -2.3960  0.7806 -0.7223
  827MOL0     H11594   4.735   2.911  10.132 -0.4092  0.8315  0.1189
  827MOL0     H11595   4.647   2.770  10.156 -0.5139  2.3577 -0.3119
  827MOL0     H11596   4.444   2.675   9.995 -1.7468  0.4774 -0.9518
  827MOL0     H11597   4.256   2.726   9.840 -1.3566  0.1617 -2.1846
  827MOL0     H11598   4.261   2.896   9.785 -1.1874  0.2299 -1.7716
  827MOL0     H11599   4.412   2.661   9.656  1.0737  0.3263 -2.9754
  827MOL0     H11600   4.430   2.825   9.599 -1.0052  1.6330  0.7023
  827MOL0     H11601   4.256   2.840   9.479  0.5860 -0.7095  0.4655
  827MOL0     H11602   4.139   2.786   9.596 -0.3368 -0.4017 -0.5760
  827MOL0     H11603   4.321   2.605   9.443 -0.9646 -1.4360 -1.7371
  827MOL0     H11604   4.164   2.664   9.375 -1.2371 -1.7181 -0.9306
  827MOL0     H11605   4.359   2.391   9.497  0.1315 -0.8957  0.3777
  827MOL0     H11606   4.595   2.216   9.748  0.8048 -1.3616 -0.5603
  827MOL0     H11607   4.514   2.164   9.598  0.1994  0.7247 -0.3097
  827MOL0     H11608   4.595   2.321   9.605  0.1006  1.6203  1.3337
  827MOL0     H11609   4.569   2.081  10.059  0.1296  0.3592  2.4091
  827MOL0     H11610   4.754   1.969  10.187 -0.6840  1.2644  2.3109
  827MOL0     H11611   5.182   2.073  10.171  2.7624 -1.6269  1.3712
  827MOL0     H11612   5.109   2.195  10.282  0.4815  0.0887  0.3310
  827MOL0     H11613   5.099   2.015  10.461 -0.3119 -0.4331 -1.8455
  827MOL0     H11614   5.205   1.916  10.362  0.0149 -0.2614  0.2244
  827MOL0     H11615   5.264   2.201  10.461  0.4697  1.0670 -1.4422
  827MOL0     H11616   5.367   2.113  10.345  1.0633 -0.0998 -0.1444
  827MOL0     H11617   5.305   1.990  10.620 -2.2890 -1.2873 -1.5296
  827MOL0     H11618   5.380   1.900  10.501 -0.7936 -0.4174  2.3770
  827MOL0     H11619   5.482   2.161  10.592 -0.9169 -0.6402  0.4705
  827MOL0     H11620   5.575   2.063  10.491 -0.0607 -0.7072  0.2871
  827MOL0     H11621   5.540   1.987  10.787  0.7634  1.7849  0.9503
  827MOL0     H11622   5.598   1.881  10.659 -1.2090  0.3705 -3.8835
  827MOL0     H11623   5.746   2.053  10.801 -0.8286  0.7527 -0.4897
  827MOL0     H11624   5.684   2.163  10.684 -0.8739 -1.5086 -2.4558
  827MOL0     H11625   5.826   2.029  10.508  4.8357  2.1826  0.8878
  827MOL0     H11626   5.853   1.909  10.641 -1.5012 -0.6370  1.5936
  827MOL0     H11627   5.017   2.298  10.096 -0.2213 -0.2771  0.6138
  827MOL0     H11628   4.815   2.416   9.986  2.4333  0.5913  2.4918
  827MOL0     H11629   4.178   2.398   9.948 -2.0621  2.9588 -1.4114
  827MOL0     H11630   4.074   2.509   9.772 -1.0094 -2.3150  1.2798
  827MOL0     H11631   5.656   2.533  10.195 -2.7530  0.6597  2.6746
  827MOL0     H11632   5.894   2.432  10.159  0.8301  0.2334  0.7873
  827MOL0     H11633   6.359   2.254  10.102  2.2503 -0.3142 -0.3473
  827MOL0     H11634   6.576   2.178  10.182 -1.8380 -2.8777  0.7701
  827MOL0     H11635   6.684   2.219  10.598  1.8006  0.7950 -1.3311
  827MOL0     H11636   6.615   2.068  10.600  1.2092 -0.9171 -0.0679
  827MOL0     H11637   6.845   2.030  10.680  0.2694 -0.1617  0.3334
  827MOL0     H11638   6.911   2.116  10.536  0.9302 -2.7826 -1.6905
  827MOL0     H11639   6.939   1.859  10.484  0.9812  0.1399 -2.0841
  827MOL0     H11640   6.820   1.926  10.387  1.8674 -0.0735 -0.4827
  827MOL0     H11641   6.770   1.708  10.472  0.9414  0.6334 -0.4735
  827MOL0     H11642   6.646   1.834  10.529 -1.4849 -0.8253 -0.6138
  827MOL0     H11643   6.868   1.743  10.891 -0.9396 -1.6796  1.1112
  827MOL0     H11644   6.472   2.257  10.594  1.4697 -2.0357  0.2809
  827MOL0     H11645   6.259   2.338  10.515 -0.7916 -3.2685  1.2133
  828MOL0     O11646   5.922   2.570   8.390 -0.2706  0.0471 -0.3500
  828MOL0     C11647   5.896   2.579   8.271 -0.4956  0.6053  0.1041
  828MOL0     O11648   5.789   2.633   8.216 -0.3918 -0.5606 -0.3855
  828MOL0     C11649   5.682   2.672   8.297  0.5628  0.2722 -0.7165
  828MOL0     C11650   5.555   2.667   8.232 -0.0744  0.6956 -0.1293
  828MOL0     C11651   5.436   2.691   8.300  0.5205 -0.7148 -0.4897
  828MOL0     C11652   5.444   2.754   8.427  0.0869  0.3084 -0.3434
  828MOL0     O11653   5.327   2.798   8.488  0.4981 -0.3411  0.7317
  828MOL0     C11654   5.308   2.851   8.624  0.3056  0.1816 -0.6698
  828MOL0     C11655   5.212   2.971   8.611  0.9516  0.1027 -0.0772
  828MOL0     C11656   5.073   2.932   8.545  0.3510 -0.1190 -0.1676
  828MOL0     C11657   5.059   2.971   8.391 -0.1183  0.4880 -0.1843
  828MOL0     C11658   4.933   2.910   8.337 -1.2110  1.1485  0.0948
  828MOL0     C11659   4.806   2.976   8.383 -0.2753  1.7775 -0.4546
  828MOL0     C11660   4.684   2.923   8.316  0.7434 -0.2268  0.3154
  828MOL0     C11661   4.547   2.999   8.359 -1.2895  0.4125  0.2097
  828MOL0     N11662   4.441   2.968   8.265 -0.9066  1.2858  0.1519
  828MOL0     C11663   4.393   3.053   8.176 -0.0758 -0.1661 -0.4008
  828MOL0     C11664   4.264   3.009   8.144 -0.0362 -0.4896  0.4041
  828MOL0     C11665   4.166   3.080   8.062 -0.5450  0.5534 -0.3553
  828MOL0     C11666   4.044   3.128   8.136  0.0613 -0.1554  0.6562
  828MOL0     C11667   3.922   3.147   8.054 -0.0810 -0.2637 -0.0238
  828MOL0     C11668   3.936   3.271   7.967  0.2965  0.6282 -0.1788
  828MOL0     O11669   3.810   3.292   7.896  0.0660 -0.3676  0.0292
  828MOL0     C11670   3.711   3.355   7.971 -1.0482 -0.5736  1.1092
  828MOL0     C11671   3.701   3.493   7.996 -0.1275 -0.0575 -0.1386
  828MOL0     C11672   3.598   3.559   8.054  0.6406  0.8575  0.6358
  828MOL0     C11673   3.607   3.706   8.100 -0.1822  0.3432 -0.3656
  828MOL0     C11674   3.490   3.472   8.077  1.0255 -1.6399  0.2323
  828MOL0     C11675   3.363   3.532   8.143  0.2533 -0.6448 -0.7141
  828MOL0     O11676   3.286   3.437   8.205  0.4858 -0.7889 -0.0180
  828MOL0     C11677   3.182   3.484   8.278  0.6335 -0.2997  0.0085
  828MOL0     C11678   3.058   3.503   8.215 -1.0090  0.0968 -0.3469
  828MOL0     C11679   2.949   3.535   8.299 -0.0026  0.2360  0.0744
  828MOL0     C11680   2.961   3.550   8.442  0.0950  0.2196 -0.5137
  828MOL0     O11681   2.855   3.598   8.514 -0.6520  0.1778 -0.1934
  828MOL0     C11682   2.814   3.516   8.622 -0.6939 -0.2022 -0.4560
  828MOL0     C11683   2.677   3.558   8.679  1.0663  0.3343  0.4162
  828MOL0     C11684   2.664   3.496   8.822 -0.0436  0.8597 -0.2094
  828MOL0     C11685   2.516   3.515   8.865 -0.7832 -0.6223 -0.1025
  828MOL0     C11686   2.483   3.472   9.012  0.6763 -0.1413  0.3757
  828MOL0     C11687   2.561   3.539   9.119 -0.4786  0.4337 -0.0288
  828MOL0     C11688   2.531   3.689   9.131 -0.2942  0.5914  0.2464
  828MOL0     C11689   2.563   3.738   9.276 -0.5604 -0.3108  0.8922
  828MOL0    Cl11690   2.488   3.890   9.304 -0.2856  0.1898  0.6613
  828MOL0     C11691   3.090   3.544   8.495  0.4205 -0.4289  0.4324
  828MOL0     C11692   3.193   3.500   8.413 -0.1121 -0.6030 -1.5687
  828MOL0     O11693   3.336   3.653   8.138  0.1582 -0.7088  0.7046
  828MOL0     C11694   3.494   3.334   8.052  0.2674  0.4617  0.3331
  828MOL0     C11695   3.606   3.271   7.999  0.3522 -1.0226  0.4352
  828MOL0     N11696   4.251   2.886   8.212 -0.4349  0.3618  0.6335
  828MOL0     N11697   4.353   2.871   8.285 -0.7179 -0.2783 -0.4563
  828MOL0     C11698   5.576   2.775   8.488 -0.8166  0.0687 -0.0996
  828MOL0     C11699   5.693   2.739   8.422 -0.1552 -0.5477  0.1285
  828MOL0     C11700   6.007   2.530   8.185  0.2183  0.1815 -0.0732
  828MOL0     C11701   6.018   2.598   8.062  0.5812  0.2226  0.2688
  828MOL0     C11702   6.122   2.565   7.972  0.3532 -0.7223  0.1546
  828MOL0     C11703   6.221   2.467   8.002  0.4717  0.4810 -0.8216
  828MOL0     O11704   6.329   2.451   7.915  0.0820 -0.2346  0.2694
  828MOL0     C11705   6.345   2.316   7.872  0.9273  0.1965 -0.3234
  828MOL0     C11706   6.463   2.302   7.780 -0.5324  0.0528 -0.3255
  828MOL0     C11707   6.477   2.159   7.732 -0.4550 -0.6142 -0.6409
  828MOL0     C11708   6.570   2.144   7.615 -0.3660 -0.1187  0.1063
  828MOL0     C11709   6.704   2.195   7.628 -0.5089 -0.1671 -0.0307
  828MOL0     C11710   6.819   2.237   7.649  0.3397  0.0922 -0.0122
  828MOL0     C11711   6.213   2.407   8.132 -0.7511  0.4529 -0.5142
  828MOL0     C11712   6.112   2.438   8.224  0.4916  0.2487  0.6925
  828MOL0     H11713   5.538   2.626   8.133  1.3411 -0.3616  0.0406
  828MOL0     H11714   5.338   2.676   8.257 -0.0596 -1.2188  0.9417
  828MOL0     H11715   5.255   2.776   8.684  0.7456 -1.0829 -1.8019
  828MOL0     H11716   5.395   2.878   8.683 -1.0947  0.2669  1.4530
  828MOL0     H11717   5.191   3.022   8.705 -0.7239 -0.0870 -0.3105
  828MOL0     H11718   5.256   3.042   8.540  1.2547 -0.4480 -0.4549
  828MOL0     H11719   5.056   2.824   8.543  0.8232 -0.3210  2.7290
  828MOL0     H11720   4.989   2.975   8.601 -0.3978 -1.1394 -0.4787
  828MOL0     H11721   5.068   3.077   8.365  1.1389 -0.0592 -2.2032
  828MOL0     H11722   5.139   2.920   8.338 -1.6835 -1.9753 -0.3541
  828MOL0     H11723   4.940   2.913   8.228 -0.0453  2.5577  0.1847
  828MOL0     H11724   4.947   2.805   8.367  2.2402  0.9098 -1.8534
  828MOL0     H11725   4.803   2.943   8.488  0.2856 -0.8224 -1.1936
  828MOL0     H11726   4.804   3.084   8.364  0.8779  2.5800  3.0925
  828MOL0     H11727   4.701   2.936   8.209 -1.7761  0.6677 -0.0546
  828MOL0     H11728   4.670   2.816   8.337 -3.0881  0.1450  0.4269
  828MOL0     H11729   4.562   3.107   8.367 -0.1374  0.2829 -0.0520
  828MOL0     H11730   4.505   2.972   8.457 -4.3814  0.1958 -1.0685
  828MOL0     H11731   4.445   3.142   8.142 -1.6487  0.2169 -1.9256
  828MOL0     H11732   4.211   3.175   8.035 -1.9318  1.8031  1.4419
  828MOL0     H11733   4.139   3.020   7.975  0.4987 -0.1525 -0.1997
  828MOL0     H11734   4.061   3.223   8.189 -0.6262  1.3274 -1.6214
  828MOL0     H11735   4.028   3.062   8.222  0.0053 -0.1441  0.6538
  828MOL0     H11736   3.837   3.158   8.122  0.4511  0.8082  0.4949
  828MOL0     H11737   3.904   3.051   8.005  2.0177 -1.7962  1.9993
  828MOL0     H11738   4.016   3.266   7.893  1.4069 -1.1540  1.0806
  828MOL0     H11739   3.961   3.360   8.027 -0.3299 -0.6407  2.0780
  828MOL0     H11740   3.789   3.554   7.978 -0.6455  0.7879  0.1493
  828MOL0     H11741   3.545   3.771   8.038 -0.7681 -1.2569 -1.5317
  828MOL0     H11742   3.578   3.701   8.205  2.3211  3.9195  0.6890
  828MOL0     H11743   3.712   3.738   8.099 -0.0888  0.0743 -1.7581
  828MOL0     H11744   3.037   3.479   8.111 -0.3333  0.9281 -0.6868
  828MOL0     H11745   2.848   3.545   8.259 -1.1596 -0.6160  2.5646
  828MOL0     H11746   2.797   3.414   8.586  2.5524 -1.1414  0.3712
  828MOL0     H11747   2.892   3.530   8.697 -2.6735  0.1018  1.6691
  828MOL0     H11748   2.687   3.667   8.685  2.5769  0.3416 -1.4862
  828MOL0     H11749   2.600   3.530   8.607  2.4378  0.2838 -1.0909
  828MOL0     H11750   2.746   3.538   8.881 -0.7241  0.8535  0.7662
  828MOL0     H11751   2.686   3.389   8.814  3.0780  1.4443 -0.7907
  828MOL0     H11752   2.501   3.623   8.860  0.9676 -0.2161  1.9479
  828MOL0     H11753   2.447   3.466   8.796  0.0999 -0.9805 -0.7553
  828MOL0     H11754   2.478   3.363   9.019 -2.1909 -0.0465  1.3044
  828MOL0     H11755   2.378   3.503   9.012 -0.1306 -2.5189 -2.0309
  828MOL0     H11756   2.530   3.490   9.212  1.8217  0.1329  0.6362
  828MOL0     H11757   2.668   3.521   9.113 -0.6048  0.0144 -4.2541
  828MOL0     H11758   2.432   3.719   9.097  0.8892  3.8707 -0.7409
  828MOL0     H11759   2.597   3.751   9.070 -2.3147  0.7585 -1.8875
  828MOL0     H11760   2.670   3.736   9.299 -0.2093 -0.4479 -0.6727
  828MOL0     H11761   2.510   3.662   9.334 -2.9988  0.7393  0.1651
  828MOL0     H11762   3.105   3.567   8.600  2.1525 -1.1141  0.3700
  828MOL0     H11763   3.290   3.483   8.458 -0.5987  0.7550  0.0949
  828MOL0     H11764   3.420   3.260   8.081  1.0003  0.3640  2.0786
  828MOL0     H11765   3.610   3.167   7.968 -3.1417 -0.9168 -0.8817
  828MOL0     H11766   5.595   2.831   8.579  1.3652  1.0152 -1.0673
  828MOL0     H11767   5.790   2.768   8.463  0.3944 -0.5310 -1.1203
  828MOL0     H11768   5.943   2.669   8.026 -3.1340 -2.4556  1.9928
  828MOL0     H11769   6.140   2.614   7.877 -2.8316  2.2245  0.8855
  828MOL0     H11770   6.349   2.268   7.970  0.5773  3.3332  1.3489
  828MOL0     H11771   6.250   2.288   7.826  0.6358  1.5552 -0.5913
  828MOL0     H11772   6.549   2.326   7.844 -0.3417 -0.6980 -0.2946
  828MOL0     H11773   6.454   2.363   7.690  2.2618 -1.6842 -1.9040
  828MOL0     H11774   6.389   2.095   7.719  0.1337 -1.7844  0.8266
  828MOL0     H11775   6.529   2.104   7.810  1.7374 -1.3954 -2.5237
  828MOL0     H11776   6.521   2.192   7.531 -0.6831 -2.8961 -1.4369
  828MOL0     H11777   6.571   2.037   7.590 -2.3260  0.4466 -2.9078
  828MOL0     H11778   6.919   2.276   7.657  1.6026 -2.9765  0.3353
  828MOL0     H11779   6.288   2.338   8.168 -2.0009 -0.8528 -0.3135
  828MOL0     H11780   6.105   2.392   8.321  2.3700  0.2733  0.8575
  829MOL0     O11781   9.051   0.876   9.655  0.3176 -0.0206  0.0552
  829MOL0     C11782   9.102   0.786   9.719  0.8740 -0.5552 -1.2891
  829MOL0     O11783   9.050   0.728   9.837  0.4525  0.7220 -0.2064
  829MOL0     C11784   8.937   0.781   9.894  0.1616 -0.3480 -0.3316
  829MOL0     C11785   8.825   0.826   9.826  0.1826  0.5670  0.7811
  829MOL0     C11786   8.722   0.879   9.903 -0.0124 -0.1489 -0.2312
  829MOL0     C11787   8.731   0.885  10.045 -0.4188  0.0639 -0.3349
  829MOL0     O11788   8.631   0.929  10.125 -0.3086 -0.3116  0.3435
  829MOL0     C11789   8.514   0.996  10.072 -0.0301  0.1835  0.7240
  829MOL0     C11790   8.417   1.016  10.188  0.1823 -0.3463 -0.1466
  829MOL0     C11791   8.473   1.087  10.311  0.2111  0.3790 -0.1700
  829MOL0     C11792   8.358   1.088  10.414 -0.0841 -0.0478 -0.6201
  829MOL0     C11793   8.403   1.158  10.551  0.1178  0.7966  0.6489
  829MOL0     C11794   8.277   1.179  10.630 -0.7209  0.2333 -0.6751
  829MOL0     C11795   8.310   1.275  10.754 -0.3269  0.3432  1.0994
  829MOL0     C11796   8.225   1.399  10.747  0.3117  0.1632 -0.3913
  829MOL0     N11797   8.253   1.488  10.856 -0.6382  0.1742 -0.2717
  829MOL0     C11798   8.360   1.575  10.877 -0.6421  0.5766 -0.4875
  829MOL0     C11799   8.341   1.629  11.003  0.4824  0.2073  0.3067
  829MOL0     C11800   8.429   1.719  11.089  0.1199 -0.0446  0.6075
  829MOL0     C11801   8.573   1.745  11.035 -0.2466 -0.1325  0.5860
  829MOL0     C11802   8.662   1.620  11.047  0.2674  1.1528  0.3319
  829MOL0     C11803   8.802   1.658  10.993 -0.2634 -0.6439 -0.2510
  829MOL0     O11804   8.793   1.683  10.849  0.1845 -0.0392  0.2454
  829MOL0     C11805   8.901   1.758  10.795  0.4847 -0.0206 -0.6278
  829MOL0     C11806   8.886   1.857  10.706  0.4764 -0.6841  0.5056
  829MOL0     C11807   8.993   1.939  10.657 -0.4191  1.1657 -1.0602
  829MOL0     C11808   8.946   2.057  10.570  1.1358  0.8889 -0.4594
  829MOL0     C11809   9.123   1.912  10.689 -0.0510 -0.4790  0.8483
  829MOL0     C11810   9.255   1.978  10.635  0.2166  0.7240  0.2465
  829MOL0     O11811   9.370   1.933  10.690 -0.5031 -0.3182  0.4057
  829MOL0     C11812   9.491   1.965  10.644 -0.9880  0.5783 -0.9211
  829MOL0     C11813   9.577   2.024  10.738 -0.4233 -0.3324 -0.4855
  829MOL0     C11814   9.717   2.046  10.707  0.5346 -0.3376  0.5375
  829MOL0     C11815   9.765   2.024  10.580 -0.2483  0.5170  0.2956
  829MOL0     O11816   9.890   2.036  10.524  0.0037  0.1324 -0.1230
  829MOL0     C11817   9.988   2.097  10.602 -0.5031 -1.1483  0.5147
  829MOL0     C11818  10.124   2.076  10.545 -1.2218  0.5033  0.7573
  829MOL0     C11819  10.229   2.110  10.647 -0.8056 -0.5714 -0.1907
  829MOL0     C11820  10.376   2.092  10.598 -0.5867 -0.0734  0.3543
  829MOL0     C11821  10.480   2.102  10.720 -0.0087 -0.0785 -0.8062
  829MOL0     C11822  10.614   2.041  10.663 -0.2005 -0.4361  0.6145
  829MOL0     C11823  10.730   2.042  10.770 -0.3098  0.2884 -0.3039
  829MOL0     C11824  10.861   1.982  10.705 -0.3929  1.1439  0.3883
  829MOL0    Cl11825  10.960   1.923  10.845 -0.1878 -0.0442 -0.4190
  829MOL0     C11826   9.678   1.966  10.480  0.0305  0.6828  0.9612
  829MOL0     C11827   9.546   1.937  10.518 -0.7807  0.2396 -0.1521
  829MOL0     O11828   9.247   2.064  10.545  0.6314  0.6061  1.0683
  829MOL0     C11829   9.143   1.809  10.791  0.1821 -1.1924 -0.1694
  829MOL0     C11830   9.034   1.742  10.849 -0.0297  0.3145  0.2765
  829MOL0     N11831   8.218   1.579  11.053 -0.4116 -0.0639  0.1439
  829MOL0     N11832   8.169   1.500  10.961 -0.4007 -0.2643  0.0059
  829MOL0     C11833   8.843   0.845  10.109  0.2746  0.1173 -0.1964
  829MOL0     C11834   8.946   0.784  10.033  0.5791 -0.4868 -0.5796
  829MOL0     C11835   9.238   0.748   9.680  0.1783 -0.0043 -0.0108
  829MOL0     C11836   9.293   0.781   9.557 -0.1383  0.6967 -0.9209
  829MOL0     C11837   9.431   0.753   9.540  1.1957 -0.1651 -0.9170
  829MOL0     C11838   9.510   0.694   9.634 -0.3192  0.3698 -0.9132
  829MOL0     O11839   9.637   0.672   9.612 -0.2985 -0.1841 -0.2163
  829MOL0     C11840   9.656   0.552   9.532  0.0680 -0.8413  0.0540
  829MOL0     C11841   9.794   0.522   9.497 -0.0546  0.4302  0.3140
  829MOL0     C11842   9.869   0.633   9.413  0.1571  0.4553 -0.5012
  829MOL0     C11843   9.854   0.622   9.257 -0.4463  0.0398  0.7939
  829MOL0     C11844   9.832   0.499   9.186 -0.6616  0.4397  1.0468
  829MOL0     C11845   9.818   0.393   9.118  0.0936  0.3449 -0.0074
  829MOL0     C11846   9.449   0.663   9.753 -0.0426  0.4848 -0.6158
  829MOL0     C11847   9.317   0.685   9.778 -0.2746 -1.1955 -0.6588
  829MOL0     H11848   8.809   0.818   9.719 -0.7657 -0.0913  0.9533
  829MOL0     H11849   8.635   0.909   9.846 -0.1177  1.1999  0.5894
  829MOL0     H11850   8.547   1.090  10.025  1.0358 -1.3778 -1.8718
  829MOL0     H11851   8.473   0.927   9.998  0.5517 -0.3756  0.9066
  829MOL0     H11852   8.334   1.071  10.141  2.5187  0.9990 -3.0248
  829MOL0     H11853   8.384   0.915  10.215  1.6711 -1.5135 -2.3831
  829MOL0     H11854   8.560   1.039  10.355 -0.0549  0.5657  0.5855
  829MOL0     H11855   8.507   1.191  10.303  0.6252  0.4459  1.9406
  829MOL0     H11856   8.278   1.147  10.368  1.7063  1.8688 -1.4254
  829MOL0     H11857   8.313   0.989  10.433 -1.5695  0.5648 -0.7945
  829MOL0     H11858   8.477   1.091  10.595  1.3047  0.6741 -1.4031
  829MOL0     H11859   8.449   1.254  10.527  1.9532 -0.1364  0.2365
  829MOL0     H11860   8.196   1.212  10.565 -0.4437 -2.2669 -2.4564
  829MOL0     H11861   8.251   1.083  10.676 -0.9229  0.1055 -1.0488
  829MOL0     H11862   8.324   1.225  10.850 -0.4765  0.1384  1.0143
  829MOL0     H11863   8.415   1.305  10.745  0.3888 -2.0710  0.8052
  829MOL0     H11864   8.123   1.364  10.761  0.6360  0.0707  2.3622
  829MOL0     H11865   8.229   1.441  10.647 -0.5708 -2.1871 -1.5020
  829MOL0     H11866   8.446   1.580  10.812  2.6664 -3.5508  2.9735
  829MOL0     H11867   8.383   1.815  11.115 -2.1474  0.3134 -3.7834
  829MOL0     H11868   8.434   1.654  11.177  3.8089 -2.6059 -1.2293
  829MOL0     H11869   8.611   1.821  11.103  0.4278  1.1911 -1.1824
  829MOL0     H11870   8.575   1.784  10.933 -1.0305 -1.1217  0.1718
  829MOL0     H11871   8.634   1.528  10.995  1.1002  1.3180 -0.4428
  829MOL0     H11872   8.683   1.595  11.151 -0.0122  0.7550  0.2922
  829MOL0     H11873   8.876   1.585  11.025 -1.3431 -1.4795  0.3917
  829MOL0     H11874   8.836   1.748  11.045  0.2245 -1.0172  0.0807
  829MOL0     H11875   8.780   1.877  10.693  0.6491 -0.5430 -0.9100
  829MOL0     H11876   9.000   2.148  10.597 -0.4401  1.4914  0.8069
  829MOL0     H11877   8.948   2.027  10.464 -2.5996  0.9407 -0.6893
  829MOL0     H11878   8.841   2.079  10.595  0.1995 -3.0419 -0.2350
  829MOL0     H11879   9.535   2.051  10.834 -1.9890 -0.0109 -1.2230
  829MOL0     H11880   9.786   2.070  10.787 -0.7098  4.5613  0.4820
  829MOL0     H11881   9.974   2.205  10.618 -3.7483 -1.2181 -0.9216
  829MOL0     H11882   9.984   2.049  10.700 -1.8395  2.2280  2.3130
  829MOL0     H11883  10.141   1.972  10.516 -2.6138  1.0652 -2.4299
  829MOL0     H11884  10.129   2.140  10.456 -3.7463  0.6228  0.6354
  829MOL0     H11885  10.224   2.039  10.730 -0.9302 -0.6950 -0.3027
  829MOL0     H11886  10.219   2.212  10.687  1.6043 -0.7841  1.1753
  829MOL0     H11887  10.378   1.988  10.567 -0.9052  0.3644 -1.2193
  829MOL0     H11888  10.396   2.151  10.508 -1.3030  0.2299  0.3924
  829MOL0     H11889  10.454   2.055  10.815 -1.9063  0.4318 -1.0214
  829MOL0     H11890  10.492   2.208  10.745  0.7664 -0.4623  0.5320
  829MOL0     H11891  10.600   1.939  10.626  2.3533 -1.2174  1.5409
  829MOL0     H11892  10.649   2.083  10.568 -2.1992  1.0113  0.4706
  829MOL0     H11893  10.693   1.991  10.860 -1.3295 -0.3886 -1.0824
  829MOL0     H11894  10.746   2.147  10.795  2.4966 -0.7425  2.8938
  829MOL0     H11895  10.919   2.053  10.646  1.4866 -0.8550 -0.2847
  829MOL0     H11896  10.837   1.886  10.659 -0.9383  2.3860 -2.0907
  829MOL0     H11897   9.713   1.931  10.384  1.5708  0.1396  1.6965
  829MOL0     H11898   9.488   1.897  10.436 -0.7404  1.8846 -1.0182
  829MOL0     H11899   9.243   1.785  10.824  0.4122 -5.3623 -3.1533
  829MOL0     H11900   9.059   1.668  10.924  1.5479  2.8766  2.5003
  829MOL0     H11901   8.850   0.840  10.217  0.6563  0.1583 -0.2201
  829MOL0     H11902   9.024   0.736  10.092 -1.0536 -0.9678  1.2813
  829MOL0     H11903   9.235   0.813   9.471 -1.2155 -3.0504 -1.7895
  829MOL0     H11904   9.480   0.783   9.448 -0.3710 -0.6882 -1.9606
  829MOL0     H11905   9.606   0.482   9.600 -1.3173  0.9624  0.9940
  829MOL0     H11906   9.599   0.560   9.439 -1.8399 -0.2549  1.2055
  829MOL0     H11907   9.797   0.423   9.451 -0.5669  0.5622 -0.0136
  829MOL0     H11908   9.853   0.520   9.589  1.7689  0.4469 -0.8058
  829MOL0     H11909   9.975   0.623   9.439  0.0731  2.2811  0.7954
  829MOL0     H11910   9.845   0.736   9.442  1.9219  0.7650  0.0452
  829MOL0     H11911   9.943   0.660   9.208 -0.1769 -2.1022 -0.5099
  829MOL0     H11912   9.776   0.691   9.224 -0.1282 -0.1727 -0.4216
  829MOL0     H11913   9.832   0.302   9.062 -0.5940 -2.6969  4.2899
  829MOL0     H11914   9.515   0.631   9.833 -1.8848 -1.7510  0.1184
  829MOL0     H11915   9.282   0.663   9.878  0.0134  1.8677  0.2364
  830MOL0     O11916   0.528   3.088   8.927  0.2374 -0.2126 -0.4656
  830MOL0     C11917   0.425   3.064   8.990 -0.0264  0.2204  0.6509
  830MOL0     O11918   0.298   3.059   8.937 -0.1493  0.5948  0.3953
  830MOL0     C11919   0.283   3.057   8.803  0.3783 -0.2800  0.1634
  830MOL0     C11920   0.264   3.174   8.732  0.2147 -0.7699  0.0617
  830MOL0     C11921   0.223   3.174   8.598  0.6021 -0.6961 -0.2971
  830MOL0     C11922   0.193   3.049   8.529 -1.2946 -1.1999 -0.1695
  830MOL0     O11923   0.128   3.055   8.411 -0.7349  0.5349 -0.2733
  830MOL0     C11924   0.047   2.949   8.370 -0.4274  0.0263  0.7248
  830MOL0     C11925  -0.077   2.986   8.292  0.3561 -0.5568 -0.1977
  830MOL0     C11926  -0.185   2.878   8.285  0.9652 -0.1884 -0.2036
  830MOL0     C11927  -0.297   2.913   8.185 -0.1661 -0.4859 -0.6687
  830MOL0     C11928  -0.419   2.817   8.190 -0.6367 -0.8497 -0.2980
  830MOL0     C11929  -0.487   2.823   8.339  0.7427  0.2764 -0.0747
  830MOL0     C11930  -0.626   2.773   8.325 -0.0136 -0.3155  0.0995
  830MOL0     C11931  -0.708   2.754   8.457 -0.0819  0.2181  0.2870
  830MOL0     N11932  -0.834   2.689   8.429  0.7536 -0.3152  0.8170
  830MOL0     C11933  -0.885   2.566   8.465 -0.2029  0.6982 -0.4311
  830MOL0     C11934  -1.012   2.562   8.415 -0.6211  0.1173 -0.6921
  830MOL0     C11935  -1.108   2.458   8.423  0.5571  0.4035 -0.6071
  830MOL0     C11936  -1.211   2.470   8.530 -0.1579  0.4024  0.5809
  830MOL0     C11937  -1.328   2.562   8.485 -0.0978  0.8233  0.9998
  830MOL0     C11938  -1.468   2.538   8.538  0.2038 -0.6878 -0.0219
  830MOL0     O11939  -1.522   2.433   8.466 -0.3243 -0.0947 -0.2745
  830MOL0     C11940  -1.595   2.447   8.355 -0.5734 -0.5805 -0.3886
  830MOL0     C11941  -1.629   2.337   8.285 -0.2058 -0.4699  1.0599
  830MOL0     C11942  -1.711   2.341   8.174  0.0773  0.4982 -0.7713
  830MOL0     C11943  -1.757   2.210   8.117 -0.4514  0.2430 -0.7945
  830MOL0     C11944  -1.747   2.469   8.119 -0.3905  0.8068 -0.0118
  830MOL0     C11945  -1.792   2.485   7.985  0.7730 -0.3441 -0.7225
  830MOL0     O11946  -1.892   2.583   7.974 -0.2798 -0.1012 -0.8933
  830MOL0     C11947  -1.957   2.588   7.863  0.4331 -0.3681 -0.4597
  830MOL0     C11948  -2.071   2.505   7.854  0.3817 -0.1223 -0.6338
  830MOL0     C11949  -2.162   2.517   7.748 -0.7459  0.4180 -0.8045
  830MOL0     C11950  -2.132   2.590   7.636  0.0495  0.3613 -0.4501
  830MOL0     O11951  -2.196   2.604   7.508 -0.4600  0.2073  0.0240
  830MOL0     C11952  -2.324   2.548   7.500 -0.9097  0.4997  0.4792
  830MOL0     C11953  -2.351   2.539   7.346 -0.2203 -0.1269 -0.2922
  830MOL0     C11954  -2.332   2.673   7.285  0.9826 -0.5954  0.8576
  830MOL0     C11955  -2.379   2.675   7.133 -1.1963  0.6765 -0.4645
  830MOL0     C11956  -2.400   2.823   7.078 -1.5774 -0.3162  0.4168
  830MOL0     C11957  -2.465   2.822   6.938 -0.0519  0.1472  0.0500
  830MOL0     C11958  -2.478   2.967   6.881 -0.7295 -0.8432 -0.8239
  830MOL0     C11959  -2.572   2.984   6.761 -0.5137  0.4406  0.0047
  830MOL0    Cl11960  -2.590   3.146   6.710  0.6040  0.6030  0.3666
  830MOL0     C11961  -2.009   2.670   7.648  0.0084 -0.6138  0.2030
  830MOL0     C11962  -1.927   2.680   7.763  0.4348 -0.6303 -0.2267
  830MOL0     O11963  -1.756   2.413   7.899 -0.4654 -0.3004 -0.0395
  830MOL0     C11964  -1.706   2.588   8.187  0.3312  0.3406  0.3220
  830MOL0     C11965  -1.634   2.569   8.302 -0.8519  1.0495 -0.4738
  830MOL0     N11966  -1.035   2.680   8.353 -0.8199  0.2633 -0.4642
  830MOL0     N11967  -0.935   2.757   8.372 -0.2834  1.4534  0.0551
  830MOL0     C11968   0.230   2.928   8.604  0.2212 -0.5543 -0.2580
  830MOL0     C11969   0.280   2.939   8.729 -0.3393 -0.8144 -0.7815
  830MOL0     C11970   0.448   3.029   9.139  1.3414 -0.7618  0.0289
  830MOL0     C11971   0.339   3.017   9.231  0.0286  0.2001 -0.0840
  830MOL0     C11972   0.361   2.981   9.365  1.6502 -0.3033 -0.6162
  830MOL0     C11973   0.493   2.964   9.414 -0.5498  0.4371 -0.6634
  830MOL0     O11974   0.519   2.927   9.548 -0.0837 -0.1389 -0.3095
  830MOL0     C11975   0.639   2.951   9.628  0.1149  0.5870 -0.0303
  830MOL0     C11976   0.608   3.061   9.733  0.5806  0.4496 -0.0016
  830MOL0     C11977   0.720   3.067   9.841  0.6499  0.5434  0.9547
  830MOL0     C11978   0.658   3.039   9.979  0.5712 -0.0985  0.7017
  830MOL0     C11979   0.765   3.054  10.081  0.0361  0.2502  1.2294
  830MOL0     C11980   0.850   3.097  10.153  0.1508  0.1889 -0.8285
  830MOL0     C11981   0.602   2.976   9.325 -0.0228 -0.3997 -0.4910
  830MOL0     C11982   0.582   3.010   9.194  0.1860 -0.3297  0.0269
  830MOL0     H11983   0.290   3.263   8.788  0.6373 -0.2025 -0.9993
  830MOL0     H11984   0.214   3.263   8.537  0.0001  0.1386  0.9620
  830MOL0     H11985   0.105   2.895   8.295 -2.2872 -0.0361 -0.7429
  830MOL0     H11986   0.027   2.874   8.447  0.5044 -1.4071 -0.3916
  830MOL0     H11987  -0.119   3.078   8.334  1.0071  0.0624 -0.8903
  830MOL0     H11988  -0.046   3.020   8.193 -0.0199 -1.0876 -0.5021
  830MOL0     H11989  -0.149   2.781   8.250  0.2156 -0.3505 -0.5278
  830MOL0     H11990  -0.226   2.864   8.385 -2.9967 -0.0256 -1.6513
  830MOL0     H11991  -0.343   3.007   8.217 -4.3128 -1.5995 -2.5701
  830MOL0     H11992  -0.269   2.936   8.082 -0.7609 -0.5746 -0.8548
  830MOL0     H11993  -0.492   2.855   8.118 -0.8912 -0.6084  0.0860
  830MOL0     H11994  -0.394   2.712   8.169 -0.1945 -0.8555  0.2457
  830MOL0     H11995  -0.421   2.762   8.402  2.7284 -1.8382 -3.8246
  830MOL0     H11996  -0.501   2.924   8.377 -0.8772  0.0594  0.0072
  830MOL0     H11997  -0.673   2.850   8.263  1.3813  1.1635  0.8255
  830MOL0     H11998  -0.623   2.679   8.269 -0.7833 -1.1913  1.4738
  830MOL0     H11999  -0.724   2.852   8.503 -3.3134 -1.0008  2.0976
  830MOL0     H12000  -0.655   2.682   8.520  0.3381 -2.0651 -2.4944
  830MOL0     H12001  -0.839   2.500   8.537 -1.6351 -2.4007 -2.1453
  830MOL0     H12002  -1.153   2.458   8.323  1.4818  1.2211 -1.0366
  830MOL0     H12003  -1.052   2.365   8.436 -1.2062 -0.9129 -1.8923
  830MOL0     H12004  -1.174   2.503   8.627 -0.4617  1.3875  0.3847
  830MOL0     H12005  -1.248   2.369   8.546 -2.6641  1.0811 -0.5195
  830MOL0     H12006  -1.340   2.553   8.377 -2.7386 -0.6855  1.3335
  830MOL0     H12007  -1.291   2.664   8.497  0.4536  0.8761 -0.8022
  830MOL0     H12008  -1.525   2.630   8.525  0.3250 -0.9031 -2.6184
  830MOL0     H12009  -1.468   2.514   8.644 -4.7104 -0.4185  0.2765
  830MOL0     H12010  -1.597   2.240   8.320  0.3007 -0.4371  0.6951
  830MOL0     H12011  -1.817   2.161   8.194 -1.6153  1.2816 -0.9963
  830MOL0     H12012  -1.820   2.212   8.028 -2.5913 -0.7951  0.6335
  830MOL0     H12013  -1.670   2.152   8.085 -3.1780 -5.1132  0.4205
  830MOL0     H12014  -2.102   2.447   7.940  1.0452  0.4398 -0.0049
  830MOL0     H12015  -2.257   2.465   7.752 -0.8589  0.6786  0.2258
  830MOL0     H12016  -2.322   2.445   7.537 -1.3979 -0.0676 -0.9934
  830MOL0     H12017  -2.392   2.601   7.568  0.2610  0.2620  1.8835
  830MOL0     H12018  -2.284   2.463   7.305  2.0344 -0.1630  3.0526
  830MOL0     H12019  -2.447   2.498   7.315 -0.5810  1.4062 -1.3605
  830MOL0     H12020  -2.231   2.715   7.285  0.2906  1.2471 -0.6290
  830MOL0     H12021  -2.404   2.733   7.341  2.0343  0.4288  1.1607
  830MOL0     H12022  -2.311   2.619   7.068 -1.1766 -1.2007  1.0552
  830MOL0     H12023  -2.472   2.618   7.129 -0.9722  0.1538  1.0095
  830MOL0     H12024  -2.309   2.882   7.065  0.2580 -2.1855  3.5418
  830MOL0     H12025  -2.475   2.873   7.141 -3.6168 -0.8085 -1.4861
  830MOL0     H12026  -2.416   2.752   6.870 -1.2404  0.2396 -0.9312
  830MOL0     H12027  -2.566   2.781   6.941 -0.4370  0.9232 -1.4058
  830MOL0     H12028  -2.383   3.011   6.850 -2.3569  2.8933 -1.0049
  830MOL0     H12029  -2.529   3.022   6.960 -2.0658 -1.6639 -1.0706
  830MOL0     H12030  -2.668   2.947   6.799  1.3059 -0.9865  3.6989
  830MOL0     H12031  -2.533   2.929   6.675  2.1652  1.3778  0.5382
  830MOL0     H12032  -1.980   2.725   7.559 -0.6084  1.2669  1.0947
  830MOL0     H12033  -1.842   2.743   7.789  0.6741 -0.6395 -0.9678
  830MOL0     H12034  -1.718   2.685   8.140 -1.8253 -1.3919 -3.0642
  830MOL0     H12035  -1.613   2.664   8.351 -0.6146  0.4882  0.5235
  830MOL0     H12036   0.210   2.831   8.561  1.3785 -0.0963 -1.9433
  830MOL0     H12037   0.318   2.853   8.782  2.5823 -0.6211 -2.3227
  830MOL0     H12038   0.236   3.026   9.198  0.7986 -1.4440 -3.3119
  830MOL0     H12039   0.274   2.976   9.430  2.2445 -3.9125  0.0940
  830MOL0     H12040   0.657   2.851   9.667 -2.9669 -0.5503 -1.1897
  830MOL0     H12041   0.715   2.992   9.561  1.1711  2.6624  2.2750
  830MOL0     H12042   0.514   3.026   9.776  0.6102  0.0544 -0.2499
  830MOL0     H12043   0.594   3.157   9.683 -0.1812 -0.1197 -0.9119
  830MOL0     H12044   0.750   3.173   9.842  1.4967  0.4250 -1.8682
  830MOL0     H12045   0.805   3.000   9.830  1.0638  1.1725  0.1358
  830MOL0     H12046   0.620   2.937   9.992 -1.7786  0.7150  0.6823
  830MOL0     H12047   0.577   3.111   9.991 -0.1919 -0.7640 -0.2942
  830MOL0     H12048   0.905   3.145  10.232 -4.8943 -0.8220  3.9530
  830MOL0     H12049   0.701   2.946   9.359 -1.1339 -2.2354  1.3252
  830MOL0     H12050   0.665   3.014   9.124 -1.2250  0.0400 -1.6943
  831MOL0     O12051   8.874   8.817  10.733  0.2970  0.1678  0.0594
  831MOL0     C12052   8.900   8.701  10.766  0.0636 -0.1674  0.0074
  831MOL0     O12053   8.808   8.597  10.776  0.1837 -0.4060  0.2938
  831MOL0     C12054   8.686   8.639  10.732  0.4358  0.0568 -0.3087
  831MOL0     C12055   8.660   8.660  10.595 -0.5141 -0.4638  0.2608
  831MOL0     C12056   8.534   8.708  10.547  0.0611  0.4144  0.2857
  831MOL0     C12057   8.423   8.726  10.634  0.4957 -0.1530  0.1619
  831MOL0     O12058   8.294   8.755  10.610 -0.2688 -0.3565  0.6984
  831MOL0     C12059   8.239   8.727  10.484 -0.7338  0.4730 -0.0454
  831MOL0     C12060   8.092   8.748  10.467 -0.3938  0.7687  0.5122
  831MOL0     C12061   8.052   8.879  10.407 -0.5743  0.3749  0.3107
  831MOL0     C12062   8.055   8.868  10.261 -0.3681 -0.6596 -0.2127
  831MOL0     C12063   8.020   8.989  10.171  0.4165  0.0698 -0.7144
  831MOL0     C12064   7.881   9.063  10.199 -0.6991 -0.3917 -0.0144
  831MOL0     C12065   7.755   8.982  10.167  0.0985 -0.0016 -0.3332
  831MOL0     C12066   7.642   9.077  10.110  0.3082  0.0023 -0.7427
  831MOL0     N12067   7.515   9.007  10.112 -0.2384  0.6328  0.0337
  831MOL0     C12068   7.416   8.998  10.204  0.3645  0.3718  1.0248
  831MOL0     C12069   7.323   8.910  10.156  0.1448  0.2780  0.2517
  831MOL0     C12070   7.210   8.858  10.233  0.0713  0.3580 -0.3731
  831MOL0     C12071   7.105   8.771  10.140 -1.2484 -0.4106  0.0912
  831MOL0     C12072   6.985   8.754  10.225 -0.2517 -0.0736  0.5950
  831MOL0     C12073   7.000   8.639  10.331  0.0556 -0.0576  0.4303
  831MOL0     O12074   6.878   8.627  10.412 -0.1940 -0.2860  0.0867
  831MOL0     C12075   6.846   8.495  10.445  0.8448 -0.3261 -1.6829
  831MOL0     C12076   6.920   8.429  10.541 -0.3814  0.1712 -0.0135
  831MOL0     C12077   6.889   8.297  10.580 -0.3052  0.3558 -0.3942
  831MOL0     C12078   6.990   8.228  10.670  0.1489 -0.4837  0.0089
  831MOL0     C12079   6.769   8.243  10.542  0.7173 -0.4437 -0.0342
  831MOL0     C12080   6.722   8.112  10.590  0.7954 -0.5989  0.5617
  831MOL0     O12081   6.610   8.049  10.518 -0.3950 -0.8147  0.5081
  831MOL0     C12082   6.541   7.933  10.539  0.0747 -0.5218  0.4323
  831MOL0     C12083   6.571   7.827  10.630 -0.1565  0.0740  0.3494
  831MOL0     C12084   6.477   7.722  10.643 -0.1523 -0.2693  1.2019
  831MOL0     C12085   6.361   7.718  10.567  0.0901 -0.4546  0.1491
  831MOL0     O12086   6.258   7.625  10.581 -0.7991 -0.2110  0.5519
  831MOL0     C12087   6.284   7.498  10.638 -0.3874  0.5455  0.1985
  831MOL0     C12088   6.357   7.392  10.550 -0.3352  0.1066  0.0633
  831MOL0     C12089   6.279   7.364  10.425 -0.1018  0.2684  0.2012
  831MOL0     C12090   6.340   7.252  10.345  0.7216  0.6558 -0.2996
  831MOL0     C12091   6.259   7.223  10.216  0.4375 -0.4502 -0.7635
  831MOL0     C12092   6.111   7.186  10.245 -0.0697 -0.0670  0.7094
  831MOL0     C12093   6.031   7.181  10.113 -0.0727 -1.0504 -0.3499
  831MOL0     C12094   6.067   7.069  10.006 -0.3968  0.1993  0.5425
  831MOL0    Cl12095   5.981   7.106   9.863 -0.2204 -0.2566  0.0098
  831MOL0     C12096   6.329   7.823  10.494 -0.0458 -0.2211  0.9851
  831MOL0     C12097   6.413   7.934  10.469  0.9071  0.0837  0.3481
  831MOL0     O12098   6.791   8.042  10.666  0.4942 -0.3261  0.1198
  831MOL0     C12099   6.691   8.307  10.447 -0.3113 -0.0824  0.1429
  831MOL0     C12100   6.730   8.431  10.395 -0.8851  0.1902 -0.0840
  831MOL0     N12101   7.365   8.870  10.025  0.4332 -0.1121  0.2642
  831MOL0     N12102   7.478   8.924  10.009  0.0056 -0.2167 -0.3866
  831MOL0     C12103   8.452   8.713  10.772 -0.4824  1.0376 -0.1272
  831MOL0     C12104   8.578   8.668  10.821 -0.3034 -0.6848  0.2658
  831MOL0     C12105   9.031   8.660  10.805 -0.9446 -0.5190  0.5199
  831MOL0     C12106   9.126   8.766  10.785  0.2107  0.1375 -1.0405
  831MOL0     C12107   9.262   8.737  10.809 -0.5596  0.1727  0.7298
  831MOL0     C12108   9.318   8.614  10.843  0.7272 -0.8830  0.4057
  831MOL0     O12109   9.452   8.623  10.863  0.0008 -0.6459 -0.3980
  831MOL0     C12110   9.513   8.522  10.945 -0.1129  0.0734  0.4776
  831MOL0     C12111   9.661   8.503  10.894  0.4311  0.4233 -0.2815
  831MOL0     C12112   9.748   8.578  10.994 -0.4910 -0.1500  0.2159
  831MOL0     C12113   9.821   8.696  10.934  0.4953 -0.3084 -0.0387
  831MOL0     C12114   9.907   8.657  10.831  0.8751 -0.2298  0.2440
  831MOL0     C12115   9.964   8.645  10.727  0.1155  0.2205 -0.2976
  831MOL0     C12116   9.221   8.516  10.869 -0.2544  0.2409 -0.2928
  831MOL0     C12117   9.085   8.532  10.837 -0.2566 -0.0955  0.8724
  831MOL0     H12118   8.740   8.639  10.524  0.0738  1.5664  0.2512
  831MOL0     H12119   8.519   8.729  10.441 -0.0479 -3.4653 -0.6362
  831MOL0     H12120   8.290   8.787  10.409 -0.5794  2.1701  1.3443
  831MOL0     H12121   8.257   8.621  10.467 -1.5717 -0.5916  4.3279
  831MOL0     H12122   8.052   8.676  10.394  0.8196  1.3325 -0.7725
  831MOL0     H12123   8.039   8.724  10.559  0.3528  1.4336  1.1202
  831MOL0     H12124   7.947   8.893  10.436 -0.7575 -1.5048  0.6806
  831MOL0     H12125   8.125   8.956  10.433  0.1483  0.1257 -0.9051
  831MOL0     H12126   8.153   8.831  10.229  0.5744  2.7968 -1.9048
  831MOL0     H12127   7.986   8.790  10.227 -1.1806 -1.0939  2.2463
  831MOL0     H12128   8.105   9.056  10.190  1.4985 -1.1268 -1.2391
  831MOL0     H12129   8.034   8.956  10.068 -0.2306 -3.2281  0.1557
  831MOL0     H12130   7.867   9.101  10.301  1.8210  3.1441 -0.8036
  831MOL0     H12131   7.900   9.153  10.141  0.0516  0.6726  1.7891
  831MOL0     H12132   7.781   8.912  10.088 -0.2762  0.9595 -1.3387
  831MOL0     H12133   7.725   8.931  10.259 -0.7050  3.4541  1.5298
  831MOL0     H12134   7.667   9.116  10.011  1.3400  1.6778  0.1363
  831MOL0     H12135   7.630   9.165  10.174  2.0261 -0.1420 -0.1704
  831MOL0     H12136   7.412   9.045  10.301 -2.6697  1.3012  0.5544
  831MOL0     H12137   7.244   8.790  10.312  0.3202 -0.2552 -0.9962
  831MOL0     H12138   7.162   8.948  10.272 -0.0705 -0.4547  1.4106
  831MOL0     H12139   7.150   8.676  10.113  0.1146 -0.3416  1.9100
  831MOL0     H12140   7.084   8.822  10.046  0.0774 -1.6196 -0.8872
  831MOL0     H12141   6.907   8.724  10.155  2.0219  0.1938 -2.2724
  831MOL0     H12142   6.958   8.848  10.273  1.1359  0.6250  0.0731
  831MOL0     H12143   7.079   8.668  10.399  0.3657  3.3204 -1.1683
  831MOL0     H12144   7.022   8.544  10.282  0.8675 -0.6495  1.8898
  831MOL0     H12145   7.000   8.483  10.591 -1.7011  1.1663  1.0987
  831MOL0     H12146   7.081   8.288  10.669 -0.2375  0.1297  0.5383
  831MOL0     H12147   6.956   8.201  10.770 -0.6497 -0.4847 -0.2478
  831MOL0     H12148   7.017   8.131  10.628 -1.3721 -1.4580  1.1558
  831MOL0     H12149   6.659   7.825  10.694  1.2012 -0.9378 -1.4597
  831MOL0     H12150   6.505   7.642  10.712 -0.3220  0.2322  1.8574
  831MOL0     H12151   6.348   7.499  10.727  1.3481  0.0304 -0.9821
  831MOL0     H12152   6.184   7.456  10.653 -0.4886  0.8607  0.4168
  831MOL0     H12153   6.461   7.425  10.537 -0.7369  1.7953  0.8031
  831MOL0     H12154   6.358   7.298  10.606  0.9765  0.4773  0.6985
  831MOL0     H12155   6.281   7.453  10.362 -0.4882  1.2200  1.4903
  831MOL0     H12156   6.174   7.349  10.453 -1.2613  1.8490 -2.8882
  831MOL0     H12157   6.445   7.277  10.328  1.7984 -0.8359  3.2620
  831MOL0     H12158   6.343   7.162  10.407  0.0609  0.1243 -1.0234
  831MOL0     H12159   6.292   7.130  10.169  1.4653 -2.5369  3.5094
  831MOL0     H12160   6.282   7.308  10.152  2.3076 -0.3522 -0.0295
  831MOL0     H12161   6.105   7.091  10.299  3.8866 -0.5201  0.6779
  831MOL0     H12162   6.071   7.269  10.303  0.5503 -0.2362  1.3989
  831MOL0     H12163   6.020   7.280  10.069 -0.3124 -1.4516 -1.1967
  831MOL0     H12164   5.929   7.157  10.145 -0.4550  0.6173 -0.2111
  831MOL0     H12165   6.037   6.972  10.047  1.5376 -1.1027 -0.9624
  831MOL0     H12166   6.173   7.073   9.978 -1.1023  0.5721 -2.3518
  831MOL0     H12167   6.240   7.821  10.432  0.3302 -2.5242  0.4115
  831MOL0     H12168   6.382   8.018  10.408  0.6711  1.8433  2.7303
  831MOL0     H12169   6.596   8.266  10.414 -0.8097  0.0790  1.3261
  831MOL0     H12170   6.679   8.490  10.320  2.0105  1.7232 -1.0097
  831MOL0     H12171   8.374   8.730  10.845 -1.6917 -2.4349 -0.4163
  831MOL0     H12172   8.604   8.672  10.926 -0.5887 -0.9829  0.3509
  831MOL0     H12173   9.112   8.867  10.746 -1.5524  1.0364  1.6698
  831MOL0     H12174   9.338   8.812  10.788 -0.2620 -0.5745 -1.0907
  831MOL0     H12175   9.499   8.546  11.050  2.7514 -2.9963  1.7717
  831MOL0     H12176   9.469   8.425  10.919  2.1740 -0.1659 -3.3214
  831MOL0     H12177   9.666   8.544  10.793  5.6291 -2.0674 -1.3598
  831MOL0     H12178   9.672   8.395  10.907 -2.1781  0.0497 -0.6247
  831MOL0     H12179   9.827   8.507  11.023  3.8250  3.5642 -1.2745
  831MOL0     H12180   9.705   8.611  11.089  1.0368 -1.8623  1.5911
  831MOL0     H12181   9.884   8.746  11.007 -0.4105 -0.0233  0.5595
  831MOL0     H12182   9.745   8.767  10.901 -0.3444 -1.0802  0.1918
  831MOL0     H12183  10.005   8.622  10.630  0.5483  0.7821 -0.2515
  831MOL0     H12184   9.249   8.416  10.902  2.0564  0.2649 -1.9081
  831MOL0     H12185   9.021   8.445  10.836  0.2006 -0.4557  1.7751
  832MOL0     O12186   2.617   8.621   4.070  0.5012  0.3429  0.0963
  832MOL0     C12187   2.658   8.609   4.191 -0.2358 -0.6577 -0.6056
  832MOL0     O12188   2.595   8.654   4.303  0.0192 -1.0075 -0.4880
  832MOL0     C12189   2.488   8.737   4.293 -0.1286 -0.5170 -0.1278
  832MOL0     C12190   2.385   8.727   4.197 -0.4499 -0.3865  0.7558
  832MOL0     C12191   2.271   8.811   4.191  0.0923  0.5077  0.1088
  832MOL0     C12192   2.262   8.915   4.284 -0.3332  0.5662 -0.2668
  832MOL0     O12193   2.150   8.996   4.287  0.0537 -0.0613  0.6750
  832MOL0     C12194   2.082   9.016   4.407 -0.1605  0.4519  0.2735
  832MOL0     C12195   1.940   8.993   4.363  0.2265  0.5728 -0.7957
  832MOL0     C12196   1.880   9.108   4.285  0.0253 -0.1954  0.8968
  832MOL0     C12197   1.723   9.097   4.252  0.9297 -0.6319 -0.3625
  832MOL0     C12198   1.682   9.235   4.205 -0.6664  0.1147 -0.1743
  832MOL0     C12199   1.525   9.240   4.186  0.0514 -0.6951  0.7493
  832MOL0     C12200   1.500   9.370   4.109  0.1907  0.1779  0.2356
  832MOL0     C12201   1.355   9.399   4.110 -0.4269  1.2634 -0.7348
  832MOL0     N12202   1.321   9.502   4.016  1.1808 -0.1478  0.1013
  832MOL0     C12203   1.330   9.637   4.041  0.6414 -0.9011  0.6670
  832MOL0     C12204   1.273   9.699   3.932 -0.1769 -0.0148 -0.0544
  832MOL0     C12205   1.285   9.843   3.923  0.7782  0.0423 -1.2148
  832MOL0     C12206   1.151   9.914   3.950  0.0671 -0.1465  0.7526
  832MOL0     C12207   1.088   9.876   4.087  0.3930  0.4552 -0.0837
  832MOL0     C12208   1.173   9.932   4.205 -0.7285 -0.0258  0.6928
  832MOL0     O12209   1.100   9.929   4.324  0.4595  0.3160 -0.2778
  832MOL0     C12210   1.006  10.028   4.345  0.1118  0.2390  0.1405
  832MOL0     C12211   0.923  10.008   4.448 -0.0100 -0.3170 -0.7546
  832MOL0     C12212   0.810  10.086   4.484 -0.3504  0.1848 -0.1934
  832MOL0     C12213   0.736  10.040   4.599 -0.1391  0.2466 -0.8066
  832MOL0     C12214   0.791  10.202   4.407  0.2504  1.1927 -0.0465
  832MOL0     C12215   0.679  10.291   4.449 -0.3340 -0.1006 -0.6577
  832MOL0     O12216   0.591  10.341   4.349 -0.6503 -0.6224  0.4083
  832MOL0     C12217   0.482  10.413   4.390  0.5070 -0.0292 -0.8656
  832MOL0     C12218   0.487  10.546   4.380  0.3651 -0.4238 -0.3628
  832MOL0     C12219   0.363  10.615   4.415 -0.9840  0.8702 -0.8410
  832MOL0     C12220   0.261  10.549   4.482  0.2704 -0.2587  0.0261
  832MOL0     O12221   0.145  10.613   4.524  0.0244  0.1581 -0.7720
  832MOL0     C12222   0.109  10.743   4.458 -0.1304 -0.4412 -0.4134
  832MOL0     C12223   0.000  10.798   4.546  1.3623  0.0408 -0.1102
  832MOL0     C12224  -0.049  10.939   4.515 -0.1167 -0.0472 -0.1918
  832MOL0     C12225  -0.196  10.956   4.562  0.2056 -0.0051  0.0969
  832MOL0     C12226  -0.250  11.099   4.523  0.1276 -0.6825 -0.4461
  832MOL0     C12227  -0.400  11.120   4.558  0.0185 -0.2349 -0.4246
  832MOL0     C12228  -0.448  11.255   4.519  0.0463 -0.0079  0.4234
  832MOL0     C12229  -0.446  11.291   4.372  0.1941  0.8280 -0.3059
  832MOL0    Cl12230  -0.524  11.155   4.281  0.0489 -0.2315 -0.4028
  832MOL0     C12231   0.271  10.413   4.505  0.3116 -0.3843 -0.2400
  832MOL0     C12232   0.377  10.346   4.457  0.6149  0.0770 -0.5723
  832MOL0     O12233   0.671  10.320   4.568  0.5244 -0.5410 -0.3016
  832MOL0     C12234   0.872  10.224   4.294  0.1609 -0.2208  0.3419
  832MOL0     C12235   0.985  10.137   4.264 -0.8912  0.1912 -0.5694
  832MOL0     N12236   1.234   9.593   3.846  0.4786  0.1665  0.5552
  832MOL0     N12237   1.255   9.474   3.901  0.4109 -0.0581  0.3013
  832MOL0     C12238   2.359   8.924   4.378 -1.1149  1.1988  0.4584
  832MOL0     C12239   2.466   8.832   4.385 -0.9103  0.7785 -0.1050
  832MOL0     C12240   2.787   8.539   4.208 -0.2608  0.2453 -0.3215
  832MOL0     C12241   2.851   8.535   4.335 -0.7232  0.4282 -0.7144
  832MOL0     C12242   2.982   8.477   4.339 -0.0862 -0.2481 -0.1883
  832MOL0     C12243   3.039   8.414   4.220 -0.4581 -0.4554 -0.5303
  832MOL0     O12244   3.157   8.347   4.200 -0.3762 -0.2031  0.6585
  832MOL0     C12245   3.251   8.346   4.304  0.2305 -0.1592  0.2855
  832MOL0     C12246   3.366   8.257   4.267  0.4150  0.0445 -0.6057
  832MOL0     C12247   3.452   8.304   4.152 -0.4988  0.5563  0.0364
  832MOL0     C12248   3.522   8.439   4.185  0.4413 -0.9888  0.5998
  832MOL0     C12249   3.619   8.465   4.075  0.3194 -0.2719 -0.4716
  832MOL0     C12250   3.697   8.497   3.986  0.0876 -1.2773  0.0148
  832MOL0     C12251   2.962   8.411   4.105 -0.9615 -0.4647 -0.7784
  832MOL0     C12252   2.836   8.465   4.102 -0.1952  0.2495  0.1257
  832MOL0     H12253   2.379   8.641   4.131  1.2436  1.3586 -1.8608
  832MOL0     H12254   2.202   8.789   4.110  0.5355 -1.2884  0.1847
  832MOL0     H12255   2.111   8.947   4.487 -1.3477  0.7228  0.9527
  832MOL0     H12256   2.098   9.117   4.446  1.0379  0.1368  0.6759
  832MOL0     H12257   1.935   8.898   4.310  1.5702  0.6200 -1.0358
  832MOL0     H12258   1.876   8.981   4.451  1.5934 -2.4641 -0.0868
  832MOL0     H12259   1.892   9.198   4.346 -1.4186  0.5270  0.1646
  832MOL0     H12260   1.934   9.120   4.191  2.4018 -3.3623  1.6690
  832MOL0     H12261   1.703   9.019   4.178 -0.5794 -1.9384  1.3356
  832MOL0     H12262   1.663   9.081   4.342 -0.2267  1.6953 -0.6473
  832MOL0     H12263   1.709   9.318   4.270  0.4164 -0.3922  0.0495
  832MOL0     H12264   1.719   9.247   4.103  1.2566  1.1905  0.6075
  832MOL0     H12265   1.498   9.151   4.128 -1.8233  0.1103  0.2803
  832MOL0     H12266   1.469   9.234   4.280 -0.0156  0.1443  0.7717
  832MOL0     H12267   1.554   9.457   4.147  2.3048 -0.1605 -1.7497
  832MOL0     H12268   1.541   9.357   4.008  0.4976  0.0830  0.3703
  832MOL0     H12269   1.313   9.438   4.204 -0.4290  0.1311 -0.2552
  832MOL0     H12270   1.298   9.310   4.083 -2.0266  1.6507  1.1264
  832MOL0     H12271   1.391   9.684   4.117  0.3994  2.0552 -0.8243
  832MOL0     H12272   1.367   9.880   3.985 -0.5247  1.3738 -0.2463
  832MOL0     H12273   1.316   9.879   3.824 -0.7733 -1.2699 -2.2349
  832MOL0     H12274   1.085   9.895   3.865 -1.7111  1.1822  1.7430
  832MOL0     H12275   1.175  10.020   3.955  2.2912 -0.6485  2.0516
  832MOL0     H12276   1.068   9.771   4.112  3.5841  0.3673  2.8563
  832MOL0     H12277   0.988   9.919   4.077  0.9092  1.2085 -2.8448
  832MOL0     H12278   1.214  10.032   4.186 -1.0044 -0.1355 -0.6032
  832MOL0     H12279   1.258   9.865   4.223 -2.6286 -2.0121  2.8851
  832MOL0     H12280   0.945   9.914   4.497 -0.6147 -0.2269 -0.2982
  832MOL0     H12281   0.749   9.932   4.606  1.3403  0.4497 -0.0663
  832MOL0     H12282   0.774  10.088   4.689  0.9845 -2.2435  0.1281
  832MOL0     H12283   0.627  10.050   4.592 -0.1123  2.7198  0.9219
  832MOL0     H12284   0.578  10.596   4.350  0.1878  0.0354 -0.1433
  832MOL0     H12285   0.367  10.723   4.408 -0.8655  1.2059  2.6092
  832MOL0     H12286   0.196  10.811   4.462 -1.2631  1.0115  1.5999
  832MOL0     H12287   0.069  10.729   4.358  3.1334 -0.6247 -1.8346
  832MOL0     H12288  -0.090  10.739   4.530  0.1502  0.6505  3.6578
  832MOL0     H12289   0.028  10.780   4.650  1.2129 -0.7675 -0.2056
  832MOL0     H12290  -0.040  10.964   4.409 -1.3449 -0.5435 -0.4370
  832MOL0     H12291   0.024  11.008   4.559 -0.2442 -1.6996  2.8988
  832MOL0     H12292  -0.263  10.885   4.514 -1.5610  0.8779  1.1427
  832MOL0     H12293  -0.211  10.960   4.671 -0.0542  1.0376  0.0389
  832MOL0     H12294  -0.221  11.109   4.418  2.2360  3.2822  0.3312
  832MOL0     H12295  -0.189  11.174   4.573  0.1672  0.1028 -1.6190
  832MOL0     H12296  -0.466  11.040   4.523  0.8859 -2.8961  3.3465
  832MOL0     H12297  -0.423  11.101   4.663 -1.8868 -1.8963 -1.0869
  832MOL0     H12298  -0.399  11.332   4.579  2.2272 -1.8756  1.2042
  832MOL0     H12299  -0.554  11.245   4.546 -0.5014 -3.0962 -2.2451
  832MOL0     H12300  -0.339  11.305   4.356  0.2068  1.1045  0.0133
  832MOL0     H12301  -0.490  11.386   4.341  0.4893  0.6793 -1.2271
  832MOL0     H12302   0.198  10.354   4.559  1.0796 -1.2331 -0.1071
  832MOL0     H12303   0.379  10.239   4.476 -1.4763 -0.2169 -1.7769
  832MOL0     H12304   0.854  10.311   4.232  1.0887 -0.2428  0.0166
  832MOL0     H12305   1.045  10.165   4.178  2.0508 -1.8792  0.6680
  832MOL0     H12306   2.359   8.985   4.467 -1.8499 -1.0536  2.1099
  832MOL0     H12307   2.539   8.839   4.464  0.1687  2.0019 -1.1684
  832MOL0     H12308   2.806   8.589   4.419 -1.0757 -0.1535 -0.5228
  832MOL0     H12309   3.033   8.496   4.432 -1.6194  2.0526  0.2709
  832MOL0     H12310   3.288   8.447   4.325 -0.1840  0.0459  0.0498
  832MOL0     H12311   3.208   8.311   4.398  0.7772  0.5878  0.8239
  832MOL0     H12312   3.330   8.156   4.244 -3.4604  1.1296 -0.0908
  832MOL0     H12313   3.418   8.246   4.363 -1.0636  1.5341  0.4174
  832MOL0     H12314   3.381   8.323   4.071 -1.4718  0.0775  0.7593
  832MOL0     H12315   3.521   8.223   4.127 -2.8240 -1.5473 -0.0355
  832MOL0     H12316   3.562   8.424   4.285  0.0405 -3.9504  0.4129
  832MOL0     H12317   3.450   8.521   4.174 -1.2619 -2.5654 -0.8436
  832MOL0     H12318   3.771   8.530   3.917  0.5969 -0.5231  0.8912
  832MOL0     H12319   2.998   8.356   4.018 -1.2333 -2.5367  0.3737
  832MOL0     H12320   2.777   8.455   4.012 -2.4233 -0.3481  1.5795
  833MOL0     O12321   3.128   6.852   1.111  0.3488  0.0713 -0.0524
  833MOL0     C12322   3.142   6.730   1.097  0.5768  0.3740  0.6317
  833MOL0     O12323   3.066   6.646   1.010 -0.2889  0.3579 -0.5497
  833MOL0     C12324   2.949   6.704   0.966 -0.3643 -0.6738  0.2705
  833MOL0     C12325   2.939   6.737   0.828  0.1125  0.1611 -0.2111
  833MOL0     C12326   2.819   6.795   0.784  0.9129  0.0217 -0.1285
  833MOL0     C12327   2.723   6.829   0.875 -0.0961 -0.2763  0.1963
  833MOL0     O12328   2.606   6.892   0.849  0.9675 -0.0058  0.7605
  833MOL0     C12329   2.547   6.886   0.716  0.0190 -0.0219 -0.4724
  833MOL0     C12330   2.468   7.016   0.696 -0.5456 -1.4204 -0.8903
  833MOL0     C12331   2.369   7.041   0.812 -0.1759  0.1023  0.6807
  833MOL0     C12332   2.324   7.178   0.819 -0.0870  0.1681 -0.3231
  833MOL0     C12333   2.250   7.204   0.955  0.0900  0.4640  0.6738
  833MOL0     C12334   2.171   7.334   0.956  0.4821 -0.1526  0.1959
  833MOL0     C12335   2.247   7.462   0.937  0.1660  0.3698  0.0137
  833MOL0     C12336   2.150   7.577   0.894  0.5258 -1.3373 -0.3554
  833MOL0     N12337   2.130   7.586   0.747 -0.0173  0.2686 -0.1017
  833MOL0     C12338   2.141   7.485   0.655  0.0066 -0.2517 -1.2431
  833MOL0     C12339   2.174   7.542   0.540  0.7104  0.0953  0.4536
  833MOL0     C12340   2.221   7.483   0.408 -0.9625  0.1704  0.1558
  833MOL0     C12341   2.120   7.500   0.292 -0.2543 -0.4316 -0.3030
  833MOL0     C12342   2.188   7.464   0.170  0.3044  0.2366  0.3294
  833MOL0     C12343   2.094   7.504   0.056  0.6283  0.4126 -0.3713
  833MOL0     O12344   1.966   7.435   0.042  0.5776 -0.1150  0.5723
  833MOL0     C12345   1.955   7.326  -0.054  0.6489 -0.3508  0.1634
  833MOL0     C12346   2.062   7.280  -0.132 -0.7724 -0.3358  1.0110
  833MOL0     C12347   2.055   7.177  -0.220 -0.0416  0.7093  0.1351
  833MOL0     C12348   2.170   7.146  -0.309 -0.4035 -0.0751 -0.5371
  833MOL0     C12349   1.936   7.101  -0.228  0.3285 -0.1274  0.1051
  833MOL0     C12350   1.908   6.986  -0.321  0.1874  0.2707 -0.0508
  833MOL0     O12351   1.825   6.892  -0.272 -0.2126  0.1814 -0.4527
  833MOL0     C12352   1.811   6.778  -0.335 -0.4247  0.9695  0.2763
  833MOL0     C12353   1.692   6.753  -0.408  0.5755  0.0969 -0.3362
  833MOL0     C12354   1.662   6.625  -0.471  0.0893  0.1391  0.0720
  833MOL0     C12355   1.767   6.520  -0.459  0.1738  0.5028 -0.2109
  833MOL0     O12356   1.736   6.399  -0.511 -0.6780  0.1241  1.0433
  833MOL0     C12357   1.837   6.319  -0.569  0.1527  0.2694  0.5776
  833MOL0     C12358   1.779   6.264  -0.701  0.5339  1.3762 -0.5185
  833MOL0     C12359   1.758   6.370  -0.797  0.0374 -0.3528 -0.6911
  833MOL0     C12360   1.718   6.311  -0.924  0.2916 -0.0680 -0.6593
  833MOL0     C12361   1.668   6.413  -1.021  0.0048  0.3258  0.3457
  833MOL0     C12362   1.649   6.371  -1.162 -1.1344  0.4823 -0.2585
  833MOL0     C12363   1.612   6.481  -1.256 -0.0645 -0.8681 -0.0358
  833MOL0     C12364   1.561   6.418  -1.387  0.2681 -0.5360  0.4330
  833MOL0    Cl12365   1.674   6.322  -1.476 -0.0239  0.1267  0.4741
  833MOL0     C12366   1.889   6.550  -0.390 -0.2748 -0.0288  0.7279
  833MOL0     C12367   1.912   6.681  -0.346  0.4406  0.5211  0.3746
  833MOL0     O12368   1.962   6.992  -0.434  0.0588  0.7715  0.0693
  833MOL0     C12369   1.832   7.138  -0.142 -0.2460 -0.7697  0.0724
  833MOL0     C12370   1.840   7.249  -0.050 -0.4305 -0.9150  0.7716
  833MOL0     N12371   2.180   7.678   0.559  0.2066 -0.3945 -0.2723
  833MOL0     N12372   2.147   7.701   0.678 -1.1502  0.8288 -1.0469
  833MOL0     C12373   2.736   6.814   1.010  0.1206  0.0199 -0.6917
  833MOL0     C12374   2.851   6.745   1.053  0.0544  1.1532  0.8231
  833MOL0     C12375   3.254   6.665   1.159  0.2599  0.3734 -0.6222
  833MOL0     C12376   3.228   6.541   1.235  0.5013 -0.2436  0.6549
  833MOL0     C12377   3.335   6.476   1.307 -0.7327  0.4139  0.2095
  833MOL0     C12378   3.469   6.532   1.291 -0.0862 -1.2955  0.3013
  833MOL0     O12379   3.592   6.491   1.334  0.0480 -0.2942  0.6997
  833MOL0     C12380   3.612   6.401   1.440 -0.5659  0.3751 -0.3822
  833MOL0     C12381   3.719   6.454   1.529  0.3830 -0.1817 -0.1598
  833MOL0     C12382   3.769   6.372   1.650 -0.3494  0.6949  0.1139
  833MOL0     C12383   3.659   6.349   1.756 -0.3775  0.4094 -0.0578
  833MOL0     C12384   3.568   6.252   1.704  0.4244 -1.1039  0.0716
  833MOL0     C12385   3.476   6.182   1.670  0.5319 -0.0783  0.5058
  833MOL0     C12386   3.485   6.654   1.228  0.7389 -0.0455  0.3985
  833MOL0     C12387   3.379   6.721   1.169  0.4076  0.3924  0.0388
  833MOL0     H12388   3.007   6.690   0.757 -1.2983  0.0594 -1.5403
  833MOL0     H12389   2.799   6.802   0.677 -1.2743  2.7273  0.3337
  833MOL0     H12390   2.624   6.878   0.638  1.4553  0.9535  0.7825
  833MOL0     H12391   2.478   6.802   0.715  1.0931 -0.9215 -1.6485
  833MOL0     H12392   2.534   7.103   0.685 -1.5857 -0.7997 -2.6235
  833MOL0     H12393   2.415   7.017   0.600 -0.1284  3.2273 -1.2925
  833MOL0     H12394   2.289   6.966   0.816  2.8761 -3.5030 -0.3486
  833MOL0     H12395   2.422   7.029   0.907 -0.2010  0.4998  0.7457
  833MOL0     H12396   2.411   7.245   0.815 -1.6287  2.4437  1.7381
  833MOL0     H12397   2.264   7.195   0.730 -1.1788  1.3281  0.6070
  833MOL0     H12398   2.171   7.128   0.963 -1.3914  2.1531  5.0780
  833MOL0     H12399   2.317   7.181   1.039  2.5771 -2.6997 -1.8921
  833MOL0     H12400   2.101   7.326   0.873 -1.5639 -1.1810  1.9141
  833MOL0     H12401   2.109   7.353   1.045  0.1845  0.8923 -0.2233
  833MOL0     H12402   2.286   7.486   1.037  0.2579 -5.0017  1.5670
  833MOL0     H12403   2.337   7.454   0.875 -1.5623  2.6162 -3.0715
  833MOL0     H12404   2.185   7.675   0.927 -2.6864 -0.7107  1.6590
  833MOL0     H12405   2.057   7.563   0.951 -0.9343 -0.8018 -2.4814
  833MOL0     H12406   2.125   7.381   0.683 -1.4642  0.5627  1.3320
  833MOL0     H12407   2.308   7.540   0.375 -3.7935  3.7574 -1.8889
  833MOL0     H12408   2.251   7.378   0.419  1.0677  0.9140  2.9124
  833MOL0     H12409   2.092   7.606   0.283 -1.3156 -0.5243  1.4642
  833MOL0     H12410   2.031   7.439   0.307  1.5687 -3.4059 -0.8171
  833MOL0     H12411   2.204   7.356   0.174 -0.4742  0.1590  1.9922
  833MOL0     H12412   2.280   7.522   0.161 -0.2232  0.9210 -0.8924
  833MOL0     H12413   2.143   7.499  -0.042 -0.7158  2.7151 -1.2440
  833MOL0     H12414   2.069   7.609   0.075  1.6363  0.0699  3.5773
  833MOL0     H12415   2.161   7.324  -0.131 -0.6929 -0.4695 -0.1217
  833MOL0     H12416   2.261   7.169  -0.253 -0.5591 -1.2433  0.2311
  833MOL0     H12417   2.179   7.040  -0.335  2.3682 -1.4091  4.5144
  833MOL0     H12418   2.172   7.202  -0.402  1.2868 -0.7368 -0.9241
  833MOL0     H12419   1.620   6.834  -0.405  0.6892  0.2046  2.9580
  833MOL0     H12420   1.564   6.600  -0.512 -1.6306 -1.0686  4.3461
  833MOL0     H12421   1.932   6.370  -0.586  1.3749 -2.0926 -0.1719
  833MOL0     H12422   1.871   6.234  -0.509  2.9977 -0.4033 -1.8071
  833MOL0     H12423   1.853   6.196  -0.745 -0.8841 -0.8001  0.2668
  833MOL0     H12424   1.682   6.216  -0.684  1.0329  1.4120  3.1965
  833MOL0     H12425   1.856   6.417  -0.813 -0.2196  0.5201  0.1867
  833MOL0     H12426   1.691   6.452  -0.769  0.1952 -0.5905  0.4210
  833MOL0     H12427   1.802   6.261  -0.973  1.2087 -0.3674  1.1412
  833MOL0     H12428   1.651   6.225  -0.915  0.1838 -0.0369 -1.1284
  833MOL0     H12429   1.748   6.488  -1.018  0.6364 -0.3521  1.9662
  833MOL0     H12430   1.579   6.464  -0.982 -0.9930 -2.8080  2.5389
  833MOL0     H12431   1.741   6.326  -1.201 -1.8275 -2.1046  0.8658
  833MOL0     H12432   1.577   6.288  -1.162  0.8869 -1.3976  1.1172
  833MOL0     H12433   1.703   6.540  -1.270 -0.8654  0.4311  0.0675
  833MOL0     H12434   1.529   6.539  -1.214  0.6239  1.2711 -1.4470
  833MOL0     H12435   1.517   6.496  -1.450  0.4487 -0.0525  0.8982
  833MOL0     H12436   1.472   6.359  -1.363 -1.0151  0.7465 -0.9057
  833MOL0     H12437   1.964   6.472  -0.394  1.7555  1.8479 -1.1786
  833MOL0     H12438   2.008   6.698  -0.296  0.4212  1.9941 -0.0543
  833MOL0     H12439   1.743   7.076  -0.153 -0.4942 -0.0782 -2.3519
  833MOL0     H12440   1.764   7.291   0.015  0.8981 -0.0197  1.8098
  833MOL0     H12441   2.663   6.855   1.080  1.5782  0.8527  0.3835
  833MOL0     H12442   2.859   6.711   1.156 -2.2419  0.1280  0.7125
  833MOL0     H12443   3.133   6.493   1.256  0.5796 -0.8339 -0.2860
  833MOL0     H12444   3.329   6.383   1.363  1.2010  0.9579  1.4390
  833MOL0     H12445   3.515   6.403   1.489 -0.9731  0.2652 -1.1678
  833MOL0     H12446   3.629   6.299   1.404 -4.7410  0.4669 -3.3001
  833MOL0     H12447   3.695   6.556   1.560  0.0675  0.1671 -1.4843
  833MOL0     H12448   3.804   6.458   1.460  0.6575  3.0411  0.2082
  833MOL0     H12449   3.859   6.412   1.699  1.3576 -2.8173  0.2048
  833MOL0     H12450   3.811   6.278   1.612  0.9726  1.0543  0.6083
  833MOL0     H12451   3.620   6.444   1.793  1.0901  0.7296  0.7316
  833MOL0     H12452   3.721   6.299   1.831  1.0378 -0.1605 -1.5385
  833MOL0     H12453   3.386   6.128   1.650 -1.9345  3.0572  2.1989
  833MOL0     H12454   3.582   6.703   1.217  1.3840 -1.4024 -0.2163
  833MOL0     H12455   3.406   6.811   1.114  6.4049 -0.8769  0.2483
  834MOL0     O12456   4.106   3.792   4.199 -0.2518  0.4112 -0.0916
  834MOL0     C12457   4.053   3.712   4.128  0.5025 -0.4018 -0.0007
  834MOL0     O12458   4.117   3.601   4.073 -0.0186 -0.0348  0.4372
  834MOL0     C12459   4.245   3.577   4.118 -0.0836  0.0957  0.3811
  834MOL0     C12460   4.270   3.445   4.161 -0.5819  0.1034  0.2754
  834MOL0     C12461   4.397   3.401   4.196 -0.2328  0.0643  0.7792
  834MOL0     C12462   4.503   3.496   4.193 -0.0979  0.5109  0.2736
  834MOL0     O12463   4.631   3.454   4.194 -0.4033  0.5949 -0.2239
  834MOL0     C12464   4.701   3.476   4.321  0.2432 -0.6033  0.5678
  834MOL0     C12465   4.694   3.360   4.419  0.7778  0.0729  0.0219
  834MOL0     C12466   4.708   3.219   4.359  0.0616  0.1367 -0.3527
  834MOL0     C12467   4.712   3.120   4.486 -0.1723 -0.2234  0.2277
  834MOL0     C12468   4.726   2.980   4.437  0.4000  0.5575 -0.6777
  834MOL0     C12469   4.737   2.867   4.545  0.8504  0.1624 -0.0201
  834MOL0     C12470   4.805   2.735   4.493 -0.6960  0.3924  0.6367
  834MOL0     C12471   4.864   2.647   4.599  0.3126 -0.8341 -0.0727
  834MOL0     N12472   4.946   2.544   4.529 -0.5107  0.2179  1.5796
  834MOL0     C12473   5.078   2.542   4.481 -0.4214 -0.4855 -0.0590
  834MOL0     C12474   5.088   2.444   4.392 -0.1549  0.4343 -0.8047
  834MOL0     C12475   5.206   2.404   4.303  0.8329  0.2747 -0.7061
  834MOL0     C12476   5.252   2.263   4.352 -0.5913 -0.6027 -0.6065
  834MOL0     C12477   5.313   2.270   4.492 -0.6067 -1.0326 -0.5245
  834MOL0     C12478   5.465   2.330   4.504  1.2146 -0.0015  0.0338
  834MOL0     O12479   5.497   2.355   4.643  0.0220 -0.0685  0.4262
  834MOL0     C12480   5.428   2.453   4.703  1.3538  0.8842 -1.3389
  834MOL0     C12481   5.467   2.581   4.664  0.3426 -0.5811 -0.8208
  834MOL0     C12482   5.382   2.691   4.707  0.0970  0.2362  2.1719
  834MOL0     C12483   5.435   2.832   4.674 -0.8725  0.2194  0.8704
  834MOL0     C12484   5.265   2.670   4.776  0.1189  0.1449 -0.0976
  834MOL0     C12485   5.161   2.774   4.805  0.5536  0.1285  0.0674
  834MOL0     O12486   5.097   2.758   4.921 -0.3494  1.2380 -1.3941
  834MOL0     C12487   4.974   2.817   4.943  0.8273  0.2160  0.7188
  834MOL0     C12488   4.955   2.956   4.954  0.4382 -0.5093 -0.0826
  834MOL0     C12489   4.824   3.014   4.969  0.7126 -0.7190 -0.6750
  834MOL0     C12490   4.707   2.934   4.970  0.1990  1.1057 -0.3783
  834MOL0     O12491   4.578   2.979   4.976  0.0318  0.1712 -0.1197
  834MOL0     C12492   4.549   3.106   5.028 -0.2217 -0.0258  0.6639
  834MOL0     C12493   4.403   3.125   5.037  1.1312  0.3516 -0.2255
  834MOL0     C12494   4.333   3.144   4.901 -0.2988 -0.4735 -0.3567
  834MOL0     C12495   4.369   3.282   4.847  0.4592 -0.0206 -0.2089
  834MOL0     C12496   4.284   3.312   4.727 -0.3095 -1.2982 -0.5487
  834MOL0     C12497   4.302   3.471   4.680 -0.1892  0.1232  0.1876
  834MOL0     C12498   4.251   3.485   4.531 -0.1612 -0.3339  0.3839
  834MOL0     C12499   4.202   3.632   4.491 -0.7619  0.3041  0.1784
  834MOL0    Cl12500   4.095   3.699   4.615 -0.0258  0.0816 -0.2259
  834MOL0     C12501   4.738   2.793   4.954 -0.1655 -1.7668 -0.2442
  834MOL0     C12502   4.863   2.735   4.942  0.0711  0.6737 -0.4923
  834MOL0     O12503   5.150   2.875   4.733 -0.2424  0.0742  0.0089
  834MOL0     C12504   5.239   2.542   4.827 -0.0625 -0.0230  0.8639
  834MOL0     C12505   5.318   2.430   4.783  0.7812 -0.0461 -0.2726
  834MOL0     N12506   4.964   2.375   4.403  0.0630 -0.3648  0.3182
  834MOL0     N12507   4.881   2.438   4.477 -0.4249  0.1965  0.1779
  834MOL0     C12508   4.482   3.629   4.165 -0.0699 -0.6069 -0.6298
  834MOL0     C12509   4.352   3.672   4.123 -0.2416 -0.3262  1.6369
  834MOL0     C12510   3.908   3.731   4.094 -0.0374 -0.6636 -0.9694
  834MOL0     C12511   3.821   3.749   4.203  0.0819 -0.8368  0.1912
  834MOL0     C12512   3.685   3.766   4.175  0.1210 -0.2936  0.3186
  834MOL0     C12513   3.631   3.745   4.048 -0.5727 -0.4665  0.2256
  834MOL0     O12514   3.497   3.763   4.026  0.0048  0.3102 -0.6960
  834MOL0     C12515   3.441   3.735   3.898  1.0513 -0.8969 -0.3989
  834MOL0     C12516   3.297   3.796   3.895  0.0950 -0.2608 -0.6621
  834MOL0     C12517   3.203   3.733   3.994 -0.2031  0.5490  0.3414
  834MOL0     C12518   3.063   3.711   3.942 -0.0311  0.1998  0.2163
  834MOL0     C12519   2.996   3.838   3.927 -0.6358  0.2909 -0.1542
  834MOL0     C12520   2.950   3.946   3.901  0.3093  0.2988 -0.2068
  834MOL0     C12521   3.718   3.701   3.947 -0.3760  0.1568  0.3215
  834MOL0     C12522   3.855   3.695   3.968  0.1845 -0.2298 -0.0816
  834MOL0     H12523   4.180   3.385   4.168  1.3449 -2.7990  2.4344
  834MOL0     H12524   4.401   3.293   4.205  0.4659 -0.2104 -1.9500
  834MOL0     H12525   4.805   3.504   4.302  0.0672 -0.6281 -0.4928
  834MOL0     H12526   4.665   3.564   4.375  1.3588  0.5861 -0.5355
  834MOL0     H12527   4.762   3.385   4.501  1.9117  1.2812 -1.2473
  834MOL0     H12528   4.592   3.356   4.460  0.6412 -1.8921 -0.4136
  834MOL0     H12529   4.620   3.191   4.301 -1.2848  3.9089 -0.4394
  834MOL0     H12530   4.796   3.215   4.294  0.5734 -2.4434  0.3874
  834MOL0     H12531   4.793   3.160   4.549 -2.9312  4.0841  1.4890
  834MOL0     H12532   4.620   3.131   4.543 -1.6530  1.5619 -2.2970
  834MOL0     H12533   4.650   2.953   4.363  0.9355 -0.4614 -0.8723
  834MOL0     H12534   4.826   2.979   4.393  0.4631  0.2444 -0.5347
  834MOL0     H12535   4.804   2.911   4.619  0.6648  4.0187 -1.8964
  834MOL0     H12536   4.641   2.838   4.589  0.3029  0.0358 -1.2505
  834MOL0     H12537   4.731   2.669   4.448 -0.8652  0.2732  1.0886
  834MOL0     H12538   4.882   2.777   4.427 -1.7205  1.0288 -0.1993
  834MOL0     H12539   4.781   2.597   4.650 -0.7034  1.0567  0.2196
  834MOL0     H12540   4.928   2.705   4.666 -0.4870 -0.9150  0.7930
  834MOL0     H12541   5.149   2.615   4.517  1.6617 -2.1747 -0.5077
  834MOL0     H12542   5.167   2.390   4.201 -0.1287  0.7471 -0.4171
  834MOL0     H12543   5.286   2.477   4.292  0.7279  0.4984 -0.0090
  834MOL0     H12544   5.321   2.211   4.286  0.1026 -0.3514 -0.1002
  834MOL0     H12545   5.163   2.200   4.353 -0.9758 -0.0988 -1.7506
  834MOL0     H12546   5.308   2.169   4.533 -0.5766  0.6239  4.1841
  834MOL0     H12547   5.243   2.324   4.556 -0.4398 -0.4488 -0.8279
  834MOL0     H12548   5.471   2.409   4.429 -0.4349  1.1461  1.0429
  834MOL0     H12549   5.543   2.268   4.460 -0.1899 -0.6432 -1.6842
  834MOL0     H12550   5.558   2.602   4.609  0.3123  0.8188 -0.3921
  834MOL0     H12551   5.544   2.830   4.669 -0.8681  1.2151 -2.8778
  834MOL0     H12552   5.404   2.862   4.573  1.2392 -1.5488 -0.3964
  834MOL0     H12553   5.409   2.913   4.743 -0.8775  0.8282  0.1799
  834MOL0     H12554   5.040   3.024   4.948 -0.4863  0.5815 -1.7245
  834MOL0     H12555   4.810   3.121   4.982  1.0796 -0.6169 -1.0831
  834MOL0     H12556   4.579   3.118   5.133 -0.9085  0.8596  0.7634
  834MOL0     H12557   4.603   3.174   4.960 -0.2154 -2.2120 -1.6757
  834MOL0     H12558   4.353   3.035   5.073 -0.5713  2.0310  1.8848
  834MOL0     H12559   4.379   3.202   5.111 -0.1900 -0.9021  0.7009
  834MOL0     H12560   4.226   3.125   4.913 -0.6583  1.1517 -0.6277
  834MOL0     H12561   4.365   3.064   4.834  0.4040  1.7862 -2.9107
  834MOL0     H12562   4.359   3.357   4.927 -0.9722  0.6809 -1.0108
  834MOL0     H12563   4.475   3.279   4.819  0.9684 -0.6467  1.6393
  834MOL0     H12564   4.182   3.274   4.737 -0.4280 -1.3084 -1.6648
  834MOL0     H12565   4.316   3.243   4.649  3.0411  0.6688 -1.1173
  834MOL0     H12566   4.248   3.536   4.750 -2.5348 -3.3458  1.8979
  834MOL0     H12567   4.407   3.500   4.688 -0.0058  0.8742 -3.3926
  834MOL0     H12568   4.166   3.419   4.512 -0.4452 -1.0251  3.5392
  834MOL0     H12569   4.327   3.445   4.463 -0.1336  0.6668 -0.1955
  834MOL0     H12570   4.150   3.627   4.395  0.7451  1.9783 -0.8071
  834MOL0     H12571   4.295   3.686   4.470  1.4504 -2.6691  1.5865
  834MOL0     H12572   4.648   2.734   4.942 -2.3951  1.6297 -1.9383
  834MOL0     H12573   4.874   2.627   4.930 -0.0774  0.8795 -2.8949
  834MOL0     H12574   5.150   2.525   4.886 -0.5994  0.0018  0.0847
  834MOL0     H12575   5.299   2.329   4.815  1.9090 -0.0827  0.3296
  834MOL0     H12576   4.558   3.706   4.159  1.4311 -1.8983  0.9475
  834MOL0     H12577   4.333   3.772   4.087  1.9342 -0.8757 -1.4662
  834MOL0     H12578   3.849   3.758   4.307 -1.0468 -0.5443  0.4806
  834MOL0     H12579   3.621   3.788   4.260  1.8867  1.9068  1.2034
  834MOL0     H12580   3.507   3.777   3.821 -0.7606  2.4007 -0.3303
  834MOL0     H12581   3.430   3.628   3.880 -1.2714 -0.9587  1.0323
  834MOL0     H12582   3.253   3.778   3.796  0.1384 -1.6061 -0.4572
  834MOL0     H12583   3.310   3.904   3.906 -2.7322  0.4804 -2.9372
  834MOL0     H12584   3.202   3.797   4.082  3.6915  1.3632 -0.0366
  834MOL0     H12585   3.253   3.647   4.039  3.8538  2.7021  0.3124
  834MOL0     H12586   3.007   3.650   4.014 -1.8722  2.2680  0.6284
  834MOL0     H12587   3.051   3.666   3.843 -3.2595 -0.0908  0.6182
  834MOL0     H12588   2.922   4.042   3.862 -0.1422 -0.2908 -1.4018
  834MOL0     H12589   3.673   3.682   3.850  0.0219  0.1147  0.1452
  834MOL0     H12590   3.918   3.667   3.884 -1.3420 -1.1981 -0.9524
  835MOL0     O12591   0.332   2.894  10.153  0.0012 -0.1260 -0.0518
  835MOL0     C12592   0.214   2.920  10.177  0.7553 -0.1145  0.4915
  835MOL0     O12593   0.141   2.888  10.283  0.2512 -0.0226 -1.2054
  835MOL0     C12594   0.209   2.851  10.402  0.6469  0.0233  0.2096
  835MOL0     C12595   0.121   2.766  10.474  0.0300  0.3291 -0.3359
  835MOL0     C12596   0.149   2.716  10.600  0.1986 -0.0240 -0.2478
  835MOL0     C12597   0.277   2.739  10.651  0.0508 -0.5631  0.3203
  835MOL0     O12598   0.328   2.698  10.767 -0.4910  0.1757 -0.3977
  835MOL0     C12599   0.252   2.598  10.840  0.3379  0.1145  0.0415
  835MOL0     C12600   0.166   2.680  10.942 -0.0930  0.2955  0.0723
  835MOL0     C12601   0.251   2.752  11.049 -0.2096 -0.4778  0.4398
  835MOL0     C12602   0.324   2.667  11.153  0.1249 -0.2853 -1.0003
  835MOL0     C12603   0.364   2.740  11.278  0.3661 -1.1749  0.0701
  835MOL0     C12604   0.469   2.674  11.373 -0.0288 -0.0391 -0.4543
  835MOL0     C12605   0.581   2.621  11.286  0.1385 -0.7474 -0.9590
  835MOL0     C12606   0.699   2.583  11.377 -0.1232 -0.5354  0.1151
  835MOL0     N12607   0.799   2.516  11.297  0.1708 -0.2492 -0.6207
  835MOL0     C12608   0.916   2.584  11.253  0.6094  0.0732 -0.7032
  835MOL0     C12609   0.979   2.492  11.187  0.0110  0.4343  0.0747
  835MOL0     C12610   1.115   2.525  11.138  0.0252 -0.1315 -0.0103
  835MOL0     C12611   1.115   2.574  10.987  0.4860 -0.3795 -0.0244
  835MOL0     C12612   1.075   2.467  10.886 -1.0211 -0.7303  0.1027
  835MOL0     C12613   1.099   2.518  10.744 -0.6280 -0.5833 -0.0739
  835MOL0     O12614   1.060   2.431  10.636 -0.4962 -0.8189 -0.5224
  835MOL0     C12615   0.930   2.419  10.596  0.0103 -1.4740 -0.6327
  835MOL0     C12616   0.906   2.337  10.487  0.5126 -0.2225  0.6230
  835MOL0     C12617   0.769   2.309  10.447 -0.5455  0.5167 -0.4830
  835MOL0     C12618   0.752   2.205  10.335 -0.0834 -0.3254  0.4955
  835MOL0     C12619   0.665   2.382  10.507  0.2189  0.3086  0.2084
  835MOL0     C12620   0.527   2.372  10.461 -0.1204  0.7966  0.1116
  835MOL0     O12621   0.506   2.366  10.327  0.4928 -0.0175 -0.6232
  835MOL0     C12622   0.378   2.357  10.288  0.2491  1.3753  0.6463
  835MOL0     C12623   0.280   2.447  10.331 -0.3609  0.7747  0.3737
  835MOL0     C12624   0.154   2.438  10.279  0.2186 -0.0332  1.0268
  835MOL0     C12625   0.120   2.339  10.194  0.6835  0.4137  0.3638
  835MOL0     O12626  -0.012   2.344  10.156 -0.6340 -0.7052 -0.1680
  835MOL0     C12627  -0.055   2.255  10.053 -0.0392 -0.8991  1.2732
  835MOL0     C12628  -0.206   2.284  10.038  0.4254  0.8100  0.0064
  835MOL0     C12629  -0.295   2.174   9.983  0.7905  0.3644 -0.2985
  835MOL0     C12630  -0.447   2.199   9.972 -0.0268 -0.5299 -0.3551
  835MOL0     C12631  -0.507   2.062   9.934 -0.3224 -0.3225  0.8568
  835MOL0     C12632  -0.652   2.064   9.891 -0.1365 -0.0891  0.3483
  835MOL0     C12633  -0.706   1.926   9.871  0.0121  0.2109  0.9042
  835MOL0     C12634  -0.787   1.866   9.988 -0.0048 -0.6628 -0.0289
  835MOL0    Cl12635  -0.856   1.705   9.937  0.0412  0.0187  0.1656
  835MOL0     C12636   0.213   2.246  10.151  0.5603  0.1063  0.1039
  835MOL0     C12637   0.346   2.251  10.197  0.4750 -0.0192  0.0318
  835MOL0     O12638   0.442   2.374  10.556 -0.7951  0.3596 -0.1940
  835MOL0     C12639   0.696   2.461  10.618  0.1745  0.4460  0.2487
  835MOL0     C12640   0.821   2.479  10.665  0.2843  0.3941 -0.0354
  835MOL0     N12641   0.910   2.369  11.195  0.1083  0.0688 -0.9859
  835MOL0     N12642   0.797   2.389  11.257 -0.0711 -0.4815  0.1012
  835MOL0     C12643   0.365   2.821  10.576  0.6266  0.3947 -0.0001
  835MOL0     C12644   0.334   2.879  10.452  0.6198  0.5496  0.8433
  835MOL0     C12645   0.131   2.994  10.073  0.3792 -0.1302 -0.3673
  835MOL0     C12646   0.149   2.982   9.933 -0.9617  0.1582 -0.5170
  835MOL0     C12647   0.074   3.068   9.849  0.1877  0.5296  0.1668
  835MOL0     C12648  -0.014   3.160   9.895  0.4103 -0.2781 -0.4967
  835MOL0     O12649  -0.076   3.243   9.802 -0.6624 -0.1210  0.0624
  835MOL0     C12650  -0.136   3.365   9.853  1.0284 -0.2943  0.0664
  835MOL0     C12651  -0.227   3.401   9.736 -0.8764 -0.1370 -0.5243
  835MOL0     C12652  -0.160   3.476   9.624 -0.6213 -0.2583 -0.4851
  835MOL0     C12653  -0.126   3.631   9.665 -0.4829  0.4274 -0.4765
  835MOL0     C12654  -0.240   3.728   9.656 -0.1423  0.8894  0.4080
  835MOL0     C12655  -0.348   3.787   9.652 -0.4155  0.9129  0.6122
  835MOL0     C12656  -0.018   3.173  10.037 -0.2012  0.0841 -0.4818
  835MOL0     C12657   0.045   3.087  10.126 -0.2000 -1.2365  0.2459
  835MOL0     H12658   0.020   2.745  10.439  0.1604 -1.7505  0.4177
  835MOL0     H12659   0.077   2.664  10.662 -0.4115  2.0078  0.8331
  835MOL0     H12660   0.196   2.539  10.766 -0.9937  2.9301 -1.3788
  835MOL0     H12661   0.312   2.528  10.899 -1.8386 -1.4044  0.5778
  835MOL0     H12662   0.107   2.754  10.887  1.8305  1.0031 -1.1492
  835MOL0     H12663   0.107   2.618  11.010 -1.0234  1.6302  0.5253
  835MOL0     H12664   0.316   2.826  11.004 -1.0158 -0.7592 -1.2824
  835MOL0     H12665   0.192   2.819  11.113  2.0730  1.9037  0.1961
  835MOL0     H12666   0.252   2.592  11.188 -0.6821  0.6590 -0.5884
  835MOL0     H12667   0.406   2.610  11.108 -0.3954  0.2925 -2.7914
  835MOL0     H12668   0.413   2.837  11.263 -2.3537 -0.0873 -2.7501
  835MOL0     H12669   0.272   2.763  11.332  1.6543  4.2511  0.5680
  835MOL0     H12670   0.506   2.751  11.441 -4.1290 -1.3565  3.8471
  835MOL0     H12671   0.425   2.600  11.441 -0.4102  0.0027 -0.6503
  835MOL0     H12672   0.555   2.530  11.231  1.1376 -2.3783  1.1216
  835MOL0     H12673   0.607   2.700  11.216  0.2522  1.3916  1.3360
  835MOL0     H12674   0.651   2.505  11.436 -0.4708 -0.1680  0.3274
  835MOL0     H12675   0.736   2.666  11.438  0.6206 -0.3372 -0.5864
  835MOL0     H12676   0.952   2.684  11.275  0.1757  0.4059 -1.4713
  835MOL0     H12677   1.156   2.610  11.194 -4.2880  3.2821 -1.4929
  835MOL0     H12678   1.180   2.438  11.145  3.6074  2.0165 -2.6278
  835MOL0     H12679   1.216   2.607  10.960 -0.1582 -1.9941 -5.7794
  835MOL0     H12680   1.045   2.658  10.979 -0.0025 -0.6615  1.1232
  835MOL0     H12681   0.968   2.446  10.894 -1.3327 -0.6038 -2.7360
  835MOL0     H12682   1.139   2.379  10.901  2.4478  1.5646 -0.1140
  835MOL0     H12683   1.209   2.518  10.737 -0.6157 -1.9207  0.0241
  835MOL0     H12684   1.065   2.622  10.742  1.9751  0.5292  3.2849
  835MOL0     H12685   0.994   2.299  10.435 -0.4453  1.2730 -2.2451
  835MOL0     H12686   0.846   2.156  10.308 -1.4885 -2.4795 -0.6908
  835MOL0     H12687   0.672   2.135  10.357  0.8617 -2.4853 -2.4441
  835MOL0     H12688   0.710   2.251  10.246 -2.0567 -1.4842  0.7855
  835MOL0     H12689   0.310   2.527  10.399 -0.8581  1.4874 -0.2319
  835MOL0     H12690   0.077   2.510  10.306  0.3594  0.2343  0.7207
  835MOL0     H12691  -0.011   2.272   9.955  0.7696  2.2668  2.0730
  835MOL0     H12692  -0.037   2.152  10.084 -1.1944 -1.8953 -1.1161
  835MOL0     H12693  -0.243   2.301  10.140 -2.6860  0.1169 -0.8950
  835MOL0     H12694  -0.222   2.373   9.976 -2.9528  0.4754  0.1863
  835MOL0     H12695  -0.282   2.087  10.047  2.3364  1.7802  1.4113
  835MOL0     H12696  -0.246   2.147   9.889 -1.2597 -1.4551 -0.9193
  835MOL0     H12697  -0.490   2.226  10.068 -0.2889 -2.2613  0.0595
  835MOL0     H12698  -0.470   2.266   9.889  2.6023  0.2977 -0.4989
  835MOL0     H12699  -0.490   1.994  10.018  0.9405 -1.3830 -0.2317
  835MOL0     H12700  -0.447   2.029   9.849 -1.6763  1.7056 -0.9999
  835MOL0     H12701  -0.718   2.109   9.965  1.2655  4.1151 -0.6185
  835MOL0     H12702  -0.667   2.118   9.797 -1.1626  4.7104  2.9159
  835MOL0     H12703  -0.618   1.862   9.860 -0.5227 -0.4760  0.5929
  835MOL0     H12704  -0.764   1.918   9.778 -0.0244 -0.5896  0.9919
  835MOL0     H12705  -0.861   1.937  10.027  0.2248 -0.6614  0.4056
  835MOL0     H12706  -0.720   1.851  10.073 -0.7234  0.4899  0.7587
  835MOL0     H12707   0.189   2.171  10.076 -3.4775 -1.3216  2.5577
  835MOL0     H12708   0.418   2.177  10.163 -0.4424 -1.0596  0.2563
  835MOL0     H12709   0.612   2.509  10.668 -1.0961  0.9245 -2.1969
  835MOL0     H12710   0.836   2.536  10.756  0.5890 -1.9200  1.4637
  835MOL0     H12711   0.466   2.845  10.609  0.7011 -0.0734  0.1168
  835MOL0     H12712   0.397   2.941  10.389  0.7191 -1.2862 -0.9742
  835MOL0     H12713   0.228   2.917   9.897 -2.7025 -2.5597  0.2396
  835MOL0     H12714   0.099   3.061   9.743  1.0801 -1.1874  0.4581
  835MOL0     H12715  -0.203   3.359   9.939  1.8418  2.7958  1.0388
  835MOL0     H12716  -0.063   3.441   9.883  1.2971  0.5587 -2.4652
  835MOL0     H12717  -0.306   3.466   9.775  0.5231  0.9268  0.6265
  835MOL0     H12718  -0.275   3.310   9.699  1.2637 -1.3500 -0.4359
  835MOL0     H12719  -0.234   3.466   9.544  0.2446 -3.8661 -1.0113
  835MOL0     H12720  -0.074   3.420   9.587 -3.2593 -4.8847 -0.4500
  835MOL0     H12721  -0.051   3.668   9.595  1.2208  3.4801  2.6227
  835MOL0     H12722  -0.087   3.646   9.766 -0.1826  0.3305 -0.5776
  835MOL0     H12723  -0.435   3.850   9.647  0.1120  1.6022 -0.3556
  835MOL0     H12724  -0.086   3.250  10.071  1.1498  0.2689  2.0336
  835MOL0     H12725   0.036   3.101  10.233  3.1599 -1.2312  0.6407
  836MOL0     O12726   3.091   0.178   3.887 -0.2707  0.6182 -0.6373
  836MOL0     C12727   3.093   0.211   3.770 -0.4673 -0.2184 -0.6717
  836MOL0     O12728   3.159   0.153   3.673  0.0042  0.6191 -0.1349
  836MOL0     C12729   3.242   0.045   3.700  0.0758  0.6486 -0.4603
  836MOL0     C12730   3.198  -0.087   3.677 -1.0173 -0.4153  0.2842
  836MOL0     C12731   3.289  -0.190   3.689  0.3219  0.3137 -1.0784
  836MOL0     C12732   3.418  -0.172   3.737  0.4886  0.1038 -0.5317
  836MOL0     O12733   3.491  -0.282   3.786 -0.4141  0.1541  0.5768
  836MOL0     C12734   3.602  -0.253   3.878 -0.1499  0.5706  0.6406
  836MOL0     C12735   3.680  -0.374   3.917  0.5336  1.1122  0.3574
  836MOL0     C12736   3.601  -0.472   4.010  0.2765  0.0146 -0.2118
  836MOL0     C12737   3.539  -0.591   3.936 -0.0312 -0.4961 -0.1780
  836MOL0     C12738   3.656  -0.691   3.907 -0.1228 -0.0866 -0.8142
  836MOL0     C12739   3.617  -0.835   3.887 -0.7861  0.3182  0.5264
  836MOL0     C12740   3.744  -0.924   3.878  0.4871 -0.2212  0.9875
  836MOL0     C12741   3.732  -1.035   3.771  0.7341  0.1665 -0.5819
  836MOL0     N12742   3.626  -1.132   3.816 -0.5544  0.2342 -0.6761
  836MOL0     C12743   3.521  -1.171   3.740  0.3700 -0.3679  0.5619
  836MOL0     C12744   3.480  -1.292   3.793 -0.4774 -0.0739  1.2230
  836MOL0     C12745   3.377  -1.386   3.736  0.0365 -0.8252 -0.7112
  836MOL0     C12746   3.241  -1.363   3.792 -0.5171  1.2851  0.0376
  836MOL0     C12747   3.178  -1.233   3.730  1.0024  0.1118  0.2937
  836MOL0     C12748   3.031  -1.225   3.769 -0.2423  0.6590 -0.2989
  836MOL0     O12749   2.983  -1.117   3.693 -0.4421  0.4332  0.6612
  836MOL0     C12750   2.865  -1.051   3.723  0.3731 -0.2120 -0.1892
  836MOL0     C12751   2.833  -0.929   3.663 -0.3039 -0.5619 -0.1067
  836MOL0     C12752   2.733  -0.847   3.704  0.5738 -0.0678 -0.4554
  836MOL0     C12753   2.711  -0.718   3.624 -0.5115  0.6658 -1.0509
  836MOL0     C12754   2.644  -0.881   3.814 -0.3456  0.2476  0.0351
  836MOL0     C12755   2.526  -0.800   3.859 -0.1055  0.5118  0.1687
  836MOL0     O12756   2.447  -0.866   3.951 -0.7054 -0.6107 -0.2651
  836MOL0     C12757   2.348  -0.794   4.011 -0.6143  0.1190  0.7344
  836MOL0     C12758   2.214  -0.826   3.975 -0.3160  0.3016 -0.4341
  836MOL0     C12759   2.105  -0.761   4.027 -0.1227 -0.0722 -0.3862
  836MOL0     C12760   2.123  -0.657   4.114  0.3088  0.4680  0.2753
  836MOL0     O12761   2.027  -0.571   4.154 -0.2825  0.0150  0.5354
  836MOL0     C12762   1.895  -0.584   4.105 -0.4240  0.2564  1.0761
  836MOL0     C12763   1.882  -0.527   3.964  0.6392 -0.5344 -0.2951
  836MOL0     C12764   1.891  -0.377   3.960 -0.4424  0.3280 -0.6678
  836MOL0     C12765   1.825  -0.310   3.843 -0.2817  0.1432  0.2267
  836MOL0     C12766   1.854  -0.164   3.846  0.2440 -0.3826  0.6812
  836MOL0     C12767   1.772  -0.076   3.739 -0.1003 -1.1847 -0.5619
  836MOL0     C12768   1.804   0.076   3.753 -0.4614 -1.0479 -0.1630
  836MOL0     C12769   1.696   0.168   3.702  0.4644  0.5037 -0.3538
  836MOL0    Cl12770   1.551   0.165   3.812  0.0008  0.6421 -0.1512
  836MOL0     C12771   2.256  -0.623   4.152 -0.7707 -0.5542 -0.3945
  836MOL0     C12772   2.366  -0.694   4.107 -0.5902 -0.4992  0.3191
  836MOL0     O12773   2.512  -0.682   3.823 -0.4291  0.4969 -0.2796
  836MOL0     C12774   2.673  -1.020   3.867  0.1306 -0.2809 -0.1290
  836MOL0     C12775   2.783  -1.091   3.821  0.5236 -0.4944 -0.0969
  836MOL0     N12776   3.558  -1.316   3.899 -0.5305  0.5059 -0.7195
  836MOL0     N12777   3.642  -1.217   3.921 -0.0564  0.7840  0.3988
  836MOL0     C12778   3.466  -0.036   3.761 -0.6630  0.2966 -0.0738
  836MOL0     C12779   3.378   0.070   3.738  1.0207  0.5164 -0.3017
  836MOL0     C12780   3.016   0.332   3.736 -0.5093 -0.7030 -0.6558
  836MOL0     C12781   3.006   0.365   3.602  0.1812  0.0446 -0.4723
  836MOL0     C12782   2.912   0.457   3.557 -0.2004  0.2514  0.0408
  836MOL0     C12783   2.827   0.528   3.642 -0.7839  0.1667  0.9310
  836MOL0     O12784   2.753   0.633   3.601 -0.4691  0.5887  0.6018
  836MOL0     C12785   2.653   0.621   3.496 -0.5836  0.3276 -0.7508
  836MOL0     C12786   2.532   0.701   3.543  0.3313  0.3064  1.0146
  836MOL0     C12787   2.437   0.708   3.425  0.7683  0.1420 -0.7484
  836MOL0     C12788   2.299   0.638   3.447 -0.4726 -0.3298 -0.1727
  836MOL0     C12789   2.236   0.714   3.549  0.1055 -0.1782  0.1672
  836MOL0     C12790   2.166   0.778   3.633  0.1702 -0.0117  0.0693
  836MOL0     C12791   2.848   0.497   3.777 -0.1769  0.5659 -1.2336
  836MOL0     C12792   2.938   0.403   3.825 -0.3929  0.8291  0.0814
  836MOL0     H12793   3.095  -0.116   3.655 -1.3659  0.5038  0.6761
  836MOL0     H12794   3.251  -0.291   3.687  0.5433  0.1581  0.7250
  836MOL0     H12795   3.675  -0.192   3.824  0.0565  0.9455  1.3458
  836MOL0     H12796   3.565  -0.196   3.963 -1.0843  1.7269 -0.5099
  836MOL0     H12797   3.716  -0.432   3.832  0.8486  1.0874  0.5047
  836MOL0     H12798   3.762  -0.344   3.984 -1.4279 -1.3406  4.2408
  836MOL0     H12799   3.666  -0.504   4.093 -0.6021  1.0243  0.9067
  836MOL0     H12800   3.524  -0.415   4.063 -0.1411 -1.2039  0.5332
  836MOL0     H12801   3.458  -0.629   3.999 -1.4328  0.7668 -1.1429
  836MOL0     H12802   3.500  -0.557   3.840  2.0115  2.9472  0.0188
  836MOL0     H12803   3.704  -0.656   3.815  1.1640 -1.0985 -0.5697
  836MOL0     H12804   3.738  -0.697   3.980  1.3920 -0.1038 -2.4314
  836MOL0     H12805   3.566  -0.867   3.978  2.4198 -1.0920  1.9942
  836MOL0     H12806   3.554  -0.850   3.799  3.2282  1.4818 -2.8670
  836MOL0     H12807   3.826  -0.861   3.843 -0.1126  0.1699  0.2623
  836MOL0     H12808   3.774  -0.955   3.978 -0.3910 -2.6447  0.5831
  836MOL0     H12809   3.831  -1.078   3.751  0.1434 -0.1817 -3.1559
  836MOL0     H12810   3.699  -0.997   3.674  0.7815 -1.5268 -1.2887
  836MOL0     H12811   3.481  -1.125   3.651 -0.3421  1.3159  1.6849
  836MOL0     H12812   3.372  -1.377   3.627 -1.2358  3.4230 -0.4748
  836MOL0     H12813   3.394  -1.493   3.755  2.5258 -0.3005  0.3136
  836MOL0     H12814   3.248  -1.350   3.900  0.1360 -0.9282  0.3164
  836MOL0     H12815   3.178  -1.444   3.754  0.0003  0.1492  1.5164
  836MOL0     H12816   3.190  -1.245   3.622 -0.4354  3.4056 -0.3503
  836MOL0     H12817   3.228  -1.142   3.763  1.6143 -0.7003  1.7452
  836MOL0     H12818   3.026  -1.199   3.875 -0.0611  1.0181 -0.3745
  836MOL0     H12819   2.975  -1.318   3.758 -1.4152  1.0380  1.8665
  836MOL0     H12820   2.889  -0.883   3.582 -0.7445 -0.9097 -0.6152
  836MOL0     H12821   2.612  -0.734   3.578 -0.0666 -1.0607 -1.4956
  836MOL0     H12822   2.712  -0.632   3.690  0.0929  3.5335 -4.5036
  836MOL0     H12823   2.782  -0.699   3.543  0.7370  0.7234  0.0422
  836MOL0     H12824   2.183  -0.899   3.901 -1.4075  1.5129 -1.2220
  836MOL0     H12825   2.004  -0.790   3.998  0.9479 -2.8099 -1.7049
  836MOL0     H12826   1.858  -0.686   4.120 -3.0078  1.2953  2.4419
  836MOL0     H12827   1.840  -0.520   4.175  0.7778  0.6698  1.6645
  836MOL0     H12828   1.963  -0.572   3.906 -0.2661 -0.0060 -2.0357
  836MOL0     H12829   1.790  -0.553   3.909  1.7841 -0.5771 -2.3011
  836MOL0     H12830   1.990  -0.334   3.978 -0.7030  1.8831 -2.6043
  836MOL0     H12831   1.834  -0.344   4.048 -0.2418  1.5879 -0.9901
  836MOL0     H12832   1.853  -0.357   3.748  0.1193  1.1476 -0.1725
  836MOL0     H12833   1.719  -0.337   3.848 -0.3356  0.1948 -0.4589
  836MOL0     H12834   1.955  -0.134   3.817  0.4170 -0.6385  1.0069
  836MOL0     H12835   1.849  -0.131   3.950 -1.4154 -2.4147  1.3325
  836MOL0     H12836   1.808  -0.099   3.638 -0.7774 -0.8777 -0.8786
  836MOL0     H12837   1.666  -0.099   3.754  0.1359  0.0102  5.1141
  836MOL0     H12838   1.891   0.090   3.689  0.0175 -3.9273 -0.2616
  836MOL0     H12839   1.828   0.096   3.858 -0.1579 -3.5538  0.3081
  836MOL0     H12840   1.666   0.119   3.609  2.0532 -1.9409  0.3167
  836MOL0     H12841   1.720   0.273   3.682 -2.7975  1.9830  2.4572
  836MOL0     H12842   2.273  -0.538   4.217 -4.3340  2.2650 -2.7292
  836MOL0     H12843   2.468  -0.669   4.135 -0.4373  2.2851 -2.2047
  836MOL0     H12844   2.613  -1.072   3.941 -0.1752 -0.8267 -0.7512
  836MOL0     H12845   2.796  -1.187   3.870 -1.1714  0.3587  2.2153
  836MOL0     H12846   3.568  -0.008   3.788 -0.3407  1.7521 -2.5677
  836MOL0     H12847   3.403   0.175   3.754 -1.0271  0.9074  0.7417
  836MOL0     H12848   3.057   0.313   3.522  0.2036 -0.9081  0.1439
  836MOL0     H12849   2.908   0.487   3.453 -1.1851  1.1566  0.3285
  836MOL0     H12850   2.704   0.656   3.407  0.7203  1.8857  0.5448
  836MOL0     H12851   2.616   0.521   3.471 -0.2536  0.4065 -1.5862
  836MOL0     H12852   2.567   0.801   3.569 -2.1096  1.7077 -0.5695
  836MOL0     H12853   2.476   0.654   3.624 -0.6365  0.2920  0.3594
  836MOL0     H12854   2.487   0.672   3.334  0.2054 -2.7781  0.0113
  836MOL0     H12855   2.416   0.815   3.416  0.0247  0.0511 -0.1223
  836MOL0     H12856   2.317   0.533   3.467  1.2701 -0.0361 -0.0495
  836MOL0     H12857   2.250   0.640   3.349 -2.4323 -0.2217  0.7654
  836MOL0     H12858   2.120   0.831   3.714  4.3607  0.3106  2.5771
  836MOL0     H12859   2.788   0.552   3.848  1.6456  1.0550 -0.0122
  836MOL0     H12860   2.951   0.377   3.930  3.6922  1.2089 -0.1601
  837MOL0     O12861   2.618  11.055   7.709  0.8690  0.4436 -0.2142
  837MOL0     C12862   2.579  10.941   7.683  0.4455 -0.2178 -0.7191
  837MOL0     O12863   2.651  10.851   7.610  0.1116  0.4571  0.2591
  837MOL0     C12864   2.774  10.872   7.553 -0.2061 -0.3958  1.0353
  837MOL0     C12865   2.821  10.994   7.509 -0.3035  0.6954  0.4836
  837MOL0     C12866   2.937  11.005   7.434  0.1887 -0.4299  0.8280
  837MOL0     C12867   3.003  10.889   7.388 -0.2672  0.4336  0.8295
  837MOL0     O12868   3.123  10.927   7.312 -0.4502 -0.5628  0.6405
  837MOL0     C12869   3.225  10.829   7.326 -0.3863  0.4224 -0.6525
  837MOL0     C12870   3.300  10.849   7.453 -0.3056  0.3478 -0.5052
  837MOL0     C12871   3.440  10.791   7.452  0.8093  0.6685 -0.3113
  837MOL0     C12872   3.542  10.852   7.553 -0.4156  0.3457  0.0484
  837MOL0     C12873   3.671  10.761   7.567  0.3415 -0.1686  0.9972
  837MOL0     C12874   3.781  10.776   7.456  0.2014 -0.1577 -0.1617
  837MOL0     C12875   3.883  10.661   7.475  0.2342 -0.2962 -0.2119
  837MOL0     C12876   4.012  10.694   7.409 -0.1179 -0.5691  0.0148
  837MOL0     N12877   4.104  10.756   7.506  0.6608 -1.0138  0.2368
  837MOL0     C12878   4.242  10.763   7.490  0.5515 -0.3106 -0.7659
  837MOL0     C12879   4.289  10.829   7.603  0.0202  0.3519 -1.0468
  837MOL0     C12880   4.431  10.855   7.659 -0.0311 -0.7221  0.7081
  837MOL0     C12881   4.473  10.768   7.780 -0.3400 -0.0532  0.3403
  837MOL0     C12882   4.610  10.802   7.820 -0.7186 -0.4051  0.0134
  837MOL0     C12883   4.713  10.705   7.761  0.1625  0.2186 -0.2864
  837MOL0     O12884   4.838  10.740   7.827 -0.7488  0.0537 -0.3473
  837MOL0     C12885   4.952  10.663   7.804  0.2332 -0.4322 -0.5070
  837MOL0     C12886   5.068  10.685   7.866 -0.7429  0.4386  0.3692
  837MOL0     C12887   5.185  10.612   7.859  0.2136  0.6678  0.8579
  837MOL0     C12888   5.308  10.670   7.916 -0.3784 -0.0466  0.1985
  837MOL0     C12889   5.188  10.511   7.764  0.0709 -0.5511 -0.7552
  837MOL0     C12890   5.312  10.433   7.738  0.2433  0.0914 -1.1185
  837MOL0     O12891   5.402  10.412   7.840  0.4079 -0.5050  0.0381
  837MOL0     C12892   5.506  10.321   7.831 -0.5203 -0.4470  0.8801
  837MOL0     C12893   5.508  10.209   7.743 -0.9938 -0.2043  0.8562
  837MOL0     C12894   5.617  10.135   7.716 -0.1947  0.8670 -1.1804
  837MOL0     C12895   5.733  10.153   7.800 -1.1129 -0.0734  0.2264
  837MOL0     O12896   5.846  10.076   7.797  0.2591  0.2697 -0.0129
  837MOL0     C12897   5.882  10.022   7.662 -0.1545 -0.2529 -0.4916
  837MOL0     C12898   6.027   9.985   7.678  0.1088  0.1485 -0.2996
  837MOL0     C12899   6.039   9.869   7.776  0.2047  0.5802 -0.6241
  837MOL0     C12900   6.180   9.855   7.826  0.1879 -0.7043 -0.2962
  837MOL0     C12901   6.218   9.725   7.904  0.0673 -0.1460 -0.7682
  837MOL0     C12902   6.302   9.753   8.029 -0.6340  0.0752 -0.4131
  837MOL0     C12903   6.361   9.621   8.074  1.1095 -0.0650  0.1304
  837MOL0     C12904   6.433   9.631   8.195 -0.1644  0.1047  0.6053
  837MOL0    Cl12905   6.521   9.482   8.225  0.1803 -0.4343 -0.1324
  837MOL0     C12906   5.735  10.259   7.897  0.2451 -0.3236  0.3050
  837MOL0     C12907   5.616  10.332   7.921 -0.3186 -0.4784  0.1224
  837MOL0     O12908   5.336  10.414   7.621 -0.7182  0.0407  1.2789
  837MOL0     C12909   5.073  10.473   7.689  0.3428  0.4344 -0.2841
  837MOL0     C12910   4.958  10.552   7.719  0.3429  0.1846  0.4820
  837MOL0     N12911   4.182  10.868   7.686 -0.2730 -0.1268 -0.4784
  837MOL0     N12912   4.077  10.824   7.619  0.0258 -0.1724 -0.4811
  837MOL0     C12913   2.957  10.761   7.423  0.3611 -0.1962 -0.5492
  837MOL0     C12914   2.844  10.755   7.512  1.1257 -0.4257 -0.3153
  837MOL0     C12915   2.462  10.901   7.757 -0.3743 -0.6102  0.1078
  837MOL0     C12916   2.412  10.777   7.727 -0.0700  0.7987 -0.3606
  837MOL0     C12917   2.313  10.721   7.815 -0.0660 -0.6335  1.3936
  837MOL0     C12918   2.275  10.793   7.923 -0.2022  0.7036  0.8470
  837MOL0     O12919   2.195  10.735   8.017 -0.3672  0.4275  0.3229
  837MOL0     C12920   2.175  10.587   8.040  0.0352 -0.2447 -0.6039
  837MOL0     C12921   2.030  10.564   8.009 -0.1560 -0.5751  0.2300
  837MOL0     C12922   1.979  10.419   8.025 -0.7121 -0.8393 -0.4849
  837MOL0     C12923   1.920  10.382   8.163 -0.0280  0.1619 -0.2777
  837MOL0     C12924   1.895  10.235   8.176 -0.9756 -0.1241 -0.0015
  837MOL0     C12925   1.854  10.119   8.192  0.4886 -0.3131 -0.3537
  837MOL0     C12926   2.318  10.919   7.953  0.3584  0.9004  0.8259
  837MOL0     C12927   2.417  10.972   7.868  0.8989  0.4092 -0.1078
  837MOL0     H12928   2.760  11.081   7.528 -0.9411  0.0346  1.5393
  837MOL0     H12929   2.965  11.103   7.397 -0.2440  1.0288  4.0807
  837MOL0     H12930   3.198  10.724   7.312 -0.5323  0.3065  0.3846
  837MOL0     H12931   3.291  10.852   7.242 -0.1628  1.5327 -0.1920
  837MOL0     H12932   3.317  10.957   7.462  4.7068 -0.0649 -2.0405
  837MOL0     H12933   3.247  10.801   7.536 -2.0459  3.7433  0.5434
  837MOL0     H12934   3.428  10.685   7.477 -1.9825  0.4046 -2.3415
  837MOL0     H12935   3.485  10.790   7.352  0.0453 -2.4045 -0.7180
  837MOL0     H12936   3.558  10.957   7.524 -4.1732  0.5911 -1.6594
  837MOL0     H12937   3.490  10.868   7.648 -2.3885  3.3626 -1.3799
  837MOL0     H12938   3.709  10.784   7.667 -1.5736  0.2535  1.6772
  837MOL0     H12939   3.636  10.658   7.557 -3.5573  1.0610  0.1442
  837MOL0     H12940   3.735  10.777   7.357 -0.0758 -0.6781 -0.0423
  837MOL0     H12941   3.830  10.873   7.473 -0.5071 -0.1145  1.9977
  837MOL0     H12942   3.897  10.617   7.574  3.9849 -3.4132 -1.8584
  837MOL0     H12943   3.833  10.584   7.417  0.0141  0.8308 -1.5701
  837MOL0     H12944   4.007  10.768   7.329  3.6823  1.2533  1.1942
  837MOL0     H12945   4.058  10.602   7.371 -0.4569 -1.3304  1.3555
  837MOL0     H12946   4.296  10.722   7.405 -2.0846 -1.7106 -1.8818
  837MOL0     H12947   4.496  10.829   7.575  0.8435  1.3870  0.6939
  837MOL0     H12948   4.447  10.958   7.691  1.5021 -0.5818 -0.4056
  837MOL0     H12949   4.459  10.667   7.740 -0.5714  0.7614 -1.7705
  837MOL0     H12950   4.401  10.788   7.860 -3.7407  3.5702 -3.1455
  837MOL0     H12951   4.619  10.806   7.929 -0.0881 -1.5635  0.0247
  837MOL0     H12952   4.625  10.904   7.783 -0.8664  0.3106  1.8204
  837MOL0     H12953   4.710  10.712   7.652 -0.1078 -2.1937 -0.4910
  837MOL0     H12954   4.686  10.603   7.791 -0.9321 -0.5100 -3.3517
  837MOL0     H12955   5.057  10.764   7.940 -0.6067 -0.5977  1.5465
  837MOL0     H12956   5.303  10.774   7.949  0.8732 -0.3523  1.4475
  837MOL0     H12957   5.351  10.609   7.996 -0.3623  0.2932  0.4486
  837MOL0     H12958   5.385  10.675   7.839 -1.3271  1.6103 -0.6889
  837MOL0     H12959   5.417  10.195   7.685 -0.2748  0.5592 -0.5161
  837MOL0     H12960   5.613  10.038   7.667 -0.8405  0.3634 -0.1794
  837MOL0     H12961   5.829   9.928   7.644  0.1884 -0.8138  1.2434
  837MOL0     H12962   5.874  10.104   7.591  4.6153 -1.3530 -2.6217
  837MOL0     H12963   6.064   9.951   7.581  0.5588 -1.8158  0.4981
  837MOL0     H12964   6.077  10.065   7.733 -0.6244 -0.5583  1.4596
  837MOL0     H12965   6.010   9.779   7.721  2.0248 -1.2520  1.2422
  837MOL0     H12966   5.961   9.870   7.852  0.2249 -0.2311 -0.5898
  837MOL0     H12967   6.237   9.859   7.733  0.4288 -0.2060 -0.1291
  837MOL0     H12968   6.200   9.944   7.885 -3.9086  0.2978 -0.1092
  837MOL0     H12969   6.273   9.656   7.840  2.0689 -2.1801  2.8226
  837MOL0     H12970   6.130   9.671   7.939  0.7293 -0.6868  0.1054
  837MOL0     H12971   6.376   9.833   8.016 -0.9187  0.2713 -0.8302
  837MOL0     H12972   6.249   9.794   8.115  0.9922  0.2803  0.5403
  837MOL0     H12973   6.415   9.584   7.986  0.6583 -2.1762  0.6690
  837MOL0     H12974   6.280   9.550   8.096 -1.2767  3.0935  2.3368
  837MOL0     H12975   6.363   9.648   8.277 -3.2269 -1.4198 -1.4888
  837MOL0     H12976   6.505   9.713   8.196 -0.2842  0.3227 -2.0407
  837MOL0     H12977   5.828  10.280   7.950 -0.2731 -0.5671  1.3311
  837MOL0     H12978   5.625  10.415   7.990  1.3176 -1.0055  0.5817
  837MOL0     H12979   5.087  10.388   7.623  1.3152 -1.4867  2.2415
  837MOL0     H12980   4.874  10.529   7.655  2.1545 -1.1020 -1.5826
  837MOL0     H12981   3.010  10.672   7.391  0.0924  0.7980 -4.2376
  837MOL0     H12982   2.800  10.659   7.537  1.7837 -1.0762 -1.5342
  837MOL0     H12983   2.454  10.717   7.647  1.3976  1.1544  0.1142
  837MOL0     H12984   2.289  10.616   7.799 -0.2999 -0.4691  0.6086
  837MOL0     H12985   2.247  10.523   7.989  0.9256 -0.1120  0.4483
  837MOL0     H12986   2.189  10.556   8.144  3.3220 -1.2595 -1.2405
  837MOL0     H12987   2.017  10.592   7.904 -0.5623 -0.9834  0.1686
  837MOL0     H12988   1.968  10.628   8.074  0.6452  0.8360 -0.3545
  837MOL0     H12989   2.069  10.357   8.015  0.9228  0.8142  2.6008
  837MOL0     H12990   1.908  10.397   7.944 -1.5044 -2.0561  0.5006
  837MOL0     H12991   1.824  10.433   8.179 -0.9156 -1.5714  0.0854
  837MOL0     H12992   1.987  10.405   8.246 -2.0373  0.8926  1.2421
  837MOL0     H12993   1.819  10.024   8.226 -2.4334  1.6519  2.7042
  837MOL0     H12994   2.286  10.960   8.048 -4.8058 -1.8634  0.6536
  837MOL0     H12995   2.461  11.068   7.893  1.3181  0.2426 -0.2090
  838MOL0     O12996   2.949   1.444  11.374  0.4103 -0.1755 -0.7832
  838MOL0     C12997   2.968   1.319  11.376 -0.1293  0.0741  0.8450
  838MOL0     O12998   2.874   1.231  11.401  0.1028  0.8384 -0.3128
  838MOL0     C12999   2.738   1.267  11.392 -0.4391  0.3074  0.8997
  838MOL0     C13000   2.679   1.332  11.284  0.2559  1.0031 -0.2124
  838MOL0     C13001   2.534   1.343  11.290  0.3801 -0.3757 -0.4079
  838MOL0     C13002   2.461   1.322  11.404 -1.0058 -0.4984 -0.1769
  838MOL0     O13003   2.319   1.336  11.394  0.3262 -0.5537 -0.8856
  838MOL0     C13004   2.233   1.330  11.507  0.0788  0.1957 -0.5857
  838MOL0     C13005   2.241   1.446  11.611  0.3175 -0.8363 -0.4005
  838MOL0     C13006   2.161   1.556  11.549  0.2129 -0.3648  0.1351
  838MOL0     C13007   2.162   1.668  11.648  0.5132 -0.5071  1.1016
  838MOL0     C13008   2.084   1.791  11.609 -0.9157 -0.4004  0.8899
  838MOL0     C13009   2.055   1.885  11.724  0.4161  0.7844 -0.3293
  838MOL0     C13010   2.129   2.019  11.733  0.4595 -0.1074  0.2284
  838MOL0     C13011   2.285   2.041  11.731  0.1896  2.1008 -0.2585
  838MOL0     N13012   2.335   2.000  11.862 -0.0118 -0.0503 -0.2076
  838MOL0     C13013   2.413   1.890  11.877 -0.0972  0.0019 -0.7643
  838MOL0     C13014   2.471   1.893  12.004  1.1124 -0.4969 -0.5420
  838MOL0     C13015   2.575   1.810  12.075 -0.0550  0.4201 -0.2768
  838MOL0     C13016   2.552   1.793  12.220 -0.9385 -0.7323 -0.5550
  838MOL0     C13017   2.667   1.711  12.276 -0.2313  0.6379  0.1033
  838MOL0     C13018   2.681   1.736  12.423 -0.6382  0.5957  0.6223
  838MOL0     O13019   2.755   1.854  12.451 -0.0870  0.0868  0.3935
  838MOL0     C13020   2.887   1.849  12.447  0.4367  0.0161 -0.6074
  838MOL0     C13021   2.956   1.975  12.427  0.1199 -0.5818 -0.7727
  838MOL0     C13022   3.098   1.984  12.442  0.0158 -0.1265 -0.7261
  838MOL0     C13023   3.166   2.109  12.399  0.5400 -0.4403  0.5747
  838MOL0     C13024   3.175   1.876  12.484  0.5543 -0.2976  0.4699
  838MOL0     C13025   3.325   1.872  12.505  0.0944  0.5944 -0.0628
  838MOL0     O13026   3.384   1.747  12.515 -0.4048 -0.6895  0.3245
  838MOL0     C13027   3.523   1.739  12.546  1.3447 -0.0784  0.0323
  838MOL0     C13028   3.601   1.663  12.460 -1.4213  0.2416  0.4095
  838MOL0     C13029   3.736   1.637  12.505 -0.3743 -0.3523  1.5754
  838MOL0     C13030   3.796   1.684  12.619 -0.3749  0.8713 -0.3255
  838MOL0     O13031   3.930   1.662  12.650  0.0496 -0.7471 -0.2448
  838MOL0     C13032   3.943   1.609  12.785  0.2653 -0.6575 -0.3430
  838MOL0     C13033   4.082   1.563  12.813  1.2253  0.2319 -0.0719
  838MOL0     C13034   4.088   1.411  12.773  0.1712 -0.1670  1.2284
  838MOL0     C13035   4.234   1.366  12.794  0.7876 -0.9720  0.2598
  838MOL0     C13036   4.302   1.248  12.724 -0.0812  0.3927 -0.0674
  838MOL0     C13037   4.450   1.236  12.752  0.2684  0.2510 -0.1412
  838MOL0     C13038   4.488   1.248  12.905 -0.5076  0.5844 -0.5105
  838MOL0     C13039   4.637   1.213  12.921  0.2240 -0.5665  0.8290
  838MOL0    Cl13040   4.692   1.045  12.891  0.0195 -0.6472  0.2588
  838MOL0     C13041   3.703   1.751  12.705 -1.0347 -0.5245 -0.2299
  838MOL0     C13042   3.578   1.788  12.661 -0.5207  0.3267 -0.6408
  838MOL0     O13043   3.384   1.983  12.508 -0.0044 -0.1389 -0.3651
  838MOL0     C13044   3.106   1.752  12.499 -1.0284 -0.3259 -0.7248
  838MOL0     C13045   2.969   1.738  12.482 -0.5376 -0.7271 -0.4991
  838MOL0     N13046   2.424   2.014  12.055 -0.5654  0.1536 -0.4110
  838MOL0     N13047   2.338   2.071  11.975  0.1054 -0.0103  0.6325
  838MOL0     C13048   2.530   1.274  11.522 -0.8984 -0.3027  1.1271
  838MOL0     C13049   2.664   1.239  11.508  0.5448  0.2159  0.7760
  838MOL0     C13050   3.107   1.274  11.367 -0.1704  0.3867  0.2145
  838MOL0     C13051   3.136   1.136  11.373 -0.1665  0.7664 -0.0539
  838MOL0     C13052   3.266   1.091  11.339 -0.4743  0.5486  0.9152
  838MOL0     C13053   3.365   1.187  11.308  0.1086  0.1260 -0.3019
  838MOL0     O13054   3.484   1.138  11.261  0.5501  0.1725  0.6197
  838MOL0     C13055   3.558   1.217  11.168 -0.3282  0.2911 -0.0501
  838MOL0     C13056   3.488   1.236  11.037  0.3305 -0.3556 -0.5229
  838MOL0     C13057   3.429   1.101  10.982 -0.5727  0.2451  0.1492
  838MOL0     C13058   3.415   1.105  10.835 -0.4014  0.6755  0.2627
  838MOL0     C13059   3.378   0.975  10.774 -0.3412 -0.0005  0.0580
  838MOL0     C13060   3.344   0.870  10.735 -0.6065  0.1527  0.1355
  838MOL0     C13061   3.339   1.322  11.331 -0.7042 -0.1030 -0.0005
  838MOL0     C13062   3.213   1.364  11.358 -0.6291  0.0344 -0.4909
  838MOL0     H13063   2.746   1.347  11.200  0.4384  0.7673 -0.1102
  838MOL0     H13064   2.487   1.372  11.197  0.2416 -1.1464 -0.5929
  838MOL0     H13065   2.128   1.315  11.482 -0.0080 -2.0348  0.8061
  838MOL0     H13066   2.274   1.244  11.563  1.2190  2.4319  2.2603
  838MOL0     H13067   2.221   1.427  11.717 -2.3708  1.9950 -0.2286
  838MOL0     H13068   2.347   1.472  11.603  0.0665 -0.2406 -2.5732
  838MOL0     H13069   2.206   1.593  11.456 -0.6067  0.1279 -0.0814
  838MOL0     H13070   2.058   1.526  11.526 -0.1040  0.9241 -0.2066
  838MOL0     H13071   2.111   1.634  11.739 -2.1932  2.2558  0.7945
  838MOL0     H13072   2.261   1.707  11.675 -0.3169  1.6767  1.2001
  838MOL0     H13073   2.124   1.843  11.521 -1.7988 -2.2567 -0.6646
  838MOL0     H13074   1.989   1.755  11.569  0.1612 -0.7194 -1.5518
  838MOL0     H13075   1.948   1.906  11.719 -0.0370 -1.1641  0.2452
  838MOL0     H13076   2.056   1.828  11.817 -1.5155  1.7934  0.3663
  838MOL0     H13077   2.085   2.076  11.650  0.2946 -1.4534 -0.6410
  838MOL0     H13078   2.086   2.047  11.829 -1.5288 -3.7761  0.6118
  838MOL0     H13079   2.327   2.140  11.714 -0.7154  2.3882 -0.8652
  838MOL0     H13080   2.321   1.964  11.662 -1.5441  0.1894  0.8329
  838MOL0     H13081   2.420   1.810  11.804 -3.1756  1.2501 -2.6260
  838MOL0     H13082   2.574   1.712  12.027  1.8229  0.5646 -0.7195
  838MOL0     H13083   2.665   1.872  12.061 -0.2708  0.4230 -1.7334
  838MOL0     H13084   2.450   1.769  12.253 -1.5984  1.8572 -0.5443
  838MOL0     H13085   2.561   1.892  12.264 -2.0830 -0.6066 -0.5633
  838MOL0     H13086   2.763   1.729  12.227 -1.7227  2.3067 -2.5288
  838MOL0     H13087   2.640   1.606  12.272 -0.5705  0.7602 -1.2922
  838MOL0     H13088   2.724   1.648  12.472  2.5050  1.6169 -0.0499
  838MOL0     H13089   2.586   1.774  12.462 -0.2084  3.3486 -0.7564
  838MOL0     H13090   2.901   2.067  12.408  2.4727  1.4521  1.4636
  838MOL0     H13091   3.090   2.183  12.371 -0.0259 -0.9728  0.6702
  838MOL0     H13092   3.211   2.161  12.484  1.6841  3.3427 -2.0337
  838MOL0     H13093   3.236   2.090  12.317  2.5443  2.9071  1.3208
  838MOL0     H13094   3.561   1.603  12.379 -0.2508 -1.1808  0.8393
  838MOL0     H13095   3.797   1.589  12.430 -1.8826  1.8152 -1.2350
  838MOL0     H13096   3.918   1.684  12.861  1.5610 -0.1779 -0.3629
  838MOL0     H13097   3.883   1.523  12.814 -1.4839  0.6401  0.0495
  838MOL0     H13098   4.146   1.619  12.744  2.3360 -0.3976  0.4328
  838MOL0     H13099   4.100   1.580  12.920 -2.3481  0.0517  0.6711
  838MOL0     H13100   4.042   1.405  12.673  1.8590  1.2786  0.2991
  838MOL0     H13101   4.029   1.355  12.846 -0.3082  1.1980  1.9192
  838MOL0     H13102   4.293   1.457  12.783  2.5069 -1.4589  4.1141
  838MOL0     H13103   4.245   1.347  12.901  0.8142 -1.6136  0.1491
  838MOL0     H13104   4.288   1.260  12.616  0.5964  0.1903 -0.1850
  838MOL0     H13105   4.257   1.152  12.749 -3.3428  1.3764 -1.6221
  838MOL0     H13106   4.501   1.147  12.716  1.1535  0.8987 -0.5378
  838MOL0     H13107   4.492   1.317  12.692  0.8365  1.1475  1.4037
  838MOL0     H13108   4.443   1.165  12.960 -1.2903 -1.9426 -4.4839
  838MOL0     H13109   4.464   1.346  12.947 -0.9097 -0.9263  3.1361
  838MOL0     H13110   4.669   1.241  13.022  0.8682  2.0317 -0.0118
  838MOL0     H13111   4.696   1.282  12.860  1.3627  1.0226  3.5636
  838MOL0     H13112   3.739   1.788  12.800  0.9926  0.8608 -1.4568
  838MOL0     H13113   3.531   1.866  12.720  2.3758  2.1074 -0.5288
  838MOL0     H13114   3.157   1.662  12.531 -0.0330 -0.8429 -3.4304
  838MOL0     H13115   2.951   1.631  12.491 -1.3839 -0.7626 -2.2162
  838MOL0     H13116   2.473   1.232  11.605 -1.4794 -1.8195  0.0037
  838MOL0     H13117   2.718   1.199  11.593  0.0584  1.4869  1.7150
  838MOL0     H13118   3.059   1.060  11.389 -1.6026  1.1678 -3.8928
  838MOL0     H13119   3.283   0.987  11.314 -0.0290  0.8538 -0.1382
  838MOL0     H13120   3.591   1.314  11.206 -2.6765  1.7192 -1.3828
  838MOL0     H13121   3.647   1.155  11.155  2.1582  3.4521  0.5546
  838MOL0     H13122   3.561   1.279  10.969  1.9661  0.0525  1.3828
  838MOL0     H13123   3.406   1.308  11.040 -0.2801 -1.0424  1.5368
  838MOL0     H13124   3.331   1.078  11.024 -1.4730  1.3636 -1.2334
  838MOL0     H13125   3.502   1.024  11.009  0.1744  0.5372 -0.9657
  838MOL0     H13126   3.519   1.124  10.804 -0.6366  1.3823 -0.1044
  838MOL0     H13127   3.358   1.191  10.800  0.2383  1.3258  0.8000
  838MOL0     H13128   3.317   0.775  10.694  1.2370 -0.2150 -0.2836
  838MOL0     H13129   3.421   1.390  11.309 -1.1676  1.2409  2.0834
  838MOL0     H13130   3.193   1.471  11.353  2.7820  0.7829 -0.3292
  839MOL0     O13131   1.107  10.608  11.372 -0.6859 -0.6022 -0.4600
  839MOL0     C13132   1.022  10.695  11.394 -0.0425 -0.0791  0.4384
  839MOL0     O13133   0.887  10.677  11.407 -0.1607  0.0914  0.1006
  839MOL0     C13134   0.852  10.552  11.421 -0.2605  0.3642 -0.0809
  839MOL0     C13135   0.843  10.495  11.548  0.6391 -0.2646  0.2778
  839MOL0     C13136   0.790  10.367  11.564 -0.6002 -0.5112 -0.6766
  839MOL0     C13137   0.749  10.288  11.458  0.0490 -0.7613 -0.1098
  839MOL0     O13138   0.709  10.166  11.487  0.7060  0.3067 -0.4914
  839MOL0     C13139   0.614  10.090  11.412 -0.2412 -0.1045 -0.6171
  839MOL0     C13140   0.616   9.937  11.429 -0.1683  0.8284 -0.6415
  839MOL0     C13141   0.608   9.898  11.571  0.3572  0.0525 -0.6460
  839MOL0     C13142   0.610   9.748  11.605  0.7986  0.8744  0.5002
  839MOL0     C13143   0.507   9.661  11.518 -0.0500 -0.7464  0.4665
  839MOL0     C13144   0.540   9.508  11.541  0.0372 -0.3596 -0.3787
  839MOL0     C13145   0.449   9.410  11.463 -0.1625  0.2609 -0.4380
  839MOL0     C13146   0.464   9.259  11.486 -0.8479 -0.8882 -1.2703
  839MOL0     N13147   0.403   9.173  11.395  0.2290 -0.3419  0.6604
  839MOL0     C13148   0.294   9.091  11.417  0.1179 -0.6687  0.6645
  839MOL0     C13149   0.259   9.023  11.302  0.1056  0.6346 -0.3949
  839MOL0     C13150   0.153   8.922  11.289  1.1497 -0.8958 -0.1296
  839MOL0     C13151   0.050   8.928  11.408  1.2178  0.2014  0.2138
  839MOL0     C13152  -0.077   8.856  11.368  0.6305  0.1015  0.0467
  839MOL0     C13153  -0.161   8.808  11.497 -0.3338  0.2528  0.7268
  839MOL0     O13154  -0.266   8.715  11.448  0.6981  0.5495 -0.7297
  839MOL0     C13155  -0.311   8.630  11.546  0.1450 -0.6870  0.7352
  839MOL0     C13156  -0.323   8.671  11.676 -0.0908  0.0090 -0.6377
  839MOL0     C13157  -0.375   8.588  11.778  0.5867  0.0397  1.2724
  839MOL0     C13158  -0.397   8.634  11.919 -0.6663 -0.2698  0.4036
  839MOL0     C13159  -0.418   8.456  11.733  0.2844 -1.2976  0.2860
  839MOL0     C13160  -0.475   8.348  11.815 -0.8439  0.8327 -0.2306
  839MOL0     O13161  -0.486   8.221  11.765 -0.0841 -0.1443 -0.7648
  839MOL0     C13162  -0.561   8.130  11.837  0.3022 -0.4803 -0.4030
  839MOL0     C13163  -0.667   8.145  11.924 -0.5622  0.8184  0.2624
  839MOL0     C13164  -0.740   8.034  11.970  0.0012  0.6554  1.0100
  839MOL0     C13165  -0.702   7.906  11.943  0.2382  0.4774  0.0503
  839MOL0     O13166  -0.783   7.823  12.009  0.0556  0.5893 -0.9271
  839MOL0     C13167  -0.751   7.677  12.004  0.2642 -0.5999  0.1542
  839MOL0     C13168  -0.860   7.606  11.930  0.9447  0.2100  0.2342
  839MOL0     C13169  -1.005   7.650  11.974 -0.3117  0.4506  0.3152
  839MOL0     C13170  -1.107   7.559  11.917 -0.3540 -0.4350  0.3432
  839MOL0     C13171  -1.242   7.574  11.980 -0.7049 -0.1297 -0.1420
  839MOL0     C13172  -1.350   7.496  11.912  0.4693 -0.2013 -0.0047
  839MOL0     C13173  -1.482   7.507  11.985 -0.6023 -0.8724 -0.7214
  839MOL0     C13174  -1.593   7.447  11.917 -0.4613 -0.2029 -0.2267
  839MOL0    Cl13175  -1.579   7.276  11.871 -0.0270  0.4328 -0.2857
  839MOL0     C13176  -0.587   7.878  11.865  0.2796 -0.5992  0.5880
  839MOL0     C13177  -0.522   7.991  11.808  0.4546 -0.3910 -1.2399
  839MOL0     O13178  -0.521   8.382  11.925 -0.2815  0.3607 -0.1642
  839MOL0     C13179  -0.406   8.423  11.599 -0.3689  0.0709  0.2808
  839MOL0     C13180  -0.364   8.510  11.501 -0.5125  0.0434 -0.6483
  839MOL0     N13181   0.360   9.054  11.219  0.1543 -0.0687  0.4608
  839MOL0     N13182   0.446   9.139  11.273  0.5773 -0.1360  0.2200
  839MOL0     C13183   0.749  10.340  11.335 -0.0284 -0.3280 -0.0133
  839MOL0     C13184   0.800  10.467  11.316 -0.0558  0.2399  0.3599
  839MOL0     C13185   1.066  10.833  11.368  0.0599  0.1832  0.5222
  839MOL0     C13186   1.201  10.859  11.327 -0.2222  0.1705  0.8210
  839MOL0     C13187   1.258  10.986  11.334  0.5124 -0.8132 -0.5174
  839MOL0     C13188   1.180  11.104  11.357 -0.2391  0.8175  0.1454
  839MOL0     O13189   1.250  11.214  11.391 -0.0789  0.6096 -0.5657
  839MOL0     C13190   1.181  11.344  11.389  0.4599 -0.4201 -0.0996
  839MOL0     C13191   1.254  11.452  11.296 -0.2105  0.3468  0.2192
  839MOL0     C13192   1.232  11.425  11.150  0.3731 -0.8329 -0.3487
  839MOL0     C13193   1.084  11.417  11.105  0.3584  0.4407  0.2873
  839MOL0     C13194   1.065  11.469  10.970 -0.0657  0.3191 -0.5338
  839MOL0     C13195   1.046  11.515  10.861 -0.0561  0.1306  0.6339
  839MOL0     C13196   1.044  11.081  11.380 -0.6794  0.0310 -0.1596
  839MOL0     C13197   0.984  10.952  11.392 -0.1597 -0.5079  0.3844
  839MOL0     H13198   0.886  10.537  11.638  4.1079 -0.8455 -0.9785
  839MOL0     H13199   0.792  10.316  11.659  1.6492 -0.4431 -0.6255
  839MOL0     H13200   0.515  10.136  11.426 -0.1696  0.1879 -1.0637
  839MOL0     H13201   0.624  10.109  11.305 -0.9847 -0.8710 -0.8358
  839MOL0     H13202   0.528   9.915  11.368 -0.8953  0.6400  0.4385
  839MOL0     H13203   0.704   9.892  11.382  0.5380  0.3457  1.0647
  839MOL0     H13204   0.691   9.941  11.628 -1.2433  0.6852  1.3410
  839MOL0     H13205   0.517   9.952  11.601  1.4393  2.0932 -0.8246
  839MOL0     H13206   0.710   9.712  11.579  0.2570 -0.0996 -0.3337
  839MOL0     H13207   0.595   9.729  11.712  1.7887 -3.6312  0.0767
  839MOL0     H13208   0.410   9.683  11.563  1.7691  2.1077  3.3819
  839MOL0     H13209   0.513   9.676  11.410  0.8337  2.8429  0.9042
  839MOL0     H13210   0.639   9.481  11.501  1.6032  0.1583  2.8503
  839MOL0     H13211   0.547   9.490  11.648 -0.4657  2.7038  0.2604
  839MOL0     H13212   0.344   9.437  11.476 -0.0801 -0.3877  2.2088
  839MOL0     H13213   0.459   9.422  11.355 -0.4783 -2.3988 -0.8186
  839MOL0     H13214   0.442   9.231  11.590  1.0955  1.8874  0.0337
  839MOL0     H13215   0.569   9.229  11.477 -0.9925 -1.3053 -1.5602
  839MOL0     H13216   0.236   9.095  11.509  0.7545  3.0362  1.0308
  839MOL0     H13217   0.088   8.920  11.201 -0.7192  1.5244  1.0889
  839MOL0     H13218   0.206   8.826  11.291  2.5903 -0.1128  0.7661
  839MOL0     H13219   0.025   9.030  11.440  0.8809  0.9897 -2.3093
  839MOL0     H13220   0.095   8.881  11.496  0.4559  1.4886  1.3315
  839MOL0     H13221  -0.056   8.766  11.309  1.1879  1.7695 -2.4284
  839MOL0     H13222  -0.149   8.917  11.313 -0.2049  2.3683  3.3282
  839MOL0     H13223  -0.210   8.895  11.541  0.5157  0.4094  1.4019
  839MOL0     H13224  -0.088   8.759  11.562  1.4335 -1.1793 -2.1576
  839MOL0     H13225  -0.299   8.770  11.712 -0.2606  0.1363 -0.8695
  839MOL0     H13226  -0.495   8.608  11.962 -0.9030  0.5665  0.3772
  839MOL0     H13227  -0.316   8.585  11.973  0.6880  1.2356 -0.1874
  839MOL0     H13228  -0.389   8.741  11.935  1.4377 -0.4591  0.8280
  839MOL0     H13229  -0.696   8.242  11.965 -0.3983  1.0975 -0.2693
  839MOL0     H13230  -0.820   8.047  12.043 -1.4650 -0.3687 -0.3569
  839MOL0     H13231  -0.662   7.643  11.949 -1.2290 -3.1851 -0.8140
  839MOL0     H13232  -0.737   7.635  12.104  2.8526 -0.3472 -0.0139
  839MOL0     H13233  -0.848   7.625  11.823  0.0181  0.4214  0.1577
  839MOL0     H13234  -0.839   7.501  11.952  2.7096 -0.6627 -4.4929
  839MOL0     H13235  -1.033   7.750  11.939 -0.6373  0.9236  1.8390
  839MOL0     H13236  -1.001   7.632  12.081  0.5225 -1.3180  0.0198
  839MOL0     H13237  -1.134   7.581  11.814  0.2917  0.8551  0.4341
  839MOL0     H13238  -1.082   7.453  11.927  2.1737 -0.3129 -3.0264
  839MOL0     H13239  -1.264   7.681  11.985  2.1636  0.4922  1.1205
  839MOL0     H13240  -1.226   7.539  12.082  2.3003 -2.5174 -1.2990
  839MOL0     H13241  -1.365   7.529  11.809 -1.5444  0.2672  0.4004
  839MOL0     H13242  -1.316   7.392  11.912  1.5790  0.1122 -1.6579
  839MOL0     H13243  -1.498   7.612  12.011 -2.6772 -1.9373  3.0500
  839MOL0     H13244  -1.474   7.467  12.087 -1.4953 -1.5736 -0.9194
  839MOL0     H13245  -1.636   7.505  11.835 -1.0838 -1.1951 -0.6133
  839MOL0     H13246  -1.676   7.448  11.989 -3.3461 -1.1710 -3.2817
  839MOL0     H13247  -0.554   7.778  11.838  2.4931  0.4935 -1.0467
  839MOL0     H13248  -0.436   7.979  11.744  3.2420  0.2080  2.1185
  839MOL0     H13249  -0.440   8.330  11.554 -1.0693  0.7978 -0.7392
  839MOL0     H13250  -0.349   8.473  11.400  3.2571  1.1252 -0.6378
  839MOL0     H13251   0.736  10.287  11.241  0.0348  0.8943 -0.7345
  839MOL0     H13252   0.834  10.487  11.215  0.7776 -1.7143  0.2038
  839MOL0     H13253   1.270  10.775  11.326 -0.9052 -0.3965  0.8062
  839MOL0     H13254   1.365  10.999  11.328  0.3756  0.0294 -1.3722
  839MOL0     H13255   1.072  11.339  11.379  0.1857  0.3816  2.0658
  839MOL0     H13256   1.188  11.381  11.491 -1.1845 -1.6149  0.5051
  839MOL0     H13257   1.361  11.448  11.318  0.0903 -1.9040 -1.3658
  839MOL0     H13258   1.213  11.552  11.312 -2.7992 -0.5805 -0.1383
  839MOL0     H13259   1.277  11.328  11.127 -1.1112 -2.1109  1.8213
  839MOL0     H13260   1.274  11.501  11.083 -3.3670  0.5373 -1.3662
  839MOL0     H13261   1.017  11.475  11.169  0.6056  1.5722 -0.4472
  839MOL0     H13262   1.039  11.318  11.103 -1.5266  1.2299 -2.6334
  839MOL0     H13263   1.017  11.530  10.759  0.2076  1.6464  0.7626
  839MOL0     H13264   0.982  11.166  11.408  1.0233  0.4960  2.6433
  839MOL0     H13265   0.882  10.959  11.428  0.0261  1.3677  0.6651
  840MOL0     O13266   2.686   6.276   0.641 -0.1528 -0.3874 -0.0642
  840MOL0     C13267   2.742   6.386   0.636  0.5893 -0.4822  0.5186
  840MOL0     O13268   2.686   6.495   0.602  0.4771  0.2269 -0.3634
  840MOL0     C13269   2.565   6.504   0.530 -0.5371 -0.3562  0.1772
  840MOL0     C13270   2.543   6.610   0.442 -0.7217 -0.8106  0.1150
  840MOL0     C13271   2.432   6.620   0.366  0.5120  0.0945 -0.7255
  840MOL0     C13272   2.322   6.541   0.389 -0.0808  0.0582 -1.5421
  840MOL0     O13273   2.206   6.561   0.324 -0.0638 -0.3609  0.9424
  840MOL0     C13274   2.167   6.454   0.238  0.3746  0.3187 -0.2966
  840MOL0     C13275   2.012   6.485   0.220 -0.1671  0.9695 -0.8980
  840MOL0     C13276   1.980   6.602   0.116 -0.2875 -0.5775 -0.9546
  840MOL0     C13277   1.853   6.682   0.149  0.7320 -0.2021 -0.1294
  840MOL0     C13278   1.801   6.774   0.035 -0.4651  0.1307  0.1685
  840MOL0     C13279   1.695   6.878   0.091  0.3060  0.1246 -0.4962
  840MOL0     C13280   1.563   6.805   0.121 -0.2809  0.2163 -0.4169
  840MOL0     C13281   1.455   6.910   0.165  0.9113 -0.5588 -0.3599
  840MOL0     N13282   1.325   6.852   0.188 -0.1047  0.0016  0.0325
  840MOL0     C13283   1.272   6.841   0.312 -0.0369  0.3257  0.3009
  840MOL0     C13284   1.145   6.784   0.279 -0.0296 -0.7551  0.6361
  840MOL0     C13285   1.035   6.752   0.373 -0.1205  0.0888 -0.5417
  840MOL0     C13286   1.073   6.608   0.435  0.0373  0.2198  0.6378
  840MOL0     C13287   0.956   6.554   0.518 -0.2767 -0.7958 -0.3191
  840MOL0     C13288   0.876   6.443   0.445 -0.6074 -0.3936  0.3744
  840MOL0     O13289   0.906   6.317   0.509 -0.3822  0.2349 -0.4679
  840MOL0     C13290   0.972   6.224   0.431  0.2827 -0.4732 -0.8963
  840MOL0     C13291   1.104   6.183   0.469 -0.4708 -0.3892 -0.0657
  840MOL0     C13292   1.183   6.104   0.384  0.3003 -0.1001  1.0318
  840MOL0     C13293   1.327   6.063   0.444 -0.1903 -0.8547 -0.2973
  840MOL0     C13294   1.126   6.071   0.256  0.2316 -0.1707 -0.5165
  840MOL0     C13295   1.195   5.985   0.154  0.3185  0.1288  0.1631
  840MOL0     O13296   1.152   5.993   0.030  0.1918 -0.1765  0.7528
  840MOL0     C13297   1.184   5.894  -0.061 -0.9285 -0.0721 -0.1500
  840MOL0     C13298   1.244   5.930  -0.180 -1.0379  0.1520  1.1198
  840MOL0     C13299   1.289   5.838  -0.276 -0.7082  0.4653 -0.2518
  840MOL0     C13300   1.277   5.697  -0.249 -0.8855 -0.5026 -0.3579
  840MOL0     O13301   1.315   5.599  -0.340 -0.6399  0.0752 -0.7638
  840MOL0     C13302   1.252   5.612  -0.466  0.3088 -0.2229  0.2748
  840MOL0     C13303   1.284   5.486  -0.561 -0.3542  0.1366  0.1619
  840MOL0     C13304   1.202   5.510  -0.689 -0.3976  0.3316 -0.3113
  840MOL0     C13305   1.263   5.621  -0.781  0.2765  1.0513 -0.5412
  840MOL0     C13306   1.165   5.652  -0.888 -0.0488  0.0816  0.0781
  840MOL0     C13307   1.187   5.792  -0.947  0.3272  1.0981 -0.1404
  840MOL0     C13308   1.310   5.807  -1.032  0.7074 -0.3021  0.9600
  840MOL0     C13309   1.359   5.951  -1.027 -0.3327 -0.9304  0.6838
  840MOL0    Cl13310   1.260   6.065  -1.129 -0.5082  0.8804  0.5937
  840MOL0     C13311   1.232   5.657  -0.126  0.0517 -1.9862  0.8962
  840MOL0     C13312   1.176   5.758  -0.039 -0.2495  0.7266  0.8859
  840MOL0     O13313   1.281   5.907   0.190 -0.1382  0.4889 -0.3872
  840MOL0     C13314   0.993   6.118   0.222 -0.1338 -0.1650  0.4739
  840MOL0     C13315   0.915   6.183   0.311  0.6490 -0.1721 -0.6839
  840MOL0     N13316   1.137   6.762   0.141 -0.2491  0.1331  0.7334
  840MOL0     N13317   1.242   6.810   0.084 -0.5356  0.3237 -0.6682
  840MOL0     C13318   2.335   6.438   0.487 -0.3328 -0.1377 -0.3445
  840MOL0     C13319   2.448   6.421   0.564  0.4960  0.0357  0.1650
  840MOL0     C13320   2.884   6.393   0.634 -1.1590 -0.4468 -0.3450
  840MOL0     C13321   2.962   6.488   0.571 -0.2378 -0.1888  0.6644
  840MOL0     C13322   3.096   6.504   0.588  0.1933 -0.0212  0.3902
  840MOL0     C13323   3.161   6.401   0.656 -0.3153 -0.4755 -0.0526
  840MOL0     O13324   3.292   6.412   0.682 -0.9481  0.2279 -0.3270
  840MOL0     C13325   3.322   6.433   0.828 -0.0354  0.1136 -0.2446
  840MOL0     C13326   3.472   6.396   0.845 -0.0452  0.4788 -0.1177
  840MOL0     C13327   3.502   6.250   0.804  0.4525  0.3207 -0.0505
  840MOL0     C13328   3.639   6.199   0.799 -0.5612 -0.4793  1.0251
  840MOL0     C13329   3.716   6.220   0.919 -0.4967 -0.1268  0.0345
  840MOL0     C13330   3.764   6.222   1.028 -0.1858  0.2847 -0.4321
  840MOL0     C13331   3.088   6.288   0.703  0.3636 -0.6449 -0.4799
  840MOL0     C13332   2.949   6.290   0.703 -0.4631 -0.3922 -0.0432
  840MOL0     H13333   2.621   6.681   0.416  0.1439 -1.0099  2.0602
  840MOL0     H13334   2.413   6.700   0.295 -2.9771  0.9215  0.8970
  840MOL0     H13335   2.226   6.437   0.147  1.9300 -1.7250  0.9921
  840MOL0     H13336   2.176   6.363   0.298  0.5832 -0.0327 -0.8526
  840MOL0     H13337   1.969   6.390   0.187  0.2615 -0.1397  1.5488
  840MOL0     H13338   1.964   6.500   0.317  3.5736  2.4084  0.9448
  840MOL0     H13339   2.056   6.680   0.127  0.8040 -1.8264  1.1299
  840MOL0     H13340   1.986   6.570   0.012 -0.8562  0.4702 -1.3275
  840MOL0     H13341   1.773   6.611   0.172  0.5203  0.7376  2.4305
  840MOL0     H13342   1.874   6.750   0.232 -1.8954  2.6981 -1.6117
  840MOL0     H13343   1.881   6.838  -0.001  0.4194 -1.2405 -0.3973
  840MOL0     H13344   1.751   6.713  -0.041 -1.1676  2.4011 -1.2816
  840MOL0     H13345   1.730   6.915   0.188  1.0836 -2.3008  0.2264
  840MOL0     H13346   1.680   6.961   0.021 -0.9495  3.1731  3.0673
  840MOL0     H13347   1.536   6.751   0.029  1.2210  0.4177 -0.9926
  840MOL0     H13348   1.579   6.734   0.202  2.2724  1.3281  0.1356
  840MOL0     H13349   1.452   6.981   0.082 -2.7563 -2.5510 -2.1909
  840MOL0     H13350   1.480   6.956   0.261  2.8801 -3.5198  0.6901
  840MOL0     H13351   1.310   6.873   0.409  1.6898 -0.9163  0.0816
  840MOL0     H13352   1.037   6.829   0.451 -0.4653 -2.4575  2.1814
  840MOL0     H13353   0.940   6.762   0.320  1.0814  2.3230 -2.4208
  840MOL0     H13354   1.165   6.623   0.492  0.3391 -1.8035  0.7772
  840MOL0     H13355   1.102   6.548   0.348  0.4064  3.7226 -1.8531
  840MOL0     H13356   0.885   6.635   0.537  0.7570  0.5058 -1.7391
  840MOL0     H13357   1.010   6.526   0.609  2.5645 -0.4114 -1.7670
  840MOL0     H13358   0.890   6.448   0.337 -3.3031 -1.5171 -0.0960
  840MOL0     H13359   0.769   6.462   0.458 -0.3785  0.2756  1.3492
  840MOL0     H13360   1.150   6.223   0.559 -0.6901  1.3354 -0.6752
  840MOL0     H13361   1.393   6.140   0.402  1.4079 -1.1216  1.5810
  840MOL0     H13362   1.338   6.072   0.553 -1.9639  0.8319 -0.2013
  840MOL0     H13363   1.353   5.965   0.404  3.7403  0.8653 -2.6008
  840MOL0     H13364   1.256   6.037  -0.196  1.4862 -0.1444  0.7603
  840MOL0     H13365   1.345   5.868  -0.365 -0.2444  2.0658  0.5251
  840MOL0     H13366   1.145   5.623  -0.448  0.5464  0.0063  1.7227
  840MOL0     H13367   1.299   5.704  -0.501  0.7897 -0.3996  0.4504
  840MOL0     H13368   1.392   5.476  -0.575 -0.0741 -1.0984  2.5715
  840MOL0     H13369   1.253   5.389  -0.521 -0.9953 -1.2483 -3.3908
  840MOL0     H13370   1.103   5.540  -0.653 -0.8380 -0.6361 -0.6911
  840MOL0     H13371   1.194   5.416  -0.744  3.9840  0.3302 -1.3394
  840MOL0     H13372   1.295   5.707  -0.722  2.7233  1.7361 -2.6572
  840MOL0     H13373   1.359   5.579  -0.815 -0.9767 -1.1650 -1.5601
  840MOL0     H13374   1.062   5.647  -0.854 -0.3798  2.3432 -0.4166
  840MOL0     H13375   1.171   5.578  -0.968 -0.8874  1.9918 -1.8771
  840MOL0     H13376   1.102   5.818  -1.011 -0.6993 -0.1642  0.6700
  840MOL0     H13377   1.185   5.862  -0.863  0.3543  1.4959 -0.4693
  840MOL0     H13378   1.297   5.774  -1.136 -0.1589  2.8761 -0.0444
  840MOL0     H13379   1.393   5.745  -0.996  1.2566 -0.1960 -0.0542
  840MOL0     H13380   1.462   5.973  -1.054 -0.7286  1.0508  0.6627
  840MOL0     H13381   1.346   5.966  -0.919  0.1305  0.1543  0.5927
  840MOL0     H13382   1.205   5.558  -0.092 -3.2569 -1.9345 -1.1668
  840MOL0     H13383   1.128   5.730   0.055 -1.6521  1.9100  0.5487
  840MOL0     H13384   0.947   6.091   0.127  1.1542 -1.3039  0.1325
  840MOL0     H13385   0.815   6.217   0.285  1.6016  1.6552 -2.1985
  840MOL0     H13386   2.249   6.377   0.512 -1.2579  1.5033  0.6162
  840MOL0     H13387   2.459   6.353   0.647  2.2120 -2.1937 -1.7294
  840MOL0     H13388   2.919   6.561   0.504 -1.6670  0.2211  1.9884
  840MOL0     H13389   3.160   6.584   0.554  0.1363 -1.4100 -3.3761
  840MOL0     H13390   3.319   6.541   0.843  0.9964 -0.0103  0.9514
  840MOL0     H13391   3.257   6.371   0.890  0.6332 -0.0418  0.3092
  840MOL0     H13392   3.493   6.415   0.951  0.2623  5.3200 -0.8404
  840MOL0     H13393   3.535   6.465   0.789 -1.2861  3.4743  1.9131
  840MOL0     H13394   3.458   6.226   0.706 -0.8747 -0.0589  0.6125
  840MOL0     H13395   3.449   6.182   0.871 -2.3628 -1.7251 -3.8843
  840MOL0     H13396   3.685   6.262   0.723  1.5653  1.1010  3.4658
  840MOL0     H13397   3.644   6.091   0.777 -0.1624 -0.4645  1.0506
  840MOL0     H13398   3.802   6.210   1.127  0.5282  0.5594 -0.6586
  840MOL0     H13399   3.147   6.219   0.763  1.6833  0.6023 -0.2956
  840MOL0     H13400   2.897   6.216   0.764 -0.3771  1.5223  2.5128
  841MOL0     O13401  11.199   0.586   9.252 -0.2031  0.1471 -0.4756
  841MOL0     C13402  11.299   0.527   9.287 -0.1827  0.0423  0.7401
  841MOL0     O13403  11.317   0.454   9.401 -0.4300 -0.0786  0.1309
  841MOL0     C13404  11.212   0.405   9.476 -0.3228  0.9764  0.5258
  841MOL0     C13405  11.070   0.421   9.455 -0.9080  0.4260 -0.8083
  841MOL0     C13406  10.972   0.353   9.537 -0.3969  0.0572  0.3186
  841MOL0     C13407  11.022   0.267   9.635 -1.1307  0.7433  0.6772
  841MOL0     O13408  10.939   0.188   9.720 -0.8085  0.1827 -0.4195
  841MOL0     C13409  10.801   0.170   9.673  0.2189 -0.4608  0.3541
  841MOL0     C13410  10.800   0.069   9.556 -0.3480 -0.3025 -0.5929
  841MOL0     C13411  10.655   0.040   9.526  0.3500 -0.0161  0.5576
  841MOL0     C13412  10.585   0.144   9.442 -0.1438 -0.2850  1.2925
  841MOL0     C13413  10.659   0.206   9.319  0.1215  0.8021 -0.8000
  841MOL0     C13414  10.562   0.267   9.219 -0.5917  0.0414  0.0623
  841MOL0     C13415  10.625   0.340   9.099  0.4812 -0.4734  0.4025
  841MOL0     C13416  10.529   0.390   8.997 -0.9849  0.3954  0.5155
  841MOL0     N13417  10.445   0.488   9.054  0.2265 -0.1154 -0.1507
  841MOL0     C13418  10.446   0.621   9.015  0.0880  0.2400 -0.1856
  841MOL0     C13419  10.331   0.675   9.063 -1.2784  0.2268  0.7206
  841MOL0     C13420  10.299   0.821   9.061  0.4420 -0.9697 -0.5667
  841MOL0     C13421  10.171   0.844   8.978 -0.5487 -0.7955  0.4169
  841MOL0     C13422  10.134   0.987   8.980  0.1779 -0.0687  0.1769
  841MOL0     C13423  10.016   1.016   8.884 -0.2476 -0.9159  0.4063
  841MOL0     O13424   9.915   0.910   8.889 -0.5386 -0.0756  0.4738
  841MOL0     C13425   9.784   0.923   8.918 -1.3196 -0.1617  1.4732
  841MOL0     C13426   9.721   0.803   8.952 -0.0429 -0.0032  0.4914
  841MOL0     C13427   9.585   0.805   8.987  0.0910  0.3819 -0.4838
  841MOL0     C13428   9.529   0.670   9.022 -0.1879 -0.1957  0.4284
  841MOL0     C13429   9.511   0.928   8.975 -0.0729 -0.3602 -0.3467
  841MOL0     C13430   9.367   0.930   8.986 -0.3205 -0.1083  0.8780
  841MOL0     O13431   9.299   1.001   8.888 -0.4276  0.3839 -0.1463
  841MOL0     C13432   9.165   0.989   8.884 -0.3052  0.0734 -0.1130
  841MOL0     C13433   9.098   0.857   8.889 -0.6573  0.7147  0.3046
  841MOL0     C13434   8.958   0.841   8.900 -0.2349 -0.1040 -0.0978
  841MOL0     C13435   8.874   0.954   8.913 -0.6578 -0.2458  0.4356
  841MOL0     O13436   8.738   0.964   8.921  0.9655  1.0478 -0.1001
  841MOL0     C13437   8.659   0.847   8.913  1.3691 -0.0032  0.1221
  841MOL0     C13438   8.512   0.889   8.893 -0.0735 -0.7303 -0.0743
  841MOL0     C13439   8.450   0.957   9.019  0.0821 -0.4144 -0.1833
  841MOL0     C13440   8.369   0.845   9.082  0.2251  0.7038  0.6108
  841MOL0     C13441   8.327   0.889   9.221  0.2305  0.1598  0.3552
  841MOL0     C13442   8.205   0.988   9.207 -0.2797  0.1473  0.4508
  841MOL0     C13443   8.162   1.035   9.344  0.8829  0.5600 -0.6138
  841MOL0     C13444   8.036   0.953   9.390 -0.5216  0.5721 -0.4503
  841MOL0    Cl13445   7.961   1.002   9.552 -0.4249 -0.4885 -0.2886
  841MOL0     C13446   8.938   1.073   8.925 -0.1865 -0.9190  0.1274
  841MOL0     C13447   9.078   1.092   8.904  0.2448 -0.5233  0.0344
  841MOL0     O13448   9.327   0.885   9.088  0.3572 -0.5193 -0.2462
  841MOL0     C13449   9.584   1.048   8.942 -0.3284 -0.3442 -0.7359
  841MOL0     C13450   9.718   1.047   8.923 -0.0579  0.2899 -0.5282
  841MOL0     N13451  10.265   0.578   9.129  0.3890 -0.1572  0.0521
  841MOL0     N13452  10.325   0.461   9.110 -0.1618 -0.9640 -0.8232
  841MOL0     C13453  11.162   0.246   9.650 -0.2254 -0.3534  0.4911
  841MOL0     C13454  11.267   0.311   9.575 -0.3947 -0.0314  0.5039
  841MOL0     C13455  11.412   0.525   9.191 -0.2702  0.0653  0.3908
  841MOL0     C13456  11.423   0.615   9.082 -0.0159  0.4075  0.6486
  841MOL0     C13457  11.538   0.621   8.996  0.3251 -1.1064  0.3891
  841MOL0     C13458  11.641   0.527   9.007 -0.1634 -0.2282  0.4486
  841MOL0     O13459  11.760   0.531   8.936 -0.0067  0.3367  0.8770
  841MOL0     C13460  11.849   0.628   8.992 -0.1570 -0.7567  0.3937
  841MOL0     C13461  11.900   0.572   9.125  0.5426  0.0720 -0.2103
  841MOL0     C13462  11.976   0.443   9.096 -0.3045  0.2691 -0.3030
  841MOL0     C13463  12.115   0.417   9.151  0.2230 -0.5432 -0.6399
  841MOL0     C13464  12.212   0.513   9.101  0.1397  0.0746 -1.0438
  841MOL0     C13465  12.300   0.587   9.055  0.2266 -0.0100 -1.1410
  841MOL0     C13466  11.623   0.424   9.099  0.4857  0.7327  0.6716
  841MOL0     C13467  11.514   0.425   9.189  0.7914  0.0209  0.4388
  841MOL0     H13468  11.036   0.481   9.372 -0.0875  2.7981  0.4815
  841MOL0     H13469  10.869   0.384   9.524 -0.1233  1.7003  1.7108
  841MOL0     H13470  10.753   0.124   9.760 -0.3170  1.6978  1.2691
  841MOL0     H13471  10.739   0.259   9.658  0.2768 -0.1784  1.6539
  841MOL0     H13472  10.861   0.109   9.475  0.5247  1.3577  0.8179
  841MOL0     H13473  10.850  -0.021   9.594  4.4775  2.5834  0.8500
  841MOL0     H13474  10.669  -0.052   9.468  1.9484 -0.0486  0.9513
  841MOL0     H13475  10.604   0.018   9.621  2.2581  0.7509  1.8220
  841MOL0     H13476  10.496   0.095   9.403 -2.1698  2.8208  1.6393
  841MOL0     H13477  10.569   0.235   9.502  2.6451  0.4865  1.0006
  841MOL0     H13478  10.736   0.271   9.362  0.5523 -0.5907  0.6193
  841MOL0     H13479  10.714   0.128   9.266 -1.6915 -0.7678 -0.4772
  841MOL0     H13480  10.491   0.198   9.172  1.5668 -1.5142 -1.0602
  841MOL0     H13481  10.494   0.333   9.274  0.8782  1.1716  0.5843
  841MOL0     H13482  10.668   0.434   9.135 -1.8840  1.4610 -1.5063
  841MOL0     H13483  10.713   0.289   9.056 -0.8316 -0.5029 -2.5022
  841MOL0     H13484  10.486   0.305   8.944 -0.0331 -0.1303  0.5684
  841MOL0     H13485  10.591   0.438   8.921 -2.7299  2.5961  0.3898
  841MOL0     H13486  10.517   0.666   8.947 -0.7244  3.8956  1.1582
  841MOL0     H13487  10.294   0.873   9.157 -1.0479  0.2823 -1.2904
  841MOL0     H13488  10.377   0.871   9.003  2.1011 -2.9467 -0.1343
  841MOL0     H13489  10.088   0.788   9.023  0.3937 -1.1654  1.7596
  841MOL0     H13490  10.205   0.828   8.875  0.0770  0.9527  0.3276
  841MOL0     H13491  10.227   1.036   8.953  0.0102  0.3223  0.3093
  841MOL0     H13492  10.105   1.016   9.081  0.7073 -0.9845  0.6044
  841MOL0     H13493  10.052   1.013   8.780  1.6421 -1.0757  1.0280
  841MOL0     H13494   9.980   1.119   8.899  2.6744  0.3386 -0.4299
  841MOL0     H13495   9.774   0.708   8.961 -1.6995 -1.2360 -1.6946
  841MOL0     H13496   9.525   0.661   9.131  0.4779  2.3354  0.7251
  841MOL0     H13497   9.432   0.657   8.973 -0.0098 -1.1896  0.3174
  841MOL0     H13498   9.591   0.593   8.975  0.7627  1.8250 -1.8800
  841MOL0     H13499   9.164   0.775   8.863 -0.5570  1.0207 -0.4405
  841MOL0     H13500   8.907   0.748   8.877 -0.9576 -0.1820  1.6407
  841MOL0     H13501   8.701   0.791   8.828  2.1856 -0.1296  0.5978
  841MOL0     H13502   8.681   0.796   9.007  3.1612 -1.3165 -0.9404
  841MOL0     H13503   8.499   0.962   8.812  3.5615 -0.0955 -0.2597
  841MOL0     H13504   8.447   0.808   8.859 -0.8788  1.0104 -2.9890
  841MOL0     H13505   8.395   1.046   8.990 -2.1005 -1.4057  0.6680
  841MOL0     H13506   8.522   0.995   9.092 -0.1405  0.3503 -0.3599
  841MOL0     H13507   8.294   0.823   9.006  0.4072  1.1583  0.2945
  841MOL0     H13508   8.435   0.758   9.086 -0.8148 -0.1802 -0.6558
  841MOL0     H13509   8.408   0.931   9.282  1.2784 -2.4807  0.9050
  841MOL0     H13510   8.299   0.796   9.271  0.6076  0.5648  1.3542
  841MOL0     H13511   8.226   1.075   9.143 -3.8140  4.5893  4.5326
  841MOL0     H13512   8.120   0.934   9.164  1.1451 -1.5833 -0.3113
  841MOL0     H13513   8.126   1.137   9.328 -2.6500 -0.6301 -1.2200
  841MOL0     H13514   8.242   1.015   9.416  1.9059 -2.1556 -2.3209
  841MOL0     H13515   8.066   0.852   9.420 -1.7022  0.3155 -0.0787
  841MOL0     H13516   7.968   0.949   9.304  0.7591 -1.2387 -1.4418
  841MOL0     H13517   8.885   1.164   8.948  1.0741  0.8288 -3.2199
  841MOL0     H13518   9.118   1.193   8.909  1.4569 -0.7273 -3.2496
  841MOL0     H13519   9.522   1.137   8.943  2.4785  1.7519 -1.1949
  841MOL0     H13520   9.769   1.142   8.911 -1.9833  1.5566  0.8590
  841MOL0     H13521  11.197   0.182   9.731  2.7114  1.9350  1.2129
  841MOL0     H13522  11.369   0.287   9.602 -0.0448 -0.9888 -1.5073
  841MOL0     H13523  11.339   0.683   9.068 -2.3409 -1.5389  3.7540
  841MOL0     H13524  11.543   0.695   8.916 -3.4912 -2.8284 -1.7490
  841MOL0     H13525  11.938   0.633   8.929 -0.1205 -3.8877  0.0236
  841MOL0     H13526  11.800   0.723   9.012  2.2951  0.3528  1.6891
  841MOL0     H13527  11.818   0.563   9.197  1.1070  3.5741  1.1041
  841MOL0     H13528  11.960   0.650   9.174 -0.4030  0.5294  0.2391
  841MOL0     H13529  11.985   0.422   8.989  0.6541 -1.2078  0.0318
  841MOL0     H13530  11.914   0.366   9.143  1.7515 -1.5067 -0.3114
  841MOL0     H13531  12.142   0.316   9.118 -0.7255 -1.7725  2.0535
  841MOL0     H13532  12.121   0.412   9.260  2.0448  2.9630 -0.4079
  841MOL0     H13533  12.375   0.647   9.007 -0.8360 -0.2169 -3.1972
  841MOL0     H13534  11.703   0.353   9.114  0.9989  1.7253  3.0536
  841MOL0     H13535  11.505   0.328   9.238 -1.5559 -1.4675 -2.6138
  842MOL0     O13536   5.743  10.022   7.047  0.4669 -0.7785  0.2401
  842MOL0     C13537   5.748  10.097   7.148  0.3568 -0.4388 -0.1978
  842MOL0     O13538   5.829  10.086   7.258  0.4590  0.3789 -0.3830
  842MOL0     C13539   5.938  10.003   7.253  0.2105  0.5871  0.4423
  842MOL0     C13540   6.066  10.054   7.286 -0.1291  0.2434  0.3097
  842MOL0     C13541   6.171   9.964   7.291 -0.7214  0.2499 -0.7535
  842MOL0     C13542   6.153   9.827   7.265 -0.7426  0.0411 -0.8697
  842MOL0     O13543   6.259   9.736   7.266 -0.6955  0.0234 -0.0804
  842MOL0     C13544   6.317   9.708   7.399  0.0241 -0.0067 -0.0292
  842MOL0     C13545   6.226   9.653   7.510 -0.4073  0.6970  0.7543
  842MOL0     C13546   6.165   9.526   7.478 -0.3645 -0.6069  0.5506
  842MOL0     C13547   6.043   9.511   7.563 -0.3628 -0.3618 -0.5571
  842MOL0     C13548   5.915   9.549   7.491  0.6275 -0.3323 -0.5419
  842MOL0     C13549   5.784   9.531   7.570  0.5489 -0.1142 -0.5070
  842MOL0     C13550   5.682   9.635   7.516 -0.7340 -0.1278  0.3335
  842MOL0     C13551   5.615   9.597   7.379  0.4310  0.7663 -0.0768
  842MOL0     N13552   5.494   9.663   7.358  0.3038 -1.2356  0.2521
  842MOL0     C13553   5.489   9.804   7.326  1.1313 -0.2103 -0.4054
  842MOL0     C13554   5.355   9.839   7.335 -0.3439  0.0392 -0.1165
  842MOL0     C13555   5.285   9.970   7.318  0.6582 -0.0104 -0.0152
  842MOL0     C13556   5.232   9.977   7.166  0.0472  0.4029  0.9879
  842MOL0     C13557   5.152  10.108   7.134 -0.1219  0.1698  0.4188
  842MOL0     C13558   5.108  10.101   6.992 -0.6264 -0.5438  0.1279
  842MOL0     O13559   5.069   9.972   6.946 -0.5739 -0.6541 -0.2173
  842MOL0     C13560   4.939   9.924   6.980 -0.6057  0.9504  0.4417
  842MOL0     C13561   4.902   9.806   6.913 -0.2556  0.4350  0.1475
  842MOL0     C13562   4.783   9.737   6.930  0.4592  0.0051 -0.1841
  842MOL0     C13563   4.763   9.604   6.867 -0.1048 -0.2969  0.2500
  842MOL0     C13564   4.684   9.788   7.023 -1.1264 -1.5657 -0.7042
  842MOL0     C13565   4.553   9.715   7.052 -0.3669  0.0849  0.2599
  842MOL0     O13566   4.494   9.728   7.176  0.5528  0.4844 -0.6245
  842MOL0     C13567   4.369   9.671   7.198  0.0813 -0.4542  0.2625
  842MOL0     C13568   4.267   9.753   7.245  0.2832 -0.0084  0.5229
  842MOL0     C13569   4.141   9.698   7.272  0.3853 -0.7185  0.7408
  842MOL0     C13570   4.120   9.562   7.256  0.5220  0.4131  0.7717
  842MOL0     O13571   3.997   9.512   7.288 -0.2016  0.6144  0.1230
  842MOL0     C13572   3.959   9.378   7.234 -0.7403 -0.1023  0.2949
  842MOL0     C13573   3.816   9.342   7.234  1.1671  0.3744  0.4139
  842MOL0     C13574   3.761   9.298   7.364  0.5450  0.0891 -0.5885
  842MOL0     C13575   3.775   9.387   7.496  0.7389  0.0935 -0.0706
  842MOL0     C13576   3.675   9.507   7.522  0.7289 -0.4882  0.2017
  842MOL0     C13577   3.684   9.605   7.408 -0.2304 -0.3589  0.5143
  842MOL0     C13578   3.662   9.747   7.452  0.3559  0.0708 -0.7326
  842MOL0     C13579   3.786   9.838   7.456  1.2436  0.0814 -0.6461
  842MOL0    Cl13580   3.734  10.010   7.464  0.1754 -0.1879  0.2083
  842MOL0     C13581   4.225   9.474   7.223 -0.4139 -0.1335  0.0061
  842MOL0     C13582   4.349   9.531   7.193  0.9398 -0.2372  0.1775
  842MOL0     O13583   4.496   9.663   6.959  0.4133  1.1085  0.1609
  842MOL0     C13584   4.733   9.904   7.102 -0.0801 -0.2886  0.3365
  842MOL0     C13585   4.854   9.968   7.077  0.4022  0.9572  0.3999
  842MOL0     N13586   5.283   9.723   7.366  0.2198 -0.2147  0.2184
  842MOL0     N13587   5.365   9.629   7.387  0.5420  0.2115  0.1494
  842MOL0     C13588   6.029   9.780   7.222  0.5944 -0.4950  0.1837
  842MOL0     C13589   5.920   9.866   7.227  0.9307  0.3950  0.0896
  842MOL0     C13590   5.644  10.205   7.139  0.2909 -0.1001 -0.5400
  842MOL0     C13591   5.576  10.230   7.261 -0.0625 -0.2884 -0.0002
  842MOL0     C13592   5.466  10.319   7.259 -0.3772 -0.0140 -0.2951
  842MOL0     C13593   5.439  10.394   7.146  0.3672  1.0092  0.2310
  842MOL0     O13594   5.344  10.492   7.141 -0.0819 -0.4414  0.5103
  842MOL0     C13595   5.274  10.533   7.259  0.9883  0.7052 -0.2720
  842MOL0     C13596   5.138  10.452   7.270  0.1961 -0.7814  0.2145
  842MOL0     C13597   5.016  10.534   7.328  1.0544  1.1609 -0.0203
  842MOL0     C13598   4.893  10.445   7.291 -0.9059 -1.3287 -0.6824
  842MOL0     C13599   4.901  10.330   7.372  0.1554  0.3670  1.1614
  842MOL0     C13600   4.891  10.212   7.412 -0.5794  0.0391 -0.0973
  842MOL0     C13601   5.496  10.358   7.027  0.5578 -0.0156  0.6905
  842MOL0     C13602   5.590  10.258   7.024  1.0668 -0.3513  0.3982
  842MOL0     H13603   6.074  10.158   7.316  1.2104  0.9800 -2.3543
  842MOL0     H13604   6.266  10.009   7.320 -0.9678 -0.3320  1.0342
  842MOL0     H13605   6.392   9.630   7.386 -1.4600 -1.7321  1.1531
  842MOL0     H13606   6.362   9.797   7.443  1.7632  0.2445 -2.1505
  842MOL0     H13607   6.289   9.651   7.599 -1.2256  2.0641  1.3838
  842MOL0     H13608   6.138   9.717   7.518 -2.7791 -1.9446 -1.8932
  842MOL0     H13609   6.136   9.525   7.373 -1.8538 -1.8936  0.9336
  842MOL0     H13610   6.243   9.451   7.493  0.3299 -0.1745 -0.7519
  842MOL0     H13611   6.038   9.402   7.574  0.7863 -0.2406  1.7335
  842MOL0     H13612   6.041   9.557   7.662 -0.6778 -1.2932 -0.1220
  842MOL0     H13613   5.936   9.650   7.455  3.6929 -0.2775  1.0584
  842MOL0     H13614   5.904   9.475   7.411  0.6449 -0.9661  0.0368
  842MOL0     H13615   5.747   9.430   7.550 -3.3611  0.9619  0.3324
  842MOL0     H13616   5.791   9.534   7.679 -0.4959 -0.7989 -0.4067
  842MOL0     H13617   5.606   9.656   7.591 -0.0953  1.6657  0.5348
  842MOL0     H13618   5.733   9.731   7.505  0.7078 -0.6911  1.5655
  842MOL0     H13619   5.595   9.490   7.387  1.1464  0.6107 -0.3542
  842MOL0     H13620   5.687   9.618   7.300  1.3974  2.0267  1.0900
  842MOL0     H13621   5.567   9.878   7.314 -0.2932  2.0178  2.6764
  842MOL0     H13622   5.197   9.962   7.383  0.5532  2.0694  0.1766
  842MOL0     H13623   5.342  10.055   7.357 -2.5286  0.9043  3.2754
  842MOL0     H13624   5.177   9.884   7.152  0.6394 -0.0773  1.7387
  842MOL0     H13625   5.322   9.993   7.105 -0.0759  1.5845  1.0896
  842MOL0     H13626   5.209  10.198   7.157  0.5229 -0.2051  0.3142
  842MOL0     H13627   5.071  10.120   7.207 -2.3126  3.6904 -2.2676
  842MOL0     H13628   5.172  10.150   6.918 -0.2457  1.0905  1.4740
  842MOL0     H13629   5.017  10.162   6.990  0.5388  1.2997  0.5341
  842MOL0     H13630   4.968   9.771   6.834 -0.1549  1.7412 -0.3666
  842MOL0     H13631   4.753   9.532   6.948 -3.1204  0.6671  0.8692
  842MOL0     H13632   4.677   9.611   6.799  0.4565 -0.2687 -0.4658
  842MOL0     H13633   4.855   9.572   6.819  1.6069  0.9081  2.5411
  842MOL0     H13634   4.279   9.861   7.244  0.3705  0.0126  1.6571
  842MOL0     H13635   4.057   9.759   7.304 -0.0157  0.6359 -2.4735
  842MOL0     H13636   3.986   9.375   7.128 -3.5879 -1.9563 -0.5131
  842MOL0     H13637   4.019   9.300   7.282 -1.2088 -0.9777 -0.4840
  842MOL0     H13638   3.754   9.428   7.206 -2.1411 -1.7382  0.7111
  842MOL0     H13639   3.796   9.266   7.158  1.2366 -0.2980  1.0477
  842MOL0     H13640   3.800   9.200   7.394  1.0578  0.4766  0.0494
  842MOL0     H13641   3.655   9.276   7.346  0.5401 -0.4715  0.0678
  842MOL0     H13642   3.761   9.327   7.586 -1.2797  0.2250 -0.2568
  842MOL0     H13643   3.872   9.438   7.503 -0.4922  2.3668  3.5140
  842MOL0     H13644   3.706   9.553   7.616 -1.1737  1.0242  0.1506
  842MOL0     H13645   3.576   9.466   7.545  1.6228 -1.4679  2.6080
  842MOL0     H13646   3.784   9.603   7.363 -0.5229  1.6686 -0.3583
  842MOL0     H13647   3.609   9.577   7.334  1.4250  1.1579 -1.9352
  842MOL0     H13648   3.617   9.747   7.553 -1.3839 -1.7845 -1.4224
  842MOL0     H13649   3.593   9.797   7.384  0.8884 -0.2249 -1.4928
  842MOL0     H13650   3.851   9.830   7.368  3.3248 -1.2123  0.9180
  842MOL0     H13651   3.850   9.819   7.542  0.1523 -0.3401  0.0948
  842MOL0     H13652   4.220   9.366   7.231 -0.9686 -0.0532  0.8174
  842MOL0     H13653   4.437   9.469   7.180  1.2525 -0.1206  1.5535
  842MOL0     H13654   4.664   9.946   7.175 -2.1109  0.1329 -1.7262
  842MOL0     H13655   4.870  10.062   7.129 -2.3279  0.6903  1.9283
  842MOL0     H13656   6.024   9.678   7.187  3.5402  0.3885 -3.6144
  842MOL0     H13657   5.829   9.831   7.179  1.0937  0.6914 -0.4443
  842MOL0     H13658   5.608  10.181   7.353 -1.3327 -1.4807 -0.1588
  842MOL0     H13659   5.411  10.334   7.352  0.7402 -0.8042  0.5218
  842MOL0     H13660   5.326  10.526   7.355  1.0500 -0.2656 -0.3646
  842MOL0     H13661   5.247  10.637   7.238  1.5728  0.5841 -1.7230
  842MOL0     H13662   5.166  10.371   7.338 -3.5835 -3.0584 -0.6999
  842MOL0     H13663   5.129  10.391   7.180  2.9238 -1.4096  0.2693
  842MOL0     H13664   5.005  10.630   7.277  0.1865 -0.1207 -2.4278
  842MOL0     H13665   5.019  10.551   7.436 -0.4545 -1.6107  0.5648
  842MOL0     H13666   4.863  10.438   7.186  0.2574  1.0822 -1.2453
  842MOL0     H13667   4.815  10.505   7.338  0.2513 -0.7852  0.6206
  842MOL0     H13668   4.894  10.112   7.451 -3.1027 -0.2397 -0.4683
  842MOL0     H13669   5.464  10.406   6.935  4.3816  0.9599 -0.2967
  842MOL0     H13670   5.617  10.226   6.924 -1.7844  0.3299 -0.6879
  843MOL0     O13671   1.689   7.946   4.040 -0.2950 -0.0496 -0.4439
  843MOL0     C13672   1.589   7.891   4.092 -0.2418  0.3359 -0.3497
  843MOL0     O13673   1.471   7.955   4.141 -0.4659 -0.5441  0.6719
  843MOL0     C13674   1.445   8.088   4.101 -0.0925 -0.6122 -0.1742
  843MOL0     C13675   1.541   8.192   4.096  0.0726 -0.1041 -0.6485
  843MOL0     C13676   1.510   8.317   4.046  0.2432  0.4395  0.6820
  843MOL0     C13677   1.388   8.340   3.981  0.0655  0.7161 -0.5255
  843MOL0     O13678   1.361   8.458   3.923  0.0291 -0.1600 -0.3401
  843MOL0     C13679   1.237   8.482   3.862  0.5117 -0.8400  0.0239
  843MOL0     C13680   1.227   8.621   3.798  0.4356  0.4196 -0.0525
  843MOL0     C13681   1.238   8.729   3.905 -0.1052 -0.0808 -0.6126
  843MOL0     C13682   1.137   8.840   3.879  0.3522  0.2239  1.0783
  843MOL0     C13683   1.162   8.965   3.964  0.5826 -0.0548 -1.2039
  843MOL0     C13684   1.037   9.066   3.982 -0.2768 -0.0999 -0.2312
  843MOL0     C13685   0.991   9.145   3.848 -0.1383  0.1034 -0.0212
  843MOL0     C13686   0.870   9.225   3.877 -0.9922  0.6917  0.6376
  843MOL0     N13687   0.863   9.335   3.784  0.2830 -0.4223  0.5047
  843MOL0     C13688   0.919   9.455   3.792  0.1307  0.1059  0.1799
  843MOL0     C13689   0.857   9.536   3.704  0.0666  0.5829  0.4607
  843MOL0     C13690   0.888   9.680   3.670 -0.3436  0.2758  0.3388
  843MOL0     C13691   0.982   9.693   3.545 -0.5750 -0.4297 -0.3478
  843MOL0     C13692   0.989   9.839   3.492 -0.0958  0.1316  0.3395
  843MOL0     C13693   1.103   9.843   3.386 -0.1119  0.0379  0.4129
  843MOL0     O13694   1.112   9.980   3.338 -0.2727 -0.0386  0.9000
  843MOL0     C13695   1.227  10.017   3.276  0.6971  0.2101  0.6379
  843MOL0     C13696   1.248  10.155   3.267 -0.5578  0.0029  0.5258
  843MOL0     C13697   1.348  10.208   3.187 -0.4987 -0.0388 -0.1565
  843MOL0     C13698   1.379  10.353   3.191 -0.7164  0.3900  0.2039
  843MOL0     C13699   1.419  10.122   3.107 -0.8205 -0.3135 -0.1857
  843MOL0     C13700   1.501  10.157   2.993  0.2301  0.7823 -0.4890
  843MOL0     O13701   1.602  10.071   2.952  0.3980  0.0384 -0.9492
  843MOL0     C13702   1.696  10.101   2.863  0.1073 -0.5420  0.7299
  843MOL0     C13703   1.738  10.236   2.825 -0.0882  0.7740 -0.6014
  843MOL0     C13704   1.846  10.260   2.734 -0.0803  0.1069 -0.5677
  843MOL0     C13705   1.921  10.143   2.698  0.1629 -0.2463  0.2318
  843MOL0     O13706   2.037  10.170   2.622  0.7810 -0.2122 -0.0350
  843MOL0     C13707   2.134  10.067   2.606  0.2351  0.4468  0.5595
  843MOL0     C13708   2.265  10.127   2.540  0.0396  0.4186 -0.5196
  843MOL0     C13709   2.377  10.026   2.539 -0.8938  0.5732  0.4245
  843MOL0     C13710   2.374   9.959   2.406 -0.0243 -0.3228 -0.1517
  843MOL0     C13711   2.463   9.835   2.385 -0.7429  0.3123  0.3319
  843MOL0     C13712   2.611   9.857   2.438  0.4421  0.1178 -0.1782
  843MOL0     C13713   2.684   9.961   2.352  0.1481  0.1499 -0.8111
  843MOL0     C13714   2.822   9.981   2.396 -0.2361 -0.2183 -0.1794
  843MOL0    Cl13715   2.926   9.835   2.382 -0.3030  0.3318 -0.0144
  843MOL0     C13716   1.867  10.018   2.725 -0.0491  0.1871  0.7808
  843MOL0     C13717   1.760   9.992   2.802 -0.1644 -0.6672  0.2681
  843MOL0     O13718   1.475  10.265   2.940 -0.3801  0.0777 -0.1629
  843MOL0     C13719   1.403   9.985   3.117 -0.0029 -0.5288 -0.7867
  843MOL0     C13720   1.316   9.935   3.210 -1.0709  0.5074  0.9126
  843MOL0     N13721   0.762   9.457   3.647  0.0885  0.5166  0.7418
  843MOL0     N13722   0.757   9.341   3.701 -0.0297 -0.2384  0.7927
  843MOL0     C13723   1.289   8.236   3.987 -0.1693  0.0467  1.0616
  843MOL0     C13724   1.319   8.113   4.035 -0.2679  0.2925 -0.3253
  843MOL0     C13725   1.599   7.743   4.106 -0.3369 -0.0141  0.2160
  843MOL0     C13726   1.703   7.672   4.070 -0.1185 -0.5434 -1.0052
  843MOL0     C13727   1.697   7.537   4.069 -0.2390 -0.0292  0.2157
  843MOL0     C13728   1.593   7.470   4.122 -0.4951  0.0483 -0.0372
  843MOL0     O13729   1.603   7.334   4.116  0.9756  0.5521 -0.2423
  843MOL0     C13730   1.485   7.264   4.085  0.2101 -0.5212 -0.4289
  843MOL0     C13731   1.491   7.144   4.189 -0.8375  0.0259 -0.3073
  843MOL0     C13732   1.400   7.039   4.133 -0.4389  0.2292  0.1187
  843MOL0     C13733   1.384   6.918   4.221 -0.4164  0.2409 -0.4808
  843MOL0     C13734   1.320   6.960   4.349 -0.3011 -0.2797 -0.1999
  843MOL0     C13735   1.262   7.003   4.446 -0.4817  0.5087 -0.8805
  843MOL0     C13736   1.489   7.540   4.186 -0.9209 -1.1046 -0.6816
  843MOL0     C13737   1.491   7.680   4.183  0.1499 -0.9296  1.3907
  843MOL0     H13738   1.638   8.179   4.142 -1.5872 -0.7774  3.0000
  843MOL0     H13739   1.577   8.403   4.046  2.8402 -1.4317 -0.8229
  843MOL0     H13740   1.223   8.408   3.783 -2.4862 -0.5237  0.1507
  843MOL0     H13741   1.150   8.472   3.927 -0.5004  1.0513 -0.9490
  843MOL0     H13742   1.296   8.620   3.713 -1.3038 -3.9103 -1.7008
  843MOL0     H13743   1.127   8.636   3.757 -0.0078 -1.1209  0.3860
  843MOL0     H13744   1.232   8.686   4.006  0.3585  0.7522 -0.2246
  843MOL0     H13745   1.342   8.764   3.909  0.7995 -2.5582  0.0521
  843MOL0     H13746   1.156   8.881   3.780  0.4460  1.3611  1.5471
  843MOL0     H13747   1.035   8.802   3.889  0.1528 -0.1143 -1.6573
  843MOL0     H13748   1.181   8.917   4.061  3.6802 -0.3298 -1.8614
  843MOL0     H13749   1.246   9.032   3.942  0.8635  1.0258  2.4525
  843MOL0     H13750   0.955   9.004   4.020  0.9314 -1.6280 -0.0199
  843MOL0     H13751   1.068   9.142   4.054  1.3713 -1.2707  0.3598
  843MOL0     H13752   1.077   9.191   3.800  0.2520 -2.9972 -2.6682
  843MOL0     H13753   0.958   9.075   3.770  2.1513 -1.5511  0.3958
  843MOL0     H13754   0.885   9.265   3.978  2.9745 -0.3936  0.6541
  843MOL0     H13755   0.776   9.170   3.873  0.3853 -1.7539  0.3159
  843MOL0     H13756   1.011   9.477   3.845  0.4487  4.8832 -1.8177
  843MOL0     H13757   0.800   9.728   3.627 -0.1628  2.1735  1.9574
  843MOL0     H13758   0.943   9.720   3.755  2.4867 -1.8611 -0.3239
  843MOL0     H13759   0.943   9.625   3.468 -1.4048 -0.9671  0.5338
  843MOL0     H13760   1.082   9.666   3.582 -1.7081 -0.3877  3.0743
  843MOL0     H13761   1.025   9.903   3.574  4.7086 -1.3394 -0.3271
  843MOL0     H13762   0.892   9.873   3.455  0.3677  1.6288  0.4419
  843MOL0     H13763   1.085   9.775   3.302  1.4078 -3.9858  3.0492
  843MOL0     H13764   1.194   9.809   3.437  2.5568  1.2452 -3.1291
  843MOL0     H13765   1.168  10.218   3.304 -2.5347 -3.4183  2.6226
  843MOL0     H13766   1.353  10.403   3.097 -0.1604 -1.5664 -1.0385
  843MOL0     H13767   1.322  10.399   3.273  2.4487  0.7840  2.3587
  843MOL0     H13768   1.485  10.376   3.203 -0.7407  2.2668 -2.4529
  843MOL0     H13769   1.671  10.313   2.863 -0.0681  1.0938 -1.1987
  843MOL0     H13770   1.862  10.358   2.692 -2.4337  1.5659  1.6283
  843MOL0     H13771   2.171  10.032   2.703 -0.7905 -1.9535  0.1522
  843MOL0     H13772   2.102   9.986   2.540  1.6614  0.1694  0.1842
  843MOL0     H13773   2.229  10.160   2.442  1.6767  1.1919 -0.8887
  843MOL0     H13774   2.301  10.211   2.600 -0.2665 -0.1819  0.5327
  843MOL0     H13775   2.385   9.945   2.612  0.4986 -0.4051 -0.7638
  843MOL0     H13776   2.474  10.074   2.550  0.0709 -1.6263  2.2311
  843MOL0     H13777   2.273   9.931   2.372 -0.8904  0.8527  1.3223
  843MOL0     H13778   2.394  10.039   2.333  1.5629 -0.7260 -0.1757
  843MOL0     H13779   2.463   9.817   2.277 -2.4636  3.1971 -0.2468
  843MOL0     H13780   2.430   9.736   2.421 -0.6539 -0.9377 -2.7116
  843MOL0     H13781   2.617   9.876   2.546 -0.5459  2.1549 -0.4390
  843MOL0     H13782   2.659   9.759   2.427  2.9588  1.3667 -1.0845
  843MOL0     H13783   2.639  10.058   2.373  0.1622 -0.0634  0.2498
  843MOL0     H13784   2.686   9.931   2.246  1.3923 -1.3339 -0.4090
  843MOL0     H13785   2.837  10.028   2.494  0.6617 -0.6524 -0.0976
  843MOL0     H13786   2.870  10.051   2.327  0.9786 -1.6158 -0.8162
  843MOL0     H13787   1.928   9.939   2.681  1.9758  2.1925 -0.2327
  843MOL0     H13788   1.731   9.888   2.815  0.3348 -0.6880  1.2338
  843MOL0     H13789   1.461   9.916   3.057  1.1450 -0.8476  0.6400
  843MOL0     H13790   1.308   9.827   3.220 -1.6516  0.2872 -1.4432
  843MOL0     H13791   1.190   8.245   3.945  0.8019 -3.2875 -2.5834
  843MOL0     H13792   1.251   8.028   4.034  0.1103 -0.0344  0.3426
  843MOL0     H13793   1.787   7.718   4.020 -1.1677  0.3934 -1.9513
  843MOL0     H13794   1.777   7.480   4.022 -1.5259 -0.0624 -2.0147
  843MOL0     H13795   1.399   7.327   4.108  1.1477 -0.0741  2.3510
  843MOL0     H13796   1.482   7.225   3.983  2.2016  0.6143 -0.9840
  843MOL0     H13797   1.460   7.188   4.284 -2.0047  2.0268 -1.5244
  843MOL0     H13798   1.595   7.112   4.198 -0.0447  2.8710  2.2250
  843MOL0     H13799   1.450   7.004   4.042  0.3244  0.0874  0.5843
  843MOL0     H13800   1.305   7.081   4.099  0.9302  2.4997 -1.1383
  843MOL0     H13801   1.479   6.865   4.229 -0.0539  1.1370  2.9353
  843MOL0     H13802   1.316   6.844   4.178 -2.5573  0.2314  2.5798
  843MOL0     H13803   1.207   7.050   4.525  1.3306  0.9465  0.1698
  843MOL0     H13804   1.399   7.501   4.232  0.5093 -0.1592  3.2595
  843MOL0     H13805   1.415   7.739   4.232  0.8830  0.2248  1.1617
  844MOL0     O13806   5.332   4.901   5.579  0.1263 -0.1954  0.5610
  844MOL0     C13807   5.421   4.944   5.508  0.7009  0.0615  0.5830
  844MOL0     O13808   5.560   4.937   5.536  0.0027 -0.5018 -0.5377
  844MOL0     C13809   5.614   4.873   5.646 -0.2996 -0.4161  0.0037
  844MOL0     C13810   5.602   4.736   5.647  0.4161  0.2548 -0.0150
  844MOL0     C13811   5.645   4.662   5.755  0.3335 -0.7039 -0.6937
  844MOL0     C13812   5.711   4.726   5.865 -0.5872 -0.2931  1.1345
  844MOL0     O13813   5.769   4.667   5.976  0.4457 -0.5280 -0.3042
  844MOL0     C13814   5.797   4.527   5.980  0.6367 -1.0310  0.6152
  844MOL0     C13815   5.897   4.471   5.870  0.6232  0.0228 -0.4030
  844MOL0     C13816   6.045   4.498   5.901 -0.3220  0.1544 -0.1330
  844MOL0     C13817   6.126   4.403   5.812  0.4273  0.4754 -0.0613
  844MOL0     C13818   6.273   4.439   5.818  0.0284 -0.4551  0.1738
  844MOL0     C13819   6.362   4.337   5.753 -0.0521  0.5370 -0.4129
  844MOL0     C13820   6.505   4.393   5.737  0.7123  0.4986  0.0877
  844MOL0     C13821   6.595   4.291   5.656  0.4674 -0.2149 -0.3765
  844MOL0     N13822   6.680   4.192   5.736 -0.1967 -0.3750 -0.4321
  844MOL0     C13823   6.642   4.058   5.758 -0.4362 -0.3665  0.5245
  844MOL0     C13824   6.757   4.001   5.794 -0.2109  0.2952 -0.2144
  844MOL0     C13825   6.769   3.856   5.818 -0.9791  0.7609  0.5369
  844MOL0     C13826   6.897   3.808   5.737 -1.0924  0.2400  1.0536
  844MOL0     C13827   6.911   3.657   5.758 -0.6272  0.6809  0.3961
  844MOL0     C13828   7.059   3.613   5.787 -0.1345  0.8705 -0.1566
  844MOL0     O13829   7.132   3.656   5.675  0.0011 -0.1810  0.4627
  844MOL0     C13830   7.264   3.618   5.674 -0.1384  0.2429 -1.0235
  844MOL0     C13831   7.331   3.559   5.783 -0.3467  0.6358  1.2754
  844MOL0     C13832   7.469   3.515   5.772 -0.1555 -1.1335  0.7203
  844MOL0     C13833   7.518   3.441   5.898  0.0203 -0.7025  0.4497
  844MOL0     C13834   7.535   3.528   5.651 -0.0613 -0.7423 -0.0942
  844MOL0     C13835   7.647   3.446   5.613 -0.0037 -0.1981 -1.5434
  844MOL0     O13836   7.695   3.467   5.483 -0.5908 -0.1724  0.0083
  844MOL0     C13837   7.804   3.397   5.444 -0.3657  0.0216 -0.2147
  844MOL0     C13838   7.833   3.255   5.457  0.6461 -0.3342 -0.2441
  844MOL0     C13839   7.946   3.202   5.403 -0.1858 -0.1821 -0.5546
  844MOL0     C13840   8.021   3.287   5.317  0.3201  0.0337  0.8798
  844MOL0     O13841   8.130   3.219   5.255  0.6300 -0.1701 -0.2880
  844MOL0     C13842   8.181   3.275   5.134 -0.4512  0.0233  0.5337
  844MOL0     C13843   8.273   3.182   5.065 -0.5549 -0.2455 -0.1932
  844MOL0     C13844   8.398   3.153   5.145  0.9260  0.1899 -0.9895
  844MOL0     C13845   8.486   3.051   5.091 -0.5756 -0.1716  0.6699
  844MOL0     C13846   8.593   3.022   5.196  0.3915 -0.2502  0.6906
  844MOL0     C13847   8.675   2.899   5.167  0.0681  0.3558 -0.2145
  844MOL0     C13848   8.770   2.906   5.047 -1.0920 -1.3269 -0.0645
  844MOL0     C13849   8.897   2.826   5.065  0.0331 -0.5593 -1.0017
  844MOL0    Cl13850   8.869   2.651   5.045 -0.1791  0.1695  0.1818
  844MOL0     C13851   7.998   3.420   5.305  0.3376 -0.4291 -0.1489
  844MOL0     C13852   7.883   3.475   5.362  0.6383  0.3006  0.4306
  844MOL0     O13853   7.703   3.382   5.700  0.2281  0.1232  0.8086
  844MOL0     C13854   7.469   3.601   5.548  0.2415  0.0312  0.3937
  844MOL0     C13855   7.340   3.651   5.561 -0.2284 -0.7932 -0.1381
  844MOL0     N13856   6.857   4.091   5.805  0.4346  0.1344  0.3856
  844MOL0     N13857   6.808   4.202   5.758 -0.0686  0.3121 -0.8033
  844MOL0     C13858   5.746   4.861   5.844  1.1665 -1.2791 -0.5025
  844MOL0     C13859   5.675   4.940   5.750 -0.3017  0.2281 -1.1058
  844MOL0     C13860   5.380   5.003   5.379  0.4932  0.3109  0.2252
  844MOL0     C13861   5.254   5.062   5.364  0.2063 -0.4537 -0.0214
  844MOL0     C13862   5.224   5.129   5.250  0.1001 -0.5285  0.8485
  844MOL0     C13863   5.308   5.134   5.144 -0.6750  0.0018 -1.3273
  844MOL0     O13864   5.267   5.192   5.030 -0.2197  0.9478 -0.5882
  844MOL0     C13865   5.308   5.133   4.903  0.7898  0.6713  0.1109
  844MOL0     C13866   5.186   5.139   4.814 -0.0820 -0.3853  1.3257
  844MOL0     C13867   5.222   5.094   4.673 -0.0608  0.7144 -1.1284
  844MOL0     C13868   5.259   4.948   4.652  0.0829  0.1797  0.2795
  844MOL0     C13869   5.396   4.917   4.683  0.7665 -0.0828  0.8525
  844MOL0     C13870   5.512   4.888   4.708  0.0436  0.3780 -0.7010
  844MOL0     C13871   5.443   5.080   5.156  0.4103  0.9740  0.3619
  844MOL0     C13872   5.479   5.019   5.279  0.1737 -0.0785 -0.2290
  844MOL0     H13873   5.567   4.682   5.560 -0.2283 -3.2100  2.2089
  844MOL0     H13874   5.634   4.554   5.751 -0.0266 -0.7017  0.0978
  844MOL0     H13875   5.822   4.498   6.083 -2.7550 -0.1911  1.8152
  844MOL0     H13876   5.706   4.471   5.956  1.2115 -1.0327 -1.7598
  844MOL0     H13877   5.878   4.364   5.872 -0.8534  0.2535 -0.9902
  844MOL0     H13878   5.863   4.505   5.772 -2.5876 -0.1985  0.5485
  844MOL0     H13879   6.054   4.603   5.871 -0.2022  0.2124  0.1034
  844MOL0     H13880   6.065   4.486   6.008 -2.2598 -0.8057  0.1503
  844MOL0     H13881   6.118   4.296   5.835  4.8352 -0.0156  0.1034
  844MOL0     H13882   6.090   4.424   5.711  1.0223  0.9008 -0.1877
  844MOL0     H13883   6.293   4.541   5.784  2.0722 -0.9969 -0.4108
  844MOL0     H13884   6.301   4.440   5.924  1.2182  0.9910 -0.1020
  844MOL0     H13885   6.350   4.237   5.796 -0.1145 -0.1375 -1.9343
  844MOL0     H13886   6.313   4.323   5.656 -2.1905 -0.1649  0.7054
  844MOL0     H13887   6.503   4.489   5.686 -2.1561 -1.5789 -4.3763
  844MOL0     H13888   6.554   4.390   5.835 -0.9207 -1.7741  0.9472
  844MOL0     H13889   6.657   4.350   5.589 -1.3349 -0.7899 -2.6905
  844MOL0     H13890   6.533   4.229   5.591 -0.1428  0.5058 -0.4954
  844MOL0     H13891   6.547   4.009   5.743  0.2486 -1.4561 -0.3811
  844MOL0     H13892   6.779   3.827   5.923 -1.7028 -1.7786 -0.0202
  844MOL0     H13893   6.681   3.806   5.777  0.9317 -2.3529 -0.1363
  844MOL0     H13894   6.987   3.856   5.775  0.2923 -0.1199 -1.5792
  844MOL0     H13895   6.876   3.832   5.633  0.3611  0.6144  0.8273
  844MOL0     H13896   6.869   3.608   5.670 -0.5516  2.7141 -0.8558
  844MOL0     H13897   6.854   3.627   5.846 -2.1075  3.9610  0.7209
  844MOL0     H13898   7.073   3.506   5.803 -1.4100  0.6449 -0.4204
  844MOL0     H13899   7.094   3.662   5.878  0.0498 -0.9207  0.7844
  844MOL0     H13900   7.273   3.542   5.873 -2.6174  1.1642 -0.0088
  844MOL0     H13901   7.625   3.451   5.919  0.7220 -3.3714 -1.4069
  844MOL0     H13902   7.465   3.475   5.987 -0.7459 -0.0482 -0.2425
  844MOL0     H13903   7.493   3.336   5.879  3.7930 -1.5919 -0.4572
  844MOL0     H13904   7.754   3.194   5.500 -0.3116 -1.0757 -2.8549
  844MOL0     H13905   7.971   3.098   5.423 -0.0479 -0.0182  0.1532
  844MOL0     H13906   8.104   3.305   5.063 -0.1192  2.7014  1.1659
  844MOL0     H13907   8.236   3.367   5.160 -2.3691  1.5175 -0.4336
  844MOL0     H13908   8.225   3.086   5.047  2.1313 -1.2754 -2.6494
  844MOL0     H13909   8.306   3.214   4.966 -1.5560 -2.6591 -1.3680
  844MOL0     H13910   8.361   3.114   5.240 -1.8536 -1.7940 -2.7178
  844MOL0     H13911   8.457   3.240   5.176 -1.4048  0.9148  1.9004
  844MOL0     H13912   8.435   2.956   5.073  0.4662 -1.1601  2.6976
  844MOL0     H13913   8.520   3.085   4.992  3.4131  1.0924  2.2885
  844MOL0     H13914   8.534   3.005   5.287 -3.0860 -1.3858 -1.5389
  844MOL0     H13915   8.661   3.107   5.208 -0.6358  0.5688  0.8500
  844MOL0     H13916   8.729   2.869   5.257 -0.8356  3.1729  1.3888
  844MOL0     H13917   8.600   2.820   5.157  0.8472 -0.5983  1.1975
  844MOL0     H13918   8.789   3.011   5.021 -0.7154 -1.0831  1.1456
  844MOL0     H13919   8.725   2.854   4.962 -1.7161 -0.8430 -0.0417
  844MOL0     H13920   8.944   2.845   5.162  2.9616 -0.3867 -2.3414
  844MOL0     H13921   8.973   2.859   4.994  1.2964  0.2726  0.6713
  844MOL0     H13922   8.066   3.481   5.247  0.6490  0.9071  1.5473
  844MOL0     H13923   7.867   3.582   5.359  0.3765  0.3794  2.8803
  844MOL0     H13924   7.505   3.607   5.446 -2.4812 -0.3942 -0.6956
  844MOL0     H13925   7.290   3.714   5.488 -0.0387 -0.1803  0.2460
  844MOL0     H13926   5.800   4.902   5.929 -0.0856  1.5358 -0.9609
  844MOL0     H13927   5.678   5.047   5.766 -3.2750  0.2583 -0.1712
  844MOL0     H13928   5.183   5.062   5.446 -1.2670  0.0353 -1.2372
  844MOL0     H13929   5.131   5.182   5.235  0.8836  0.3099 -1.4258
  844MOL0     H13930   5.389   5.199   4.872  0.2855  2.9322  3.0798
  844MOL0     H13931   5.340   5.030   4.916 -0.9449  0.3389  2.5605
  844MOL0     H13932   5.136   5.236   4.823  1.3815  0.5641 -0.2143
  844MOL0     H13933   5.125   5.059   4.857  0.9408 -1.3954  0.9322
  844MOL0     H13934   5.304   5.162   4.646  1.6936 -0.1331  1.5981
  844MOL0     H13935   5.134   5.119   4.614 -0.7340  1.0804  0.0029
  844MOL0     H13936   5.244   4.910   4.550 -0.5310 -1.1456  0.8426
  844MOL0     H13937   5.188   4.886   4.706  0.4480 -0.7140 -0.2478
  844MOL0     H13938   5.612   4.863   4.737 -0.6480 -1.7090  0.0867
  844MOL0     H13939   5.524   5.072   5.084  0.2557 -1.1244  0.3552
  844MOL0     H13940   5.579   4.978   5.275 -1.3678 -4.1517 -1.7298
  845MOL0     O13941   6.182   7.290   4.133 -0.2206 -0.4303  0.0071
  845MOL0     C13942   6.181   7.322   4.253  0.0935 -0.1664  0.6502
  845MOL0     O13943   6.217   7.449   4.291 -0.1679  0.4018  0.3278
  845MOL0     C13944   6.283   7.529   4.206 -0.6745 -0.3281  0.8635
  845MOL0     C13945   6.217   7.622   4.118 -0.1757  0.1890 -0.0853
  845MOL0     C13946   6.290   7.700   4.025  0.7279 -0.0882  0.0090
  845MOL0     C13947   6.428   7.695   4.032  0.0676 -0.5238  0.1934
  845MOL0     O13948   6.513   7.768   3.952 -0.9149 -0.3505 -0.9769
  845MOL0     C13949   6.551   7.703   3.821 -0.7192 -0.3482 -0.7092
  845MOL0     C13950   6.441   7.704   3.714  0.3889  0.9943  0.1066
  845MOL0     C13951   6.473   7.634   3.590  0.0426  0.1843 -0.4848
  845MOL0     C13952   6.579   7.716   3.514 -0.1135  0.0880 -0.2836
  845MOL0     C13953   6.605   7.671   3.377  0.1255 -1.6432  0.0663
  845MOL0     C13954   6.682   7.539   3.379  0.7432 -0.4961 -0.7970
  845MOL0     C13955   6.739   7.502   3.239  0.5058 -0.3443 -0.4067
  845MOL0     C13956   6.683   7.363   3.189  0.3560 -0.2595  0.4838
  845MOL0     N13957   6.733   7.348   3.049  0.2136 -0.3200  0.1377
  845MOL0     C13958   6.854   7.296   3.010 -0.0675 -1.0821  0.0322
  845MOL0     C13959   6.857   7.319   2.878  0.8504 -0.2864 -0.0439
  845MOL0     C13960   6.947   7.269   2.775 -0.6263 -0.1574 -0.8393
  845MOL0     C13961   7.090   7.330   2.764  0.4812 -0.9736  1.0788
  845MOL0     C13962   7.083   7.480   2.722  0.7108  0.1696 -0.0814
  845MOL0     C13963   7.218   7.547   2.734  0.8625 -0.2489 -0.0070
  845MOL0     O13964   7.279   7.544   2.868  0.3497  0.2943  0.1128
  845MOL0     C13965   7.215   7.607   2.971  0.2354  0.0255 -0.0089
  845MOL0     C13966   7.127   7.721   2.985 -0.1053  0.3356  0.4779
  845MOL0     C13967   7.070   7.767   3.105 -0.4527 -0.1109  0.4091
  845MOL0     C13968   6.973   7.884   3.098 -0.0253  0.1297  0.8883
  845MOL0     C13969   7.106   7.703   3.224 -0.3530  0.2158  0.2169
  845MOL0     C13970   7.056   7.737   3.359  0.2903 -0.0762 -0.0516
  845MOL0     O13971   7.150   7.725   3.452 -0.0014  0.8648  0.4153
  845MOL0     C13972   7.095   7.750   3.578  0.0581  0.9516  0.0304
  845MOL0     C13973   7.012   7.647   3.632  0.4280 -1.0003 -0.1295
  845MOL0     C13974   6.955   7.665   3.756  0.5289 -0.4437  0.8713
  845MOL0     C13975   6.988   7.774   3.834 -0.2300  0.5067  0.2565
  845MOL0     O13976   6.938   7.762   3.963  0.7621  0.1844 -0.2727
  845MOL0     C13977   6.895   7.891   4.012  0.4836  0.7267 -0.5869
  845MOL0     C13978   6.832   7.892   4.156 -0.0477  0.1523 -0.6328
  845MOL0     C13979   6.944   7.879   4.261  0.5354 -0.5085 -0.5608
  845MOL0     C13980   6.905   7.932   4.404  0.9560  0.5073  0.3717
  845MOL0     C13981   6.860   7.806   4.486 -0.7350 -0.7425  0.6149
  845MOL0     C13982   6.711   7.792   4.472 -0.3772  0.2191 -0.0487
  845MOL0     C13983   6.676   7.657   4.535 -0.1253 -0.2493 -0.3309
  845MOL0     C13984   6.529   7.631   4.560  0.0778 -0.3785 -0.2212
  845MOL0    Cl13985   6.484   7.460   4.572 -0.0759  0.3069  0.3392
  845MOL0     C13986   7.093   7.853   3.793  0.1136 -0.0585  0.3878
  845MOL0     C13987   7.143   7.843   3.664 -0.4993  0.1798 -0.7011
  845MOL0     O13988   6.941   7.772   3.380  0.2731  0.0144 -0.1760
  845MOL0     C13989   7.184   7.581   3.211  0.1605 -0.1819  0.2234
  845MOL0     C13990   7.239   7.540   3.086  0.3044 -0.4424  0.6184
  845MOL0     N13991   6.740   7.375   2.829  0.6056 -0.1573  0.3873
  845MOL0     N13992   6.677   7.403   2.939  1.3079 -0.4300 -0.7876
  845MOL0     C13993   6.495   7.609   4.125 -0.0544  0.5489  1.3185
  845MOL0     C13994   6.416   7.526   4.204  0.0069  0.8422 -0.5225
  845MOL0     C13995   6.118   7.223   4.342 -0.1343 -1.0663 -0.1295
  845MOL0     C13996   6.072   7.101   4.292 -0.7210 -0.3206  0.3508
  845MOL0     C13997   6.016   7.006   4.376 -0.5910  0.7193 -0.7198
  845MOL0     C13998   6.001   7.033   4.509  0.2343 -0.5387 -0.0485
  845MOL0     O13999   5.938   6.932   4.582  0.2754 -0.3166 -0.4472
  845MOL0     C14000   5.945   6.956   4.725  0.5665  0.6671 -0.3767
  845MOL0     C14001   5.926   6.826   4.809 -0.4664 -0.1783 -0.3532
  845MOL0     C14002   6.051   6.744   4.829 -0.0384 -0.3165  0.6923
  845MOL0     C14003   6.131   6.814   4.942  0.7317  0.8229 -0.7362
  845MOL0     C14004   6.262   6.749   4.964  0.2015  0.1662  0.1055
  845MOL0     C14005   6.364   6.698   4.993 -0.4575  0.1657  0.6130
  845MOL0     C14006   6.043   7.156   4.557  0.3295 -0.1581 -0.3972
  845MOL0     C14007   6.115   7.248   4.478 -0.5993 -0.4777 -0.0049
  845MOL0     H14008   6.110   7.639   4.125 -0.2057  0.7913 -1.5236
  845MOL0     H14009   6.239   7.772   3.962 -0.7111  0.9057  2.1989
  845MOL0     H14010   6.645   7.753   3.795 -0.1604 -1.0054  0.0031
  845MOL0     H14011   6.582   7.600   3.840  1.3027  0.2620 -0.5036
  845MOL0     H14012   6.349   7.656   3.749  1.7998 -2.8190 -0.9176
  845MOL0     H14013   6.410   7.806   3.692 -3.7592 -0.2671 -0.7685
  845MOL0     H14014   6.503   7.529   3.600 -2.7011 -0.7086 -0.6881
  845MOL0     H14015   6.377   7.634   3.537  1.6699 -0.7295 -3.6767
  845MOL0     H14016   6.545   7.820   3.518 -2.9862 -0.8255  1.4166
  845MOL0     H14017   6.679   7.709   3.558  0.4115 -0.0305 -1.4592
  845MOL0     H14018   6.519   7.650   3.313  2.6767  0.5711 -4.6500
  845MOL0     H14019   6.662   7.753   3.332  1.1968 -2.6580 -0.4940
  845MOL0     H14020   6.772   7.544   3.442 -0.3063  2.3758  0.6596
  845MOL0     H14021   6.612   7.458   3.400  0.5076 -0.8174 -2.6615
  845MOL0     H14022   6.725   7.581   3.164 -1.8752  1.0724  1.4120
  845MOL0     H14023   6.847   7.492   3.253  0.2227 -0.7929  1.6373
  845MOL0     H14024   6.575   7.370   3.176  0.4300  1.6661  0.5893
  845MOL0     H14025   6.720   7.282   3.252 -0.9187 -0.5678  0.8500
  845MOL0     H14026   6.921   7.235   3.070  3.8960  0.0150 -2.9129
  845MOL0     H14027   6.963   7.163   2.800 -3.3163 -1.6507 -4.5405
  845MOL0     H14028   6.900   7.261   2.677 -1.6993  1.5462 -0.4889
  845MOL0     H14029   7.145   7.286   2.680  1.1261  0.9538  0.4515
  845MOL0     H14030   7.147   7.316   2.857 -0.3833 -0.3058  1.7255
  845MOL0     H14031   7.006   7.538   2.773 -0.5333 -2.7047  1.5661
  845MOL0     H14032   7.052   7.473   2.617 -1.9475  0.3812  0.6099
  845MOL0     H14033   7.210   7.642   2.682 -1.3588 -1.5079 -2.2084
  845MOL0     H14034   7.288   7.506   2.661 -0.3938  1.9971 -2.6327
  845MOL0     H14035   7.115   7.783   2.897  0.9488  2.0555  1.4944
  845MOL0     H14036   6.877   7.860   3.144 -0.9459  2.5319  0.3929
  845MOL0     H14037   7.017   7.976   3.138 -1.4524  1.5887 -0.7066
  845MOL0     H14038   6.957   7.906   2.992 -1.6521  1.4268  1.3571
  845MOL0     H14039   6.996   7.554   3.579  1.9913 -2.3408  1.6408
  845MOL0     H14040   6.908   7.574   3.792  0.4492 -1.4028 -1.4604
  845MOL0     H14041   6.974   7.966   4.012  0.7319  0.4637 -0.1324
  845MOL0     H14042   6.817   7.932   3.946  1.5532  2.5456 -0.7748
  845MOL0     H14043   6.781   7.986   4.176  2.2959  1.1059  1.4459
  845MOL0     H14044   6.760   7.810   4.160 -1.2788  1.2368 -0.0092
  845MOL0     H14045   7.020   7.952   4.228 -0.2825  0.2866 -0.7253
  845MOL0     H14046   6.997   7.784   4.253  2.6867  0.6494 -1.0654
  845MOL0     H14047   6.998   7.975   4.443  1.2173  0.2473  0.0449
  845MOL0     H14048   6.831   8.012   4.408  1.7322  1.4276 -1.9295
  845MOL0     H14049   6.889   7.829   4.589  1.3039  0.4122 -0.1577
  845MOL0     H14050   6.910   7.721   4.438 -1.1396  0.2838 -1.7725
  845MOL0     H14051   6.658   7.876   4.519  0.1713  0.0337  0.9412
  845MOL0     H14052   6.687   7.789   4.366 -1.0076 -1.3176  0.1065
  845MOL0     H14053   6.729   7.647   4.631 -1.4838  0.7183  0.5687
  845MOL0     H14054   6.692   7.586   4.454 -1.4094 -0.0326 -0.7979
  845MOL0     H14055   6.473   7.664   4.473 -2.9892 -4.0147  0.0847
  845MOL0     H14056   6.482   7.679   4.647 -1.8887  0.4091 -1.6512
  845MOL0     H14057   7.140   7.915   3.868  1.3668 -1.0676  0.4577
  845MOL0     H14058   7.223   7.912   3.637 -2.7083  1.7817 -3.6507
  845MOL0     H14059   7.201   7.510   3.291 -0.5744 -0.8981 -0.2349
  845MOL0     H14060   7.300   7.451   3.085 -1.3508 -1.6251  0.4371
  845MOL0     H14061   6.604   7.613   4.130  0.1160  0.1580 -1.0111
  845MOL0     H14062   6.462   7.460   4.278 -2.7208  0.2055  0.7093
  845MOL0     H14063   6.084   7.072   4.188 -2.5377  1.0279 -0.2882
  845MOL0     H14064   5.989   6.908   4.340  3.5893 -1.7532  1.9820
  845MOL0     H14065   6.039   7.002   4.758 -0.5366  0.7896  2.9279
  845MOL0     H14066   5.857   7.019   4.742 -0.0935  0.3085 -2.2785
  845MOL0     H14067   5.870   6.759   4.742 -2.1026  0.1502  0.6434
  845MOL0     H14068   5.866   6.851   4.896 -2.2954 -1.4171 -1.1844
  845MOL0     H14069   6.114   6.739   4.740  0.3883 -2.4077  1.0497
  845MOL0     H14070   6.024   6.639   4.849 -1.3981 -0.0981  0.1120
  845MOL0     H14071   6.080   6.823   5.038 -1.6896  2.2350 -2.0408
  845MOL0     H14072   6.140   6.918   4.909 -0.3680  0.9125 -0.8031
  845MOL0     H14073   6.449   6.640   5.022 -0.2766  0.9139  1.6099
  845MOL0     H14074   6.006   7.192   4.653  2.0818  0.8632 -0.0685
  845MOL0     H14075   6.150   7.341   4.522 -0.8383 -1.0381  1.4182
  846MOL0     O14076   5.261   1.484   3.745  0.6525 -0.1758  0.3346
  846MOL0     C14077   5.207   1.500   3.856 -0.2248  0.5746  0.5320
  846MOL0     O14078   5.267   1.510   3.971 -0.1823 -0.5577 -0.6308
  846MOL0     C14079   5.399   1.496   3.992 -0.1047  0.4976 -0.3876
  846MOL0     C14080   5.465   1.594   4.070  0.0272  0.0053 -0.2994
  846MOL0     C14081   5.597   1.585   4.091 -0.4119  0.2009  0.7694
  846MOL0     C14082   5.669   1.491   4.025  1.1439 -0.1101  0.4456
  846MOL0     O14083   5.802   1.493   4.038  0.6325 -0.8295 -0.3647
  846MOL0     C14084   5.852   1.398   4.130 -0.3563 -0.4637 -0.1511
  846MOL0     C14085   5.914   1.274   4.060 -0.3947  0.0541 -0.3374
  846MOL0     C14086   6.032   1.306   3.964  0.1035 -0.1433 -0.7999
  846MOL0     C14087   6.152   1.358   4.045 -0.3742  0.0365  0.2582
  846MOL0     C14088   6.269   1.374   3.950 -0.4069  0.2209 -0.2296
  846MOL0     C14089   6.385   1.446   4.019  0.0568 -0.5640 -0.0390
  846MOL0     C14090   6.440   1.382   4.157  0.1237 -0.0777  0.0091
  846MOL0     C14091   6.483   1.239   4.139  0.4233 -0.6582 -0.3384
  846MOL0     N14092   6.581   1.223   4.029  0.5094 -0.1235  0.4867
  846MOL0     C14093   6.702   1.293   4.024  0.1452 -0.8118 -0.2628
  846MOL0     C14094   6.774   1.246   3.927  0.6802  0.1902 -0.0076
  846MOL0     C14095   6.902   1.314   3.890 -0.3126  0.5153  0.4319
  846MOL0     C14096   6.873   1.453   3.825  1.4807 -0.7673 -0.6597
  846MOL0     C14097   6.775   1.452   3.696  1.2530 -0.1108  0.5458
  846MOL0     C14098   6.803   1.339   3.596 -1.5770  1.1452  0.1981
  846MOL0     O14099   6.709   1.339   3.484 -0.3264 -0.8790 -0.6521
  846MOL0     C14100   6.582   1.298   3.502  1.0810 -0.7551  0.2129
  846MOL0     C14101   6.558   1.175   3.559 -0.1356 -0.2545 -0.2211
  846MOL0     C14102   6.434   1.130   3.595  0.2319 -0.2107 -0.2031
  846MOL0     C14103   6.410   1.006   3.685  0.1396  0.7467  0.3296
  846MOL0     C14104   6.320   1.208   3.566 -0.2242  0.4797  0.8907
  846MOL0     C14105   6.176   1.175   3.598 -0.4971  0.5016  0.0189
  846MOL0     O14106   6.148   1.047   3.590  0.6174 -0.0055 -0.3235
  846MOL0     C14107   6.021   1.011   3.596  0.1885  0.6308  0.5358
  846MOL0     C14108   5.948   1.009   3.712 -0.4688  0.1507  0.1900
  846MOL0     C14109   5.826   0.937   3.719 -0.2925  0.2348  0.8216
  846MOL0     C14110   5.769   0.886   3.598 -0.1298 -0.4057 -1.5101
  846MOL0     O14111   5.646   0.825   3.611 -0.0828  0.0130 -0.1029
  846MOL0     C14112   5.589   0.757   3.500  0.0438 -0.3267 -0.1777
  846MOL0     C14113   5.459   0.710   3.562  0.0303 -0.4745  0.2734
  846MOL0     C14114   5.359   0.830   3.553 -0.6782 -0.3284  1.3432
  846MOL0     C14115   5.247   0.792   3.644  0.2476 -0.6254 -0.1173
  846MOL0     C14116   5.182   0.930   3.687 -0.8526 -0.3628  0.1550
  846MOL0     C14117   5.071   0.914   3.783  0.5224  0.4028 -1.2137
  846MOL0     C14118   5.011   1.052   3.800 -0.2517 -0.0312 -0.1527
  846MOL0     C14119   4.865   1.060   3.861 -0.3368  0.6199  0.0871
  846MOL0    Cl14120   4.757   1.041   3.717 -0.1125  0.3425 -0.5127
  846MOL0     C14121   5.834   0.908   3.473  0.7501  0.3004  0.4147
  846MOL0     C14122   5.968   0.968   3.475  0.4746  0.1716 -0.1670
  846MOL0     O14123   6.096   1.264   3.619  0.0205  0.0625 -0.4457
  846MOL0     C14124   6.342   1.327   3.503 -0.1737 -0.2640  0.0498
  846MOL0     C14125   6.470   1.374   3.469  0.0613  0.5623  0.4416
  846MOL0     N14126   6.704   1.147   3.860  0.5607  0.1649 -0.4515
  846MOL0     N14127   6.585   1.138   3.916  0.3519  0.2855 -0.7514
  846MOL0     C14128   5.610   1.395   3.953  0.0501 -0.0976  0.5931
  846MOL0     C14129   5.475   1.398   3.925  0.4150  0.5799 -0.7735
  846MOL0     C14130   5.065   1.529   3.852  0.5168  0.4753  0.3422
  846MOL0     C14131   4.996   1.606   3.952 -0.2774  0.0430  0.2114
  846MOL0     C14132   4.863   1.660   3.920  0.0037 -0.1320 -0.0445
  846MOL0     C14133   4.794   1.612   3.810  0.3775 -0.3534  0.6155
  846MOL0     O14134   4.662   1.649   3.798  0.0961 -0.6670  0.0419
  846MOL0     C14135   4.579   1.591   3.699  0.1513  0.0710  0.3022
  846MOL0     C14136   4.543   1.437   3.723 -0.5639 -0.5015 -0.4093
  846MOL0     C14137   4.436   1.376   3.624 -0.7575 -0.3178  0.1137
  846MOL0     C14138   4.417   1.227   3.652 -0.1136  0.3451 -1.2232
  846MOL0     C14139   4.318   1.168   3.566  0.6270 -0.2940  0.2541
  846MOL0     C14140   4.233   1.126   3.493 -0.5883 -0.4251  1.0535
  846MOL0     C14141   4.859   1.522   3.719 -0.3044  0.2126  0.7919
  846MOL0     C14142   4.994   1.489   3.732  0.2276  0.4462 -0.7062
  846MOL0     H14143   5.410   1.670   4.125 -0.0892 -1.1609  1.2373
  846MOL0     H14144   5.650   1.645   4.165 -0.0382 -0.3382  0.9434
  846MOL0     H14145   5.928   1.443   4.194  0.2104 -0.1122 -1.0465
  846MOL0     H14146   5.769   1.354   4.185 -2.7383  1.6960 -1.7302
  846MOL0     H14147   5.949   1.205   4.138 -0.2661  0.5489  0.0518
  846MOL0     H14148   5.840   1.217   4.004 -3.2499  1.6520  1.6060
  846MOL0     H14149   6.064   1.217   3.909 -1.0284 -1.5277  0.7000
  846MOL0     H14150   6.003   1.384   3.894  0.5289 -0.3678 -1.2372
  846MOL0     H14151   6.137   1.456   4.093 -0.3519  0.4925 -0.6389
  846MOL0     H14152   6.173   1.287   4.126  0.2397 -1.3339 -1.0544
  846MOL0     H14153   6.304   1.275   3.920 -1.2682  0.0656 -0.7703
  846MOL0     H14154   6.242   1.432   3.862 -1.0669  0.8545  0.3701
  846MOL0     H14155   6.478   1.443   3.961  0.8871 -1.5509  1.2929
  846MOL0     H14156   6.353   1.548   4.043  1.8783  0.0300 -0.0200
  846MOL0     H14157   6.524   1.446   4.185  0.5559  0.4383 -2.2615
  846MOL0     H14158   6.364   1.402   4.232 -1.1996  0.3202 -1.3833
  846MOL0     H14159   6.406   1.173   4.097  2.2359 -0.9743 -3.5178
  846MOL0     H14160   6.527   1.185   4.223  2.7599 -1.1254 -1.7809
  846MOL0     H14161   6.741   1.369   4.091 -2.0820  0.3331 -0.1670
  846MOL0     H14162   6.964   1.336   3.978  1.4218 -1.4019 -0.2208
  846MOL0     H14163   6.958   1.245   3.826 -0.4481  0.4102  0.4279
  846MOL0     H14164   6.965   1.498   3.789  1.5379  0.4654  0.9310
  846MOL0     H14165   6.828   1.529   3.889  1.4767 -0.6861 -0.7580
  846MOL0     H14166   6.786   1.550   3.650 -1.9099  0.6583  1.1582
  846MOL0     H14167   6.669   1.453   3.725  1.2039 -1.2553  0.4784
  846MOL0     H14168   6.805   1.241   3.646  0.7411 -0.5583 -2.8464
  846MOL0     H14169   6.908   1.343   3.565 -1.5718  0.7019  0.1411
  846MOL0     H14170   6.642   1.116   3.594  0.1146  0.8232  1.0766
  846MOL0     H14171   6.352   1.032   3.774  4.0834 -1.0440  3.7649
  846MOL0     H14172   6.369   0.929   3.619 -0.3624  1.7922 -0.5910
  846MOL0     H14173   6.499   0.959   3.727  0.6722 -0.1769 -1.6926
  846MOL0     H14174   5.997   1.052   3.799 -1.5510  2.5844 -0.3149
  846MOL0     H14175   5.780   0.929   3.817 -1.1355 -1.3454  0.3186
  846MOL0     H14176   5.577   0.820   3.412 -0.3499  0.7824  0.6413
  846MOL0     H14177   5.649   0.673   3.465 -1.2354 -1.4283  0.1966
  846MOL0     H14178   5.423   0.624   3.504 -0.5716  0.4635 -0.7917
  846MOL0     H14179   5.475   0.688   3.668  1.5135 -1.6322 -0.1486
  846MOL0     H14180   5.321   0.841   3.451  2.4222 -1.8592 -0.1234
  846MOL0     H14181   5.407   0.921   3.591  1.1347 -0.3024 -0.8297
  846MOL0     H14182   5.172   0.731   3.593 -2.1249  1.3589  0.7405
  846MOL0     H14183   5.273   0.731   3.731 -1.9384 -1.9826 -0.3398
  846MOL0     H14184   5.145   0.987   3.601  2.0226 -0.0331 -0.9826
  846MOL0     H14185   5.259   0.995   3.729 -1.5042  1.9062 -1.8746
  846MOL0     H14186   4.992   0.847   3.749  1.5788 -3.0690  2.3713
  846MOL0     H14187   5.099   0.874   3.882  2.7407 -0.8274 -2.2608
  846MOL0     H14188   5.004   1.097   3.701 -0.8451 -2.4308 -1.2797
  846MOL0     H14189   5.086   1.105   3.860 -2.0623  3.1388 -0.5107
  846MOL0     H14190   4.856   1.157   3.911  1.3756  1.7519 -1.6323
  846MOL0     H14191   4.848   0.978   3.932  1.8062 -1.1935 -1.3439
  846MOL0     H14192   5.786   0.883   3.379  0.1737  1.8913  0.2508
  846MOL0     H14193   6.019   0.994   3.383 -1.9069 -3.0597 -2.6886
  846MOL0     H14194   6.251   1.382   3.481  0.0346  0.1540  0.2333
  846MOL0     H14195   6.491   1.470   3.422  1.5197 -1.2882 -3.0796
  846MOL0     H14196   5.678   1.321   3.913 -0.5928  0.9397 -2.7273
  846MOL0     H14197   5.429   1.324   3.861 -2.3724  0.7223  0.8773
  846MOL0     H14198   5.044   1.631   4.046 -0.9358  4.0604 -0.3211
  846MOL0     H14199   4.821   1.725   3.995 -1.1456  3.7132 -3.6454
  846MOL0     H14200   4.480   1.636   3.711  0.7827  1.9115 -0.8696
  846MOL0     H14201   4.614   1.606   3.597  1.5493  0.8244  0.8595
  846MOL0     H14202   4.496   1.434   3.822 -0.0656 -1.0415 -0.1811
  846MOL0     H14203   4.637   1.381   3.719  0.3549  1.0746 -2.8471
  846MOL0     H14204   4.461   1.378   3.518 -2.6760 -0.0055 -0.3710
  846MOL0     H14205   4.334   1.417   3.630 -0.2707  0.7304  1.8509
  846MOL0     H14206   4.369   1.224   3.750  0.4365  2.8555 -0.8314
  846MOL0     H14207   4.509   1.169   3.659  0.7531  1.8656  2.7616
  846MOL0     H14208   4.161   1.080   3.429 -3.1580  2.5972  1.4828
  846MOL0     H14209   4.802   1.477   3.638  2.2775 -0.1698 -0.9532
  846MOL0     H14210   5.044   1.413   3.673  1.1044  0.1385  0.3963
  847MOL0     O14211   8.027  10.632   3.158  0.8867 -0.5758  1.2235
  847MOL0     C14212   7.968  10.662   3.266  1.3078 -0.9705  0.0097
  847MOL0     O14213   8.005  10.618   3.387  0.1699 -0.4879  0.0475
  847MOL0     C14214   8.140  10.574   3.399  0.4104 -0.3744 -0.1780
  847MOL0     C14215   8.184  10.457   3.350  0.3125 -0.0799  0.0897
  847MOL0     C14216   8.320  10.424   3.367  0.0200 -0.2980  0.0204
  847MOL0     C14217   8.408  10.511   3.440  0.1851  0.4438 -0.3086
  847MOL0     O14218   8.539  10.477   3.450 -0.3707  0.6234  0.7683
  847MOL0     C14219   8.625  10.585   3.482 -0.2654  0.8127 -0.6322
  847MOL0     C14220   8.761  10.512   3.503 -1.1602  0.3222 -0.2185
  847MOL0     C14221   8.874  10.610   3.503  0.8079  0.3212 -0.3868
  847MOL0     C14222   8.892  10.684   3.631 -0.1271 -0.1696  0.1504
  847MOL0     C14223   9.031  10.761   3.629  0.3646  0.2968  1.1902
  847MOL0     C14224   9.087  10.780   3.762 -0.7780 -0.9801 -0.6215
  847MOL0     C14225   9.208  10.869   3.754 -0.3204 -0.4755  0.3915
  847MOL0     C14226   9.319  10.803   3.673 -0.3946 -0.0561  0.6831
  847MOL0     N14227   9.443  10.886   3.682 -0.1300 -0.3857  0.4659
  847MOL0     C14228   9.571  10.853   3.711  0.5965  0.7272  0.5908
  847MOL0     C14229   9.645  10.961   3.677 -0.9218  0.6975 -0.6180
  847MOL0     C14230   9.795  10.977   3.685  0.3962 -0.2004 -0.2202
  847MOL0     C14231   9.861  11.016   3.550 -0.0966 -0.0100  0.0497
  847MOL0     C14232  10.011  11.037   3.571  0.3544  0.2463 -0.3478
  847MOL0     C14233  10.094  11.049   3.441 -0.5551 -0.3197  0.6334
  847MOL0     O14234  10.106  10.914   3.392  0.0816  0.0378 -0.2388
  847MOL0     C14235  10.149  10.894   3.265  0.5168  0.1703 -0.2538
  847MOL0     C14236  10.064  10.835   3.181 -0.7927  0.1694  0.3285
  847MOL0     C14237  10.096  10.815   3.047 -0.2933  0.4002 -0.8730
  847MOL0     C14238  10.003  10.733   2.976  0.3734 -0.1026 -0.3521
  847MOL0     C14239  10.228  10.849   2.994  0.3410  1.3062 -0.4812
  847MOL0     C14240  10.279  10.807   2.857 -0.1559 -0.5969 -1.1568
  847MOL0     O14241  10.398  10.867   2.810  0.0818  0.5787  0.6953
  847MOL0     C14242  10.454  10.824   2.692  0.0229  0.7439  0.4792
  847MOL0     C14243  10.586  10.861   2.688 -0.2826 -0.0878  0.8934
  847MOL0     C14244  10.662  10.832   2.571  0.7598  0.4345 -0.5143
  847MOL0     C14245  10.611  10.757   2.461 -1.0170 -0.1091  0.4624
  847MOL0     O14246  10.697  10.717   2.352  0.1114 -0.6361 -0.3880
  847MOL0     C14247  10.680  10.585   2.308  0.1432 -0.1670  0.0932
  847MOL0     C14248  10.717  10.577   2.158 -0.0120 -0.3737  0.3637
  847MOL0     C14249  10.856  10.631   2.132 -0.4626 -0.6354  0.1182
  847MOL0     C14250  10.976  10.566   2.203 -0.4793  0.3888  0.5372
  847MOL0     C14251  11.114  10.605   2.146 -0.6488 -0.4426 -0.6110
  847MOL0     C14252  11.157  10.749   2.162  0.6321  0.2536  0.2998
  847MOL0     C14253  11.181  10.783   2.310  0.8491  0.3080  0.3680
  847MOL0     C14254  11.252  10.924   2.304 -0.4147  0.5074  0.7148
  847MOL0    Cl14255  11.335  10.961   2.462  0.3373 -0.4982 -0.0366
  847MOL0     C14256  10.478  10.728   2.461 -0.0229 -1.0352  0.4041
  847MOL0     C14257  10.403  10.762   2.577  0.2733 -0.5596  0.3021
  847MOL0     O14258  10.216  10.708   2.808  0.7672 -0.7375  0.9267
  847MOL0     C14259  10.314  10.921   3.080 -0.5513  0.0620 -0.9509
  847MOL0     C14260  10.270  10.940   3.213 -0.5753 -0.2457 -0.7263
  847MOL0     N14261   9.567  11.059   3.624  0.6587  0.1128 -0.1388
  847MOL0     N14262   9.443  11.011   3.624  0.0288 -0.7617 -0.0996
  847MOL0     C14263   8.351  10.622   3.503  0.3982 -0.5445 -0.4837
  847MOL0     C14264   8.221  10.648   3.486  0.7364 -0.7681  0.7934
  847MOL0     C14265   7.846  10.747   3.259 -0.7104  0.6020 -0.3864
  847MOL0     C14266   7.763  10.769   3.367  0.2202 -0.1249  0.1365
  847MOL0     C14267   7.649  10.842   3.347 -0.0585 -0.5374  0.2051
  847MOL0     C14268   7.613  10.909   3.224 -0.8806  0.4987 -0.3888
  847MOL0     O14269   7.489  10.972   3.224 -1.0447 -0.0319  0.2848
  847MOL0     C14270   7.447  11.030   3.101 -0.7653 -0.3741  0.0561
  847MOL0     C14271   7.358  11.150   3.146  0.3247 -0.4685 -1.3702
  847MOL0     C14272   7.446  11.267   3.204 -0.0727 -0.3747  0.5542
  847MOL0     C14273   7.370  11.394   3.235 -0.6887 -1.0571  0.6287
  847MOL0     C14274   7.466  11.490   3.290  0.6424 -0.1189  0.4190
  847MOL0     C14275   7.573  11.537   3.335 -0.2900  0.2436  0.4499
  847MOL0     C14276   7.705  10.894   3.114  0.8268  0.9473 -0.0086
  847MOL0     C14277   7.823  10.817   3.139  1.1100 -0.1599 -0.5049
  847MOL0     H14278   8.115  10.395   3.295  1.1779 -2.6252  1.7099
  847MOL0     H14279   8.359  10.344   3.305  1.8431 -0.1424  0.9143
  847MOL0     H14280   8.641  10.658   3.402  4.3749 -1.7627 -2.5299
  847MOL0     H14281   8.603  10.631   3.578  1.0854  0.8701 -0.3198
  847MOL0     H14282   8.761  10.460   3.598 -0.3654  1.2934  0.3330
  847MOL0     H14283   8.773  10.434   3.427 -2.1788 -0.0511 -0.0027
  847MOL0     H14284   8.963  10.548   3.489 -0.3665 -1.7349  0.8415
  847MOL0     H14285   8.871  10.678   3.417  1.1811  0.4529 -0.3009
  847MOL0     H14286   8.821  10.765   3.650  1.3425  1.8323 -2.2441
  847MOL0     H14287   8.889  10.612   3.713  2.0329 -2.9595 -2.0057
  847MOL0     H14288   9.096  10.702   3.564  0.0768  0.3940  0.8077
  847MOL0     H14289   9.019  10.857   3.577 -0.6147 -1.1619 -1.4425
  847MOL0     H14290   9.013  10.821   3.832 -3.0028 -1.9805 -2.2571
  847MOL0     H14291   9.117  10.688   3.814 -2.3846 -1.4651 -0.4925
  847MOL0     H14292   9.175  10.965   3.712 -2.0684 -1.2991 -0.1970
  847MOL0     H14293   9.241  10.882   3.857 -0.6986 -0.4121  0.5043
  847MOL0     H14294   9.300  10.785   3.567  3.3577 -0.8462  0.0112
  847MOL0     H14295   9.337  10.703   3.714 -2.8160 -2.3202 -3.1333
  847MOL0     H14296   9.605  10.753   3.735 -1.7386 -0.8405 -2.0884
  847MOL0     H14297   9.816  11.049   3.764 -2.5496  0.7886 -0.1904
  847MOL0     H14298   9.833  10.879   3.716  0.2001 -0.8730 -1.9446
  847MOL0     H14299   9.817  11.107   3.509 -1.5638 -1.4337 -1.7065
  847MOL0     H14300   9.845  10.936   3.477 -2.9247 -0.4395  1.0309
  847MOL0     H14301  10.046  10.950   3.628 -1.8746 -2.2045 -2.4348
  847MOL0     H14302  10.034  11.124   3.633 -0.3934 -0.0221  0.3374
  847MOL0     H14303  10.190  11.097   3.464  0.0127 -1.6404  1.1485
  847MOL0     H14304  10.047  11.122   3.374 -1.0085  2.8202  4.0340
  847MOL0     H14305   9.978  10.793   3.232 -1.6341 -1.3693 -2.1704
  847MOL0     H14306   9.906  10.729   3.027 -0.1649  2.9276 -0.9310
  847MOL0     H14307   9.966  10.759   2.876 -3.6552  0.7208  1.1530
  847MOL0     H14308  10.043  10.633   2.958 -2.1090 -1.3823  0.7746
  847MOL0     H14309  10.623  10.902   2.782 -0.9521  2.5240  0.0784
  847MOL0     H14310  10.769  10.854   2.570  0.3626  2.7082 -2.1331
  847MOL0     H14311  10.729  10.515   2.377 -0.3937  0.5534  1.2378
  847MOL0     H14312  10.575  10.555   2.302 -0.3428  1.6978 -4.3786
  847MOL0     H14313  10.709  10.472   2.128  2.7198 -0.6079  0.1607
  847MOL0     H14314  10.643  10.636   2.104  1.4564  0.7943 -0.4469
  847MOL0     H14315  10.869  10.739   2.141 -1.9218 -0.0200 -3.5293
  847MOL0     H14316  10.861  10.607   2.025  0.0764 -3.8462  0.7532
  847MOL0     H14317  10.983  10.591   2.309  1.4775  0.1402  0.5054
  847MOL0     H14318  10.958  10.458   2.199 -1.6201  0.5669  0.5112
  847MOL0     H14319  11.117  10.578   2.040 -1.2945  1.7844 -1.2513
  847MOL0     H14320  11.187  10.545   2.201  0.1402  0.9390 -0.1127
  847MOL0     H14321  11.247  10.769   2.103 -0.5038 -1.7795 -2.3218
  847MOL0     H14322  11.091  10.822   2.113  0.2821 -1.7827 -2.4932
  847MOL0     H14323  11.248  10.708   2.353 -1.0412 -1.0239  1.1329
  847MOL0     H14324  11.086  10.783   2.364  0.5857  2.2009 -0.0085
  847MOL0     H14325  11.184  11.005   2.278  1.4154  2.4003  1.5271
  847MOL0     H14326  11.335  10.931   2.233 -1.0073  0.9714  0.0527
  847MOL0     H14327  10.426  10.687   2.375 -3.8791  1.6605  1.1540
  847MOL0     H14328  10.299  10.730   2.578  0.2418 -0.4687 -0.0863
  847MOL0     H14329  10.407  10.957   3.038 -0.7191  0.4833 -0.9634
  847MOL0     H14330  10.329  11.004   3.278  0.5225 -0.3419 -1.6012
  847MOL0     H14331   8.401  10.687   3.574  3.5654 -0.0920 -2.8983
  847MOL0     H14332   8.169  10.728   3.537  0.5941  1.0537 -1.9997
  847MOL0     H14333   7.788  10.735   3.468  0.9934  1.0558  0.3686
  847MOL0     H14334   7.579  10.847   3.430 -0.2966 -4.2013  0.3672
  847MOL0     H14335   7.534  11.062   3.042  0.4727 -0.0711  1.9434
  847MOL0     H14336   7.397  10.954   3.041 -0.7019 -0.1271 -0.3160
  847MOL0     H14337   7.283  11.109   3.215  0.3182  0.8367 -0.5615
  847MOL0     H14338   7.311  11.194   3.058 -0.3037 -3.1127 -2.4586
  847MOL0     H14339   7.513  11.301   3.125 -2.4224 -2.8676 -2.7556
  847MOL0     H14340   7.492  11.227   3.295 -0.3103 -0.8381  0.4746
  847MOL0     H14341   7.303  11.371   3.319  1.1265 -2.9246  1.6626
  847MOL0     H14342   7.315  11.435   3.150 -2.2487  0.0257  2.0943
  847MOL0     H14343   7.656  11.578   3.389 -1.3396 -0.5216  2.7734
  847MOL0     H14344   7.688  10.932   3.013  0.0271 -1.4314 -0.8346
  847MOL0     H14345   7.907  10.811   3.071  0.1518  1.2244 -1.8820
  848MOL0     O14346   0.471   7.422  11.285  0.4566  0.7911 -0.4157
  848MOL0     C14347   0.402   7.494  11.212  0.1787  0.0515  1.1601
  848MOL0     O14348   0.268   7.492  11.191  0.1858  0.2020  0.6600
  848MOL0     C14349   0.187   7.405  11.253  0.4142 -0.5119  0.0051
  848MOL0     C14350   0.210   7.277  11.293 -0.5061  1.2351 -0.2316
  848MOL0     C14351   0.105   7.203  11.354  0.3583 -0.0146 -0.3810
  848MOL0     C14352  -0.017   7.259  11.399 -0.3473 -0.1734 -0.7065
  848MOL0     O14353  -0.118   7.194  11.472 -0.8217 -0.4232  0.4264
  848MOL0     C14354  -0.100   7.077  11.549 -0.1665 -0.1556 -0.2236
  848MOL0     C14355  -0.239   7.042  11.596  0.3652  0.1950  0.5698
  848MOL0     C14356  -0.328   6.980  11.484 -0.5486  0.0845 -0.2654
  848MOL0     C14357  -0.277   6.845  11.418 -0.7412  0.3378 -0.1639
  848MOL0     C14358  -0.362   6.795  11.304  0.7199  0.1985 -0.5546
  848MOL0     C14359  -0.499   6.754  11.345 -0.6923  0.3864 -0.0166
  848MOL0     C14360  -0.577   6.712  11.219  1.2996 -0.5929  0.6604
  848MOL0     C14361  -0.723   6.671  11.243  0.4185  0.4196 -0.1282
  848MOL0     N14362  -0.733   6.542  11.299 -0.0666  0.3362  0.6412
  848MOL0     C14363  -0.735   6.428  11.221 -0.0440 -0.1580 -0.0843
  848MOL0     C14364  -0.738   6.324  11.308  0.4904  0.1627  0.0031
  848MOL0     C14365  -0.760   6.181  11.278  0.7039  0.3079  0.3628
  848MOL0     C14366  -0.894   6.144  11.353 -0.1554 -0.1889  0.4652
  848MOL0     C14367  -0.888   6.118  11.500 -0.4770 -0.2660 -0.5435
  848MOL0     C14368  -0.789   5.998  11.547  0.4279  0.1148  0.4137
  848MOL0     O14369  -0.790   5.888  11.457 -1.0685 -0.3345 -0.5951
  848MOL0     C14370  -0.881   5.791  11.477  0.5538 -0.1127 -0.0594
  848MOL0     C14371  -0.868   5.675  11.397  1.3725 -0.5047 -0.4702
  848MOL0     C14372  -0.969   5.573  11.397  0.6227 -0.8927 -0.1190
  848MOL0     C14373  -0.943   5.453  11.319  0.1850 -1.0680 -0.7531
  848MOL0     C14374  -1.083   5.583  11.481 -0.2558 -0.2203 -0.3657
  848MOL0     C14375  -1.193   5.483  11.496 -0.0876  0.2256 -0.5515
  848MOL0     O14376  -1.214   5.394  11.392  0.1607  0.5602 -0.3456
  848MOL0     C14377  -1.314   5.300  11.389 -0.1885 -0.9045 -0.5537
  848MOL0     C14378  -1.448   5.333  11.417  0.7386  0.5201 -0.5869
  848MOL0     C14379  -1.553   5.248  11.383 -0.8225  1.3474  0.3928
  848MOL0     C14380  -1.529   5.116  11.347 -0.1264 -0.9766  0.9401
  848MOL0     O14381  -1.628   5.031  11.317  0.9639 -0.3340 -0.7015
  848MOL0     C14382  -1.721   5.005  11.426 -0.2119 -0.8045  0.1795
  848MOL0     C14383  -1.779   4.869  11.390 -0.1232 -0.0560 -1.0206
  848MOL0     C14384  -1.867   4.869  11.269  0.4013 -0.4457  0.6733
  848MOL0     C14385  -1.906   4.718  11.243 -1.1324 -0.3261  0.5592
  848MOL0     C14386  -2.007   4.719  11.131 -0.5774  0.5284  0.4310
  848MOL0     C14387  -2.144   4.714  11.192 -0.0866  0.1191  0.7183
  848MOL0     C14388  -2.262   4.742  11.104  0.0791  1.5628  0.0694
  848MOL0     C14389  -2.262   4.654  10.975  0.0803  0.0205  0.0756
  848MOL0    Cl14390  -2.324   4.487  11.009 -0.9761 -0.0750 -0.4433
  848MOL0     C14391  -1.396   5.076  11.333 -0.3290 -0.6589  0.9753
  848MOL0     C14392  -1.289   5.171  11.348  0.4354  0.2109 -0.1483
  848MOL0     O14393  -1.260   5.490  11.597  0.2736 -0.2876  0.5564
  848MOL0     C14394  -1.090   5.694  11.568 -0.3341  0.5976  0.4400
  848MOL0     C14395  -0.992   5.800  11.562 -0.1192 -0.4448  0.8889
  848MOL0     N14396  -0.719   6.382  11.433  0.4193  1.2127 -1.0046
  848MOL0     N14397  -0.714   6.509  11.425  0.3383 -0.2907 -0.7819
  848MOL0     C14398  -0.036   7.393  11.360 -0.1511 -0.0043  0.5129
  848MOL0     C14399   0.060   7.456  11.272 -0.3424 -0.6317  0.2697
  848MOL0     C14400   0.490   7.580  11.126 -0.0553 -0.8888 -0.0257
  848MOL0     C14401   0.429   7.680  11.043  0.1549 -0.2900 -0.2939
  848MOL0     C14402   0.511   7.766  10.969 -0.0339 -0.4461 -1.2236
  848MOL0     C14403   0.643   7.773  10.986 -0.5884 -0.0967  0.6930
  848MOL0     O14404   0.727   7.856  10.914  0.3631 -0.1785 -0.5317
  848MOL0     C14405   0.674   7.967  10.848  0.4865  0.6863 -0.2756
  848MOL0     C14406   0.789   8.057  10.793  0.6468  0.2499  0.4562
  848MOL0     C14407   0.737   8.170  10.707 -0.5157  0.7968 -0.2018
  848MOL0     C14408   0.868   8.232  10.641 -0.4730 -0.5337  0.4813
  848MOL0     C14409   0.829   8.351  10.584 -0.5599  0.5543 -1.1369
  848MOL0     C14410   0.794   8.454  10.532  0.6252  0.2844  1.1570
  848MOL0     C14411   0.697   7.671  11.059 -0.8921 -0.4836  0.4163
  848MOL0     C14412   0.623   7.571  11.123  0.5421  0.1956 -0.0320
  848MOL0     H14413   0.300   7.225  11.264 -1.0625  1.9591 -3.6609
  848MOL0     H14414   0.116   7.099  11.382  0.1411  0.3603  1.1706
  848MOL0     H14415  -0.056   7.007  11.478  1.8898 -0.9787  1.7537
  848MOL0     H14416  -0.028   7.091  11.630  0.6434 -2.3357 -0.4955
  848MOL0     H14417  -0.238   6.966  11.674 -1.0543  0.9889  1.3956
  848MOL0     H14418  -0.295   7.126  11.638 -1.7590  0.2272 -2.0193
  848MOL0     H14419  -0.427   6.963  11.528 -0.8955 -2.5121 -1.8695
  848MOL0     H14420  -0.345   7.053  11.404  1.0872  0.4578 -0.3040
  848MOL0     H14421  -0.176   6.860  11.378 -0.3828  1.0940  0.9899
  848MOL0     H14422  -0.260   6.769  11.496  3.8134  0.2629 -0.9318
  848MOL0     H14423  -0.373   6.884  11.241 -0.6999  1.9581  2.0081
  848MOL0     H14424  -0.307   6.706  11.273 -0.2779 -1.3939  1.9527
  848MOL0     H14425  -0.493   6.682  11.427 -0.7332  0.7190  0.2778
  848MOL0     H14426  -0.551   6.839  11.391 -0.0815  1.4501 -1.2203
  848MOL0     H14427  -0.572   6.795  11.148  3.2222 -0.5418  0.8192
  848MOL0     H14428  -0.528   6.625  11.175  2.4871  0.1099  0.5396
  848MOL0     H14429  -0.781   6.665  11.150 -2.6417 -1.3976  1.7329
  848MOL0     H14430  -0.772   6.748  11.303  2.7435  0.0496  2.4336
  848MOL0     H14431  -0.746   6.437  11.114  0.0644  1.8941  0.0439
  848MOL0     H14432  -0.777   6.170  11.171 -3.3407  0.6975  0.7770
  848MOL0     H14433  -0.677   6.118  11.310  1.3624  1.3340  0.7087
  848MOL0     H14434  -0.935   6.054  11.307 -0.4946 -0.4242  1.2105
  848MOL0     H14435  -0.973   6.218  11.334  0.6789  0.6293  0.1132
  848MOL0     H14436  -0.990   6.086  11.523  0.3518 -2.4059  0.3553
  848MOL0     H14437  -0.867   6.210  11.555 -0.3249 -1.4319  1.4073
  848MOL0     H14438  -0.829   5.978  11.648  0.0406 -1.1755  0.0249
  848MOL0     H14439  -0.686   6.033  11.558  0.3432  0.5347 -0.0893
  848MOL0     H14440  -0.778   5.658  11.340  1.6065 -5.2964  0.8765
  848MOL0     H14441  -0.848   5.454  11.266  0.5861 -0.3634 -0.0308
  848MOL0     H14442  -0.955   5.368  11.386 -2.6818 -1.7629 -1.9660
  848MOL0     H14443  -1.028   5.440  11.252 -0.8791 -0.2268  0.3719
  848MOL0     H14444  -1.480   5.433  11.445  2.0941 -0.0138  3.5044
  848MOL0     H14445  -1.658   5.274  11.390 -0.9805  1.2702 -1.3317
  848MOL0     H14446  -1.669   5.000  11.522  0.1483 -1.5987 -0.0441
  848MOL0     H14447  -1.800   5.078  11.444 -0.9074 -1.3497 -0.5825
  848MOL0     H14448  -1.692   4.803  11.389  0.7742  0.8566  2.6922
  848MOL0     H14449  -1.831   4.827  11.477 -0.7915 -3.1937 -2.7652
  848MOL0     H14450  -1.819   4.899  11.176  0.5028  0.6505  1.0644
  848MOL0     H14451  -1.952   4.938  11.277 -0.7415 -1.5416 -1.2213
  848MOL0     H14452  -1.819   4.661  11.209  0.0467  1.4213  0.4723
  848MOL0     H14453  -1.946   4.676  11.336 -0.4750  2.0864  2.0353
  848MOL0     H14454  -2.003   4.619  11.087 -0.9783  1.0861 -0.9072
  848MOL0     H14455  -1.998   4.794  11.051  2.1195 -0.4017 -0.2384
  848MOL0     H14456  -2.151   4.618  11.244  0.3903 -0.0140  0.5441
  848MOL0     H14457  -2.150   4.796  11.265  1.8454  1.3639 -0.4346
  848MOL0     H14458  -2.266   4.846  11.068  0.3721  0.6314 -2.8887
  848MOL0     H14459  -2.356   4.727  11.158 -0.4962  0.9196 -1.0647
  848MOL0     H14460  -2.170   4.648  10.916 -0.0488 -2.2245  0.0241
  848MOL0     H14461  -2.326   4.705  10.903  0.9117  0.7843 -0.1450
  848MOL0     H14462  -1.371   4.975  11.301  0.4994 -1.5890  4.2380
  848MOL0     H14463  -1.186   5.148  11.325  0.6431 -0.0101  0.9735
  848MOL0     H14464  -1.173   5.711  11.635 -0.6397  1.1163 -0.0561
  848MOL0     H14465  -1.018   5.875  11.637  0.6580 -1.2606  1.9870
  848MOL0     H14466  -0.124   7.443  11.401 -1.9470 -0.5441 -2.3652
  848MOL0     H14467   0.044   7.553  11.227 -2.0545 -1.4675 -1.0612
  848MOL0     H14468   0.322   7.692  11.032  0.3913  1.1230 -1.4321
  848MOL0     H14469   0.466   7.837  10.901  2.1931  2.6777  0.3235
  848MOL0     H14470   0.618   7.928  10.762 -1.8783 -0.2181  1.5600
  848MOL0     H14471   0.607   8.038  10.896  1.3025  3.9901 -3.5721
  848MOL0     H14472   0.874   8.016  10.738  0.6688  2.2269 -1.0982
  848MOL0     H14473   0.838   8.103  10.879 -0.9723  2.0121  0.5073
  848MOL0     H14474   0.699   8.244  10.778 -0.0869  0.6849  0.1406
  848MOL0     H14475   0.669   8.142  10.625  0.9218 -0.2352 -1.0751
  848MOL0     H14476   0.915   8.166  10.567  0.1193  1.0886 -0.6562
  848MOL0     H14477   0.943   8.257  10.716  0.4396  2.6967 -1.2862
  848MOL0     H14478   0.742   8.540  10.495 -3.5454 -3.2424 -2.4302
  848MOL0     H14479   0.804   7.651  11.057 -0.6378  0.8070 -2.3317
  848MOL0     H14480   0.673   7.497  11.184 -0.2701  0.1850  0.6301
  849MOL0     O14481   2.168   3.325   8.980  0.3085 -0.7642 -0.0596
  849MOL0     C14482   2.122   3.248   9.067  0.0729  1.0552  1.1904
  849MOL0     O14483   2.044   3.138   9.043 -0.8463 -0.2179  0.4358
  849MOL0     C14484   2.022   3.097   8.919 -0.7816  1.2114  0.4280
  849MOL0     C14485   1.977   3.185   8.812  0.9666  0.9078  0.7301
  849MOL0     C14486   1.956   3.129   8.677 -0.6524  0.5368  0.4914
  849MOL0     C14487   1.984   2.998   8.650  0.3258  0.1864 -0.4736
  849MOL0     O14488   1.965   2.953   8.528 -0.4284 -0.7963 -0.0822
  849MOL0     C14489   1.977   2.812   8.497  0.1633 -0.0472  0.3603
  849MOL0     C14490   1.958   2.798   8.345  0.2480 -0.1257  0.1106
  849MOL0     C14491   2.086   2.823   8.259 -0.9052  0.4658 -0.0829
  849MOL0     C14492   2.173   2.693   8.263  0.2137  0.4819  0.6371
  849MOL0     C14493   2.316   2.726   8.210  1.1027  0.0195 -0.0233
  849MOL0     C14494   2.414   2.607   8.187  0.1629  0.3546 -0.8414
  849MOL0     C14495   2.433   2.501   8.298  0.0927  1.0618  0.2870
  849MOL0     C14496   2.475   2.546   8.435  0.7631 -1.1740 -0.3397
  849MOL0     N14497   2.590   2.631   8.432 -0.0843  0.0212  0.3302
  849MOL0     C14498   2.721   2.585   8.417 -0.4219 -0.5995  0.5444
  849MOL0     C14499   2.791   2.695   8.460  0.3632 -0.0861  0.1227
  849MOL0     C14500   2.938   2.715   8.455  0.1076 -0.3201  0.4996
  849MOL0     C14501   2.998   2.659   8.332 -0.3541 -0.1803  0.1114
  849MOL0     C14502   3.153   2.687   8.345  0.8917  0.3458  0.3650
  849MOL0     C14503   3.228   2.632   8.227 -0.7609 -1.2959 -0.2803
  849MOL0     O14504   3.196   2.699   8.097 -0.9880  0.4072 -0.1201
  849MOL0     C14505   3.191   2.613   7.993 -1.0000  0.4829  0.0445
  849MOL0     C14506   3.285   2.618   7.886  0.8478 -0.0590  0.0084
  849MOL0     C14507   3.273   2.544   7.768 -0.0334  0.0608 -0.1004
  849MOL0     C14508   3.380   2.585   7.666 -0.1761  0.2932 -0.2470
  849MOL0     C14509   3.171   2.448   7.755  0.0498 -0.5866  0.6880
  849MOL0     C14510   3.150   2.368   7.637  0.6260  0.1812  0.2285
  849MOL0     O14511   3.031   2.288   7.647 -0.9964 -0.1734  0.0591
  849MOL0     C14512   2.968   2.247   7.530 -0.6706 -0.0151 -0.1708
  849MOL0     C14513   2.954   2.319   7.415 -1.0827 -0.3000 -0.2473
  849MOL0     C14514   2.886   2.265   7.307  0.1505 -0.2352  0.1581
  849MOL0     C14515   2.831   2.138   7.313 -0.0008  0.1499 -0.4047
  849MOL0     O14516   2.780   2.106   7.200  0.5876  0.2095 -0.2791
  849MOL0     C14517   2.681   2.009   7.181  0.6339  0.9362  0.6544
  849MOL0     C14518   2.541   2.044   7.240  0.8130  0.0244 -0.8814
  849MOL0     C14519   2.441   1.928   7.216  1.2694 -0.2509 -0.6714
  849MOL0     C14520   2.460   1.818   7.322 -0.4411  0.0486  0.6081
  849MOL0     C14521   2.510   1.681   7.272 -0.5900  0.2918 -0.5207
  849MOL0     C14522   2.530   1.587   7.393  0.2769 -0.2571  0.5090
  849MOL0     C14523   2.492   1.445   7.354  0.1024  0.3930 -0.3646
  849MOL0     C14524   2.606   1.364   7.293  1.0759 -0.0388 -0.7132
  849MOL0    Cl14525   2.547   1.197   7.260 -0.4988 -0.0655 -0.0594
  849MOL0     C14526   2.840   2.066   7.436  0.1390 -0.7268  0.0220
  849MOL0     C14527   2.911   2.117   7.539 -1.0394  0.1187  0.2883
  849MOL0     O14528   3.224   2.381   7.537 -0.4402 -0.4418  0.1035
  849MOL0     C14529   3.077   2.434   7.865 -0.3233 -0.2242  0.9898
  849MOL0     C14530   3.089   2.520   7.982  0.5270  0.0252  0.5323
  849MOL0     N14531   2.711   2.797   8.499  0.2765 -0.5595 -0.5828
  849MOL0     N14532   2.592   2.761   8.477 -0.3747  1.2186  0.1899
  849MOL0     C14533   2.028   2.913   8.757  0.9077 -0.8556 -0.3902
  849MOL0     C14534   2.033   2.957   8.894  0.5572  0.1180  0.3852
  849MOL0     C14535   2.141   3.293   9.208 -0.0204 -0.5800 -1.1720
  849MOL0     C14536   2.105   3.211   9.314  0.7881 -0.0970 -0.1514
  849MOL0     C14537   2.163   3.233   9.440  0.3496  0.0072 -0.0128
  849MOL0     C14538   2.235   3.345   9.465 -0.8293  0.1564 -0.0828
  849MOL0     O14539   2.306   3.362   9.583 -0.3820 -0.6234  0.7506
  849MOL0     C14540   2.257   3.469   9.671 -0.3555  0.5117 -0.4473
  849MOL0     C14541   2.377   3.555   9.717  0.3574  0.4546  0.6672
  849MOL0     C14542   2.463   3.611   9.600 -0.6629  0.6732  0.4730
  849MOL0     C14543   2.568   3.705   9.649 -0.7469 -0.6400 -0.0136
  849MOL0     C14544   2.694   3.639   9.684 -0.8364  0.1423  0.7398
  849MOL0     C14545   2.787   3.573   9.729 -0.5224 -0.5940  0.3552
  849MOL0     C14546   2.262   3.433   9.366  0.9492 -0.5381  0.1676
  849MOL0     C14547   2.202   3.413   9.237 -0.1449  0.1524 -0.2611
  849MOL0     H14548   1.958   3.289   8.838 -4.4789  0.2539  0.5552
  849MOL0     H14549   1.910   3.191   8.601 -0.3665  0.8059  0.5382
  849MOL0     H14550   2.073   2.769   8.528  1.2609  2.0948  0.0903
  849MOL0     H14551   1.889   2.759   8.534 -0.5902  0.3562 -0.7961
  849MOL0     H14552   1.912   2.702   8.320  1.9977 -1.0664  0.3675
  849MOL0     H14553   1.887   2.875   8.315 -0.7267 -0.6141  1.0616
  849MOL0     H14554   2.068   2.834   8.152 -0.0405 -0.8975 -0.3941
  849MOL0     H14555   2.144   2.900   8.310  3.2120 -2.3698  0.0493
  849MOL0     H14556   2.191   2.654   8.363 -1.4493  0.4776  0.9595
  849MOL0     H14557   2.128   2.610   8.207 -0.7602 -0.7178  3.0705
  849MOL0     H14558   2.302   2.774   8.113  1.3269  0.3638  0.1140
  849MOL0     H14559   2.368   2.797   8.275  1.0843  0.6747 -0.7107
  849MOL0     H14560   2.386   2.561   8.092  0.5404  1.8818 -1.7187
  849MOL0     H14561   2.516   2.644   8.173  0.6465 -0.3005  0.6743
  849MOL0     H14562   2.337   2.452   8.318  1.9460 -1.9349  2.8214
  849MOL0     H14563   2.503   2.423   8.268  0.2189  1.2701  0.0348
  849MOL0     H14564   2.497   2.459   8.498  3.5242 -1.1234 -1.1103
  849MOL0     H14565   2.392   2.610   8.469  2.5137  1.8756 -1.4567
  849MOL0     H14566   2.757   2.487   8.389 -3.3318 -2.0881  1.5341
  849MOL0     H14567   2.953   2.823   8.450 -1.3365 -0.1012  0.3570
  849MOL0     H14568   2.986   2.685   8.548 -0.4846 -1.1439  0.5520
  849MOL0     H14569   2.966   2.704   8.238  1.1108 -3.5609 -2.1678
  849MOL0     H14570   2.973   2.553   8.326 -0.8280 -0.0947  0.5265
  849MOL0     H14571   3.183   2.633   8.435  1.2056 -1.5763 -0.8451
  849MOL0     H14572   3.179   2.794   8.349  0.0973  0.6868 -2.2068
  849MOL0     H14573   3.201   2.526   8.222  0.3170 -1.6156  0.3761
  849MOL0     H14574   3.337   2.631   8.238 -0.8518 -0.5962  0.9583
  849MOL0     H14575   3.364   2.692   7.895  1.0378  0.0073 -1.8919
  849MOL0     H14576   3.437   2.671   7.702  1.4537  0.0296 -1.9884
  849MOL0     H14577   3.453   2.504   7.649  1.5475  2.0382 -1.5840
  849MOL0     H14578   3.332   2.615   7.572  2.4364  3.1226 -0.8325
  849MOL0     H14579   2.994   2.420   7.409 -2.4074  0.1936 -1.1721
  849MOL0     H14580   2.875   2.320   7.214  0.0474  0.4283  0.5521
  849MOL0     H14581   2.678   1.989   7.073 -1.3318  1.3301  0.6020
  849MOL0     H14582   2.717   1.922   7.236  2.4033  1.0942 -0.1726
  849MOL0     H14583   2.551   2.066   7.346 -0.8432  4.6924 -1.4631
  849MOL0     H14584   2.503   2.136   7.196 -1.2164  0.0208  0.7078
  849MOL0     H14585   2.444   1.880   7.118 -1.4824 -2.0742  0.0238
  849MOL0     H14586   2.342   1.972   7.227  1.0365 -1.2106  1.7286
  849MOL0     H14587   2.523   1.855   7.403 -1.5408 -0.7814  1.8772
  849MOL0     H14588   2.369   1.792   7.376 -1.8406  0.6683 -1.3368
  849MOL0     H14589   2.611   1.695   7.232 -0.1299  1.2306  0.8835
  849MOL0     H14590   2.449   1.620   7.206  1.0816 -1.7633 -0.2809
  849MOL0     H14591   2.634   1.584   7.426  0.9622 -3.2757 -1.4707
  849MOL0     H14592   2.467   1.625   7.474  0.3188 -0.2825  0.5538
  849MOL0     H14593   2.399   1.438   7.298 -1.8433 -1.3322  2.7791
  849MOL0     H14594   2.467   1.382   7.440  1.3270 -1.0800 -1.0299
  849MOL0     H14595   2.686   1.365   7.367  1.0265  0.5227 -0.6654
  849MOL0     H14596   2.638   1.407   7.198  1.4623 -1.6556 -1.3421
  849MOL0     H14597   2.805   1.963   7.438  3.3076 -1.9789 -2.1077
  849MOL0     H14598   2.939   2.066   7.631 -1.5076 -0.1608  0.2796
  849MOL0     H14599   2.998   2.360   7.874 -0.4224 -0.2472  0.0092
  849MOL0     H14600   3.018   2.496   8.061 -0.7312 -0.0859 -0.5997
  849MOL0     H14601   2.048   2.806   8.750  0.2202 -0.8854 -4.0243
  849MOL0     H14602   2.075   2.894   8.972 -0.3767 -1.0897 -0.0535
  849MOL0     H14603   2.040   3.125   9.300  2.1307 -1.1605 -0.1200
  849MOL0     H14604   2.143   3.167   9.524 -0.9114  2.5796  1.8666
  849MOL0     H14605   2.180   3.527   9.620  0.3608  1.7071 -0.2110
  849MOL0     H14606   2.223   3.429   9.767  4.2167 -0.8883  0.8376
  849MOL0     H14607   2.433   3.490   9.785 -1.8894 -1.4127  0.8781
  849MOL0     H14608   2.329   3.636   9.773 -0.7967  0.0654  0.2867
  849MOL0     H14609   2.407   3.670   9.527 -1.9295 -1.4180 -0.3259
  849MOL0     H14610   2.509   3.527   9.549 -0.8012  0.9582 -0.1338
  849MOL0     H14611   2.527   3.774   9.724  0.7949 -0.1550  0.4272
  849MOL0     H14612   2.590   3.760   9.557 -1.8630 -1.3875 -0.7509
  849MOL0     H14613   2.876   3.528   9.768 -1.7840 -3.0067  0.6206
  849MOL0     H14614   2.332   3.512   9.391  0.4254  0.8044 -2.3301
  849MOL0     H14615   2.223   3.492   9.165  2.3459  0.1662  0.3637
  850MOL0     O14616  11.071   9.456   5.958  0.0073  0.3942 -0.0319
  850MOL0     C14617  10.966   9.485   5.893  0.3834 -0.1285 -0.0005
  850MOL0     O14618  10.961   9.532   5.763 -0.5905 -0.3938 -0.3245
  850MOL0     C14619  11.077   9.550   5.684  0.1501 -0.1683 -0.8747
  850MOL0     C14620  11.068   9.546   5.546 -0.6545  0.3015  0.4599
  850MOL0     C14621  11.186   9.549   5.463  0.6052 -0.2350  0.4974
  850MOL0     C14622  11.313   9.562   5.524  0.1475 -1.7725  0.3857
  850MOL0     O14623  11.433   9.556   5.468 -0.4930 -0.3873 -0.1734
  850MOL0     C14624  11.448   9.503   5.335 -0.4301  0.7790 -0.3707
  850MOL0     C14625  11.596   9.482   5.277  1.3079  0.3344  0.0802
  850MOL0     C14626  11.691   9.599   5.294  0.6218 -0.3032 -1.0451
  850MOL0     C14627  11.825   9.561   5.226  0.9768 -1.2300  0.2462
  850MOL0     C14628  11.937   9.663   5.262 -0.0827  0.9682 -1.0366
  850MOL0     C14629  12.065   9.643   5.193 -0.0010 -0.0485 -0.1594
  850MOL0     C14630  12.181   9.716   5.256  0.1013  0.2642  0.5150
  850MOL0     C14631  12.168   9.872   5.254 -0.0658  0.4032 -0.4929
  850MOL0     N14632  12.233   9.918   5.379  0.3200 -0.2951 -0.0314
  850MOL0     C14633  12.165   9.961   5.486  0.8070 -0.8260  0.3434
  850MOL0     C14634  12.260   9.994   5.573 -0.4142 -1.1406  0.4846
  850MOL0     C14635  12.230  10.031   5.710  0.6866  0.5162  0.9291
  850MOL0     C14636  12.348  10.070   5.794  0.1498  0.5260 -0.0036
  850MOL0     C14637  12.307  10.147   5.925  1.8362  0.0497  0.4536
  850MOL0     C14638  12.231  10.060   6.025 -0.1380  0.3697  0.0396
  850MOL0     O14639  12.230  10.121   6.155  0.0729 -0.3614  0.0538
  850MOL0     C14640  12.150  10.075   6.255  0.1356  0.4348 -0.1860
  850MOL0     C14641  12.122  10.163   6.358 -0.5321 -0.1845  0.0234
  850MOL0     C14642  12.027  10.139   6.454 -0.6592  0.0275 -0.4300
  850MOL0     C14643  12.007  10.264   6.548 -0.2886  0.0111  0.2489
  850MOL0     C14644  11.951  10.025   6.451  0.4690  0.8184 -0.9056
  850MOL0     C14645  11.826   9.999   6.532 -0.2701 -0.1169 -0.6494
  850MOL0     O14646  11.797   9.872   6.548 -0.6196 -0.3188  0.0950
  850MOL0     C14647  11.669   9.847   6.602 -0.6924  0.0185 -0.8362
  850MOL0     C14648  11.640   9.869   6.742  0.5170 -0.7240 -0.3686
  850MOL0     C14649  11.522   9.831   6.804  0.3208  1.1999 -0.7339
  850MOL0     C14650  11.427   9.772   6.723 -0.2682  0.6834  0.0477
  850MOL0     O14651  11.318   9.732   6.787  0.0057  0.1419  0.4644
  850MOL0     C14652  11.193   9.747   6.717  0.4211 -0.6696  0.1659
  850MOL0     C14653  11.079   9.759   6.819  0.0502 -0.0967  0.0724
  850MOL0     C14654  11.078   9.633   6.907 -0.5379  0.4200 -0.1195
  850MOL0     C14655  10.935   9.617   6.964  0.2534 -1.3384 -0.4285
  850MOL0     C14656  10.921   9.507   7.068  0.2578  0.0384  0.0304
  850MOL0     C14657  10.782   9.509   7.144 -0.0559  0.8314 -0.0073
  850MOL0     C14658  10.787   9.402   7.246  1.0272  0.3383 -0.5411
  850MOL0     C14659  10.635   9.368   7.275  0.1803 -0.8767  0.0449
  850MOL0    Cl14660  10.533   9.493   7.341 -0.4158 -0.0942 -0.0731
  850MOL0     C14661  11.449   9.749   6.592  0.0488  0.1114  1.4835
  850MOL0     C14662  11.568   9.795   6.521 -0.7357 -0.1814 -0.9967
  850MOL0     O14663  11.756  10.092   6.580 -0.9075  0.3874 -0.2028
  850MOL0     C14664  11.981   9.930   6.347  0.7468 -0.2770  0.0839
  850MOL0     C14665  12.081   9.954   6.254 -0.1212 -0.4009 -0.3822
  850MOL0     N14666  12.378   9.979   5.510 -0.3987 -0.1285  0.4115
  850MOL0     N14667  12.364   9.927   5.393  0.2481  1.2069 -0.0284
  850MOL0     C14668  11.324   9.590   5.658 -0.2613  0.2209 -0.3206
  850MOL0     C14669  11.208   9.578   5.741  0.4108  0.2478  0.7519
  850MOL0     C14670  10.834   9.476   5.966  0.6928  0.8626  0.0066
  850MOL0     C14671  10.827   9.461   6.107 -0.1119  0.0534 -0.1178
  850MOL0     C14672  10.704   9.451   6.173  0.2065 -0.4566  0.5945
  850MOL0     C14673  10.590   9.448   6.095  0.3603 -0.4235 -0.1977
  850MOL0     O14674  10.464   9.432   6.151 -0.2097  0.3083 -0.1936
  850MOL0     C14675  10.447   9.428   6.298 -0.2555 -0.4397  0.2362
  850MOL0     C14676  10.473   9.562   6.363 -0.3516  0.5927 -0.2909
  850MOL0     C14677  10.394   9.674   6.297  0.3575  0.1239  0.9162
  850MOL0     C14678  10.243   9.655   6.307  0.1521 -0.0604  0.7653
  850MOL0     C14679  10.166   9.768   6.250 -0.1815 -0.0377 -0.4489
  850MOL0     C14680  10.106   9.866   6.201 -0.0405 -0.3808  0.4709
  850MOL0     C14681  10.597   9.466   5.950 -0.6003 -0.8239  0.7282
  850MOL0     C14682  10.717   9.476   5.882  0.7029  0.1216 -0.0575
  850MOL0     H14683  10.969   9.539   5.501 -2.0458 -1.0417  3.4811
  850MOL0     H14684  11.159   9.562   5.359  0.5677  2.8376  0.7972
  850MOL0     H14685  11.406   9.402   5.336 -0.3694  0.7229  2.3564
  850MOL0     H14686  11.400   9.570   5.263  1.0425  3.4424  0.9916
  850MOL0     H14687  11.653   9.407   5.333  1.0995  0.1965  0.1059
  850MOL0     H14688  11.582   9.462   5.170  1.3965  0.8910 -0.0400
  850MOL0     H14689  11.655   9.693   5.252  3.6750  0.5950 -1.9570
  850MOL0     H14690  11.709   9.618   5.400 -1.6695 -0.2249 -0.6151
  850MOL0     H14691  11.847   9.457   5.253 -0.8591 -2.0582 -1.1935
  850MOL0     H14692  11.808   9.557   5.118  2.9860 -4.3873 -0.1102
  850MOL0     H14693  11.908   9.766   5.241  1.8217  1.5535 -0.9624
  850MOL0     H14694  11.939   9.656   5.371 -5.6460 -0.6312 -0.7296
  850MOL0     H14695  12.087   9.536   5.197 -0.6030 -0.2177 -1.0678
  850MOL0     H14696  12.050   9.670   5.088 -1.0893  0.9684  0.2373
  850MOL0     H14697  12.194   9.676   5.357 -1.5499  1.9480  1.4652
  850MOL0     H14698  12.265   9.693   5.190 -1.4867 -4.1853 -0.2966
  850MOL0     H14699  12.065   9.907   5.257 -0.2859 -0.2871  0.5803
  850MOL0     H14700  12.209   9.906   5.158  3.3405  0.2014  0.7374
  850MOL0     H14701  12.057   9.959   5.492  0.7912 -0.1190  0.3775
  850MOL0     H14702  12.161  10.115   5.712  1.1213  0.9169 -0.0747
  850MOL0     H14703  12.180   9.949   5.762  2.2575  0.9832  3.3462
  850MOL0     H14704  12.417  10.141   5.748 -0.5480  2.1231  1.2966
  850MOL0     H14705  12.413   9.987   5.823  1.3073  1.0139 -1.1054
  850MOL0     H14706  12.241  10.230   5.900  2.6034  0.5376  0.0107
  850MOL0     H14707  12.391  10.198   5.973 -1.0924  3.1270  2.8388
  850MOL0     H14708  12.282   9.963   6.032 -0.9334  0.0630  1.8512
  850MOL0     H14709  12.130  10.040   5.989  0.7993  0.8840 -3.2236
  850MOL0     H14710  12.172  10.259   6.355 -0.6725 -0.0651  1.0655
  850MOL0     H14711  12.018  10.244   6.655 -1.2422 -2.8149 -0.0905
  850MOL0     H14712  12.074  10.344   6.515 -0.0672 -0.4441 -0.4311
  850MOL0     H14713  11.901  10.289   6.538  0.1242  1.0960 -2.2186
  850MOL0     H14714  11.719   9.928   6.788 -0.6519  1.5972 -1.1738
  850MOL0     H14715  11.541   9.832   6.911  0.0911 -0.1702 -0.6708
  850MOL0     H14716  11.192   9.837   6.655 -1.1412 -1.8864 -1.6779
  850MOL0     H14717  11.173   9.658   6.657 -1.9771 -0.6850  0.8544
  850MOL0     H14718  11.100   9.849   6.879  1.3826 -0.6393  0.4660
  850MOL0     H14719  10.984   9.779   6.769  0.4075 -0.0933 -0.6178
  850MOL0     H14720  11.150   9.635   6.990 -2.0900  1.5062  1.2732
  850MOL0     H14721  11.093   9.549   6.840 -0.9153  0.3679 -0.1403
  850MOL0     H14722  10.903   9.715   7.000  0.3020 -0.8970 -1.5451
  850MOL0     H14723  10.878   9.595   6.873  1.1666  1.3629 -1.7585
  850MOL0     H14724  11.008   9.513   7.135 -0.5711  1.7005  1.0251
  850MOL0     H14725  10.928   9.413   7.014 -0.4799  0.6045 -1.0916
  850MOL0     H14726  10.772   9.602   7.201  0.0629 -0.2982  1.9533
  850MOL0     H14727  10.708   9.505   7.063  0.4756  3.6633 -0.7703
  850MOL0     H14728  10.843   9.438   7.333 -2.0609 -0.2305  1.8819
  850MOL0     H14729  10.830   9.313   7.199 -2.4675 -1.7319 -0.2541
  850MOL0     H14730  10.633   9.291   7.352 -0.8872  1.7214  2.8154
  850MOL0     H14731  10.590   9.338   7.179 -0.4120  1.5254 -0.5132
  850MOL0     H14732  11.373   9.684   6.548  1.4908 -1.2247  0.8796
  850MOL0     H14733  11.582   9.770   6.417 -3.2727 -0.7431 -1.2706
  850MOL0     H14734  11.929   9.839   6.321  4.9782 -2.5541 -1.4204
  850MOL0     H14735  12.114   9.880   6.182  2.6291 -0.1561  0.4842
  850MOL0     H14736  11.424   9.620   5.691  0.1340  1.4652 -2.4624
  850MOL0     H14737  11.233   9.588   5.846  2.4642 -0.2615  0.3632
  850MOL0     H14738  10.908   9.456   6.180 -2.4688  1.3558  2.7945
  850MOL0     H14739  10.716   9.430   6.279  1.7709 -3.0865  0.0014
  850MOL0     H14740  10.346   9.393   6.324  0.4145 -0.7586  2.7307
  850MOL0     H14741  10.515   9.352   6.338  3.2986  1.5406 -1.5237
  850MOL0     H14742  10.580   9.582   6.377  0.0195 -1.0894 -0.4762
  850MOL0     H14743  10.434   9.559   6.465 -0.0317 -0.1863 -0.1841
  850MOL0     H14744  10.434   9.681   6.195  2.8477  3.2309  1.9581
  850MOL0     H14745  10.423   9.769   6.342  2.1920  1.0599 -1.9858
  850MOL0     H14746  10.218   9.627   6.410  0.3001 -0.6994  0.6347
  850MOL0     H14747  10.217   9.566   6.250  0.1775  0.1066  0.4907
  850MOL0     H14748  10.067   9.956   6.158  3.4725  0.1554 -2.0304
  850MOL0     H14749  10.508   9.459   5.890  1.1510 -3.5796 -1.8169
  850MOL0     H14750  10.711   9.475   5.774 -0.2825 -1.4733 -0.0218
  851MOL0     O14751   6.098   1.444   8.371  0.3048  0.3799  0.0698
  851MOL0     C14752   6.176   1.510   8.432 -0.8482 -0.8675 -1.0638
  851MOL0     O14753   6.171   1.526   8.568  0.4514 -0.0455  0.2210
  851MOL0     C14754   6.055   1.491   8.633  0.4068 -0.4551 -0.0772
  851MOL0     C14755   6.062   1.397   8.735  0.2763 -0.1479  0.2665
  851MOL0     C14756   5.944   1.341   8.795  0.0784 -1.1366 -0.2320
  851MOL0     C14757   5.819   1.393   8.752 -0.8169  0.9423 -0.0865
  851MOL0     O14758   5.703   1.349   8.810 -0.0940  0.2979 -0.3972
  851MOL0     C14759   5.719   1.253   8.925  0.3618 -0.3382 -0.0389
  851MOL0     C14760   5.583   1.236   8.997 -0.2716 -0.8669 -0.1408
  851MOL0     C14761   5.568   1.341   9.109  0.8760  0.5161 -0.1760
  851MOL0     C14762   5.427   1.335   9.166 -0.4843  0.2335  0.5867
  851MOL0     C14763   5.394   1.459   9.242 -0.4848 -0.2076 -0.6492
  851MOL0     C14764   5.260   1.444   9.303  0.1176  0.2094 -0.9197
  851MOL0     C14765   5.214   1.570   9.384  0.7606  0.0815 -0.3947
  851MOL0     C14766   5.222   1.551   9.535  0.5730  0.3612 -0.3460
  851MOL0     N14767   5.201   1.683   9.592  0.5328  0.6608 -0.0796
  851MOL0     C14768   5.097   1.773   9.568 -0.8261  0.5858  0.3734
  851MOL0     C14769   5.138   1.879   9.636  0.4207 -0.3965 -0.0613
  851MOL0     C14770   5.062   2.011   9.634  0.1522 -0.5285 -0.2683
  851MOL0     C14771   4.978   2.055   9.751 -0.3195  0.2394 -0.2986
  851MOL0     C14772   4.910   1.928   9.799  0.2857  0.2740 -0.6062
  851MOL0     C14773   4.803   1.863   9.717  1.1340  1.0868  0.0036
  851MOL0     O14774   4.686   1.941   9.735  0.3034 -0.0913  0.3622
  851MOL0     C14775   4.560   1.879   9.735  0.5349  0.1760 -0.3881
  851MOL0     C14776   4.449   1.936   9.807 -1.0181 -0.4740  0.1011
  851MOL0     C14777   4.318   1.887   9.807  0.2483 -0.5311  0.4261
  851MOL0     C14778   4.213   1.947   9.888 -0.5040 -0.4275  0.2457
  851MOL0     C14779   4.295   1.772   9.725  0.3202  0.7190 -0.1860
  851MOL0     C14780   4.159   1.721   9.694 -1.1988 -0.7783  0.7319
  851MOL0     O14781   4.136   1.703   9.558 -0.1174  0.2736 -0.4490
  851MOL0     C14782   4.015   1.657   9.520 -0.0948  0.5894  0.4797
  851MOL0     C14783   3.921   1.752   9.470 -0.4839 -0.8069 -0.9272
  851MOL0     C14784   3.789   1.718   9.444  0.0208 -0.1234  0.3619
  851MOL0     C14785   3.746   1.587   9.466 -0.1736  0.3567  0.6415
  851MOL0     O14786   3.617   1.539   9.437 -0.3102 -0.1886 -0.7749
  851MOL0     C14787   3.519   1.593   9.513  0.3627 -0.3062  0.2405
  851MOL0     C14788   3.417   1.488   9.523  0.6239 -0.3872  0.1254
  851MOL0     C14789   3.346   1.478   9.387  0.1233  0.2088  0.3347
  851MOL0     C14790   3.240   1.373   9.386  1.5593  0.9224  0.8474
  851MOL0     C14791   3.142   1.394   9.267 -0.1677  0.9463  0.8111
  851MOL0     C14792   3.013   1.332   9.290  0.8135  0.4961  0.4729
  851MOL0     C14793   2.926   1.317   9.159  0.4743  0.7199 -0.0406
  851MOL0     C14794   2.836   1.195   9.175 -0.2984  0.1940  1.1965
  851MOL0    Cl14795   2.723   1.191   9.028  0.0978  0.4091  0.2628
  851MOL0     C14796   3.831   1.497   9.529 -0.4362 -0.3686  0.3247
  851MOL0     C14797   3.966   1.531   9.546  0.0868  0.1066  0.3004
  851MOL0     O14798   4.077   1.702   9.785  0.4437  0.0617  0.2066
  851MOL0     C14799   4.400   1.704   9.678 -1.1795 -0.4146  0.3356
  851MOL0     C14800   4.535   1.753   9.673  0.2322  0.2161 -0.0984
  851MOL0     N14801   5.258   1.855   9.704  0.1293  0.1461  0.5233
  851MOL0     N14802   5.290   1.735   9.673  0.1063 -1.1613  0.3523
  851MOL0     C14803   5.814   1.506   8.664  0.1375  0.0678  0.0236
  851MOL0     C14804   5.932   1.545   8.600  0.3409 -0.5496 -0.1525
  851MOL0     C14805   6.297   1.552   8.362 -0.2439  0.3079 -0.0958
  851MOL0     C14806   6.403   1.595   8.434  1.2495  0.5178  0.0128
  851MOL0     C14807   6.518   1.643   8.375  0.3158  0.0438  0.8240
  851MOL0     C14808   6.542   1.623   8.239 -0.2743  0.8057  0.8999
  851MOL0     O14809   6.665   1.650   8.183 -0.1903  0.8398 -0.0283
  851MOL0     C14810   6.774   1.717   8.246 -0.9394 -0.4233 -0.7118
  851MOL0     C14811   6.904   1.644   8.209  0.7532  1.0409 -0.2628
  851MOL0     C14812   7.021   1.725   8.265  0.2358 -0.5464  1.0953
  851MOL0     C14813   7.037   1.744   8.416 -0.2141  0.4145 -0.0351
  851MOL0     C14814   7.141   1.848   8.438 -0.3558  1.0057  0.4516
  851MOL0     C14815   7.227   1.938   8.452  0.3525  0.0270  0.0792
  851MOL0     C14816   6.435   1.577   8.159  0.3454  0.2796 -0.4109
  851MOL0     C14817   6.315   1.551   8.225  0.0317  0.4773  0.5018
  851MOL0     H14818   6.160   1.357   8.761  1.0445  1.8299  0.6602
  851MOL0     H14819   5.962   1.272   8.877 -3.0026  2.1358  3.6315
  851MOL0     H14820   5.746   1.158   8.879 -2.7580 -2.6385  2.3792
  851MOL0     H14821   5.795   1.286   8.997  1.3725 -0.0029 -1.2280
  851MOL0     H14822   5.498   1.248   8.929 -1.9082 -0.1378  1.9419
  851MOL0     H14823   5.569   1.140   9.047 -1.3586 -1.4707 -1.5542
  851MOL0     H14824   5.631   1.318   9.195 -0.1176  4.8536  2.0047
  851MOL0     H14825   5.594   1.439   9.067  2.2146  0.2667  0.0154
  851MOL0     H14826   5.357   1.324   9.083  1.1134 -0.3829 -0.7435
  851MOL0     H14827   5.415   1.245   9.226  1.3116 -2.0552 -2.2328
  851MOL0     H14828   5.455   1.476   9.331 -4.3377  1.7877  1.8910
  851MOL0     H14829   5.407   1.544   9.174  0.5820  0.4698  0.3607
  851MOL0     H14830   5.195   1.420   9.219  3.9720  0.7878 -4.3681
  851MOL0     H14831   5.258   1.360   9.374 -0.3318  1.8368  1.0859
  851MOL0     H14832   5.280   1.650   9.352  1.1864 -0.5717 -1.1754
  851MOL0     H14833   5.112   1.591   9.349  0.1882  1.6454  1.9942
  851MOL0     H14834   5.323   1.517   9.560  0.1055 -1.9507 -1.2779
  851MOL0     H14835   5.150   1.487   9.586  0.4263 -0.2827 -1.3172
  851MOL0     H14836   5.009   1.757   9.506 -0.3376 -1.3332  0.1149
  851MOL0     H14837   5.146   2.080   9.621 -1.3955  1.3978 -0.6470
  851MOL0     H14838   5.010   2.024   9.538 -2.0594  2.5371  1.1701
  851MOL0     H14839   4.901   2.125   9.716 -1.3748 -2.2953 -3.6271
  851MOL0     H14840   5.036   2.092   9.836 -0.3290 -0.8523  0.1998
  851MOL0     H14841   4.869   1.958   9.895 -0.4040  0.4194 -0.9404
  851MOL0     H14842   4.973   1.843   9.827 -1.4053 -0.3546  1.5870
  851MOL0     H14843   4.775   1.764   9.756 -0.8709  1.5890 -0.0610
  851MOL0     H14844   4.832   1.855   9.612  1.2957 -0.0109  0.1211
  851MOL0     H14845   4.483   2.029   9.853  0.5805  2.3249 -5.6788
  851MOL0     H14846   4.114   1.960   9.843 -0.1036  1.7871 -0.1235
  851MOL0     H14847   4.209   1.892   9.982  0.1710  2.0411  1.8221
  851MOL0     H14848   4.241   2.047   9.922 -1.1878  0.0258 -0.4579
  851MOL0     H14849   3.944   1.857   9.453  1.0965 -1.1896 -1.2901
  851MOL0     H14850   3.726   1.803   9.419  2.0933  0.9353 -1.7127
  851MOL0     H14851   3.564   1.610   9.611  2.9479 -1.6211 -0.6416
  851MOL0     H14852   3.471   1.688   9.487 -2.0684 -2.0913 -2.4065
  851MOL0     H14853   3.462   1.393   9.553  3.3589  1.2579  1.5820
  851MOL0     H14854   3.340   1.519   9.594 -2.8292 -2.1045 -2.5329
  851MOL0     H14855   3.413   1.461   9.302 -2.3836 -2.3613 -1.3244
  851MOL0     H14856   3.292   1.571   9.371  0.9882  0.4193 -1.6952
  851MOL0     H14857   3.277   1.270   9.382 -2.7138 -0.7967 -2.0663
  851MOL0     H14858   3.180   1.391   9.475  1.1897  1.1692  0.5469
  851MOL0     H14859   3.191   1.341   9.185  0.5146  0.8716  1.2562
  851MOL0     H14860   3.121   1.497   9.240  1.3184  1.8532  2.8054
  851MOL0     H14861   3.034   1.232   9.329  2.5960  0.6600  0.0287
  851MOL0     H14862   2.959   1.391   9.364 -3.0332 -4.2069  1.9860
  851MOL0     H14863   2.989   1.302   9.071  0.5542 -0.9095  0.2686
  851MOL0     H14864   2.873   1.413   9.154  0.4716  0.6556 -2.5172
  851MOL0     H14865   2.793   1.194   9.276  1.8957  0.5313  2.2113
  851MOL0     H14866   2.880   1.095   9.166  0.6984  0.7673 -0.9077
  851MOL0     H14867   3.797   1.396   9.553  4.6738 -2.1623  1.4643
  851MOL0     H14868   4.034   1.455   9.582  1.2329  1.2174  0.5450
  851MOL0     H14869   4.397   1.607   9.630  1.0079 -1.1201  1.4914
  851MOL0     H14870   4.612   1.710   9.610 -0.9118 -2.1300 -0.0164
  851MOL0     H14871   5.715   1.542   8.637  0.0883  1.6105  2.0383
  851MOL0     H14872   5.941   1.623   8.525  3.1392 -0.8009 -0.1655
  851MOL0     H14873   6.408   1.598   8.542  3.2897  0.8902 -0.0613
  851MOL0     H14874   6.596   1.674   8.443  1.8225 -2.6773  0.4799
  851MOL0     H14875   6.769   1.824   8.226 -0.4810 -0.1019  0.7986
  851MOL0     H14876   6.770   1.716   8.355 -1.5673  1.8224 -0.6599
  851MOL0     H14877   6.908   1.622   8.101  0.7791  1.1067 -0.2740
  851MOL0     H14878   6.902   1.546   8.257 -0.2269  2.0806  1.9274
  851MOL0     H14879   7.012   1.826   8.225  1.9131 -1.2398 -1.2364
  851MOL0     H14880   7.116   1.689   8.224  1.9702  1.5983  2.9344
  851MOL0     H14881   7.054   1.648   8.465 -3.2863 -1.4136 -2.1585
  851MOL0     H14882   6.939   1.783   8.445 -1.2232 -0.2007 -2.3573
  851MOL0     H14883   7.289   2.025   8.451 -1.3907  1.3265 -1.4238
  851MOL0     H14884   6.447   1.577   8.051  1.4125  0.7223 -0.3075
  851MOL0     H14885   6.226   1.530   8.167  1.0109 -0.6410 -0.6209
  852MOL0     O14886   7.611   4.276   9.657  0.1449 -0.4155 -0.5123
  852MOL0     C14887   7.670   4.190   9.724  0.6022 -0.9239 -0.3657
  852MOL0     O14888   7.616   4.080   9.778  0.0937  0.5218  0.1651
  852MOL0     C14889   7.486   4.043   9.742  0.0612 -0.0122 -0.1847
  852MOL0     C14890   7.412   3.985   9.844  0.5458  0.4335 -0.3877
  852MOL0     C14891   7.280   3.951   9.843 -0.3117  0.1133  0.4124
  852MOL0     C14892   7.210   3.987   9.726 -0.1084 -0.0077  0.6415
  852MOL0     O14893   7.077   3.968   9.733 -0.1809  0.0667  0.7549
  852MOL0     C14894   7.013   3.886   9.628 -1.3381  0.4198  0.3271
  852MOL0     C14895   7.021   3.741   9.672  0.9743 -0.8051 -0.6151
  852MOL0     C14896   6.905   3.722   9.773  0.5594 -0.1139 -0.3713
  852MOL0     C14897   6.908   3.584   9.833  0.2145 -0.4104 -0.0358
  852MOL0     C14898   6.767   3.546   9.886  0.0752  0.2469 -0.1651
  852MOL0     C14899   6.725   3.624  10.004 -0.2522  0.0323 -0.2388
  852MOL0     C14900   6.599   3.582  10.084  0.5629  0.6342  0.7666
  852MOL0     C14901   6.587   3.656  10.211 -0.1315  0.0209 -0.2039
  852MOL0     N14902   6.495   3.582  10.289  0.2517  0.6712  0.0913
  852MOL0     C14903   6.354   3.598  10.292 -0.0778 -0.4288 -0.1334
  852MOL0     C14904   6.311   3.510  10.384 -0.2927 -0.1386  0.2551
  852MOL0     C14905   6.172   3.495  10.425  1.2291 -0.7220 -0.4532
  852MOL0     C14906   6.074   3.481  10.306 -0.9645 -0.1483 -0.6906
  852MOL0     C14907   5.929   3.447  10.355  0.0248  1.3145 -0.5926
  852MOL0     C14908   5.848   3.574  10.391  0.3578 -1.3975  0.1696
  852MOL0     O14909   5.906   3.667  10.482 -0.9696  0.7150 -0.7806
  852MOL0     C14910   5.842   3.771  10.546  0.0869 -0.0798 -0.7271
  852MOL0     C14911   5.703   3.796  10.513 -0.4749 -0.7873  0.6828
  852MOL0     C14912   5.627   3.902  10.573  0.4452  0.0976 -0.1095
  852MOL0     C14913   5.480   3.900  10.554  1.0185 -0.4383  0.3443
  852MOL0     C14914   5.693   3.992  10.653  0.2461 -0.6720 -0.2709
  852MOL0     C14915   5.637   4.110  10.725  1.1640 -1.3380  0.1751
  852MOL0     O14916   5.705   4.228  10.713 -0.4173  0.3769 -0.7382
  852MOL0     C14917   5.669   4.344  10.776 -0.1091 -0.5650 -0.3727
  852MOL0     C14918   5.543   4.384  10.805 -0.1792 -0.0139 -0.1724
  852MOL0     C14919   5.515   4.486  10.890 -0.6670  0.0040  0.0204
  852MOL0     C14920   5.617   4.555  10.967  0.1595  0.1618 -0.2791
  852MOL0     O14921   5.602   4.661  11.051  0.5536  0.1533  0.2222
  852MOL0     C14922   5.470   4.693  11.082 -0.3880  0.3990  0.2509
  852MOL0     C14923   5.470   4.798  11.189  1.1887  0.3440  1.3133
  852MOL0     C14924   5.344   4.781  11.267  0.8389 -0.9348 -0.1237
  852MOL0     C14925   5.209   4.791  11.188  1.0006  0.3018  1.1134
  852MOL0     C14926   5.090   4.827  11.274  0.0547 -0.8473 -0.1612
  852MOL0     C14927   5.084   4.975  11.310  0.0502 -0.1285  0.7754
  852MOL0     C14928   4.967   4.991  11.406 -0.7009 -0.2660 -0.3503
  852MOL0     C14929   4.990   5.120  11.476  0.3557 -0.3811 -0.0419
  852MOL0    Cl14930   4.863   5.144  11.606 -0.2328  0.3173  0.3073
  852MOL0     C14931   5.750   4.510  10.952 -0.6649  0.3543  0.2805
  852MOL0     C14932   5.774   4.404  10.849 -0.5161 -0.8114 -0.6786
  852MOL0     O14933   5.535   4.100  10.796 -0.6446  0.1984  0.3684
  852MOL0     C14934   5.833   3.981  10.669 -0.3006  0.6919 -0.4260
  852MOL0     C14935   5.903   3.872  10.616  0.1565 -0.0474  0.4055
  852MOL0     N14936   6.408   3.420  10.406  0.6482  0.0048 -0.1749
  852MOL0     N14937   6.513   3.454  10.347 -0.8682 -0.8467  0.2374
  852MOL0     C14938   7.283   4.026   9.610 -0.2264 -0.1734  0.3073
  852MOL0     C14939   7.417   4.065   9.624 -0.2567 -0.0809 -0.2639
  852MOL0     C14940   7.817   4.210   9.737  0.4528 -0.3916 -0.3740
  852MOL0     C14941   7.903   4.112   9.789 -0.2034  0.2424 -0.8885
  852MOL0     C14942   8.036   4.126   9.792  0.3070  0.2594 -0.3337
  852MOL0     C14943   8.098   4.245   9.747 -0.4816  0.1912 -0.1558
  852MOL0     O14944   8.226   4.278   9.781  0.0537 -0.1031  0.1713
  852MOL0     C14945   8.324   4.238   9.690 -1.0301 -0.8192 -0.0256
  852MOL0     C14946   8.405   4.110   9.734  1.3881 -0.4506  0.5991
  852MOL0     C14947   8.492   4.057   9.624 -0.3685 -0.0290 -0.4509
  852MOL0     C14948   8.595   4.160   9.573  0.0686  0.4134  0.2364
  852MOL0     C14949   8.559   4.204   9.431 -0.3202 -0.2604 -0.8143
  852MOL0     C14950   8.530   4.232   9.314  0.4986  0.7603  0.4380
  852MOL0     C14951   8.021   4.348   9.698 -0.0829  0.1031  0.3410
  852MOL0     C14952   7.879   4.333   9.695  0.9227 -0.2001 -0.3982
  852MOL0     H14953   7.473   3.964   9.932  0.0419 -1.3676 -0.4172
  852MOL0     H14954   7.227   3.904   9.926  1.1317 -0.5493  0.9943
  852MOL0     H14955   6.913   3.930   9.627 -0.5396  2.4165  2.0212
  852MOL0     H14956   7.059   3.895   9.529 -0.4381 -3.2703  0.2794
  852MOL0     H14957   7.008   3.671   9.589  0.9061  0.9346 -2.1195
  852MOL0     H14958   7.118   3.717   9.718  2.1887  1.2049 -1.9595
  852MOL0     H14959   6.924   3.785   9.860  2.3610 -0.9751 -0.1024
  852MOL0     H14960   6.810   3.747   9.724 -0.7213  0.0151  2.0440
  852MOL0     H14961   6.940   3.506   9.763 -0.3556  1.4728 -2.5310
  852MOL0     H14962   6.974   3.577   9.920  2.5869 -0.5636 -1.7497
  852MOL0     H14963   6.687   3.567   9.814  1.0052 -2.9470 -2.3381
  852MOL0     H14964   6.777   3.440   9.910  1.6400  0.7720  1.7713
  852MOL0     H14965   6.807   3.603  10.073 -1.1824 -0.6650  0.6870
  852MOL0     H14966   6.730   3.732   9.986 -1.2917  0.0769 -0.3291
  852MOL0     H14967   6.513   3.589  10.018  2.1382 -1.4674 -1.6669
  852MOL0     H14968   6.605   3.474  10.098  0.9343  0.5496  0.0098
  852MOL0     H14969   6.547   3.757  10.197  0.4934  0.6519  2.0232
  852MOL0     H14970   6.690   3.664  10.249  0.6770  2.2944 -2.5593
  852MOL0     H14971   6.300   3.681  10.249  0.1811 -0.0698  0.2275
  852MOL0     H14972   6.170   3.408  10.492 -0.1230 -0.1705  0.2584
  852MOL0     H14973   6.136   3.580  10.483  0.5171  0.7997 -2.9770
  852MOL0     H14974   6.116   3.397  10.250  1.4607 -2.2831  3.7719
  852MOL0     H14975   6.072   3.566  10.237  0.0337 -0.6109 -1.3091
  852MOL0     H14976   5.934   3.376  10.438 -1.2567  1.1828 -0.6079
  852MOL0     H14977   5.877   3.394  10.274 -0.7163 -0.3152  0.8908
  852MOL0     H14978   5.750   3.539  10.424 -0.9021  0.7682 -0.9731
  852MOL0     H14979   5.831   3.635  10.301 -1.1287 -2.3162 -0.2002
  852MOL0     H14980   5.649   3.724  10.453  1.7265 -1.3844 -0.7285
  852MOL0     H14981   5.424   3.880  10.646  1.4830  1.4504  1.0754
  852MOL0     H14982   5.462   4.007  10.540  2.7617  0.0144  1.2614
  852MOL0     H14983   5.437   3.839  10.474  0.6438  0.7543 -0.3784
  852MOL0     H14984   5.455   4.339  10.760 -0.9118  0.4688  0.7405
  852MOL0     H14985   5.413   4.518  10.905 -0.2268  2.8881 -2.2677
  852MOL0     H14986   5.420   4.732  10.993 -1.1116  3.1798  1.7720
  852MOL0     H14987   5.417   4.601  11.111 -0.9011 -0.3333 -2.6558
  852MOL0     H14988   5.547   4.795  11.266 -2.0344 -3.3026  4.8883
  852MOL0     H14989   5.458   4.892  11.135 -0.9649 -1.1064 -0.9737
  852MOL0     H14990   5.339   4.859  11.343 -3.0471 -0.9260 -0.1884
  852MOL0     H14991   5.354   4.688  11.323  2.2170 -0.5535  0.3150
  852MOL0     H14992   5.218   4.864  11.107  0.7842 -0.3942  0.4582
  852MOL0     H14993   5.181   4.697  11.141 -0.1320  1.6730 -1.1594
  852MOL0     H14994   5.098   4.766  11.364 -2.5321 -0.0444  0.7134
  852MOL0     H14995   4.997   4.809  11.219 -0.6449  1.2396  0.2375
  852MOL0     H14996   5.182   5.003  11.350  0.1404 -1.5369  1.5950
  852MOL0     H14997   5.061   5.029  11.218 -0.9323 -2.2958 -0.3181
  852MOL0     H14998   4.976   4.907  11.477  2.9713 -1.8907 -2.4388
  852MOL0     H14999   4.873   4.978  11.353 -0.1946 -4.0221 -0.6657
  852MOL0     H15000   4.989   5.209  11.412  2.7729  2.5134  3.5101
  852MOL0     H15001   5.088   5.126  11.523  0.3137 -3.2584  0.5738
  852MOL0     H15002   5.835   4.555  11.002 -1.3544 -0.1336  1.9719
  852MOL0     H15003   5.876   4.381  10.819 -0.4183 -1.4384  0.0964
  852MOL0     H15004   5.895   4.054  10.720  0.6331 -1.1236  1.1717
  852MOL0     H15005   6.010   3.863  10.630 -0.0123  0.3502  2.2202
  852MOL0     H15006   7.227   4.047   9.519 -1.1147  2.0119  1.2853
  852MOL0     H15007   7.459   4.111   9.535 -2.2716  0.6660 -0.9000
  852MOL0     H15008   7.868   4.016   9.826 -0.7523  0.3665 -1.0796
  852MOL0     H15009   8.089   4.040   9.830 -1.6495 -1.0715 -0.4851
  852MOL0     H15010   8.271   4.216   9.597  0.7209 -2.1369 -0.7707
  852MOL0     H15011   8.389   4.324   9.677  0.5574 -2.0942 -0.8203
  852MOL0     H15012   8.340   4.025   9.754 -0.5323  0.8129 -0.0027
  852MOL0     H15013   8.444   4.131   9.834 -3.3578  1.9093  2.2669
  852MOL0     H15014   8.443   4.014   9.536 -0.8124 -0.7608  0.1462
  852MOL0     H15015   8.554   3.978   9.665 -0.2285  0.8920  1.1885
  852MOL0     H15016   8.686   4.100   9.580 -1.3748 -1.9413 -0.1107
  852MOL0     H15017   8.596   4.253   9.631 -1.9304  1.2928 -1.0341
  852MOL0     H15018   8.519   4.239   9.208 -0.8812 -0.1047  0.5060
  852MOL0     H15019   8.059   4.448   9.678 -0.1883  0.4564  1.7895
  852MOL0     H15020   7.811   4.417   9.683  0.3493 -0.5674  0.1604
  853MOL0     O15021   3.028   8.898   1.617 -1.0331  0.8694  0.6015
  853MOL0     C15022   2.989   8.786   1.665 -0.3664 -0.0323  0.0473
  853MOL0     O15023   3.055   8.663   1.655 -0.3310  0.0815  0.7882
  853MOL0     C15024   3.161   8.642   1.560 -0.3887 -0.6270  0.2811
  853MOL0     C15025   3.237   8.535   1.589  0.1238  1.0890  0.6604
  853MOL0     C15026   3.343   8.499   1.498 -0.1192 -0.2257 -0.6527
  853MOL0     C15027   3.368   8.572   1.376 -0.0501 -0.5802  0.9896
  853MOL0     O15028   3.463   8.523   1.284  0.5636  0.0510 -0.8514
  853MOL0     C15029   3.523   8.616   1.195  0.0024  0.7457 -0.5971
  853MOL0     C15030   3.671   8.575   1.166  0.5143 -1.0014  0.0063
  853MOL0     C15031   3.774   8.605   1.274 -0.1396  0.2425 -0.8512
  853MOL0     C15032   3.731   8.622   1.425  0.6416  0.5572  0.0341
  853MOL0     C15033   3.850   8.644   1.521 -0.0279 -0.0517  0.9166
  853MOL0     C15034   3.824   8.645   1.666  0.3489  0.2026  0.0577
  853MOL0     C15035   3.931   8.732   1.736 -0.2360  0.0642 -0.5048
  853MOL0     C15036   3.902   8.886   1.715 -0.4126  0.9020 -0.4343
  853MOL0     N15037   3.980   8.955   1.814 -0.5101 -0.2263 -0.4625
  853MOL0     C15038   4.121   8.958   1.828  0.0517 -0.2167 -0.6481
  853MOL0     C15039   4.143   9.040   1.934 -0.2014 -0.3169  0.0418
  853MOL0     C15040   4.280   9.073   1.980 -0.2750 -0.1074 -0.1386
  853MOL0     C15041   4.364   8.946   2.003  0.0546  0.7288  0.4574
  853MOL0     C15042   4.305   8.827   2.062 -0.1182  0.5152  0.1339
  853MOL0     C15043   4.229   8.858   2.193 -0.0389  0.6198  0.5588
  853MOL0     O15044   4.196   8.730   2.242  0.1115  0.2591  0.1581
  853MOL0     C15045   4.133   8.712   2.363  0.3883  0.3195  0.4808
  853MOL0     C15046   4.168   8.789   2.482  0.1838 -0.2091 -0.2936
  853MOL0     C15047   4.127   8.760   2.608  0.0336  0.6523 -0.8742
  853MOL0     C15048   4.156   8.858   2.715 -1.4736 -0.0887  0.1583
  853MOL0     C15049   4.027   8.648   2.621 -0.5797  0.5463  0.7231
  853MOL0     C15050   3.989   8.600   2.758 -0.1345 -0.7743  0.4225
  853MOL0     O15051   3.872   8.541   2.791  0.5539 -0.2291 -0.0032
  853MOL0     C15052   3.763   8.600   2.732  0.1380 -0.4282  0.0146
  853MOL0     C15053   3.653   8.518   2.685 -0.8619 -0.2705  0.7813
  853MOL0     C15054   3.535   8.582   2.637  0.1753  0.4906  0.1103
  853MOL0     C15055   3.510   8.719   2.657  0.0081 -1.0798 -0.1678
  853MOL0     O15056   3.397   8.777   2.607 -0.0877 -0.1301  0.3105
  853MOL0     C15057   3.375   8.918   2.592 -0.2350 -0.2413 -0.0417
  853MOL0     C15058   3.453   8.993   2.477 -0.4523 -0.3857 -0.1642
  853MOL0     C15059   3.459   8.910   2.340 -0.0643 -0.8246 -0.0553
  853MOL0     C15060   3.527   8.996   2.233  0.5735 -0.4245  0.4927
  853MOL0     C15061   3.594   8.914   2.121  0.8737  0.5728  0.5705
  853MOL0     C15062   3.503   8.843   2.028 -0.1795  0.0295 -0.1759
  853MOL0     C15063   3.550   8.847   1.886 -0.0263  0.0121 -0.7815
  853MOL0     C15064   3.477   8.740   1.800 -0.1903  0.9729  0.1734
  853MOL0    Cl15065   3.503   8.573   1.866  0.0617 -0.0151  0.2415
  853MOL0     C15066   3.612   8.795   2.719  0.7279 -0.2554  0.7546
  853MOL0     C15067   3.734   8.738   2.758  0.1184  0.3189  0.6159
  853MOL0     O15068   4.082   8.606   2.841 -0.5592 -0.7624  0.5268
  853MOL0     C15069   3.995   8.568   2.503 -0.5698 -0.4304  0.2633
  853MOL0     C15070   4.052   8.601   2.383  0.1988 -0.8756 -0.2655
  853MOL0     N15071   4.026   9.092   1.983  0.0138  0.3547  0.2076
  853MOL0     N15072   3.934   9.031   1.919 -0.2298 -1.0225  0.0979
  853MOL0     C15073   3.286   8.683   1.350 -0.0407 -0.2868 -0.4941
  853MOL0     C15074   3.183   8.714   1.443 -0.8741 -0.3237  0.3735
  853MOL0     C15075   2.862   8.792   1.734  0.3663  0.3320 -0.2290
  853MOL0     C15076   2.800   8.668   1.770  0.8434 -0.5294 -1.4182
  853MOL0     C15077   2.678   8.673   1.835  0.2017 -0.1552 -0.8022
  853MOL0     C15078   2.626   8.802   1.876  0.8779 -0.2210 -0.2532
  853MOL0     O15079   2.507   8.808   1.952 -0.0474 -0.0081  0.1484
  853MOL0     C15080   2.474   8.704   2.052 -0.4648 -0.0755  0.0253
  853MOL0     C15081   2.591   8.683   2.141 -0.0804  0.1089  0.8160
  853MOL0     C15082   2.556   8.609   2.260 -0.5073 -0.2909  0.3625
  853MOL0     C15083   2.683   8.589   2.359  0.2226 -0.2207  0.9675
  853MOL0     C15084   2.770   8.484   2.299 -0.6542  0.5244 -0.0678
  853MOL0     C15085   2.840   8.398   2.248  1.2105  0.1466 -0.3553
  853MOL0     C15086   2.677   8.922   1.825  0.4362  0.1118  0.8562
  853MOL0     C15087   2.797   8.918   1.764 -0.4738  0.5596 -0.0149
  853MOL0     H15088   3.207   8.470   1.671 -0.3980 -0.2909 -0.5883
  853MOL0     H15089   3.394   8.404   1.506 -1.8415 -1.3628 -2.2666
  853MOL0     H15090   3.468   8.600   1.101  1.1823 -3.5382 -0.7957
  853MOL0     H15091   3.518   8.714   1.243 -1.5566  0.0619  0.7476
  853MOL0     H15092   3.665   8.469   1.143  0.7424 -1.1401  0.5673
  853MOL0     H15093   3.699   8.634   1.078  1.2750 -0.1974  0.7584
  853MOL0     H15094   3.845   8.523   1.258 -1.4473 -0.9933 -0.5088
  853MOL0     H15095   3.824   8.696   1.240 -1.1438  1.6314  1.2046
  853MOL0     H15096   3.662   8.706   1.441 -0.6426 -0.5941  0.6590
  853MOL0     H15097   3.676   8.535   1.461  0.6032  0.2902 -0.6460
  853MOL0     H15098   3.931   8.575   1.499  1.2388  1.2214  1.3989
  853MOL0     H15099   3.875   8.748   1.497 -1.2386 -0.1924 -1.2695
  853MOL0     H15100   3.727   8.688   1.693 -0.0822 -0.3871 -0.5465
  853MOL0     H15101   3.826   8.545   1.711 -0.1864  0.1387 -0.0584
  853MOL0     H15102   3.933   8.710   1.843  0.1133  0.7510 -0.3672
  853MOL0     H15103   4.031   8.700   1.707 -0.6678 -4.0388  1.7210
  853MOL0     H15104   3.797   8.918   1.716 -0.9515 -0.6863  1.0757
  853MOL0     H15105   3.932   8.917   1.615 -0.0516  0.0177 -0.6094
  853MOL0     H15106   4.202   8.907   1.776  1.0743  0.5587  0.1508
  853MOL0     H15107   4.324   9.138   1.903 -0.4419 -0.7784 -0.8210
  853MOL0     H15108   4.264   9.127   2.073  0.7648 -3.1796  1.9757
  853MOL0     H15109   4.449   8.969   2.068 -0.5482  0.0061  1.5343
  853MOL0     H15110   4.413   8.917   1.909 -0.8317 -1.0659  0.5016
  853MOL0     H15111   4.382   8.755   2.090 -3.2363 -2.3190  2.1731
  853MOL0     H15112   4.249   8.782   1.979  0.8461  2.5728 -1.7527
  853MOL0     H15113   4.138   8.916   2.176  0.0702 -0.0913 -3.4943
  853MOL0     H15114   4.293   8.913   2.261  3.2222 -1.8697 -0.2290
  853MOL0     H15115   4.244   8.865   2.475 -1.1033  1.6585  3.5239
  853MOL0     H15116   4.251   8.834   2.762 -0.7901  1.3778 -0.4183
  853MOL0     H15117   4.172   8.961   2.682  2.9069 -0.3342  0.9641
  853MOL0     H15118   4.073   8.866   2.786 -0.3990  0.1326  1.4052
  853MOL0     H15119   3.660   8.412   2.665 -2.4333  0.3754 -4.6583
  853MOL0     H15120   3.462   8.519   2.586  0.1779  0.1301  0.5447
  853MOL0     H15121   3.269   8.925   2.568 -0.9336  0.1533  2.8182
  853MOL0     H15122   3.389   8.951   2.695 -1.0267 -0.1954  0.0513
  853MOL0     H15123   3.407   9.091   2.459 -2.0714 -1.1305 -0.2608
  853MOL0     H15124   3.557   9.006   2.508 -0.1888 -0.2636 -1.0731
  853MOL0     H15125   3.357   8.902   2.300 -0.1677 -0.9467  0.2245
  853MOL0     H15126   3.499   8.810   2.359 -0.4113 -1.7633 -3.5721
  853MOL0     H15127   3.441   9.047   2.189  0.1319 -1.7325 -0.2178
  853MOL0     H15128   3.605   9.068   2.260  1.8558 -0.9030 -1.6678
  853MOL0     H15129   3.653   8.846   2.183 -0.1807 -2.7520 -1.8269
  853MOL0     H15130   3.661   8.980   2.064  0.3199 -0.6291 -1.5963
  853MOL0     H15131   3.497   8.739   2.063 -0.4759 -0.1097 -0.6346
  853MOL0     H15132   3.404   8.888   2.034 -0.2912 -0.3998  4.7193
  853MOL0     H15133   3.658   8.830   1.881 -0.3361 -1.7791 -2.5916
  853MOL0     H15134   3.537   8.946   1.841 -2.4613 -1.1547 -2.9212
  853MOL0     H15135   3.513   8.742   1.697 -0.6362  2.1408  0.0162
  853MOL0     H15136   3.369   8.757   1.798 -0.1231  1.8278  1.8474
  853MOL0     H15137   3.595   8.903   2.723 -3.9844 -0.6874 -1.4085
  853MOL0     H15138   3.804   8.804   2.809 -0.4728  0.6166  1.0547
  853MOL0     H15139   3.944   8.472   2.502  2.2284 -2.0165 -1.0187
  853MOL0     H15140   4.022   8.547   2.293  1.4058 -0.6199 -0.8536
  853MOL0     H15141   3.290   8.743   1.260 -1.4523 -0.0469 -0.4191
  853MOL0     H15142   3.129   8.805   1.420  0.0319  0.4469  1.1888
  853MOL0     H15143   2.835   8.568   1.744 -0.1105 -1.2008 -0.2124
  853MOL0     H15144   2.616   8.586   1.855 -2.2178  1.5380 -0.4786
  853MOL0     H15145   2.385   8.751   2.095  1.1721  1.0421  2.4541
  853MOL0     H15146   2.447   8.608   2.008  1.6313  0.5024 -2.8223
  853MOL0     H15147   2.627   8.781   2.173  0.4594  1.2268 -2.7645
  853MOL0     H15148   2.676   8.631   2.096 -1.5418 -0.6557 -1.1678
  853MOL0     H15149   2.519   8.511   2.227 -0.3481 -0.3737  0.4282
  853MOL0     H15150   2.469   8.654   2.308  0.1527  0.9481  0.4410
  853MOL0     H15151   2.644   8.567   2.459 -0.9776  3.1751  1.3607
  853MOL0     H15152   2.737   8.684   2.357  0.8725 -0.5746 -1.5174
  853MOL0     H15153   2.900   8.322   2.201  0.6244 -1.1205  0.8600
  853MOL0     H15154   2.635   9.021   1.836 -0.9322 -0.0753 -1.7070
  853MOL0     H15155   2.845   9.011   1.735 -0.0404  0.7116  1.1463
  854MOL0     O15156   8.301   2.702   4.624 -1.3382 -0.6403  0.3245
  854MOL0     C15157   8.361   2.800   4.673 -0.6404  0.3030  0.0312
  854MOL0     O15158   8.301   2.902   4.739 -0.7078  0.0682  0.2796
  854MOL0     C15159   8.181   2.883   4.799 -0.3422  0.4782 -0.3843
  854MOL0     C15160   8.176   2.849   4.939  0.8261 -0.8863  0.2273
  854MOL0     C15161   8.057   2.858   5.011 -0.0582  0.3402 -0.6674
  854MOL0     C15162   7.943   2.914   4.939 -0.0327  0.0193  0.0593
  854MOL0     O15163   7.826   2.947   4.995  0.8623  0.0457 -0.0955
  854MOL0     C15164   7.835   3.019   5.115 -0.0303  0.0198  0.0348
  854MOL0     C15165   7.695   3.078   5.152 -0.1244 -0.2047 -1.4454
  854MOL0     C15166   7.661   3.193   5.060 -0.1241 -0.7988 -0.4115
  854MOL0     C15167   7.546   3.275   5.099  0.0870  0.1864  0.4306
  854MOL0     C15168   7.526   3.394   5.005 -0.6753  0.2253  1.2075
  854MOL0     C15169   7.395   3.486   5.019  0.1403 -0.2154  0.1283
  854MOL0     C15170   7.425   3.606   4.926 -0.2227  0.2874  0.2429
  854MOL0     C15171   7.313   3.702   4.896  0.2778  0.9050 -0.0897
  854MOL0     N15172   7.274   3.784   5.018 -0.1664  0.1352 -0.7537
  854MOL0     C15173   7.222   3.907   5.002  0.0209 -0.5377 -1.0856
  854MOL0     C15174   7.193   3.949   5.129  0.0926  0.2045 -0.9948
  854MOL0     C15175   7.126   4.074   5.164  0.7141  0.1889  0.1951
  854MOL0     C15176   6.978   4.069   5.173  0.0610 -0.6429 -0.8052
  854MOL0     C15177   6.923   3.964   5.281  0.6557 -0.6099 -0.7153
  854MOL0     C15178   6.774   3.936   5.249 -0.4138 -0.2718 -0.3040
  854MOL0     O15179   6.690   4.056   5.241 -0.3684  0.4890  0.2772
  854MOL0     C15180   6.568   4.053   5.178 -0.4701 -0.1193  0.4871
  854MOL0     C15181   6.484   3.943   5.164  0.4385 -1.2410  0.0340
  854MOL0     C15182   6.350   3.962   5.113  0.4476  1.4361  0.1144
  854MOL0     C15183   6.267   3.839   5.103 -0.6093  0.5170 -0.2039
  854MOL0     C15184   6.300   4.084   5.080 -0.3309 -0.0298 -0.0838
  854MOL0     C15185   6.161   4.106   5.029 -0.4341 -0.0428  0.1357
  854MOL0     O15186   6.144   4.217   4.947 -0.8021  0.7138 -0.4679
  854MOL0     C15187   6.021   4.264   4.912 -0.6811 -0.5878 -0.7287
  854MOL0     C15188   5.914   4.281   4.997  0.3407 -0.1467 -0.3743
  854MOL0     C15189   5.791   4.336   4.946  0.4928 -0.6104 -0.6633
  854MOL0     C15190   5.781   4.376   4.812 -0.4174  0.1141  0.1276
  854MOL0     O15191   5.669   4.433   4.754  0.0501 -0.3489  0.3595
  854MOL0     C15192   5.565   4.469   4.841 -0.0983 -1.0239 -0.8730
  854MOL0     C15193   5.454   4.526   4.757  0.8264  0.0845 -0.3575
  854MOL0     C15194   5.388   4.437   4.654  0.9789 -0.8876  0.7520
  854MOL0     C15195   5.281   4.507   4.570 -0.1686  0.2073  0.5208
  854MOL0     C15196   5.160   4.551   4.651  0.1807  0.6382  0.4368
  854MOL0     C15197   5.066   4.620   4.548 -0.6570  0.3478 -1.4874
  854MOL0     C15198   4.939   4.679   4.612  0.0814 -0.2337  0.0305
  854MOL0     C15199   4.880   4.784   4.515 -0.0782 -0.1451 -0.5836
  854MOL0    Cl15200   4.739   4.863   4.593 -0.1893 -0.1694 -0.1550
  854MOL0     C15201   5.894   4.359   4.729  0.0288 -0.5464  0.4614
  854MOL0     C15202   6.011   4.302   4.784  0.3489 -0.2164 -0.0200
  854MOL0     O15203   6.069   4.039   5.075 -0.0990  0.5868 -0.6276
  854MOL0     C15204   6.396   4.183   5.065 -0.2366  0.0063  0.0699
  854MOL0     C15205   6.522   4.172   5.118  0.1385  0.3983  0.0308
  854MOL0     N15206   7.251   3.856   5.227 -0.0778  0.7572  0.1898
  854MOL0     N15207   7.291   3.753   5.158 -0.5385 -0.2341 -0.1841
  854MOL0     C15208   7.952   2.931   4.806  0.0515 -0.8436  0.1151
  854MOL0     C15209   8.071   2.931   4.738 -0.5648 -0.0348  0.6403
  854MOL0     C15210   8.512   2.806   4.649  0.0390 -0.7671 -0.5653
  854MOL0     C15211   8.590   2.909   4.696 -0.5037  0.3415  0.4348
  854MOL0     C15212   8.730   2.926   4.657 -0.3345 -0.3566  0.5015
  854MOL0     C15213   8.788   2.828   4.571 -0.0740  0.9475  0.2963
  854MOL0     O15214   8.916   2.828   4.522 -0.1568 -0.0403  0.2434
  854MOL0     C15215   9.008   2.922   4.575  0.1080 -0.7453  0.6344
  854MOL0     C15216   9.130   2.942   4.488 -0.2355  0.2201  0.1669
  854MOL0     C15217   9.218   3.054   4.547 -0.6405  0.0162  0.2127
  854MOL0     C15218   9.339   3.006   4.628 -0.2832 -0.3325  0.0369
  854MOL0     C15219   9.318   2.910   4.739  0.0179  0.1899 -0.6854
  854MOL0     C15220   9.293   2.823   4.822  0.0379  0.4089 -0.9016
  854MOL0     C15221   8.718   2.711   4.543 -0.5519  0.0296 -0.4252
  854MOL0     C15222   8.583   2.704   4.584  0.1254 -0.0905  0.2470
  854MOL0     H15223   8.267   2.814   4.986  0.6066 -3.9565 -1.3486
  854MOL0     H15224   8.052   2.829   5.115  3.1180 -0.3303 -0.6029
  854MOL0     H15225   7.871   2.967   5.205  0.4668  0.3200  0.0125
  854MOL0     H15226   7.895   3.109   5.101  0.6918 -0.3633  0.5353
  854MOL0     H15227   7.619   3.000   5.154  1.2115 -1.5200  0.6231
  854MOL0     H15228   7.699   3.126   5.250 -2.9526  0.7960 -1.7173
  854MOL0     H15229   7.742   3.266   5.055 -2.2666  1.6652 -0.9826
  854MOL0     H15230   7.649   3.146   4.962  1.9517 -0.1908 -1.0152
  854MOL0     H15231   7.458   3.210   5.090 -0.6372  1.4001 -1.8294
  854MOL0     H15232   7.562   3.316   5.199  3.2024  1.4964 -0.4707
  854MOL0     H15233   7.619   3.449   5.020  0.7209 -2.3338  2.3670
  854MOL0     H15234   7.525   3.336   4.912  0.4928 -0.7648  1.8014
  854MOL0     H15235   7.311   3.429   4.978  2.0076 -2.5035 -0.7447
  854MOL0     H15236   7.376   3.511   5.123 -1.2575  0.8327 -0.3399
  854MOL0     H15237   7.514   3.655   4.968  1.8308 -1.4794 -1.7260
  854MOL0     H15238   7.453   3.566   4.828  0.1093 -0.6704  0.7174
  854MOL0     H15239   7.218   3.654   4.867 -1.1514  1.7738  2.7035
  854MOL0     H15240   7.334   3.778   4.821  2.3315  2.2392  1.7311
  854MOL0     H15241   7.184   3.958   4.914 -1.9788  0.9537  0.5401
  854MOL0     H15242   7.159   4.117   5.259 -0.4736  0.5092  0.4798
  854MOL0     H15243   7.151   4.147   5.086 -1.9611  1.2693  0.2118
  854MOL0     H15244   6.931   4.034   5.080 -1.7695  2.1272 -1.0459
  854MOL0     H15245   6.950   4.171   5.201  0.2123 -0.9431  0.5126
  854MOL0     H15246   6.922   4.012   5.379 -0.1675 -2.5580  0.2747
  854MOL0     H15247   6.990   3.878   5.287  2.7857  1.0329  4.2160
  854MOL0     H15248   6.735   3.871   5.328  1.9889  0.2619  1.4260
  854MOL0     H15249   6.767   3.866   5.165 -4.9184 -1.0116  0.4257
  854MOL0     H15250   6.517   3.848   5.204 -1.5299 -1.6662  0.7822
  854MOL0     H15251   6.334   3.753   5.092  0.1400  0.8988  1.1412
  854MOL0     H15252   6.213   3.816   5.195  2.1032  0.4591  1.4858
  854MOL0     H15253   6.202   3.847   5.016  0.3371  0.9463 -0.8934
  854MOL0     H15254   5.915   4.231   5.093  3.0114  2.9099  1.3689
  854MOL0     H15255   5.710   4.336   5.019 -0.2964  0.7564 -1.4979
  854MOL0     H15256   5.540   4.383   4.904  4.4233 -1.4077  0.8045
  854MOL0     H15257   5.599   4.554   4.902 -0.6051 -1.4682  0.0472
  854MOL0     H15258   5.374   4.573   4.815  0.7967  2.1055 -1.9305
  854MOL0     H15259   5.492   4.618   4.712  2.5621 -0.1271  0.5776
  854MOL0     H15260   5.346   4.347   4.700  0.5835 -0.5295  1.1040
  854MOL0     H15261   5.465   4.401   4.585 -0.6281 -0.5371 -1.2951
  854MOL0     H15262   5.320   4.601   4.531  1.0511  1.1494  3.7020
  854MOL0     H15263   5.249   4.449   4.483  1.3048 -1.1493  0.8383
  854MOL0     H15264   5.180   4.632   4.722 -2.7787  2.9220 -1.1090
  854MOL0     H15265   5.106   4.471   4.702  2.3911 -0.9040  0.4970
  854MOL0     H15266   5.123   4.702   4.503 -1.2651  0.6353 -1.7378
  854MOL0     H15267   5.044   4.553   4.464  0.7311 -1.5238 -0.4462
  854MOL0     H15268   4.967   4.726   4.707  0.5543  0.0107 -0.2231
  854MOL0     H15269   4.868   4.598   4.630 -1.3201  0.6512 -1.2972
  854MOL0     H15270   4.847   4.730   4.426  2.7749 -0.9664 -1.2449
  854MOL0     H15271   4.962   4.843   4.472 -1.0436 -0.8012 -3.5446
  854MOL0     H15272   5.885   4.383   4.623  0.6331 -3.6539 -0.3915
  854MOL0     H15273   6.091   4.296   4.711  0.5568  2.0971 -0.0524
  854MOL0     H15274   6.382   4.274   5.007  2.0057 -0.6750 -1.7161
  854MOL0     H15275   6.589   4.258   5.123  0.9121 -0.2162  0.4330
  854MOL0     H15276   7.869   2.961   4.742  1.2424  0.7139 -0.7770
  854MOL0     H15277   8.068   2.949   4.631 -0.1140 -1.5459  0.3480
  854MOL0     H15278   8.557   2.980   4.772 -1.7034 -0.3023  0.5269
  854MOL0     H15279   8.774   3.019   4.691 -2.3302  0.5681  0.6723
  854MOL0     H15280   8.958   3.019   4.578 -2.0536 -1.6528 -1.8018
  854MOL0     H15281   9.036   2.893   4.677  2.1144  0.7353  0.5548
  854MOL0     H15282   9.109   2.966   4.383  1.3505  0.0668 -0.2095
  854MOL0     H15283   9.184   2.847   4.485  0.1434  0.3390  2.1799
  854MOL0     H15284   9.169   3.132   4.606 -2.2708  0.2296 -1.3215
  854MOL0     H15285   9.265   3.115   4.469 -1.6642  0.1032 -0.3601
  854MOL0     H15286   9.374   3.097   4.678 -0.1804 -2.5910  4.5437
  854MOL0     H15287   9.418   2.988   4.554 -1.5119 -1.8657 -0.9658
  854MOL0     H15288   9.292   2.745   4.895  1.5975 -1.4340 -2.7362
  854MOL0     H15289   8.774   2.628   4.502 -0.4600  0.0188 -0.2788
  854MOL0     H15290   8.524   2.615   4.565  0.4684 -0.3913  0.5556
  855MOL0     O15291   9.283   1.342   4.400  0.0888  0.5150 -0.1747
  855MOL0     C15292   9.193   1.401   4.342 -0.6734  0.4358 -0.1279
  855MOL0     O15293   9.077   1.338   4.290  0.5568 -0.2263  0.0981
  855MOL0     C15294   9.029   1.216   4.324 -1.0020 -0.2179 -0.6602
  855MOL0     C15295   9.110   1.096   4.344 -0.3333 -0.1492 -0.1655
  855MOL0     C15296   9.049   0.975   4.377  0.9176  0.4458  0.4559
  855MOL0     C15297   8.913   0.974   4.420 -0.3932 -0.1007  0.1810
  855MOL0     O15298   8.853   0.853   4.457  0.0755  0.1618  0.0648
  855MOL0     C15299   8.937   0.739   4.488  0.1043  0.4030  0.5520
  855MOL0     C15300   8.848   0.654   4.584 -0.1211 -0.6058 -0.6230
  855MOL0     C15301   8.708   0.633   4.527 -0.1091 -0.2723  0.0508
  855MOL0     C15302   8.649   0.512   4.605  0.3145 -0.1872  0.7496
  855MOL0     C15303   8.492   0.494   4.590 -0.3674  0.5266  0.2942
  855MOL0     C15304   8.441   0.372   4.665  0.5534 -0.7256  0.0877
  855MOL0     C15305   8.317   0.307   4.605 -0.3262  0.1485  0.4298
  855MOL0     C15306   8.252   0.214   4.708 -0.6550  0.0554  0.2883
  855MOL0     N15307   8.337   0.103   4.748  0.1186  0.5039 -0.2454
  855MOL0     C15308   8.361  -0.007   4.666  0.0195 -0.1876  0.3892
  855MOL0     C15309   8.461  -0.064   4.735  0.3895 -0.0628 -0.7178
  855MOL0     C15310   8.513  -0.194   4.683  0.1744  0.2150 -0.8969
  855MOL0     C15311   8.596  -0.173   4.553  0.4622 -0.1533  0.1794
  855MOL0     C15312   8.682  -0.288   4.511 -0.0143  1.2693  0.5664
  855MOL0     C15313   8.830  -0.300   4.579  0.9223  0.3578 -0.5450
  855MOL0     O15314   8.801  -0.341   4.709 -0.3003  0.6671  0.1934
  855MOL0     C15315   8.907  -0.364   4.796  1.1367 -0.2622 -0.9051
  855MOL0     C15316   8.868  -0.418   4.910 -0.4881 -0.8840  0.5460
  855MOL0     C15317   8.966  -0.455   5.011  0.5468  0.4470 -0.2296
  855MOL0     C15318   8.928  -0.524   5.136 -0.0043 -0.1420  0.0937
  855MOL0     C15319   9.106  -0.424   4.989 -0.3276 -0.6760 -0.4029
  855MOL0     C15320   9.210  -0.474   5.069  0.4433 -0.8615  0.5515
  855MOL0     O15321   9.214  -0.442   5.199  0.7490  0.1307  0.0098
  855MOL0     C15322   9.323  -0.477   5.274  0.4298  0.6608  0.0082
  855MOL0     C15323   9.452  -0.440   5.230 -0.0547  0.3537  0.4816
  855MOL0     C15324   9.566  -0.454   5.311 -0.0330  0.0386  0.2595
  855MOL0     C15325   9.553  -0.496   5.446 -0.5621 -0.2196 -1.2499
  855MOL0     O15326   9.662  -0.490   5.529 -0.2110 -0.6532  0.1396
  855MOL0     C15327   9.756  -0.379   5.521 -0.3421 -0.6511  0.0136
  855MOL0     C15328   9.808  -0.365   5.661  0.3765  0.4861 -0.4426
  855MOL0     C15329   9.934  -0.270   5.682 -0.2336  0.7795  0.3439
  855MOL0     C15330  10.063  -0.355   5.670  1.1908  0.0879 -0.6913
  855MOL0     C15331  10.084  -0.462   5.783  0.3431 -0.5664 -0.3835
  855MOL0     C15332  10.224  -0.500   5.813 -0.6799  0.1313 -0.9796
  855MOL0     C15333  10.243  -0.524   5.965  0.4156  0.6074  0.4101
  855MOL0     C15334  10.155  -0.624   6.034 -0.4133 -0.4311  1.4772
  855MOL0    Cl15335  10.183  -0.765   5.945 -0.0139 -0.1794  0.0091
  855MOL0     C15336   9.426  -0.533   5.482 -0.5312 -0.1159  0.2990
  855MOL0     C15337   9.306  -0.521   5.402 -1.1096 -0.5557 -0.7950
  855MOL0     O15338   9.290  -0.544   5.011  0.4911  0.1781  0.2834
  855MOL0     C15339   9.136  -0.368   4.864  0.2618  0.2819 -0.3582
  855MOL0     C15340   9.039  -0.335   4.768  0.0380  0.3014  0.6651
  855MOL0     N15341   8.501   0.001   4.851  0.1378  0.2408  1.0845
  855MOL0     N15342   8.416   0.097   4.860 -0.2227  0.2802 -0.1073
  855MOL0     C15343   8.839   1.096   4.410 -0.4120 -0.0556  0.4615
  855MOL0     C15344   8.896   1.211   4.356 -0.5283 -0.3573 -0.1923
  855MOL0     C15345   9.212   1.549   4.331 -0.8122  0.2359 -0.0623
  855MOL0     C15346   9.121   1.635   4.287 -0.3318 -0.3932  0.7561
  855MOL0     C15347   9.149   1.774   4.276 -0.3097  0.3282  0.3752
  855MOL0     C15348   9.276   1.825   4.314  1.0413 -0.7489  0.2710
  855MOL0     O15349   9.304   1.953   4.308  0.6157  0.1025 -0.2740
  855MOL0     C15350   9.429   1.996   4.255  0.4163  0.4848 -0.3204
  855MOL0     C15351   9.545   2.019   4.344 -0.3189  0.1354  0.6029
  855MOL0     C15352   9.513   2.114   4.470  0.1245 -0.1968  0.6010
  855MOL0     C15353   9.479   2.264   4.439 -0.1726  0.4561  0.4475
  855MOL0     C15354   9.505   2.334   4.563 -0.0007 -0.0054  0.5600
  855MOL0     C15355   9.503   2.381   4.675 -0.6805  0.0679  0.2665
  855MOL0     C15356   9.368   1.733   4.356  0.0289  0.5457  1.5542
  855MOL0     C15357   9.339   1.601   4.367 -0.1451 -0.1247 -0.7047
  855MOL0     H15358   9.218   1.087   4.334 -0.6536 -4.4170 -1.7676
  855MOL0     H15359   9.104   0.881   4.382 -0.3351 -0.2823  0.7871
  855MOL0     H15360   8.966   0.687   4.396 -1.1158 -0.9818  0.9056
  855MOL0     H15361   9.021   0.769   4.551 -0.5453 -0.2196  1.7676
  855MOL0     H15362   8.909   0.565   4.604  2.5893  1.6033  2.0636
  855MOL0     H15363   8.838   0.704   4.681  1.8310  3.2089 -2.1826
  855MOL0     H15364   8.648   0.722   4.546  0.1790 -0.2359  0.8313
  855MOL0     H15365   8.704   0.603   4.422 -0.5858  1.4402 -0.4405
  855MOL0     H15366   8.699   0.427   4.558  2.4375  0.6786  1.3411
  855MOL0     H15367   8.681   0.514   4.710 -0.9392  0.6205  1.1539
  855MOL0     H15368   8.438   0.579   4.633 -0.1199  0.6339  0.3977
  855MOL0     H15369   8.462   0.491   4.485  1.6681  2.0021 -0.4076
  855MOL0     H15370   8.522   0.298   4.657  2.3464  1.2267 -0.7778
  855MOL0     H15371   8.427   0.396   4.771 -2.0851  3.5159 -0.9858
  855MOL0     H15372   8.245   0.383   4.572 -1.0308 -0.8279 -0.3172
  855MOL0     H15373   8.348   0.245   4.520  3.1470 -1.8294  2.8991
  855MOL0     H15374   8.158   0.175   4.669 -2.0983  4.4555 -1.1896
  855MOL0     H15375   8.216   0.270   4.795 -2.4073 -2.5909  1.3773
  855MOL0     H15376   8.316  -0.034   4.571  0.2694 -0.4427  0.3424
  855MOL0     H15377   8.569  -0.234   4.768 -2.7815 -1.0945  0.5883
  855MOL0     H15378   8.430  -0.264   4.665 -0.7977  0.7885  1.0495
  855MOL0     H15379   8.658  -0.083   4.554  2.0048 -1.1534 -0.8632
  855MOL0     H15380   8.529  -0.156   4.468  0.8810  0.4722 -0.0395
  855MOL0     H15381   8.690  -0.296   4.402 -0.1139 -1.7565  0.6969
  855MOL0     H15382   8.629  -0.379   4.538 -0.0320  1.2406  0.4377
  855MOL0     H15383   8.877  -0.204   4.555  2.0011 -0.7330 -3.1795
  855MOL0     H15384   8.883  -0.386   4.537  1.6903  0.5740 -0.0171
  855MOL0     H15385   8.764  -0.416   4.941 -0.9262  3.0320 -0.6529
  855MOL0     H15386   8.824  -0.559   5.131  0.2685 -0.9338 -0.1961
  855MOL0     H15387   8.990  -0.613   5.151 -0.0788 -0.0293  1.1525
  855MOL0     H15388   8.934  -0.463   5.226 -1.5012  0.0739  0.0774
  855MOL0     H15389   9.469  -0.422   5.124  3.1746 -2.4658  0.3512
  855MOL0     H15390   9.653  -0.424   5.254 -2.7665  3.3702 -2.6005
  855MOL0     H15391   9.836  -0.406   5.451 -0.1206  0.1878 -0.0780
  855MOL0     H15392   9.719  -0.278   5.498  0.0614 -0.0414  1.8691
  855MOL0     H15393   9.725  -0.324   5.721  0.1226 -1.2199  0.4148
  855MOL0     H15394   9.833  -0.463   5.702 -0.5987  0.0532 -0.8570
  855MOL0     H15395   9.931  -0.217   5.778  0.1769 -1.2985  1.5498
  855MOL0     H15396   9.942  -0.201   5.597  2.9634 -2.1274 -1.9965
  855MOL0     H15397  10.077  -0.391   5.568 -1.9210 -2.6555 -0.3091
  855MOL0     H15398  10.145  -0.285   5.689  2.7573 -2.0522  0.9482
  855MOL0     H15399  10.025  -0.552   5.762 -0.3324  0.0094 -0.9667
  855MOL0     H15400  10.039  -0.422   5.874 -0.8373  3.3485 -2.4473
  855MOL0     H15401  10.257  -0.589   5.758  0.1645  0.2210 -0.6306
  855MOL0     H15402  10.285  -0.418   5.773  0.1938 -0.7256 -1.4523
  855MOL0     H15403  10.236  -0.426   6.013 -1.8812  0.1348  1.1801
  855MOL0     H15404  10.341  -0.567   5.983  1.7003  1.6780 -3.0879
  855MOL0     H15405  10.050  -0.595   6.028 -1.4380 -3.4018  3.1711
  855MOL0     H15406  10.193  -0.624   6.137 -2.2788 -2.1626  2.2301
  855MOL0     H15407   9.412  -0.554   5.588 -0.7093  3.3092  1.0771
  855MOL0     H15408   9.214  -0.532   5.459  0.3069 -0.5641  1.6688
  855MOL0     H15409   9.240  -0.343   4.844  0.9666 -0.0828  2.4686
  855MOL0     H15410   9.068  -0.287   4.675 -2.1810 -1.7926 -1.2691
  855MOL0     H15411   8.732   1.094   4.431 -0.1796  0.1159  1.7603
  855MOL0     H15412   8.844   1.306   4.353  0.1107  0.1318  2.1439
  855MOL0     H15413   9.029   1.590   4.250 -2.0045  3.1381  0.2030
  855MOL0     H15414   9.072   1.837   4.233  2.8199  3.4353 -1.2373
  855MOL0     H15415   9.459   1.933   4.170  0.0285  0.8421 -0.7245
  855MOL0     H15416   9.418   2.086   4.194 -0.5716  0.2348 -0.5318
  855MOL0     H15417   9.630   2.072   4.300 -0.8149  2.6318  2.4004
  855MOL0     H15418   9.599   1.928   4.373  1.3394  0.6735 -0.6439
  855MOL0     H15419   9.588   2.110   4.549 -0.1259  1.3707  0.9487
  855MOL0     H15420   9.421   2.072   4.514 -0.4815 -0.9771 -1.2908
  855MOL0     H15421   9.374   2.277   4.412 -0.4512 -3.1388 -0.8705
  855MOL0     H15422   9.534   2.296   4.350 -2.6961  0.2128 -1.3118
  855MOL0     H15423   9.512   2.392   4.781  4.1225  2.4840 -0.1216
  855MOL0     H15424   9.471   1.760   4.373  0.5661  0.2951 -0.8609
  855MOL0     H15425   9.413   1.525   4.391 -0.8728  0.3116  3.5525
  856MOL0     O15426  10.157   4.615   5.913 -0.3222 -0.3890 -0.0177
  856MOL0     C15427  10.185   4.688   6.009  0.1555 -0.1228  0.8554
  856MOL0     O15428  10.110   4.706   6.120 -0.0705 -0.3748 -0.4494
  856MOL0     C15429   9.985   4.648   6.119  0.3840 -0.3106  0.3559
  856MOL0     C15430   9.967   4.510   6.098 -1.0924  0.4053 -0.3182
  856MOL0     C15431   9.838   4.459   6.078 -0.3639  0.5771 -0.1831
  856MOL0     C15432   9.734   4.535   6.102  1.2020 -0.0725 -0.5757
  856MOL0     O15433   9.616   4.472   6.101  0.1502  0.2275  0.0054
  856MOL0     C15434   9.500   4.550   6.127  0.0537 -0.1806 -0.3280
  856MOL0     C15435   9.382   4.467   6.090 -1.0461  0.1698 -0.3277
  856MOL0     C15436   9.257   4.518   6.162  0.4963  0.0741  0.1791
  856MOL0     C15437   9.123   4.460   6.104 -0.0384 -1.0185  0.0268
  856MOL0     C15438   8.997   4.518   6.148 -0.2187  0.0349  1.2944
  856MOL0     C15439   8.879   4.456   6.064 -1.2321 -0.1025  0.4148
  856MOL0     C15440   8.756   4.542   6.059  0.5861 -0.7575  0.0327
  856MOL0     C15441   8.641   4.456   6.012  0.0272 -0.7046 -0.5086
  856MOL0     N15442   8.509   4.516   6.027  0.1364 -0.5629  0.2364
  856MOL0     C15443   8.457   4.614   5.945  0.3653 -0.8611 -0.3884
  856MOL0     C15444   8.332   4.636   5.993  0.4297  0.2073 -0.6082
  856MOL0     C15445   8.233   4.728   5.933  0.1530  0.3444 -0.0063
  856MOL0     C15446   8.098   4.759   6.006  0.2439  0.2949  0.0992
  856MOL0     C15447   8.014   4.884   5.960 -0.7217 -0.5024  0.7310
  856MOL0     C15448   7.886   4.915   6.031  0.7420  0.3981 -0.1156
  856MOL0     O15449   7.833   5.028   5.966  0.5690  0.0898  1.3004
  856MOL0     C15450   7.851   5.156   6.007 -0.3386 -0.5321  0.1522
  856MOL0     C15451   7.757   5.254   5.957  0.2064  0.0545 -0.4260
  856MOL0     C15452   7.751   5.390   6.010  1.1948  0.0314 -1.1140
  856MOL0     C15453   7.632   5.478   5.963  0.2652 -0.1224 -0.4552
  856MOL0     C15454   7.865   5.428   6.088  1.3996 -0.3268 -0.0150
  856MOL0     C15455   7.892   5.574   6.113 -0.6934  0.3598 -0.4308
  856MOL0     O15456   8.022   5.607   6.145 -0.1890 -0.0210 -0.1903
  856MOL0     C15457   8.045   5.738   6.167 -0.8061  0.1002  0.8388
  856MOL0     C15458   7.985   5.816   6.262 -1.2074 -0.4657 -0.1577
  856MOL0     C15459   8.026   5.948   6.283 -0.1676 -0.5838  0.4422
  856MOL0     C15460   8.130   6.004   6.206  0.0777  0.5274 -0.6294
  856MOL0     O15461   8.167   6.138   6.219  0.7601  0.6959  0.1044
  856MOL0     C15462   8.178   6.184   6.351 -0.3073  0.0411  0.1076
  856MOL0     C15463   8.320   6.219   6.371 -0.0427 -0.7446 -0.1700
  856MOL0     C15464   8.436   6.121   6.364  0.1619  0.0326  0.3087
  856MOL0     C15465   8.424   5.999   6.450 -0.7556 -0.8540 -1.2657
  856MOL0     C15466   8.504   5.876   6.434  0.2197 -0.2204 -1.1043
  856MOL0     C15467   8.501   5.819   6.284 -0.3563 -0.9797 -1.0739
  856MOL0     C15468   8.552   5.674   6.290  0.4629 -0.3402 -0.0215
  856MOL0     C15469   8.496   5.602   6.165  0.8610 -1.4945  0.3066
  856MOL0    Cl15470   8.562   5.438   6.120  0.0876 -0.3861  0.1572
  856MOL0     C15471   8.194   5.923   6.110  0.7583 -0.4540 -0.7133
  856MOL0     C15472   8.147   5.793   6.089 -0.9858  0.0918 -0.6413
  856MOL0     O15473   7.804   5.655   6.087 -0.3943 -0.2112  0.1827
  856MOL0     C15474   7.952   5.335   6.135 -0.1365 -0.1541 -0.0363
  856MOL0     C15475   7.948   5.198   6.105  0.8595  0.1223  0.0383
  856MOL0     N15476   8.308   4.552   6.103 -0.1261 -0.2450  0.4657
  856MOL0     N15477   8.416   4.488   6.124  0.1901 -0.2298  0.9244
  856MOL0     C15478   9.745   4.667   6.132 -0.4741  0.8123 -0.1911
  856MOL0     C15479   9.869   4.729   6.135 -0.6697 -0.0990 -1.0202
  856MOL0     C15480  10.306   4.768   6.001  0.0503 -0.2170 -0.1121
  856MOL0     C15481  10.383   4.794   5.888 -0.3891  0.5714 -0.9604
  856MOL0     C15482  10.493   4.866   5.886  0.0327 -0.3230 -1.4350
  856MOL0     C15483  10.533   4.933   6.008  0.9890  0.5537  0.2886
  856MOL0     O15484  10.636   5.021   6.018  0.1392  0.0140  0.8039
  856MOL0     C15485  10.705   5.056   5.896  0.1140  0.3442 -0.2962
  856MOL0     C15486  10.799   5.175   5.921  0.3309 -0.0243 -0.1904
  856MOL0     C15487  10.865   5.235   5.791  0.1278 -0.0441 -0.0233
  856MOL0     C15488  10.953   5.139   5.702  0.4924 -0.4651  0.8627
  856MOL0     C15489  11.054   5.063   5.764 -0.3479  0.4178 -0.2594
  856MOL0     C15490  11.145   4.998   5.813 -0.4349  0.3309 -1.3021
  856MOL0     C15491  10.465   4.907   6.125 -0.6115 -0.1203  0.0748
  856MOL0     C15492  10.352   4.829   6.118  0.1577 -0.0890 -0.8767
  856MOL0     H15493  10.055   4.447   6.083  0.2604  2.1510 -0.0378
  856MOL0     H15494   9.823   4.351   6.070  1.0332  0.5112 -2.9865
  856MOL0     H15495   9.516   4.590   6.228  2.2998 -0.1810 -0.6431
  856MOL0     H15496   9.494   4.642   6.069  0.4105  0.6681  0.9414
  856MOL0     H15497   9.368   4.474   5.981 -0.3124  0.6397 -0.3939
  856MOL0     H15498   9.394   4.360   6.108  2.7670  0.1094 -2.2127
  856MOL0     H15499   9.262   4.493   6.268 -0.9062  2.2048  0.8090
  856MOL0     H15500   9.239   4.626   6.167 -4.4523 -0.5980  2.0428
  856MOL0     H15501   9.139   4.471   5.996 -0.5211  2.7622  0.2191
  856MOL0     H15502   9.128   4.357   6.140  0.3802 -1.5451 -1.4528
  856MOL0     H15503   8.981   4.489   6.252 -3.3407 -2.5540  0.2573
  856MOL0     H15504   8.997   4.625   6.125  1.6448 -0.5852 -2.4067
  856MOL0     H15505   8.923   4.442   5.965  2.9905 -0.5811  2.1413
  856MOL0     H15506   8.858   4.356   6.104 -1.4943  0.5678  2.0017
  856MOL0     H15507   8.745   4.573   6.163  1.5041 -0.6381  0.1037
  856MOL0     H15508   8.774   4.630   5.996 -0.5437  2.5690  3.9656
  856MOL0     H15509   8.638   4.357   6.056  0.3237 -0.4947 -0.0110
  856MOL0     H15510   8.655   4.436   5.905  1.3834 -1.5091 -0.2032
  856MOL0     H15511   8.501   4.655   5.855 -1.1175 -2.7979 -2.1095
  856MOL0     H15512   8.280   4.825   5.915 -0.4116  0.4464 -0.9958
  856MOL0     H15513   8.201   4.691   5.835  6.1712  4.2607 -4.1524
  856MOL0     H15514   8.128   4.791   6.106  1.2234 -0.5722  0.1096
  856MOL0     H15515   8.042   4.664   6.002  2.3109 -0.9593 -0.7815
  856MOL0     H15516   7.996   4.872   5.852 -1.0832  2.4689  0.3786
  856MOL0     H15517   8.084   4.967   5.973 -0.5476 -1.0198  3.7140
  856MOL0     H15518   7.897   4.923   6.139  2.1396  1.6202 -0.3179
  856MOL0     H15519   7.827   4.825   6.015 -1.4670  1.1874  2.7854
  856MOL0     H15520   7.672   5.211   5.906 -1.8375 -2.4739  4.4217
  856MOL0     H15521   7.684   5.539   5.889  1.1472  0.7405  0.8498
  856MOL0     H15522   7.542   5.427   5.926 -0.6783  1.0687  0.1381
  856MOL0     H15523   7.600   5.551   6.037  1.9281 -0.2197  0.4073
  856MOL0     H15524   7.899   5.776   6.316 -1.6962  2.3931  1.4230
  856MOL0     H15525   7.968   6.007   6.354 -0.2086  0.4238 -0.4059
  856MOL0     H15526   8.114   6.272   6.367 -2.4300 -1.4154  0.0108
  856MOL0     H15527   8.140   6.119   6.430 -1.9027  0.4150 -0.3029
  856MOL0     H15528   8.343   6.294   6.294 -1.0569 -1.7302 -1.4819
  856MOL0     H15529   8.332   6.277   6.463 -0.1726 -0.7985 -0.1205
  856MOL0     H15530   8.536   6.159   6.384  0.3822 -2.3144  4.9912
  856MOL0     H15531   8.433   6.091   6.259  1.9622 -0.2030  0.2950
  856MOL0     H15532   8.439   6.050   6.546 -0.3696  0.9725 -2.2579
  856MOL0     H15533   8.321   5.962   6.451 -0.9183 -0.4458 -2.0791
  856MOL0     H15534   8.468   5.803   6.507 -1.3502  0.3065 -1.3182
  856MOL0     H15535   8.608   5.896   6.463 -0.8198  1.0507  2.1879
  856MOL0     H15536   8.402   5.819   6.239 -0.5351  0.5142 -0.7185
  856MOL0     H15537   8.549   5.892   6.217  2.1301 -1.6797 -0.1881
  856MOL0     H15538   8.509   5.622   6.377  2.4498 -3.0004 -0.5189
  856MOL0     H15539   8.661   5.666   6.292  0.4472 -1.0695 -1.1241
  856MOL0     H15540   8.507   5.666   6.077  0.0207 -1.5343  0.1639
  856MOL0     H15541   8.388   5.587   6.176  0.4110  2.0404  1.7998
  856MOL0     H15542   8.274   5.965   6.049  0.9130 -1.2364 -1.0757
  856MOL0     H15543   8.193   5.726   6.016  3.6559 -1.4540  3.1850
  856MOL0     H15544   8.035   5.360   6.200 -0.4410 -1.2274  0.7890
  856MOL0     H15545   8.018   5.128   6.150  2.9956  1.7700 -0.4978
  856MOL0     H15546   9.668   4.738   6.159  1.1411  2.8520 -0.7416
  856MOL0     H15547   9.870   4.833   6.164 -0.0683 -0.4650  0.3495
  856MOL0     H15548  10.358   4.736   5.800  0.7033 -0.7330 -0.4414
  856MOL0     H15549  10.553   4.867   5.796  1.1062 -0.3328 -0.7386
  856MOL0     H15550  10.764   4.973   5.858 -0.7345  0.4802 -1.9628
  856MOL0     H15551  10.631   5.075   5.818 -0.9377  1.3289  0.8958
  856MOL0     H15552  10.874   5.136   5.990  1.0372 -0.5437 -1.2244
  856MOL0     H15553  10.740   5.255   5.967  0.2608 -1.2905  2.0529
  856MOL0     H15554  10.919   5.327   5.815 -0.3908  0.7487 -1.7841
  856MOL0     H15555  10.780   5.270   5.732  1.0821  1.1159 -0.7505
  856MOL0     H15556  11.001   5.196   5.622  0.7420 -0.5444  0.9541
  856MOL0     H15557  10.888   5.065   5.654  0.4817  1.6542 -2.7700
  856MOL0     H15558  11.236   4.956   5.851 -0.9086 -2.0330 -2.6066
  856MOL0     H15559  10.490   4.956   6.219 -0.5767 -0.9007  0.4831
  856MOL0     H15560  10.299   4.814   6.211  2.0910 -0.7695  0.1687
  857MOL0     O15561   5.885   3.711   4.578 -0.2655  0.5312 -0.2507
  857MOL0     C15562   5.932   3.794   4.653 -0.6648  0.7539  0.1102
  857MOL0     O15563   5.862   3.862   4.741  0.7394  0.3645  0.3016
  857MOL0     C15564   5.729   3.879   4.720 -0.5112  0.1502 -0.4032
  857MOL0     C15565   5.627   3.787   4.752  0.1525  0.3330 -0.6235
  857MOL0     C15566   5.492   3.824   4.729  0.7455  0.6459 -1.4670
  857MOL0     C15567   5.456   3.958   4.704 -0.2503  0.8880  1.2633
  857MOL0     O15568   5.320   3.984   4.691  0.0688 -0.1439 -0.6015
  857MOL0     C15569   5.278   4.037   4.566  0.0587 -0.7214 -0.5156
  857MOL0     C15570   5.131   4.088   4.578 -0.1574 -0.1583  0.1979
  857MOL0     C15571   5.076   4.095   4.437 -0.4257  0.5666 -0.6856
  857MOL0     C15572   5.115   4.223   4.364  0.7943  0.0742 -0.4036
  857MOL0     C15573   5.140   4.193   4.215 -0.3518  0.1947  0.0633
  857MOL0     C15574   5.034   4.117   4.139  0.1990  0.3559  0.8574
  857MOL0     C15575   5.066   4.125   3.984 -0.0840 -0.5364 -0.5101
  857MOL0     C15576   4.957   4.075   3.889 -0.3638  0.8063 -0.9814
  857MOL0     N15577   4.872   4.185   3.859  0.3254  0.5791  0.3699
  857MOL0     C15578   4.761   4.221   3.929 -0.3309 -0.1155  0.6253
  857MOL0     C15579   4.690   4.306   3.857  0.9030  0.4548  0.4897
  857MOL0     C15580   4.555   4.352   3.896 -0.6400  0.2642  0.1565
  857MOL0     C15581   4.436   4.281   3.829 -0.3218 -0.7240 -1.1096
  857MOL0     C15582   4.301   4.346   3.887 -1.0678 -0.7111 -0.0274
  857MOL0     C15583   4.166   4.299   3.844  0.7290  1.1508 -0.0485
  857MOL0     O15584   4.150   4.323   3.698 -0.3465  0.0310 -0.5296
  857MOL0     C15585   4.038   4.267   3.634 -0.0072 -0.4237  0.1974
  857MOL0     C15586   4.021   4.282   3.497 -0.1360 -0.2809  0.7970
  857MOL0     C15587   3.909   4.224   3.419  0.3021  0.3689 -0.1583
  857MOL0     C15588   3.881   4.274   3.278  0.7299 -0.2615 -0.1575
  857MOL0     C15589   3.831   4.127   3.486  0.0519 -0.2687 -0.4857
  857MOL0     C15590   3.724   4.043   3.432  0.4949  0.0946  0.0858
  857MOL0     O15591   3.665   3.958   3.524 -0.3940  0.4068  1.0949
  857MOL0     C15592   3.548   3.888   3.492 -0.1589  0.0260 -0.4704
  857MOL0     C15593   3.438   3.931   3.418 -0.5515  0.1950 -0.4281
  857MOL0     C15594   3.331   3.849   3.387  0.1460 -1.2493 -0.0307
  857MOL0     C15595   3.329   3.714   3.440  0.7844 -0.4276  1.1506
  857MOL0     O15596   3.219   3.625   3.437 -0.3910  0.4513  0.4984
  857MOL0     C15597   3.090   3.659   3.404  0.6560 -0.0464  0.2833
  857MOL0     C15598   3.000   3.530   3.415 -0.4680  0.1446 -0.3234
  857MOL0     C15599   2.940   3.499   3.551 -0.0888 -0.7752 -0.2582
  857MOL0     C15600   2.872   3.363   3.555  0.0622 -0.3937 -0.4588
  857MOL0     C15601   2.981   3.251   3.575  0.5351  0.0640  0.7795
  857MOL0     C15602   3.046   3.244   3.718  0.3791 -0.6614  0.5093
  857MOL0     C15603   3.193   3.203   3.696  0.0006 -1.3516  0.5607
  857MOL0     C15604   3.272   3.331   3.675  0.6192  0.4752  0.9631
  857MOL0    Cl15605   3.317   3.385   3.833  0.5608 -0.2075 -0.3955
  857MOL0     C15606   3.450   3.677   3.501  0.3096 -0.7951 -0.4252
  857MOL0     C15607   3.548   3.760   3.535  0.9277 -0.3729  0.8306
  857MOL0     O15608   3.688   4.053   3.314 -0.2718  0.1641  0.6404
  857MOL0     C15609   3.853   4.114   3.627  0.0752 -0.5230 -0.9378
  857MOL0     C15610   3.946   4.192   3.698 -0.6984 -0.4620  0.2588
  857MOL0     N15611   4.754   4.325   3.730  1.0205 -0.4210 -0.0066
  857MOL0     N15612   4.861   4.250   3.734  0.0873  0.4948 -0.8295
  857MOL0     C15613   5.556   4.045   4.679 -0.3251  0.0176 -0.8949
  857MOL0     C15614   5.691   4.011   4.688 -0.3163 -0.4742 -0.1299
  857MOL0     C15615   6.081   3.812   4.660  0.3708 -0.3387 -0.0475
  857MOL0     C15616   6.144   3.931   4.711  0.3480 -0.1882 -1.0178
  857MOL0     C15617   6.284   3.947   4.709  0.1649 -0.1139 -0.4815
  857MOL0     C15618   6.364   3.834   4.679 -0.0366 -0.2435 -0.0952
  857MOL0     O15619   6.495   3.829   4.676  0.2855  0.4046 -0.1712
  857MOL0     C15620   6.556   3.874   4.799  0.0289 -0.1164 -0.6078
  857MOL0     C15621   6.704   3.836   4.819  0.2906 -0.2466  0.8665
  857MOL0     C15622   6.724   3.688   4.833  0.0457  0.4177  0.0998
  857MOL0     C15623   6.877   3.667   4.841 -0.4467  0.4326  1.1290
  857MOL0     C15624   6.921   3.543   4.906  0.1564  0.0810  0.9095
  857MOL0     C15625   6.948   3.442   4.962 -0.1700 -0.8956 -0.1504
  857MOL0     C15626   6.296   3.719   4.634 -0.3991  0.2890  0.2131
  857MOL0     C15627   6.159   3.703   4.620  0.1764  0.4199  1.5239
  857MOL0     H15628   5.651   3.684   4.773 -1.7980 -0.0076  0.0937
  857MOL0     H15629   5.410   3.753   4.741  0.7214  0.3808 -3.0538
  857MOL0     H15630   5.344   4.119   4.536  1.1381 -1.8514 -1.3783
  857MOL0     H15631   5.290   3.960   4.489  2.5355 -1.4517  0.5104
  857MOL0     H15632   5.071   4.013   4.630  0.7293 -1.6898 -0.9174
  857MOL0     H15633   5.113   4.181   4.633 -3.9153 -0.9291  0.5167
  857MOL0     H15634   5.105   4.003   4.386 -1.8354  0.9497 -2.2342
  857MOL0     H15635   4.967   4.100   4.446 -0.6856  0.2876 -3.1343
  857MOL0     H15636   5.038   4.301   4.358  1.5349  1.0226  1.6719
  857MOL0     H15637   5.209   4.263   4.402 -0.0968  0.8263  1.0953
  857MOL0     H15638   5.155   4.292   4.173  2.9950  1.8185  4.2830
  857MOL0     H15639   5.235   4.137   4.211  0.1898  0.6759  3.1659
  857MOL0     H15640   5.032   4.011   4.164 -0.3553  0.4695  1.3387
  857MOL0     H15641   4.945   4.170   4.173  1.4828  2.4488  1.1071
  857MOL0     H15642   5.091   4.223   3.944 -2.8665 -0.6984 -2.9964
  857MOL0     H15643   5.155   4.064   3.966  0.5918 -0.1648  1.3632
  857MOL0     H15644   4.903   3.993   3.937  1.1937  0.7564  0.8147
  857MOL0     H15645   5.005   4.034   3.800 -0.7257  0.4509 -1.0175
  857MOL0     H15646   4.715   4.177   4.017  0.7497 -0.9758  0.7826
  857MOL0     H15647   4.546   4.336   4.004  0.4372 -0.3790  0.1764
  857MOL0     H15648   4.561   4.458   3.872 -0.8175  0.6250  1.6329
  857MOL0     H15649   4.436   4.177   3.862  2.7800 -0.5978 -0.3957
  857MOL0     H15650   4.439   4.288   3.720  1.8807 -1.2375 -1.1357
  857MOL0     H15651   4.307   4.455   3.894 -3.3755 -0.6502  2.6329
  857MOL0     H15652   4.307   4.325   3.994  0.0190 -0.7508 -0.0824
  857MOL0     H15653   4.094   4.353   3.905 -0.3500  0.5222 -0.7310
  857MOL0     H15654   4.163   4.191   3.864  1.0168  1.2998  0.8100
  857MOL0     H15655   4.095   4.340   3.443  1.0503 -0.2866  2.3551
  857MOL0     H15656   3.950   4.242   3.200 -0.3592 -0.1132 -1.2024
  857MOL0     H15657   3.776   4.263   3.249 -1.2188  0.1662  5.4365
  857MOL0     H15658   3.890   4.380   3.303 -0.9725 -0.5339  1.9501
  857MOL0     H15659   3.453   4.032   3.383 -1.7233 -0.1009 -1.8921
  857MOL0     H15660   3.242   3.895   3.344 -1.0876 -1.8701  1.7491
  857MOL0     H15661   3.046   3.734   3.471  4.6767  1.8515  1.0800
  857MOL0     H15662   3.085   3.702   3.304 -3.2240  1.5606  0.9783
  857MOL0     H15663   2.926   3.551   3.337  0.4185  0.5263 -1.0829
  857MOL0     H15664   3.075   3.453   3.393  0.7246 -0.1040  3.7505
  857MOL0     H15665   2.863   3.576   3.565 -0.7405 -0.9217 -2.6675
  857MOL0     H15666   3.020   3.505   3.626  0.0352  0.8172 -0.4865
  857MOL0     H15667   2.802   3.363   3.639  0.1910  1.1284 -0.3221
  857MOL0     H15668   2.814   3.344   3.464  0.5545 -0.8908 -0.6782
  857MOL0     H15669   3.051   3.258   3.491  0.7661  2.0634  1.0731
  857MOL0     H15670   2.941   3.150   3.564 -5.9826  2.3376 -1.1551
  857MOL0     H15671   3.026   3.335   3.774 -0.8212  0.5498 -1.7569
  857MOL0     H15672   2.990   3.168   3.773  1.0049 -0.7519  1.0418
  857MOL0     H15673   3.210   3.143   3.606  0.7051 -0.0528 -0.1981
  857MOL0     H15674   3.235   3.141   3.777  0.0643  0.5758  2.0717
  857MOL0     H15675   3.223   3.413   3.622  1.0061  0.3583  0.4219
  857MOL0     H15676   3.355   3.305   3.609  1.0668  2.1663  0.8266
  857MOL0     H15677   3.452   3.571   3.527  1.8959 -0.6779  0.0219
  857MOL0     H15678   3.637   3.722   3.585  2.1565  2.1949  0.7594
  857MOL0     H15679   3.778   4.070   3.691  1.7654 -0.2095  1.4017
  857MOL0     H15680   3.947   4.181   3.805  2.0885  0.5453  0.4165
  857MOL0     H15681   5.520   4.142   4.649  1.5442  0.3797 -2.1781
  857MOL0     H15682   5.759   4.090   4.658 -3.0834  1.2057 -2.4645
  857MOL0     H15683   6.080   4.011   4.745  2.5566  0.7254  1.3588
  857MOL0     H15684   6.337   4.037   4.739 -1.2158  0.4353  0.4447
  857MOL0     H15685   6.537   3.981   4.804  1.2093  0.0560  0.7442
  857MOL0     H15686   6.499   3.825   4.879  1.0195 -2.7523 -1.3993
  857MOL0     H15687   6.745   3.895   4.901 -0.7232  0.4486  0.8897
  857MOL0     H15688   6.766   3.870   4.735  0.5366  0.7879  1.4432
  857MOL0     H15689   6.680   3.622   4.758  2.5062 -1.5807  0.2850
  857MOL0     H15690   6.684   3.670   4.933 -2.0814 -3.8198 -1.3026
  857MOL0     H15691   6.932   3.741   4.901  1.0570 -1.9053  2.7845
  857MOL0     H15692   6.916   3.661   4.739  0.4875 -0.9558  1.5481
  857MOL0     H15693   6.969   3.352   5.015 -0.7175  0.4009  2.4191
  857MOL0     H15694   6.362   3.640   4.602 -0.4448  0.2317  0.2599
  857MOL0     H15695   6.121   3.618   4.562  2.8934  0.3404 -0.3192
  858MOL0     O15696   8.499  11.011   5.449 -0.3611 -0.0169 -0.2231
  858MOL0     C15697   8.616  11.055   5.432 -1.1663 -0.1201  0.3633
  858MOL0     O15698   8.673  11.093   5.311 -0.5181  0.0498  0.0072
  858MOL0     C15699   8.581  11.090   5.207  0.0207  0.0342  0.1991
  858MOL0     C15700   8.519  11.198   5.164 -0.3892  0.3605 -0.6174
  858MOL0     C15701   8.420  11.196   5.070  0.1746 -0.6057  0.2180
  858MOL0     C15702   8.384  11.075   5.005  0.1241  0.9415  0.1164
  858MOL0     O15703   8.291  11.067   4.907 -0.5046  1.0285 -0.4902
  858MOL0     C15704   8.173  11.145   4.940  0.2746 -0.3079  1.0707
  858MOL0     C15705   8.046  11.103   4.864 -0.0878 -0.7843  0.5547
  858MOL0     C15706   8.068  11.079   4.711  0.1398 -0.6114 -1.0931
  858MOL0     C15707   7.958  11.136   4.619  0.1285 -1.4158  0.2259
  858MOL0     C15708   7.923  11.031   4.512 -0.9359 -0.0801  0.1559
  858MOL0     C15709   7.819  10.922   4.554  0.1445 -0.1957 -0.1300
  858MOL0     C15710   7.869  10.785   4.521 -0.1291  0.2701  0.4205
  858MOL0     C15711   7.756  10.676   4.526 -0.7647 -0.1965 -0.4955
  858MOL0     N15712   7.800  10.541   4.469 -0.0963 -0.2517 -0.8742
  858MOL0     C15713   7.875  10.521   4.357 -0.7727  0.1919 -0.2855
  858MOL0     C15714   7.875  10.384   4.356  0.5564  0.1453 -0.1593
  858MOL0     C15715   7.933  10.300   4.248  0.0673  1.0068 -0.4537
  858MOL0     C15716   8.077  10.267   4.275  0.5491 -0.5745  0.4216
  858MOL0     C15717   8.141  10.181   4.170 -0.5668 -0.1921  0.3178
  858MOL0     C15718   8.294  10.178   4.175 -0.3746  0.5782  0.0545
  858MOL0     O15719   8.333  10.192   4.311  0.0468  0.1734  0.4808
  858MOL0     C15720   8.464  10.216   4.334  0.2361  1.0739  0.1410
  858MOL0     C15721   8.500  10.233   4.468 -0.5656 -0.0448 -0.5866
  858MOL0     C15722   8.640  10.227   4.500  0.0601  0.1803  1.1098
  858MOL0     C15723   8.669  10.242   4.644 -0.9242  0.1977 -0.2214
  858MOL0     C15724   8.746  10.229   4.403  0.3013  0.0849  0.1228
  858MOL0     C15725   8.894  10.235   4.432  0.0984  0.3450 -0.3964
  858MOL0     O15726   8.977  10.265   4.324  0.5344 -0.1492 -0.6004
  858MOL0     C15727   9.105  10.266   4.356 -0.3489  0.2123 -0.0017
  858MOL0     C15728   9.187  10.163   4.412 -0.4999  0.7225  0.7134
  858MOL0     C15729   9.324  10.186   4.415 -0.4768  0.4439  0.5428
  858MOL0     C15730   9.389  10.304   4.367 -0.6402  0.2130  0.4282
  858MOL0     O15731   9.522  10.339   4.380 -0.4644 -0.2715  0.0249
  858MOL0     C15732   9.550  10.354   4.524  0.6364 -0.3241  0.1630
  858MOL0     C15733   9.698  10.350   4.551 -0.2524 -0.0298  0.1135
  858MOL0     C15734   9.781  10.460   4.504 -0.1827 -0.6042  0.6662
  858MOL0     C15735   9.929  10.411   4.484 -0.8907  0.6839 -0.7478
  858MOL0     C15736  10.030  10.518   4.432  1.9232  0.1217  0.0794
  858MOL0     C15737  10.050  10.639   4.519  0.9575 -0.3964  1.2193
  858MOL0     C15738  10.122  10.614   4.657  0.1843  0.2766 -0.0427
  858MOL0     C15739  10.023  10.638   4.766  0.1572 -0.5075 -0.0687
  858MOL0    Cl15740  10.119  10.612   4.912 -0.3327  0.1037 -0.3810
  858MOL0     C15741   9.308  10.395   4.304 -0.9042  0.1272 -0.8705
  858MOL0     C15742   9.168  10.378   4.298  0.2280  0.3830 -0.0238
  858MOL0     O15743   8.935  10.195   4.543 -0.7905 -0.8597  0.6192
  858MOL0     C15744   8.702  10.234   4.270  0.3401  0.1354 -0.5554
  858MOL0     C15745   8.566  10.216   4.237 -0.1962  0.0647 -0.0653
  858MOL0     N15746   7.802  10.328   4.458  0.2141 -0.6854 -0.0495
  858MOL0     N15747   7.764  10.428   4.534 -0.1911  0.7940  0.1316
  858MOL0     C15748   8.449  10.956   5.037  0.2551  0.3133 -0.2799
  858MOL0     C15749   8.541  10.966   5.141  0.1323 -0.2603 -1.2947
  858MOL0     C15750   8.713  11.053   5.546 -0.0434  0.5882  0.5692
  858MOL0     C15751   8.670  11.048   5.682  0.2089 -0.8132  0.1363
  858MOL0     C15752   8.763  11.051   5.787  0.4047  0.6515 -0.2435
  858MOL0     C15753   8.902  11.052   5.764  0.8589  0.1168  0.6203
  858MOL0     O15754   8.991  11.059   5.865  0.5530  0.2513  0.5095
  858MOL0     C15755   9.130  11.003   5.840 -0.0928  0.1300 -0.0867
  858MOL0     C15756   9.191  10.967   5.979 -0.7391  0.5780  0.0022
  858MOL0     C15757   9.227  11.081   6.060 -0.2285 -1.2734  0.5887
  858MOL0     C15758   9.345  11.158   5.999  0.1617 -0.1979 -0.7119
  858MOL0     C15759   9.459  11.085   5.942  0.3895 -0.2575  0.3969
  858MOL0     C15760   9.527  11.000   5.884 -0.3428  0.0497  0.1265
  858MOL0     C15761   8.943  11.058   5.632  0.6281 -0.4343  0.0097
  858MOL0     C15762   8.852  11.064   5.523 -1.1096  0.9515  0.1730
  858MOL0     H15763   8.535  11.295   5.212 -0.0080  0.9886 -1.9799
  858MOL0     H15764   8.376  11.295   5.058  1.8984  0.0377 -1.3257
  858MOL0     H15765   8.142  11.139   5.044 -1.4865  1.8629  0.7611
  858MOL0     H15766   8.188  11.253   4.928 -2.9335  0.3621  2.0832
  858MOL0     H15767   8.008  11.018   4.921 -0.3058 -0.2214  1.2687
  858MOL0     H15768   7.983  11.189   4.887  1.7416  0.1530  2.4479
  858MOL0     H15769   8.168  11.094   4.670  0.1739 -0.8072 -1.0831
  858MOL0     H15770   8.074  10.970   4.700  0.2257 -1.0183  2.1076
  858MOL0     H15771   7.866  11.153   4.676  0.4984  4.1364 -0.2807
  858MOL0     H15772   8.000  11.223   4.566  1.8770 -2.4716 -0.2181
  858MOL0     H15773   7.870  11.088   4.435 -1.4552 -0.9459 -0.1358
  858MOL0     H15774   8.017  11.000   4.465 -1.8159 -2.4636 -0.1856
  858MOL0     H15775   7.796  10.920   4.661 -0.9010  1.4307 -0.2932
  858MOL0     H15776   7.731  10.947   4.494  0.2022 -0.8893 -0.5239
  858MOL0     H15777   7.918  10.790   4.423 -0.6968  1.6898  0.1867
  858MOL0     H15778   7.936  10.759   4.602  0.5954  0.0163 -0.2502
  858MOL0     H15779   7.668  10.707   4.468 -2.4420 -3.7499 -0.1123
  858MOL0     H15780   7.738  10.653   4.631  6.4964 -0.2692  1.2340
  858MOL0     H15781   7.914  10.601   4.295  0.6980 -0.5769 -0.4028
  858MOL0     H15782   7.880  10.206   4.231  0.3312  1.2116 -2.6678
  858MOL0     H15783   7.917  10.335   4.146 -0.5622 -0.2293 -0.7890
  858MOL0     H15784   8.092  10.212   4.369  1.0602 -1.7580 -0.3240
  858MOL0     H15785   8.136  10.358   4.281  0.4786 -0.5963  1.8600
  858MOL0     H15786   8.104  10.226   4.078  2.1402  4.6202  1.2296
  858MOL0     H15787   8.109  10.079   4.194 -0.4287 -0.0794  0.9860
  858MOL0     H15788   8.316  10.259   4.104 -2.9648  1.3232  0.0213
  858MOL0     H15789   8.334  10.086   4.132 -0.9904 -0.1686  1.0561
  858MOL0     H15790   8.422  10.254   4.541  1.5606 -0.9081  2.1480
  858MOL0     H15791   8.722  10.150   4.672 -0.7765  0.7230  1.3247
  858MOL0     H15792   8.739  10.325   4.649 -1.4211  0.6434 -0.5172
  858MOL0     H15793   8.583  10.254   4.711  0.2545  0.8529  1.2212
  858MOL0     H15794   9.142  10.068   4.437 -0.9751 -0.3525 -3.5129
  858MOL0     H15795   9.384  10.107   4.459 -0.0538 -0.9446 -2.2840
  858MOL0     H15796   9.518  10.454   4.553  6.0309  1.5660  0.7952
  858MOL0     H15797   9.496  10.279   4.583 -0.9180 -0.3696 -1.2461
  858MOL0     H15798   9.711  10.343   4.660  0.1160  1.2909  0.1722
  858MOL0     H15799   9.737  10.263   4.497 -2.0496 -0.0889 -1.1581
  858MOL0     H15800   9.777  10.544   4.575  0.9528  0.6166 -0.6525
  858MOL0     H15801   9.740  10.495   4.409  0.4872 -2.4306 -0.3508
  858MOL0     H15802   9.970  10.377   4.580  0.0460  1.4340 -0.8598
  858MOL0     H15803   9.937  10.324   4.418  1.0016  2.6669 -3.3965
  858MOL0     H15804   9.997  10.549   4.333 -1.3267  1.2402  1.3795
  858MOL0     H15805  10.129  10.472   4.418  2.5335  1.0534  1.1216
  858MOL0     H15806  10.111  10.715   4.468  0.0664  1.8508  3.2854
  858MOL0     H15807   9.955  10.692   4.526  1.9716  1.9404 -0.8887
  858MOL0     H15808  10.201  10.690   4.658  1.3572 -0.9132  1.0660
  858MOL0     H15809  10.162  10.512   4.659 -0.9548 -0.2138 -0.7768
  858MOL0     H15810   9.937  10.570   4.767  1.9120 -2.8648 -0.2970
  858MOL0     H15811   9.985  10.740   4.766 -1.3799 -1.0260  1.9391
  858MOL0     H15812   9.353  10.482   4.257  1.4297  0.0274  1.0251
  858MOL0     H15813   9.113  10.462   4.256  1.0390  2.4766  2.8268
  858MOL0     H15814   8.769  10.241   4.184  0.9553 -0.3636 -0.1240
  858MOL0     H15815   8.527  10.207   4.136  0.5441  1.4289 -0.5081
  858MOL0     H15816   8.425  10.863   4.987 -0.6042  0.3285  0.0944
  858MOL0     H15817   8.597  10.881   5.176  1.7233  0.6051 -1.6491
  858MOL0     H15818   8.563  11.052   5.701 -0.0827 -0.3642 -1.4132
  858MOL0     H15819   8.752  11.053   5.895  2.2106 -1.0479  0.0280
  858MOL0     H15820   9.128  10.907   5.787  1.3949  0.7361 -1.2775
  858MOL0     H15821   9.195  11.071   5.784 -2.6467  3.2453  0.4501
  858MOL0     H15822   9.284  10.909   5.973 -0.3812  1.1952 -0.5313
  858MOL0     H15823   9.117  10.906   6.032 -0.3983  0.0100 -0.1653
  858MOL0     H15824   9.270  11.054   6.156  0.9856 -1.2064  0.0762
  858MOL0     H15825   9.145  11.153   6.063  1.5909  0.9147  0.1527
  858MOL0     H15826   9.371  11.234   6.073 -0.6129  0.6281 -1.2594
  858MOL0     H15827   9.300  11.217   5.919 -0.2478 -0.4198 -0.6520
  858MOL0     H15828   9.587  10.930   5.830  2.8571 -0.7971  4.2487
  858MOL0     H15829   9.049  11.071   5.616  0.3417  4.0110  0.6065
  858MOL0     H15830   8.890  11.085   5.423 -0.7612  0.6544  0.2428
  859MOL0     O15831   3.193   6.208   6.524 -0.0870  0.4057 -0.0026
  859MOL0     C15832   3.147   6.284   6.438  0.6284  0.0743 -0.9757
  859MOL0     O15833   3.211   6.346   6.332 -0.1142  0.2987  0.4942
  859MOL0     C15834   3.350   6.352   6.342 -0.1772  0.2147 -0.2964
  859MOL0     C15835   3.416   6.400   6.458  1.0729  0.0780  0.3540
  859MOL0     C15836   3.556   6.402   6.465 -0.4702  0.7136  0.4757
  859MOL0     C15837   3.639   6.364   6.353 -0.1652 -0.1790 -0.2922
  859MOL0     O15838   3.773   6.373   6.369  0.0177 -0.2885 -0.8688
  859MOL0     C15839   3.838   6.248   6.347  0.2818 -1.0653 -0.8311
  859MOL0     C15840   3.930   6.213   6.469 -0.1014  0.2919  0.7357
  859MOL0     C15841   3.981   6.065   6.458  0.0956 -0.5258 -0.1001
  859MOL0     C15842   4.072   6.028   6.584 -0.7758 -1.0396  1.3463
  859MOL0     C15843   4.018   6.029   6.728 -0.0728 -0.0283  1.1942
  859MOL0     C15844   3.917   5.899   6.746  0.3670 -0.2830  0.3284
  859MOL0     C15845   3.803   5.918   6.844 -0.2062 -0.3494 -0.1356
  859MOL0     C15846   3.845   5.919   6.986 -0.3917 -0.0417  0.2694
  859MOL0     N15847   3.732   5.920   7.087  1.0364  0.0694  0.6013
  859MOL0     C15848   3.636   6.020   7.088  0.6494  0.5417  0.0318
  859MOL0     C15849   3.578   6.003   7.205  0.3793  0.0638  0.2860
  859MOL0     C15850   3.467   6.094   7.242 -0.4377  0.3856  0.1565
  859MOL0     C15851   3.333   6.031   7.193 -0.1821  0.0624  0.4443
  859MOL0     C15852   3.224   6.142   7.200  0.0745 -0.5370  0.3323
  859MOL0     C15853   3.078   6.088   7.151  0.2082  0.3822  0.0262
  859MOL0     O15854   3.082   6.089   7.009 -0.5316  0.1349 -0.1979
  859MOL0     C15855   2.960   6.067   6.946 -1.4294  0.4075  0.2421
  859MOL0     C15856   2.967   6.021   6.814  0.5049 -0.5707 -0.9966
  859MOL0     C15857   2.858   5.998   6.730  0.1464  0.4063 -0.7936
  859MOL0     C15858   2.875   5.978   6.589 -0.7062  0.5868  0.8617
  859MOL0     C15859   2.735   6.022   6.785  0.7450 -0.1116  0.5817
  859MOL0     C15860   2.608   5.995   6.703 -0.1496  0.4190 -0.6536
  859MOL0     O15861   2.612   5.899   6.609 -0.4522  0.0361  0.4041
  859MOL0     C15862   2.521   5.900   6.507  0.1748 -0.2513 -0.2859
  859MOL0     C15863   2.495   6.011   6.434 -0.2694 -0.4942  0.5690
  859MOL0     C15864   2.396   6.025   6.338 -0.1500 -0.4035  0.0827
  859MOL0     C15865   2.320   5.907   6.307 -0.2594 -0.5823 -0.1542
  859MOL0     O15866   2.233   5.907   6.197  0.4712 -0.4744 -0.1042
  859MOL0     C15867   2.097   5.854   6.212 -0.8829  0.4725  0.4067
  859MOL0     C15868   2.064   5.749   6.110 -0.4423 -0.2411  0.1761
  859MOL0     C15869   1.998   5.814   5.984 -0.6780 -0.0638  0.3365
  859MOL0     C15870   2.093   5.919   5.907 -0.0185  0.4671  0.3927
  859MOL0     C15871   2.213   5.854   5.824  0.7485  0.1468 -0.1335
  859MOL0     C15872   2.299   5.969   5.778  0.4753  0.5481 -0.2701
  859MOL0     C15873   2.434   5.920   5.716 -0.4262  0.9434 -0.1437
  859MOL0     C15874   2.532   6.042   5.691 -1.1759 -0.2523  0.3029
  859MOL0    Cl15875   2.467   6.133   5.556  0.0804 -0.0152 -0.1777
  859MOL0     C15876   2.354   5.796   6.383 -0.0263  0.5666  0.4182
  859MOL0     C15877   2.446   5.784   6.484  1.1526  0.2318  0.8463
  859MOL0     O15878   2.508   6.059   6.734 -0.2619  1.1718 -0.7683
  859MOL0     C15879   2.725   6.057   6.923  0.1870  0.0641  1.1580
  859MOL0     C15880   2.835   6.080   6.998  0.1560  0.1365  0.2316
  859MOL0     N15881   3.640   5.906   7.280  0.1180  1.0169  0.1045
  859MOL0     N15882   3.732   5.851   7.203  0.4573  0.6865 -0.6636
  859MOL0     C15883   3.566   6.328   6.238  0.2379  0.2975 -0.8478
  859MOL0     C15884   3.431   6.328   6.226 -0.5502  0.9946 -0.1419
  859MOL0     C15885   3.005   6.314   6.447  0.3191 -0.6565  0.4445
  859MOL0     C15886   2.936   6.291   6.575 -0.7517 -0.2116  0.1503
  859MOL0     C15887   2.808   6.330   6.590  1.2681  0.2498 -0.2125
  859MOL0     C15888   2.731   6.376   6.475 -1.0731 -0.2254 -0.1472
  859MOL0     O15889   2.591   6.408   6.474 -0.4175  0.3673  0.7813
  859MOL0     C15890   2.533   6.402   6.607  0.2079 -0.6863  0.4526
  859MOL0     C15891   2.560   6.527   6.690 -0.0270 -0.4290  0.0073
  859MOL0     C15892   2.511   6.502   6.834 -0.3636  0.1143 -1.0511
  859MOL0     C15893   2.549   6.596   6.941  0.2297 -0.0298  0.4269
  859MOL0     C15894   2.483   6.552   7.063 -0.8258  0.9880  0.6809
  859MOL0     C15895   2.421   6.511   7.156 -0.0710 -0.0825 -0.1116
  859MOL0     C15896   2.795   6.385   6.356  0.3051  0.0579  0.2528
  859MOL0     C15897   2.930   6.365   6.338 -0.1366 -0.7174 -1.0467
  859MOL0     H15898   3.361   6.424   6.548  2.3689  2.8992  0.4754
  859MOL0     H15899   3.610   6.438   6.552  0.2594 -0.1159  0.3790
  859MOL0     H15900   3.781   6.157   6.332  1.8558 -1.9238 -1.9037
  859MOL0     H15901   3.907   6.251   6.262 -0.0437 -1.8056 -1.1233
  859MOL0     H15902   4.005   6.290   6.489  0.3739  0.1648 -0.4972
  859MOL0     H15903   3.868   6.207   6.559  0.5460 -0.6596  1.1483
  859MOL0     H15904   3.890   6.005   6.461  1.4857 -2.7689  0.6696
  859MOL0     H15905   4.032   6.048   6.363 -2.3782 -5.2099 -0.8575
  859MOL0     H15906   4.117   5.933   6.554  3.0092  0.5754  1.2829
  859MOL0     H15907   4.159   6.093   6.599  0.0104 -0.7251 -3.2059
  859MOL0     H15908   4.101   6.029   6.798  0.2147 -0.3174  0.8618
  859MOL0     H15909   3.958   6.120   6.737 -0.1089  0.3609 -1.7379
  859MOL0     H15910   3.866   5.872   6.653 -1.9471 -1.1734  1.7591
  859MOL0     H15911   3.984   5.816   6.771  2.9238  0.3058 -3.6242
  859MOL0     H15912   3.740   6.006   6.834 -2.0849 -0.8650  4.5531
  859MOL0     H15913   3.736   5.833   6.829 -0.1691 -0.0809 -2.0542
  859MOL0     H15914   3.911   6.004   7.007  2.0155 -2.2004  2.2742
  859MOL0     H15915   3.902   5.831   7.020  0.7533  0.9529  1.0398
  859MOL0     H15916   3.612   6.082   7.002 -0.5470  0.1647  0.0811
  859MOL0     H15917   3.462   6.122   7.348  2.8304 -3.3484  1.5436
  859MOL0     H15918   3.487   6.193   7.201 -2.1181  1.9182  2.7181
  859MOL0     H15919   3.309   5.938   7.245  0.0017 -0.3959 -0.2714
  859MOL0     H15920   3.354   6.010   7.088  1.1661 -1.2553  0.9469
  859MOL0     H15921   3.259   6.227   7.141 -1.3473 -0.9580 -1.1972
  859MOL0     H15922   3.218   6.180   7.302  1.6670  3.6695 -0.9264
  859MOL0     H15923   3.001   6.148   7.201 -0.6522 -0.3665 -0.3723
  859MOL0     H15924   3.067   5.988   7.192 -0.9148 -0.1583 -1.5239
  859MOL0     H15925   3.068   5.994   6.785  0.9145 -0.6791  0.4486
  859MOL0     H15926   2.969   6.024   6.556  1.1254 -2.4241  1.5247
  859MOL0     H15927   2.882   5.873   6.559 -0.5631  0.8523 -0.0637
  859MOL0     H15928   2.808   6.031   6.520 -0.4363 -0.0964  0.0470
  859MOL0     H15929   2.553   6.101   6.452  3.2010 -2.6328  0.9980
  859MOL0     H15930   2.369   6.118   6.289 -0.2841 -0.0195  0.8647
  859MOL0     H15931   2.087   5.814   6.314 -0.1708  2.5350  1.3594
  859MOL0     H15932   2.039   5.947   6.207 -0.6448  0.5582 -1.5234
  859MOL0     H15933   2.148   5.680   6.094 -1.6650 -1.4565 -1.4712
  859MOL0     H15934   1.981   5.694   6.156 -1.5464  0.1343 -1.2914
  859MOL0     H15935   1.909   5.866   6.019 -1.8308 -2.0147  0.4211
  859MOL0     H15936   1.975   5.735   5.912  0.7549 -0.8804  0.7255
  859MOL0     H15937   2.030   5.977   5.838  3.2530  2.5917 -1.0428
  859MOL0     H15938   2.139   5.983   5.982 -0.8898  1.0589  0.4434
  859MOL0     H15939   2.170   5.811   5.734  0.5187 -0.4172  0.2382
  859MOL0     H15940   2.262   5.776   5.883  0.7392 -1.2819 -1.9177
  859MOL0     H15941   2.235   6.015   5.702  0.7079  1.2512 -0.0448
  859MOL0     H15942   2.309   6.035   5.864  0.6151 -2.3815  2.1159
  859MOL0     H15943   2.413   5.873   5.620  1.1714  1.0303 -0.5683
  859MOL0     H15944   2.496   5.847   5.769  1.0281  0.4783 -2.3503
  859MOL0     H15945   2.636   6.013   5.677 -1.5397 -0.8851 -1.3893
  859MOL0     H15946   2.543   6.104   5.780  2.3041  1.4337 -1.1577
  859MOL0     H15947   2.292   5.714   6.349 -0.3819 -0.2819  2.9036
  859MOL0     H15948   2.462   5.690   6.535  1.5321 -1.8612 -2.7410
  859MOL0     H15949   2.630   6.089   6.964 -1.4656  1.6744 -3.3509
  859MOL0     H15950   2.805   6.129   7.091  1.2019  0.9845  0.1376
  859MOL0     H15951   3.604   6.314   6.138 -1.1216  4.2119 -2.0879
  859MOL0     H15952   3.377   6.302   6.135  0.5433 -0.9233 -0.2803
  859MOL0     H15953   2.983   6.256   6.667 -1.4901  2.6016  1.7111
  859MOL0     H15954   2.767   6.313   6.689  2.2546  2.4411  0.6155
  859MOL0     H15955   2.424   6.397   6.593  0.0818  1.0710  0.6601
  859MOL0     H15956   2.567   6.312   6.660  3.6680  1.6005  2.4978
  859MOL0     H15957   2.507   6.614   6.649 -0.6071 -1.2451 -1.0460
  859MOL0     H15958   2.665   6.556   6.678 -0.2410 -0.7471 -4.2663
  859MOL0     H15959   2.554   6.414   6.882 -1.3283 -0.5516 -1.3637
  859MOL0     H15960   2.402   6.490   6.835 -0.3179 -0.3301 -1.0853
  859MOL0     H15961   2.518   6.696   6.911 -2.5947 -0.8477  0.2995
  859MOL0     H15962   2.656   6.594   6.962  0.5105  3.3857 -0.1814
  859MOL0     H15963   2.356   6.488   7.238 -0.9805  0.9596 -0.5149
  859MOL0     H15964   2.722   6.395   6.276 -1.5427 -3.4634  1.2694
  859MOL0     H15965   2.985   6.363   6.245  1.5196 -1.9953 -0.0989
  860MOL0     O15966   1.518   2.344   5.010  0.0113  0.6293  0.7221
  860MOL0     C15967   1.591   2.291   5.093 -0.0639 -0.6800  0.3607
  860MOL0     O15968   1.720   2.325   5.119 -0.4202 -0.6249 -0.5316
  860MOL0     C15969   1.798   2.410   5.041  0.3986 -0.3163  0.0229
  860MOL0     C15970   1.929   2.361   5.021 -0.2591  0.0369  0.7872
  860MOL0     C15971   2.008   2.431   4.936  0.3040  0.6713  0.1479
  860MOL0     C15972   1.963   2.545   4.872 -0.4096 -1.0175  0.6450
  860MOL0     O15973   2.047   2.628   4.788 -0.4167  0.2518 -0.3870
  860MOL0     C15974   2.182   2.640   4.841  0.2788 -1.3922  0.0615
  860MOL0     C15975   2.196   2.792   4.891 -0.2834 -0.0140 -0.2668
  860MOL0     C15976   2.102   2.822   5.002  0.5119  0.4379 -0.2112
  860MOL0     C15977   2.128   2.741   5.128 -0.1075  1.6137 -0.7542
  860MOL0     C15978   2.032   2.796   5.248 -0.4572  0.1743  0.6226
  860MOL0     C15979   2.043   2.697   5.361 -0.0617 -0.1113  0.6914
  860MOL0     C15980   1.987   2.554   5.338  0.9171  0.4375 -0.4780
  860MOL0     C15981   1.978   2.493   5.482 -0.4313 -0.8923 -0.4621
  860MOL0     N15982   1.952   2.351   5.477 -0.9822  0.1938 -0.3401
  860MOL0     C15983   2.036   2.259   5.413  0.0964  0.5979  0.7069
  860MOL0     C15984   1.987   2.131   5.446  0.0042 -0.5713  0.3958
  860MOL0     C15985   2.028   1.997   5.389  0.1568 -0.5865 -0.4486
  860MOL0     C15986   1.958   1.974   5.258  0.5434  0.1062  0.5489
  860MOL0     C15987   1.847   1.863   5.279  0.4482 -0.0951  1.3591
  860MOL0     C15988   1.777   1.812   5.147  0.1527  0.5162  0.5857
  860MOL0     O15989   1.848   1.839   5.027 -0.3209 -0.4787 -0.0322
  860MOL0     C15990   1.780   1.789   4.917  0.7787 -0.8377 -0.0559
  860MOL0     C15991   1.814   1.664   4.874  0.6424 -0.1733  0.3613
  860MOL0     C15992   1.766   1.613   4.756  0.0508 -0.4100 -0.2929
  860MOL0     C15993   1.825   1.481   4.715 -0.0770  0.5986 -0.6526
  860MOL0     C15994   1.676   1.690   4.678  0.2934 -0.1110 -0.3859
  860MOL0     C15995   1.623   1.667   4.547 -0.5296  0.2960 -0.5139
  860MOL0     O15996   1.616   1.775   4.454 -0.4459  0.2472  0.0889
  860MOL0     C15997   1.600   1.747   4.325 -0.1511  0.6980  0.0440
  860MOL0     C15998   1.504   1.813   4.263 -0.4239 -0.1942  0.2956
  860MOL0     C15999   1.483   1.792   4.127 -0.7994 -0.1360  0.2924
  860MOL0     C16000   1.555   1.690   4.058 -0.1407 -0.0110  1.1269
  860MOL0     O16001   1.534   1.674   3.925  0.2629  0.6863 -0.6795
  860MOL0     C16002   1.573   1.791   3.853  0.3283  0.2088  0.5909
  860MOL0     C16003   1.511   1.766   3.721 -0.4964  0.1711  0.2898
  860MOL0     C16004   1.490   1.896   3.630  0.7811  1.0431 -0.9904
  860MOL0     C16005   1.491   1.862   3.487  0.2137  0.5269 -0.1481
  860MOL0     C16006   1.445   1.978   3.387 -0.6960 -0.1548 -1.1889
  860MOL0     C16007   1.292   1.962   3.348 -0.3656 -0.2965 -0.4941
  860MOL0     C16008   1.255   2.003   3.201  0.1451 -0.7688 -0.6918
  860MOL0     C16009   1.326   2.138   3.182  0.3792  0.1169  0.0988
  860MOL0    Cl16010   1.235   2.240   3.060 -0.4120  0.4267  0.2069
  860MOL0     C16011   1.641   1.608   4.128 -0.2093 -0.3090 -0.2729
  860MOL0     C16012   1.684   1.645   4.258  0.8148  0.5386 -0.6257
  860MOL0     O16013   1.608   1.550   4.520 -0.0630 -0.1336  0.7981
  860MOL0     C16014   1.645   1.817   4.730  0.0685 -0.2966  0.4227
  860MOL0     C16015   1.685   1.865   4.855  0.4992  0.2353 -0.3709
  860MOL0     N16016   1.882   2.150   5.533 -0.4668 -0.1753 -0.1527
  860MOL0     N16017   1.862   2.280   5.552 -0.3316  0.2619  0.7304
  860MOL0     C16018   1.830   2.588   4.877  0.3050 -0.3684  0.6516
  860MOL0     C16019   1.753   2.526   4.974 -0.4395 -0.5961  0.3133
  860MOL0     C16020   1.526   2.180   5.177 -0.7161 -0.2302  0.6692
  860MOL0     C16021   1.587   2.133   5.294 -0.2450  0.3723  1.0862
  860MOL0     C16022   1.525   2.026   5.361 -0.0109  0.3617 -0.1958
  860MOL0     C16023   1.410   1.969   5.311 -0.2518 -0.3845  0.1515
  860MOL0     O16024   1.357   1.879   5.404 -0.0564 -0.1989 -0.0520
  860MOL0     C16025   1.220   1.823   5.395 -0.0521  0.0977  0.6145
  860MOL0     C16026   1.121   1.888   5.486 -0.3011 -0.0471 -0.4293
  860MOL0     C16027   0.994   1.804   5.512 -1.4647  0.2024  0.1010
  860MOL0     C16028   0.902   1.874   5.609 -0.7431 -0.8004 -0.0247
  860MOL0     C16029   0.790   1.787   5.646 -0.9977  1.6519 -0.4283
  860MOL0     C16030   0.693   1.720   5.691 -0.1578  0.4772 -0.3476
  860MOL0     C16031   1.355   2.013   5.193 -0.0562 -0.4929 -0.1210
  860MOL0     C16032   1.412   2.116   5.124 -0.6988 -0.1648  1.0708
  860MOL0     H16033   1.963   2.270   5.070  2.7427 -0.4460 -1.8383
  860MOL0     H16034   2.110   2.395   4.927  0.4548  1.1337 -0.0294
  860MOL0     H16035   2.215   2.577   4.923  0.6472  1.8258  2.5938
  860MOL0     H16036   2.260   2.631   4.765 -2.4826  0.1902 -3.2279
  860MOL0     H16037   2.301   2.811   4.915  0.2251  1.4181 -3.1801
  860MOL0     H16038   2.179   2.863   4.810 -0.2218 -0.6790 -0.8626
  860MOL0     H16039   2.104   2.929   5.024 -2.2110  0.5738 -0.2947
  860MOL0     H16040   1.998   2.800   4.976  0.5241  3.1505 -3.0617
  860MOL0     H16041   2.113   2.635   5.105  2.6123  0.9205  0.3102
  860MOL0     H16042   2.231   2.768   5.151  0.5681  0.5634 -2.4206
  860MOL0     H16043   2.067   2.897   5.271 -1.3576  1.0389 -1.4780
  860MOL0     H16044   1.929   2.806   5.214 -1.8093 -0.7136  4.0641
  860MOL0     H16045   2.149   2.698   5.388 -0.7015 -0.9068  3.5619
  860MOL0     H16046   1.994   2.746   5.446  1.1189  2.1710  0.1119
  860MOL0     H16047   1.888   2.548   5.291  0.0679  1.9837  1.0214
  860MOL0     H16048   2.061   2.497   5.282 -0.3168 -0.8754 -0.8333
  860MOL0     H16049   1.901   2.533   5.549 -0.3108  1.2669 -1.5175
  860MOL0     H16050   2.066   2.503   5.546 -1.9995  0.8929  1.5381
  860MOL0     H16051   2.114   2.284   5.341  0.1612  0.4701  0.7312
  860MOL0     H16052   2.136   2.001   5.377  0.2558  1.0281  0.6283
  860MOL0     H16053   1.996   1.918   5.458 -1.8889  3.3202  3.6073
  860MOL0     H16054   2.025   1.934   5.181 -0.2498  3.8719 -2.4106
  860MOL0     H16055   1.926   2.067   5.210  0.1129 -0.6638 -0.6971
  860MOL0     H16056   1.770   1.907   5.343 -1.1837 -0.5147 -0.2435
  860MOL0     H16057   1.890   1.779   5.334  2.3282 -0.5993 -0.7268
  860MOL0     H16058   1.677   1.853   5.130  0.9707  1.0933 -4.0931
  860MOL0     H16059   1.762   1.703   5.156 -2.8293  0.5139 -2.2559
  860MOL0     H16060   1.889   1.618   4.937  2.4431  2.2331  0.0697
  860MOL0     H16061   1.929   1.496   4.686  0.5260 -1.1920  0.4256
  860MOL0     H16062   1.838   1.409   4.797 -2.5514 -0.6635 -1.2561
  860MOL0     H16063   1.780   1.430   4.629 -3.3103  0.8911  0.7376
  860MOL0     H16064   1.456   1.899   4.307  0.9401  2.5985 -3.1527
  860MOL0     H16065   1.412   1.856   4.075 -0.5984 -0.1315  0.0203
  860MOL0     H16066   1.526   1.883   3.890 -1.6547 -1.4059  2.3735
  860MOL0     H16067   1.682   1.796   3.842  0.3912  2.0816  1.5591
  860MOL0     H16068   1.585   1.711   3.662  0.0834 -0.6009  1.6907
  860MOL0     H16069   1.418   1.709   3.723  0.3184 -1.5071 -3.1211
  860MOL0     H16070   1.565   1.970   3.658  1.2420  0.8155 -1.6150
  860MOL0     H16071   1.391   1.935   3.657  0.2078 -1.7021  1.4531
  860MOL0     H16072   1.589   1.819   3.467 -0.5827 -1.8932  0.8662
  860MOL0     H16073   1.426   1.775   3.478 -1.1424  1.1265  2.6399
  860MOL0     H16074   1.498   1.966   3.292 -3.1785 -0.3987 -2.6317
  860MOL0     H16075   1.460   2.076   3.432 -0.3624 -1.7667  2.5495
  860MOL0     H16076   1.256   1.861   3.370  0.5980  0.0616  3.5589
  860MOL0     H16077   1.237   2.033   3.411 -3.1206 -1.3744 -1.4963
  860MOL0     H16078   1.146   2.004   3.197  0.0983  2.5755 -1.3848
  860MOL0     H16079   1.284   1.923   3.131  1.1100 -2.5844  1.6361
  860MOL0     H16080   1.435   2.133   3.182  0.4272  1.0047  0.7259
  860MOL0     H16081   1.309   2.205   3.267  1.4271  0.8300 -0.2451
  860MOL0     H16082   1.691   1.527   4.077  3.4063  2.0182 -0.7975
  860MOL0     H16083   1.759   1.582   4.305 -0.1154 -0.0084  0.1657
  860MOL0     H16084   1.584   1.886   4.672  1.4462 -0.5889 -1.4630
  860MOL0     H16085   1.661   1.961   4.901  0.6117  0.6312 -1.1318
  860MOL0     H16086   1.788   2.680   4.838  1.3711 -0.3729 -0.5703
  860MOL0     H16087   1.650   2.554   4.997  0.0138  1.4546  0.0248
  860MOL0     H16088   1.667   2.191   5.340 -0.3494 -1.0066  3.1332
  860MOL0     H16089   1.556   1.989   5.458  1.4649 -0.1138 -0.8098
  860MOL0     H16090   1.184   1.823   5.291 -2.9379 -3.2060  1.4106
  860MOL0     H16091   1.237   1.718   5.418  1.0621  0.8345  3.5507
  860MOL0     H16092   1.082   1.985   5.457  0.5752  0.8278  1.1838
  860MOL0     H16093   1.165   1.893   5.586  0.3663  2.3134 -0.7893
  860MOL0     H16094   1.024   1.701   5.533  0.6049  0.7357  0.0052
  860MOL0     H16095   0.936   1.785   5.421 -0.3299  1.2827 -0.8817
  860MOL0     H16096   0.863   1.960   5.554 -0.0487 -0.1268  0.5298
  860MOL0     H16097   0.957   1.915   5.694  3.2412  1.0340 -3.1534
  860MOL0     H16098   0.611   1.668   5.736  1.1993 -0.6509  0.9497
  860MOL0     H16099   1.258   1.979   5.158 -0.4618 -0.1491  0.6334
  860MOL0     H16100   1.381   2.138   5.022 -1.4321 -2.1203  0.8490
  861MOL0     O16101   1.074   7.752  10.753 -0.2920  0.4601  1.0595
  861MOL0     C16102   1.181   7.688  10.745 -0.6685  0.4677 -0.1324
  861MOL0     O16103   1.219   7.586  10.834 -0.0194  0.3447  0.0453
  861MOL0     C16104   1.121   7.518  10.905 -0.0329  0.7595  0.7881
  861MOL0     C16105   1.138   7.483  11.040  0.1914 -0.0968 -0.0659
  861MOL0     C16106   1.050   7.404  11.107  0.0448  0.0160  1.4813
  861MOL0     C16107   0.934   7.357  11.048 -0.2595 -0.4834 -0.6366
  861MOL0     O16108   0.862   7.271  11.112  0.2057  0.0988 -0.0264
  861MOL0     C16109   0.756   7.189  11.051  0.1768 -0.4855 -0.2306
  861MOL0     C16110   0.715   7.119  11.175  0.4632  0.5844  0.5576
  861MOL0     C16111   0.580   7.042  11.158  0.5819  0.1525  0.1489
  861MOL0     C16112   0.538   6.979  11.303  0.2139 -0.8093 -0.3231
  861MOL0     C16113   0.518   7.085  11.415  1.4433 -0.4290 -0.5677
  861MOL0     C16114   0.413   7.044  11.528 -0.3000  0.0942  0.0882
  861MOL0     C16115   0.377   7.163  11.616 -0.3026  0.7781 -0.1660
  861MOL0     C16116   0.477   7.171  11.730 -0.1007  0.3819  0.0083
  861MOL0     N16117   0.456   7.289  11.821  0.1895 -0.1089  0.6197
  861MOL0     C16118   0.390   7.288  11.940 -0.1503 -0.5889 -0.3059
  861MOL0     C16119   0.381   7.411  11.973  1.1689  0.8447  0.2837
  861MOL0     C16120   0.333   7.446  12.119  0.0550 -0.3043  0.3310
  861MOL0     C16121   0.452   7.471  12.217  0.0702  0.1081  1.0454
  861MOL0     C16122   0.492   7.615  12.220 -0.7160 -0.1036 -0.1383
  861MOL0     C16123   0.414   7.700  12.325 -0.6056  0.1542  0.1661
  861MOL0     O16124   0.435   7.670  12.464 -0.4840  0.1950  0.2766
  861MOL0     C16125   0.544   7.720  12.523  0.3223 -1.7214  0.0631
  861MOL0     C16126   0.631   7.825  12.479  0.4371  0.7280  0.5849
  861MOL0     C16127   0.739   7.869  12.562 -0.2012  0.6582  0.1463
  861MOL0     C16128   0.827   7.972  12.500  0.2662 -0.6201 -0.1129
  861MOL0     C16129   0.756   7.824  12.695 -0.6546  0.4338  0.1484
  861MOL0     C16130   0.863   7.867  12.793 -0.3512 -0.0886 -0.6730
  861MOL0     O16131   0.920   7.991  12.776  0.5111 -0.5773  0.5196
  861MOL0     C16132   0.993   8.054  12.875 -1.0743  0.4633 -0.6857
  861MOL0     C16133   1.034   8.017  13.010  0.1972 -1.1525 -0.7480
  861MOL0     C16134   1.116   8.107  13.079 -0.6415  0.7915  0.3555
  861MOL0     C16135   1.165   8.221  13.034 -0.5766 -0.0445 -0.2392
  861MOL0     O16136   1.241   8.311  13.103 -0.5685  0.0550 -0.3723
  861MOL0     C16137   1.255   8.301  13.243  1.1136 -0.0052  0.3862
  861MOL0     C16138   1.343   8.413  13.291 -0.5851 -0.0002 -0.0946
  861MOL0     C16139   1.370   8.413  13.444 -0.0029 -0.6415  0.5724
  861MOL0     C16140   1.267   8.489  13.525  0.4999 -0.1839  0.8947
  861MOL0     C16141   1.229   8.429  13.661 -0.0827 -0.5457  0.1232
  861MOL0     C16142   1.339   8.450  13.762 -0.0073 -0.3704  0.2064
  861MOL0     C16143   1.308   8.371  13.884  0.6029  0.3336 -0.3513
  861MOL0     C16144   1.424   8.359  13.980 -0.9374  0.8519  1.2376
  861MOL0    Cl16145   1.563   8.266  13.898 -0.3142  0.0415  0.2901
  861MOL0     C16146   1.149   8.250  12.895  0.0997 -0.5760 -0.4813
  861MOL0     C16147   1.051   8.165  12.820 -0.2169 -0.2418  0.0243
  861MOL0     O16148   0.902   7.790  12.882 -0.2220 -0.0950  0.0881
  861MOL0     C16149   0.664   7.719  12.737 -0.2168  0.5533  0.4126
  861MOL0     C16150   0.563   7.674  12.653 -1.0085 -0.4988  0.6463
  861MOL0     N16151   0.415   7.490  11.871 -0.6725 -0.5861  0.4116
  861MOL0     N16152   0.460   7.413  11.769  0.0776  0.2830  0.5609
  861MOL0     C16153   0.911   7.388  10.913  0.0710 -0.3163 -0.3309
  861MOL0     C16154   1.009   7.456  10.845  0.8445 -1.0527 -0.3418
  861MOL0     C16155   1.270   7.732  10.640 -0.0431  0.1944 -0.8822
  861MOL0     C16156   1.222   7.815  10.533  0.6627  0.5209  0.6608
  861MOL0     C16157   1.306   7.845  10.425  0.4544 -0.1476  0.7674
  861MOL0     C16158   1.439   7.811  10.420 -0.5861 -0.4929 -0.3716
  861MOL0     O16159   1.510   7.851  10.308 -0.5924 -0.4246  0.1424
  861MOL0     C16160   1.652   7.850  10.320  0.2225  0.0779 -0.1715
  861MOL0     C16161   1.737   7.924  10.221  0.4342  0.1673 -0.3510
  861MOL0     C16162   1.881   7.928  10.266  0.1562  0.5816  0.6733
  861MOL0     C16163   1.974   7.952  10.152 -0.2193  0.3978  0.2761
  861MOL0     C16164   2.007   7.840  10.070  0.7704  0.6626 -0.4192
  861MOL0     C16165   2.008   7.742   9.999 -0.7760 -0.3496 -0.3099
  861MOL0     C16166   1.489   7.741  10.532 -0.8068 -0.4411  0.6062
  861MOL0     C16167   1.406   7.697  10.640 -0.4762 -0.7519 -1.2957
  861MOL0     H16168   1.214   7.539  11.093 -1.2903  0.5559  1.4311
  861MOL0     H16169   1.057   7.385  11.214 -0.9995  1.1813  1.7856
  861MOL0     H16170   0.670   7.244  11.010 -1.0959 -0.8124  1.8778
  861MOL0     H16171   0.792   7.131  10.965  1.9838 -0.4620  0.4534
  861MOL0     H16172   0.793   7.046  11.201  0.1604  0.2569  0.5550
  861MOL0     H16173   0.703   7.181  11.264 -2.5111 -1.1500  1.5250
  861MOL0     H16174   0.499   7.101  11.115 -0.9172 -3.4913 -2.5377
  861MOL0     H16175   0.605   6.967  11.082  0.9204  1.9111 -1.5730
  861MOL0     H16176   0.449   6.918  11.286  0.2475 -0.7623 -0.6762
  861MOL0     H16177   0.615   6.909  11.336 -2.1029 -2.4673  1.9071
  861MOL0     H16178   0.612   7.107  11.466  1.4828  0.0537 -0.8417
  861MOL0     H16179   0.480   7.177  11.369  0.8441 -0.6899 -0.6137
  861MOL0     H16180   0.332   7.009  11.463  0.7581  1.8387 -2.3133
  861MOL0     H16181   0.449   6.963  11.592 -3.1299 -1.4855 -0.1097
  861MOL0     H16182   0.383   7.257  11.559  1.5179  0.4409 -0.5775
  861MOL0     H16183   0.273   7.149  11.649  0.4562  0.4271  2.2642
  861MOL0     H16184   0.579   7.176  11.692 -0.5583 -0.9788 -1.5042
  861MOL0     H16185   0.470   7.074  11.781  4.6152  1.0874  2.5472
  861MOL0     H16186   0.362   7.204  12.001 -2.1441  0.7169  0.6810
  861MOL0     H16187   0.276   7.538  12.114  1.8862  0.7969 -2.5499
  861MOL0     H16188   0.268   7.370  12.165  1.2349 -1.4359  0.2016
  861MOL0     H16189   0.536   7.415  12.176 -0.8464 -0.7096  0.2337
  861MOL0     H16190   0.421   7.432  12.315 -0.5668  0.9087  1.1828
  861MOL0     H16191   0.472   7.651  12.119 -0.4049 -0.7571 -0.4353
  861MOL0     H16192   0.600   7.626  12.232 -0.5158 -2.5118  0.7758
  861MOL0     H16193   0.306   7.701  12.308 -0.8518  0.0251  1.5841
  861MOL0     H16194   0.438   7.804  12.300  1.0555 -0.6438 -1.8507
  861MOL0     H16195   0.625   7.865  12.378  0.0308 -0.7299  0.0031
  861MOL0     H16196   0.820   7.967  12.391  3.4910  1.3992 -0.5692
  861MOL0     H16197   0.799   8.071  12.536  2.1151 -0.9018  2.4452
  861MOL0     H16198   0.930   7.971  12.537  0.8725  0.6258 -1.6918
  861MOL0     H16199   1.014   7.932  13.075 -2.0448  0.2045  0.4476
  861MOL0     H16200   1.140   8.089  13.184 -0.6642  0.5260  0.3137
  861MOL0     H16201   1.159   8.311  13.294  2.3169  1.3884  2.5531
  861MOL0     H16202   1.282   8.200  13.275  1.6351 -0.5886 -1.7315
  861MOL0     H16203   1.443   8.395  13.251  0.1850 -1.2994  2.2153
  861MOL0     H16204   1.297   8.504  13.252 -0.9860 -0.7536 -1.4635
  861MOL0     H16205   1.461   8.467  13.472 -1.4843  1.5130  1.4536
  861MOL0     H16206   1.370   8.314  13.491  1.7956  0.1978  2.5135
  861MOL0     H16207   1.299   8.593  13.535 -0.4085  0.1836  0.1569
  861MOL0     H16208   1.174   8.481  13.467  1.8045  1.7054 -1.6329
  861MOL0     H16209   1.218   8.320  13.656 -1.0619 -0.5401  1.4314
  861MOL0     H16210   1.140   8.486  13.689 -0.5414 -1.5639  0.8234
  861MOL0     H16211   1.433   8.414  13.718  1.4519 -0.2418  2.9984
  861MOL0     H16212   1.344   8.557  13.784  0.0898 -0.7276  2.0693
  861MOL0     H16213   1.296   8.266  13.856  3.5521  0.2130 -1.4691
  861MOL0     H16214   1.222   8.416  13.935 -0.3783 -0.9829 -0.7676
  861MOL0     H16215   1.395   8.300  14.067 -1.0999  2.5773  2.4123
  861MOL0     H16216   1.444   8.461  14.015 -2.0498  2.6452 -2.7398
  861MOL0     H16217   1.192   8.337  12.846  0.7687 -0.6615 -0.0680
  861MOL0     H16218   1.021   8.190  12.718  1.5540  0.3620 -0.3848
  861MOL0     H16219   0.675   7.677  12.836  0.0058 -3.4156 -1.0905
  861MOL0     H16220   0.504   7.588  12.683 -1.7817 -1.2648 -2.6573
  861MOL0     H16221   0.828   7.360  10.849 -2.1351  4.6343 -0.0995
  861MOL0     H16222   1.013   7.470  10.737  4.5371  3.1005  0.0251
  861MOL0     H16223   1.120   7.849  10.517  0.0858 -1.6030 -0.5363
  861MOL0     H16224   1.264   7.912  10.351 -0.9965  0.1161  1.7964
  861MOL0     H16225   1.676   7.909  10.409 -2.2772  0.6593  0.1802
  861MOL0     H16226   1.675   7.744  10.332  1.7482  0.3598 -0.3680
  861MOL0     H16227   1.696   8.024  10.208 -1.8410 -0.7906 -1.1562
  861MOL0     H16228   1.719   7.878  10.123 -1.8240  1.6844 -0.7141
  861MOL0     H16229   1.907   7.843  10.330 -1.7805  0.2591  1.0860
  861MOL0     H16230   1.889   8.011  10.336  2.6705  0.9757  0.0223
  861MOL0     H16231   2.065   7.980  10.206  0.5314  0.6418 -1.0700
  861MOL0     H16232   1.947   8.039  10.092  0.9144  0.6475  0.1097
  861MOL0     H16233   2.020   7.672   9.919  3.6485 -2.8102  2.1249
  861MOL0     H16234   1.589   7.701  10.541 -0.3600  0.3362 -0.7781
  861MOL0     H16235   1.453   7.631  10.713  0.5338  1.5025  0.2000
  862MOL0     O16236   7.578   2.598   8.210 -0.3229 -0.6482 -0.2944
  862MOL0     C16237   7.672   2.630   8.134 -0.6211 -0.5257 -1.3724
  862MOL0     O16238   7.656   2.696   8.012 -0.1602  0.4815  0.5341
  862MOL0     C16239   7.538   2.739   7.971 -0.2835 -0.7261  0.3228
  862MOL0     C16240   7.525   2.769   7.832  0.2353  0.8534 -1.2619
  862MOL0     C16241   7.401   2.815   7.778  0.6059  0.0895  0.1306
  862MOL0     C16242   7.304   2.849   7.865  0.2426  0.9340 -0.6201
  862MOL0     O16243   7.183   2.881   7.806  0.4583  0.0247 -0.4372
  862MOL0     C16244   7.084   2.945   7.892 -1.0297  0.1285  0.3058
  862MOL0     C16245   6.993   3.015   7.792 -0.0707 -0.1395 -0.1896
  862MOL0     C16246   6.882   3.108   7.852 -0.3110 -0.0896  0.1249
  862MOL0     C16247   6.813   3.181   7.731  1.0773  0.1724 -0.3721
  862MOL0     C16248   6.750   3.314   7.763  0.3450  0.5774  0.5994
  862MOL0     C16249   6.633   3.298   7.860 -0.2407 -0.3802 -0.1073
  862MOL0     C16250   6.573   3.431   7.895 -0.9308 -0.8105  0.1991
  862MOL0     C16251   6.516   3.410   8.036 -0.1953 -0.1894  0.2709
  862MOL0     N16252   6.624   3.409   8.144  0.3574  0.0855 -0.1623
  862MOL0     C16253   6.761   3.424   8.123 -0.4276 -0.1109 -0.4442
  862MOL0     C16254   6.822   3.372   8.238  0.7337 -0.2188  0.2385
  862MOL0     C16255   6.965   3.371   8.280 -0.3583 -0.5148 -0.0306
  862MOL0     C16256   6.986   3.457   8.394  0.9347  1.1340 -0.5315
  862MOL0     C16257   6.944   3.599   8.387  0.2567 -0.1161  0.2706
  862MOL0     C16258   6.991   3.675   8.262  1.0485  0.6845  0.5357
  862MOL0     O16259   7.124   3.639   8.222  0.0464 -0.2666  0.0369
  862MOL0     C16260   7.220   3.733   8.241 -0.0957 -0.4360  0.2589
  862MOL0     C16261   7.334   3.699   8.309  0.3429  0.0084 -0.6125
  862MOL0     C16262   7.431   3.802   8.321 -0.4781 -0.0439 -0.4186
  862MOL0     C16263   7.553   3.768   8.405 -0.7389 -0.4621 -0.4664
  862MOL0     C16264   7.412   3.937   8.260 -1.0390 -0.5179  0.3657
  862MOL0     C16265   7.511   4.058   8.263  0.3123  0.2246 -0.4185
  862MOL0     O16266   7.479   4.171   8.189  0.0859  0.0785 -0.1332
  862MOL0     C16267   7.567   4.276   8.196  0.6318  0.4685  0.7225
  862MOL0     C16268   7.677   4.278   8.105  0.2305  0.0130  0.1483
  862MOL0     C16269   7.763   4.386   8.109  0.7829 -0.9229 -0.5365
  862MOL0     C16270   7.734   4.494   8.200 -0.2515 -0.0878 -0.5126
  862MOL0     O16271   7.830   4.592   8.194  0.3037 -0.2978 -0.2925
  862MOL0     C16272   7.857   4.662   8.322  0.3266  0.2494  0.4571
  862MOL0     C16273   7.955   4.779   8.296 -0.1263  0.0532 -0.5724
  862MOL0     C16274   7.900   4.887   8.205  0.6754  0.7486 -0.5461
  862MOL0     C16275   7.922   5.028   8.272 -1.7588 -0.2646  0.4587
  862MOL0     C16276   7.877   5.137   8.187 -0.3247 -0.2308  0.3562
  862MOL0     C16277   7.875   5.276   8.259 -0.1220  0.3608  0.3005
  862MOL0     C16278   8.002   5.326   8.322 -0.0939 -0.3597 -0.3874
  862MOL0     C16279   7.998   5.475   8.369  0.0141  0.4769  0.4607
  862MOL0    Cl16280   8.020   5.568   8.223  0.0740  0.2963 -0.4693
  862MOL0     C16281   7.630   4.489   8.287  0.7021 -0.6856 -0.3446
  862MOL0     C16282   7.549   4.379   8.282  0.0255 -0.0201 -0.1775
  862MOL0     O16283   7.616   4.042   8.331 -0.1260 -0.3968 -0.0111
  862MOL0     C16284   7.299   3.957   8.176  0.2136  0.1279  0.1333
  862MOL0     C16285   7.206   3.857   8.173 -0.7953 -0.2152 -0.4992
  862MOL0     N16286   6.720   3.323   8.325  0.0355 -0.0845  0.6195
  862MOL0     N16287   6.605   3.346   8.261 -0.2380  0.1606 -0.0147
  862MOL0     C16288   7.322   2.848   8.008  0.6060  0.5081 -0.2123
  862MOL0     C16289   7.437   2.779   8.057 -0.0506 -0.4898 -0.1162
  862MOL0     C16290   7.802   2.562   8.167  0.0506 -0.1178  0.6307
  862MOL0     C16291   7.913   2.596   8.088 -0.1374 -0.7094 -0.1039
  862MOL0     C16292   8.038   2.553   8.125 -0.1110 -0.2746 -0.5973
  862MOL0     C16293   8.048   2.456   8.226 -0.1333 -0.0332  0.1684
  862MOL0     O16294   8.170   2.403   8.246  0.1526 -0.3109 -0.3240
  862MOL0     C16295   8.250   2.483   8.343 -0.5317  0.0027 -0.0787
  862MOL0     C16296   8.331   2.395   8.436  0.1417  0.1004 -0.2480
  862MOL0     C16297   8.466   2.466   8.478  0.7970  0.1467 -0.2571
  862MOL0     C16298   8.571   2.429   8.374  0.2057 -0.0180 -0.2032
  862MOL0     C16299   8.711   2.482   8.410 -0.8525 -0.7608 -0.1816
  862MOL0     C16300   8.811   2.532   8.458 -0.6455  0.5160 -0.3958
  862MOL0     C16301   7.937   2.421   8.302  0.2129  0.2041  0.7163
  862MOL0     C16302   7.815   2.463   8.265  0.8356  0.3043 -0.5684
  862MOL0     H16303   7.610   2.750   7.767  1.0559  0.0914 -0.0128
  862MOL0     H16304   7.381   2.828   7.672 -1.8463  0.6457  0.6023
  862MOL0     H16305   7.017   2.871   7.938  0.9188 -3.3851 -2.0349
  862MOL0     H16306   7.131   3.017   7.958  1.4785 -2.2182  1.2549
  862MOL0     H16307   7.054   3.066   7.717 -0.6565 -4.0872 -3.7287
  862MOL0     H16308   6.944   2.935   7.736 -2.0576  0.5274  0.4975
  862MOL0     H16309   6.808   3.065   7.921  1.9479  0.9434  3.4189
  862MOL0     H16310   6.927   3.177   7.924 -2.1089  0.4047  0.8433
  862MOL0     H16311   6.881   3.190   7.646  2.0596 -2.9043 -0.0509
  862MOL0     H16312   6.739   3.110   7.694  0.9971 -1.6904  2.9499
  862MOL0     H16313   6.820   3.380   7.815  0.5524 -0.1705  1.2977
  862MOL0     H16314   6.707   3.360   7.675 -1.4014 -0.0009  1.1110
  862MOL0     H16315   6.556   3.229   7.823  2.2962 -2.2424 -2.3432
  862MOL0     H16316   6.678   3.258   7.951 -3.4385  1.5115  2.5331
  862MOL0     H16317   6.638   3.519   7.890 -0.4337 -1.1533  0.5670
  862MOL0     H16318   6.499   3.451   7.817  2.3084  3.2468 -2.2938
  862MOL0     H16319   6.447   3.325   8.042 -2.0762  1.0441 -2.1875
  862MOL0     H16320   6.457   3.500   8.056  0.5388  0.4083 -0.2032
  862MOL0     H16321   6.803   3.479   8.039 -1.2955  1.8393  0.3286
  862MOL0     H16322   6.995   3.267   8.292  0.4027 -0.1869  1.0894
  862MOL0     H16323   7.026   3.416   8.202  0.3314 -0.0861  0.7336
  862MOL0     H16324   7.094   3.451   8.409  0.6014 -0.8647  1.6641
  862MOL0     H16325   6.933   3.415   8.480 -1.4286  1.1767 -1.8664
  862MOL0     H16326   6.995   3.645   8.472  1.2906  1.0610 -0.9432
  862MOL0     H16327   6.838   3.621   8.408 -0.4051 -2.9285  0.2918
  862MOL0     H16328   6.983   3.782   8.286 -0.1757  0.7858 -0.2233
  862MOL0     H16329   6.931   3.659   8.172  1.6634 -0.0034  0.2443
  862MOL0     H16330   7.336   3.599   8.352 -3.5731  0.6442  1.5005
  862MOL0     H16331   7.544   3.664   8.437  0.7767 -0.3867  0.3138
  862MOL0     H16332   7.642   3.771   8.342 -0.5367 -1.5054 -0.2481
  862MOL0     H16333   7.564   3.832   8.493 -0.8883 -0.0058 -0.7760
  862MOL0     H16334   7.699   4.203   8.030 -2.8992 -1.1473  0.2491
  862MOL0     H16335   7.859   4.384   8.059  0.5925 -1.3717 -0.8878
  862MOL0     H16336   7.764   4.701   8.365 -0.5578 -0.4425 -0.7741
  862MOL0     H16337   7.908   4.602   8.398  1.3908  1.9311  1.1444
  862MOL0     H16338   7.974   4.814   8.398  1.0435 -1.5445 -0.2059
  862MOL0     H16339   8.047   4.747   8.247 -0.6309 -1.8368 -0.3456
  862MOL0     H16340   7.792   4.873   8.191  1.2464 -3.3962 -2.3257
  862MOL0     H16341   7.949   4.874   8.108 -0.6867  0.8791 -1.2881
  862MOL0     H16342   7.859   5.026   8.361 -1.6298 -0.2375  0.5511
  862MOL0     H16343   8.028   5.037   8.299 -1.6065  1.5503 -0.6268
  862MOL0     H16344   7.774   5.110   8.160 -0.6548  0.1493  1.1866
  862MOL0     H16345   7.935   5.156   8.097  1.5726 -3.6551  0.6687
  862MOL0     H16346   7.845   5.347   8.182  0.6533  0.9341  0.5191
  862MOL0     H16347   7.804   5.271   8.343  0.9456  2.0802  1.3627
  862MOL0     H16348   8.084   5.322   8.249  0.6371 -0.8653  0.4463
  862MOL0     H16349   8.021   5.259   8.406  6.1042 -0.3752 -1.3351
  862MOL0     H16350   8.068   5.499   8.450  0.1840 -3.0475  1.5414
  862MOL0     H16351   7.899   5.499   8.409 -0.1890  1.9849 -0.8456
  862MOL0     H16352   7.614   4.560   8.368 -2.3535  0.1445 -1.5527
  862MOL0     H16353   7.468   4.376   8.355  1.3566 -0.5147  1.3313
  862MOL0     H16354   7.292   4.045   8.112 -0.0736 -0.2719 -0.3926
  862MOL0     H16355   7.112   3.870   8.119 -1.5440  3.5229  1.3520
  862MOL0     H16356   7.244   2.877   8.078  2.2600  0.9089  1.5590
  862MOL0     H16357   7.447   2.785   8.165  0.5319  1.8583 -0.2385
  862MOL0     H16358   7.903   2.670   8.010 -2.1602  3.2250  3.5018
  862MOL0     H16359   8.128   2.583   8.072  1.0106 -0.0053  1.3753
  862MOL0     H16360   8.318   2.534   8.274 -3.0372 -0.0354 -2.7629
  862MOL0     H16361   8.192   2.556   8.401 -1.5629  0.2243 -1.3493
  862MOL0     H16362   8.334   2.300   8.381  1.2863 -0.5059  0.8129
  862MOL0     H16363   8.276   2.370   8.527  2.2294  1.3798  1.4434
  862MOL0     H16364   8.497   2.420   8.573  2.5755  1.1748 -0.3020
  862MOL0     H16365   8.455   2.570   8.512 -0.9092 -0.3005  0.6819
  862MOL0     H16366   8.545   2.474   8.278 -1.1649 -1.0324 -0.3335
  862MOL0     H16367   8.568   2.320   8.366 -2.4271 -0.1477  1.4463
  862MOL0     H16368   8.908   2.574   8.476 -0.9870  0.2739  2.4032
  862MOL0     H16369   7.949   2.358   8.390 -0.6809  1.0600  1.4833
  862MOL0     H16370   7.728   2.440   8.327  1.0933  1.8082  0.4220
  863MOL0     O16371   7.703   6.838   4.793  0.4165  0.2101 -0.3121
  863MOL0     C16372   7.595   6.817   4.846 -0.2788  0.1494 -0.0884
  863MOL0     O16373   7.572   6.768   4.973 -0.3268  0.5305  0.8067
  863MOL0     C16374   7.678   6.704   5.036  1.3783  0.4880  0.0903
  863MOL0     C16375   7.749   6.605   4.973 -0.0341  1.3282 -0.3382
  863MOL0     C16376   7.853   6.525   5.047 -0.0216  0.1621  0.4185
  863MOL0     C16377   7.851   6.537   5.190 -0.3289 -0.7060  0.6066
  863MOL0     O16378   7.928   6.468   5.277  0.4364  0.5571  0.5521
  863MOL0     C16379   8.053   6.404   5.228 -0.6164 -0.4516 -0.0115
  863MOL0     C16380   8.144   6.392   5.352  1.2455  0.8146 -0.1574
  863MOL0     C16381   8.079   6.302   5.452  0.2504  0.1083 -0.2804
  863MOL0     C16382   8.159   6.303   5.584  1.0477  0.2482  0.5005
  863MOL0     C16383   8.110   6.206   5.691  0.0500 -0.0320 -0.5270
  863MOL0     C16384   8.151   6.245   5.837  1.0571  0.2350  0.0239
  863MOL0     C16385   8.057   6.352   5.887  0.3198  0.4218 -0.7487
  863MOL0     C16386   8.091   6.377   6.033 -0.3073 -0.2433  0.2304
  863MOL0     N16387   8.043   6.508   6.081 -0.1491 -0.2873 -0.2450
  863MOL0     C16388   7.941   6.586   6.028 -0.1289  0.5707  0.7309
  863MOL0     C16389   7.907   6.668   6.126  0.5509 -0.0496 -0.0453
  863MOL0     C16390   7.804   6.776   6.123 -0.4346  0.2384  0.6932
  863MOL0     C16391   7.663   6.710   6.083  0.1941 -0.0459  0.4019
  863MOL0     C16392   7.566   6.830   6.071  0.1787 -0.2641 -0.2728
  863MOL0     C16393   7.421   6.785   6.056 -0.0705 -0.0736  0.2741
  863MOL0     O16394   7.380   6.722   6.176  0.2050  0.4148  0.0013
  863MOL0     C16395   7.253   6.726   6.225 -0.8352  0.0802  0.5595
  863MOL0     C16396   7.145   6.745   6.137 -0.3413 -0.2756 -0.7936
  863MOL0     C16397   7.014   6.769   6.184  0.0516 -0.1061  0.3362
  863MOL0     C16398   6.897   6.793   6.098 -0.7365  0.7913  0.1531
  863MOL0     C16399   6.984   6.750   6.322  0.1372  1.0637  0.5759
  863MOL0     C16400   6.848   6.745   6.381 -0.2509 -0.3091  0.4938
  863MOL0     O16401   6.752   6.835   6.351  0.3356  0.2429 -1.2316
  863MOL0     C16402   6.623   6.808   6.367  0.3776 -0.3141  0.7113
  863MOL0     C16403   6.545   6.917   6.390 -0.0108  0.2828  0.5994
  863MOL0     C16404   6.410   6.905   6.417 -0.5979  0.2175  0.0159
  863MOL0     C16405   6.350   6.781   6.420  0.1521  0.0951 -0.2089
  863MOL0     O16406   6.212   6.790   6.444 -0.0360 -0.7681 -0.5896
  863MOL0     C16407   6.136   6.670   6.420  0.7481 -0.1493 -0.4542
  863MOL0     C16408   5.978   6.703   6.424 -0.0294  0.1756  0.3663
  863MOL0     C16409   5.914   6.711   6.559 -0.0818 -0.3104 -0.1125
  863MOL0     C16410   5.758   6.751   6.557 -0.0484  0.9006 -0.9104
  863MOL0     C16411   5.712   6.759   6.712 -0.4458 -0.9047  0.2924
  863MOL0     C16412   5.567   6.813   6.710 -0.1075 -0.5711 -0.2820
  863MOL0     C16413   5.523   6.884   6.840  0.2122 -0.9212  1.3689
  863MOL0     C16414   5.371   6.931   6.834 -0.4397  0.7364  0.1720
  863MOL0    Cl16415   5.261   6.792   6.869 -0.0736 -0.2942  0.1636
  863MOL0     C16416   6.429   6.667   6.407 -0.5030  0.2205 -0.2138
  863MOL0     C16417   6.564   6.676   6.373 -0.5957  0.7986 -0.0819
  863MOL0     O16418   6.832   6.665   6.472 -0.6696 -0.0879  0.4651
  863MOL0     C16419   7.093   6.719   6.412 -0.5757  0.2318  0.6081
  863MOL0     C16420   7.230   6.706   6.365  0.4985  0.0202  0.0516
  863MOL0     N16421   7.973   6.633   6.238 -0.2250  0.0608 -0.5634
  863MOL0     N16422   8.063   6.552   6.209 -0.0757  0.5081  0.4246
  863MOL0     C16423   7.781   6.651   5.240 -0.1801  0.0739 -0.2489
  863MOL0     C16424   7.701   6.733   5.167  0.0637 -1.3314 -0.1380
  863MOL0     C16425   7.479   6.857   4.764 -0.0928  0.3046  0.2005
  863MOL0     C16426   7.355   6.815   4.806  1.1407  0.5562  0.2559
  863MOL0     C16427   7.243   6.873   4.752  0.7177  0.1459  0.4755
  863MOL0     C16428   7.243   6.950   4.640  0.3670 -0.6796  0.2816
  863MOL0     O16429   7.116   6.984   4.580 -1.5033 -0.5265  0.1111
  863MOL0     C16430   7.112   7.045   4.451  0.4299  0.3179 -1.0074
  863MOL0     C16431   6.967   7.045   4.401  0.0796 -0.9765 -0.2505
  863MOL0     C16432   6.878   7.122   4.507  0.6760 -0.9696 -0.1360
  863MOL0     C16433   6.750   7.175   4.431 -0.0497  0.0612  0.4600
  863MOL0     C16434   6.775   7.293   4.345 -0.5384 -0.4383 -0.1089
  863MOL0     C16435   6.806   7.386   4.264 -0.4319  0.4306 -0.8169
  863MOL0     C16436   7.365   6.987   4.590  0.0355 -0.1523  0.7924
  863MOL0     C16437   7.486   6.932   4.645  0.6378 -0.1978  0.5825
  863MOL0     H16438   7.741   6.578   4.868 -1.2649 -0.0597  0.0784
  863MOL0     H16439   7.916   6.448   5.002 -0.2921 -0.8537  1.7117
  863MOL0     H16440   8.037   6.305   5.184 -1.0508 -0.5376  0.3256
  863MOL0     H16441   8.101   6.473   5.158 -1.1727 -1.0325 -1.0046
  863MOL0     H16442   8.237   6.346   5.316 -0.7534 -3.2924 -0.6490
  863MOL0     H16443   8.165   6.494   5.386 -0.4617  1.0285  0.3192
  863MOL0     H16444   7.979   6.336   5.481  0.5264 -1.2193  2.5542
  863MOL0     H16445   8.059   6.205   5.406 -2.5891  0.9586 -1.0475
  863MOL0     H16446   8.266   6.288   5.569  1.0852  1.8228 -1.0334
  863MOL0     H16447   8.148   6.403   5.627  2.1193 -0.3314  2.2653
  863MOL0     H16448   8.002   6.194   5.678  0.0421  0.1499 -0.6369
  863MOL0     H16449   8.152   6.106   5.673  0.0641 -1.0700  4.0406
  863MOL0     H16450   8.157   6.156   5.900 -0.3811 -0.7499 -1.1494
  863MOL0     H16451   8.252   6.286   5.829  0.9711  0.2715 -1.0563
  863MOL0     H16452   8.053   6.443   5.826  1.6078  1.7904  1.1013
  863MOL0     H16453   7.960   6.301   5.889  0.0894  0.8851  0.9344
  863MOL0     H16454   8.198   6.359   6.042 -0.4746 -0.5108  2.0665
  863MOL0     H16455   8.029   6.306   6.089 -0.5598  0.1725  0.4832
  863MOL0     H16456   7.899   6.568   5.930  4.3069 -2.5712 -0.8960
  863MOL0     H16457   7.795   6.811   6.227  2.4312 -0.6220  1.3121
  863MOL0     H16458   7.831   6.857   6.054  1.3846 -1.5521 -0.8070
  863MOL0     H16459   7.611   6.654   6.161 -4.1848  0.2951 -1.9715
  863MOL0     H16460   7.659   6.651   5.992 -1.6333  0.1415  0.3164
  863MOL0     H16461   7.597   6.907   6.000 -2.1441  1.7498  0.7409
  863MOL0     H16462   7.573   6.878   6.169 -0.3267 -2.1814  0.7557
  863MOL0     H16463   7.408   6.712   5.976 -0.5598 -0.9093  1.0895
  863MOL0     H16464   7.365   6.878   6.042  1.4849  0.8310 -0.2397
  863MOL0     H16465   7.174   6.755   6.033  3.3205  0.9497  0.1733
  863MOL0     H16466   6.856   6.894   6.108  1.7723  1.9403 -0.3336
  863MOL0     H16467   6.934   6.776   5.996  0.7648  0.1259  0.7696
  863MOL0     H16468   6.822   6.713   6.101  0.4580 -0.3284  2.0518
  863MOL0     H16469   6.582   7.019   6.382  2.0202 -0.4824 -0.4661
  863MOL0     H16470   6.349   6.995   6.420 -0.3771  0.5077 -2.4648
  863MOL0     H16471   6.162   6.638   6.319  0.1332  0.4729 -0.8178
  863MOL0     H16472   6.166   6.595   6.493  3.1204  1.0353 -0.1019
  863MOL0     H16473   5.955   6.794   6.367 -0.7336 -0.9086 -1.1564
  863MOL0     H16474   5.924   6.628   6.365 -1.6311  2.4815 -1.3054
  863MOL0     H16475   5.969   6.792   6.607  0.2199 -0.0043 -0.9604
  863MOL0     H16476   5.929   6.620   6.618 -2.5721 -0.9308 -0.3157
  863MOL0     H16477   5.745   6.844   6.501 -0.6175  1.3857  0.0200
  863MOL0     H16478   5.684   6.683   6.514 -1.7313  2.3828 -0.4651
  863MOL0     H16479   5.769   6.834   6.768 -0.1474 -1.1480  0.3185
  863MOL0     H16480   5.731   6.661   6.757  2.1066  0.5182  2.6202
  863MOL0     H16481   5.560   6.880   6.625  2.3373 -0.0746 -0.1538
  863MOL0     H16482   5.502   6.725   6.698  4.0228 -3.7502 -1.5301
  863MOL0     H16483   5.581   6.976   6.846 -0.2787 -0.4673 -0.3062
  863MOL0     H16484   5.541   6.823   6.929 -1.3569 -1.0792  1.5958
  863MOL0     H16485   5.340   6.978   6.741 -0.9304  1.0813  0.5095
  863MOL0     H16486   5.354   7.008   6.909  2.5488 -0.7225  2.6095
  863MOL0     H16487   6.387   6.569   6.428  1.1809 -0.0502  2.3676
  863MOL0     H16488   6.625   6.587   6.358  2.3830  2.7577 -0.5763
  863MOL0     H16489   7.073   6.711   6.518 -1.7106  1.9405  0.5691
  863MOL0     H16490   7.306   6.698   6.441  0.0063  0.8936  0.6593
  863MOL0     H16491   7.785   6.673   5.346  3.6132 -3.8759  0.7248
  863MOL0     H16492   7.642   6.818   5.202  1.1233 -0.0871 -1.2773
  863MOL0     H16493   7.345   6.741   4.885 -0.0094  1.5531  1.0906
  863MOL0     H16494   7.148   6.837   4.790  1.5715 -2.0234  0.6929
  863MOL0     H16495   7.147   7.147   4.466 -0.4997  0.4959  0.0469
  863MOL0     H16496   7.177   6.996   4.378 -0.0178 -0.2911 -1.0111
  863MOL0     H16497   6.928   6.946   4.380 -0.4325 -0.5980 -1.1367
  863MOL0     H16498   6.973   7.102   4.308 -0.5692 -1.1067 -0.3803
  863MOL0     H16499   6.930   7.205   4.555  3.5545 -2.9724  0.4448
  863MOL0     H16500   6.855   7.057   4.591  0.9953  0.8802  1.4443
  863MOL0     H16501   6.671   7.209   4.498  2.2423  2.2580  2.2137
  863MOL0     H16502   6.717   7.091   4.369 -1.6533  0.3081  0.9398
  863MOL0     H16503   6.844   7.448   4.185 -1.6530  0.2044 -1.5953
  863MOL0     H16504   7.378   7.052   4.504 -0.0579 -2.1197 -0.7743
  863MOL0     H16505   7.581   6.972   4.612 -0.3248  2.5847  0.9063
  864MOL0     O16506   0.030   3.595   6.476  0.1631  0.3182  0.4143
  864MOL0     C16507  -0.020   3.573   6.586 -0.1149  0.1162  0.4577
  864MOL0     O16508   0.052   3.552   6.703  0.2241 -0.7660  0.6802
  864MOL0     C16509   0.186   3.517   6.710 -0.0210  0.6363 -0.0810
  864MOL0     C16510   0.286   3.617   6.704  0.5286  0.5814  1.0131
  864MOL0     C16511   0.417   3.584   6.732  0.6070 -0.5026  0.3717
  864MOL0     C16512   0.466   3.447   6.744 -0.3158 -0.4234 -0.1785
  864MOL0     O16513   0.601   3.436   6.778 -1.2838  0.0672  0.1632
  864MOL0     C16514   0.652   3.300   6.791  0.0707  0.5884 -0.5251
  864MOL0     C16515   0.805   3.306   6.791 -0.1238  0.1676  0.3838
  864MOL0     C16516   0.874   3.320   6.646 -0.1744  0.6639 -0.0340
  864MOL0     C16517   0.892   3.464   6.617 -0.6124 -0.1410  1.5964
  864MOL0     C16518   0.933   3.483   6.468 -0.5916 -1.2358  0.5222
  864MOL0     C16519   1.064   3.422   6.416  1.4896 -0.5905 -0.1968
  864MOL0     C16520   1.079   3.458   6.267 -0.1447 -0.6447 -0.8130
  864MOL0     C16521   1.216   3.396   6.221 -0.3063 -0.4722  1.6429
  864MOL0     N16522   1.338   3.479   6.237  0.2475  0.2909  0.4286
  864MOL0     C16523   1.419   3.544   6.140  0.4957  0.2801 -0.0752
  864MOL0     C16524   1.527   3.590   6.210 -0.0748 -0.2130  0.4711
  864MOL0     C16525   1.640   3.663   6.143  0.3241  0.3693  0.4221
  864MOL0     C16526   1.739   3.571   6.073 -0.0667 -0.4687  0.3575
  864MOL0     C16527   1.827   3.663   5.984 -0.3696 -0.3223  0.6179
  864MOL0     C16528   1.973   3.642   6.025  0.0882 -0.2131 -0.0706
  864MOL0     O16529   2.056   3.725   5.938  0.2421  0.3823 -0.0850
  864MOL0     C16530   2.191   3.736   5.951 -0.0060  0.2646 -0.8900
  864MOL0     C16531   2.259   3.836   5.890  1.0003 -0.2536  0.0387
  864MOL0     C16532   2.397   3.848   5.898  0.0814 -0.9952  0.5967
  864MOL0     C16533   2.452   3.973   5.826 -0.1196  0.3673  0.6628
  864MOL0     C16534   2.471   3.751   5.967  1.1123 -0.1397 -1.1486
  864MOL0     C16535   2.616   3.753   5.980 -0.8078  1.1501 -1.1235
  864MOL0     O16536   2.689   3.845   5.921 -0.2480  0.7623 -0.0814
  864MOL0     C16537   2.824   3.867   5.943  0.5271 -0.4568  0.7821
  864MOL0     C16538   2.921   3.854   5.850 -0.7332 -0.7517  0.0498
  864MOL0     C16539   3.050   3.882   5.874  0.0911 -0.2839 -0.2692
  864MOL0     C16540   3.096   3.912   6.000  0.4234 -0.3394 -0.7013
  864MOL0     O16541   3.231   3.913   6.013  0.6279  0.0989  0.2789
  864MOL0     C16542   3.285   3.993   6.117  1.0190 -0.9457 -0.7399
  864MOL0     C16543   3.433   4.026   6.089 -0.6519  0.9335 -0.0004
  864MOL0     C16544   3.496   4.096   6.208  0.1319 -0.2608 -0.5590
  864MOL0     C16545   3.600   4.198   6.164  0.1926  0.1378 -0.3915
  864MOL0     C16546   3.739   4.139   6.123 -0.4724  0.4484  0.5233
  864MOL0     C16547   3.833   4.253   6.086  0.4118 -0.4267 -0.0406
  864MOL0     C16548   3.879   4.354   6.199 -0.1395 -0.4260 -0.8762
  864MOL0     C16549   3.999   4.284   6.281 -0.6994 -0.4309  0.8406
  864MOL0    Cl16550   3.988   4.341   6.448 -0.7122  0.5355 -0.3500
  864MOL0     C16551   3.000   3.947   6.102  0.2175  0.0543  0.8697
  864MOL0     C16552   2.866   3.914   6.071 -0.7333  0.3018 -0.1650
  864MOL0     O16553   2.659   3.663   6.058 -0.2062 -0.8065  0.3071
  864MOL0     C16554   2.393   3.651   6.032 -1.1250  0.0410  0.9629
  864MOL0     C16555   2.261   3.639   6.021  0.6976  0.6358 -0.9322
  864MOL0     N16556   1.495   3.570   6.345 -0.0574 -0.1382  0.4849
  864MOL0     N16557   1.392   3.501   6.354  0.1365  0.1635  0.9686
  864MOL0     C16558   0.373   3.348   6.733  0.4062  0.0970 -0.4959
  864MOL0     C16559   0.234   3.381   6.725  0.2369 -0.4567  0.1752
  864MOL0     C16560  -0.169   3.567   6.598  0.5003 -0.1272 -0.3829
  864MOL0     C16561  -0.235   3.575   6.722  0.9544  0.1874 -0.4385
  864MOL0     C16562  -0.374   3.582   6.732  0.4753 -0.2520  0.0921
  864MOL0     C16563  -0.458   3.560   6.623 -0.0373  0.2086 -0.5864
  864MOL0     O16564  -0.592   3.556   6.634  0.3572  0.6071 -0.2334
  864MOL0     C16565  -0.675   3.572   6.519 -0.5955  0.9062 -0.4320
  864MOL0     C16566  -0.823   3.603   6.558 -0.9046 -0.7351 -0.3482
  864MOL0     C16567  -0.877   3.505   6.654  0.1553  1.2021  0.1130
  864MOL0     C16568  -1.019   3.533   6.701  0.5698 -0.6813  0.7910
  864MOL0     C16569  -1.040   3.668   6.741 -0.4933  0.6081 -0.9164
  864MOL0     C16570  -1.063   3.787   6.767  0.2422  0.4411  0.4338
  864MOL0     C16571  -0.394   3.550   6.504  0.0962 -0.9176  0.6261
  864MOL0     C16572  -0.252   3.553   6.487 -0.6438 -0.7280 -1.3118
  864MOL0     H16573   0.254   3.718   6.680 -1.4925 -0.8028 -3.0832
  864MOL0     H16574   0.489   3.665   6.744  1.0943 -0.9285  0.3353
  864MOL0     H16575   0.614   3.266   6.888  1.5295  0.5182  0.0517
  864MOL0     H16576   0.613   3.246   6.704 -0.2029  3.5745 -2.4063
  864MOL0     H16577   0.838   3.391   6.851  1.1344 -0.6444  0.8899
  864MOL0     H16578   0.847   3.214   6.833  3.0384  1.2772 -0.1155
  864MOL0     H16579   0.973   3.274   6.646 -0.6408 -0.3604 -0.1846
  864MOL0     H16580   0.811   3.268   6.574 -2.1257 -0.4531  2.3210
  864MOL0     H16581   0.814   3.534   6.645  1.0868  3.9916 -2.6511
  864MOL0     H16582   0.980   3.504   6.668  0.7102 -0.3252 -0.4007
  864MOL0     H16583   0.855   3.461   6.395  0.7554  1.4189 -1.8955
  864MOL0     H16584   0.950   3.591   6.471 -1.0515 -1.1544  0.2144
  864MOL0     H16585   1.145   3.470   6.471 -0.5689 -1.5757  4.0740
  864MOL0     H16586   1.065   3.313   6.421  0.3805 -0.6772 -1.2958
  864MOL0     H16587   0.997   3.423   6.204 -0.3780  0.5377 -1.2001
  864MOL0     H16588   1.069   3.566   6.253 -3.0540 -0.7723 -0.3842
  864MOL0     H16589   1.202   3.385   6.113  1.5280  1.9738  1.0855
  864MOL0     H16590   1.216   3.304   6.280  3.1257 -0.3142  2.0742
  864MOL0     H16591   1.393   3.534   6.035 -1.2177  2.5618  0.0478
  864MOL0     H16592   1.587   3.726   6.071  1.6508  1.3968  0.2916
  864MOL0     H16593   1.691   3.730   6.213  0.0763 -0.3559  1.3115
  864MOL0     H16594   1.681   3.504   6.008 -2.0959  0.4380  1.1635
  864MOL0     H16595   1.808   3.521   6.142  1.1670  1.4208  0.5546
  864MOL0     H16596   1.808   3.770   5.979  0.5506 -0.2066 -1.9196
  864MOL0     H16597   1.816   3.627   5.881 -2.3462 -1.5861  1.2073
  864MOL0     H16598   1.987   3.535   6.009  0.3821 -0.7569  3.1694
  864MOL0     H16599   1.987   3.665   6.131 -0.1312  0.0139 -0.0902
  864MOL0     H16600   2.213   3.917   5.834  0.8482  1.8017  2.8735
  864MOL0     H16601   2.527   4.022   5.888  0.9962 -0.1767 -0.2180
  864MOL0     H16602   2.494   3.929   5.735 -1.1924 -2.5749  1.4812
  864MOL0     H16603   2.376   4.049   5.804  1.2523  1.9798  1.3254
  864MOL0     H16604   2.902   3.819   5.749  2.6374 -2.3942 -0.1865
  864MOL0     H16605   3.119   3.858   5.794  1.1905  0.9564  0.2547
  864MOL0     H16606   3.228   4.085   6.132  0.0133 -1.9130  2.0328
  864MOL0     H16607   3.283   3.942   6.213 -1.1334  1.6644  0.7538
  864MOL0     H16608   3.494   3.937   6.073 -2.2765 -0.1446 -0.4906
  864MOL0     H16609   3.437   4.090   6.000  1.5514  1.3421  0.3369
  864MOL0     H16610   3.547   4.038   6.285 -0.5969  1.9901  1.7710
  864MOL0     H16611   3.417   4.151   6.261 -1.7933 -2.4268 -1.0273
  864MOL0     H16612   3.554   4.258   6.085 -0.7706 -0.0911 -0.0148
  864MOL0     H16613   3.608   4.263   6.251  1.4202 -1.8892  1.0955
  864MOL0     H16614   3.723   4.078   6.034 -3.0627  0.8927  0.5941
  864MOL0     H16615   3.795   4.080   6.196  0.4900 -1.2306 -1.4903
  864MOL0     H16616   3.926   4.204   6.055 -0.0711 -1.6245  0.3520
  864MOL0     H16617   3.779   4.317   6.016  1.7224  1.8938  0.9347
  864MOL0     H16618   3.792   4.378   6.260 -0.5401  1.2673 -2.0445
  864MOL0     H16619   3.909   4.447   6.149 -0.6893 -0.1248 -0.6485
  864MOL0     H16620   4.092   4.310   6.230 -1.2888 -0.6520 -0.3986
  864MOL0     H16621   3.994   4.176   6.265  4.2977 -0.4234 -3.2348
  864MOL0     H16622   3.024   3.994   6.197  0.5288 -0.2364  0.9352
  864MOL0     H16623   2.804   3.931   6.158  2.1408 -0.3048  2.1483
  864MOL0     H16624   2.448   3.569   6.076  1.0848 -0.2372 -1.9982
  864MOL0     H16625   2.210   3.560   6.076 -0.5822  1.2718 -1.1838
  864MOL0     H16626   0.399   3.242   6.730 -1.7417 -0.4800 -0.1271
  864MOL0     H16627   0.163   3.299   6.722  1.4871 -1.6453  1.3329
  864MOL0     H16628  -0.174   3.580   6.811  3.6849 -1.8433 -2.0306
  864MOL0     H16629  -0.414   3.591   6.833 -1.8664 -1.1575 -0.6801
  864MOL0     H16630  -0.646   3.657   6.457 -2.4925  1.3430 -0.7657
  864MOL0     H16631  -0.669   3.474   6.469 -1.6968 -0.8139  2.5218
  864MOL0     H16632  -0.877   3.601   6.463  2.7172 -0.9585 -2.6252
  864MOL0     H16633  -0.832   3.703   6.599 -1.3434 -1.4036  1.2725
  864MOL0     H16634  -0.811   3.508   6.741  0.3031  0.6739  0.0198
  864MOL0     H16635  -0.882   3.405   6.610  4.5682  0.4394  0.8661
  864MOL0     H16636  -1.046   3.470   6.786 -2.9498  3.7850  3.4400
  864MOL0     H16637  -1.097   3.515   6.626 -0.9822 -2.4789  2.7128
  864MOL0     H16638  -1.083   3.891   6.778 -0.6764  0.4113 -0.8273
  864MOL0     H16639  -0.452   3.539   6.413 -0.1267  2.9338  0.1258
  864MOL0     H16640  -0.204   3.561   6.390  2.4641  0.6686  0.1919
  865MOL0     O16641   1.587   7.033   3.216 -0.8642 -0.3974  0.1348
  865MOL0     C16642   1.702   7.028   3.256 -0.4692 -0.6697  0.0970
  865MOL0     O16643   1.758   6.925   3.323 -0.4476  0.7205  1.2709
  865MOL0     C16644   1.691   6.809   3.347 -0.6587 -0.1769  0.3017
  865MOL0     C16645   1.659   6.732   3.237  0.8681  0.5133  0.4051
  865MOL0     C16646   1.587   6.613   3.257 -0.1755 -0.1377  0.2137
  865MOL0     C16647   1.554   6.566   3.385 -0.5398  0.0772 -0.2431
  865MOL0     O16648   1.492   6.449   3.416  0.5985  0.0431  0.1835
  865MOL0     C16649   1.538   6.345   3.329 -0.3243  0.3284  0.8822
  865MOL0     C16650   1.497   6.219   3.399 -0.0770  0.4441 -0.1286
  865MOL0     C16651   1.342   6.198   3.421 -0.0076 -0.9092 -0.9058
  865MOL0     C16652   1.293   6.236   3.566  0.6147  0.6018 -0.1123
  865MOL0     C16653   1.139   6.229   3.587 -0.7832  0.1981 -0.4605
  865MOL0     C16654   1.090   6.090   3.602  0.2047  0.7487  0.6182
  865MOL0     C16655   0.941   6.068   3.640  0.3626 -0.9216 -0.1950
  865MOL0     C16656   0.888   5.926   3.619 -0.1960 -0.1452  0.5444
  865MOL0     N16657   0.759   5.900   3.682  0.9483  0.2741  0.2674
  865MOL0     C16658   0.638   5.941   3.630  0.1955 -0.7412 -1.1739
  865MOL0     C16659   0.542   5.897   3.715  0.5609 -0.6004  0.0814
  865MOL0     C16660   0.399   5.920   3.695  0.4574 -0.6958 -0.1880
  865MOL0     C16661   0.354   6.045   3.778  0.3810 -0.2291 -0.3575
  865MOL0     C16662   0.367   6.034   3.930 -0.5118 -0.8083  0.2598
  865MOL0     C16663   0.280   6.130   4.012  0.3086 -0.0835  0.0635
  865MOL0     O16664   0.340   6.134   4.147  0.0596  0.1378 -0.0863
  865MOL0     C16665   0.295   6.044   4.245 -0.8936  0.5223 -0.2090
  865MOL0     C16666   0.188   5.961   4.230  0.3249  0.0800 -2.0496
  865MOL0     C16667   0.143   5.885   4.340  0.4132 -0.1934  1.0615
  865MOL0     C16668   0.047   5.778   4.296  0.1020 -0.4449 -0.1792
  865MOL0     C16669   0.205   5.894   4.461 -0.3229  0.7190  0.2317
  865MOL0     C16670   0.167   5.810   4.582 -0.6743 -0.6275 -0.6021
  865MOL0     O16671   0.232   5.855   4.692 -0.2066 -0.2395 -0.2222
  865MOL0     C16672   0.245   5.784   4.807  0.6220  0.3602 -0.9422
  865MOL0     C16673   0.145   5.703   4.864  0.6319 -0.3956  0.6629
  865MOL0     C16674   0.157   5.658   4.997 -0.0670  0.8841 -0.3044
  865MOL0     C16675   0.257   5.696   5.080  0.8583 -0.0894  0.3370
  865MOL0     O16676   0.266   5.635   5.198  0.2789  0.4429  0.0900
  865MOL0     C16677   0.339   5.706   5.299 -0.5845  1.0057 -0.4327
  865MOL0     C16678   0.340   5.622   5.429  0.6826 -0.6401 -0.2724
  865MOL0     C16679   0.199   5.587   5.487  0.7538  0.3172  0.0070
  865MOL0     C16680   0.137   5.718   5.541  0.3530  0.5564 -0.5532
  865MOL0     C16681  -0.016   5.707   5.586  0.5577  0.8939 -0.1042
  865MOL0     C16682  -0.132   5.702   5.479  0.1528  0.3513  0.2107
  865MOL0     C16683  -0.123   5.805   5.363  0.3322  0.0507  0.6293
  865MOL0     C16684  -0.255   5.801   5.279 -0.2704  0.6356 -0.7361
  865MOL0    Cl16685  -0.256   5.932   5.154  0.2401 -0.2860 -0.1259
  865MOL0     C16686   0.353   5.779   5.027  0.0555 -0.3685  1.2248
  865MOL0     C16687   0.351   5.820   4.896 -0.2308  0.6145  0.0620
  865MOL0     O16688   0.095   5.719   4.572 -0.1137 -0.5611  0.2693
  865MOL0     C16689   0.316   5.988   4.476 -0.4057  0.3726  0.7384
  865MOL0     C16690   0.353   6.060   4.366 -0.2382  0.0569 -0.6745
  865MOL0     N16691   0.619   5.836   3.817  0.5817 -1.1441  0.8082
  865MOL0     N16692   0.748   5.838   3.799 -0.1701 -0.4718 -0.5181
  865MOL0     C16693   1.586   6.654   3.493 -0.8845 -0.1726 -0.1107
  865MOL0     C16694   1.664   6.766   3.477  0.2179 -0.1482  0.0454
  865MOL0     C16695   1.787   7.139   3.215 -1.3213 -0.5305  0.5553
  865MOL0     C16696   1.754   7.221   3.107  0.6600  0.1405 -0.0853
  865MOL0     C16697   1.825   7.334   3.077 -0.6981  0.0301 -0.9289
  865MOL0     C16698   1.951   7.357   3.140 -0.3354 -0.0930 -0.0103
  865MOL0     O16699   2.024   7.473   3.118 -0.4751 -0.4526  0.2908
  865MOL0     C16700   2.077   7.485   2.987 -0.4390 -0.7688 -0.8476
  865MOL0     C16701   2.217   7.546   2.985 -0.8093 -1.0882 -0.0287
  865MOL0     C16702   2.209   7.684   3.044 -0.3202  0.0566  0.2369
  865MOL0     C16703   2.335   7.761   3.068  0.5230 -0.3003 -0.2221
  865MOL0     C16704   2.419   7.693   3.171  0.8837  0.0845 -1.0725
  865MOL0     C16705   2.498   7.638   3.247 -0.3663  0.1003  0.5156
  865MOL0     C16706   1.988   7.271   3.243 -0.5261  0.0750 -0.6003
  865MOL0     C16707   1.910   7.158   3.287 -0.2703 -0.2842 -0.4739
  865MOL0     H16708   1.677   6.755   3.132 -4.6481  1.9742 -0.5813
  865MOL0     H16709   1.544   6.559   3.173 -0.4459  0.5001 -0.0619
  865MOL0     H16710   1.500   6.353   3.227  3.6595  2.5964 -0.6317
  865MOL0     H16711   1.645   6.344   3.310 -0.4502 -2.0922 -0.0901
  865MOL0     H16712   1.533   6.138   3.335 -0.1272  0.8125 -0.6270
  865MOL0     H16713   1.555   6.209   3.492  1.4900 -0.5566 -1.1540
  865MOL0     H16714   1.300   6.260   3.342  2.6327  0.2085 -1.5634
  865MOL0     H16715   1.311   6.094   3.410 -0.8725 -0.8517  0.6523
  865MOL0     H16716   1.329   6.164   3.640  0.4094  0.1687 -0.4300
  865MOL0     H16717   1.338   6.333   3.589 -0.0325  0.7585  0.5045
  865MOL0     H16718   1.100   6.271   3.680  2.2396 -3.0024  2.5462
  865MOL0     H16719   1.098   6.273   3.495  0.4803 -0.9006 -1.5871
  865MOL0     H16720   1.110   6.037   3.508 -2.3916  3.2295 -1.4784
  865MOL0     H16721   1.138   6.035   3.684 -1.1302 -2.7786 -0.7965
  865MOL0     H16722   0.938   6.097   3.746  2.7413  0.2301 -0.3823
  865MOL0     H16723   0.872   6.139   3.592  0.1914 -0.1476  1.1373
  865MOL0     H16724   0.958   5.855   3.665 -0.9882 -0.6603  0.9611
  865MOL0     H16725   0.889   5.910   3.511 -2.2867  0.6619  0.3667
  865MOL0     H16726   0.626   5.990   3.534 -2.0075 -0.4025 -0.7610
  865MOL0     H16727   0.380   5.923   3.587 -2.9903 -0.3537  0.3317
  865MOL0     H16728   0.353   5.829   3.734 -0.8204 -0.3047 -0.7407
  865MOL0     H16729   0.252   6.070   3.749  1.2108  1.6523 -1.8829
  865MOL0     H16730   0.417   6.125   3.738  2.2994 -3.4388 -4.5190
  865MOL0     H16731   0.473   6.054   3.948 -0.7083  1.4070 -0.6801
  865MOL0     H16732   0.345   5.932   3.961 -5.2882  0.4453  1.9440
  865MOL0     H16733   0.172   6.116   4.007  0.2528  0.1474  0.6061
  865MOL0     H16734   0.297   6.232   3.975 -0.1200  0.8766  2.3631
  865MOL0     H16735   0.122   5.956   4.144 -1.5333  1.2965 -0.7818
  865MOL0     H16736  -0.045   5.771   4.355 -0.8648  2.8111 -1.0715
  865MOL0     H16737   0.010   5.794   4.194  0.7386  3.3556  0.0227
  865MOL0     H16738   0.099   5.682   4.299  1.3279  0.1885 -0.2080
  865MOL0     H16739   0.050   5.697   4.811  0.6364 -0.9325  0.7091
  865MOL0     H16740   0.082   5.584   5.019 -0.2649 -0.0045 -3.3998
  865MOL0     H16741   0.442   5.719   5.263 -0.2455 -0.3146  0.0224
  865MOL0     H16742   0.287   5.801   5.315  0.4327  1.3393  1.1588
  865MOL0     H16743   0.397   5.530   5.409  2.6760  0.9699 -2.6805
  865MOL0     H16744   0.390   5.687   5.501  0.2969 -0.4548 -0.1673
  865MOL0     H16745   0.203   5.513   5.568 -5.0463  1.3613  1.7123
  865MOL0     H16746   0.135   5.544   5.409 -0.8288  0.2018  1.3094
  865MOL0     H16747   0.201   5.749   5.625  1.7273  2.4574 -2.2146
  865MOL0     H16748   0.139   5.790   5.460  0.4756  1.6125  0.3662
  865MOL0     H16749  -0.020   5.792   5.654 -0.1072 -0.4630  1.6333
  865MOL0     H16750  -0.011   5.622   5.654  1.0047  0.6268 -0.4635
  865MOL0     H16751  -0.135   5.601   5.438  3.3080 -0.3758  1.5001
  865MOL0     H16752  -0.217   5.730   5.543 -0.8920 -1.2469 -0.4149
  865MOL0     H16753  -0.043   5.776   5.294  0.0172  1.2211 -0.2591
  865MOL0     H16754  -0.094   5.902   5.405 -2.4408  0.5083  1.6847
  865MOL0     H16755  -0.344   5.810   5.342  0.6949  3.4789  0.3937
  865MOL0     H16756  -0.265   5.710   5.219  1.0105  0.9369 -1.4684
  865MOL0     H16757   0.449   5.806   5.070  0.8904 -0.3676 -0.5799
  865MOL0     H16758   0.422   5.891   4.855  0.3689 -1.9611 -3.7910
  865MOL0     H16759   0.364   6.001   4.572  1.0111 -3.4071  0.7195
  865MOL0     H16760   0.444   6.118   4.378 -1.1649  1.7257 -1.3782
  865MOL0     H16761   1.573   6.632   3.599  2.6771 -1.8789  0.1304
  865MOL0     H16762   1.700   6.827   3.559 -0.2427  0.5390 -0.2455
  865MOL0     H16763   1.659   7.212   3.057  0.0496  2.8768  0.4132
  865MOL0     H16764   1.779   7.409   3.013 -2.7013 -1.4297 -1.2908
  865MOL0     H16765   2.068   7.387   2.938 -2.1237 -1.3509  0.4985
  865MOL0     H16766   2.009   7.546   2.928 -1.7022 -1.5457 -0.2282
  865MOL0     H16767   2.247   7.546   2.880  1.2523 -0.6657  0.5135
  865MOL0     H16768   2.290   7.478   3.030  0.0920 -1.5863 -2.1316
  865MOL0     H16769   2.141   7.682   3.130  1.8267 -4.7531  2.2246
  865MOL0     H16770   2.161   7.752   2.973 -1.7344  3.0405  3.7073
  865MOL0     H16771   2.320   7.865   3.097  0.5284 -0.5761  0.8154
  865MOL0     H16772   2.389   7.739   2.975 -1.2373  0.9526 -1.5835
  865MOL0     H16773   2.568   7.592   3.313 -0.4803  2.3036  2.2752
  865MOL0     H16774   2.076   7.292   3.303 -1.2061 -1.4658  1.0342
  865MOL0     H16775   1.942   7.094   3.368  3.0292  0.8010 -0.7908
  866MOL0     O16776  10.954   2.079  10.301  0.1827 -0.0889 -0.3424
  866MOL0     C16777  10.992   1.981  10.366  0.0951  0.2560  0.2362
  866MOL0     O16778  10.911   1.880  10.407 -0.5093 -0.4831  0.5238
  866MOL0     C16779  10.781   1.856  10.368 -0.4893 -0.6010 -1.0174
  866MOL0     C16780  10.734   1.723  10.362 -0.6879 -0.3233  0.1036
  866MOL0     C16781  10.607   1.686  10.317 -0.3758 -0.7536  0.6143
  866MOL0     C16782  10.519   1.795  10.282  0.3703 -1.7230 -0.6454
  866MOL0     O16783  10.383   1.778  10.254  0.7870  0.6554 -0.0321
  866MOL0     C16784  10.307   1.683  10.342 -0.2935  0.0223 -0.3182
  866MOL0     C16785  10.154   1.708  10.329 -0.7617  0.3209  0.1720
  866MOL0     C16786  10.072   1.593  10.396 -0.1236  0.2120  0.6870
  866MOL0     C16787   9.923   1.596  10.345 -1.0956  0.0439 -0.0870
  866MOL0     C16788   9.823   1.494  10.400 -0.8010 -0.5382  0.0507
  866MOL0     C16789   9.680   1.515  10.351 -0.1375  0.2294 -0.0608
  866MOL0     C16790   9.656   1.453  10.216 -0.5251 -0.1549 -0.0422
  866MOL0     C16791   9.508   1.409  10.188 -0.8358  0.3771 -0.0929
  866MOL0     N16792   9.423   1.525  10.171  0.1528 -0.3189  0.3015
  866MOL0     C16793   9.370   1.614  10.263 -0.1396 -0.8942  0.3376
  866MOL0     C16794   9.264   1.680  10.210 -0.0085  0.9093 -0.1472
  866MOL0     C16795   9.182   1.790  10.265 -0.0361 -0.0914 -0.5667
  866MOL0     C16796   9.037   1.793  10.226 -0.0577 -0.5680  0.1742
  866MOL0     C16797   9.019   1.840  10.076 -0.4297 -0.5232  0.3340
  866MOL0     C16798   8.904   1.771   9.997 -0.3732 -0.1717 -0.2092
  866MOL0     O16799   8.780   1.758  10.065  0.7904  0.4592  0.6782
  866MOL0     C16800   8.660   1.760   9.992  0.6573  0.4706 -0.2058
  866MOL0     C16801   8.658   1.744   9.851 -0.0179 -0.1973 -0.6553
  866MOL0     C16802   8.539   1.752   9.779  0.1561 -0.8995  0.4002
  866MOL0     C16803   8.554   1.723   9.632 -0.3220  0.7491 -0.5101
  866MOL0     C16804   8.417   1.796   9.836  0.7957  0.0471 -1.2230
  866MOL0     C16805   8.278   1.822   9.777 -0.0786  0.8031 -0.3837
  866MOL0     O16806   8.182   1.842   9.872 -0.1136 -0.1868 -0.2289
  866MOL0     C16807   8.048   1.841   9.840  0.3235 -0.8401  1.2013
  866MOL0     C16808   7.949   1.769   9.907  0.1445 -0.1336 -0.1944
  866MOL0     C16809   7.809   1.786   9.882 -0.4882 -1.2569 -0.4772
  866MOL0     C16810   7.765   1.876   9.784 -0.4367 -0.0797 -0.3365
  866MOL0     O16811   7.629   1.893   9.770 -0.1119 -0.1954  0.1983
  866MOL0     C16812   7.574   1.947   9.642 -0.1492 -0.6011  0.2482
  866MOL0     C16813   7.430   1.960   9.628  0.6358 -0.1135 -1.2719
  866MOL0     C16814   7.353   1.830   9.665 -0.7797  0.2531  0.0930
  866MOL0     C16815   7.198   1.836   9.639 -0.6113 -0.6078 -0.4463
  866MOL0     C16816   7.119   1.702   9.663  0.2016 -0.4670  0.6495
  866MOL0     C16817   6.971   1.714   9.659  0.1907 -0.1323 -0.5638
  866MOL0     C16818   6.913   1.577   9.672  0.8111 -0.8181  0.7578
  866MOL0     C16819   6.762   1.564   9.682  0.3025 -0.7703 -0.5336
  866MOL0    Cl16820   6.686   1.566   9.533 -0.0909 -0.3625  0.0445
  866MOL0     C16821   7.866   1.943   9.711  0.0597  0.1447  0.6676
  866MOL0     C16822   8.001   1.932   9.749  0.2637  0.0770  0.7415
  866MOL0     O16823   8.253   1.779   9.666 -0.4469 -0.2114 -0.5502
  866MOL0     C16824   8.429   1.825   9.979  0.0110  0.0216 -0.3195
  866MOL0     C16825   8.551   1.803  10.052  0.5592 -0.5152 -0.5985
  866MOL0     N16826   9.257   1.638  10.079 -0.4344  0.1781 -0.0730
  866MOL0     N16827   9.345   1.548  10.058 -0.7534 -1.0008 -0.0824
  866MOL0     C16828  10.560   1.927  10.296 -0.2615 -0.5140  0.3734
  866MOL0     C16829  10.687   1.955  10.340  0.6704 -0.0379 -0.1961
  866MOL0     C16830  11.131   1.952  10.379  0.2778 -0.0354  0.9762
  866MOL0     C16831  11.176   1.825  10.421 -0.2043 -0.8958 -0.1206
  866MOL0     C16832  11.310   1.810  10.445 -0.4066  0.2616  0.1136
  866MOL0     C16833  11.403   1.904  10.423 -0.1284 -0.9252  0.8040
  866MOL0     O16834  11.536   1.872  10.448  1.2069  0.5964 -0.4840
  866MOL0     C16835  11.623   1.983  10.479 -0.5419 -0.3998 -0.2033
  866MOL0     C16836  11.748   1.911  10.524  0.5091  0.0998  1.5595
  866MOL0     C16837  11.843   2.017  10.569  0.1896 -0.8242  0.1217
  866MOL0     C16838  11.993   1.978  10.608  0.0108 -1.2934  0.4232
  866MOL0     C16839  12.050   1.880  10.525  0.1858  0.7117 -0.7530
  866MOL0     C16840  12.125   1.803  10.467 -0.6532 -0.1909  0.4390
  866MOL0     C16841  11.367   2.026  10.355 -0.5937 -0.9557  0.2961
  866MOL0     C16842  11.227   2.052  10.346 -0.3979  0.5843 -0.3942
  866MOL0     H16843  10.803   1.642  10.382  2.4910  2.1214 -0.1408
  866MOL0     H16844  10.604   1.578  10.306  1.4144 -0.6102 -2.2719
  866MOL0     H16845  10.331   1.577  10.327  0.4360  0.3194 -1.3905
  866MOL0     H16846  10.331   1.718  10.443 -1.6310  1.7466 -0.5493
  866MOL0     H16847  10.136   1.806  10.374 -0.8658 -0.4341  1.8687
  866MOL0     H16848  10.123   1.712  10.224 -3.0119  0.0896  0.7576
  866MOL0     H16849  10.114   1.499  10.359  1.3396  1.6048 -1.4457
  866MOL0     H16850  10.077   1.591  10.505 -0.3077  1.2901  0.7212
  866MOL0     H16851   9.881   1.696  10.354  2.4091  1.5497  1.6243
  866MOL0     H16852   9.921   1.565  10.240  0.2546  2.1882 -0.8104
  866MOL0     H16853   9.858   1.395  10.371 -0.2302 -0.2110 -0.3971
  866MOL0     H16854   9.832   1.490  10.509  1.2473  1.2606  0.0188
  866MOL0     H16855   9.598   1.484  10.416 -0.7778  2.6266  0.3982
  866MOL0     H16856   9.672   1.624  10.347  0.7519  0.5219  3.3116
  866MOL0     H16857   9.703   1.512  10.137 -0.9680  1.4370  0.8468
  866MOL0     H16858   9.711   1.358  10.208  1.6239  1.1109 -1.5234
  866MOL0     H16859   9.469   1.339  10.263 -1.7927 -0.2023 -1.1097
  866MOL0     H16860   9.525   1.355  10.095  1.5641 -1.4782  1.2939
  866MOL0     H16861   9.393   1.637  10.367 -1.6035  0.3451  0.4216
  866MOL0     H16862   9.177   1.787  10.374  2.1174  2.0789 -0.3047
  866MOL0     H16863   9.225   1.889  10.245  3.3289 -1.1911  0.5312
  866MOL0     H16864   8.991   1.866  10.292  1.4187  0.3742  0.2092
  866MOL0     H16865   8.988   1.699  10.252 -0.7172 -0.2752 -0.0018
  866MOL0     H16866   9.104   1.821  10.010 -0.5630 -3.5802  0.9075
  866MOL0     H16867   8.992   1.945  10.086 -1.6345 -0.9178  1.5779
  866MOL0     H16868   8.940   1.679   9.951  1.5865 -0.8583  2.4429
  866MOL0     H16869   8.897   1.846   9.918 -0.4488  1.2354  1.0785
  866MOL0     H16870   8.745   1.706   9.798  0.5980 -1.4329  1.1598
  866MOL0     H16871   8.637   1.653   9.614 -2.2923 -1.1350 -2.9402
  866MOL0     H16872   8.461   1.671   9.609  0.3080 -0.0445 -1.3731
  866MOL0     H16873   8.546   1.810   9.566 -1.3722  2.0089  1.2088
  866MOL0     H16874   7.968   1.695   9.984 -0.1821  0.2793  0.2884
  866MOL0     H16875   7.731   1.740   9.942 -1.0189 -0.4684 -0.5354
  866MOL0     H16876   7.622   2.044   9.628  1.1323 -1.0370  1.4130
  866MOL0     H16877   7.610   1.895   9.552 -0.7510  3.8011 -2.8842
  866MOL0     H16878   7.391   2.029   9.704 -1.2993 -3.0365  0.6067
  866MOL0     H16879   7.401   1.992   9.527  2.1048 -0.0092 -1.6719
  866MOL0     H16880   7.367   1.793   9.767 -0.7748 -1.9282 -0.6430
  866MOL0     H16881   7.398   1.756   9.599 -2.6003  0.9869 -2.1157
  866MOL0     H16882   7.147   1.912   9.699 -0.0064  2.3392 -3.3371
  866MOL0     H16883   7.197   1.866   9.533  0.2768  3.5729  0.5316
  866MOL0     H16884   7.152   1.652   9.755  2.3051  1.4509  1.0278
  866MOL0     H16885   7.146   1.649   9.572 -0.8528  0.0890 -0.0143
  866MOL0     H16886   6.935   1.782   9.736  1.4115  1.6153 -1.4588
  866MOL0     H16887   6.945   1.762   9.564  2.8036 -0.5162 -1.5458
  866MOL0     H16888   6.943   1.539   9.770  0.0833 -0.4578  1.1296
  866MOL0     H16889   6.957   1.512   9.596  1.4264  1.1279 -0.6297
  866MOL0     H16890   6.726   1.653   9.734  1.1313  0.9144 -2.6724
  866MOL0     H16891   6.726   1.477   9.739  0.9758  0.6997  2.3239
  866MOL0     H16892   7.827   2.017   9.643  0.1562 -1.1913 -0.9104
  866MOL0     H16893   8.071   1.990   9.689  0.1517  0.0937  0.6271
  866MOL0     H16894   8.342   1.867  10.030 -1.7433 -2.7549 -0.7969
  866MOL0     H16895   8.559   1.825  10.158 -1.5475  2.1762 -0.8889
  866MOL0     H16896  10.484   1.998  10.266 -0.4047 -0.5149  0.7227
  866MOL0     H16897  10.698   2.063  10.345  0.3427 -0.0490  1.5233
  866MOL0     H16898  11.110   1.741  10.441 -0.9643 -1.3614 -3.8668
  866MOL0     H16899  11.329   1.711  10.485 -1.2232 -0.3214 -0.8769
  866MOL0     H16900  11.626   2.061  10.402  0.6527 -0.3604 -0.1381
  866MOL0     H16901  11.589   2.031  10.572  0.3264 -2.2166  1.1024
  866MOL0     H16902  11.768   1.869  10.425 -1.7574 -0.3282  1.2283
  866MOL0     H16903  11.732   1.828  10.593 -2.1406 -0.3693  0.4981
  866MOL0     H16904  11.802   2.064  10.659  0.9256  0.0019  0.0426
  866MOL0     H16905  11.848   2.104  10.503  3.2999 -2.1097 -1.5304
  866MOL0     H16906  12.008   1.954  10.714 -0.1216  1.1175  1.0439
  866MOL0     H16907  12.057   2.066  10.605 -1.1781 -0.4226 -0.1478
  866MOL0     H16908  12.188   1.735  10.413 -1.5707 -1.3439  0.7757
  866MOL0     H16909  11.444   2.085  10.306 -0.1149 -2.4080 -0.7975
  866MOL0     H16910  11.202   2.151  10.310  1.7074  0.3268 -2.8523
  867MOL0     O16911   8.535   0.217   0.493 -0.0141 -0.2269  0.0520
  867MOL0     C16912   8.490   0.123   0.425 -0.7527 -0.2009 -0.2192
  867MOL0     O16913   8.540  -0.007   0.434 -0.1343  0.0168  1.1123
  867MOL0     C16914   8.651  -0.040   0.511 -0.7595  1.1885 -0.6987
  867MOL0     C16915   8.776   0.026   0.497  1.1675  0.3188  0.7711
  867MOL0     C16916   8.884  -0.020   0.575 -0.5144 -0.2245  0.6453
  867MOL0     C16917   8.873  -0.126   0.655  0.3546  0.4303 -0.5612
  867MOL0     O16918   8.977  -0.172   0.740 -0.2840  0.0988  0.3165
  867MOL0     C16919   9.101  -0.109   0.766  0.3575  0.1689  0.1624
  867MOL0     C16920   9.217  -0.178   0.696 -0.2034  1.4028  0.4704
  867MOL0     C16921   9.265  -0.297   0.786  0.5410 -0.0402  0.4230
  867MOL0     C16922   9.299  -0.417   0.702 -0.4850  0.9813 -0.6361
  867MOL0     C16923   9.333  -0.528   0.802 -1.2913 -0.2044 -0.8415
  867MOL0     C16924   9.464  -0.506   0.884 -0.4212  0.0998 -0.0565
  867MOL0     C16925   9.538  -0.633   0.943 -0.1896 -0.5165  0.9381
  867MOL0     C16926   9.505  -0.651   1.082 -0.2752 -0.2251 -0.1924
  867MOL0     N16927   9.364  -0.701   1.102 -0.0074 -1.0796  0.2764
  867MOL0     C16928   9.322  -0.831   1.142 -0.3377 -0.4625  0.8808
  867MOL0     C16929   9.187  -0.829   1.153 -0.2619 -0.2173 -0.8237
  867MOL0     C16930   9.101  -0.945   1.197 -0.3366 -0.1838  0.5754
  867MOL0     C16931   8.985  -0.949   1.097  0.6983 -0.3295  0.2096
  867MOL0     C16932   8.852  -0.982   1.166 -0.6708 -0.0591 -0.8001
  867MOL0     C16933   8.735  -0.952   1.064 -0.3720 -0.9197 -0.0032
  867MOL0     O16934   8.639  -0.874   1.136 -0.5073 -0.4425  0.0150
  867MOL0     C16935   8.526  -0.942   1.192 -0.1693 -0.2840 -0.6264
  867MOL0     C16936   8.443  -0.864   1.278 -0.5972 -0.0245  0.5343
  867MOL0     C16937   8.342  -0.913   1.354 -0.1706  0.1583 -0.0520
  867MOL0     C16938   8.290  -0.809   1.451 -0.9565  0.0361 -0.0418
  867MOL0     C16939   8.306  -1.048   1.337 -0.1460 -0.0912 -0.0654
  867MOL0     C16940   8.187  -1.103   1.412 -0.6320 -0.1732 -0.6546
  867MOL0     O16941   8.107  -1.021   1.489 -0.7779  0.8197 -0.4070
  867MOL0     C16942   8.002  -1.081   1.558 -0.4084 -0.0326  0.0328
  867MOL0     C16943   8.029  -1.153   1.671  0.7692  0.7940 -0.4556
  867MOL0     C16944   7.923  -1.191   1.754  0.4366  0.1873  0.1316
  867MOL0     C16945   7.791  -1.157   1.722  0.4222  0.1881 -0.4254
  867MOL0     O16946   7.692  -1.223   1.795 -0.0673  0.2307 -0.4126
  867MOL0     C16947   7.572  -1.146   1.842 -0.6116 -1.0219  0.2784
  867MOL0     C16948   7.463  -1.246   1.880 -0.0379  0.0155 -0.0190
  867MOL0     C16949   7.424  -1.347   1.769  0.1360 -0.6115  0.5249
  867MOL0     C16950   7.324  -1.299   1.655 -0.3497 -0.0850 -0.5657
  867MOL0     C16951   7.343  -1.367   1.521  0.7796  0.0720 -0.4453
  867MOL0     C16952   7.465  -1.317   1.444  0.3204  0.1928 -0.5679
  867MOL0     C16953   7.469  -1.361   1.292  0.3716 -0.1411 -0.8271
  867MOL0     C16954   7.585  -1.286   1.218  0.3107 -0.1778 -0.1769
  867MOL0    Cl16955   7.537  -1.119   1.236  0.1226 -0.0559  0.3337
  867MOL0     C16956   7.762  -1.102   1.600  0.8515  0.6998  0.1207
  867MOL0     C16957   7.872  -1.065   1.520  0.3873  0.5896 -0.7665
  867MOL0     O16958   8.174  -1.215   1.398  0.8813  0.9180 -0.1874
  867MOL0     C16959   8.374  -1.127   1.240 -0.5812  1.3746  1.0351
  867MOL0     C16960   8.485  -1.075   1.172  0.3444  0.3325 -0.1992
  867MOL0     N16961   9.151  -0.703   1.135 -1.0562 -0.6014  0.2771
  867MOL0     N16962   9.251  -0.626   1.110 -0.1273  0.0623  0.6802
  867MOL0     C16963   8.754  -0.197   0.653  0.3522  0.4712  0.1714
  867MOL0     C16964   8.640  -0.162   0.583 -0.0503  0.1007 -0.6862
  867MOL0     C16965   8.382   0.132   0.318  0.1705 -0.0759 -0.3782
  867MOL0     C16966   8.348   0.012   0.249 -0.9836 -0.9258  0.0223
  867MOL0     C16967   8.257   0.021   0.145 -0.3334 -0.1338 -0.0582
  867MOL0     C16968   8.184   0.135   0.122 -0.3696 -0.4299  0.1927
  867MOL0     O16969   8.090   0.131   0.026 -0.2234  0.7903 -0.3877
  867MOL0     C16970   7.994   0.237   0.023  0.0745 -0.1913 -0.4853
  867MOL0     C16971   7.883   0.197  -0.075 -0.6209 -0.4537  0.3260
  867MOL0     C16972   7.808   0.323  -0.120 -0.0319 -0.2070  0.2514
  867MOL0     C16973   7.714   0.287  -0.240 -1.0200 -1.0079  0.0131
  867MOL0     C16974   7.608   0.193  -0.198  0.4798 -0.6062 -0.8556
  867MOL0     C16975   7.505   0.129  -0.170 -0.0208 -0.0444  0.7268
  867MOL0     C16976   8.218   0.256   0.199  0.5195 -0.0263  0.6663
  867MOL0     C16977   8.320   0.257   0.292 -0.2403  0.4656  0.0073
  867MOL0     H16978   8.771   0.111   0.431  1.8372 -0.0992  0.1682
  867MOL0     H16979   8.974   0.039   0.564 -0.6619  0.3418  2.2609
  867MOL0     H16980   9.089  -0.006   0.729 -0.2829  0.8195  2.0460
  867MOL0     H16981   9.120  -0.115   0.873  1.8217 -4.5153 -0.1311
  867MOL0     H16982   9.185  -0.218   0.599  3.1788 -0.6286  0.0329
  867MOL0     H16983   9.299  -0.106   0.680  0.6447  0.7301  1.6347
  867MOL0     H16984   9.349  -0.268   0.850  0.7199  0.4607 -0.0318
  867MOL0     H16985   9.178  -0.329   0.844  0.2893  0.6853  0.4471
  867MOL0     H16986   9.216  -0.455   0.642  2.0891 -3.2781 -1.9807
  867MOL0     H16987   9.386  -0.390   0.641 -0.8700 -2.1245 -2.8232
  867MOL0     H16988   9.251  -0.535   0.874 -1.0332  1.5416 -0.3324
  867MOL0     H16989   9.336  -0.621   0.745 -0.2744  0.0001 -1.1566
  867MOL0     H16990   9.525  -0.457   0.807  0.9950 -0.4437  0.6902
  867MOL0     H16991   9.443  -0.434   0.963 -1.7398 -1.1518  0.7760
  867MOL0     H16992   9.503  -0.719   0.887 -0.1382 -0.7830  1.3109
  867MOL0     H16993   9.643  -0.615   0.919 -1.1731 -0.3792 -4.2232
  867MOL0     H16994   9.527  -0.560   1.140 -0.2906 -1.6659  2.2266
  867MOL0     H16995   9.568  -0.725   1.133  1.1331  0.2081 -1.2445
  867MOL0     H16996   9.388  -0.917   1.151  0.2523 -0.1046  0.0777
  867MOL0     H16997   9.159  -1.037   1.207  3.5103  1.9460  0.0240
  867MOL0     H16998   9.054  -0.920   1.293  1.4045  3.5888  0.6405
  867MOL0     H16999   9.002  -1.025   1.019 -1.4814 -2.5429  1.7689
  867MOL0     H17000   8.970  -0.849   1.055  1.5128 -0.8107 -1.3425
  867MOL0     H17001   8.840  -0.931   1.262  1.5355 -0.1286 -0.4531
  867MOL0     H17002   8.840  -1.091   1.174 -4.0997  0.0221 -2.7237
  867MOL0     H17003   8.690  -1.046   1.030 -0.6921 -1.5556  2.0674
  867MOL0     H17004   8.766  -0.895   0.975  1.7052 -1.3570  0.3863
  867MOL0     H17005   8.461  -0.757   1.276 -0.9655  0.0292 -0.7600
  867MOL0     H17006   8.285  -0.846   1.554 -3.2089  1.7298  0.5359
  867MOL0     H17007   8.358  -0.723   1.456  0.2282 -0.5352 -3.4861
  867MOL0     H17008   8.193  -0.768   1.422  0.1374  0.1937 -4.0206
  867MOL0     H17009   8.134  -1.159   1.699  1.2008  2.1188 -1.6350
  867MOL0     H17010   7.956  -1.247   1.841  0.4940 -0.7775 -0.4993
  867MOL0     H17011   7.592  -1.088   1.933  0.6751 -2.6146  1.0748
  867MOL0     H17012   7.537  -1.080   1.762 -1.9703 -1.9858  0.0311
  867MOL0     H17013   7.486  -1.301   1.971 -0.3704  0.2018  0.1771
  867MOL0     H17014   7.382  -1.183   1.915 -3.4866 -3.4085 -1.1262
  867MOL0     H17015   7.376  -1.429   1.822 -0.8278 -0.0025  0.6213
  867MOL0     H17016   7.514  -1.376   1.715 -1.3270  1.1775 -3.2772
  867MOL0     H17017   7.222  -1.321   1.688 -0.5547 -0.2747 -1.3045
  867MOL0     H17018   7.337  -1.192   1.638 -0.3663 -0.2416 -1.6109
  867MOL0     H17019   7.258  -1.330   1.463 -0.0443  1.5005  1.5455
  867MOL0     H17020   7.344  -1.476   1.529 -0.1828  0.0624 -0.3482
  867MOL0     H17021   7.462  -1.209   1.464 -1.5649 -0.3276  2.5236
  867MOL0     H17022   7.556  -1.345   1.498  0.5458 -2.2698 -2.0852
  867MOL0     H17023   7.370  -1.338   1.252  0.3602 -1.5695 -1.6645
  867MOL0     H17024   7.475  -1.468   1.270 -2.7146 -0.5718 -0.0095
  867MOL0     H17025   7.602  -1.318   1.115  2.0280  0.8231 -0.2380
  867MOL0     H17026   7.688  -1.294   1.253  0.1843 -1.8608 -0.1176
  867MOL0     H17027   7.664  -1.103   1.553 -0.1665 -1.4790  2.1330
  867MOL0     H17028   7.848  -1.039   1.418 -0.2656 -3.0328 -1.6821
  867MOL0     H17029   8.342  -1.228   1.218  0.8840  1.1879 -0.4440
  867MOL0     H17030   8.533  -1.135   1.095  0.7347  1.4479 -0.8571
  867MOL0     H17031   8.755  -0.289   0.710  1.2825 -0.3454 -1.1038
  867MOL0     H17032   8.553  -0.225   0.570  2.0700 -2.9499 -1.3173
  867MOL0     H17033   8.411  -0.076   0.264  1.5844  0.7491 -0.2703
  867MOL0     H17034   8.222  -0.071   0.099 -1.0512 -1.4244  2.8363
  867MOL0     H17035   7.941   0.247   0.119 -1.8495 -3.9825 -0.9405
  867MOL0     H17036   8.050   0.329   0.003 -0.3882  0.9161  2.7166
  867MOL0     H17037   7.821   0.116  -0.035 -0.6190 -0.7122 -0.1838
  867MOL0     H17038   7.924   0.145  -0.162  0.0373 -1.1636  1.0431
  867MOL0     H17039   7.875   0.405  -0.146 -2.4896  1.4406 -1.2759
  867MOL0     H17040   7.751   0.367  -0.038  0.0630  0.8874 -0.2533
  867MOL0     H17041   7.766   0.250  -0.329  1.2737  0.8573  0.4885
  867MOL0     H17042   7.667   0.382  -0.266  1.0034  0.5247  1.6357
  867MOL0     H17043   7.425   0.064  -0.141  1.7201 -1.9630  1.5748
  867MOL0     H17044   8.179   0.356   0.183  0.2346  0.4731  3.8554
  867MOL0     H17045   8.329   0.349   0.348 -2.4513  1.4806 -1.1463
  868MOL0     O17046   6.901  10.029   7.393  0.4197 -0.3340 -0.2369
  868MOL0     C17047   6.837  10.027   7.498  0.7196 -0.9228 -0.0772
  868MOL0     O17048   6.697  10.047   7.508 -0.5101 -0.6892 -0.0371
  868MOL0     C17049   6.646  10.111   7.395 -0.0702 -0.2109 -0.7356
  868MOL0     C17050   6.566  10.043   7.314  0.2585 -0.0340  0.7716
  868MOL0     C17051   6.487  10.105   7.207 -0.7421 -0.1053 -0.5643
  868MOL0     C17052   6.495  10.238   7.186  1.1194  0.0594 -0.4795
  868MOL0     O17053   6.419  10.314   7.098 -0.3382 -0.2261  0.1120
  868MOL0     C17054   6.372  10.248   6.976  0.0645 -0.4407  0.1884
  868MOL0     C17055   6.258  10.340   6.918 -0.9814  0.6708 -0.0082
  868MOL0     C17056   6.315  10.443   6.820 -0.5793  0.7470  0.2451
  868MOL0     C17057   6.409  10.541   6.899 -0.2815 -0.6694  0.7956
  868MOL0     C17058   6.447  10.656   6.804  0.6332  0.6006  0.4979
  868MOL0     C17059   6.549  10.745   6.862 -0.7122  0.1842  0.9877
  868MOL0     C17060   6.533  10.893   6.820 -0.0684  0.4570  0.4704
  868MOL0     C17061   6.574  10.922   6.673 -0.1308 -0.8589  0.2721
  868MOL0     N17062   6.715  10.886   6.638  0.0334 -0.4103 -0.8703
  868MOL0     C17063   6.755  10.766   6.592 -0.3736  0.0608 -0.1848
  868MOL0     C17064   6.882  10.779   6.563  0.0125 -0.5322 -0.1616
  868MOL0     C17065   6.987  10.683   6.506 -0.6042  0.0801  0.9281
  868MOL0     C17066   6.962  10.666   6.358 -0.4096 -0.2136 -0.3132
  868MOL0     C17067   7.055  10.570   6.296  0.0623  0.0068  0.1427
  868MOL0     C17068   7.037  10.556   6.145 -0.0179  0.4962 -0.0089
  868MOL0     O17069   6.908  10.488   6.121 -1.4553  0.4105 -0.3682
  868MOL0     C17070   6.882  10.439   5.996 -0.3918 -0.3502  0.9863
  868MOL0     C17071   6.953  10.472   5.874  0.1400 -0.6207 -0.2780
  868MOL0     C17072   6.915  10.420   5.747  0.1035  0.0276  0.1628
  868MOL0     C17073   7.001  10.458   5.630 -0.2114  0.5886 -0.2908
  868MOL0     C17074   6.800  10.334   5.732 -0.0457 -0.4786 -0.8508
  868MOL0     C17075   6.761  10.262   5.612 -0.4162  0.0737  1.0258
  868MOL0     O17076   6.638  10.195   5.618  0.0963 -0.5797 -1.1829
  868MOL0     C17077   6.606  10.102   5.521 -0.0566 -0.4766  0.7686
  868MOL0     C17078   6.562   9.973   5.558  0.0830  0.4133  0.2100
  868MOL0     C17079   6.501   9.882   5.474 -0.0058  0.4757  0.1378
  868MOL0     C17080   6.481   9.920   5.340 -0.3648 -0.5310 -0.3661
  868MOL0     O17081   6.412   9.834   5.268  0.4399  0.3667 -0.1061
  868MOL0     C17082   6.447   9.820   5.132 -0.2967 -0.0705  0.6044
  868MOL0     C17083   6.337   9.740   5.063  0.4517 -0.2002 -0.6119
  868MOL0     C17084   6.400   9.644   4.978  0.2338  0.1753  0.0602
  868MOL0     C17085   6.299   9.561   4.892  0.6746 -0.1442  0.0537
  868MOL0     C17086   6.370   9.462   4.803 -0.1778  0.4962  0.0949
  868MOL0     C17087   6.462   9.532   4.688  0.0379  0.3072 -0.3373
  868MOL0     C17088   6.528   9.431   4.590  0.2920  0.4786  0.5768
  868MOL0     C17089   6.558   9.497   4.456 -0.1819 -1.1168 -0.2115
  868MOL0    Cl17090   6.680   9.636   4.475 -0.1878  0.0227 -0.2964
  868MOL0     C17091   6.544  10.047   5.290 -0.5545 -0.0329  0.2922
  868MOL0     C17092   6.591  10.144   5.385 -0.7076  0.7019 -0.1703
  868MOL0     O17093   6.837  10.256   5.512  0.5459 -0.2177 -0.1284
  868MOL0     C17094   6.729  10.321   5.855  0.6565 -0.3161 -0.4679
  868MOL0     C17095   6.772  10.361   5.981 -0.9581 -0.3524 -0.5352
  868MOL0     N17096   6.923  10.908   6.598 -0.1056 -0.1050 -0.1793
  868MOL0     N17097   6.824  10.975   6.642  0.5852  0.6214  0.5697
  868MOL0     C17098   6.587  10.307   7.270 -0.2133 -0.2751  0.1325
  868MOL0     C17099   6.651  10.242   7.379 -0.0466 -0.3876  0.0640
  868MOL0     C17100   6.922  10.009   7.613  0.1199 -0.0620 -0.3472
  868MOL0     C17101   6.853   9.951   7.734  0.3338 -0.2704  0.8719
  868MOL0     C17102   6.928   9.930   7.848  0.2382 -1.1493 -0.0947
  868MOL0     C17103   7.057   9.976   7.858 -0.4510  0.1228  0.3562
  868MOL0     O17104   7.114   9.945   7.976 -0.0864 -0.4105  0.5808
  868MOL0     C17105   7.252   9.972   7.998  0.0484  0.3370 -0.6192
  868MOL0     C17106   7.274   9.982   8.152  0.0207  0.2855  0.1623
  868MOL0     C17107   7.215  10.114   8.192  0.3874  0.2312  0.4134
  868MOL0     C17108   7.175  10.127   8.334  0.3313  0.2623  1.0672
  868MOL0     C17109   7.292  10.120   8.428  1.2894  0.5155 -0.5854
  868MOL0     C17110   7.382  10.128   8.513 -0.1489  0.8830  0.8152
  868MOL0     C17111   7.117  10.033   7.742  0.1133  0.5022  0.3242
  868MOL0     C17112   7.048  10.056   7.627  0.5092 -0.0503 -0.0281
  868MOL0     H17113   6.568   9.935   7.326  1.8109 -0.0924  0.1171
  868MOL0     H17114   6.424  10.033   7.155 -0.9382  0.4451 -1.0929
  868MOL0     H17115   6.450  10.222   6.903  1.5462 -0.1282  1.5945
  868MOL0     H17116   6.326  10.150   6.997  0.5407 -0.3896  1.5906
  868MOL0     H17117   6.190  10.273   6.865 -2.1580 -0.4942  2.7859
  868MOL0     H17118   6.201  10.392   6.995 -0.5923 -1.3594  1.7510
  868MOL0     H17119   6.374  10.395   6.742  1.5405  3.0490  0.3150
  868MOL0     H17120   6.233  10.489   6.763 -0.2195 -0.2492 -1.1333
  868MOL0     H17121   6.351  10.576   6.985  0.3153 -0.5124  1.1357
  868MOL0     H17122   6.496  10.484   6.934  0.0866 -1.2202 -0.8985
  868MOL0     H17123   6.470  10.629   6.700 -0.5904 -1.1035  0.6286
  868MOL0     H17124   6.356  10.714   6.788  0.7995  0.4835 -1.1107
  868MOL0     H17125   6.558  10.732   6.970  4.4203 -2.8487  0.5499
  868MOL0     H17126   6.646  10.707   6.829 -0.9042  1.1387 -0.8011
  868MOL0     H17127   6.426  10.916   6.834 -0.5581 -0.2038 -1.7098
  868MOL0     H17128   6.598  10.949   6.887 -0.0737  0.0145  0.8494
  868MOL0     H17129   6.557  11.027   6.649  5.2018  0.3231  0.2892
  868MOL0     H17130   6.506  10.878   6.599  0.2487  0.3063 -0.8087
  868MOL0     H17131   6.701  10.671   6.590  0.7008 -0.5777 -3.1452
  868MOL0     H17132   7.090  10.715   6.521 -0.5734 -0.0233  0.9308
  868MOL0     H17133   6.984  10.583   6.550  1.0862 -1.5873 -2.3809
  868MOL0     H17134   6.969  10.765   6.312  0.6281 -0.6418 -1.1076
  868MOL0     H17135   6.859  10.629   6.352 -0.5208  0.0601 -0.0498
  868MOL0     H17136   7.041  10.477   6.352  1.5523  0.4407  1.2659
  868MOL0     H17137   7.159  10.603   6.301 -0.1624  0.6976  4.3513
  868MOL0     H17138   7.127  10.501   6.117 -0.4330  0.3012 -1.0245
  868MOL0     H17139   7.035  10.654   6.096 -0.1817  1.0763  1.1111
  868MOL0     H17140   7.036  10.541   5.882 -1.1126  0.7224  2.1561
  868MOL0     H17141   6.938  10.499   5.550 -1.0147  0.2815  0.1726
  868MOL0     H17142   7.067  10.538   5.666 -0.6197 -0.3712  2.8424
  868MOL0     H17143   7.066  10.376   5.599  1.0253  2.0563 -1.7684
  868MOL0     H17144   6.554   9.944   5.663  1.4343  0.7023  0.4075
  868MOL0     H17145   6.472   9.788   5.520 -1.3072  1.7633  2.1180
  868MOL0     H17146   6.445   9.909   5.068 -1.1923  0.5632  1.4921
  868MOL0     H17147   6.547   9.776   5.137  0.1678  0.0561 -3.6174
  868MOL0     H17148   6.291   9.683   5.145  1.9480  1.8237  1.7932
  868MOL0     H17149   6.264   9.802   5.011 -1.1705 -0.3522  1.3649
  868MOL0     H17150   6.467   9.577   5.032  0.2381 -0.1371 -0.3306
  868MOL0     H17151   6.466   9.693   4.907  0.7698 -0.1464  0.3329
  868MOL0     H17152   6.236   9.499   4.956  0.8953  1.1344  1.5681
  868MOL0     H17153   6.229   9.629   4.843 -0.6922 -3.0751 -2.3744
  868MOL0     H17154   6.303   9.390   4.755  0.9102 -0.5336  0.0817
  868MOL0     H17155   6.440   9.399   4.859 -0.6751 -1.1114 -1.0141
  868MOL0     H17156   6.395   9.600   4.634 -2.9184 -0.8874  1.5860
  868MOL0     H17157   6.540   9.593   4.735  1.2697 -0.0327 -1.8331
  868MOL0     H17158   6.464   9.343   4.575  0.4637  0.0940  1.9787
  868MOL0     H17159   6.618   9.390   4.636  1.2953  0.1533 -1.5494
  868MOL0     H17160   6.467   9.549   4.427 -0.2079  0.7692  2.8259
  868MOL0     H17161   6.592   9.423   4.383  1.6701  0.8132 -1.4413
  868MOL0     H17162   6.520  10.079   5.188 -0.0810  2.5046  0.9035
  868MOL0     H17163   6.614  10.247   5.363  2.1819  0.6189  1.9154
  868MOL0     H17164   6.640  10.260   5.857 -0.2099  0.9373  0.4759
  868MOL0     H17165   6.722  10.342   6.076 -1.1622 -1.0586 -0.7755
  868MOL0     H17166   6.606  10.412   7.252 -0.1356 -0.1728  0.7925
  868MOL0     H17167   6.706  10.299   7.453  0.3366  1.6868 -1.7094
  868MOL0     H17168   6.748   9.928   7.718  0.6678 -1.3617  0.1504
  868MOL0     H17169   6.870   9.881   7.926 -1.0078 -1.9682 -1.4788
  868MOL0     H17170   7.318   9.894   7.959 -1.7392 -0.8417 -1.4347
  868MOL0     H17171   7.282  10.063   7.944  0.4603  0.9847  0.6539
  868MOL0     H17172   7.381   9.970   8.172  0.0505  1.8082  1.0275
  868MOL0     H17173   7.226   9.901   8.208 -0.5240  0.2792 -0.3014
  868MOL0     H17174   7.123  10.132   8.135 -2.2339 -5.0849  2.2633
  868MOL0     H17175   7.286  10.191   8.160  1.6508 -1.1473 -0.2226
  868MOL0     H17176   7.102  10.046   8.352 -1.7610  2.0235  0.9508
  868MOL0     H17177   7.117  10.219   8.350 -1.7583 -1.1175  1.9540
  868MOL0     H17178   7.455  10.141   8.590  1.4406 -0.3636 -0.3892
  868MOL0     H17179   7.221  10.063   7.744  0.3174 -0.1566  0.0643
  868MOL0     H17180   7.100  10.101   7.542  0.9446 -0.8550 -0.1956
  869MOL0     O17181   5.908   0.676   8.714  0.3559 -0.1147 -0.1773
  869MOL0     C17182   5.959   0.767   8.658  0.5668  0.4458  0.1192
  869MOL0     O17183   5.890   0.875   8.610  0.2889  0.1054 -0.3288
  869MOL0     C17184   5.765   0.901   8.661 -0.2679  0.2975  0.4620
  869MOL0     C17185   5.682   0.984   8.585 -0.4405 -0.2803  0.1726
  869MOL0     C17186   5.558   1.025   8.629  0.2955  1.0103 -1.1122
  869MOL0     C17187   5.499   0.974   8.752  0.1745  0.2646  0.3427
  869MOL0     O17188   5.373   1.009   8.781  1.0169  0.0456  0.5646
  869MOL0     C17189   5.324   1.006   8.913  0.0787 -0.1378  0.4874
  869MOL0     C17190   5.172   1.040   8.920 -0.4158 -0.6632 -0.7080
  869MOL0     C17191   5.089   0.932   8.860  0.1996 -0.0908  0.0662
  869MOL0     C17192   5.038   0.838   8.966  0.3264 -0.2194 -0.2137
  869MOL0     C17193   4.925   0.752   8.896 -0.3438 -0.3985  0.1797
  869MOL0     C17194   4.909   0.627   8.974 -0.1995  0.1952 -0.6284
  869MOL0     C17195   4.792   0.535   8.915 -0.5515 -1.0970 -0.2054
  869MOL0     C17196   4.778   0.404   8.995 -0.5972 -0.0251  0.3419
  869MOL0     N17197   4.735   0.407   9.137  0.0325  0.6044  0.2737
  869MOL0     C17198   4.797   0.335   9.228  1.0315 -0.5173 -0.3787
  869MOL0     C17199   4.736   0.371   9.346 -0.7113  0.3899  0.6237
  869MOL0     C17200   4.756   0.326   9.486  0.3985 -0.6658 -0.3726
  869MOL0     C17201   4.891   0.375   9.521  0.1959 -0.1062 -0.7319
  869MOL0     C17202   4.901   0.528   9.557  0.1745  0.1332  0.0963
  869MOL0     C17203   5.043   0.563   9.544  0.2335  0.1831 -0.0161
  869MOL0     O17204   5.111   0.488   9.648 -0.4637  0.1492  0.2770
  869MOL0     C17205   5.243   0.481   9.634 -0.2043  0.6573 -0.6442
  869MOL0     C17206   5.324   0.589   9.609 -0.1308  0.4050 -0.8071
  869MOL0     C17207   5.465   0.581   9.594  0.4574  1.0983  0.1057
  869MOL0     C17208   5.549   0.701   9.562 -0.4719  0.5684  0.2795
  869MOL0     C17209   5.527   0.453   9.621  0.3032  0.7206  0.4080
  869MOL0     C17210   5.675   0.419   9.614 -0.6511  0.3151  0.0312
  869MOL0     O17211   5.764   0.507   9.554  0.9537  0.3686  0.5774
  869MOL0     C17212   5.880   0.457   9.497  0.0441 -0.7491  0.5470
  869MOL0     C17213   5.976   0.407   9.577  0.0227  0.5997  0.1580
  869MOL0     C17214   6.100   0.387   9.516 -1.6351  0.2205  0.4567
  869MOL0     C17215   6.134   0.419   9.379 -0.1534  0.0598 -0.4327
  869MOL0     O17216   6.257   0.404   9.327 -0.3946  0.9972  0.3606
  869MOL0     C17217   6.357   0.324   9.387 -0.9946 -0.4419 -0.3456
  869MOL0     C17218   6.476   0.328   9.292 -0.6753  0.9001  0.2638
  869MOL0     C17219   6.458   0.289   9.142  0.4194  0.2966 -0.0231
  869MOL0     C17220   6.593   0.269   9.075  0.0655  0.2043  0.0919
  869MOL0     C17221   6.571   0.235   8.931  0.7833  0.5190 -0.3719
  869MOL0     C17222   6.706   0.184   8.868  0.6513  0.2692 -0.2843
  869MOL0     C17223   6.688   0.143   8.727  0.6754  0.4155  0.1487
  869MOL0     C17224   6.792   0.200   8.625  0.3191  0.5078 -0.1384
  869MOL0    Cl17225   6.774   0.380   8.595  0.3455 -0.2529  0.1354
  869MOL0     C17226   6.035   0.464   9.293  0.8528 -0.7446  0.6461
  869MOL0     C17227   5.904   0.474   9.352  0.1244 -0.4014 -0.1426
  869MOL0     O17228   5.717   0.309   9.656  0.1812  0.0725  0.4868
  869MOL0     C17229   5.438   0.338   9.642 -0.7177 -0.8236  0.1663
  869MOL0     C17230   5.294   0.352   9.651 -0.1057 -0.3326 -0.5089
  869MOL0     N17231   4.633   0.461   9.323 -0.6960 -0.1885 -0.6181
  869MOL0     N17232   4.636   0.473   9.194 -1.1642  0.3070  0.2887
  869MOL0     C17233   5.583   0.882   8.822 -0.5171  0.1141 -0.2219
  869MOL0     C17234   5.709   0.850   8.777 -0.3393 -0.7270  0.5790
  869MOL0     C17235   6.089   0.744   8.605 -0.4693  0.4981 -1.0030
  869MOL0     C17236   6.134   0.617   8.566 -0.2264 -0.0231 -0.0007
  869MOL0     C17237   6.268   0.604   8.510  0.1845  0.3655 -0.8315
  869MOL0     C17238   6.348   0.713   8.496 -0.1101 -0.2995  0.0843
  869MOL0     O17239   6.475   0.706   8.443 -0.2373  0.0568 -0.3277
  869MOL0     C17240   6.543   0.584   8.418  0.3433 -0.1288  0.7668
  869MOL0     C17241   6.692   0.607   8.383  0.1559 -0.0382 -0.1783
  869MOL0     C17242   6.717   0.710   8.272  0.1955  0.3804 -0.6780
  869MOL0     C17243   6.641   0.678   8.143  0.4000  0.4610 -0.8791
  869MOL0     C17244   6.671   0.542   8.103 -0.1183  0.4577 -0.2731
  869MOL0     C17245   6.696   0.429   8.069 -0.2678  0.0390  0.8753
  869MOL0     C17246   6.309   0.832   8.541 -0.1671  0.3227  0.1215
  869MOL0     C17247   6.178   0.850   8.595  0.1683 -0.5849  0.0111
  869MOL0     H17248   5.708   1.029   8.490  0.0973 -1.4137 -0.2305
  869MOL0     H17249   5.500   1.094   8.568  1.0159  4.9079  2.1380
  869MOL0     H17250   5.329   0.902   8.944 -0.9065 -0.3062  0.1335
  869MOL0     H17251   5.370   1.081   8.977 -1.3801  2.7315 -1.5667
  869MOL0     H17252   5.153   1.065   9.025  2.6218 -1.0079  0.0098
  869MOL0     H17253   5.145   1.128   8.862  0.9158  0.0241 -0.3408
  869MOL0     H17254   5.002   0.979   8.813 -1.1263  4.1779  5.5986
  869MOL0     H17255   5.150   0.875   8.790  0.3320 -1.0595  0.9397
  869MOL0     H17256   5.115   0.782   9.019  0.4569 -0.6529 -0.8457
  869MOL0     H17257   4.988   0.895   9.045 -1.6882 -1.6153 -0.3999
  869MOL0     H17258   4.836   0.815   8.891  0.0881  0.3039  1.0388
  869MOL0     H17259   4.960   0.717   8.799  1.6785  3.2267 -0.5728
  869MOL0     H17260   5.006   0.577   8.973  0.0826  0.4785  2.1068
  869MOL0     H17261   4.891   0.655   9.079 -1.5187 -2.1197 -0.1604
  869MOL0     H17262   4.706   0.597   8.941 -0.9373 -1.2033 -1.1755
  869MOL0     H17263   4.792   0.543   8.806 -4.7646 -1.0857 -0.3637
  869MOL0     H17264   4.865   0.339   8.983  0.2860  1.0564  0.7157
  869MOL0     H17265   4.707   0.349   8.932 -0.2472  1.7617 -1.7140
  869MOL0     H17266   4.883   0.270   9.218  2.1545  0.6383  1.1605
  869MOL0     H17267   4.684   0.372   9.554  0.8115  0.7147 -0.8406
  869MOL0     H17268   4.757   0.216   9.489  1.9309 -0.7995 -2.8703
  869MOL0     H17269   4.952   0.339   9.438  0.5048 -2.7556  0.5361
  869MOL0     H17270   4.929   0.328   9.612  1.0793 -1.2370 -1.6459
  869MOL0     H17271   4.865   0.550   9.658 -0.1575  0.5236 -0.1049
  869MOL0     H17272   4.831   0.590   9.501 -1.5399 -0.2986  1.6549
  869MOL0     H17273   5.056   0.669   9.567 -1.4847  0.3611  0.2658
  869MOL0     H17274   5.070   0.542   9.440 -0.9633 -0.9673 -0.1216
  869MOL0     H17275   5.275   0.685   9.601 -0.3504  0.3335 -0.3497
  869MOL0     H17276   5.603   0.670   9.472 -1.1108 -2.1841  0.7318
  869MOL0     H17277   5.487   0.788   9.539  2.2471  2.6779  0.4255
  869MOL0     H17278   5.615   0.725   9.646 -1.4186 -1.1616  1.6071
  869MOL0     H17279   5.966   0.386   9.683  2.9409 -1.4482  0.1339
  869MOL0     H17280   6.184   0.361   9.580 -1.0480  1.1728  0.0874
  869MOL0     H17281   6.394   0.382   9.472  1.3607  0.6342 -2.0123
  869MOL0     H17282   6.336   0.218   9.406  4.6841 -1.7408  0.4427
  869MOL0     H17283   6.534   0.418   9.275  1.8984 -0.8789 -0.9760
  869MOL0     H17284   6.547   0.264   9.346 -0.5139  1.8520  1.2131
  869MOL0     H17285   6.407   0.372   9.092 -1.4881  0.4317  2.0096
  869MOL0     H17286   6.388   0.204   9.139 -2.5292  2.5045  1.4280
  869MOL0     H17287   6.648   0.364   9.073 -1.9730  1.4624  0.8859
  869MOL0     H17288   6.642   0.190   9.133 -0.3161  2.3408  3.6699
  869MOL0     H17289   6.533   0.326   8.885  0.9527  0.1340 -1.2856
  869MOL0     H17290   6.491   0.161   8.924  0.5909  0.8615 -2.3356
  869MOL0     H17291   6.782   0.262   8.876  1.9739 -0.5737 -3.2830
  869MOL0     H17292   6.734   0.091   8.919  0.2497  0.3539  0.1012
  869MOL0     H17293   6.595   0.185   8.688  0.7895 -0.8470 -1.5828
  869MOL0     H17294   6.678   0.035   8.727  3.1117  0.1368  0.2123
  869MOL0     H17295   6.785   0.150   8.528  1.7872 -1.5309  0.7273
  869MOL0     H17296   6.887   0.173   8.671  0.2864  1.2577  0.3758
  869MOL0     H17297   6.059   0.497   9.193  0.7219  2.0455  1.4487
  869MOL0     H17298   5.821   0.515   9.295  0.3023 -1.1393 -0.9560
  869MOL0     H17299   5.474   0.237   9.660 -0.4720 -0.9437 -0.9227
  869MOL0     H17300   5.226   0.271   9.675 -0.2223  0.3118  1.5183
  869MOL0     H17301   5.537   0.842   8.912 -2.7935  0.7970 -1.0085
  869MOL0     H17302   5.776   0.796   8.844  1.8653 -0.2774 -1.1627
  869MOL0     H17303   6.062   0.536   8.555  1.7111 -2.1312  1.7739
  869MOL0     H17304   6.302   0.503   8.487 -0.3290  0.1742 -0.7585
  869MOL0     H17305   6.532   0.509   8.497  2.1086  1.6458  2.8528
  869MOL0     H17306   6.494   0.523   8.342  2.4790 -3.6412  1.9407
  869MOL0     H17307   6.746   0.515   8.358 -0.6845 -0.6219  0.1195
  869MOL0     H17308   6.730   0.651   8.475  0.3270  2.2899 -1.3007
  869MOL0     H17309   6.823   0.722   8.247  0.8523 -2.1482  0.5787
  869MOL0     H17310   6.685   0.807   8.310 -2.3370 -1.9618  4.1929
  869MOL0     H17311   6.682   0.736   8.060  1.4698 -0.2306 -0.8580
  869MOL0     H17312   6.533   0.692   8.149  0.1408 -1.6453  1.1559
  869MOL0     H17313   6.699   0.325   8.048  2.8265  0.2586 -0.3164
  869MOL0     H17314   6.388   0.906   8.529 -0.3742  0.1335 -4.1316
  869MOL0     H17315   6.151   0.951   8.624  3.8585 -0.1423  2.5576
  870MOL0     O17316  10.202   4.425   0.629  0.2182 -0.9634  0.2889
  870MOL0     C17317  10.197   4.539   0.576  0.1907 -0.4075 -0.7698
  870MOL0     O17318  10.073   4.605   0.546  0.7086 -0.7894  0.0281
  870MOL0     C17319   9.961   4.534   0.565 -1.0229 -0.2159 -0.0363
  870MOL0     C17320   9.881   4.532   0.457  1.7153  0.0877 -0.5301
  870MOL0     C17321   9.757   4.461   0.460 -0.0857  0.3074  0.2571
  870MOL0     C17322   9.720   4.389   0.575  0.1505 -0.8010  0.0588
  870MOL0     O17323   9.604   4.322   0.597  0.5252 -0.3823  0.4335
  870MOL0     C17324   9.522   4.294   0.479 -0.5117 -0.1123 -1.1039
  870MOL0     C17325   9.592   4.174   0.408 -0.3795  0.7302  0.0467
  870MOL0     C17326   9.617   4.054   0.504  0.2935  0.2035  0.1878
  870MOL0     C17327   9.685   3.936   0.449  1.2319  0.4781  1.1320
  870MOL0     C17328   9.827   3.950   0.400  1.2555  0.7120  0.9034
  870MOL0     C17329   9.937   3.961   0.502  0.0789 -0.3933  0.1578
  870MOL0     C17330  10.072   3.962   0.440 -0.1886 -0.3528  1.2367
  870MOL0     C17331  10.182   4.017   0.532 -0.1862 -0.1582 -0.4138
  870MOL0     N17332  10.315   4.023   0.464  0.8061 -0.1669 -0.5116
  870MOL0     C17333  10.361   4.143   0.406  0.7028  0.0164  0.2817
  870MOL0     C17334  10.463   4.103   0.332 -0.3807  0.2209 -0.5039
  870MOL0     C17335  10.530   4.204   0.239 -0.3264  0.1513  0.2178
  870MOL0     C17336  10.683   4.218   0.266  0.7493 -0.0519  0.9276
  870MOL0     C17337  10.744   4.325   0.175 -0.3553  0.4812 -0.5463
  870MOL0     C17338  10.888   4.356   0.200 -0.0799 -0.7282  1.5987
  870MOL0     O17339  10.887   4.498   0.235  0.2100 -0.4078  0.3625
  870MOL0     C17340  10.996   4.588   0.204  0.3034 -0.0494  0.4744
  870MOL0     C17341  11.120   4.535   0.181 -0.2554  0.1766  0.0606
  870MOL0     C17342  11.227   4.615   0.138 -0.7731 -0.4137 -0.5861
  870MOL0     C17343  11.360   4.551   0.120 -0.0678  0.1353 -0.8405
  870MOL0     C17344  11.206   4.755   0.135 -0.8420 -0.6747  0.9661
  870MOL0     C17345  11.312   4.862   0.122 -0.3554  0.0555  0.3064
  870MOL0     O17346  11.308   4.968   0.217 -0.4614 -0.3852  0.4985
  870MOL0     C17347  11.411   5.061   0.210 -1.0175  0.2240 -0.5721
  870MOL0     C17348  11.549   5.029   0.213 -0.3462  0.1874  0.9273
  870MOL0     C17349  11.647   5.118   0.190 -0.0292  0.5923 -0.7580
  870MOL0     C17350  11.611   5.249   0.166  0.1190  0.2305 -1.1501
  870MOL0     O17351  11.715   5.330   0.155  0.2593 -0.0626  0.2757
  870MOL0     C17352  11.703   5.474   0.186 -0.7704 -0.1482  0.5149
  870MOL0     C17353  11.843   5.541   0.186 -0.9936 -0.0780 -0.4251
  870MOL0     C17354  11.932   5.515   0.317 -0.6771 -0.9666 -0.1042
  870MOL0     C17355  11.970   5.368   0.341 -0.3297  0.8307 -0.6310
  870MOL0     C17356  12.042   5.300   0.223  0.4742  0.1009 -0.6179
  870MOL0     C17357  12.118   5.165   0.264  0.4473  0.9746  0.2713
  870MOL0     C17358  12.179   5.084   0.151  0.4773 -0.4688 -0.6120
  870MOL0     C17359  12.079   4.992   0.081 -0.3874 -0.1214 -0.0407
  870MOL0    Cl17360  12.156   4.913  -0.052  0.0271 -0.3962 -0.1346
  870MOL0     C17361  11.480   5.288   0.163 -0.5651  1.5632  0.6629
  870MOL0     C17362  11.374   5.193   0.192 -0.1270  0.4536 -0.3544
  870MOL0     O17363  11.413   4.835   0.055  0.9273  0.2166  0.1328
  870MOL0     C17364  11.085   4.810   0.163 -0.0515  0.4269  0.7012
  870MOL0     C17365  10.979   4.726   0.186  1.2151  0.4412  1.7913
  870MOL0     N17366  10.498   3.968   0.357  0.2952 -0.5997  0.4643
  870MOL0     N17367  10.404   3.923   0.434 -0.4906  0.1797  0.6853
  870MOL0     C17368   9.810   4.386   0.682 -0.4735  0.0241  0.2639
  870MOL0     C17369   9.925   4.460   0.678  0.6999  0.0700 -0.0331
  870MOL0     C17370  10.327   4.597   0.536  0.5519  0.7776  0.1633
  870MOL0     C17371  10.319   4.708   0.446  0.1721 -0.1112 -0.2784
  870MOL0     C17372  10.436   4.782   0.428 -0.5179 -0.2867 -0.5123
  870MOL0     C17373  10.562   4.750   0.488  0.1765  0.3301 -0.6245
  870MOL0     O17374  10.664   4.819   0.432  0.1110  0.7718 -1.1492
  870MOL0     C17375  10.774   4.828   0.517 -1.2399 -0.4248  0.8787
  870MOL0     C17376  10.837   4.949   0.459 -0.6902  0.3032 -0.6376
  870MOL0     C17377  10.953   4.999   0.547  0.9910  0.4647  0.7322
  870MOL0     C17378  11.008   5.130   0.489  0.8532 -0.4458  0.0968
  870MOL0     C17379  10.904   5.235   0.515  0.0393 -0.8016 -0.3723
  870MOL0     C17380  10.817   5.311   0.548 -0.3085  0.2449 -0.7288
  870MOL0     C17381  10.574   4.636   0.559  0.7352  0.1653 -0.3005
  870MOL0     C17382  10.458   4.554   0.585 -0.5003  0.4613 -0.1184
  870MOL0     H17383   9.912   4.600   0.378  1.0230  2.3145  1.0168
  870MOL0     H17384   9.693   4.462   0.372  2.3377 -1.6806 -1.6685
  870MOL0     H17385   9.423   4.261   0.509  0.1686 -3.1517 -1.8956
  870MOL0     H17386   9.501   4.378   0.413  2.3382  1.5694 -0.0675
  870MOL0     H17387   9.517   4.146   0.333  1.0870 -1.6296 -0.6416
  870MOL0     H17388   9.680   4.211   0.355  0.4706 -0.7682  0.3559
  870MOL0     H17389   9.685   4.085   0.584  2.1759  0.3418 -1.4125
  870MOL0     H17390   9.522   4.022   0.548 -0.3132  2.8220  0.9823
  870MOL0     H17391   9.692   3.866   0.532  4.9329 -3.2280 -1.8372
  870MOL0     H17392   9.628   3.884   0.371  0.9583  0.5884  1.2584
  870MOL0     H17393   9.846   3.860   0.342 -4.5737  1.1422 -2.4187
  870MOL0     H17394   9.829   4.025   0.321  0.2769 -0.3470 -0.1597
  870MOL0     H17395   9.916   4.045   0.569  0.8617 -0.9572  1.1325
  870MOL0     H17396   9.941   3.875   0.568  0.5265  2.7339  4.6787
  870MOL0     H17397  10.098   3.859   0.414 -0.4240  0.1877 -1.3235
  870MOL0     H17398  10.080   4.019   0.348  1.2053 -1.5157  0.5885
  870MOL0     H17399  10.180   3.952   0.621 -0.9163 -0.7703 -0.8619
  870MOL0     H17400  10.159   4.121   0.554  3.5218  1.5399 -3.4195
  870MOL0     H17401  10.323   4.244   0.418  1.1085  0.2423 -0.2592
  870MOL0     H17402  10.513   4.155   0.143 -1.8217  0.1062  0.4781
  870MOL0     H17403  10.478   4.300   0.236 -0.2536  0.1658 -1.1396
  870MOL0     H17404  10.729   4.121   0.245 -0.8891 -0.6887  0.1131
  870MOL0     H17405  10.703   4.249   0.369 -0.5965  0.7592  0.9754
  870MOL0     H17406  10.675   4.409   0.189 -1.4924 -0.2185 -1.7475
  870MOL0     H17407  10.744   4.289   0.072  0.0490  0.0320 -0.3926
  870MOL0     H17408  10.945   4.339   0.108  0.4618  2.0941  1.3094
  870MOL0     H17409  10.937   4.287   0.269  0.7174 -3.7821 -1.7041
  870MOL0     H17410  11.149   4.431   0.187  0.2560  0.3495  0.9751
  870MOL0     H17411  11.398   4.581   0.022  1.1423 -0.4752 -0.5808
  870MOL0     H17412  11.436   4.572   0.196 -1.7027 -2.0823  1.5920
  870MOL0     H17413  11.361   4.442   0.107 -1.0494 -0.0012  0.0884
  870MOL0     H17414  11.562   4.923   0.229 -0.7071 -0.1915 -1.0307
  870MOL0     H17415  11.747   5.078   0.187 -0.0285  0.6445 -2.0772
  870MOL0     H17416  11.642   5.528   0.113  0.1920  1.4199  0.8139
  870MOL0     H17417  11.660   5.498   0.283 -3.2396 -1.0974 -0.2784
  870MOL0     H17418  11.911   5.531   0.101  2.9078 -1.5719  2.5134
  870MOL0     H17419  11.826   5.647   0.169  1.0832  0.3232 -0.3268
  870MOL0     H17420  11.875   5.549   0.403  1.3942 -0.5302  1.1653
  870MOL0     H17421  12.031   5.561   0.309 -0.0365 -2.1688  0.6709
  870MOL0     H17422  12.029   5.366   0.433 -0.7271  0.8442 -0.3715
  870MOL0     H17423  11.877   5.313   0.357  0.0517 -0.3588 -2.1837
  870MOL0     H17424  12.121   5.366   0.188 -1.3521  2.5585 -0.3926
  870MOL0     H17425  11.974   5.284   0.138  1.3379 -0.2374 -1.2556
  870MOL0     H17426  12.195   5.182   0.340 -1.0342  1.3974  1.7590
  870MOL0     H17427  12.043   5.100   0.311  1.5772 -1.0489 -0.5927
  870MOL0     H17428  12.262   5.029   0.196 -0.3198 -0.8673  0.4357
  870MOL0     H17429  12.231   5.155   0.087  2.8948 -3.9433 -2.8452
  870MOL0     H17430  11.987   5.042   0.050  0.5706 -0.1865 -3.3913
  870MOL0     H17431  12.053   4.907   0.145  0.4264 -1.4884 -1.4489
  870MOL0     H17432  11.468   5.396   0.152  0.4496  1.6251  0.0138
  870MOL0     H17433  11.271   5.226   0.200  0.1712  1.0267  1.8332
  870MOL0     H17434  11.070   4.917   0.156  0.1290  0.5672  2.2403
  870MOL0     H17435  10.875   4.747   0.207 -0.3497 -3.6555 -0.6780
  870MOL0     H17436   9.799   4.321   0.768  4.3330  1.5122  2.3407
  870MOL0     H17437   9.980   4.471   0.770 -0.2892  2.7045  0.3503
  870MOL0     H17438  10.232   4.758   0.405 -0.1866  0.1732  0.7868
  870MOL0     H17439  10.431   4.871   0.366 -0.3473  0.7918  0.9609
  870MOL0     H17440  10.758   4.827   0.625 -1.2122 -0.6350  0.8808
  870MOL0     H17441  10.834   4.739   0.497 -1.6606 -0.4415 -0.3849
  870MOL0     H17442  10.760   5.026   0.457  0.0135  1.0997  0.8852
  870MOL0     H17443  10.867   4.932   0.355 -0.9572  1.1935 -0.8664
  870MOL0     H17444  11.026   4.918   0.554 -1.1474 -2.0424 -2.7628
  870MOL0     H17445  10.914   5.017   0.648  2.3649  0.7803  1.2280
  870MOL0     H17446  11.026   5.118   0.382 -0.4130 -0.5459 -0.1158
  870MOL0     H17447  11.099   5.147   0.549 -0.7043 -0.6844  2.6818
  870MOL0     H17448  10.734   5.367   0.586  1.2877  0.3810  2.9160
  870MOL0     H17449  10.675   4.608   0.587  1.3388  1.5269 -0.9971
  870MOL0     H17450  10.470   4.461   0.640 -0.6685  0.4184 -0.1517
  871MOL0     O17451   0.088   6.789   5.683  0.4430  0.0674  0.1631
  871MOL0     C17452   0.087   6.912   5.682  0.4500  0.5840 -0.0821
  871MOL0     O17453  -0.015   6.989   5.616  0.5191 -0.7262  0.0170
  871MOL0     C17454  -0.109   6.928   5.541 -0.6542  0.5019  0.4522
  871MOL0     C17455  -0.115   6.963   5.402 -0.2540  0.3195  0.9876
  871MOL0     C17456  -0.209   6.902   5.315 -1.3405  0.0717 -0.2945
  871MOL0     C17457  -0.296   6.806   5.370 -0.0068 -0.4234  0.4850
  871MOL0     O17458  -0.382   6.728   5.292  0.4559 -0.3642  0.4522
  871MOL0     C17459  -0.377   6.725   5.147  0.4008 -0.7686  0.0758
  871MOL0     C17460  -0.384   6.586   5.105 -0.8114 -0.2070  0.0232
  871MOL0     C17461  -0.280   6.488   5.160  0.4083 -0.6239 -0.2513
  871MOL0     C17462  -0.252   6.384   5.051 -0.9765 -0.9431 -0.7119
  871MOL0     C17463  -0.162   6.270   5.094  0.1017 -0.1690 -0.4120
  871MOL0     C17464  -0.081   6.221   4.968  0.1620  0.7576  0.2601
  871MOL0     C17465   0.020   6.111   4.999  0.3323 -0.1497 -0.2505
  871MOL0     C17466   0.140   6.167   5.082 -0.3993 -0.6113  0.2998
  871MOL0     N17467   0.233   6.257   5.014 -0.7991 -0.8378  0.3788
  871MOL0     C17468   0.282   6.239   4.888  0.2979 -0.0579  0.7467
  871MOL0     C17469   0.355   6.352   4.859 -0.2111  0.7135 -0.7400
  871MOL0     C17470   0.457   6.396   4.755 -0.2232  0.4971  0.8546
  871MOL0     C17471   0.418   6.347   4.615  0.3694 -0.2841 -0.7499
  871MOL0     C17472   0.313   6.435   4.553  0.1205 -0.1758  1.4562
  871MOL0     C17473   0.165   6.423   4.592 -0.2789  0.8252  0.1157
  871MOL0     O17474   0.137   6.280   4.598  0.5789 -0.1967  1.1949
  871MOL0     C17475   0.040   6.228   4.518 -0.2163 -0.3349 -0.5792
  871MOL0     C17476  -0.021   6.118   4.566  0.3781  0.1463 -0.1033
  871MOL0     C17477  -0.132   6.049   4.503 -0.0186 -0.1873  1.1585
  871MOL0     C17478  -0.199   5.933   4.577  0.0637 -0.4005 -1.0499
  871MOL0     C17479  -0.176   6.109   4.384  0.2605 -0.0510  0.8140
  871MOL0     C17480  -0.294   6.065   4.299  0.5068 -0.2036  0.0895
  871MOL0     O17481  -0.345   6.154   4.206  0.0870  0.1716 -0.3050
  871MOL0     C17482  -0.459   6.132   4.124 -0.7396 -0.2906 -0.7142
  871MOL0     C17483  -0.544   6.015   4.120 -0.3465  0.6625 -0.1602
  871MOL0     C17484  -0.662   6.018   4.043 -0.3575 -0.0604 -0.3053
  871MOL0     C17485  -0.699   6.129   3.969  0.7093  0.0288  1.5311
  871MOL0     O17486  -0.818   6.120   3.896 -0.1387 -0.3041  0.4079
  871MOL0     C17487  -0.806   6.111   3.747  0.0168 -0.0046  1.6386
  871MOL0     C17488  -0.948   6.080   3.699 -0.3492  0.1082  0.3807
  871MOL0     C17489  -0.971   6.106   3.547 -0.0975 -0.2836  0.4114
  871MOL0     C17490  -1.119   6.090   3.509  0.5210 -0.2860  0.0523
  871MOL0     C17491  -1.160   6.102   3.362 -0.8566 -0.4761  0.1441
  871MOL0     C17492  -1.100   5.985   3.276 -0.0506 -0.5560  0.8797
  871MOL0     C17493  -1.153   5.977   3.134 -0.0841  0.2164  0.4592
  871MOL0     C17494  -1.099   5.865   3.047 -0.1384 -0.7010  0.3466
  871MOL0    Cl17495  -1.139   5.875   2.872  0.2503  0.1155 -0.0493
  871MOL0     C17496  -0.615   6.233   3.963 -0.2235 -0.3077  0.1826
  871MOL0     C17497  -0.495   6.238   4.035 -0.1499  0.5476  0.2816
  871MOL0     O17498  -0.353   5.957   4.325 -0.1450 -0.4013  0.1223
  871MOL0     C17499  -0.110   6.225   4.340  0.1716  0.4552 -0.1929
  871MOL0     C17500  -0.003   6.284   4.400 -0.6465 -0.3106 -0.3006
  871MOL0     N17501   0.353   6.431   4.977 -0.4503 -0.5424  0.9979
  871MOL0     N17502   0.282   6.374   5.064  0.7154  0.7983 -0.2702
  871MOL0     C17503  -0.282   6.764   5.505 -0.4861  0.9070  0.1329
  871MOL0     C17504  -0.196   6.836   5.592  0.9981  0.7974 -0.4022
  871MOL0     C17505   0.197   6.986   5.747 -0.3454 -0.5138 -0.0999
  871MOL0     C17506   0.212   7.126   5.741  0.3745  0.0431 -0.2306
  871MOL0     C17507   0.323   7.202   5.781  0.5481  0.1623 -0.6012
  871MOL0     C17508   0.432   7.127   5.827  0.6323 -0.0342  1.1286
  871MOL0     O17509   0.555   7.179   5.867 -0.6455  0.1829  1.2564
  871MOL0     C17510   0.641   7.216   5.757 -0.1606 -0.0689  0.0004
  871MOL0     C17511   0.713   7.104   5.680 -0.2592 -0.4632  0.2711
  871MOL0     C17512   0.841   7.140   5.604 -0.3517 -0.1507 -0.1310
  871MOL0     C17513   0.824   7.263   5.515 -0.0140  0.6020  0.0581
  871MOL0     C17514   0.929   7.268   5.409  0.4092  0.0394  0.5944
  871MOL0     C17515   1.019   7.264   5.327  0.1258 -0.1471  1.4335
  871MOL0     C17516   0.422   6.990   5.844 -0.4105  0.2262  0.4216
  871MOL0     C17517   0.305   6.928   5.807  0.9270 -0.2857  0.6057
  871MOL0     H17518  -0.043   7.039   5.375 -1.0480  0.3152 -1.4025
  871MOL0     H17519  -0.211   6.948   5.217  0.7171  0.7703 -0.0494
  871MOL0     H17520  -0.461   6.781   5.104  0.6333  1.1351  1.9481
  871MOL0     H17521  -0.287   6.774   5.108  0.9831 -1.8759 -0.0114
  871MOL0     H17522  -0.476   6.541   5.144 -0.2957 -0.2279  1.2613
  871MOL0     H17523  -0.396   6.558   5.000 -1.3198 -1.7225  0.4556
  871MOL0     H17524  -0.194   6.544   5.198  1.0817 -2.5173  1.1452
  871MOL0     H17525  -0.318   6.438   5.249  1.0564 -0.5172  0.0913
  871MOL0     H17526  -0.350   6.345   5.019 -0.1531 -5.0543  1.0858
  871MOL0     H17527  -0.204   6.438   4.969 -2.6072 -1.2257 -1.9002
  871MOL0     H17528  -0.092   6.301   5.171  2.4314  0.6284 -2.6876
  871MOL0     H17529  -0.232   6.191   5.125 -2.0544  1.8408  0.1559
  871MOL0     H17530  -0.148   6.190   4.887 -1.1982  0.4333  1.4837
  871MOL0     H17531  -0.022   6.298   4.916 -2.1035  0.4841 -3.0347
  871MOL0     H17532  -0.026   6.041   5.069  0.3168  2.3761  2.4695
  871MOL0     H17533   0.052   6.057   4.909 -2.0397 -2.1475  0.0084
  871MOL0     H17534   0.190   6.074   5.109 -2.0527 -1.8510 -0.7019
  871MOL0     H17535   0.108   6.208   5.179 -0.5397 -1.9541  0.8435
  871MOL0     H17536   0.269   6.154   4.821  1.0824  0.2451  0.1938
  871MOL0     H17537   0.474   6.504   4.750  5.6710 -0.0630  1.6262
  871MOL0     H17538   0.551   6.349   4.788  1.1397  2.9572  0.6921
  871MOL0     H17539   0.387   6.242   4.622  2.4787 -0.8620  0.8220
  871MOL0     H17540   0.510   6.346   4.556  0.8922  2.6130 -0.1559
  871MOL0     H17541   0.330   6.416   4.446  4.6119  0.1567  1.9217
  871MOL0     H17542   0.334   6.542   4.557  0.2627 -0.2518  3.1246
  871MOL0     H17543   0.117   6.487   4.518  1.5911  0.3958 -1.5301
  871MOL0     H17544   0.163   6.464   4.694  3.7773  0.5910  0.4502
  871MOL0     H17545   0.010   6.078   4.662 -0.1582  1.4676  0.6448
  871MOL0     H17546  -0.139   5.884   4.654 -3.9906 -3.9371  0.2742
  871MOL0     H17547  -0.283   5.971   4.635 -0.0379 -1.2785 -0.6084
  871MOL0     H17548  -0.240   5.853   4.514  0.9081 -1.9322  0.2819
  871MOL0     H17549  -0.510   5.930   4.177  1.5112  0.6957 -1.1159
  871MOL0     H17550  -0.730   5.934   4.052  1.1198 -1.3495 -0.6943
  871MOL0     H17551  -0.763   6.198   3.698 -0.9768 -0.6009 -0.3809
  871MOL0     H17552  -0.735   6.034   3.717 -1.3722 -0.4770 -0.6884
  871MOL0     H17553  -0.977   5.979   3.730  2.0878 -0.0078  2.7109
  871MOL0     H17554  -1.014   6.149   3.753 -1.4976 -0.7306  0.0984
  871MOL0     H17555  -0.912   6.026   3.500  1.8460  1.9985 -1.2933
  871MOL0     H17556  -0.932   6.204   3.519 -0.7257  0.6799  2.6922
  871MOL0     H17557  -1.152   5.991   3.542  2.2155 -1.0418 -0.4446
  871MOL0     H17558  -1.176   6.160   3.573 -2.9852 -3.5208  0.8433
  871MOL0     H17559  -1.131   6.197   3.317 -1.9748 -0.4307 -0.5338
  871MOL0     H17560  -1.269   6.106   3.373 -0.6839  0.3648  1.7016
  871MOL0     H17561  -0.993   5.997   3.261  0.1139 -4.3178 -3.3431
  871MOL0     H17562  -1.099   5.891   3.332  3.3083  0.2751  2.4537
  871MOL0     H17563  -1.140   6.073   3.085 -0.5420 -1.5201 -3.4766
  871MOL0     H17564  -1.261   5.962   3.140 -0.6498  3.2366 -0.4924
  871MOL0     H17565  -1.127   5.765   3.080  2.0199 -1.9176 -1.2644
  871MOL0     H17566  -0.990   5.864   3.047 -0.1204 -2.0799 -0.7461
  871MOL0     H17567  -0.644   6.321   3.906  0.5010  0.4043  0.8622
  871MOL0     H17568  -0.430   6.325   4.032 -1.4246  1.5736  1.0960
  871MOL0     H17569  -0.147   6.276   4.252  1.3054  0.7418 -0.5223
  871MOL0     H17570   0.040   6.379   4.370 -3.2831  0.4539 -1.9822
  871MOL0     H17571  -0.337   6.674   5.532 -1.5224  0.2547 -3.6127
  871MOL0     H17572  -0.187   6.807   5.696 -0.7238 -1.8312 -0.9003
  871MOL0     H17573   0.137   7.185   5.688  0.7447 -2.0474 -3.3547
  871MOL0     H17574   0.335   7.310   5.774  1.3767  0.0523 -0.9603
  871MOL0     H17575   0.593   7.282   5.684  3.1069 -0.2404 -2.5080
  871MOL0     H17576   0.727   7.269   5.798  2.4108 -2.9536 -1.2065
  871MOL0     H17577   0.636   7.073   5.610 -0.7456  1.1984  0.0455
  871MOL0     H17578   0.735   7.020   5.747  1.5475 -0.3610 -0.1225
  871MOL0     H17579   0.860   7.054   5.539 -2.9430 -0.8147 -0.1515
  871MOL0     H17580   0.925   7.165   5.669 -0.8080  0.6892  0.1580
  871MOL0     H17581   0.838   7.347   5.584 -1.3461 -1.2475  2.7947
  871MOL0     H17582   0.729   7.266   5.462  0.2546  3.1135 -0.4153
  871MOL0     H17583   1.097   7.264   5.253 -0.3766  4.1125  0.6606
  871MOL0     H17584   0.506   6.929   5.877 -2.0488 -1.3986  1.8105
  871MOL0     H17585   0.314   6.820   5.814  1.5062 -0.4985 -2.2539
  872MOL0     O17586   9.492   0.987   5.154  0.9103 -0.5779 -0.2760
  872MOL0     C17587   9.503   0.933   5.265 -1.4399  0.7661  0.4632
  872MOL0     O17588   9.401   0.888   5.345 -0.3355 -0.0409 -0.6088
  872MOL0     C17589   9.263   0.923   5.330 -1.0671  0.9748 -0.4089
  872MOL0     C17590   9.225   1.044   5.282 -0.0916 -0.4242 -0.0185
  872MOL0     C17591   9.083   1.081   5.297  0.3882 -0.2738  0.4275
  872MOL0     C17592   8.985   0.993   5.329  0.2936 -0.2620 -0.5557
  872MOL0     O17593   8.849   1.016   5.329  0.6154 -0.4471 -0.3318
  872MOL0     C17594   8.794   1.156   5.336 -0.2306 -0.9626  0.1542
  872MOL0     C17595   8.649   1.160   5.385  0.2387 -0.8275  0.0262
  872MOL0     C17596   8.550   1.114   5.286  0.1369 -0.4559  0.1046
  872MOL0     C17597   8.413   1.096   5.349 -0.2595  0.0286  0.0131
  872MOL0     C17598   8.298   1.108   5.247  0.4610  0.4278  0.3192
  872MOL0     C17599   8.160   1.094   5.323  0.3094  0.4351 -0.8734
  872MOL0     C17600   8.139   0.958   5.385  0.4210  0.9746 -0.1324
  872MOL0     C17601   8.109   0.847   5.278  0.2482 -0.2478 -0.1629
  872MOL0     N17602   7.977   0.859   5.209  0.3721  0.1297 -0.7947
  872MOL0     C17603   7.935   0.934   5.099  0.1872 -0.0792 -0.4533
  872MOL0     C17604   7.800   0.932   5.087  0.0465  0.0762  0.5485
  872MOL0     C17605   7.726   0.985   4.967 -1.2471  0.4842  0.6039
  872MOL0     C17606   7.584   0.925   4.937  0.2934 -0.0164 -0.0763
  872MOL0     C17607   7.480   0.990   5.027  0.0998  0.4943 -0.1454
  872MOL0     C17608   7.341   0.930   4.989  0.0170 -0.1677 -0.9629
  872MOL0     O17609   7.250   1.011   5.069  0.2055  0.0902 -0.3308
  872MOL0     C17610   7.150   1.086   5.011 -0.4830 -0.1961  1.0527
  872MOL0     C17611   7.103   1.079   4.884  0.7820 -0.8145 -0.3085
  872MOL0     C17612   7.005   1.168   4.837 -0.1884 -0.0592 -0.9114
  872MOL0     C17613   6.964   1.150   4.696 -0.3466 -0.4876 -0.2061
  872MOL0     C17614   6.941   1.257   4.922 -1.5137  0.1280 -0.4747
  872MOL0     C17615   6.831   1.349   4.896 -0.4418  0.4158  0.9289
  872MOL0     O17616   6.811   1.443   4.984  0.1514  0.4908 -0.8778
  872MOL0     C17617   6.699   1.527   4.970 -0.0785 -0.1805  0.3432
  872MOL0     C17618   6.708   1.618   4.866  0.4405  0.1569 -0.4367
  872MOL0     C17619   6.601   1.703   4.839  0.2928 -0.2701 -0.7330
  872MOL0     C17620   6.489   1.708   4.923  0.7885 -0.1602  0.6023
  872MOL0     O17621   6.399   1.808   4.907  0.4187  0.0557 -0.3659
  872MOL0     C17622   6.273   1.798   4.973  0.0363  0.0094 -0.6248
  872MOL0     C17623   6.153   1.867   4.903 -0.2616 -0.4755 -0.6637
  872MOL0     C17624   6.037   1.892   4.998 -0.5580  0.8971  0.0072
  872MOL0     C17625   5.914   1.951   4.928 -0.0015 -0.0027  0.7030
  872MOL0     C17626   5.803   1.928   5.017  0.4244 -0.7128 -0.2936
  872MOL0     C17627   5.674   1.988   4.952 -0.3183 -0.4921 -0.0193
  872MOL0     C17628   5.557   1.921   5.022  0.7405 -0.7107 -0.2467
  872MOL0     C17629   5.443   2.028   5.017 -0.6581  0.2304 -0.4311
  872MOL0    Cl17630   5.413   2.057   4.842  0.1066  0.7170 -0.3359
  872MOL0     C17631   6.480   1.614   5.023 -0.2494 -0.8715 -0.0325
  872MOL0     C17632   6.582   1.524   5.047  0.7040  0.7002  0.3470
  872MOL0     O17633   6.749   1.317   4.811 -0.5290 -0.0590 -0.4243
  872MOL0     C17634   6.993   1.264   5.050  0.2918  0.8929 -0.5388
  872MOL0     C17635   7.099   1.176   5.093  0.6227 -0.0661  0.2170
  872MOL0     N17636   7.744   0.849   5.182 -0.7167  0.3279  0.0009
  872MOL0     N17637   7.851   0.806   5.251  0.6115 -0.6061 -0.5330
  872MOL0     C17638   9.027   0.869   5.385  1.2696 -0.7275 -0.8134
  872MOL0     C17639   9.166   0.843   5.393 -0.2954  0.3060 -1.2370
  872MOL0     C17640   9.639   0.891   5.308  1.2950 -0.4653  0.5937
  872MOL0     C17641   9.745   0.927   5.229 -0.8200 -0.5534 -0.3115
  872MOL0     C17642   9.870   0.905   5.273  0.2897 -0.0635  0.1783
  872MOL0     C17643   9.885   0.837   5.396 -0.4123 -0.1192 -0.3631
  872MOL0     O17644  10.011   0.819   5.451  0.3192  0.4170  0.3544
  872MOL0     C17645  10.046   0.697   5.521 -0.3660 -0.4308  0.2123
  872MOL0     C17646  10.199   0.661   5.503  0.0041  0.3813  0.2990
  872MOL0     C17647  10.240   0.634   5.354  0.4575 -0.3116 -0.2072
  872MOL0     C17648  10.380   0.678   5.334  0.3112 -0.9077  0.0448
  872MOL0     C17649  10.401   0.821   5.356  0.6370 -0.5734  0.0227
  872MOL0     C17650  10.407   0.946   5.386  0.1925 -0.0007  0.4034
  872MOL0     C17651   9.773   0.789   5.467 -0.0642 -0.2146 -0.1860
  872MOL0     C17652   9.649   0.818   5.429  0.6046 -0.2028  0.8130
  872MOL0     H17653   9.300   1.114   5.246 -0.1748 -0.9585 -1.2927
  872MOL0     H17654   9.056   1.184   5.276 -0.6580 -0.6636 -0.2550
  872MOL0     H17655   8.864   1.207   5.403  0.8685 -1.2822 -0.7099
  872MOL0     H17656   8.812   1.216   5.246  2.3439  0.9903  1.8497
  872MOL0     H17657   8.654   1.101   5.477 -2.0900  0.7567  1.2652
  872MOL0     H17658   8.621   1.263   5.409 -0.8308 -0.8370 -1.1057
  872MOL0     H17659   8.553   1.175   5.195  1.7647 -3.9540 -2.4640
  872MOL0     H17660   8.570   1.012   5.251 -1.7686 -0.5888 -0.7301
  872MOL0     H17661   8.411   1.004   5.408  2.5131  0.1045  0.3457
  872MOL0     H17662   8.403   1.179   5.419 -0.3081 -0.5181  0.6660
  872MOL0     H17663   8.303   1.201   5.190  0.1497  1.6295  2.1602
  872MOL0     H17664   8.311   1.022   5.180  1.2577 -0.0752  1.0921
  872MOL0     H17665   8.146   1.172   5.398 -1.5355 -0.4790 -0.2007
  872MOL0     H17666   8.070   1.117   5.265 -2.1897 -2.1458  1.6117
  872MOL0     H17667   8.231   0.937   5.440  1.2277 -0.0240 -1.7853
  872MOL0     H17668   8.056   0.974   5.455  0.6613  3.1702 -0.2879
  872MOL0     H17669   8.110   0.752   5.333 -2.5993 -0.3346 -0.0784
  872MOL0     H17670   8.185   0.846   5.200  1.2816  0.0994  0.8130
  872MOL0     H17671   8.003   0.985   5.031  1.6005 -0.6877  0.4528
  872MOL0     H17672   7.710   1.091   4.991 -3.4134  0.3820 -0.2046
  872MOL0     H17673   7.793   0.981   4.881  0.1479  0.6067  1.6447
  872MOL0     H17674   7.582   0.818   4.957 -1.1234  0.6511  4.3912
  872MOL0     H17675   7.562   0.944   4.831 -0.8807 -0.3509  0.0972
  872MOL0     H17676   7.483   1.099   5.021  0.8222  0.6376  1.8967
  872MOL0     H17677   7.505   0.967   5.131 -2.0368 -1.7061 -0.0432
  872MOL0     H17678   7.328   0.824   5.013 -1.9469  0.1302 -0.5777
  872MOL0     H17679   7.330   0.952   4.883  0.7291  2.6424 -0.5371
  872MOL0     H17680   7.150   1.015   4.810  2.5174 -0.2498  0.2484
  872MOL0     H17681   6.866   1.102   4.691 -0.9805  0.2658  2.7493
  872MOL0     H17682   6.966   1.251   4.656  0.6466 -0.9532 -1.4127
  872MOL0     H17683   7.030   1.090   4.632  1.0715 -0.8322  1.4833
  872MOL0     H17684   6.799   1.621   4.807  0.0745  0.4809 -0.9859
  872MOL0     H17685   6.612   1.779   4.762  0.9388 -1.0997 -1.4861
  872MOL0     H17686   6.244   1.693   4.982  3.3860 -0.9503  0.2619
  872MOL0     H17687   6.277   1.829   5.078 -0.2889  1.0550 -0.9138
  872MOL0     H17688   6.194   1.965   4.874 -1.2987  0.3577  0.5689
  872MOL0     H17689   6.121   1.808   4.817 -1.3549 -0.9812  0.0682
  872MOL0     H17690   6.066   1.971   5.068 -1.2218 -1.4459  3.1334
  872MOL0     H17691   6.013   1.801   5.054  1.4999 -0.6266 -1.3890
  872MOL0     H17692   5.938   2.053   4.896  1.2861 -0.6660 -0.5797
  872MOL0     H17693   5.901   1.891   4.837  1.3460  2.7021 -1.4533
  872MOL0     H17694   5.819   1.978   5.113  3.2664  2.0653 -1.9904
  872MOL0     H17695   5.779   1.822   5.018  0.0704 -0.7078 -2.8062
  872MOL0     H17696   5.674   2.096   4.967  0.3588 -0.7830  2.4636
  872MOL0     H17697   5.664   1.966   4.845 -1.8560  0.1999 -0.0389
  872MOL0     H17698   5.577   1.899   5.127 -2.3479 -0.4072  0.5057
  872MOL0     H17699   5.520   1.828   4.978 -0.3545 -0.5256  0.2558
  872MOL0     H17700   5.458   2.126   5.065 -0.8255  0.1461 -0.2024
  872MOL0     H17701   5.359   1.978   5.067  2.6936 -3.1946  2.3245
  872MOL0     H17702   6.399   1.611   5.095 -1.8655 -1.0851 -1.7826
  872MOL0     H17703   6.577   1.440   5.116  2.7502 -0.8850 -1.2853
  872MOL0     H17704   6.950   1.333   5.123  0.1967 -0.0368  0.2984
  872MOL0     H17705   7.131   1.186   5.196  0.2894  2.5469  0.1348
  872MOL0     H17706   8.952   0.796   5.414  2.9438 -1.8495  0.9286
  872MOL0     H17707   9.182   0.752   5.449  1.4134  1.2817 -0.0253
  872MOL0     H17708   9.743   0.973   5.130 -3.0711  2.3931  0.9417
  872MOL0     H17709   9.960   0.944   5.227 -0.5492  1.7175 -0.0641
  872MOL0     H17710  10.027   0.695   5.629  1.2187 -2.3042  0.5167
  872MOL0     H17711   9.993   0.619   5.465 -2.5934  1.1247  0.0595
  872MOL0     H17712  10.220   0.579   5.572  1.0988  1.2493  1.0288
  872MOL0     H17713  10.256   0.746   5.543  1.0167 -0.6466  1.1117
  872MOL0     H17714  10.181   0.697   5.287 -2.5050 -1.5634  1.0201
  872MOL0     H17715  10.211   0.532   5.325  0.6816 -0.6104  0.6030
  872MOL0     H17716  10.417   0.660   5.232 -0.3441  4.0380 -1.2897
  872MOL0     H17717  10.436   0.625   5.412  0.8682 -1.5431 -0.7654
  872MOL0     H17718  10.408   1.050   5.409  2.0645  0.1501 -0.2457
  872MOL0     H17719   9.788   0.718   5.548  0.5046 -1.7933 -1.6205
  872MOL0     H17720   9.562   0.775   5.478 -0.4061  1.2347  0.3400
  873MOL0     O17721   4.833  10.849   1.080  0.3174  0.5009  0.0634
  873MOL0     C17722   4.838  10.956   1.141  0.8254  0.1301  0.5402
  873MOL0     O17723   4.882  10.970   1.273 -0.0412  0.2073 -0.2627
  873MOL0     C17724   4.867  10.861   1.356  0.3990 -0.6938  0.7071
  873MOL0     C17725   4.747  10.783   1.364 -0.6744 -0.1757  0.3017
  873MOL0     C17726   4.731  10.689   1.470  0.3012 -0.1179 -0.0045
  873MOL0     C17727   4.835  10.657   1.557 -0.4877 -0.3026 -0.8762
  873MOL0     O17728   4.826  10.560   1.658  0.6361  0.0689  0.1656
  873MOL0     C17729   4.794  10.431   1.604 -0.2014 -0.3348  0.5473
  873MOL0     C17730   4.845  10.317   1.689 -0.2765  1.0892 -0.3757
  873MOL0     C17731   4.760  10.293   1.814  0.6664 -0.4063 -0.5169
  873MOL0     C17732   4.762  10.153   1.877 -0.1523 -0.3354 -0.7385
  873MOL0     C17733   4.731  10.148   2.028  0.3246  0.1099 -0.1322
  873MOL0     C17734   4.739  10.017   2.091 -0.0378 -1.2530 -0.6920
  873MOL0     C17735   4.713  10.029   2.250  0.5762  0.3865  0.2196
  873MOL0     C17736   4.717   9.894   2.326 -0.8170  0.2652  0.5997
  873MOL0     N17737   4.604   9.806   2.290  0.5913 -0.1197 -0.8049
  873MOL0     C17738   4.606   9.679   2.234 -1.0351 -0.5950 -0.1016
  873MOL0     C17739   4.475   9.638   2.219  0.3318  0.7901 -0.3983
  873MOL0     C17740   4.431   9.507   2.153 -0.1196  0.6608 -0.3278
  873MOL0     C17741   4.378   9.411   2.265  0.3453  0.7569 -0.1642
  873MOL0     C17742   4.480   9.385   2.373 -0.1154 -0.0539  0.0566
  873MOL0     C17743   4.414   9.320   2.494 -0.7399  0.4084 -0.3160
  873MOL0     O17744   4.317   9.224   2.448 -0.3065 -0.9057  1.2259
  873MOL0     C17745   4.201   9.218   2.524 -0.6507 -0.3951 -0.1073
  873MOL0     C17746   4.091   9.149   2.474 -0.7632  0.0845  0.2258
  873MOL0     C17747   3.969   9.137   2.543  1.1325  0.5891 -0.6866
  873MOL0     C17748   3.872   9.043   2.478 -0.0273  0.1027 -0.4506
  873MOL0     C17749   3.956   9.186   2.674  0.1401  0.2243 -0.1115
  873MOL0     C17750   3.832   9.166   2.754  0.4719 -0.6035 -0.4620
  873MOL0     O17751   3.842   9.170   2.895 -0.8576 -0.7953  0.0692
  873MOL0     C17752   3.722   9.156   2.959  0.5331  0.2726  0.0572
  873MOL0     C17753   3.628   9.264   2.966  0.8331  1.1118 -0.2542
  873MOL0     C17754   3.515   9.252   3.049 -0.5112  0.0585  0.5745
  873MOL0     C17755   3.496   9.146   3.133 -0.4324 -0.3973 -0.2069
  873MOL0     O17756   3.378   9.129   3.208  0.1855 -0.3921  0.3062
  873MOL0     C17757   3.362   9.058   3.333 -0.4144  0.0060  0.1487
  873MOL0     C17758   3.474   9.074   3.451  0.0798  0.5361  0.5784
  873MOL0     C17759   3.497   9.219   3.496  0.2980  0.4549 -0.3436
  873MOL0     C17760   3.565   9.220   3.639 -0.1956  0.6056  0.2898
  873MOL0     C17761   3.551   9.350   3.717  0.3383  0.2555  0.2629
  873MOL0     C17762   3.419   9.430   3.725  0.4912  0.6485  0.2336
  873MOL0     C17763   3.445   9.557   3.797  0.1545 -0.4797 -0.2898
  873MOL0     C17764   3.312   9.625   3.865  0.0608  0.2606  1.1413
  873MOL0    Cl17765   3.232   9.720   3.730 -0.3981 -0.2543  0.2269
  873MOL0     C17766   3.599   9.044   3.128 -0.3180  0.4114  0.0565
  873MOL0     C17767   3.711   9.054   3.045 -0.4140  0.0830  0.5474
  873MOL0     O17768   3.721   9.166   2.691 -0.1712 -0.5413 -0.5035
  873MOL0     C17769   4.059   9.261   2.727 -0.4734 -0.1736 -0.2968
  873MOL0     C17770   4.178   9.268   2.651 -0.2874 -0.6887  0.2620
  873MOL0     N17771   4.392   9.740   2.272  0.2691 -0.0541 -0.4146
  873MOL0     N17772   4.472   9.833   2.297 -0.5071  0.8127 -0.2652
  873MOL0     C17773   4.952  10.729   1.542 -0.1263  0.0534 -0.0668
  873MOL0     C17774   4.975  10.828   1.441 -0.1596  0.6206 -0.0207
  873MOL0     C17775   4.834  11.085   1.065  0.4360 -0.1900  0.4759
  873MOL0     C17776   4.843  11.205   1.132 -0.3849  0.2053 -0.1334
  873MOL0     C17777   4.840  11.325   1.055  0.8211 -0.1372 -0.6807
  873MOL0     C17778   4.837  11.325   0.909  0.2364  0.6132  0.6861
  873MOL0     O17779   4.842  11.428   0.815 -0.9512  0.6525  0.1462
  873MOL0     C17780   4.865  11.559   0.878  0.0417  0.4980  0.3248
  873MOL0     C17781   4.867  11.671   0.772 -0.0312 -0.0072 -0.0838
  873MOL0     C17782   4.730  11.709   0.708 -0.5905  0.2472 -0.3334
  873MOL0     C17783   4.628  11.775   0.808 -0.2748 -0.3565 -0.2979
  873MOL0     C17784   4.535  11.860   0.728  0.8057 -0.4416  0.6949
  873MOL0     C17785   4.479  11.945   0.656  0.0055 -0.2379 -0.4692
  873MOL0     C17786   4.829  11.191   0.852 -0.0111 -0.1680 -0.1464
  873MOL0     C17787   4.817  11.075   0.931 -0.3512 -0.0773 -1.2807
  873MOL0     H17788   4.671  10.823   1.297 -0.0318 -2.0115 -1.6542
  873MOL0     H17789   4.636  10.637   1.484 -1.1023  1.9295 -1.3986
  873MOL0     H17790   4.687  10.421   1.586 -0.2821  2.1058 -0.7285
  873MOL0     H17791   4.849  10.414   1.511 -0.5153 -0.1595  0.3260
  873MOL0     H17792   4.831  10.228   1.628  0.1394 -0.6220  1.8893
  873MOL0     H17793   4.948  10.333   1.720  0.0865  0.7605 -1.3854
  873MOL0     H17794   4.792  10.368   1.887 -0.8648 -0.5251  0.3232
  873MOL0     H17795   4.656  10.322   1.801  0.4386 -0.2696  1.4285
  873MOL0     H17796   4.691  10.091   1.821 -1.7807 -1.1576  2.0604
  873MOL0     H17797   4.869  10.128   1.886 -0.1340  0.4988  3.9953
  873MOL0     H17798   4.799  10.220   2.075 -0.3318 -0.4846  1.8191
  873MOL0     H17799   4.625  10.174   2.029  0.4354  0.7624 -1.9718
  873MOL0     H17800   4.668   9.943   2.051  0.2030 -1.7043 -0.3023
  873MOL0     H17801   4.844   9.990   2.073  0.4342  1.1057 -1.8033
  873MOL0     H17802   4.785  10.098   2.296  1.3146  0.4104 -0.9317
  873MOL0     H17803   4.614  10.070   2.271  1.0368  0.8759  1.5819
  873MOL0     H17804   4.685   9.912   2.429 -0.0698  1.4341  0.6416
  873MOL0     H17805   4.811   9.837   2.327 -1.6558 -1.2481 -0.9442
  873MOL0     H17806   4.700   9.630   2.214  0.7078  3.2316 -2.3239
  873MOL0     H17807   4.350   9.527   2.082  0.8362  0.0753 -1.6307
  873MOL0     H17808   4.514   9.457   2.101  1.6556  1.0138  2.0114
  873MOL0     H17809   4.348   9.317   2.218  1.8908  0.7287 -1.1469
  873MOL0     H17810   4.288   9.454   2.311  0.3793 -0.5283  1.1852
  873MOL0     H17811   4.521   9.479   2.411 -0.4599  1.0722 -2.1781
  873MOL0     H17812   4.564   9.322   2.345 -2.6201 -3.1305 -1.2256
  873MOL0     H17813   4.369   9.407   2.544 -0.5295  0.2980  0.0691
  873MOL0     H17814   4.470   9.261   2.567 -3.2502 -0.9413  0.6482
  873MOL0     H17815   4.090   9.104   2.375  0.8318  1.6866 -0.5778
  873MOL0     H17816   3.898   9.022   2.374  0.6995 -2.2220  0.1556
  873MOL0     H17817   3.844   8.951   2.530 -1.4431 -0.4801 -2.1624
  873MOL0     H17818   3.780   9.102   2.472  0.4558  0.9031 -0.1981
  873MOL0     H17819   3.646   9.345   2.896 -0.9007  0.3538 -1.6588
  873MOL0     H17820   3.432   9.320   3.035 -0.7236 -0.3825 -0.3111
  873MOL0     H17821   3.268   9.096   3.373 -2.9325 -0.6968 -4.4003
  873MOL0     H17822   3.336   8.955   3.306  0.6231 -0.2380  0.0094
  873MOL0     H17823   3.431   9.017   3.533 -2.8315 -0.1089 -1.2462
  873MOL0     H17824   3.562   9.022   3.413  1.6242  2.9866  0.5365
  873MOL0     H17825   3.393   9.255   3.499 -0.1869 -0.9354  1.3509
  873MOL0     H17826   3.553   9.280   3.425 -0.7797  1.5715 -0.2820
  873MOL0     H17827   3.531   9.127   3.684 -1.4405  0.6273 -0.5491
  873MOL0     H17828   3.673   9.204   3.631 -0.5523 -1.1163 -2.2688
  873MOL0     H17829   3.641   9.410   3.702  1.2450 -0.8859  0.9328
  873MOL0     H17830   3.569   9.325   3.821 -0.9902  1.4979  0.8264
  873MOL0     H17831   3.395   9.448   3.619  4.0957 -1.0604 -1.0324
  873MOL0     H17832   3.344   9.368   3.774 -1.1325  1.1077 -1.5180
  873MOL0     H17833   3.500   9.621   3.728  1.8343 -0.7293  0.7435
  873MOL0     H17834   3.512   9.540   3.882  2.5873  2.5869 -1.4256
  873MOL0     H17835   3.327   9.700   3.943  0.4779  0.2363  1.0889
  873MOL0     H17836   3.236   9.554   3.897 -0.9113  1.9726  2.8616
  873MOL0     H17837   3.586   8.954   3.187 -1.9322  0.3291 -0.3623
  873MOL0     H17838   3.795   8.985   3.040  0.8043  1.5062  0.6977
  873MOL0     H17839   4.043   9.299   2.827  1.3777 -0.6659  0.2302
  873MOL0     H17840   4.259   9.305   2.713 -0.9938 -1.5916  1.7715
  873MOL0     H17841   5.033  10.708   1.612 -0.1827 -2.7225 -0.7004
  873MOL0     H17842   5.075  10.868   1.429  0.4841 -0.6612  0.8418
  873MOL0     H17843   4.844  11.205   1.241 -0.5954  0.7575 -0.1269
  873MOL0     H17844   4.838  11.421   1.106  2.5320  0.6665 -2.0349
  873MOL0     H17845   4.779  11.573   0.945  0.4677  1.2979  0.7146
  873MOL0     H17846   4.962  11.569   0.928 -0.8509 -0.7943  2.4441
  873MOL0     H17847   4.942  11.653   0.695  0.2108 -0.8700  0.3414
  873MOL0     H17848   4.902  11.759   0.828  0.0435  1.2440 -1.9889
  873MOL0     H17849   4.681  11.624   0.659 -0.7252  0.7447 -1.0721
  873MOL0     H17850   4.744  11.786   0.632 -0.4348  1.3166  0.7479
  873MOL0     H17851   4.686  11.833   0.880 -0.9472 -0.2695  0.1842
  873MOL0     H17852   4.566  11.707   0.867  2.6624 -1.8766  1.2225
  873MOL0     H17853   4.452  12.033   0.602  0.2220  0.8370  1.1100
  873MOL0     H17854   4.829  11.199   0.744 -2.0763 -3.1298 -0.4630
  873MOL0     H17855   4.807  10.981   0.878  0.6195  0.1729 -1.9252
  874MOL0     O17856   5.804   2.670   3.843 -0.2228  0.2204  0.6162
  874MOL0     C17857   5.865   2.754   3.902  0.0239 -0.3705 -1.0356
  874MOL0     O17858   5.811   2.853   3.974 -0.5957 -0.3126  0.9975
  874MOL0     C17859   5.675   2.886   3.954  0.4999  0.2728 -0.5454
  874MOL0     C17860   5.614   2.899   3.819 -0.3529 -0.1583 -0.2877
  874MOL0     C17861   5.479   2.916   3.816  0.3231  0.3573  0.1047
  874MOL0     C17862   5.405   2.931   3.926  0.2332 -1.1390 -0.5845
  874MOL0     O17863   5.265   2.907   3.908  0.8362  0.2248  0.5717
  874MOL0     C17864   5.189   2.885   4.031  0.4967 -0.3716  0.2462
  874MOL0     C17865   5.037   2.860   3.998  0.2385 -0.0085  0.0790
  874MOL0     C17866   4.946   2.854   4.119 -0.3715 -0.8383 -0.4867
  874MOL0     C17867   4.799   2.821   4.088 -1.1104 -0.1534  0.4645
  874MOL0     C17868   4.715   2.933   4.015 -1.3559  0.4969  0.3310
  874MOL0     C17869   4.564   2.901   4.006 -0.3190  0.7136  0.3353
  874MOL0     C17870   4.487   2.992   4.100 -0.1971 -1.3452  0.1328
  874MOL0     C17871   4.342   2.965   4.074 -0.4978 -0.9593 -0.0342
  874MOL0     N17872   4.246   3.035   4.167 -0.1559 -0.5315  0.5534
  874MOL0     C17873   4.237   3.010   4.303  0.5437 -0.6127 -0.2655
  874MOL0     C17874   4.122   3.072   4.348 -0.2591  0.8034 -0.2215
  874MOL0     C17875   4.063   3.068   4.487  0.2214 -0.7410  0.3645
  874MOL0     C17876   4.111   2.951   4.571  0.4185  0.2592  0.5331
  874MOL0     C17877   4.032   2.948   4.704 -0.4777  0.0062 -0.1013
  874MOL0     C17878   3.901   2.878   4.698  0.1915  0.5546  0.4305
  874MOL0     O17879   3.809   2.979   4.667 -0.4191  0.2016 -0.4462
  874MOL0     C17880   3.680   2.945   4.664  0.2765 -0.5009 -0.7386
  874MOL0     C17881   3.596   3.050   4.658 -0.0173  0.2679 -0.3177
  874MOL0     C17882   3.459   3.033   4.658 -0.0756 -0.4665  0.7370
  874MOL0     C17883   3.379   3.166   4.641  0.5442  0.2699  0.7891
  874MOL0     C17884   3.401   2.903   4.659 -0.3886  0.1205  0.5357
  874MOL0     C17885   3.254   2.880   4.634 -0.5976  0.5170 -0.6409
  874MOL0     O17886   3.217   2.763   4.568  0.5176  0.0527 -1.3959
  874MOL0     C17887   3.083   2.751   4.529 -0.0740  0.7227 -0.8141
  874MOL0     C17888   2.994   2.665   4.605 -1.4231  0.2459  0.4251
  874MOL0     C17889   2.869   2.640   4.554  0.0478  0.3114 -1.8238
  874MOL0     C17890   2.825   2.702   4.439 -0.4351  0.5687  0.3044
  874MOL0     O17891   2.702   2.658   4.401  0.1650  0.4199 -0.4787
  874MOL0     C17892   2.623   2.742   4.313 -0.1418  0.0418  0.3579
  874MOL0     C17893   2.474   2.709   4.308 -1.1990 -0.4261  0.6866
  874MOL0     C17894   2.433   2.593   4.206  1.1387  0.2669 -0.1522
  874MOL0     C17895   2.280   2.565   4.221 -0.0044 -0.7828 -0.0756
  874MOL0     C17896   2.246   2.514   4.360  0.6353 -0.6791  0.3788
  874MOL0     C17897   2.111   2.436   4.357 -0.8017 -0.1347  0.3524
  874MOL0     C17898   2.046   2.404   4.491  0.8300 -0.2330  1.1460
  874MOL0     C17899   2.114   2.312   4.586 -0.2307  0.5696  0.7627
  874MOL0    Cl17900   2.272   2.359   4.650  0.3687  0.0253 -0.3916
  874MOL0     C17901   2.901   2.792   4.367 -0.5430  0.0433  0.1655
  874MOL0     C17902   3.036   2.810   4.407 -0.4454 -0.1282 -0.9145
  874MOL0     O17903   3.174   2.947   4.688  0.0245 -0.4737  0.3976
  874MOL0     C17904   3.493   2.793   4.665  0.6005 -0.3762  0.1412
  874MOL0     C17905   3.633   2.814   4.674  0.0352 -0.3425 -0.4174
  874MOL0     N17906   4.079   3.136   4.237 -0.8355  0.1981  0.4569
  874MOL0     N17907   4.137   3.110   4.132  0.1124 -0.0011  0.6541
  874MOL0     C17908   5.470   2.941   4.050 -0.5861 -0.7061 -0.0024
  874MOL0     C17909   5.603   2.926   4.068 -0.2930  0.0953  0.2573
  874MOL0     C17910   6.014   2.723   3.929 -1.0362 -0.0717 -1.0200
  874MOL0     C17911   6.093   2.656   3.838 -0.0410 -0.2390  1.1702
  874MOL0     C17912   6.231   2.640   3.850 -0.2005 -0.0337 -0.1403
  874MOL0     C17913   6.287   2.685   3.976 -0.1925  0.3734  0.6465
  874MOL0     O17914   6.418   2.658   4.005 -0.0878 -0.1949 -0.5479
  874MOL0     C17915   6.461   2.523   3.987 -0.2828 -0.1512 -1.1784
  874MOL0     C17916   6.402   2.430   4.075  0.3504 -0.1295 -0.3439
  874MOL0     C17917   6.452   2.466   4.224  0.1963 -0.7625  0.3628
  874MOL0     C17918   6.437   2.355   4.329  0.4748 -0.0635 -0.1850
  874MOL0     C17919   6.290   2.330   4.358 -0.3162 -0.2245  0.1076
  874MOL0     C17920   6.178   2.312   4.378  0.7282  0.3119 -0.5513
  874MOL0     C17921   6.206   2.743   4.068  0.7680 -0.4510 -0.6004
  874MOL0     C17922   6.065   2.765   4.053  0.7414 -0.1592 -0.1890
  874MOL0     H17923   5.679   2.901   3.732 -0.0380  5.5696 -0.2778
  874MOL0     H17924   5.427   2.917   3.720  0.3004 -1.5831  0.0526
  874MOL0     H17925   5.233   2.808   4.096 -0.1524  0.0697  1.2339
  874MOL0     H17926   5.202   2.982   4.079 -1.7406  1.1612 -2.0439
  874MOL0     H17927   4.994   2.943   3.942  0.1196  0.3371  0.6797
  874MOL0     H17928   5.029   2.762   3.949 -0.0153 -0.7108  1.4687
  874MOL0     H17929   4.990   2.784   4.191  1.3743  0.0134 -0.6559
  874MOL0     H17930   4.946   2.955   4.162 -2.7106 -0.0426 -2.1884
  874MOL0     H17931   4.801   2.727   4.031  1.6219  0.4728 -0.6470
  874MOL0     H17932   4.754   2.803   4.186 -1.4025  2.6675  0.9097
  874MOL0     H17933   4.739   3.031   4.057 -0.8791  0.1993  0.7709
  874MOL0     H17934   4.749   2.936   3.911  1.3030  1.4963  1.1285
  874MOL0     H17935   4.521   2.916   3.907 -1.5463 -0.8806  0.5989
  874MOL0     H17936   4.553   2.794   4.026 -1.0250  0.4654 -1.2220
  874MOL0     H17937   4.509   2.964   4.204  0.1276 -1.7080 -0.0301
  874MOL0     H17938   4.512   3.097   4.083 -0.5754 -1.2809 -0.0289
  874MOL0     H17939   4.331   2.856   4.071 -2.2556 -0.7957 -1.1938
  874MOL0     H17940   4.307   3.015   3.984 -0.7516  3.2722  2.1574
  874MOL0     H17941   4.297   2.940   4.360 -0.5116  0.5409  2.4164
  874MOL0     H17942   4.103   3.157   4.537 -1.7622  0.0511  0.6145
  874MOL0     H17943   3.954   3.076   4.483  0.1492  0.1391  2.5247
  874MOL0     H17944   4.218   2.971   4.581 -0.1903  3.9900  1.1646
  874MOL0     H17945   4.097   2.861   4.510 -1.0733 -0.4349  1.8146
  874MOL0     H17946   4.020   3.053   4.732 -0.7762 -0.4123  1.4254
  874MOL0     H17947   4.097   2.898   4.776  0.0273  0.0883 -0.5002
  874MOL0     H17948   3.877   2.829   4.793  3.7004  0.6193  1.5221
  874MOL0     H17949   3.900   2.822   4.603  0.7783  5.5402 -2.8901
  874MOL0     H17950   3.644   3.146   4.675  0.4100 -0.2510  1.6997
  874MOL0     H17951   3.436   3.253   4.606 -0.1298  0.7767  0.9356
  874MOL0     H17952   3.295   3.151   4.573  0.5590 -1.2465  1.0762
  874MOL0     H17953   3.325   3.196   4.731 -1.3880 -0.5862 -0.0346
  874MOL0     H17954   3.029   2.606   4.689 -0.8793  1.4478  1.0685
  874MOL0     H17955   2.808   2.564   4.602  1.1623  0.8478  0.5864
  874MOL0     H17956   2.629   2.842   4.358  1.8313 -0.6307  1.7027
  874MOL0     H17957   2.657   2.737   4.209 -0.5067 -2.1986  0.3009
  874MOL0     H17958   2.439   2.685   4.410  1.9567 -0.7979  1.7859
  874MOL0     H17959   2.423   2.801   4.278 -2.2025 -1.3311 -0.5238
  874MOL0     H17960   2.495   2.504   4.213 -1.0445 -1.2023  2.1682
  874MOL0     H17961   2.437   2.622   4.100  0.0598  3.9033  0.6350
  874MOL0     H17962   2.233   2.664   4.210  2.6180  0.5425 -0.2470
  874MOL0     H17963   2.247   2.499   4.140  3.0276 -1.8428 -0.5828
  874MOL0     H17964   2.244   2.602   4.425 -3.1752  1.2288 -1.9032
  874MOL0     H17965   2.320   2.442   4.395  4.0420  3.0312  1.4681
  874MOL0     H17966   2.036   2.487   4.296 -1.0062  1.6101  1.9638
  874MOL0     H17967   2.124   2.340   4.305  1.3318 -0.0068  0.5675
  874MOL0     H17968   1.941   2.374   4.482  0.9853 -0.6263  0.5962
  874MOL0     H17969   2.058   2.500   4.542  1.0686  0.1405  0.3949
  874MOL0     H17970   2.126   2.216   4.534 -1.8536 -1.1636  3.3654
  874MOL0     H17971   2.047   2.286   4.668 -0.5326 -0.0634  0.3241
  874MOL0     H17972   2.865   2.848   4.281  0.0201  0.6810  0.3358
  874MOL0     H17973   3.095   2.874   4.343  0.1057  0.7037  0.4066
  874MOL0     H17974   3.455   2.692   4.654 -1.8473  0.6776 -1.7767
  874MOL0     H17975   3.693   2.727   4.697 -0.4589 -0.9550 -1.3744
  874MOL0     H17976   5.414   2.964   4.141 -1.7556 -0.9049 -0.6437
  874MOL0     H17977   5.645   2.932   4.168  3.7223 -0.2659 -1.2176
  874MOL0     H17978   6.045   2.634   3.743  1.7735 -0.6678  0.3161
  874MOL0     H17979   6.299   2.611   3.771  0.1775  0.3074  0.0596
  874MOL0     H17980   6.438   2.482   3.889  2.8653 -1.8135 -1.3396
  874MOL0     H17981   6.569   2.534   3.997 -0.2449  0.5644 -2.2063
  874MOL0     H17982   6.425   2.324   4.060 -1.6243 -1.4844  4.3181
  874MOL0     H17983   6.295   2.447   4.066 -0.1528 -1.8219  1.6597
  874MOL0     H17984   6.403   2.559   4.255  2.4454  0.3690  0.7315
  874MOL0     H17985   6.558   2.494   4.228  0.8438 -3.1225  3.1563
  874MOL0     H17986   6.484   2.396   4.418 -1.9080  1.3193  0.5412
  874MOL0     H17987   6.488   2.262   4.300 -0.3810  0.3345 -3.3696
  874MOL0     H17988   6.074   2.287   4.384  1.4863 -3.0822  0.5121
  874MOL0     H17989   6.240   2.781   4.164 -0.9487  2.0669 -0.8890
  874MOL0     H17990   5.994   2.816   4.117 -1.4950 -0.4497 -2.3132
  875MOL0     O17991  10.594   6.195   0.362 -0.0616  0.6861 -0.2932
  875MOL0     C17992  10.536   6.302   0.368 -0.3690 -0.0816  0.1827
  875MOL0     O17993  10.404   6.332   0.389  1.0962  0.7920  0.6887
  875MOL0     C17994  10.317   6.224   0.366  1.2256 -0.8053  0.2249
  875MOL0     C17995  10.249   6.212   0.241 -0.4327  0.2331 -0.5762
  875MOL0     C17996  10.149   6.125   0.220  0.1231  0.8968  0.4038
  875MOL0     C17997  10.105   6.045   0.320 -0.0921  0.7890  0.0705
  875MOL0     O17998  10.007   5.945   0.302 -0.6136 -0.0374  0.9847
  875MOL0     C17999   9.964   5.906   0.177  0.4659 -0.4860  0.6066
  875MOL0     C18000   9.918   5.779   0.175  0.2704 -0.0034 -0.3587
  875MOL0     C18001   9.774   5.764   0.240  0.4183 -0.7952 -0.1598
  875MOL0     C18002   9.720   5.618   0.249 -0.8503 -1.1011  0.2758
  875MOL0     C18003   9.586   5.608   0.325 -0.3865  0.1999  0.1917
  875MOL0     C18004   9.529   5.465   0.324 -0.3260 -0.1205 -0.1221
  875MOL0     C18005   9.381   5.468   0.367  0.3758  0.4079  0.1804
  875MOL0     C18006   9.337   5.330   0.411 -0.4264  0.6802 -0.8216
  875MOL0     N18007   9.319   5.232   0.301  0.2103  0.7261  0.3853
  875MOL0     C18008   9.265   5.262   0.180  0.2019 -0.1133  1.3193
  875MOL0     C18009   9.271   5.147   0.101 -0.3906  0.4766 -0.4633
  875MOL0     C18010   9.237   5.133  -0.041  0.2434  0.1281 -0.1482
  875MOL0     C18011   9.081   5.106  -0.066 -0.0265 -1.6224 -0.0327
  875MOL0     C18012   9.075   5.071  -0.215 -0.2613  0.1632  0.9055
  875MOL0     C18013   8.944   5.010  -0.249  0.5029  0.2411 -1.1956
  875MOL0     O18014   8.823   5.081  -0.211 -0.7624 -0.9713  0.2678
  875MOL0     C18015   8.798   5.201  -0.282  0.2476  0.3519  0.4398
  875MOL0     C18016   8.725   5.311  -0.217  0.4036  0.1791  0.2948
  875MOL0     C18017   8.695   5.436  -0.290  0.3404  0.2703  0.1808
  875MOL0     C18018   8.615   5.552  -0.231  0.9651 -0.8138  0.3532
  875MOL0     C18019   8.727   5.438  -0.426  0.2388 -0.4412 -0.2079
  875MOL0     C18020   8.685   5.544  -0.521 -0.2010 -0.3840 -0.4349
  875MOL0     O18021   8.729   5.672  -0.504 -0.3236 -0.1178 -0.2202
  875MOL0     C18022   8.720   5.761  -0.600  0.3024 -0.1097  0.5194
  875MOL0     C18023   8.714   5.737  -0.735  0.2790  0.6090  0.8376
  875MOL0     C18024   8.684   5.833  -0.832 -0.5764  1.0102  0.1652
  875MOL0     C18025   8.678   5.963  -0.795  0.2107  0.1297 -0.1899
  875MOL0     O18026   8.657   6.051  -0.898 -0.1486  0.7226 -0.0546
  875MOL0     C18027   8.687   6.192  -0.875 -0.2326  1.0087  0.4104
  875MOL0     C18028   8.723   6.262  -1.008 -0.0225  0.8369  0.3264
  875MOL0     C18029   8.784   6.395  -0.964 -0.1002  0.4565  0.9623
  875MOL0     C18030   8.801   6.484  -1.090 -0.1180 -0.2691 -0.3703
  875MOL0     C18031   8.875   6.616  -1.053 -0.7009 -0.5467  0.5525
  875MOL0     C18032   8.789   6.747  -1.057  0.8792  0.3462  0.5681
  875MOL0     C18033   8.756   6.761  -1.210  0.3231  0.5602  0.3193
  875MOL0     C18034   8.606   6.772  -1.225  0.3174  0.4514  0.8045
  875MOL0    Cl18035   8.552   6.916  -1.128 -0.1693 -0.2684 -0.0739
  875MOL0     C18036   8.690   5.995  -0.664 -0.9836  0.0620  0.5541
  875MOL0     C18037   8.710   5.896  -0.564  0.3376  0.1085  0.0438
  875MOL0     O18038   8.582   5.507  -0.580 -0.0898 -0.0476  0.2106
  875MOL0     C18039   8.803   5.332  -0.491 -0.3852 -0.5034  0.5822
  875MOL0     C18040   8.827   5.221  -0.413  0.2941 -0.8192  0.0226
  875MOL0     N18041   9.349   5.064   0.181 -0.3569 -0.4423 -0.1432
  875MOL0     N18042   9.373   5.105   0.300  0.7411  0.1248  1.0597
  875MOL0     C18043  10.163   6.059   0.448 -0.3880 -0.7843 -1.1262
  875MOL0     C18044  10.262   6.154   0.472 -0.6256  0.2376 -0.1128
  875MOL0     C18045  10.621   6.419   0.380 -0.2349  0.2819 -0.3667
  875MOL0     C18046  10.587   6.529   0.472  0.4910 -0.2700  0.3459
  875MOL0     C18047  10.667   6.649   0.478 -1.2774  0.1480  0.7362
  875MOL0     C18048  10.795   6.647   0.414  1.0275 -0.0481  0.4826
  875MOL0     O18049  10.875   6.760   0.387 -0.0709  0.3737 -0.0894
  875MOL0     C18050  10.844   6.884   0.446 -0.2867  0.1421 -0.0884
  875MOL0     C18051  10.946   6.986   0.398  0.2695 -0.1991  0.0450
  875MOL0     C18052  10.904   7.111   0.474 -0.4719 -0.0649 -0.5528
  875MOL0     C18053  10.983   7.234   0.430 -0.3848  0.5016 -0.1339
  875MOL0     C18054  10.917   7.288   0.303 -0.2832  0.1851 -0.0676
  875MOL0     C18055  10.867   7.341   0.208  0.5651 -0.1514  0.2313
  875MOL0     C18056  10.832   6.532   0.343 -0.5787 -0.0402  0.1458
  875MOL0     C18057  10.748   6.421   0.317  0.2660 -0.1458  0.2258
  875MOL0     H18058  10.302   6.260   0.160  1.4500 -1.2231 -0.2861
  875MOL0     H18059  10.111   6.107   0.120  2.0581 -3.6542  0.2693
  875MOL0     H18060   9.890   5.981   0.149  2.2608  1.4027  0.6759
  875MOL0     H18061  10.044   5.917   0.103 -1.2785  0.4394 -1.2318
  875MOL0     H18062   9.908   5.746   0.071  0.3100  0.4219 -0.4977
  875MOL0     H18063   9.989   5.709   0.221  0.1479 -1.2445 -1.9609
  875MOL0     H18064   9.786   5.791   0.345 -2.7718  0.0590  0.1060
  875MOL0     H18065   9.700   5.826   0.189 -1.2773 -1.0658  1.8317
  875MOL0     H18066   9.711   5.586   0.145 -0.5013 -0.6517  0.1092
  875MOL0     H18067   9.789   5.549   0.299 -0.9938 -2.2111 -0.9915
  875MOL0     H18068   9.601   5.647   0.426 -0.5202  0.0512  0.2684
  875MOL0     H18069   9.527   5.674   0.261  0.5661  0.2103 -0.7143
  875MOL0     H18070   9.531   5.408   0.230 -0.6809 -1.8179  0.8512
  875MOL0     H18071   9.591   5.407   0.393  1.7778  4.2442  1.9925
  875MOL0     H18072   9.387   5.522   0.462 -1.9661 -1.3612  1.4224
  875MOL0     H18073   9.322   5.518   0.290  2.5642  3.1130  0.1168
  875MOL0     H18074   9.238   5.360   0.449 -0.3289  0.0227 -0.0135
  875MOL0     H18075   9.413   5.296   0.482  1.2596  0.9548 -2.4268
  875MOL0     H18076   9.234   5.361   0.149  1.5620 -0.5696 -1.8270
  875MOL0     H18077   9.271   5.224  -0.092 -0.3550  1.4868  1.7857
  875MOL0     H18078   9.299   5.051  -0.079  0.1699  0.9709 -2.2301
  875MOL0     H18079   9.011   5.185  -0.036  0.3335 -1.9299  1.6867
  875MOL0     H18080   9.044   5.033   0.006  1.1926 -1.2880  0.9607
  875MOL0     H18081   9.149   4.992  -0.229 -3.0148 -2.0099 -4.0078
  875MOL0     H18082   9.095   5.167  -0.265 -2.8327 -0.4695 -1.6037
  875MOL0     H18083   8.943   4.920  -0.187  0.1221  0.6089 -0.6669
  875MOL0     H18084   8.946   4.980  -0.354  1.7539 -1.1179 -0.8218
  875MOL0     H18085   8.673   5.307  -0.122 -1.2999  3.6635 -0.3445
  875MOL0     H18086   8.688   5.628  -0.201 -0.4744  0.6860  0.1724
  875MOL0     H18087   8.563   5.610  -0.308  1.1791 -0.1832  0.6760
  875MOL0     H18088   8.543   5.531  -0.151  0.1365 -0.8218 -0.3773
  875MOL0     H18089   8.716   5.640  -0.784  1.1188  0.8904  0.3005
  875MOL0     H18090   8.680   5.801  -0.936  1.2504  2.4282 -0.3893
  875MOL0     H18091   8.599   6.242  -0.835 -0.3933  1.6552 -0.7098
  875MOL0     H18092   8.773   6.190  -0.807 -1.8031  0.7864  2.4708
  875MOL0     H18093   8.795   6.202  -1.065  0.4982  0.2730  1.5530
  875MOL0     H18094   8.629   6.273  -1.064 -1.2785  0.1268  2.2187
  875MOL0     H18095   8.885   6.376  -0.926  0.8448 -1.2988 -2.0533
  875MOL0     H18096   8.721   6.457  -0.900 -3.1716 -0.7473 -0.7105
  875MOL0     H18097   8.856   6.439  -1.173 -2.2053 -0.5616 -1.6858
  875MOL0     H18098   8.699   6.507  -1.123 -1.7795  0.2119  4.4096
  875MOL0     H18099   8.956   6.624  -1.126 -0.6632  4.3227  0.7985
  875MOL0     H18100   8.932   6.602  -0.961  2.7197 -1.8792 -1.5721
  875MOL0     H18101   8.705   6.731  -0.989 -0.6008  2.1454 -0.7214
  875MOL0     H18102   8.848   6.835  -1.031  0.9447  1.8972 -3.9237
  875MOL0     H18103   8.787   6.674  -1.269 -0.6811 -2.9193  4.4029
  875MOL0     H18104   8.801   6.853  -1.246  0.8580 -0.3750 -1.5488
  875MOL0     H18105   8.555   6.676  -1.210 -0.7256  0.7354 -0.7046
  875MOL0     H18106   8.586   6.802  -1.328 -2.2149  3.1020  1.9131
  875MOL0     H18107   8.670   6.092  -0.619  2.3948  0.8007  0.7460
  875MOL0     H18108   8.714   5.919  -0.458 -1.2938  2.9333 -0.4229
  875MOL0     H18109   8.831   5.340  -0.595  3.4207 -0.9063  1.4345
  875MOL0     H18110   8.898   5.155  -0.461  1.1442  1.2541 -1.7468
  875MOL0     H18111  10.142   6.004   0.539  0.1544  1.6619  0.5831
  875MOL0     H18112  10.283   6.179   0.576 -2.4367  1.8936 -0.1036
  875MOL0     H18113  10.493   6.518   0.524  0.7051  0.0302  0.8044
  875MOL0     H18114  10.642   6.739   0.533  0.7082  1.8728 -0.9999
  875MOL0     H18115  10.738   6.904   0.428  0.2656  1.7907 -1.8795
  875MOL0     H18116  10.853   6.871   0.554 -1.1499  1.3757  0.1525
  875MOL0     H18117  10.929   7.005   0.292  1.3155  0.3360 -0.0384
  875MOL0     H18118  11.054   6.977   0.409  0.1983  0.6466  1.8607
  875MOL0     H18119  10.940   7.086   0.574 -0.6577 -2.9569 -1.1408
  875MOL0     H18120  10.798   7.137   0.481 -0.2015  0.9697 -0.1181
  875MOL0     H18121  11.089   7.214   0.411 -0.9749 -1.7622 -1.3963
  875MOL0     H18122  10.974   7.317   0.501  0.4998  0.5078 -0.0151
  875MOL0     H18123  10.832   7.395   0.122 -1.8528  0.1933  1.3676
  875MOL0     H18124  10.933   6.531   0.302 -0.6956  0.0114 -0.1454
  875MOL0     H18125  10.787   6.343   0.252 -1.0429 -1.1312  0.5816
  876MOL0     O18126   8.581   5.800   9.634 -0.3402  0.6852  0.5892
  876MOL0     C18127   8.568   5.854   9.523 -0.2530 -0.3212 -0.0694
  876MOL0     O18128   8.460   5.833   9.438  0.3142  0.4307  0.2714
  876MOL0     C18129   8.371   5.726   9.464 -0.6849 -0.2904  0.1481
  876MOL0     C18130   8.287   5.692   9.354  0.4019  0.1079  0.4519
  876MOL0     C18131   8.197   5.589   9.372  0.1096  0.7699  0.6488
  876MOL0     C18132   8.169   5.531   9.495  0.1125 -0.0368 -0.5022
  876MOL0     O18133   8.057   5.448   9.494 -0.0109 -0.4605  0.2052
  876MOL0     C18134   8.005   5.379   9.609 -0.0644  0.2019  0.1994
  876MOL0     C18135   8.021   5.227   9.604 -0.4610 -0.2160  0.3108
  876MOL0     C18136   7.930   5.176   9.492 -0.4397  0.2009  0.5430
  876MOL0     C18137   7.937   5.022   9.482  0.5306 -0.4496 -0.0065
  876MOL0     C18138   7.859   4.975   9.370  0.6465  0.6913 -0.2867
  876MOL0     C18139   7.836   4.827   9.388  0.2447  0.7348  0.3179
  876MOL0     C18140   7.739   4.772   9.287  0.0086 -0.3700 -0.0712
  876MOL0     C18141   7.776   4.768   9.137  0.1468 -1.0489  0.0911
  876MOL0     N18142   7.906   4.688   9.118  0.1515 -0.4837 -0.6231
  876MOL0     C18143   7.917   4.551   9.111 -0.1170 -0.5723  0.1316
  876MOL0     C18144   8.052   4.532   9.087  0.1232 -0.4145 -0.4494
  876MOL0     C18145   8.129   4.404   9.074 -0.6695  0.1223 -0.4032
  876MOL0     C18146   8.118   4.297   9.188 -0.1959 -0.2538  0.0788
  876MOL0     C18147   7.989   4.214   9.183 -0.9207  0.1857  1.2049
  876MOL0     C18148   7.971   4.138   9.043 -0.0874  1.0606 -0.6026
  876MOL0     O18149   7.856   4.051   9.057 -0.3953  0.1354 -0.1131
  876MOL0     C18150   7.737   4.112   9.093 -0.3779 -0.4049 -0.8855
  876MOL0     C18151   7.678   4.234   9.045  0.1419  1.2766 -0.5799
  876MOL0     C18152   7.567   4.284   9.105  0.1190  0.0471  0.0790
  876MOL0     C18153   7.533   4.428   9.068  0.3463 -1.0633  0.3296
  876MOL0     C18154   7.502   4.207   9.205  0.5257  0.1803  0.5456
  876MOL0     C18155   7.388   4.254   9.274  0.4270 -1.3975 -0.2498
  876MOL0     O18156   7.359   4.386   9.275  0.3139 -0.2101 -0.7559
  876MOL0     C18157   7.255   4.422   9.358  0.1575  0.1416 -0.6152
  876MOL0     C18158   7.136   4.466   9.310  1.0362 -0.4194 -0.8171
  876MOL0     C18159   7.028   4.483   9.397  0.2614 -0.0558  0.0884
  876MOL0     C18160   7.046   4.457   9.539 -0.2673  0.3722 -0.0354
  876MOL0     O18161   6.972   4.478   9.643  0.2300 -0.5565  0.2019
  876MOL0     C18162   6.829   4.492   9.626 -0.4903  0.3436  0.3415
  876MOL0     C18163   6.764   4.510   9.760 -0.5086  0.8219 -0.2943
  876MOL0     C18164   6.628   4.577   9.752 -0.1492 -0.0454  0.3383
  876MOL0     C18165   6.543   4.572   9.891  0.2127  0.0102  0.4331
  876MOL0     C18166   6.404   4.621   9.849  0.3003  0.9837 -0.3026
  876MOL0     C18167   6.293   4.614   9.957 -0.7235 -0.2444 -0.1264
  876MOL0     C18168   6.271   4.470  10.012 -0.4132 -0.3103 -0.8621
  876MOL0     C18169   6.145   4.448  10.087 -0.1108  0.1125  0.0408
  876MOL0    Cl18170   6.148   4.525  10.250 -0.1993  0.8898  0.0542
  876MOL0     C18171   7.172   4.417   9.575 -1.1529 -0.7581  0.4866
  876MOL0     C18172   7.279   4.404   9.489 -0.2580  0.4259  0.8356
  876MOL0     O18173   7.304   4.167   9.299 -0.1805 -0.4352 -0.4353
  876MOL0     C18174   7.555   4.084   9.242  0.4204 -0.2216  0.2350
  876MOL0     C18175   7.678   4.052   9.195 -1.0857  0.9795  0.0557
  876MOL0     N18176   8.110   4.659   9.078  0.1744 -0.4358 -1.0201
  876MOL0     N18177   8.027   4.750   9.107 -0.6904  0.3370  0.2111
  876MOL0     C18178   8.232   5.581   9.603  0.3443  0.5108  0.4849
  876MOL0     C18179   8.325   5.675   9.589  0.0924 -0.8029 -0.3481
  876MOL0     C18180   8.682   5.927   9.476 -0.2560  0.0097  0.0245
  876MOL0     C18181   8.688   5.979   9.346 -0.1811  0.5647  0.0118
  876MOL0     C18182   8.807   6.021   9.291 -0.7592  0.1375  0.7560
  876MOL0     C18183   8.923   6.043   9.367 -0.2076  0.3860 -0.9568
  876MOL0     O18184   9.025   6.114   9.304 -0.0144  0.4653  0.5104
  876MOL0     C18185   9.074   6.244   9.369  0.2586 -0.7880 -0.4147
  876MOL0     C18186   9.116   6.350   9.268  0.6711 -0.4887  0.4168
  876MOL0     C18187   8.993   6.406   9.196  0.6486 -0.7510 -0.0729
  876MOL0     C18188   9.041   6.485   9.075  0.5654 -0.4766 -0.9342
  876MOL0     C18189   9.060   6.394   8.957 -1.0858 -0.2095  0.1660
  876MOL0     C18190   9.075   6.326   8.848  0.0578 -0.2707  0.1171
  876MOL0     C18191   8.919   6.003   9.509 -0.0023 -0.1347  0.5781
  876MOL0     C18192   8.802   5.946   9.555  0.4047 -0.1215  0.1551
  876MOL0     H18193   8.308   5.754   9.267  1.7853 -0.1863  0.5469
  876MOL0     H18194   8.148   5.552   9.283  3.7410  2.0406 -2.1644
  876MOL0     H18195   8.063   5.412   9.696  1.6823 -1.7628 -0.1314
  876MOL0     H18196   7.901   5.412   9.617  0.0516  1.0384 -1.3340
  876MOL0     H18197   8.126   5.208   9.583 -0.9404  0.2569 -3.0828
  876MOL0     H18198   7.986   5.191   9.701  0.1105  0.3304  0.7315
  876MOL0     H18199   7.832   5.216   9.519  0.0316  0.2999  2.2495
  876MOL0     H18200   7.961   5.214   9.395  0.1851  0.9025  1.0096
  876MOL0     H18201   8.038   5.002   9.445  0.3522  2.9204 -2.8865
  876MOL0     H18202   7.912   4.965   9.572  2.1284 -0.8624  0.1961
  876MOL0     H18203   7.757   5.012   9.379  0.0457 -0.9969  0.1998
  876MOL0     H18204   7.912   4.995   9.277  2.1955  0.7092  0.5697
  876MOL0     H18205   7.936   4.783   9.381  0.7226  1.3762  2.4326
  876MOL0     H18206   7.797   4.814   9.489  1.0552 -2.1243  0.3492
  876MOL0     H18207   7.702   4.679   9.332  1.6757  0.6725  3.8900
  876MOL0     H18208   7.644   4.827   9.288 -0.4200 -1.0993  0.5870
  876MOL0     H18209   7.798   4.870   9.104  0.0986 -1.8427 -2.6672
  876MOL0     H18210   7.685   4.735   9.086  0.1209  1.2388 -1.5256
  876MOL0     H18211   7.840   4.475   9.118  1.8782 -2.5482  2.9242
  876MOL0     H18212   8.109   4.359   8.977 -2.6197  1.5565 -0.7280
  876MOL0     H18213   8.233   4.433   9.059  1.2400 -4.5612  1.7185
  876MOL0     H18214   8.125   4.346   9.285  0.5929 -1.3950  0.6228
  876MOL0     H18215   8.204   4.231   9.175 -0.2885 -0.0635 -1.8174
  876MOL0     H18216   7.904   4.280   9.200 -0.6500  0.8018  0.2516
  876MOL0     H18217   7.993   4.145   9.268 -0.4131 -1.2795  0.0560
  876MOL0     H18218   8.059   4.077   9.024  0.6665  1.7849  0.4576
  876MOL0     H18219   7.958   4.219   8.970  2.9314 -0.6104 -3.2314
  876MOL0     H18220   7.732   4.283   8.964  0.7958  1.1331 -0.2337
  876MOL0     H18221   7.549   4.498   9.150  1.6045 -1.5264  0.5113
  876MOL0     H18222   7.589   4.461   8.980  1.7089  2.9620  2.4791
  876MOL0     H18223   7.428   4.427   9.040  0.2866  0.6506  0.4097
  876MOL0     H18224   7.131   4.490   9.204  2.5718  1.2776 -0.5642
  876MOL0     H18225   6.936   4.530   9.366 -0.4072 -1.6766 -0.4694
  876MOL0     H18226   6.803   4.577   9.563  0.0019  0.1738 -0.0995
  876MOL0     H18227   6.799   4.398   9.579  3.1868 -1.6686  1.6015
  876MOL0     H18228   6.759   4.411   9.805 -3.3906 -0.1501 -2.4351
  876MOL0     H18229   6.815   4.580   9.828  0.0258 -1.8895  2.2860
  876MOL0     H18230   6.570   4.530   9.672 -0.8338 -0.9264  1.3193
  876MOL0     H18231   6.646   4.680   9.721  0.4625  0.6364  2.7083
  876MOL0     H18232   6.562   4.472   9.930  1.1748  0.6218  1.6172
  876MOL0     H18233   6.574   4.646   9.967 -0.8433  0.9467 -0.0253
  876MOL0     H18234   6.367   4.549   9.775  3.4020 -1.8381  0.6695
  876MOL0     H18235   6.405   4.722   9.808  1.4688  1.0037 -0.2612
  876MOL0     H18236   6.333   4.676  10.038 -1.5890 -1.9193  1.6688
  876MOL0     H18237   6.203   4.661   9.916 -0.3048  1.6006  0.9678
  876MOL0     H18238   6.356   4.443  10.077 -0.9763 -1.0393 -0.4084
  876MOL0     H18239   6.266   4.405   9.925 -0.3916  0.4356 -1.4244
  876MOL0     H18240   6.124   4.341  10.098 -0.9426  0.3872  1.3209
  876MOL0     H18241   6.069   4.501  10.029  2.3758  2.9579 -0.8751
  876MOL0     H18242   7.186   4.396   9.681 -1.8109 -0.1912  0.6925
  876MOL0     H18243   7.377   4.369   9.521 -0.2707 -1.3006 -0.8128
  876MOL0     H18244   7.508   4.013   9.309 -0.0288 -1.6702 -1.5293
  876MOL0     H18245   7.739   3.968   9.227  1.4440  1.0278 -3.9842
  876MOL0     H18246   8.212   5.550   9.705  2.1193  0.5104  0.8596
  876MOL0     H18247   8.372   5.717   9.678  0.1043  1.8188 -1.4821
  876MOL0     H18248   8.601   5.989   9.283 -0.0252  2.2777  0.0324
  876MOL0     H18249   8.804   6.056   9.188 -2.5144 -0.4152  0.5943
  876MOL0     H18250   9.002   6.297   9.432 -2.0989 -2.4255 -1.5836
  876MOL0     H18251   9.158   6.225   9.438  0.7767  1.9238 -0.1874
  876MOL0     H18252   9.164   6.304   9.182 -1.2504  2.7645 -2.6851
  876MOL0     H18253   9.189   6.420   9.309  0.2377  0.2653 -0.0636
  876MOL0     H18254   8.946   6.475   9.268 -0.4146 -1.2740 -0.2402
  876MOL0     H18255   8.923   6.326   9.170  1.9572 -1.7855 -0.5209
  876MOL0     H18256   9.126   6.552   9.098 -1.8900  2.6938 -0.3398
  876MOL0     H18257   8.969   6.557   9.035 -0.5598  0.1969  2.0201
  876MOL0     H18258   9.091   6.275   8.755 -0.7906 -0.7880  0.2494
  876MOL0     H18259   8.999   6.019   9.580  1.9532 -0.1839 -1.5130
  876MOL0     H18260   8.787   5.915   9.658 -0.4390  0.7821  0.3159
  877MOL0     O18261   3.802   9.088   1.117  0.6174 -0.0127 -0.1047
  877MOL0     C18262   3.751   9.018   1.030  0.6821  0.4911 -0.5329
  877MOL0     O18263   3.620   8.981   1.019  0.4987 -0.0739 -0.0307
  877MOL0     C18264   3.539   9.022   1.120  0.6304 -0.1027 -0.5047
  877MOL0     C18265   3.546   8.971   1.250 -0.4695 -0.4806  0.2027
  877MOL0     C18266   3.465   9.024   1.357  0.8373 -0.1640 -0.4259
  877MOL0     C18267   3.369   9.126   1.332 -0.2850  0.1479  0.2583
  877MOL0     O18268   3.274   9.167   1.429  0.4366 -0.6724  0.1539
  877MOL0     C18269   3.155   9.204   1.360 -0.0961  0.3139 -0.8178
  877MOL0     C18270   3.133   9.361   1.355 -0.4809  0.1191  0.4705
  877MOL0     C18271   3.106   9.422   1.489 -0.0107 -0.3309  0.0839
  877MOL0     C18272   3.057   9.571   1.471  0.1320 -0.7028 -0.5495
  877MOL0     C18273   3.068   9.635   1.609  0.4697  0.2445 -0.2775
  877MOL0     C18274   3.043   9.784   1.615  0.0780  0.8096 -0.0488
  877MOL0     C18275   3.170   9.852   1.562 -0.7166  0.2367 -0.0600
  877MOL0     C18276   3.138   9.911   1.425 -0.2532 -0.0048 -0.2463
  877MOL0     N18277   3.246   9.950   1.345 -0.0863 -0.0280 -0.2173
  877MOL0     C18278   3.325   9.854   1.292  0.5537 -0.3837 -0.0869
  877MOL0     C18279   3.387   9.912   1.188 -0.0029 -0.7379 -0.3413
  877MOL0     C18280   3.482   9.852   1.091  0.0102  0.2595  0.3076
  877MOL0     C18281   3.620   9.917   1.110 -0.1808  0.5237  0.3128
  877MOL0     C18282   3.695   9.903   0.974  0.0822 -0.3774 -1.0764
  877MOL0     C18283   3.774   9.767   0.959  0.7711 -1.4840 -0.7181
  877MOL0     O18284   3.839   9.744   0.831  0.6786 -0.0496  0.3902
  877MOL0     C18285   3.932   9.647   0.808 -0.2151 -0.4396  0.9312
  877MOL0     C18286   3.972   9.560   0.904 -0.2716 -0.3444  0.7616
  877MOL0     C18287   4.078   9.467   0.879 -0.4778 -0.3021  0.4916
  877MOL0     C18288   4.098   9.372   0.985 -0.6449  0.7237 -0.8177
  877MOL0     C18289   4.150   9.461   0.758 -0.0041  0.0122  0.2531
  877MOL0     C18290   4.272   9.385   0.729  0.3709  0.8913 -0.4272
  877MOL0     O18291   4.328   9.401   0.602 -0.4339  0.9793  0.1124
  877MOL0     C18292   4.460   9.440   0.586 -0.4428 -0.9256  0.0000
  877MOL0     C18293   4.520   9.398   0.466 -0.3260 -0.2868 -0.2049
  877MOL0     C18294   4.648   9.437   0.446  0.0839 -0.4029 -0.5545
  877MOL0     C18295   4.728   9.512   0.531  1.0265  0.0327  0.1711
  877MOL0     O18296   4.858   9.546   0.504 -0.2463  0.4363  0.0786
  877MOL0     C18297   4.941   9.435   0.469 -0.7020 -0.3590  0.5331
  877MOL0     C18298   5.092   9.447   0.530  0.2468 -0.2659  0.6395
  877MOL0     C18299   5.155   9.585   0.509 -0.3937  1.3406 -0.2046
  877MOL0     C18300   5.167   9.624   0.359  0.0203 -0.3760 -0.7292
  877MOL0     C18301   5.250   9.755   0.344  0.4650 -0.3104 -0.0608
  877MOL0     C18302   5.389   9.739   0.278 -0.7340 -0.2738 -0.3402
  877MOL0     C18303   5.488   9.684   0.381 -0.2105  0.5373 -0.6294
  877MOL0     C18304   5.633   9.706   0.340  0.4859  0.0899 -0.6120
  877MOL0    Cl18305   5.662   9.639   0.179  0.7254 -0.3697  0.1583
  877MOL0     C18306   4.665   9.564   0.650  0.0805 -0.0969 -0.4839
  877MOL0     C18307   4.530   9.531   0.677  0.7470  1.1841 -0.2905
  877MOL0     O18308   4.327   9.333   0.827 -0.2921 -0.3557 -0.5463
  877MOL0     C18309   4.092   9.544   0.652 -0.5985  0.4546 -0.4285
  877MOL0     C18310   3.986   9.632   0.678  0.6034 -1.2368  0.1143
  877MOL0     N18311   3.352  10.039   1.173 -0.9091  0.2011 -0.5257
  877MOL0     N18312   3.267  10.064   1.266  0.5915 -0.2158 -0.3325
  877MOL0     C18313   3.364   9.178   1.197 -0.6279  0.5506 -0.3078
  877MOL0     C18314   3.442   9.123   1.097 -0.6498 -0.7063 -0.0382
  877MOL0     C18315   3.825   8.974   0.912 -0.2812  0.4267  0.7851
  877MOL0     C18316   3.774   8.880   0.819  1.1989  0.5613  0.7143
  877MOL0     C18317   3.843   8.837   0.708 -0.6975 -0.0348  0.1528
  877MOL0     C18318   3.967   8.900   0.677  0.3611  0.1794  0.7212
  877MOL0     O18319   4.017   8.875   0.547 -0.1942 -0.8187 -0.6616
  877MOL0     C18320   4.129   8.948   0.493 -0.4398 -0.3514 -0.1118
  877MOL0     C18321   4.262   8.892   0.549 -0.3967 -0.1237  0.0199
  877MOL0     C18322   4.364   9.004   0.561  0.0981  0.3092 -1.0251
  877MOL0     C18323   4.486   8.954   0.636  0.5938  0.9315 -0.3447
  877MOL0     C18324   4.582   9.067   0.656 -0.1153 -0.1680  0.3731
  877MOL0     C18325   4.644   9.170   0.669  0.3186 -0.3234  0.9254
  877MOL0     C18326   4.026   8.986   0.767  0.1246 -0.8569 -0.7815
  877MOL0     C18327   3.958   9.017   0.885 -0.4605 -0.0559 -0.5799
  877MOL0     H18328   3.619   8.892   1.261 -0.5441 -0.6253 -0.3268
  877MOL0     H18329   3.467   8.970   1.451 -0.0115 -1.4201 -1.0903
  877MOL0     H18330   3.137   9.154   1.265  1.4247 -2.7686  0.3597
  877MOL0     H18331   3.073   9.152   1.411 -0.3673 -0.3831 -1.9262
  877MOL0     H18332   3.219   9.410   1.308 -0.6169 -0.3422 -0.2726
  877MOL0     H18333   3.042   9.380   1.298 -0.2085 -0.5390 -0.1951
  877MOL0     H18334   3.018   9.374   1.533  0.1493 -2.1578 -1.4773
  877MOL0     H18335   3.198   9.411   1.548 -0.5090 -0.6812  0.8207
  877MOL0     H18336   3.133   9.619   1.408  0.5750 -2.6422 -1.5866
  877MOL0     H18337   2.959   9.579   1.423 -1.6372 -0.2023  2.8155
  877MOL0     H18338   2.995   9.582   1.671  1.4270 -0.9454 -0.1263
  877MOL0     H18339   3.161   9.620   1.665 -0.3630  1.3134  1.4567
  877MOL0     H18340   2.947   9.806   1.567  0.1758  1.3746 -0.0025
  877MOL0     H18341   3.029   9.802   1.722 -0.0719 -2.0324  0.4843
  877MOL0     H18342   3.183   9.932   1.635 -0.8468  1.3823 -1.2645
  877MOL0     H18343   3.254   9.782   1.567 -1.7210 -1.1537 -1.5216
  877MOL0     H18344   3.069   9.992   1.450 -2.5311 -1.6449 -0.9077
  877MOL0     H18345   3.080   9.831   1.377 -1.0818  1.1518 -1.2565
  877MOL0     H18346   3.332   9.753   1.332  0.4917 -0.7317 -0.9173
  877MOL0     H18347   3.488   9.744   1.104  0.2270  0.3625  1.0943
  877MOL0     H18348   3.422   9.881   1.003 -2.8996 -0.0339  2.0642
  877MOL0     H18349   3.671   9.852   1.182  0.4281  0.5750 -0.0637
  877MOL0     H18350   3.616  10.022   1.140  1.1586  1.3150 -2.0138
  877MOL0     H18351   3.757   9.990   0.950 -2.4848  1.1961 -2.4430
  877MOL0     H18352   3.621   9.906   0.893  0.7637 -0.0789 -1.7081
  877MOL0     H18353   3.703   9.694   0.999  0.1613 -0.4189  0.1958
  877MOL0     H18354   3.860   9.775   1.025  1.0616  0.8200 -1.2999
  877MOL0     H18355   3.933   9.566   1.005 -3.6617  1.4284 -0.4940
  877MOL0     H18356   4.014   9.368   1.054  0.6236 -1.8039  0.7257
  877MOL0     H18357   4.115   9.269   0.953 -2.8274 -0.6272  1.9364
  877MOL0     H18358   4.181   9.411   1.045  0.5864 -0.2056 -1.8522
  877MOL0     H18359   4.466   9.337   0.394 -0.9008  1.0561 -0.9456
  877MOL0     H18360   4.697   9.408   0.354 -0.6193 -0.9854 -0.7471
  877MOL0     H18361   4.897   9.344   0.510 -2.8058 -0.0246 -0.8114
  877MOL0     H18362   4.945   9.424   0.360 -4.0992 -0.9696  0.3537
  877MOL0     H18363   5.088   9.434   0.638  5.5851 -1.4072  1.0110
  877MOL0     H18364   5.159   9.367   0.497 -0.7106 -1.4240  1.4209
  877MOL0     H18365   5.256   9.587   0.552  0.2242 -1.2787 -1.2947
  877MOL0     H18366   5.091   9.657   0.559 -2.6550 -1.6495  1.5073
  877MOL0     H18367   5.207   9.549   0.289 -0.1225  0.7333 -2.0545
  877MOL0     H18368   5.065   9.649   0.329  1.4124  1.9928 -4.0596
  877MOL0     H18369   5.261   9.813   0.436  1.0177 -0.8577  0.2298
  877MOL0     H18370   5.197   9.819   0.273  0.0075 -2.8127 -2.1206
  877MOL0     H18371   5.372   9.678   0.189 -1.4626 -2.5692  1.2677
  877MOL0     H18372   5.433   9.836   0.253  0.3344 -0.2252  1.5592
  877MOL0     H18373   5.470   9.577   0.388 -0.2945  0.4965 -1.4022
  877MOL0     H18374   5.483   9.738   0.476 -4.2352 -0.6048  0.0266
  877MOL0     H18375   5.695   9.656   0.415  0.7088  1.6892  0.3056
  877MOL0     H18376   5.648   9.814   0.336  0.2181  0.1102 -1.0796
  877MOL0     H18377   4.716   9.630   0.719  2.0013  0.3593 -2.2158
  877MOL0     H18378   4.490   9.569   0.770 -1.4411  2.5438 -1.6838
  877MOL0     H18379   4.130   9.547   0.550 -1.4173 -1.3656 -0.8261
  877MOL0     H18380   3.958   9.699   0.597 -3.9467 -2.1750  0.6346
  877MOL0     H18381   3.293   9.256   1.169 -1.2115  1.2510  2.7318
  877MOL0     H18382   3.428   9.156   0.995 -0.6675 -0.2710  0.1022
  877MOL0     H18383   3.674   8.843   0.839  0.5842  1.6543 -0.2253
  877MOL0     H18384   3.807   8.776   0.626 -0.3825  3.4930 -2.8497
  877MOL0     H18385   4.120   8.934   0.385 -0.5433 -1.9112  0.0782
  877MOL0     H18386   4.108   9.053   0.518 -0.8662 -0.6245  0.7082
  877MOL0     H18387   4.301   8.813   0.484 -1.5297 -0.1316 -0.6744
  877MOL0     H18388   4.235   8.847   0.646 -3.3440 -0.5878 -0.9292
  877MOL0     H18389   4.320   9.101   0.584 -2.3329 -1.0015  0.2573
  877MOL0     H18390   4.414   9.034   0.469  1.2310  0.9079 -0.2409
  877MOL0     H18391   4.534   8.889   0.563 -0.9086  0.3760 -0.8855
  877MOL0     H18392   4.450   8.918   0.733  3.2184  1.8412  1.0752
  877MOL0     H18393   4.698   9.260   0.694 -1.5061  1.1034 -0.0149
  877MOL0     H18394   4.125   9.024   0.745  0.1527  0.6403  1.6006
  877MOL0     H18395   3.997   9.093   0.951 -0.8229  0.0346 -0.4629
  878MOL0     O18396   5.933   8.319   2.392 -0.4111  0.2653 -0.2791
  878MOL0     C18397   6.032   8.277   2.327  0.4281 -0.9341 -0.1455
  878MOL0     O18398   6.120   8.356   2.257 -0.0419  0.4072  0.3914
  878MOL0     C18399   6.114   8.491   2.257 -0.2542  0.5067  0.4339
  878MOL0     C18400   6.131   8.553   2.132  0.4979  0.8357 -0.2712
  878MOL0     C18401   6.120   8.687   2.121 -0.7921  0.3679  0.6881
  878MOL0     C18402   6.092   8.764   2.231 -0.1580 -0.5275  0.0938
  878MOL0     O18403   6.075   8.899   2.211  0.2812 -0.2897 -0.0768
  878MOL0     C18404   6.053   8.990   2.324 -0.2331  0.7342  0.5180
  878MOL0     C18405   6.067   9.139   2.296 -0.4992 -0.1307 -1.4124
  878MOL0     C18406   6.027   9.235   2.409  0.1532 -0.0180 -0.5844
  878MOL0     C18407   6.065   9.197   2.551 -0.4638  0.1427  0.1819
  878MOL0     C18408   6.028   9.305   2.664 -0.2407  0.5758  0.3282
  878MOL0     C18409   6.152   9.371   2.725 -0.0555 -0.2087 -0.6547
  878MOL0     C18410   6.110   9.464   2.842 -0.0111  0.3759  0.7979
  878MOL0     C18411   6.070   9.361   2.960 -0.0455 -0.5609 -0.4156
  878MOL0     N18412   6.079   9.430   3.094  1.2569  0.2722 -0.3086
  878MOL0     C18413   6.033   9.366   3.208  0.2784 -1.1537  0.0046
  878MOL0     C18414   6.026   9.463   3.306  0.0465  0.1348  0.1692
  878MOL0     C18415   5.994   9.457   3.456  0.2315 -0.2573 -0.2513
  878MOL0     C18416   6.116   9.395   3.539 -0.8755  0.5678  0.7170
  878MOL0     C18417   6.125   9.242   3.521 -0.1937 -0.0815 -0.1958
  878MOL0     C18418   6.256   9.196   3.585 -0.1870  0.0512  0.9361
  878MOL0     O18419   6.373   9.246   3.513  0.6873  0.1027 -0.4881
  878MOL0     C18420   6.374   9.238   3.382  0.8418  0.4927 -0.3362
  878MOL0     C18421   6.380   9.344   3.293 -0.0815 -0.7658 -0.0470
  878MOL0     C18422   6.410   9.335   3.154  0.4276 -0.5512  0.4281
  878MOL0     C18423   6.427   9.461   3.069  0.2416 -0.6394 -0.3518
  878MOL0     C18424   6.413   9.210   3.101 -0.0624 -0.6080  0.6168
  878MOL0     C18425   6.431   9.195   2.956  0.0224 -0.0572  0.5195
  878MOL0     O18426   6.543   9.250   2.908  0.2861 -0.2291 -0.3061
  878MOL0     C18427   6.552   9.240   2.768  1.1853  0.2255  0.8659
  878MOL0     C18428   6.508   9.364   2.705  0.1208  0.5412  0.5434
  878MOL0     C18429   6.491   9.365   2.563 -0.3369 -0.4695 -0.1018
  878MOL0     C18430   6.517   9.247   2.495  0.7028  0.6964 -0.2252
  878MOL0     O18431   6.485   9.249   2.361  0.3782  0.9948  0.1215
  878MOL0     C18432   6.502   9.126   2.288 -0.5337 -0.1153 -0.0359
  878MOL0     C18433   6.459   9.143   2.141 -0.3221  0.1241  0.4088
  878MOL0     C18434   6.486   9.019   2.058 -1.0453  0.7302  0.9034
  878MOL0     C18435   6.437   9.038   1.906 -0.8554 -0.1142 -0.3630
  878MOL0     C18436   6.481   8.926   1.803 -0.3149  0.4134  0.5025
  878MOL0     C18437   6.427   8.791   1.846  0.7706  0.2382 -0.7944
  878MOL0     C18438   6.503   8.693   1.749  0.1380 -0.5598  0.0924
  878MOL0     C18439   6.466   8.547   1.787  0.7527 -0.7357 -1.0923
  878MOL0    Cl18440   6.287   8.526   1.769  0.0001  0.7640  0.0641
  878MOL0     C18441   6.566   9.130   2.558  0.6040  0.0832 -0.6836
  878MOL0     C18442   6.577   9.125   2.696  0.8847  0.2496 -0.5124
  878MOL0     O18443   6.357   9.110   2.891 -0.2824 -0.0385 -0.1415
  878MOL0     C18444   6.398   9.102   3.179  0.3287  0.4810 -0.6150
  878MOL0     C18445   6.390   9.109   3.319 -0.0299 -0.5461  0.0233
  878MOL0     N18446   6.061   9.584   3.242  0.5831 -0.6184 -0.7761
  878MOL0     N18447   6.085   9.558   3.113  0.1671 -0.3955 -0.3283
  878MOL0     C18448   6.070   8.708   2.356 -0.6881  0.1266  0.4862
  878MOL0     C18449   6.094   8.567   2.373 -0.0769 -1.2086 -0.6677
  878MOL0     C18450   6.061   8.135   2.346 -0.5383  0.1002 -0.2193
  878MOL0     C18451   5.966   8.032   2.400  0.1118  0.0727 -0.5192
  878MOL0     C18452   6.013   7.910   2.434 -0.4651 -0.2068 -0.7440
  878MOL0     C18453   6.155   7.871   2.422 -0.2799 -1.0789 -0.3150
  878MOL0     O18454   6.191   7.744   2.474 -0.1535  0.3610 -0.1495
  878MOL0     C18455   6.336   7.700   2.473 -0.1836 -0.7937 -0.4674
  878MOL0     C18456   6.417   7.725   2.608  0.1078 -0.1280 -0.0137
  878MOL0     C18457   6.565   7.686   2.578 -0.8917 -0.6378  0.3499
  878MOL0     C18458   6.627   7.644   2.713 -0.2576  0.7741  0.7166
  878MOL0     C18459   6.635   7.738   2.819  0.3378  0.3579 -0.0386
  878MOL0     C18460   6.652   7.821   2.906  0.8884  0.3884  0.1823
  878MOL0     C18461   6.245   7.976   2.377 -0.2744  0.3567 -0.5088
  878MOL0     C18462   6.201   8.100   2.342 -0.0551  0.0738  0.0154
  878MOL0     H18463   6.140   8.504   2.035 -0.2050  0.9404 -0.3900
  878MOL0     H18464   6.141   8.730   2.023  1.7212 -0.5337  0.7723
  878MOL0     H18465   5.953   8.974   2.364 -0.8943  2.7159 -0.2071
  878MOL0     H18466   6.120   8.962   2.406 -0.5389 -0.5977  0.3272
  878MOL0     H18467   6.170   9.169   2.274 -0.9291  0.4645 -2.7558
  878MOL0     H18468   6.006   9.160   2.207 -3.4410 -0.2930  0.4058
  878MOL0     H18469   6.065   9.337   2.401  1.3898 -0.3649  0.6168
  878MOL0     H18470   5.918   9.248   2.409 -0.1009 -0.9999  3.3014
  878MOL0     H18471   6.004   9.109   2.572 -0.4082  0.2274  0.6914
  878MOL0     H18472   6.172   9.174   2.551 -0.4732  0.0731  1.3125
  878MOL0     H18473   5.969   9.389   2.624 -2.3032 -0.6059  0.7640
  878MOL0     H18474   5.957   9.265   2.736 -3.7059  1.6837 -2.1691
  878MOL0     H18475   6.208   9.291   2.774  0.0872 -0.4820 -1.2514
  878MOL0     H18476   6.207   9.426   2.649  0.5113  0.5942  0.3205
  878MOL0     H18477   6.182   9.544   2.858 -1.3480  1.8262 -0.1301
  878MOL0     H18478   6.025   9.526   2.812 -1.2432 -2.1994 -1.5298
  878MOL0     H18479   6.137   9.275   2.954 -1.0142 -1.3310 -0.4333
  878MOL0     H18480   5.966   9.332   2.946  0.1480 -0.4289 -2.3958
  878MOL0     H18481   5.998   9.264   3.223 -0.0839 -1.1858 -1.0045
  878MOL0     H18482   5.962   9.552   3.500 -1.2975  0.4365 -2.7127
  878MOL0     H18483   5.913   9.384   3.459  1.7783 -2.0659  0.3973
  878MOL0     H18484   6.111   9.419   3.645  2.1877  1.8046  0.6903
  878MOL0     H18485   6.204   9.444   3.496  1.2250 -1.8701  1.9375
  878MOL0     H18486   6.114   9.212   3.417 -2.2757  0.0122 -0.0394
  878MOL0     H18487   6.044   9.190   3.574 -0.0410 -1.9870 -1.7367
  878MOL0     H18488   6.252   9.087   3.587 -1.2779  0.0031 -1.2369
  878MOL0     H18489   6.261   9.240   3.685  0.3663 -0.3893  1.1060
  878MOL0     H18490   6.376   9.447   3.326 -2.7499 -0.6229 -0.6036
  878MOL0     H18491   6.387   9.546   3.124  0.4909  0.0453 -1.2050
  878MOL0     H18492   6.535   9.475   3.059  0.2305  1.3691  1.5408
  878MOL0     H18493   6.372   9.443   2.976  0.8149 -4.1831 -0.1427
  878MOL0     H18494   6.467   9.445   2.763  1.0015  0.1985  1.6856
  878MOL0     H18495   6.456   9.458   2.519  1.3822  0.0690 -0.4056
  878MOL0     H18496   6.606   9.093   2.291 -0.0461  1.3975  0.8749
  878MOL0     H18497   6.434   9.050   2.329 -1.8709  1.2070  0.2925
  878MOL0     H18498   6.356   9.181   2.142 -1.4053 -2.4733 -1.5925
  878MOL0     H18499   6.525   9.221   2.102 -1.5040  1.2634  0.6157
  878MOL0     H18500   6.457   8.925   2.107  0.9506 -0.9365 -0.8971
  878MOL0     H18501   6.595   9.010   2.051 -1.1277  0.9512 -1.8883
  878MOL0     H18502   6.329   9.037   1.922 -1.2191 -0.8968 -2.6341
  878MOL0     H18503   6.474   9.136   1.875  2.8350 -0.7485  1.5180
  878MOL0     H18504   6.590   8.932   1.804 -0.3522  2.7752  3.1667
  878MOL0     H18505   6.441   8.954   1.705 -0.1460  0.6330  0.4945
  878MOL0     H18506   6.452   8.766   1.949  0.4946 -2.4701 -1.3190
  878MOL0     H18507   6.319   8.778   1.838  0.8060  0.1733 -1.2401
  878MOL0     H18508   6.610   8.698   1.772  0.0931 -0.0492  0.2102
  878MOL0     H18509   6.498   8.714   1.642  1.0874  0.8568  0.2820
  878MOL0     H18510   6.491   8.524   1.891 -1.1916  0.5970 -0.2722
  878MOL0     H18511   6.512   8.471   1.724  1.0569 -2.1756  0.7802
  878MOL0     H18512   6.586   9.043   2.497  0.7742 -0.5089  0.1879
  878MOL0     H18513   6.593   9.031   2.747  3.3596  0.5667 -0.5774
  878MOL0     H18514   6.395   9.001   3.138 -1.1395  0.3265 -0.1766
  878MOL0     H18515   6.369   9.022   3.380 -0.4363 -2.6428 -2.9066
  878MOL0     H18516   6.039   8.763   2.445  0.1661 -2.7906  2.7637
  878MOL0     H18517   6.090   8.522   2.472  0.4706 -1.6746 -0.8485
  878MOL0     H18518   5.861   8.054   2.411  0.3200  0.6771  0.3730
  878MOL0     H18519   5.953   7.828   2.473  0.5128 -0.2197  0.8179
  878MOL0     H18520   6.332   7.594   2.447 -0.9287 -1.0278  0.5493
  878MOL0     H18521   6.395   7.748   2.394  1.4368 -0.6293  0.7919
  878MOL0     H18522   6.382   7.672   2.697 -0.0186 -1.3255 -0.7520
  878MOL0     H18523   6.405   7.830   2.635  1.9463  0.1097 -0.0230
  878MOL0     H18524   6.621   7.765   2.527 -0.6797 -1.0311 -0.0436
  878MOL0     H18525   6.572   7.604   2.505 -1.0517  1.9013 -2.7350
  878MOL0     H18526   6.727   7.607   2.690 -0.7283  1.0502 -2.1078
  878MOL0     H18527   6.568   7.559   2.747 -0.4275  1.1155  1.2927
  878MOL0     H18528   6.662   7.906   2.971  1.1616  0.0628  0.5671
  878MOL0     H18529   6.351   7.956   2.366  0.4886  2.1098  2.5705
  878MOL0     H18530   6.277   8.174   2.317 -2.1690  1.7024 -2.1059
  879MOL0     O18531   7.201   9.759   7.259 -0.0760 -0.1701 -0.2236
  879MOL0     C18532   7.214   9.883   7.251 -0.8885 -0.1103 -0.3805
  879MOL0     O18533   7.158   9.969   7.153 -0.5260 -0.1419 -0.1815
  879MOL0     C18534   7.086   9.899   7.058  0.3989  0.5722 -0.0867
  879MOL0     C18535   6.963   9.940   7.027  0.9628  0.7442 -0.4166
  879MOL0     C18536   6.888   9.887   6.931  0.7136  0.4328 -1.3638
  879MOL0     C18537   6.937   9.779   6.852  0.9121  0.3668 -0.2394
  879MOL0     O18538   6.864   9.728   6.746  0.3675 -0.0590  0.1074
  879MOL0     C18539   6.754   9.815   6.703 -0.1072  0.7764 -0.1319
  879MOL0     C18540   6.669   9.747   6.592  0.6235  0.1562  0.7658
  879MOL0     C18541   6.741   9.762   6.461  0.1287 -0.2903  0.5587
  879MOL0     C18542   6.702   9.631   6.389  0.2512  0.5510  0.3907
  879MOL0     C18543   6.784   9.628   6.261  0.1263 -0.5129  0.1751
  879MOL0     C18544   6.757   9.491   6.197  0.2080  0.1942  0.6873
  879MOL0     C18545   6.865   9.443   6.093  0.4872 -0.0721  0.7613
  879MOL0     C18546   6.913   9.548   5.992 -0.2774 -0.3527  0.5402
  879MOL0     N18547   6.823   9.576   5.888  0.0027  0.0683 -0.2519
  879MOL0     C18548   6.799   9.489   5.786 -0.7019 -0.4176  0.4845
  879MOL0     C18549   6.702   9.553   5.716  0.2170 -0.4707  0.2583
  879MOL0     C18550   6.623   9.489   5.607  0.4161  0.6051  0.1948
  879MOL0     C18551   6.700   9.486   5.472  0.8363 -0.0844  0.5829
  879MOL0     C18552   6.712   9.609   5.383 -0.5364  0.1496  0.1461
  879MOL0     C18553   6.809   9.715   5.428 -0.5074 -0.7717  0.6542
  879MOL0     O18554   6.940   9.681   5.370 -0.4662 -0.3873  0.4399
  879MOL0     C18555   7.039   9.652   5.470  0.0522  0.3078 -0.2918
  879MOL0     C18556   7.133   9.547   5.460  0.3401  1.1861 -0.9096
  879MOL0     C18557   7.239   9.523   5.551 -0.6596  0.3031 -0.1282
  879MOL0     C18558   7.325   9.404   5.499 -0.1463 -0.2826 -0.6975
  879MOL0     C18559   7.251   9.597   5.665  1.1334  0.6202  0.6560
  879MOL0     C18560   7.332   9.565   5.786  0.5479  0.1256  0.4206
  879MOL0     O18561   7.312   9.636   5.907 -0.4534 -0.1884  0.5029
  879MOL0     C18562   7.365   9.587   6.019 -0.3566 -0.4339 -0.0200
  879MOL0     C18563   7.345   9.454   6.063  0.2683  0.3299  0.9419
  879MOL0     C18564   7.399   9.408   6.188  0.0043  0.9179 -0.3778
  879MOL0     C18565   7.471   9.495   6.273 -0.2451 -0.0375  0.4991
  879MOL0     O18566   7.523   9.443   6.388  0.1576  0.4507 -0.6772
  879MOL0     C18567   7.623   9.518   6.463  0.2262 -0.2313 -1.4583
  879MOL0     C18568   7.689   9.440   6.573 -0.1812  0.9525 -1.1035
  879MOL0     C18569   7.601   9.424   6.704 -1.1216 -0.4528  0.2568
  879MOL0     C18570   7.666   9.514   6.813  0.3377  0.2309  0.1286
  879MOL0     C18571   7.575   9.512   6.939  0.2990 -0.0086  0.5486
  879MOL0     C18572   7.644   9.615   7.037  1.1437 -0.1162 -0.5086
  879MOL0     C18573   7.597   9.756   7.007  0.0441 -0.3786  0.2790
  879MOL0     C18574   7.539   9.810   7.139 -0.2831  0.4193 -0.0683
  879MOL0    Cl18575   7.662   9.788   7.271  0.4705 -0.0567 -0.2804
  879MOL0     C18576   7.479   9.635   6.225 -0.1943 -0.4113 -0.0819
  879MOL0     C18577   7.427   9.682   6.099  0.1233 -0.5385 -0.0936
  879MOL0     O18578   7.399   9.466   5.769  0.3343  0.4603 -0.1679
  879MOL0     C18579   7.152   9.705   5.673 -0.4228  0.8655  0.1599
  879MOL0     C18580   7.045   9.713   5.591 -0.5429 -0.5409  0.1788
  879MOL0     N18581   6.667   9.675   5.769  0.3737 -0.6508 -0.6154
  879MOL0     N18582   6.741   9.690   5.875 -0.2126 -0.1745  0.3558
  879MOL0     C18583   7.074   9.731   6.877  0.4694 -1.0054  0.4111
  879MOL0     C18584   7.138   9.790   6.985 -0.1027 -1.2791 -1.0908
  879MOL0     C18585   7.289   9.949   7.355  0.3043 -0.6807 -0.2432
  879MOL0     C18586   7.387   9.889   7.436 -0.9246 -0.2723 -0.4896
  879MOL0     C18587   7.447   9.964   7.544 -0.2555 -0.4717  0.0658
  879MOL0     C18588   7.423  10.100   7.564  0.1437 -0.6562  0.2272
  879MOL0     O18589   7.474  10.185   7.659 -0.5202  0.8596  1.1430
  879MOL0     C18590   7.548  10.130   7.770 -0.2073 -0.4198  1.1354
  879MOL0     C18591   7.702  10.126   7.755 -0.6539 -0.4667 -0.4080
  879MOL0     C18592   7.760  10.060   7.887 -0.3129  0.2956 -0.7666
  879MOL0     C18593   7.913  10.056   7.877  0.3994 -0.6227 -0.1999
  879MOL0     C18594   7.969  10.003   8.000  0.0254 -0.4467 -0.2473
  879MOL0     C18595   7.993   9.961   8.108  0.0856  0.7384 -0.1145
  879MOL0     C18596   7.350  10.161   7.457 -0.0769  0.0647  0.7969
  879MOL0     C18597   7.276  10.089   7.362  0.0670 -0.5227 -1.1813
  879MOL0     H18598   6.921  10.014   7.095  0.7138 -0.0027  0.2581
  879MOL0     H18599   6.785   9.919   6.926 -0.9551 -3.3222  2.6900
  879MOL0     H18600   6.680   9.839   6.780 -0.2467  1.6146 -0.5187
  879MOL0     H18601   6.792   9.911   6.666 -1.0890  2.0750  2.0367
  879MOL0     H18602   6.639   9.643   6.609  0.4906 -0.1494 -1.1275
  879MOL0     H18603   6.572   9.797   6.583  0.0468 -1.1917 -1.5982
  879MOL0     H18604   6.706   9.847   6.402  1.6726 -0.4946 -0.6910
  879MOL0     H18605   6.848   9.782   6.462  0.2775 -0.7717 -1.4959
  879MOL0     H18606   6.729   9.546   6.453  0.2587 -0.0310 -0.3671
  879MOL0     H18607   6.600   9.627   6.350  1.1991  1.6631 -2.4907
  879MOL0     H18608   6.780   9.709   6.187 -0.2962  1.9982  2.7514
  879MOL0     H18609   6.887   9.629   6.296  0.8936 -1.5631 -1.8979
  879MOL0     H18610   6.743   9.425   6.283 -0.6294  1.9507  1.9540
  879MOL0     H18611   6.669   9.487   6.132  1.9446 -2.9199 -1.7875
  879MOL0     H18612   6.949   9.411   6.154  0.8369 -1.8499 -0.5389
  879MOL0     H18613   6.837   9.349   6.042 -0.3041 -1.5440  3.7028
  879MOL0     H18614   6.996   9.501   5.938  0.1557 -1.9494  2.4588
  879MOL0     H18615   6.950   9.633   6.050 -0.7968  0.4939 -0.3371
  879MOL0     H18616   6.821   9.382   5.782 -1.5190 -0.6378  1.4465
  879MOL0     H18617   6.596   9.389   5.640 -1.2399  0.9534 -0.0273
  879MOL0     H18618   6.528   9.538   5.586  0.1766 -0.0744 -0.3226
  879MOL0     H18619   6.641   9.412   5.417 -2.1224  0.6342  2.5757
  879MOL0     H18620   6.800   9.446   5.491  1.2198  0.9077  0.7487
  879MOL0     H18621   6.610   9.648   5.383 -0.3438  0.6521 -0.6061
  879MOL0     H18622   6.723   9.571   5.281  0.4213  0.6093  0.0691
  879MOL0     H18623   6.813   9.717   5.537  0.8648 -0.7449  0.6234
  879MOL0     H18624   6.780   9.818   5.402  4.2682  0.1863 -2.1465
  879MOL0     H18625   7.137   9.483   5.373 -2.3734 -0.6764  0.2026
  879MOL0     H18626   7.325   9.396   5.390  1.4244 -1.3194 -0.6618
  879MOL0     H18627   7.428   9.409   5.537 -0.5239 -2.9396  0.9225
  879MOL0     H18628   7.282   9.313   5.543  0.7270  0.0115  0.8389
  879MOL0     H18629   7.292   9.385   5.999  1.9630  2.7962 -3.5815
  879MOL0     H18630   7.371   9.308   6.220 -0.6296  1.1581 -0.1644
  879MOL0     H18631   7.701   9.542   6.390  2.8223 -0.5369  1.0706
  879MOL0     H18632   7.579   9.606   6.511  3.0403 -0.5855  2.1908
  879MOL0     H18633   7.702   9.337   6.540 -0.5997  0.6556 -0.3619
  879MOL0     H18634   7.784   9.484   6.605  0.9027 -1.3891 -0.9398
  879MOL0     H18635   7.603   9.320   6.736  0.1761 -0.6868 -0.4878
  879MOL0     H18636   7.496   9.447   6.686 -1.0808 -1.2636 -1.1455
  879MOL0     H18637   7.764   9.479   6.846 -0.2179  1.3176  3.3253
  879MOL0     H18638   7.675   9.617   6.776  2.8446  1.0826  2.7303
  879MOL0     H18639   7.563   9.412   6.982  1.9525 -0.7344 -0.5917
  879MOL0     H18640   7.475   9.549   6.913  1.8874  4.7784  0.3318
  879MOL0     H18641   7.608   9.583   7.135 -0.4428  1.2504 -0.5899
  879MOL0     H18642   7.753   9.611   7.028  1.3047  1.1727  0.6121
  879MOL0     H18643   7.514   9.758   6.936 -2.0956  2.9796  2.5852
  879MOL0     H18644   7.682   9.816   6.974  1.2222 -2.2389 -0.2798
  879MOL0     H18645   7.445   9.759   7.162  0.2530 -1.5339 -1.9232
  879MOL0     H18646   7.510   9.915   7.129 -2.2200  0.0075  0.7698
  879MOL0     H18647   7.534   9.712   6.278  0.3412 -0.7021 -0.2091
  879MOL0     H18648   7.435   9.785   6.065 -6.1500  0.8505  1.4454
  879MOL0     H18649   7.143   9.760   5.766  0.3580  2.7965 -0.8582
  879MOL0     H18650   6.973   9.785   5.628 -2.4718 -0.7974 -2.7164
  879MOL0     H18651   7.124   9.651   6.823 -0.8519 -1.2900 -0.4318
  879MOL0     H18652   7.238   9.755   7.004  0.5342  0.6031 -0.7441
  879MOL0     H18653   7.419   9.786   7.425  0.1104  0.1436 -1.4905
  879MOL0     H18654   7.518   9.907   7.603  0.3364  0.4364  0.2403
  879MOL0     H18655   7.530  10.204   7.849 -2.7299 -1.3197  1.4718
  879MOL0     H18656   7.508  10.035   7.805 -0.6068 -0.3346  0.9115
  879MOL0     H18657   7.760  10.216   7.738 -2.3386  0.5070 -1.2617
  879MOL0     H18658   7.717  10.062   7.667 -0.7562  1.1240 -1.6150
  879MOL0     H18659   7.731   9.955   7.900  0.6035  0.1282  0.0219
  879MOL0     H18660   7.725  10.107   7.979  2.5811 -1.2820  1.2912
  879MOL0     H18661   7.950  10.156   7.851 -0.9051  0.1242  0.7023
  879MOL0     H18662   7.929   9.994   7.788 -1.5266  0.7197 -1.5739
  879MOL0     H18663   8.017   9.931   8.208 -0.1317 -0.1275 -0.3179
  879MOL0     H18664   7.356  10.270   7.459 -0.2522  0.0750  2.2931
  879MOL0     H18665   7.192  10.140   7.317  0.7083 -0.4974 -2.4039
  880MOL0     O18666   2.563   2.356   2.059 -0.4437  0.2699  1.2328
  880MOL0     C18667   2.489   2.262   2.018 -0.2073  0.3118  0.3771
  880MOL0     O18668   2.368   2.226   2.080 -0.4392 -0.4188  0.0686
  880MOL0     C18669   2.304   2.317   2.156  0.6584  0.3318 -1.6440
  880MOL0     C18670   2.372   2.387   2.260  0.0863 -0.1535 -0.0576
  880MOL0     C18671   2.285   2.475   2.335  0.5172  1.1933  0.0104
  880MOL0     C18672   2.147   2.490   2.301  0.3430  0.0531  0.4332
  880MOL0     O18673   2.055   2.565   2.368  0.1867 -0.1275  0.7477
  880MOL0     C18674   2.098   2.667   2.448 -0.6016 -0.1704 -1.1659
  880MOL0     C18675   1.981   2.717   2.534  0.7489 -0.4971  0.6423
  880MOL0     C18676   2.017   2.818   2.641  1.0427 -0.1208  0.2139
  880MOL0     C18677   2.047   2.953   2.587 -0.2545 -0.5074 -1.4096
  880MOL0     C18678   2.087   3.062   2.691 -0.4052  0.0095  0.0258
  880MOL0     C18679   2.185   3.015   2.815  0.2088  0.8691  0.2830
  880MOL0     C18680   2.335   2.991   2.765 -0.1347  0.2711 -0.1222
  880MOL0     C18681   2.393   3.125   2.738  0.4106 -0.4361 -0.4046
  880MOL0     N18682   2.395   3.207   2.866  1.2146 -0.2388  0.0166
  880MOL0     C18683   2.499   3.197   2.960  0.1293  0.1912  0.2091
  880MOL0     C18684   2.463   3.269   3.058 -0.0852  0.5482 -0.6971
  880MOL0     C18685   2.554   3.284   3.185  0.6130 -0.0421  0.8421
  880MOL0     C18686   2.652   3.402   3.176 -0.1803  0.2543  0.1795
  880MOL0     C18687   2.572   3.533   3.134 -0.3608  0.9962  0.0765
  880MOL0     C18688   2.660   3.656   3.161 -0.0738 -0.1945  0.1135
  880MOL0     O18689   2.693   3.672   3.303  0.1121 -0.3029  0.0766
  880MOL0     C18690   2.741   3.796   3.340  0.5297  0.7222  0.1082
  880MOL0     C18691   2.794   3.893   3.252 -0.2385 -0.1801 -0.4818
  880MOL0     C18692   2.871   3.992   3.297 -0.2046  0.5348 -0.6173
  880MOL0     C18693   2.948   4.066   3.185 -1.0579 -0.4652 -0.1830
  880MOL0     C18694   2.886   4.007   3.432 -0.7398  0.5448 -0.5902
  880MOL0     C18695   2.993   4.088   3.493 -0.3464  0.9696 -0.6580
  880MOL0     O18696   3.051   4.050   3.618  0.5937  0.3711  0.1403
  880MOL0     C18697   3.155   4.132   3.671  0.4881  0.5529 -0.1779
  880MOL0     C18698   3.278   4.075   3.684 -0.0258  0.1311 -0.5896
  880MOL0     C18699   3.385   4.140   3.735 -0.0960  0.8404 -0.1229
  880MOL0     C18700   3.376   4.271   3.773 -0.4867 -0.0893 -0.4279
  880MOL0     O18701   3.491   4.325   3.827  0.6114  1.1348 -0.4708
  880MOL0     C18702   3.491   4.451   3.889 -0.4517  0.0888  0.6198
  880MOL0     C18703   3.630   4.511   3.891  0.1037  0.2070 -0.0875
  880MOL0     C18704   3.684   4.551   3.753  0.0288  1.0495 -1.0895
  880MOL0     C18705   3.819   4.624   3.743  1.3502 -0.7241  0.3689
  880MOL0     C18706   3.866   4.640   3.601 -0.1097  0.2512  0.3861
  880MOL0     C18707   3.975   4.729   3.579  0.4019 -0.8966  0.0350
  880MOL0     C18708   4.017   4.723   3.432  0.6232 -1.2932  0.2053
  880MOL0     C18709   4.141   4.816   3.402 -0.4462  0.7368 -0.4117
  880MOL0    Cl18710   4.286   4.729   3.459  0.0987  0.0930 -0.7755
  880MOL0     C18711   3.248   4.332   3.767 -0.3568  0.3836 -0.2473
  880MOL0     C18712   3.140   4.259   3.707 -0.3764 -0.0260  0.7902
  880MOL0     O18713   3.012   4.196   3.437 -0.1230  0.1399 -0.2381
  880MOL0     C18714   2.815   3.920   3.525  0.8155  1.0278  0.0027
  880MOL0     C18715   2.742   3.810   3.483 -0.1896  1.0133  0.0916
  880MOL0     N18716   2.342   3.334   3.034 -0.0635  0.1475 -0.6319
  880MOL0     N18717   2.307   3.298   2.914  0.1825 -0.8278 -0.9792
  880MOL0     C18718   2.098   2.419   2.197  0.6817  0.4595 -0.9794
  880MOL0     C18719   2.172   2.328   2.127 -0.0980  0.8662  0.1428
  880MOL0     C18720   2.535   2.183   1.901  0.0030  0.4814  0.3734
  880MOL0     C18721   2.493   2.052   1.877  0.8849  0.5979  0.1667
  880MOL0     C18722   2.536   1.965   1.772  0.8118 -0.0621 -0.1706
  880MOL0     C18723   2.645   2.017   1.692  0.0157  0.0969  0.9310
  880MOL0     O18724   2.703   1.955   1.583  1.7068 -0.2797 -0.3320
  880MOL0     C18725   2.615   1.865   1.507  0.5120  0.2006  0.4099
  880MOL0     C18726   2.683   1.808   1.382  0.0714  0.1901 -0.0700
  880MOL0     C18727   2.591   1.722   1.305 -0.1606  0.1662 -0.7345
  880MOL0     C18728   2.545   1.585   1.360  0.7508  0.9615 -0.6133
  880MOL0     C18729   2.658   1.503   1.391  0.2544  0.2030  0.0091
  880MOL0     C18730   2.747   1.420   1.415  0.0151 -0.6407  0.1270
  880MOL0     C18731   2.696   2.149   1.714  1.5814  0.2407 -0.4723
  880MOL0     C18732   2.642   2.224   1.819  0.3202 -0.6852  0.6333
  880MOL0     H18733   2.479   2.376   2.276 -0.3507 -2.2389  1.9492
  880MOL0     H18734   2.318   2.524   2.426  4.0971 -1.0841  0.1491
  880MOL0     H18735   2.183   2.635   2.509 -0.6234  1.0452 -0.4547
  880MOL0     H18736   2.133   2.757   2.396  0.1685  0.3710  0.2283
  880MOL0     H18737   1.900   2.758   2.473 -0.7100  0.4516  3.0669
  880MOL0     H18738   1.919   2.642   2.583 -0.7522  0.9554  1.0550
  880MOL0     H18739   1.924   2.828   2.698  1.2621  1.0718  0.3842
  880MOL0     H18740   2.097   2.775   2.702  2.9122 -0.4479 -2.3295
  880MOL0     H18741   2.124   2.937   2.511  1.0753  1.1230 -0.4591
  880MOL0     H18742   1.955   2.992   2.543  0.5924  2.0930 -1.0339
  880MOL0     H18743   2.125   3.149   2.638 -0.1471  1.4765  2.4608
  880MOL0     H18744   2.002   3.111   2.738 -0.6050  1.2308 -1.5464
  880MOL0     H18745   2.179   3.078   2.905  1.2270  0.4538  0.6599
  880MOL0     H18746   2.142   2.919   2.844 -1.7505  1.0951 -1.6650
  880MOL0     H18747   2.384   2.947   2.853 -0.4679 -0.1036 -0.1204
  880MOL0     H18748   2.345   2.931   2.674 -1.8004  1.2140 -0.9738
  880MOL0     H18749   2.327   3.182   2.673 -1.6437  2.5469  3.7821
  880MOL0     H18750   2.496   3.126   2.701  0.9965 -1.0895  1.1311
  880MOL0     H18751   2.591   3.140   2.952 -1.1302 -1.9961  0.6138
  880MOL0     H18752   2.485   3.307   3.267 -1.5644 -1.2494 -0.5616
  880MOL0     H18753   2.617   3.197   3.209  1.2299 -0.5352 -2.2103
  880MOL0     H18754   2.723   3.386   3.095 -4.5255  0.7032 -4.2052
  880MOL0     H18755   2.700   3.414   3.274  3.8460  0.5410 -1.6730
  880MOL0     H18756   2.476   3.527   3.187 -0.0026  0.1614  0.6429
  880MOL0     H18757   2.556   3.520   3.026  2.5240  1.7370 -0.5230
  880MOL0     H18758   2.600   3.742   3.128 -0.3914 -1.2749 -2.3897
  880MOL0     H18759   2.749   3.660   3.098 -1.4762 -0.7228 -2.0337
  880MOL0     H18760   2.793   3.873   3.146  0.5735 -1.4107 -0.2705
  880MOL0     H18761   2.913   4.038   3.085  1.0610 -1.9824 -0.5776
  880MOL0     H18762   2.951   4.174   3.200 -0.5469 -0.5341  0.2465
  880MOL0     H18763   3.054   4.041   3.181 -1.0837 -0.5929 -0.0848
  880MOL0     H18764   3.292   3.970   3.660  0.2743  0.3016 -1.1692
  880MOL0     H18765   3.473   4.077   3.742 -0.7274  0.1050  1.7407
  880MOL0     H18766   3.427   4.519   3.833  0.8672  1.3556  0.5851
  880MOL0     H18767   3.465   4.437   3.995 -0.5988 -1.9930  0.3609
  880MOL0     H18768   3.634   4.593   3.963 -0.1609 -0.4903  0.7421
  880MOL0     H18769   3.699   4.441   3.939 -0.4269 -1.9185 -2.2120
  880MOL0     H18770   3.595   4.605   3.718 -0.2197  2.5046  1.5268
  880MOL0     H18771   3.709   4.462   3.695  3.9165  0.5351  1.1156
  880MOL0     H18772   3.803   4.723   3.788 -0.7120 -0.0182 -1.7464
  880MOL0     H18773   3.895   4.565   3.796  0.0088 -2.6563  0.2440
  880MOL0     H18774   3.784   4.670   3.535  0.3976  0.2293 -0.2587
  880MOL0     H18775   3.898   4.543   3.563 -0.9874 -0.6446  1.7967
  880MOL0     H18776   3.950   4.828   3.616  0.4269 -1.0589  0.4948
  880MOL0     H18777   4.040   4.691   3.659  0.2908  4.8784  3.3805
  880MOL0     H18778   3.941   4.761   3.363  1.3359 -2.0563 -1.0601
  880MOL0     H18779   4.048   4.623   3.399 -0.1795 -1.2615 -0.6971
  880MOL0     H18780   4.115   4.909   3.453 -2.6526 -0.4284  0.7768
  880MOL0     H18781   4.141   4.840   3.295  0.5381 -0.9012 -0.8176
  880MOL0     H18782   3.208   4.427   3.801 -2.2918  0.1142 -1.6216
  880MOL0     H18783   3.045   4.312   3.706  0.9083  2.4968 -0.9315
  880MOL0     H18784   2.829   3.932   3.632  0.5050  5.1076 -0.2764
  880MOL0     H18785   2.687   3.749   3.554 -1.0357  1.7198  0.0546
  880MOL0     H18786   1.992   2.425   2.174  0.6765  0.4038 -0.9687
  880MOL0     H18787   2.140   2.260   2.048  0.0933  1.9517 -0.8844
  880MOL0     H18788   2.404   2.020   1.930  0.8746 -3.1511 -1.7401
  880MOL0     H18789   2.488   1.869   1.754 -1.0282  0.3224  2.2337
  880MOL0     H18790   2.584   1.779   1.566 -2.0014  1.6751  1.3665
  880MOL0     H18791   2.523   1.921   1.493 -0.9237 -1.9735  0.6372
  880MOL0     H18792   2.774   1.755   1.413  0.9773  2.2707  1.0270
  880MOL0     H18793   2.710   1.889   1.315 -0.4031  1.2578  0.9942
  880MOL0     H18794   2.643   1.696   1.213 -0.4753 -0.2186 -0.8085
  880MOL0     H18795   2.501   1.781   1.282  0.2066  2.2235  2.4925
  880MOL0     H18796   2.485   1.530   1.287  3.0070 -0.5075 -1.4697
  880MOL0     H18797   2.480   1.594   1.447 -0.0993 -1.4706 -0.9271
  880MOL0     H18798   2.837   1.368   1.439  0.0570 -3.3646 -4.5810
  880MOL0     H18799   2.779   2.194   1.659  4.3142 -1.2434  2.1602
  880MOL0     H18800   2.684   2.318   1.852  1.6864 -1.2141  0.4474
  881MOL0     O18801   7.833   7.609  10.143 -0.5625  0.4277 -0.0773
  881MOL0     C18802   7.777   7.502  10.149  0.5213  0.7174 -1.6187
  881MOL0     O18803   7.644   7.492  10.141 -0.2947  0.5037  0.3115
  881MOL0     C18804   7.567   7.592  10.097  0.0238  0.1881  0.6860
  881MOL0     C18805   7.430   7.583  10.135 -0.5917  0.1419  0.4901
  881MOL0     C18806   7.334   7.678  10.084 -0.5790  0.1829  0.2593
  881MOL0     C18807   7.374   7.774   9.993 -1.1398  0.6854 -0.1124
  881MOL0     O18808   7.288   7.860   9.928  0.5880 -0.2697 -0.4604
  881MOL0     C18809   7.262   7.841   9.792  0.5161  0.7679 -0.6390
  881MOL0     C18810   7.329   7.935   9.701 -0.8780  0.3760 -0.3206
  881MOL0     C18811   7.266   7.933   9.557  1.0884  1.3040  0.8329
  881MOL0     C18812   7.211   7.799   9.507 -0.2062  0.3637 -0.6636
  881MOL0     C18813   7.144   7.800   9.368 -0.4090 -0.4185 -0.1314
  881MOL0     C18814   7.030   7.898   9.359  0.3625  1.1975 -0.3712
  881MOL0     C18815   6.987   7.902   9.209 -0.0982  0.0636  0.0026
  881MOL0     C18816   6.922   7.770   9.165 -0.0094 -0.6558  0.3117
  881MOL0     N18817   6.840   7.699   9.258  0.0233  0.5557  0.4254
  881MOL0     C18818   6.702   7.718   9.274 -0.0794  0.3053  0.3591
  881MOL0     C18819   6.673   7.641   9.381  0.2103 -1.4519 -0.1318
  881MOL0     C18820   6.539   7.648   9.443  0.6272  1.1606  0.1783
  881MOL0     C18821   6.515   7.771   9.535 -0.3879  0.2921  0.3467
  881MOL0     C18822   6.370   7.804   9.562  0.0641 -0.4529 -0.1242
  881MOL0     C18823   6.283   7.803   9.442 -0.2180 -0.4847 -0.0402
  881MOL0     O18824   6.157   7.867   9.465  0.1219 -0.9224 -0.1484
  881MOL0     C18825   6.055   7.788   9.510 -0.3443  1.2207  1.2587
  881MOL0     C18826   6.065   7.655   9.544  0.1033  0.3377 -0.5455
  881MOL0     C18827   5.951   7.588   9.590  0.6117  0.5790  0.3870
  881MOL0     C18828   5.975   7.460   9.660 -0.7395 -0.0029  1.8059
  881MOL0     C18829   5.823   7.642   9.588  0.0653  0.0925 -0.2355
  881MOL0     C18830   5.705   7.566   9.621 -0.7862  0.5179 -0.1227
  881MOL0     O18831   5.592   7.600   9.551 -0.1250  0.0074 -0.7885
  881MOL0     C18832   5.470   7.599   9.613  0.5937 -0.4507 -0.0221
  881MOL0     C18833   5.446   7.687   9.717 -0.4749 -0.1882  0.2506
  881MOL0     C18834   5.330   7.704   9.781  1.5860 -0.9859 -0.7808
  881MOL0     C18835   5.216   7.652   9.711  0.6173  0.0508 -0.2764
  881MOL0     O18836   5.102   7.673   9.774 -0.3386 -0.0759  0.6645
  881MOL0     C18837   4.987   7.705   9.685  0.0030 -0.3178  0.1605
  881MOL0     C18838   4.849   7.665   9.745  0.2264  0.0631 -0.7097
  881MOL0     C18839   4.799   7.742   9.870  0.2755  0.6198  0.2483
  881MOL0     C18840   4.639   7.756   9.874  0.5594  0.5844 -0.2849
  881MOL0     C18841   4.575   7.619   9.843  0.4012  0.1742  0.1930
  881MOL0     C18842   4.424   7.622   9.864 -0.1390 -0.5779 -0.0415
  881MOL0     C18843   4.361   7.483   9.867  0.6271  0.2673  0.5946
  881MOL0     C18844   4.217   7.485   9.913  0.6216 -0.1639 -0.2194
  881MOL0    Cl18845   4.099   7.478   9.773  0.0836  0.3319  0.0014
  881MOL0     C18846   5.225   7.566   9.608 -1.1104  0.2530 -0.0516
  881MOL0     C18847   5.352   7.542   9.550 -0.1559  0.4455  0.1208
  881MOL0     O18848   5.695   7.507   9.733 -0.5668 -0.0500  0.1777
  881MOL0     C18849   5.809   7.779   9.539  0.2896 -0.7387 -0.6921
  881MOL0     C18850   5.929   7.850   9.510 -0.5838 -0.4278  0.6799
  881MOL0     N18851   6.783   7.566   9.421  0.0299 -0.1769 -0.2032
  881MOL0     N18852   6.883   7.611   9.362 -0.2172  0.7275  0.1989
  881MOL0     C18853   7.511   7.787   9.963  0.3515 -0.3945  0.2856
  881MOL0     C18854   7.605   7.695  10.004  0.0551 -0.4274 -0.2933
  881MOL0     C18855   7.860   7.390  10.204  1.0073 -0.4854  0.6579
  881MOL0     C18856   7.810   7.259  10.248  0.8971  0.2220 -0.6935
  881MOL0     C18857   7.898   7.158  10.287  0.5554 -0.7897 -0.7028
  881MOL0     C18858   8.036   7.185  10.281 -0.0629  0.7127 -0.8517
  881MOL0     O18859   8.123   7.098  10.354 -0.5186  0.5094  0.7233
  881MOL0     C18860   8.202   7.000  10.282  0.1225  0.0458  0.0952
  881MOL0     C18861   8.132   6.870  10.238 -0.2008 -0.0359  0.0408
  881MOL0     C18862   8.218   6.763  10.161 -0.6849 -0.1865  0.0409
  881MOL0     C18863   8.128   6.673  10.089  0.4255  0.6317 -0.7104
  881MOL0     C18864   8.050   6.601  10.187  1.2672 -0.1289 -1.1790
  881MOL0     C18865   7.992   6.555  10.284 -0.2694 -0.9825  0.8621
  881MOL0     C18866   8.087   7.298  10.220 -0.8011  0.2897  0.2103
  881MOL0     C18867   8.000   7.404  10.191  0.1112 -0.4643  1.3411
  881MOL0     H18868   7.402   7.497  10.195 -0.1708 -1.1599 -1.1063
  881MOL0     H18869   7.231   7.658  10.110 -0.1201 -1.0830  1.2528
  881MOL0     H18870   7.301   7.742   9.766 -0.0891  0.9831 -2.4945
  881MOL0     H18871   7.156   7.862   9.780  0.1424 -0.7139 -0.0964
  881MOL0     H18872   7.322   8.036   9.743  0.1249 -0.2347  1.3952
  881MOL0     H18873   7.431   7.902   9.681 -1.0274  0.4118 -1.1902
  881MOL0     H18874   7.196   8.015   9.540 -2.5056 -1.4050  1.2755
  881MOL0     H18875   7.345   7.963   9.488 -0.0213  3.2836  0.3373
  881MOL0     H18876   7.292   7.726   9.514  0.9298  1.6911  0.5902
  881MOL0     H18877   7.134   7.757   9.571 -0.0709  1.4236  0.2169
  881MOL0     H18878   7.215   7.820   9.287 -0.2949 -2.5648 -0.6185
  881MOL0     H18879   7.122   7.695   9.347  1.2195 -0.9769  0.7901
  881MOL0     H18880   6.946   7.872   9.424 -0.4118  0.1044 -1.7491
  881MOL0     H18881   7.065   8.000   9.379  0.2064  1.1557  0.1279
  881MOL0     H18882   6.914   7.983   9.200 -1.4620 -1.0483  0.6729
  881MOL0     H18883   7.072   7.925   9.145 -2.5290  1.0711 -3.1012
  881MOL0     H18884   7.005   7.704   9.139  1.6790  0.9078  1.4812
  881MOL0     H18885   6.875   7.782   9.067  0.9298 -1.0220 -0.1957
  881MOL0     H18886   6.636   7.775   9.209  1.8722  0.4919 -1.5969
  881MOL0     H18887   6.466   7.651   9.362 -0.1904  3.1957  0.9331
  881MOL0     H18888   6.526   7.554   9.498  0.8051  0.1634 -1.3999
  881MOL0     H18889   6.555   7.861   9.488 -4.1206  0.8704 -2.1737
  881MOL0     H18890   6.550   7.752   9.637 -1.3320 -0.5520  0.5327
  881MOL0     H18891   6.355   7.906   9.601 -1.4865 -1.2553  1.4977
  881MOL0     H18892   6.330   7.727   9.628 -3.7921  0.8040 -0.7617
  881MOL0     H18893   6.270   7.701   9.404 -0.9306 -0.7383  0.8599
  881MOL0     H18894   6.335   7.858   9.363  0.0437 -2.6098 -1.4442
  881MOL0     H18895   6.162   7.606   9.552 -1.1371 -2.6989 -2.2035
  881MOL0     H18896   5.987   7.476   9.767  2.0270  2.1363  1.2830
  881MOL0     H18897   5.897   7.384   9.648 -0.2569 -0.1234 -2.3052
  881MOL0     H18898   6.062   7.413   9.611 -3.1184 -0.3634 -2.6277
  881MOL0     H18899   5.537   7.731   9.755  0.0810 -2.7988  2.2056
  881MOL0     H18900   5.320   7.739   9.883 -0.5100 -3.5325  0.0017
  881MOL0     H18901   4.994   7.813   9.670 -1.3809 -0.1542  0.6402
  881MOL0     H18902   4.995   7.658   9.586 -2.4565  0.9567 -0.7142
  881MOL0     H18903   4.772   7.676   9.668 -3.9525 -1.4042  2.8202
  881MOL0     H18904   4.847   7.559   9.771  1.0014  0.5071  1.3031
  881MOL0     H18905   4.838   7.844   9.877 -0.6855  0.9687  0.6472
  881MOL0     H18906   4.841   7.691   9.957  3.5750 -0.8545 -2.0062
  881MOL0     H18907   4.602   7.784   9.973 -2.9453 -1.9000 -0.7035
  881MOL0     H18908   4.598   7.813   9.790  1.3429  2.5494  0.6243
  881MOL0     H18909   4.627   7.558   9.918  0.4975  1.6183  1.3384
  881MOL0     H18910   4.597   7.580   9.743  0.5043 -0.1568  0.3421
  881MOL0     H18911   4.405   7.670   9.961 -0.4937  2.2299 -1.3917
  881MOL0     H18912   4.378   7.684   9.786 -0.5731 -1.7476 -0.7271
  881MOL0     H18913   4.424   7.414   9.923 -0.2116 -4.2259 -3.3477
  881MOL0     H18914   4.364   7.444   9.765 -0.8268 -0.1099  0.6724
  881MOL0     H18915   4.193   7.575   9.971  1.4133  0.4682 -0.8537
  881MOL0     H18916   4.215   7.396   9.977  2.1941 -0.0336  0.0629
  881MOL0     H18917   5.143   7.505   9.571 -0.7634  0.2977 -0.9422
  881MOL0     H18918   5.374   7.483   9.462  0.9592  0.9914  0.0139
  881MOL0     H18919   5.717   7.836   9.551  0.0701 -1.3065  0.5136
  881MOL0     H18920   5.926   7.956   9.491  0.9907 -0.4988 -0.1919
  881MOL0     H18921   7.531   7.869   9.896 -1.3962 -0.7052 -0.6701
  881MOL0     H18922   7.711   7.703   9.980  0.3810 -1.0002  0.8641
  881MOL0     H18923   7.704   7.234  10.243  1.3008 -1.3125 -3.3094
  881MOL0     H18924   7.841   7.074  10.326 -2.5962  1.6175  0.3480
  881MOL0     H18925   8.254   7.062  10.209  1.1808  0.2821  1.0223
  881MOL0     H18926   8.283   6.973  10.350 -1.1221  0.6861  1.9057
  881MOL0     H18927   8.056   6.910  10.170 -1.0602  1.9122  2.0084
  881MOL0     H18928   8.096   6.827  10.333 -1.5274 -0.1048 -0.4774
  881MOL0     H18929   8.281   6.706  10.230 -0.4567 -0.9388 -0.7730
  881MOL0     H18930   8.287   6.808  10.090  2.2537 -0.4792  2.5271
  881MOL0     H18931   8.196   6.610  10.030  1.0856  0.6199  0.0535
  881MOL0     H18932   8.063   6.723  10.016 -2.6706 -0.3531  1.1628
  881MOL0     H18933   7.964   6.519  10.381  1.0609  0.8349  1.9820
  881MOL0     H18934   8.194   7.316  10.211 -0.6133  0.6285  2.5615
  881MOL0     H18935   8.042   7.495  10.148 -3.1557 -0.5274 -2.5676
  882MOL0     O18936   6.377  10.363   4.324  0.1545  0.5379  0.0956
  882MOL0     C18937   6.457  10.348   4.413 -0.2502 -1.0386  0.0308
  882MOL0     O18938   6.542  10.249   4.416 -0.4667 -0.7019  0.1306
  882MOL0     C18939   6.539  10.135   4.341 -0.5072 -0.9722 -1.2586
  882MOL0     C18940   6.515  10.012   4.409  0.8544 -0.1672  0.7799
  882MOL0     C18941   6.498   9.892   4.343  0.0499 -0.6717 -0.7887
  882MOL0     C18942   6.524   9.894   4.208 -0.0535 -0.2579 -0.4096
  882MOL0     O18943   6.525   9.779   4.140 -0.1879  0.2095  0.9236
  882MOL0     C18944   6.660   9.712   4.131 -0.2294 -0.4389  0.9996
  882MOL0     C18945   6.749   9.775   4.020  0.6353 -0.1620 -0.8457
  882MOL0     C18946   6.873   9.694   3.997 -0.0061  0.4251  0.6697
  882MOL0     C18947   6.891   9.658   3.856 -0.0862  0.2025  0.0747
  882MOL0     C18948   7.024   9.579   3.829 -0.0576  0.0861 -0.5887
  882MOL0     C18949   7.021   9.530   3.679  0.4597  0.3575 -0.3388
  882MOL0     C18950   7.138   9.443   3.640  0.1372  0.0549 -0.2101
  882MOL0     C18951   7.132   9.382   3.501  1.5076  0.0523  0.1468
  882MOL0     N18952   7.265   9.349   3.447  0.1326 -0.2590 -0.2951
  882MOL0     C18953   7.279   9.289   3.322  0.2492  0.4491 -0.0907
  882MOL0     C18954   7.413   9.275   3.310  0.2450  0.0530  0.7475
  882MOL0     C18955   7.478   9.217   3.185 -0.0384  0.6155 -0.5916
  882MOL0     C18956   7.621   9.277   3.182  0.2414 -0.4345 -0.0409
  882MOL0     C18957   7.728   9.216   3.089 -0.0030  0.6754  0.4738
  882MOL0     C18958   7.840   9.322   3.070 -0.3251  0.7163  0.2135
  882MOL0     O18959   7.795   9.429   2.989  0.2651 -0.6110 -0.1105
  882MOL0     C18960   7.789   9.425   2.850 -0.0724  0.2916 -0.4500
  882MOL0     C18961   7.721   9.526   2.768  0.2908  0.7978 -0.1601
  882MOL0     C18962   7.714   9.511   2.630 -0.6638 -0.4415  0.4626
  882MOL0     C18963   7.629   9.617   2.571  0.6085 -0.5001  0.1229
  882MOL0     C18964   7.778   9.406   2.562  0.1089  0.1337  0.9345
  882MOL0     C18965   7.779   9.393   2.407  0.9769 -0.3031  0.3506
  882MOL0     O18966   7.787   9.260   2.370 -0.0391  0.3001  0.0582
  882MOL0     C18967   7.812   9.229   2.241  0.4887  1.1465  0.7115
  882MOL0     C18968   7.935   9.150   2.222  0.5617 -0.0342  0.2323
  882MOL0     C18969   7.975   9.100   2.098 -0.7013 -1.1467  0.2505
  882MOL0     C18970   7.893   9.133   1.985  0.7395 -0.3891  0.5425
  882MOL0     O18971   7.917   9.099   1.854  0.5037  0.4670  0.3413
  882MOL0     C18972   7.954   8.967   1.827  0.1692 -0.8392  0.2312
  882MOL0     C18973   7.959   8.941   1.683 -0.0796  0.0110  0.5785
  882MOL0     C18974   7.832   8.912   1.609 -0.0503  0.6318 -0.3129
  882MOL0     C18975   7.731   9.014   1.613  0.5342  0.9411  0.5847
  882MOL0     C18976   7.595   8.975   1.534  0.7813 -0.2857  0.3838
  882MOL0     C18977   7.611   8.970   1.379  0.5082  0.6617  0.3748
  882MOL0     C18978   7.471   8.987   1.314 -0.2467 -0.0477  0.0789
  882MOL0     C18979   7.478   8.938   1.172 -0.1497 -0.3359 -0.6421
  882MOL0    Cl18980   7.432   9.067   1.051 -0.7498 -0.2834  0.0272
  882MOL0     C18981   7.778   9.220   2.002 -0.6388 -0.0285 -0.7700
  882MOL0     C18982   7.736   9.266   2.127  0.0898  0.4502 -0.7981
  882MOL0     O18983   7.773   9.493   2.332  0.2368  0.8955 -0.5275
  882MOL0     C18984   7.840   9.306   2.640  1.0324  1.0535  0.1707
  882MOL0     C18985   7.845   9.307   2.778 -0.6648  0.2484  0.5036
  882MOL0     N18986   7.474   9.314   3.436  0.7133  0.4247 -0.2776
  882MOL0     N18987   7.379   9.361   3.513  0.6334 -0.4541  0.0492
  882MOL0     C18988   6.564  10.014   4.144 -0.3662 -0.4094  0.2817
  882MOL0     C18989   6.561  10.137   4.205 -0.5986  0.1354  0.7530
  882MOL0     C18990   6.477  10.465   4.504  0.1966 -0.5302  0.3739
  882MOL0     C18991   6.421  10.596   4.469 -0.0474  0.0771 -0.4939
  882MOL0     C18992   6.455  10.700   4.545  0.4270 -0.5929 -0.3545
  882MOL0     C18993   6.547  10.695   4.653 -0.6502  0.3939 -0.3708
  882MOL0     O18994   6.596  10.797   4.733  0.9179 -0.5086 -0.4280
  882MOL0     C18995   6.518  10.921   4.742  0.1219 -0.5830 -0.3315
  882MOL0     C18996   6.555  11.036   4.638  0.4955 -0.2920  0.3073
  882MOL0     C18997   6.708  11.049   4.636 -0.0061 -0.3381 -0.5758
  882MOL0     C18998   6.757  11.154   4.531  0.3108  0.0387  0.9656
  882MOL0     C18999   6.733  11.296   4.575  0.3834  0.2317  0.1642
  882MOL0     C19000   6.713  11.404   4.628  0.3965 -0.0765 -0.1272
  882MOL0     C19001   6.601  10.571   4.680 -0.3242 -1.0158  0.0139
  882MOL0     C19002   6.568  10.461   4.608 -0.0367 -0.6388  1.0227
  882MOL0     H19003   6.495  10.019   4.516  0.8059  2.0877  0.6717
  882MOL0     H19004   6.457   9.798   4.381 -2.1952  0.4024 -0.4113
  882MOL0     H19005   6.724   9.713   4.219  1.3640  1.9504 -0.0846
  882MOL0     H19006   6.642   9.606   4.110  0.4529 -0.1979 -1.0962
  882MOL0     H19007   6.681   9.783   3.936 -1.4642 -3.0283  0.4230
  882MOL0     H19008   6.785   9.874   4.052 -0.3032 -0.5136  1.5035
  882MOL0     H19009   6.964   9.745   4.031  1.6233 -2.2217  0.5644
  882MOL0     H19010   6.869   9.607   4.064 -1.2898  1.0348  1.4209
  882MOL0     H19011   6.814   9.587   3.827  1.0129 -0.2834 -1.8375
  882MOL0     H19012   6.885   9.745   3.789  2.7303 -0.4402 -1.1802
  882MOL0     H19013   7.103   9.654   3.832 -0.4299  0.4475  0.8399
  882MOL0     H19014   7.032   9.490   3.893  4.4886  0.5459 -0.2115
  882MOL0     H19015   6.924   9.480   3.667 -1.6763  3.2676  2.7543
  882MOL0     H19016   7.021   9.611   3.606  0.8701 -0.9162 -1.8045
  882MOL0     H19017   7.224   9.510   3.629  1.1024 -1.5358 -4.2549
  882MOL0     H19018   7.160   9.369   3.718  1.5817  0.0724 -0.5725
  882MOL0     H19019   7.078   9.442   3.428 -1.6487 -2.8312 -0.1457
  882MOL0     H19020   7.074   9.289   3.509  1.2950  0.3102  2.1638
  882MOL0     H19021   7.207   9.274   3.243  2.6183  0.0353 -2.2807
  882MOL0     H19022   7.476   9.110   3.208  0.1891  0.9225  0.9290
  882MOL0     H19023   7.414   9.224   3.097  0.4276 -3.0930 -1.4127
  882MOL0     H19024   7.671   9.270   3.279  1.4657 -0.6703 -0.6704
  882MOL0     H19025   7.607   9.384   3.164  0.2651 -0.4530 -0.1769
  882MOL0     H19026   7.685   9.180   2.995 -0.6890 -2.6920  1.9308
  882MOL0     H19027   7.776   9.129   3.133  0.6264  1.2104  0.8737
  882MOL0     H19028   7.933   9.272   3.040 -0.8505 -1.3473  1.7959
  882MOL0     H19029   7.863   9.353   3.172  2.9567 -2.0014  0.4851
  882MOL0     H19030   7.664   9.608   2.811  0.3961  0.5314  0.5021
  882MOL0     H19031   7.646   9.634   2.465  0.0733  1.4457  0.3007
  882MOL0     H19032   7.524   9.602   2.596  0.2066  4.5085  2.8376
  882MOL0     H19033   7.656   9.717   2.607 -0.4553  0.3572 -1.3494
  882MOL0     H19034   7.998   9.134   2.309 -0.0226  0.7970  0.8202
  882MOL0     H19035   8.072   9.052   2.087 -0.1134  0.1546 -0.5104
  882MOL0     H19036   8.054   8.977   1.868  0.1474  0.6316 -0.0013
  882MOL0     H19037   7.897   8.898   1.889 -0.6273  1.2509  1.9612
  882MOL0     H19038   8.002   9.031   1.640  0.1583 -0.1989  0.3717
  882MOL0     H19039   8.024   8.855   1.664  0.6465  1.1798 -2.9325
  882MOL0     H19040   7.802   8.814   1.646 -1.1215 -1.0606 -4.8840
  882MOL0     H19041   7.866   8.890   1.507  1.0975 -0.9824  0.3657
  882MOL0     H19042   7.703   9.032   1.717 -0.2654  1.3422  0.3063
  882MOL0     H19043   7.764   9.107   1.565 -1.0282  0.4159 -1.6814
  882MOL0     H19044   7.527   9.059   1.554  1.0576 -0.5926  2.8812
  882MOL0     H19045   7.546   8.885   1.572 -1.2487  0.4364 -0.3698
  882MOL0     H19046   7.674   9.043   1.329  1.5994  0.1158  0.9102
  882MOL0     H19047   7.652   8.874   1.348 -0.6521  0.7316 -1.5259
  882MOL0     H19048   7.426   9.086   1.324 -1.2931 -0.4145 -0.8801
  882MOL0     H19049   7.409   8.919   1.373  1.1546 -1.4641 -0.0063
  882MOL0     H19050   7.412   8.851   1.162 -1.3248  0.3384  0.7529
  882MOL0     H19051   7.575   8.896   1.144 -0.5747 -0.1224 -2.5666
  882MOL0     H19052   7.730   9.267   1.917  0.9246 -1.0529 -2.2895
  882MOL0     H19053   7.651   9.332   2.145 -0.9648 -1.2208  0.6977
  882MOL0     H19054   7.885   9.218   2.595 -1.1116  0.3994 -0.8112
  882MOL0     H19055   7.895   9.231   2.838  1.9394  1.2550 -0.2955
  882MOL0     H19056   6.582  10.008   4.037 -1.0355 -2.3701  0.2384
  882MOL0     H19057   6.580  10.221   4.139 -0.8239 -0.3280  0.0900
  882MOL0     H19058   6.361  10.608   4.379  1.0492 -2.8713 -1.7362
  882MOL0     H19059   6.416  10.797   4.516  3.2394  0.1860 -1.8588
  882MOL0     H19060   6.409  10.908   4.741 -0.0868  0.3501  2.2253
  882MOL0     H19061   6.536  10.958   4.843 -1.7527  1.8462 -0.7868
  882MOL0     H19062   6.509  11.129   4.672  0.4373  0.3245 -1.3555
  882MOL0     H19063   6.518  11.002   4.541 -2.6556 -0.6407  1.5323
  882MOL0     H19064   6.757  10.952   4.621 -0.8760 -0.6547 -1.4025
  882MOL0     H19065   6.727  11.073   4.742 -2.7049  0.0710 -0.1174
  882MOL0     H19066   6.714  11.144   4.431  1.5312  2.3548  0.1335
  882MOL0     H19067   6.863  11.131   4.516  0.2861  0.9302 -0.8679
  882MOL0     H19068   6.704  11.504   4.664 -0.7650 -0.1072 -0.3051
  882MOL0     H19069   6.666  10.564   4.767  0.4992 -2.8140 -0.6962
  882MOL0     H19070   6.609  10.363   4.629  1.1479 -0.1093  1.2703
  883MOL0     O19071   8.824   1.006   2.640 -0.8400 -0.2384 -0.6405
  883MOL0     C19072   8.902   1.099   2.671  0.1172 -0.3547 -0.6926
  883MOL0     O19073   8.869   1.232   2.648  0.6023  1.1581 -0.5966
  883MOL0     C19074   8.750   1.275   2.598 -0.2415  0.5787 -1.4000
  883MOL0     C19075   8.742   1.362   2.491  1.0214 -0.1412 -0.1155
  883MOL0     C19076   8.614   1.392   2.436  0.1412  0.2159  0.3852
  883MOL0     C19077   8.497   1.352   2.492  0.0362  1.2263  0.6971
  883MOL0     O19078   8.384   1.400   2.431 -0.8681 -0.5858  0.1785
  883MOL0     C19079   8.257   1.359   2.480 -0.6005  0.2157 -0.6816
  883MOL0     C19080   8.139   1.408   2.390  0.5013  0.4103 -0.6405
  883MOL0     C19081   8.098   1.549   2.419  0.6690  0.0939  0.0258
  883MOL0     C19082   7.962   1.586   2.359  0.8982  0.7567  0.6013
  883MOL0     C19083   7.943   1.568   2.202 -0.9799 -0.6472 -0.4141
  883MOL0     C19084   7.809   1.617   2.154 -0.3252 -0.2501 -1.0515
  883MOL0     C19085   7.799   1.641   2.008  0.6996  0.1031  0.1893
  883MOL0     C19086   7.864   1.779   1.981 -0.0891 -0.6208 -0.7443
  883MOL0     N19087   7.892   1.800   1.835  0.8438 -0.4561 -0.1556
  883MOL0     C19088   7.975   1.722   1.758  0.2895 -0.2608  0.6491
  883MOL0     C19089   7.980   1.798   1.635 -0.4348  0.4511 -0.4160
  883MOL0     C19090   8.060   1.763   1.502  0.2556 -0.3712  0.8229
  883MOL0     C19091   8.167   1.866   1.470  0.3774 -0.5910  0.8228
  883MOL0     C19092   8.305   1.850   1.544 -0.1536  0.6076 -0.5729
  883MOL0     C19093   8.411   1.933   1.486 -0.5238  0.3600  0.2600
  883MOL0     O19094   8.514   1.975   1.572 -0.0791 -0.2231 -0.2213
  883MOL0     C19095   8.598   1.879   1.636  0.6890 -0.2518  0.2478
  883MOL0     C19096   8.598   1.741   1.601  0.0308  0.1324 -0.5481
  883MOL0     C19097   8.679   1.652   1.665 -0.7524  0.0624  0.3464
  883MOL0     C19098   8.672   1.504   1.641  0.6021  0.5800 -0.1925
  883MOL0     C19099   8.760   1.696   1.773 -0.6335 -0.2527 -0.7736
  883MOL0     C19100   8.850   1.612   1.863 -0.2291  0.2498 -0.5539
  883MOL0     O19101   8.844   1.632   1.999  0.3312 -0.4269  0.0925
  883MOL0     C19102   8.924   1.549   2.077 -0.1069  0.5400  0.0999
  883MOL0     C19103   8.909   1.410   2.073  0.0410  0.1637  0.6301
  883MOL0     C19104   8.988   1.331   2.159 -0.2222 -0.3997  0.0137
  883MOL0     C19105   9.077   1.398   2.265 -0.5424  0.2227  0.7895
  883MOL0     O19106   9.149   1.331   2.358 -0.1303 -0.0832 -0.4337
  883MOL0     C19107   9.112   1.204   2.398  0.4742  0.6429 -0.6008
  883MOL0     C19108   9.197   1.084   2.343  0.5309  0.0355  0.2605
  883MOL0     C19109   9.341   1.086   2.362 -0.7198  0.1831  0.9693
  883MOL0     C19110   9.400   1.093   2.508 -0.0598 -0.1430 -0.5735
  883MOL0     C19111   9.395   1.226   2.594 -1.0388  0.5345  0.5180
  883MOL0     C19112   9.495   1.324   2.526 -0.2802  0.9749 -0.0814
  883MOL0     C19113   9.493   1.465   2.586  0.1627  0.6083 -0.5623
  883MOL0     C19114   9.361   1.540   2.532 -0.5621 -0.1731  0.4522
  883MOL0    Cl19115   9.360   1.705   2.603 -0.3999 -0.3805  0.0286
  883MOL0     C19116   9.097   1.531   2.245  0.5754 -0.2769  0.1305
  883MOL0     C19117   9.016   1.609   2.157 -0.1959 -0.4010 -0.2659
  883MOL0     O19118   8.927   1.541   1.810 -0.1590 -0.3077  0.6899
  883MOL0     C19119   8.767   1.829   1.802  0.2055 -0.3114  0.5092
  883MOL0     C19120   8.682   1.918   1.740 -0.1465  0.6314  0.3521
  883MOL0     N19121   7.892   1.896   1.646  0.4110 -0.2506  0.0682
  883MOL0     N19122   7.847   1.912   1.761  0.6329  0.2112 -0.9738
  883MOL0     C19123   8.508   1.266   2.607 -0.3652 -0.9075 -0.0399
  883MOL0     C19124   8.630   1.223   2.653 -0.4580 -0.0844 -0.3295
  883MOL0     C19125   9.024   1.055   2.740  0.4943  0.0917  0.8132
  883MOL0     C19126   9.073   0.928   2.735  0.1044  0.5224 -0.1173
  883MOL0     C19127   9.193   0.888   2.794  0.0853 -0.0885  0.3058
  883MOL0     C19128   9.272   0.975   2.862  1.0228  0.0148 -1.1008
  883MOL0     O19129   9.377   0.938   2.946  0.0452 -0.2235 -0.4748
  883MOL0     C19130   9.429   0.804   2.945  1.6351 -0.1657 -0.8378
  883MOL0     C19131   9.352   0.730   3.054  1.3570 -0.1130  0.0434
  883MOL0     C19132   9.371   0.778   3.191 -0.1485 -0.4803 -0.5222
  883MOL0     C19133   9.508   0.800   3.253  0.2847 -0.4086 -0.5204
  883MOL0     C19134   9.605   0.693   3.264  0.3221  0.7693  0.2983
  883MOL0     C19135   9.694   0.618   3.288 -0.7385 -0.0036  0.2875
  883MOL0     C19136   9.216   1.104   2.875 -1.2185 -0.0098  0.4999
  883MOL0     C19137   9.095   1.141   2.817  0.1892  0.0354  0.7179
  883MOL0     H19138   8.829   1.403   2.440  1.8094 -1.7730 -0.1360
  883MOL0     H19139   8.623   1.459   2.351  4.0549  0.9255  1.1573
  883MOL0     H19140   8.252   1.250   2.477 -0.1207  0.1616  0.1585
  883MOL0     H19141   8.232   1.395   2.581 -2.6175 -1.7768 -0.3902
  883MOL0     H19142   8.171   1.396   2.286  0.9288 -0.8276 -0.3910
  883MOL0     H19143   8.069   1.325   2.404  1.8902 -0.5435  1.1161
  883MOL0     H19144   8.105   1.578   2.524 -0.7034  3.0554 -0.5832
  883MOL0     H19145   8.179   1.594   2.361  1.6587 -1.8586 -0.1858
  883MOL0     H19146   7.876   1.534   2.402 -1.3339  2.8677 -1.0324
  883MOL0     H19147   7.950   1.692   2.385 -0.4098  1.3662 -2.0642
  883MOL0     H19148   8.029   1.622   2.161 -0.0700 -1.0767  0.8578
  883MOL0     H19149   7.945   1.462   2.175  1.6134 -1.7761  3.4023
  883MOL0     H19150   7.723   1.563   2.195 -0.8084  1.2834  0.0951
  883MOL0     H19151   7.798   1.717   2.198  2.2792  1.8955 -4.7077
  883MOL0     H19152   7.850   1.562   1.953 -0.9135 -0.5956 -0.3636
  883MOL0     H19153   7.695   1.634   1.973  1.7237 -1.9149 -2.7944
  883MOL0     H19154   7.966   1.788   2.021  0.7976 -2.9171 -2.2793
  883MOL0     H19155   7.797   1.852   2.027  0.2945 -1.4319  1.2012
  883MOL0     H19156   8.018   1.626   1.786  1.1645 -0.8878 -2.3861
  883MOL0     H19157   8.103   1.662   1.500  3.1651  0.7340  2.2021
  883MOL0     H19158   7.981   1.780   1.428  2.3813 -0.9368 -1.7534
  883MOL0     H19159   8.125   1.966   1.488  0.8108 -0.8748  3.9643
  883MOL0     H19160   8.181   1.864   1.362  2.7358  4.7547  0.6855
  883MOL0     H19161   8.332   1.745   1.535  2.4190  1.2221 -0.7820
  883MOL0     H19162   8.298   1.868   1.652 -2.4989  0.7586 -0.6862
  883MOL0     H19163   8.361   2.019   1.440 -3.4193 -1.7230 -0.8016
  883MOL0     H19164   8.465   1.878   1.409  3.9891  2.0154  1.9443
  883MOL0     H19165   8.530   1.699   1.528 -1.4213 -0.2488  0.9594
  883MOL0     H19166   8.628   1.459   1.730 -0.6717  0.3579 -0.9237
  883MOL0     H19167   8.603   1.489   1.558  0.6272  0.5434 -0.2066
  883MOL0     H19168   8.768   1.459   1.613  0.1559 -0.8467  0.4972
  883MOL0     H19169   8.844   1.359   2.004 -2.1397  1.8259  1.3427
  883MOL0     H19170   8.964   1.226   2.172 -2.4057  0.1908  1.2028
  883MOL0     H19171   9.123   1.202   2.507  3.9450  0.8176 -0.8443
  883MOL0     H19172   9.009   1.175   2.373 -0.5914  3.6001 -0.0607
  883MOL0     H19173   9.152   0.995   2.388  2.3980 -0.7417  0.7124
  883MOL0     H19174   9.171   1.082   2.237  0.1612  1.5508  0.3001
  883MOL0     H19175   9.378   1.175   2.310  1.0439  1.4954  4.1502
  883MOL0     H19176   9.384   0.999   2.312  1.0575  1.2537  0.5730
  883MOL0     H19177   9.333   1.027   2.563 -1.5471  1.8351  0.0861
  883MOL0     H19178   9.501   1.052   2.520  0.2696  1.2165  2.0542
  883MOL0     H19179   9.427   1.206   2.697 -1.6811  3.4284  1.3969
  883MOL0     H19180   9.294   1.269   2.599 -0.7525  1.3469 -0.3860
  883MOL0     H19181   9.593   1.279   2.540 -0.5832  0.7238  1.4423
  883MOL0     H19182   9.472   1.334   2.419 -0.0341  0.1409 -0.2135
  883MOL0     H19183   9.572   1.525   2.540  0.8946  1.0814  1.2187
  883MOL0     H19184   9.497   1.472   2.695  0.2927  1.7735 -0.6257
  883MOL0     H19185   9.275   1.475   2.551  0.4851 -2.1005 -1.1185
  883MOL0     H19186   9.381   1.552   2.426  2.1224  1.6386  1.0621
  883MOL0     H19187   9.169   1.580   2.310  0.7161  0.3617 -0.4948
  883MOL0     H19188   9.029   1.717   2.153  0.0521 -0.4456 -0.8677
  883MOL0     H19189   8.826   1.862   1.887  0.0546  1.3323  0.0117
  883MOL0     H19190   8.683   2.016   1.787 -0.0352  0.8032 -0.0087
  883MOL0     H19191   8.417   1.241   2.661 -3.2146  3.0180 -2.4899
  883MOL0     H19192   8.628   1.156   2.738 -0.4908 -0.2364 -0.4507
  883MOL0     H19193   9.021   0.864   2.664 -1.7629  1.6220  0.1868
  883MOL0     H19194   9.220   0.784   2.781 -0.7413 -0.3099  0.2976
  883MOL0     H19195   9.408   0.767   2.844 -1.5036 -1.2743  0.0954
  883MOL0     H19196   9.538   0.796   2.953  1.6025 -0.5936 -0.7803
  883MOL0     H19197   9.382   0.625   3.053  1.7544 -0.0343 -2.0134
  883MOL0     H19198   9.244   0.735   3.035  1.4755 -1.9977 -1.4046
  883MOL0     H19199   9.298   0.726   3.254 -1.8022  0.5304 -1.5376
  883MOL0     H19200   9.324   0.876   3.204  1.3930  0.1933  0.1721
  883MOL0     H19201   9.502   0.832   3.358  1.5148  1.8155 -1.0759
  883MOL0     H19202   9.566   0.874   3.199  0.4586 -1.0581 -1.2434
  883MOL0     H19203   9.784   0.565   3.309  0.1941  1.5928  0.4929
  883MOL0     H19204   9.281   1.175   2.926  0.6297 -0.0929 -1.5854
  883MOL0     H19205   9.057   1.243   2.813  0.0843 -0.0419 -0.5236
  884MOL0     O19206   2.721   6.192   9.940  0.3785  0.0077  0.7774
  884MOL0     C19207   2.732   6.310   9.972  0.0655  0.1464  0.3840
  884MOL0     O19208   2.802   6.402   9.903  0.4096  0.3178  0.4669
  884MOL0     C19209   2.852   6.383   9.777  0.6891 -0.2382  0.5474
  884MOL0     C19210   2.796   6.305   9.674  0.5811 -0.6053 -0.9176
  884MOL0     C19211   2.853   6.302   9.552 -0.2476  0.5188  0.3412
  884MOL0     C19212   2.968   6.371   9.518 -1.1499  0.7183 -0.3026
  884MOL0     O19213   3.031   6.371   9.399 -0.0688 -0.1648  0.2510
  884MOL0     C19214   3.087   6.244   9.362  1.0335 -0.5586 -0.7151
  884MOL0     C19215   3.205   6.264   9.260 -0.7892  0.1152 -1.0431
  884MOL0     C19216   3.166   6.339   9.139 -0.1403 -0.3295  0.3260
  884MOL0     C19217   3.096   6.253   9.041  0.7400  0.4442  0.0861
  884MOL0     C19218   3.088   6.311   8.906 -0.2052 -0.7013  0.3368
  884MOL0     C19219   3.041   6.462   8.907 -0.9898 -1.0203 -0.1541
  884MOL0     C19220   2.980   6.511   8.778 -0.6858  0.5271  0.1656
  884MOL0     C19221   2.997   6.663   8.767  0.4009  0.1532 -0.0135
  884MOL0     N19222   2.918   6.728   8.875 -1.5025  0.3025  0.0278
  884MOL0     C19223   2.969   6.818   8.971 -0.8300  0.8459  0.1383
  884MOL0     C19224   2.867   6.862   9.044  0.6614 -0.4735 -0.5548
  884MOL0     C19225   2.874   6.955   9.169 -0.3854  0.2377  0.8363
  884MOL0     C19226   2.741   7.030   9.177 -0.0670 -0.3667  0.1989
  884MOL0     C19227   2.725   7.125   9.059 -0.0546 -0.7833 -0.2225
  884MOL0     C19228   2.596   7.205   9.048  0.6052 -0.2414 -0.3535
  884MOL0     O19229   2.589   7.260   8.917 -0.5086  0.8433  0.6008
  884MOL0     C19230   2.467   7.310   8.882 -0.1122  0.4469  0.5264
  884MOL0     C19231   2.464   7.346   8.750 -0.3517 -0.0053  0.0382
  884MOL0     C19232   2.359   7.413   8.694  0.4860 -0.5053  0.1161
  884MOL0     C19233   2.358   7.432   8.544 -0.3308  1.0918  0.8855
  884MOL0     C19234   2.239   7.446   8.772 -0.9008 -0.3962 -1.1474
  884MOL0     C19235   2.122   7.520   8.717  0.1351  0.2791  0.6755
  884MOL0     O19236   1.999   7.471   8.755  0.4617  0.6411 -0.3973
  884MOL0     C19237   1.887   7.526   8.699 -1.1025 -0.3037  0.1371
  884MOL0     C19238   1.806   7.624   8.753 -0.3311 -0.0635  0.0172
  884MOL0     C19239   1.694   7.667   8.689  1.1321 -0.4373 -1.0176
  884MOL0     C19240   1.656   7.625   8.564 -0.0891  0.6260 -0.5765
  884MOL0     O19241   1.541   7.666   8.503  0.2280 -0.8985 -0.2128
  884MOL0     C19242   1.536   7.649   8.354 -0.5868  0.6815  0.8281
  884MOL0     C19243   1.409   7.719   8.284  0.0134  0.7687 -1.0333
  884MOL0     C19244   1.414   7.872   8.280  0.7038 -0.1597  0.2544
  884MOL0     C19245   1.308   7.919   8.188 -0.7095 -0.2782 -0.2128
  884MOL0     C19246   1.294   8.075   8.185 -0.2711  0.0900 -0.7183
  884MOL0     C19247   1.196   8.127   8.083 -0.0528  0.2856 -0.1054
  884MOL0     C19248   1.049   8.106   8.112 -0.4452  0.6580  0.2750
  884MOL0     C19249   0.991   8.148   8.240 -0.1611 -0.4386  0.3730
  884MOL0    Cl19250   0.833   8.091   8.248  0.0054 -0.0378  0.0409
  884MOL0     C19251   1.737   7.518   8.511 -0.5055  0.3277  0.1160
  884MOL0     C19252   1.847   7.472   8.579 -0.6223 -0.9724  0.5473
  884MOL0     O19253   2.144   7.619   8.648  0.3174  0.3095  0.4748
  884MOL0     C19254   2.242   7.401   8.907 -0.9028  0.0495  0.5701
  884MOL0     C19255   2.355   7.336   8.961 -0.8348  0.6274 -0.1087
  884MOL0     N19256   2.749   6.816   8.983  0.3571  0.0369 -0.4988
  884MOL0     N19257   2.787   6.740   8.882 -0.1412  0.3192  0.3869
  884MOL0     C19258   3.019   6.458   9.618 -0.5989 -0.0057  0.2508
  884MOL0     C19259   2.959   6.463   9.745  0.1159  0.2215 -0.1927
  884MOL0     C19260   2.686   6.352  10.112 -0.3663  0.1594  0.3215
  884MOL0     C19261   2.687   6.489  10.133  0.0056 -0.9346  0.3443
  884MOL0     C19262   2.664   6.545  10.260 -0.7776  0.1979 -0.4499
  884MOL0     C19263   2.624   6.454  10.363 -0.7118 -0.2745 -0.6021
  884MOL0     O19264   2.592   6.492  10.484  0.1342 -0.0549  0.3813
  884MOL0     C19265   2.454   6.534  10.495 -0.7850  0.5875 -0.2439
  884MOL0     C19266   2.415   6.673  10.437  0.0774 -0.4281 -0.2082
  884MOL0     C19267   2.500   6.786  10.494  0.6041  0.0727  0.1551
  884MOL0     C19268   2.496   6.783  10.642  0.3941  0.2507  0.0758
  884MOL0     C19269   2.363   6.779  10.697  1.1608 -1.3121  0.4817
  884MOL0     C19270   2.247   6.794  10.728 -0.0173  1.1885 -0.0392
  884MOL0     C19271   2.615   6.318  10.340 -0.0321 -0.0641  0.4182
  884MOL0     C19272   2.652   6.263  10.218 -0.2807  0.1352  0.2524
  884MOL0     H19273   2.703   6.252   9.687  0.2717  0.0437 -0.3527
  884MOL0     H19274   2.812   6.236   9.476 -1.2981 -0.3178  1.5888
  884MOL0     H19275   3.112   6.191   9.455 -2.7058 -0.5774  0.4538
  884MOL0     H19276   3.005   6.180   9.330 -0.3269 -0.3494  2.0961
  884MOL0     H19277   3.285   6.316   9.314 -1.6410  2.1786 -1.6994
  884MOL0     H19278   3.251   6.167   9.238 -0.7832 -0.7455  2.2302
  884MOL0     H19279   3.110   6.428   9.171  0.7957  0.0733  0.8697
  884MOL0     H19280   3.259   6.371   9.091  0.1210 -0.3832  0.7996
  884MOL0     H19281   3.139   6.154   9.029 -3.1370 -1.1344 -3.1978
  884MOL0     H19282   2.991   6.243   9.072  1.2157  1.4789  2.2123
  884MOL0     H19283   3.191   6.306   8.869  1.3053 -1.8297  4.2210
  884MOL0     H19284   3.027   6.250   8.839  0.4035 -1.9825  0.9147
  884MOL0     H19285   2.971   6.487   8.986  1.8266  2.5156  1.5099
  884MOL0     H19286   3.129   6.523   8.931 -1.0923 -0.1178 -1.9150
  884MOL0     H19287   3.046   6.473   8.699  1.6715 -1.2479  2.7506
  884MOL0     H19288   2.881   6.473   8.753 -0.5968  1.1401 -1.2129
  884MOL0     H19289   2.975   6.714   8.673 -2.1952  2.4604  1.6760
  884MOL0     H19290   3.101   6.686   8.790 -0.0719  0.7683  1.6786
  884MOL0     H19291   3.076   6.832   8.985 -0.6659  0.2044 -0.4477
  884MOL0     H19292   2.879   6.891   9.257  1.4633 -1.1109 -0.1712
  884MOL0     H19293   2.962   7.019   9.160 -2.1343  2.4816 -3.7624
  884MOL0     H19294   2.737   7.082   9.273  0.3144  0.0922 -0.0272
  884MOL0     H19295   2.656   6.964   9.196 -1.3352  0.7280 -1.4011
  884MOL0     H19296   2.722   7.073   8.963 -2.1345  1.6833 -1.6048
  884MOL0     H19297   2.808   7.197   9.065 -0.4161 -0.1761 -2.0399
  884MOL0     H19298   2.593   7.289   9.118 -1.8336  2.4477 -3.3572
  884MOL0     H19299   2.509   7.140   9.063 -0.6894  1.0468 -1.8105
  884MOL0     H19300   2.557   7.328   8.698  0.2436 -0.1561  1.1174
  884MOL0     H19301   2.400   7.532   8.525  2.5083  0.0387  1.0749
  884MOL0     H19302   2.425   7.359   8.498 -1.6549  0.8388 -0.7113
  884MOL0     H19303   2.262   7.423   8.493 -0.7128 -1.4220  1.9197
  884MOL0     H19304   1.828   7.666   8.850  1.2269  0.2484 -0.4469
  884MOL0     H19305   1.627   7.744   8.727 -4.0183 -4.0241 -1.7947
  884MOL0     H19306   1.628   7.681   8.304 -0.5172 -0.7469 -0.0328
  884MOL0     H19307   1.526   7.541   8.344 -0.2819  0.7450 -0.2941
  884MOL0     H19308   1.397   7.673   8.186  0.5393 -1.5156 -0.0701
  884MOL0     H19309   1.328   7.697   8.355  1.2188 -3.1901 -0.6816
  884MOL0     H19310   1.513   7.883   8.235  0.6954 -3.4944 -0.8334
  884MOL0     H19311   1.402   7.917   8.379 -3.9661 -0.3079 -0.0236
  884MOL0     H19312   1.320   7.889   8.083 -1.9773  2.0003 -1.0920
  884MOL0     H19313   1.209   7.880   8.216 -0.5884 -0.2998  0.1878
  884MOL0     H19314   1.394   8.119   8.176  0.4282 -0.9559  1.2656
  884MOL0     H19315   1.261   8.110   8.283 -1.2416 -1.0247 -0.6219
  884MOL0     H19316   1.208   8.235   8.071 -0.2841  0.4384  0.9413
  884MOL0     H19317   1.227   8.085   7.987  1.0141 -0.5423  0.5789
  884MOL0     H19318   1.038   7.997   8.100  1.9009  0.4786 -0.8972
  884MOL0     H19319   0.984   8.151   8.037 -1.2808 -1.0904 -0.1206
  884MOL0     H19320   1.000   8.254   8.264  2.5198 -1.1650  3.2544
  884MOL0     H19321   1.052   8.097   8.315  3.5065  1.6133 -0.9439
  884MOL0     H19322   1.710   7.484   8.411  0.0477  3.0338 -1.0484
  884MOL0     H19323   1.909   7.395   8.535  3.0005  2.0241 -0.0653
  884MOL0     H19324   2.159   7.413   8.975  0.4162 -1.6367  2.6089
  884MOL0     H19325   2.349   7.285   9.057 -4.9227 -1.2804 -1.1720
  884MOL0     H19326   3.099   6.528   9.597 -1.1835 -0.6628 -6.0290
  884MOL0     H19327   2.988   6.522   9.832 -3.2714  1.9797 -0.1000
  884MOL0     H19328   2.707   6.550  10.046  1.2080 -1.1303  0.4609
  884MOL0     H19329   2.684   6.649  10.285  0.6474 -0.1796  0.0711
  884MOL0     H19330   2.398   6.458  10.440 -0.5002  1.3389 -1.6194
  884MOL0     H19331   2.435   6.531  10.603  1.8614  1.5137  0.3260
  884MOL0     H19332   2.309   6.694  10.458  0.0674 -0.9870  0.3251
  884MOL0     H19333   2.428   6.675  10.329 -3.0867  2.1272 -0.7061
  884MOL0     H19334   2.443   6.870  10.454 -0.6951 -1.8800 -2.3958
  884MOL0     H19335   2.597   6.794  10.445 -0.4091  2.3710 -1.7064
  884MOL0     H19336   2.544   6.879  10.662 -1.3643  1.7823 -2.4582
  884MOL0     H19337   2.546   6.693  10.680 -1.4559 -0.4491  0.9950
  884MOL0     H19338   2.143   6.794  10.753  0.3125  2.1691  1.4864
  884MOL0     H19339   2.586   6.242  10.412  0.6457 -0.1747  0.5845
  884MOL0     H19340   2.653   6.156  10.203 -1.7151  0.2865 -1.2956
  885MOL0     O19341   0.841  10.349   0.609 -0.0355  0.9653 -1.2630
  885MOL0     C19342   0.797  10.426   0.519 -0.1028  0.0492 -0.2067
  885MOL0     O19343   0.688  10.402   0.443 -0.6347 -0.6947 -0.2524
  885MOL0     C19344   0.631  10.282   0.444 -0.3107 -1.3013 -0.6047
  885MOL0     C19345   0.697  10.160   0.419 -0.1213  0.2042 -0.0996
  885MOL0     C19346   0.620  10.048   0.425 -0.4152  0.0709  0.4181
  885MOL0     C19347   0.482  10.049   0.452  0.2687  0.2982 -0.9719
  885MOL0     O19348   0.414   9.927   0.459 -0.5198 -0.1927 -0.6863
  885MOL0     C19349   0.269   9.930   0.436  0.0884 -0.2676  0.9741
  885MOL0     C19350   0.207   9.792   0.465 -0.7787 -0.1951  0.0749
  885MOL0     C19351   0.226   9.698   0.351  0.1601 -0.3049  0.6282
  885MOL0     C19352   0.106   9.604   0.328 -0.0565 -0.0749 -1.1148
  885MOL0     C19353   0.131   9.502   0.217 -0.3218 -0.8266  0.4522
  885MOL0     C19354   0.004   9.418   0.188  0.7055  0.7854  0.3268
  885MOL0     C19355   0.002   9.291   0.275  0.7467 -0.1495  0.1345
  885MOL0     C19356  -0.117   9.207   0.226 -0.2353 -0.4208 -0.1362
  885MOL0     N19357  -0.161   9.104   0.320  0.3149 -0.1297 -0.2484
  885MOL0     C19358  -0.260   9.119   0.423  1.1387  0.3315 -0.2120
  885MOL0     C19359  -0.251   9.006   0.495 -0.0073 -0.1758 -0.2588
  885MOL0     C19360  -0.342   8.968   0.599  0.7109 -0.4863  0.9570
  885MOL0     C19361  -0.282   8.876   0.705  0.9481 -0.2114  0.4276
  885MOL0     C19362  -0.370   8.862   0.827  0.0772 -0.6767 -0.2681
  885MOL0     C19363  -0.521   8.831   0.806 -0.7471 -0.0335 -0.4904
  885MOL0     O19364  -0.584   8.797   0.934 -0.5943 -0.1417  0.4478
  885MOL0     C19365  -0.650   8.912   0.983 -0.1022  0.6444  0.3301
  885MOL0     C19366  -0.586   9.015   1.041  0.1127 -1.1613  0.0172
  885MOL0     C19367  -0.665   9.133   1.068  0.3874  0.1412  0.0388
  885MOL0     C19368  -0.590   9.250   1.129 -0.2658  0.5261 -0.3461
  885MOL0     C19369  -0.806   9.134   1.051 -0.0650  0.4736 -0.3987
  885MOL0     C19370  -0.899   9.248   1.082 -0.3191  0.5730  0.0261
  885MOL0     O19371  -1.035   9.228   1.041 -0.2695  0.7079  0.5254
  885MOL0     C19372  -1.135   9.306   1.086 -0.2217  0.4235 -0.2982
  885MOL0     C19373  -1.251   9.245   1.152 -0.0582 -0.3131 -0.1773
  885MOL0     C19374  -1.356   9.313   1.214  0.6256  0.3803 -0.2359
  885MOL0     C19375  -1.337   9.454   1.213  0.4349  0.9334 -0.0462
  885MOL0     O19376  -1.425   9.541   1.273 -0.3353 -0.6793 -0.1422
  885MOL0     C19377  -1.505   9.497   1.385  0.1002 -0.6118  0.1754
  885MOL0     C19378  -1.636   9.556   1.349  0.7048  0.5309 -0.3436
  885MOL0     C19379  -1.736   9.511   1.456  0.1744  0.3497  0.9270
  885MOL0     C19380  -1.858   9.585   1.447 -0.1561 -0.9541  0.4211
  885MOL0     C19381  -1.954   9.552   1.560 -0.3092  0.1513  0.5440
  885MOL0     C19382  -2.074   9.645   1.570  0.2857  0.2460  0.7468
  885MOL0     C19383  -2.034   9.782   1.620  0.3413 -0.4123  0.1221
  885MOL0     C19384  -2.159   9.862   1.662  0.6351  0.0721  0.3967
  885MOL0    Cl19385  -2.301   9.880   1.530  0.1214 -0.1498 -0.0414
  885MOL0     C19386  -1.237   9.519   1.135  0.6818 -0.0412  0.2845
  885MOL0     C19387  -1.134   9.449   1.076 -0.3116  0.4537  0.2762
  885MOL0     O19388  -0.866   9.350   1.138 -0.1336  0.1054 -0.2983
  885MOL0     C19389  -0.860   9.026   0.987  0.3787 -0.2422 -0.0219
  885MOL0     C19390  -0.782   8.918   0.951  0.5021  1.4416 -0.3608
  885MOL0     N19391  -0.145   8.937   0.443  0.1742 -0.7353 -0.0240
  885MOL0     N19392  -0.099   8.990   0.336  0.1121  0.1497  0.3926
  885MOL0     C19393   0.423  10.177   0.479  0.2758 -0.6947  0.3555
  885MOL0     C19394   0.492  10.295   0.468  0.4338  1.2660  0.4049
  885MOL0     C19395   0.867  10.557   0.512 -0.3067 -0.4505  0.3312
  885MOL0     C19396   0.976  10.597   0.593 -0.0796 -0.4811 -0.0690
  885MOL0     C19397   1.038  10.726   0.565  0.5473  0.8984 -0.2621
  885MOL0     C19398   1.002  10.803   0.453  1.0551  0.7229  0.5082
  885MOL0     O19399   1.072  10.918   0.422  0.1776 -0.6581 -0.2896
  885MOL0     C19400   1.145  10.980   0.529 -0.2406 -0.4167  0.0883
  885MOL0     C19401   1.188  11.120   0.485 -0.6493  0.5168 -0.3087
  885MOL0     C19402   1.303  11.112   0.378  0.4551 -0.0418 -0.6555
  885MOL0     C19403   1.364  11.249   0.354  0.2396 -0.0294  0.2288
  885MOL0     C19404   1.407  11.310   0.484  1.2267 -1.1031  0.5879
  885MOL0     C19405   1.434  11.374   0.588 -0.0550 -1.0500  0.3083
  885MOL0     C19406   0.905  10.752   0.369 -0.0653 -0.6412  0.8167
  885MOL0     C19407   0.841  10.635   0.401 -0.4326 -1.0704 -0.4671
  885MOL0     H19408   0.805  10.153   0.411  0.0155  0.0466  1.5483
  885MOL0     H19409   0.663   9.949   0.411  2.2073  1.3353 -1.4163
  885MOL0     H19410   0.212   9.996   0.501  0.2565  2.0155 -1.0636
  885MOL0     H19411   0.245   9.967   0.336 -1.1673  0.5358  1.5466
  885MOL0     H19412   0.249   9.747   0.556 -2.0423  0.4722  1.0261
  885MOL0     H19413   0.101   9.799   0.490 -0.6207 -2.0580  1.4893
  885MOL0     H19414   0.251   9.750   0.259 -2.0706 -1.2319 -0.5706
  885MOL0     H19415   0.314   9.633   0.358 -1.1286 -2.0313  1.9007
  885MOL0     H19416   0.083   9.546   0.418  1.6847 -0.5196 -0.9305
  885MOL0     H19417   0.011   9.658   0.315  0.0570  1.0379  1.9588
  885MOL0     H19418   0.151   9.560   0.126 -1.1101  0.8931  1.3195
  885MOL0     H19419   0.219   9.439   0.230  1.0078  0.7338 -0.5814
  885MOL0     H19420  -0.079   9.487   0.199  0.4637  0.3132  1.6166
  885MOL0     H19421  -0.006   9.383   0.085 -2.0672 -0.1284  0.8312
  885MOL0     H19422   0.093   9.231   0.274 -0.5364 -2.2555  1.4034
  885MOL0     H19423  -0.020   9.313   0.380 -2.2767  0.9401 -0.6078
  885MOL0     H19424  -0.089   9.171   0.126 -0.4723  0.5170 -0.5487
  885MOL0     H19425  -0.206   9.266   0.202  0.2462 -0.7714 -3.2819
  885MOL0     H19426  -0.327   9.202   0.442  1.5448  1.1615 -2.1842
  885MOL0     H19427  -0.377   9.063   0.640  1.2969  0.9983 -1.7622
  885MOL0     H19428  -0.427   8.918   0.551  1.9747 -1.3969 -0.4360
  885MOL0     H19429  -0.189   8.916   0.746  1.2224  0.7543 -1.0552
  885MOL0     H19430  -0.245   8.781   0.664 -2.0937 -2.1301  1.7678
  885MOL0     H19431  -0.360   8.950   0.890 -2.1375 -2.0220  2.1404
  885MOL0     H19432  -0.323   8.775   0.873 -0.7303  1.1153  4.4147
  885MOL0     H19433  -0.532   8.744   0.741  1.4210  0.3737 -1.4622
  885MOL0     H19434  -0.572   8.913   0.755  1.4163  2.0861  0.5578
  885MOL0     H19435  -0.484   9.009   1.077  0.0432 -0.3992  0.3663
  885MOL0     H19436  -0.635   9.295   1.218  0.7046  1.8290 -0.4912
  885MOL0     H19437  -0.498   9.206   1.170  0.7131  3.0636  0.3528
  885MOL0     H19438  -0.546   9.328   1.066  1.3286  0.7058  0.9089
  885MOL0     H19439  -1.242   9.136   1.152 -1.2451 -0.4158 -0.1312
  885MOL0     H19440  -1.438   9.257   1.258  0.6142  1.7486  1.6314
  885MOL0     H19441  -1.503   9.389   1.399  1.2678 -0.4420  1.5430
  885MOL0     H19442  -1.475   9.544   1.479  1.2332  0.5490 -0.7200
  885MOL0     H19443  -1.623   9.664   1.341 -1.2955  0.7877 -0.7641
  885MOL0     H19444  -1.677   9.510   1.259  2.2734 -1.0651 -0.2902
  885MOL0     H19445  -1.685   9.535   1.550  0.2533  0.3233  0.8911
  885MOL0     H19446  -1.751   9.404   1.446 -0.7454  0.3799  1.7979
  885MOL0     H19447  -1.837   9.692   1.456 -1.8001 -0.6714  1.3191
  885MOL0     H19448  -1.893   9.567   1.345  1.6703 -1.6277 -0.1292
  885MOL0     H19449  -1.902   9.571   1.654 -0.1071  4.6750 -0.2340
  885MOL0     H19450  -1.997   9.452   1.553 -0.4306  0.2253  0.2108
  885MOL0     H19451  -2.106   9.658   1.466  0.5683 -0.5085  0.5621
  885MOL0     H19452  -2.155   9.592   1.620  0.1824  0.8545  1.2450
  885MOL0     H19453  -1.981   9.829   1.536 -0.7068  4.3098  1.7842
  885MOL0     H19454  -1.963   9.772   1.702  1.3465 -5.0293 -1.0138
  885MOL0     H19455  -2.125   9.964   1.681  3.1816 -0.5371 -0.4292
  885MOL0     H19456  -2.205   9.815   1.749 -0.0485  0.2616  0.1398
  885MOL0     H19457  -1.239   9.627   1.122 -3.3796  0.6439  4.2248
  885MOL0     H19458  -1.051   9.502   1.029  0.1937  0.0605  0.6999
  885MOL0     H19459  -0.966   9.003   0.980  0.8094 -2.6560  0.7066
  885MOL0     H19460  -0.817   8.826   0.906  4.5123 -0.7453  0.5098
  885MOL0     H19461   0.319  10.194   0.502 -0.0127 -2.1298  0.1947
  885MOL0     H19462   0.444  10.392   0.477 -0.5774  0.9302 -1.1356
  885MOL0     H19463   1.001  10.539   0.681 -0.4777  1.3771  1.3490
  885MOL0     H19464   1.114  10.762   0.634  1.3310  0.9269 -1.1230
  885MOL0     H19465   1.084  10.989   0.619  1.4248 -1.8908  1.4517
  885MOL0     H19466   1.233  10.917   0.547  0.5970 -0.3979 -3.1778
  885MOL0     H19467   1.232  11.153   0.579  0.6898 -1.2652 -0.2566
  885MOL0     H19468   1.113  11.197   0.465  0.0510  1.1389 -0.5656
  885MOL0     H19469   1.261  11.064   0.289  0.1914  0.0755 -0.5975
  885MOL0     H19470   1.366  11.042   0.433  1.7780 -0.9795 -3.1891
  885MOL0     H19471   1.286  11.303   0.301 -0.8081 -1.4416  0.2755
  885MOL0     H19472   1.451  11.260   0.289  0.1161  0.3946  0.1318
  885MOL0     H19473   1.461  11.439   0.668 -1.0257  0.1164 -0.2626
  885MOL0     H19474   0.867  10.804   0.282 -0.2008  2.3276  2.5467
  885MOL0     H19475   0.761  10.605   0.333 -0.4196 -1.2329 -0.4119
  886MOL0     O19476   3.912   6.908   6.048 -0.1959 -0.0084  0.9195
  886MOL0     C19477   3.959   6.791   6.051  0.0887  0.3439  0.3304
  886MOL0     O19478   4.059   6.741   6.131  0.3959  0.3060 -0.2727
  886MOL0     C19479   4.129   6.811   6.224 -0.3386  0.7072  0.5908
  886MOL0     C19480   4.094   6.944   6.279  0.4015  0.5168  0.1258
  886MOL0     C19481   4.179   7.008   6.373 -0.5098 -0.0431 -0.6526
  886MOL0     C19482   4.293   6.938   6.425  0.0252 -0.3718  0.9500
  886MOL0     O19483   4.380   7.000   6.518 -0.3479  0.6638  0.0297
  886MOL0     C19484   4.499   6.929   6.561 -0.4670 -0.7220 -0.6711
  886MOL0     C19485   4.527   6.968   6.711  0.4246 -0.7808  1.2535
  886MOL0     C19486   4.675   6.944   6.758 -0.7424  0.3706 -0.2786
  886MOL0     C19487   4.672   6.992   6.911  0.0024 -0.3228  0.5719
  886MOL0     C19488   4.808   6.978   6.975 -0.7985  0.6874 -0.0403
  886MOL0     C19489   4.928   7.033   6.896 -0.3633  0.0263  0.7137
  886MOL0     C19490   4.902   7.186   6.860 -0.4634 -1.2135  0.6068
  886MOL0     C19491   4.930   7.276   6.981 -0.4098 -0.0596  0.8133
  886MOL0     N19492   4.889   7.419   6.961  0.9023 -0.5800  0.1540
  886MOL0     C19493   4.767   7.463   6.926 -0.2893 -0.3225 -0.1123
  886MOL0     C19494   4.781   7.596   6.914 -1.3278 -0.0491 -0.6035
  886MOL0     C19495   4.662   7.685   6.895 -0.0261  0.7364 -0.1201
  886MOL0     C19496   4.610   7.675   6.756  0.4591 -0.4800  0.6120
  886MOL0     C19497   4.461   7.704   6.747  0.6380 -0.4002  0.2109
  886MOL0     C19498   4.412   7.757   6.611  0.4604 -0.1729  0.0386
  886MOL0     O19499   4.412   7.661   6.507 -0.3971  0.0531 -0.2958
  886MOL0     C19500   4.305   7.641   6.422 -0.2758  0.1207 -0.1836
  886MOL0     C19501   4.205   7.734   6.400  0.3801  0.4949 -0.2307
  886MOL0     C19502   4.093   7.699   6.313  0.0382  0.2703 -0.1447
  886MOL0     C19503   3.997   7.806   6.277 -0.6193 -0.3837 -0.3769
  886MOL0     C19504   4.075   7.570   6.252  0.0926  0.5928  0.0897
  886MOL0     C19505   3.964   7.526   6.156 -0.6082 -0.7523 -0.1046
  886MOL0     O19506   4.005   7.449   6.051  0.4009  0.3289 -0.4071
  886MOL0     C19507   3.912   7.393   5.974 -0.2975 -0.0823  1.3746
  886MOL0     C19508   3.810   7.457   5.918  0.4656 -0.6514 -0.1020
  886MOL0     C19509   3.711   7.392   5.831 -0.8086 -1.3830 -0.0489
  886MOL0     C19510   3.723   7.255   5.813  0.1802 -0.0079  0.3114
  886MOL0     O19511   3.631   7.173   5.752 -0.5525 -0.5325  0.9024
  886MOL0     C19512   3.552   7.220   5.653 -0.0801 -1.4205  0.7044
  886MOL0     C19513   3.566   7.149   5.520  0.4194  0.0021 -0.4179
  886MOL0     C19514   3.552   6.998   5.536 -0.0286 -0.8405  0.6891
  886MOL0     C19515   3.582   6.943   5.394 -0.7593 -0.3629 -0.5472
  886MOL0     C19516   3.576   6.794   5.380  0.5164 -0.2232 -0.4545
  886MOL0     C19517   3.454   6.731   5.435 -0.2788  1.1931  0.4989
  886MOL0     C19518   3.433   6.590   5.370 -0.4696  0.1493 -0.2777
  886MOL0     C19519   3.482   6.471   5.450 -0.3009 -1.8872 -0.5415
  886MOL0    Cl19520   3.659   6.477   5.434  0.6831  0.4518 -0.2265
  886MOL0     C19521   3.839   7.189   5.857  0.7917  0.8201 -0.2316
  886MOL0     C19522   3.932   7.261   5.935  0.3014 -0.3805  0.3409
  886MOL0     O19523   3.848   7.547   6.193 -0.0990 -0.4099 -0.2579
  886MOL0     C19524   4.182   7.478   6.282  0.4226  0.0566 -0.4598
  886MOL0     C19525   4.294   7.513   6.359  0.7425 -0.1879  0.1707
  886MOL0     N19526   4.909   7.641   6.934 -0.2872  0.1854 -0.5514
  886MOL0     N19527   4.970   7.525   6.962 -0.6853 -0.4501 -0.1916
  886MOL0     C19528   4.311   6.806   6.372 -0.4260 -0.5081 -0.3546
  886MOL0     C19529   4.234   6.739   6.278  0.6676  0.5154  0.8401
  886MOL0     C19530   3.895   6.683   5.972 -0.0382  0.0247  0.7291
  886MOL0     C19531   3.807   6.724   5.867 -0.5281  0.5687  0.9179
  886MOL0     C19532   3.728   6.630   5.796 -0.0649 -0.1438 -0.4724
  886MOL0     C19533   3.734   6.492   5.837 -0.5418  0.2403 -0.7704
  886MOL0     O19534   3.660   6.401   5.760 -0.0881 -0.4223 -0.0278
  886MOL0     C19535   3.712   6.261   5.752 -0.1543  0.0134  0.0734
  886MOL0     C19536   3.855   6.257   5.706 -0.0732 -0.0770  0.2920
  886MOL0     C19537   3.896   6.118   5.646  0.1522  1.0860  0.2569
  886MOL0     C19538   3.857   6.002   5.737 -0.1766  0.8085 -0.1983
  886MOL0     C19539   3.928   6.009   5.871  0.0462 -0.2345  0.4542
  886MOL0     C19540   3.997   6.002   5.965 -0.4728 -0.7914 -0.7058
  886MOL0     C19541   3.818   6.453   5.942 -0.3205  0.2763 -0.0140
  886MOL0     C19542   3.901   6.551   6.011  0.0635 -0.0251 -0.1126
  886MOL0     H19543   3.997   6.986   6.254 -0.4803  0.9835  3.7164
  886MOL0     H19544   4.152   7.108   6.405  0.7091  0.2873 -0.6271
  886MOL0     H19545   4.496   6.819   6.556  0.7828 -0.8210  0.2592
  886MOL0     H19546   4.593   6.949   6.509 -0.4217  1.1720  0.0706
  886MOL0     H19547   4.501   7.073   6.723 -1.7304 -1.1380  0.1903
  886MOL0     H19548   4.446   6.910   6.755 -0.4292 -1.7120 -1.3497
  886MOL0     H19549   4.701   6.838   6.756 -0.7309  0.3694  0.0184
  886MOL0     H19550   4.745   6.996   6.692 -2.1721  2.0998 -0.4992
  886MOL0     H19551   4.627   7.091   6.919  0.2667 -0.0743 -0.7009
  886MOL0     H19552   4.599   6.933   6.967 -0.6119  1.9883  2.3225
  886MOL0     H19553   4.806   7.025   7.074  0.7665  0.7718 -0.0270
  886MOL0     H19554   4.819   6.871   6.993 -0.8019  0.8756  1.1740
  886MOL0     H19555   5.022   7.015   6.949  0.5175 -0.1562 -0.8675
  886MOL0     H19556   4.937   6.978   6.802 -0.3920  2.0609 -0.5262
  886MOL0     H19557   4.975   7.211   6.782 -0.3360 -1.1888  0.7354
  886MOL0     H19558   4.803   7.203   6.817  0.0895  0.0566 -0.2410
  886MOL0     H19559   5.035   7.285   7.011 -0.8151  1.5720  1.8550
  886MOL0     H19560   4.881   7.242   7.073 -2.8797  0.6607 -0.1587
  886MOL0     H19561   4.679   7.401   6.914 -0.0286 -0.4715 -1.3437
  886MOL0     H19562   4.587   7.659   6.970 -1.1906 -1.2264 -1.8460
  886MOL0     H19563   4.695   7.789   6.900 -1.3880  1.1871 -0.2621
  886MOL0     H19564   4.636   7.578   6.711 -1.5607 -1.2755  1.0466
  886MOL0     H19565   4.664   7.755   6.704 -0.1377  0.3104  1.1903
  886MOL0     H19566   4.432   7.788   6.811 -2.5517 -1.4540  0.3637
  886MOL0     H19567   4.399   7.617   6.773 -2.1331  1.4249  0.1894
  886MOL0     H19568   4.467   7.847   6.582 -0.3293  0.9613  1.8604
  886MOL0     H19569   4.310   7.789   6.635 -0.0155 -0.5248 -1.4556
  886MOL0     H19570   4.210   7.837   6.433 -4.3679  1.0160 -0.4957
  886MOL0     H19571   3.996   7.824   6.169 -0.3173 -0.3262 -0.3707
  886MOL0     H19572   3.893   7.780   6.297 -1.2696  0.5739 -2.2831
  886MOL0     H19573   4.018   7.903   6.324 -1.6678 -0.5320  0.4408
  886MOL0     H19574   3.800   7.563   5.937  2.4561 -0.5894  0.8727
  886MOL0     H19575   3.628   7.450   5.793 -0.4435 -0.3003  0.7221
  886MOL0     H19576   3.446   7.214   5.681 -1.4155  1.5865 -2.8789
  886MOL0     H19577   3.569   7.325   5.627  2.7856 -2.3410 -1.6282
  886MOL0     H19578   3.492   7.178   5.444  1.0281 -2.1055 -1.9056
  886MOL0     H19579   3.659   7.182   5.473 -0.2014 -0.9901 -2.4417
  886MOL0     H19580   3.456   6.964   5.575 -0.6816 -2.1405 -1.8105
  886MOL0     H19581   3.626   6.956   5.605 -0.1655 -0.6155  0.9733
  886MOL0     H19582   3.497   6.979   5.335 -1.4104  1.0121  1.1234
  886MOL0     H19583   3.675   6.987   5.359  0.1983 -1.4111  0.5688
  886MOL0     H19584   3.663   6.749   5.428  0.4211  0.9942  0.9021
  886MOL0     H19585   3.592   6.776   5.273  0.0226  0.1226 -0.5911
  886MOL0     H19586   3.465   6.715   5.543  0.0411  1.7341  0.5498
  886MOL0     H19587   3.363   6.792   5.429 -1.7371 -0.8236  1.0002
  886MOL0     H19588   3.480   6.586   5.272  0.9322 -1.4542  0.4169
  886MOL0     H19589   3.328   6.559   5.363 -0.9182  1.2833  0.9963
  886MOL0     H19590   3.448   6.380   5.400 -0.5190 -1.3352 -1.4174
  886MOL0     H19591   3.444   6.473   5.553  0.3984 -0.7458 -0.2860
  886MOL0     H19592   3.867   7.088   5.829  0.0507 -0.7762  4.0253
  886MOL0     H19593   4.023   7.207   5.960 -0.9425 -3.3377 -0.9953
  886MOL0     H19594   4.181   7.376   6.244 -0.1936 -0.4100  0.7468
  886MOL0     H19595   4.365   7.431   6.361  1.9101  0.2330 -5.7569
  886MOL0     H19596   4.410   6.764   6.385  0.2787  1.5580  1.6585
  886MOL0     H19597   4.275   6.655   6.222  1.4117  1.1565  0.4017
  886MOL0     H19598   3.788   6.825   5.830 -0.1170  0.5284  0.5869
  886MOL0     H19599   3.659   6.653   5.716 -1.3370  0.3684  0.7351
  886MOL0     H19600   3.705   6.220   5.853  1.0816 -1.6030 -0.4518
  886MOL0     H19601   3.642   6.214   5.682  1.5381  0.8481 -2.2916
  886MOL0     H19602   3.922   6.281   5.789  1.6365  0.0936 -1.0735
  886MOL0     H19603   3.869   6.332   5.628 -0.4873 -0.5686 -0.2690
  886MOL0     H19604   4.002   6.114   5.618  0.6179  0.2437  1.9761
  886MOL0     H19605   3.844   6.099   5.552  0.9980 -2.2131  0.3180
  886MOL0     H19606   3.873   5.903   5.692 -0.8578  0.7446 -0.3144
  886MOL0     H19607   3.751   6.005   5.765 -0.3006 -2.3866  0.0502
  886MOL0     H19608   4.038   5.984   6.062  0.9699 -1.4386 -1.4011
  886MOL0     H19609   3.836   6.348   5.966  3.1616  0.1259 -2.5464
  886MOL0     H19610   3.967   6.526   6.093 -0.0164 -2.8065 -0.8170
  887MOL0     O19611   9.273   9.575   6.809 -0.4329 -0.1502 -0.0939
  887MOL0     C19612   9.369   9.591   6.890  0.3684 -0.0546 -0.4136
  887MOL0     O19613   9.372   9.682   7.001 -0.2172 -0.4019  0.3348
  887MOL0     C19614   9.253   9.698   7.056 -0.4500 -0.9278 -0.1032
  887MOL0     C19615   9.189   9.821   7.064 -0.2987 -0.8244 -0.0879
  887MOL0     C19616   9.063   9.824   7.120 -0.5684 -0.2448 -0.4938
  887MOL0     C19617   8.995   9.713   7.172  0.2754 -0.5280  0.3789
  887MOL0     O19618   8.858   9.739   7.221 -0.0494  0.4515 -0.1011
  887MOL0     C19619   8.822   9.659   7.334 -0.5379 -0.0463 -0.3395
  887MOL0     C19620   8.707   9.728   7.409  0.0608 -0.0740  0.1499
  887MOL0     C19621   8.736   9.885   7.435  0.0492 -0.0304 -0.3346
  887MOL0     C19622   8.856   9.894   7.532 -0.3788  1.1669  0.0803
  887MOL0     C19623   8.866  10.026   7.615  0.0873 -0.8998  0.4988
  887MOL0     C19624   8.960  10.138   7.566  0.2927  0.4524  0.6282
  887MOL0     C19625   8.952  10.172   7.416  0.7615 -0.3604  0.8671
  887MOL0     C19626   8.831  10.264   7.404 -0.3499 -0.3535 -0.2849
  887MOL0     N19627   8.789  10.295   7.269 -0.7341 -0.1347  0.6100
  887MOL0     C19628   8.708  10.403   7.248 -0.0063  0.7957 -0.1173
  887MOL0     C19629   8.720  10.421   7.113  0.0392  0.8731 -0.5151
  887MOL0     C19630   8.646  10.526   7.034  0.1016  0.7333  0.1647
  887MOL0     C19631   8.724  10.653   7.017 -0.6823 -0.0163  0.1606
  887MOL0     C19632   8.732  10.753   7.138  0.7059 -0.3988 -0.4614
  887MOL0     C19633   8.596  10.803   7.174 -0.0537  0.2922  0.3208
  887MOL0     O19634   8.612  10.908   7.270 -0.1576 -0.6318 -0.4952
  887MOL0     C19635   8.499  10.965   7.321 -0.7047  0.2530 -0.5201
  887MOL0     C19636   8.375  10.935   7.280 -0.5157 -0.9240  0.3000
  887MOL0     C19637   8.259  10.996   7.343  0.4318  0.0668  0.2168
  887MOL0     C19638   8.132  10.964   7.274  0.6040  0.5844  0.6339
  887MOL0     C19639   8.274  11.071   7.461  0.1844  0.2840 -0.9724
  887MOL0     C19640   8.158  11.117   7.546 -1.1181  0.0192  0.3741
  887MOL0     O19641   8.196  11.198   7.648 -0.8725 -0.3310 -0.3366
  887MOL0     C19642   8.093  11.236   7.729  0.1053 -1.0491  0.3315
  887MOL0     C19643   8.041  11.361   7.729 -0.1165 -0.6255 -0.9877
  887MOL0     C19644   7.931  11.392   7.802  0.0517 -0.0501  0.6083
  887MOL0     C19645   7.867  11.295   7.881 -0.1125 -0.2545  0.2590
  887MOL0     O19646   7.740  11.325   7.923  1.0086 -0.2631  0.0578
  887MOL0     C19647   7.699  11.257   8.045  0.6245 -0.2628  0.2204
  887MOL0     C19648   7.579  11.331   8.106 -0.7564 -0.5414  0.3435
  887MOL0     C19649   7.456  11.337   8.019 -0.9062  0.2410  0.6549
  887MOL0     C19650   7.339  11.361   8.105 -0.3194  0.5795 -0.8912
  887MOL0     C19651   7.211  11.355   8.035  0.5652 -0.2275 -0.0954
  887MOL0     C19652   7.090  11.384   8.123 -0.6875 -0.3919 -0.5892
  887MOL0     C19653   6.977  11.459   8.064 -1.3832  0.7936  0.3033
  887MOL0     C19654   6.844  11.429   8.137  0.4826  0.0149 -0.6046
  887MOL0    Cl19655   6.707  11.514   8.038 -0.3563  0.2278 -0.1538
  887MOL0     C19656   7.917  11.169   7.891 -0.6651 -0.5589  0.2395
  887MOL0     C19657   8.031  11.140   7.812  0.0012 -0.2976 -0.4064
  887MOL0     O19658   8.056  11.055   7.532  0.2984 -0.8058  0.2257
  887MOL0     C19659   8.410  11.092   7.503  0.6245 -0.3076 -0.2001
  887MOL0     C19660   8.521  11.037   7.438 -0.3721 -0.2792  0.2300
  887MOL0     N19661   8.793  10.314   7.065  0.2203 -0.8952  0.0234
  887MOL0     N19662   8.841  10.247   7.158 -0.1281 -0.3537  0.0363
  887MOL0     C19663   9.060   9.593   7.162 -0.2451  1.2911  0.1352
  887MOL0     C19664   9.189   9.580   7.108 -0.3090 -0.9000  0.3243
  887MOL0     C19665   9.499   9.509   6.865  1.2809 -0.3220  0.3984
  887MOL0     C19666   9.613   9.526   6.945  0.4751 -0.7886  0.6526
  887MOL0     C19667   9.724   9.450   6.922  0.1581  0.2800 -0.6682
  887MOL0     C19668   9.725   9.348   6.826  0.2692 -0.8099 -0.7616
  887MOL0     O19669   9.830   9.272   6.783 -0.6251 -0.3995 -1.0350
  887MOL0     C19670   9.960   9.296   6.834  0.4543 -0.3697  0.5782
  887MOL0     C19671  10.071   9.218   6.765 -0.3571 -0.3932 -0.3477
  887MOL0     C19672  10.075   9.256   6.618  0.0102  0.5343 -0.9163
  887MOL0     C19673  10.191   9.175   6.557  0.9535  0.3405 -0.3314
  887MOL0     C19674  10.165   9.161   6.417  0.0415 -0.1444 -0.0080
  887MOL0     C19675  10.158   9.141   6.294  0.2576  0.1187 -1.4526
  887MOL0     C19676   9.618   9.334   6.750  0.3042 -0.1247  0.0091
  887MOL0     C19677   9.501   9.401   6.772 -0.1489 -0.8295  0.1748
  887MOL0     H19678   9.249   9.908   7.038 -0.9193  0.7618  3.2160
  887MOL0     H19679   9.025   9.920   7.154 -1.4541 -1.0153  0.7498
  887MOL0     H19680   8.806   9.553   7.311  1.3249 -0.5909  0.6804
  887MOL0     H19681   8.910   9.651   7.399 -1.2295 -0.0677  0.6218
  887MOL0     H19682   8.608   9.717   7.364 -0.9074 -1.2039  2.3666
  887MOL0     H19683   8.690   9.689   7.510  0.0324 -0.9699 -0.1853
  887MOL0     H19684   8.763   9.938   7.344  0.8077 -0.5686 -0.4247
  887MOL0     H19685   8.643   9.933   7.468  0.1613  1.7444 -2.3601
  887MOL0     H19686   8.853   9.827   7.618  3.2876  0.6600 -0.0112
  887MOL0     H19687   8.950   9.861   7.488  0.1236 -0.2850  2.0942
  887MOL0     H19688   8.770  10.079   7.626  0.8158  0.3922  0.9223
  887MOL0     H19689   8.895   9.997   7.716  2.9614  3.1325  1.0571
  887MOL0     H19690   8.945  10.224   7.631  1.7039  0.5656  0.8364
  887MOL0     H19691   9.066  10.111   7.569  0.1301 -0.2659  0.2926
  887MOL0     H19692   9.037  10.233   7.384  1.1320 -1.9376 -1.3675
  887MOL0     H19693   8.952  10.087   7.347 -1.7717 -0.5928  1.0446
  887MOL0     H19694   8.858  10.355   7.459  0.9921 -1.1662  0.4370
  887MOL0     H19695   8.741  10.228   7.455 -1.8276  1.6755 -1.2960
  887MOL0     H19696   8.652  10.454   7.326  2.1373  1.0148  1.3599
  887MOL0     H19697   8.646  10.477   6.936  0.0294  0.9218  0.0700
  887MOL0     H19698   8.548  10.557   7.072  0.5678 -2.1876  4.4685
  887MOL0     H19699   8.669  10.694   6.932 -3.5712 -1.0559  1.3871
  887MOL0     H19700   8.823  10.628   6.977  0.4356  1.3811  1.8894
  887MOL0     H19701   8.793  10.842   7.119  0.5200 -0.4262 -1.2276
  887MOL0     H19702   8.763  10.708   7.233 -2.9121  0.0029  1.0627
  887MOL0     H19703   8.540  10.717   7.211  0.2325  0.3314  0.8549
  887MOL0     H19704   8.546  10.835   7.082  0.4482 -0.5563 -0.2613
  887MOL0     H19705   8.363  10.867   7.196 -0.6755  0.1107 -0.5350
  887MOL0     H19706   8.146  10.930   7.171 -0.1901  1.7899  0.1071
  887MOL0     H19707   8.085  10.879   7.325  2.3841 -0.3361  0.8127
  887MOL0     H19708   8.068  11.052   7.265 -0.2826 -0.1965 -1.0862
  887MOL0     H19709   8.100  11.436   7.677 -0.9079  0.7702  0.0661
  887MOL0     H19710   7.891  11.489   7.773  0.4723 -0.0131  0.1340
  887MOL0     H19711   7.667  11.156   8.017  0.2419  0.8578 -4.2406
  887MOL0     H19712   7.784  11.249   8.113  0.8915  2.3895  0.3186
  887MOL0     H19713   7.561  11.273   8.197  2.6101 -0.7352  1.0155
  887MOL0     H19714   7.600  11.435   8.132 -0.3338 -0.4655 -0.2879
  887MOL0     H19715   7.439  11.252   7.952  1.1910  0.6378 -0.4798
  887MOL0     H19716   7.463  11.420   7.949  1.9287 -0.5072 -0.0766
  887MOL0     H19717   7.339  11.279   8.177 -0.1345  2.1996  1.0213
  887MOL0     H19718   7.353  11.454   8.162 -1.4273 -0.4232  1.1113
  887MOL0     H19719   7.210  11.270   7.966  3.1307  1.5044 -2.5036
  887MOL0     H19720   7.209  11.439   7.965  1.4787  1.1192  1.4037
  887MOL0     H19721   7.066  11.287   8.167  0.7096 -1.5696 -2.2959
  887MOL0     H19722   7.122  11.442   8.210  0.0739 -2.1211  0.3330
  887MOL0     H19723   6.966  11.457   7.956 -1.5462  1.5201  0.2995
  887MOL0     H19724   6.996  11.565   8.082  0.5050  0.4546  0.5407
  887MOL0     H19725   6.858  11.466   8.239  3.5350 -0.9794 -0.5721
  887MOL0     H19726   6.824  11.321   8.144  0.9135 -0.0227  0.1910
  887MOL0     H19727   7.860  11.087   7.934 -2.7330 -0.5876 -2.2899
  887MOL0     H19728   8.061  11.036   7.805 -0.8424 -0.6470  0.9092
  887MOL0     H19729   8.436  11.138   7.597 -0.9211 -0.6623  0.4299
  887MOL0     H19730   8.619  11.065   7.474 -0.5493  0.8487 -0.1301
  887MOL0     H19731   9.013   9.497   7.184  4.0216 -0.4665  2.7673
  887MOL0     H19732   9.233   9.487   7.074  0.6657 -1.0667  1.9477
  887MOL0     H19733   9.609   9.606   7.019  0.8433 -0.9014  0.7951
  887MOL0     H19734   9.803   9.446   6.995 -1.3010 -3.6770  0.9966
  887MOL0     H19735   9.995   9.398   6.813  2.3420 -0.9551  0.7155
  887MOL0     H19736   9.962   9.286   6.943  2.6793  0.9618  0.7368
  887MOL0     H19737  10.058   9.110   6.780  1.6512 -0.1930  4.4512
  887MOL0     H19738  10.165   9.245   6.814 -0.0939  1.2214 -1.6685
  887MOL0     H19739  10.098   9.360   6.594  3.3900  0.2474  0.5514
  887MOL0     H19740   9.980   9.225   6.573 -0.5397 -0.1938  0.6596
  887MOL0     H19741  10.209   9.079   6.605  0.4402  1.1821  1.6526
  887MOL0     H19742  10.281   9.235   6.574 -0.9702  2.9556  1.4531
  887MOL0     H19743  10.147   9.121   6.189 -3.2756 -1.8670 -0.8903
  887MOL0     H19744   9.611   9.252   6.679  1.8678  1.3422 -1.9582
  887MOL0     H19745   9.405   9.382   6.723 -0.7639 -2.1162  1.7957
  888MOL0     O19746   1.332   7.596   6.132  0.7221 -0.5346 -0.0750
  888MOL0     C19747   1.338   7.527   6.236  0.8151 -0.2172  0.3021
  888MOL0     O19748   1.428   7.432   6.266 -0.2639  0.8325  0.0710
  888MOL0     C19749   1.520   7.402   6.167  0.6162 -0.1108 -0.0065
  888MOL0     C19750   1.660   7.428   6.192  0.6765  0.9762 -0.3190
  888MOL0     C19751   1.757   7.365   6.114  0.2443 -0.4658  0.3081
  888MOL0     C19752   1.728   7.303   5.998 -0.5195 -0.3540 -0.3123
  888MOL0     O19753   1.835   7.267   5.924  0.3730 -0.5137  1.1082
  888MOL0     C19754   1.803   7.163   5.824  0.2508  0.8360  0.3011
  888MOL0     C19755   1.935   7.118   5.774 -0.6120 -0.4313  0.1941
  888MOL0     C19756   1.949   7.097   5.618 -0.0038  0.2568 -0.2924
  888MOL0     C19757   2.089   7.032   5.614 -0.0318  0.0157  0.7491
  888MOL0     C19758   2.146   7.031   5.468  0.4650 -0.6801 -0.2096
  888MOL0     C19759   2.259   6.943   5.436 -0.5758  0.9724 -0.3329
  888MOL0     C19760   2.319   6.932   5.287  0.8890 -0.1527  0.4825
  888MOL0     C19761   2.426   6.827   5.303 -0.6071 -0.5393  0.2186
  888MOL0     N19762   2.501   6.791   5.175 -0.0840 -0.0312  0.1793
  888MOL0     C19763   2.582   6.877   5.101 -0.8019 -0.0199 -0.5995
  888MOL0     C19764   2.622   6.808   4.999 -0.3568 -0.0866 -0.4767
  888MOL0     C19765   2.691   6.861   4.874 -0.1248  0.5949  0.8634
  888MOL0     C19766   2.841   6.825   4.876  0.6105  0.2637 -0.0243
  888MOL0     C19767   2.924   6.842   4.750  0.2133  0.5551 -0.0216
  888MOL0     C19768   3.071   6.811   4.773  0.3875 -0.6728 -0.1773
  888MOL0     O19769   3.140   6.811   4.647 -0.2482 -0.0411 -0.0297
  888MOL0     C19770   3.155   6.926   4.579 -0.0582  0.5745  0.8253
  888MOL0     C19771   3.177   6.927   4.434 -0.8610 -0.4642  0.6301
  888MOL0     C19772   3.213   7.050   4.362 -0.3944  0.6991  0.5687
  888MOL0     C19773   3.232   7.052   4.215  0.4180 -0.0673  0.2918
  888MOL0     C19774   3.215   7.178   4.431  0.3242 -0.5067 -0.6812
  888MOL0     C19775   3.245   7.314   4.384 -0.1292 -0.2963 -0.3771
  888MOL0     O19776   3.258   7.421   4.472  0.2725  0.3278  0.0195
  888MOL0     C19777   3.345   7.525   4.441 -0.1077  0.1858  0.0369
  888MOL0     C19778   3.314   7.627   4.341 -0.1281 -0.5644  0.0710
  888MOL0     C19779   3.401   7.727   4.313  0.0980  0.6720  0.9751
  888MOL0     C19780   3.528   7.736   4.379 -0.1574  0.0389 -0.5124
  888MOL0     O19781   3.616   7.839   4.359 -0.0878 -0.2914 -0.1663
  888MOL0     C19782   3.634   7.864   4.224 -0.7813 -1.0059 -0.2747
  888MOL0     C19783   3.773   7.908   4.199  1.1025  0.6100 -0.3294
  888MOL0     C19784   3.779   8.057   4.209  0.0952 -0.6873 -0.4598
  888MOL0     C19785   3.917   8.120   4.222  0.1031  0.5906 -0.0805
  888MOL0     C19786   3.904   8.264   4.222 -0.7968  0.5113  0.0361
  888MOL0     C19787   3.855   8.321   4.355 -0.2810  0.4363  0.5574
  888MOL0     C19788   3.853   8.475   4.360  0.9626  0.6661 -0.1441
  888MOL0     C19789   3.826   8.549   4.496 -0.2950  0.0829 -0.0244
  888MOL0    Cl19790   3.662   8.526   4.551 -0.1067  0.1871 -0.3250
  888MOL0     C19791   3.551   7.644   4.475 -0.5403  0.3532 -0.1643
  888MOL0     C19792   3.468   7.535   4.512 -0.9078 -0.1373  0.6344
  888MOL0     O19793   3.302   7.316   4.280  0.1000  0.3425 -0.2492
  888MOL0     C19794   3.186   7.169   4.569 -0.3783  0.3055  0.1259
  888MOL0     C19795   3.170   7.048   4.637 -0.0046  0.3763 -0.3018
  888MOL0     N19796   2.580   6.679   5.003 -0.7286  0.6108 -1.1968
  888MOL0     N19797   2.514   6.666   5.118  0.0346  0.3021  0.1940
  888MOL0     C19798   1.592   7.283   5.954 -0.6078  1.0844 -0.7339
  888MOL0     C19799   1.486   7.324   6.044 -0.3609  0.5174  0.4609
  888MOL0     C19800   1.231   7.552   6.333  0.6380 -0.2651  0.0215
  888MOL0     C19801   1.129   7.656   6.312 -0.8029  0.9488  0.6052
  888MOL0     C19802   1.038   7.691   6.409 -0.0414  0.5568  0.1766
  888MOL0     C19803   1.053   7.635   6.542 -0.1347  0.2072  0.1627
  888MOL0     O19804   0.959   7.674   6.630 -0.1646  0.0455  0.3953
  888MOL0     C19805   0.961   7.620   6.767 -0.0154  0.4652 -0.6188
  888MOL0     C19806   1.069   7.667   6.861 -0.7977 -0.1073 -0.9360
  888MOL0     C19807   1.048   7.812   6.909  0.2542 -0.3748  0.7466
  888MOL0     C19808   1.154   7.873   7.004  0.6567 -0.0850 -0.3329
  888MOL0     C19809   1.104   7.985   7.090  0.0291 -0.2064 -0.6354
  888MOL0     C19810   1.087   8.079   7.152  0.1563 -0.3780 -0.2183
  888MOL0     C19811   1.149   7.535   6.564  0.3041 -0.2935 -0.1983
  888MOL0     C19812   1.232   7.486   6.464  0.3192  0.0398 -0.1244
  888MOL0     H19813   1.685   7.494   6.274  2.4151 -0.9171  0.7890
  888MOL0     H19814   1.864   7.382   6.128  0.2902 -0.8000  0.3729
  888MOL0     H19815   1.749   7.087   5.881  4.2208 -0.9574  2.0399
  888MOL0     H19816   1.750   7.196   5.734  1.2972 -1.5905 -1.3273
  888MOL0     H19817   2.006   7.197   5.801  0.6088 -1.2438 -0.5500
  888MOL0     H19818   1.950   7.024   5.828  1.4919 -1.4411 -1.9719
  888MOL0     H19819   1.877   7.027   5.575 -2.4531  1.9359  0.8869
  888MOL0     H19820   1.954   7.196   5.570  4.7143  0.8460  0.9122
  888MOL0     H19821   2.163   7.080   5.679  3.0262 -0.3874 -2.1233
  888MOL0     H19822   2.070   6.928   5.643  0.5478 -0.9408 -1.9450
  888MOL0     H19823   2.081   6.991   5.390 -0.1123 -1.6678  0.7564
  888MOL0     H19824   2.160   7.140   5.461 -0.0148 -0.6222 -0.3163
  888MOL0     H19825   2.348   6.973   5.492 -0.4395 -0.1558  0.0838
  888MOL0     H19826   2.227   6.844   5.469  1.8645 -1.8631 -5.3068
  888MOL0     H19827   2.230   6.911   5.226 -3.1041  0.8586  5.3163
  888MOL0     H19828   2.365   7.028   5.264 -0.0145  0.5122  1.3336
  888MOL0     H19829   2.371   6.734   5.316 -2.0433 -0.0507 -1.7914
  888MOL0     H19830   2.502   6.850   5.378 -0.5114 -1.9437  0.5741
  888MOL0     H19831   2.582   6.985   5.115  0.7209  0.1997 -2.0800
  888MOL0     H19832   2.642   6.805   4.794 -0.2568  1.6214  0.2031
  888MOL0     H19833   2.679   6.969   4.859 -2.6316  0.5371  2.0590
  888MOL0     H19834   2.844   6.718   4.896 -0.8199  0.4594  1.5211
  888MOL0     H19835   2.878   6.871   4.968 -0.2030 -1.0101  0.9594
  888MOL0     H19836   2.914   6.947   4.719  0.8277  0.7675  0.4707
  888MOL0     H19837   2.881   6.779   4.672 -0.8286 -0.7842  1.5703
  888MOL0     H19838   3.090   6.709   4.809  2.1247 -0.4830 -0.4515
  888MOL0     H19839   3.111   6.888   4.839 -5.2092  3.0283 -0.4364
  888MOL0     H19840   3.173   6.831   4.384 -0.2383  0.0466 -0.4445
  888MOL0     H19841   3.158   7.120   4.173  1.1275 -0.4468 -1.6914
  888MOL0     H19842   3.330   7.074   4.173 -0.7171  2.3204 -1.3191
  888MOL0     H19843   3.223   6.952   4.170 -0.7207 -0.2148  0.8137
  888MOL0     H19844   3.212   7.635   4.305  0.0631  3.1047  0.0096
  888MOL0     H19845   3.366   7.811   4.254 -0.7571  0.4224  1.1065
  888MOL0     H19846   3.613   7.772   4.170 -0.5494 -1.3107  0.1481
  888MOL0     H19847   3.566   7.945   4.197  1.0222  1.2651  1.5064
  888MOL0     H19848   3.835   7.844   4.263  1.3162 -0.3248 -1.4590
  888MOL0     H19849   3.801   7.883   4.097 -3.5704 -0.5489 -1.5425
  888MOL0     H19850   3.728   8.081   4.302  1.0839  0.9341 -0.2954
  888MOL0     H19851   3.719   8.101   4.128  0.5784  0.2896 -0.3038
  888MOL0     H19852   3.963   8.086   4.315 -2.5984 -2.0858  0.4460
  888MOL0     H19853   3.978   8.083   4.139  1.3049  1.3938  0.4159
  888MOL0     H19854   3.827   8.292   4.149 -2.1934  0.8288  1.5511
  888MOL0     H19855   3.997   8.307   4.184 -1.1873  2.8417  1.4792
  888MOL0     H19856   3.755   8.286   4.383 -0.9395 -0.5019 -2.5734
  888MOL0     H19857   3.922   8.284   4.433 -0.3457  0.5825  0.6838
  888MOL0     H19858   3.779   8.504   4.285 -0.1361 -2.0728 -0.2378
  888MOL0     H19859   3.953   8.509   4.334  1.0286  1.7178  1.3464
  888MOL0     H19860   3.850   8.655   4.494 -2.6967  0.7098 -3.0854
  888MOL0     H19861   3.891   8.495   4.566  0.8264 -0.6408 -1.5704
  888MOL0     H19862   3.655   7.638   4.506 -0.7046  0.3577  0.3891
  888MOL0     H19863   3.509   7.455   4.572 -1.0310 -0.8155 -0.1747
  888MOL0     H19864   3.196   7.266   4.618  2.3031 -0.0529  0.4579
  888MOL0     H19865   3.141   7.055   4.741 -1.7742 -1.3394 -0.6341
  888MOL0     H19866   1.567   7.239   5.858  1.0200  0.1913 -0.7855
  888MOL0     H19867   1.387   7.315   6.001  0.8118  2.2492 -2.9311
  888MOL0     H19868   1.124   7.710   6.218  1.3041 -1.4290 -1.0129
  888MOL0     H19869   0.961   7.764   6.384  0.3520  0.1913 -2.3307
  888MOL0     H19870   0.868   7.639   6.821  0.9157 -1.1251  1.7224
  888MOL0     H19871   0.967   7.513   6.747 -1.5887  0.2060  0.0836
  888MOL0     H19872   1.170   7.653   6.822 -0.3758  0.3685 -0.0493
  888MOL0     H19873   1.065   7.604   6.950 -0.5315  0.9500 -0.1523
  888MOL0     H19874   0.955   7.815   6.966  1.5545  0.6027  2.9429
  888MOL0     H19875   1.024   7.869   6.819  0.2780 -2.4941 -0.6735
  888MOL0     H19876   1.231   7.916   6.939  2.6491  0.2260  2.0667
  888MOL0     H19877   1.202   7.796   7.066 -3.6918 -2.6865  0.2453
  888MOL0     H19878   1.075   8.153   7.229 -1.3081  0.0282 -0.7972
  888MOL0     H19879   1.162   7.491   6.663 -0.8909 -1.8164 -0.6914
  888MOL0     H19880   1.307   7.409   6.481 -1.2098 -1.0155  2.2483
  889MOL0     O19881   4.987   7.982   9.432 -1.1179 -0.1725 -0.1989
  889MOL0     C19882   4.986   7.863   9.391  0.6112  0.6204  0.4191
  889MOL0     O19883   5.094   7.786   9.351  0.1326  0.3008 -0.0543
  889MOL0     C19884   5.202   7.857   9.327 -0.2000 -0.2792  0.2844
  889MOL0     C19885   5.267   7.916   9.438 -0.3968 -0.5131 -0.0224
  889MOL0     C19886   5.384   7.991   9.415  0.7378  0.1294  0.6113
  889MOL0     C19887   5.422   8.019   9.277  0.9950 -0.0204 -0.9062
  889MOL0     O19888   5.518   8.103   9.241 -0.8758 -0.5920  0.4180
  889MOL0     C19889   5.618   8.149   9.335  0.4148 -0.2236 -0.1127
  889MOL0     C19890   5.694   8.270   9.295 -0.6747 -0.9627  0.8561
  889MOL0     C19891   5.827   8.237   9.223 -0.0133  0.2247 -0.9507
  889MOL0     C19892   5.799   8.158   9.092 -0.7724  0.4689  0.4634
  889MOL0     C19893   5.922   8.136   8.998  0.7674  0.6296  0.4715
  889MOL0     C19894   6.056   8.134   9.080  1.2931  0.0534 -0.1220
  889MOL0     C19895   6.179   8.083   8.999 -0.6681 -0.3451  0.8492
  889MOL0     C19896   6.247   8.204   8.928  0.2106  0.5674  0.0716
  889MOL0     N19897   6.378   8.152   8.875 -0.2495 -0.0914 -0.3147
  889MOL0     C19898   6.496   8.156   8.951  1.2482 -0.1693  0.4752
  889MOL0     C19899   6.580   8.080   8.878  1.0516  0.2131  0.1755
  889MOL0     C19900   6.719   8.027   8.894 -0.6980 -1.2493  0.6505
  889MOL0     C19901   6.799   8.139   8.834  0.5378 -0.4348 -0.1832
  889MOL0     C19902   6.803   8.277   8.910  0.3814  0.8360 -0.6996
  889MOL0     C19903   6.866   8.260   9.053  0.1224  0.0611  0.3264
  889MOL0     O19904   6.781   8.205   9.149 -0.4972  0.5914  0.3792
  889MOL0     C19905   6.669   8.266   9.206 -1.0775  0.1400  0.0667
  889MOL0     C19906   6.587   8.190   9.293  0.8077 -0.0471  0.1268
  889MOL0     C19907   6.462   8.248   9.339  0.2530 -0.0465 -0.3267
  889MOL0     C19908   6.377   8.142   9.414 -0.3583 -0.1512 -0.1130
  889MOL0     C19909   6.421   8.383   9.300 -0.0498 -1.1536 -0.6381
  889MOL0     C19910   6.296   8.455   9.341  0.7299  0.7026  0.6933
  889MOL0     O19911   6.226   8.394   9.447  0.7923 -0.0110  0.1008
  889MOL0     C19912   6.095   8.441   9.468 -0.5542 -1.1702 -0.0940
  889MOL0     C19913   6.053   8.422   9.592  1.1053  0.7707 -0.4642
  889MOL0     C19914   5.933   8.471   9.639 -0.1710  0.1979  0.0101
  889MOL0     C19915   5.846   8.544   9.550  0.1055  0.0655  0.6287
  889MOL0     O19916   5.727   8.596   9.592  0.0008 -0.5014  0.8179
  889MOL0     C19917   5.655   8.500   9.671  0.5211  0.9098  0.8046
  889MOL0     C19918   5.514   8.474   9.603 -0.7925  0.0105 -0.9476
  889MOL0     C19919   5.449   8.362   9.674  0.0998  0.0200  0.0978
  889MOL0     C19920   5.300   8.358   9.634 -0.0694 -0.4824 -0.3139
  889MOL0     C19921   5.223   8.256   9.714 -0.1485 -0.1265 -0.7757
  889MOL0     C19922   5.069   8.285   9.695 -0.6353 -0.7061 -0.9127
  889MOL0     C19923   4.982   8.166   9.740 -0.2932  0.0716 -0.8151
  889MOL0     C19924   4.843   8.194   9.690  0.2243  0.4372 -0.5272
  889MOL0    Cl19925   4.727   8.086   9.772  0.0183  0.1318 -0.5352
  889MOL0     C19926   5.892   8.568   9.417  0.2388 -0.4180 -0.0457
  889MOL0     C19927   6.010   8.514   9.382  0.8675  0.0514  0.3558
  889MOL0     O19928   6.268   8.562   9.288  0.6409 -0.2248  0.2710
  889MOL0     C19929   6.514   8.457   9.224 -0.0503  0.4007 -0.2819
  889MOL0     C19930   6.632   8.396   9.174 -0.9263 -0.3397 -0.1782
  889MOL0     N19931   6.520   8.032   8.763 -0.1057 -0.7472 -0.2242
  889MOL0     N19932   6.403   8.094   8.757  0.0852  0.2540 -0.4577
  889MOL0     C19933   5.363   7.948   9.164 -0.4689 -0.2864 -0.5831
  889MOL0     C19934   5.253   7.864   9.195 -0.5275  0.0290  0.7605
  889MOL0     C19935   4.852   7.788   9.388 -0.5958  0.3749 -0.3123
  889MOL0     C19936   4.734   7.860   9.401 -0.2486 -0.8099 -0.4277
  889MOL0     C19937   4.609   7.799   9.401 -0.2921 -1.4632 -0.4867
  889MOL0     C19938   4.607   7.660   9.386  0.4164  0.5474  0.5527
  889MOL0     O19939   4.480   7.609   9.403 -0.2653 -0.2253 -0.5822
  889MOL0     C19940   4.453   7.467   9.415 -0.5545  0.4467 -0.6111
  889MOL0     C19941   4.453   7.401   9.278 -1.0522  0.3642 -0.1312
  889MOL0     C19942   4.373   7.272   9.275  1.0818  0.5427  0.0235
  889MOL0     C19943   4.314   7.230   9.143 -0.4447  0.2060 -0.9773
  889MOL0     C19944   4.392   7.226   9.027  1.3183  0.1051 -0.0775
  889MOL0     C19945   4.443   7.208   8.924 -0.2981  0.6921  0.4295
  889MOL0     C19946   4.730   7.589   9.374  0.8889  0.5364 -0.0226
  889MOL0     C19947   4.850   7.647   9.369 -0.6522 -0.3930  0.6007
  889MOL0     H19948   5.236   7.910   9.542 -1.7847  0.1522 -0.3616
  889MOL0     H19949   5.428   8.039   9.502 -1.4030  1.6259  0.9540
  889MOL0     H19950   5.561   8.178   9.424 -4.5045 -1.7087 -2.3866
  889MOL0     H19951   5.678   8.062   9.363  2.5449  1.2440  0.1503
  889MOL0     H19952   5.633   8.329   9.227  1.3517 -0.9483 -1.0511
  889MOL0     H19953   5.710   8.327   9.387  1.3041  0.2461 -0.1742
  889MOL0     H19954   5.881   8.331   9.212  0.1620  1.1563  4.8380
  889MOL0     H19955   5.889   8.180   9.293 -4.2261 -3.5239  0.2211
  889MOL0     H19956   5.754   8.062   9.117  2.0596 -0.6223  1.7970
  889MOL0     H19957   5.730   8.220   9.034 -0.6918  0.2232  0.0956
  889MOL0     H19958   5.899   8.042   8.948 -2.3808  0.7752  1.4085
  889MOL0     H19959   5.925   8.218   8.925  0.2363  1.0595  0.9215
  889MOL0     H19960   6.066   8.233   9.126  0.1030  0.1106  0.0430
  889MOL0     H19961   6.043   8.068   9.167 -0.0124 -1.6783 -1.5643
  889MOL0     H19962   6.239   8.030   9.074 -0.0029 -1.0546 -0.1624
  889MOL0     H19963   6.158   8.000   8.930 -0.5156  0.6586 -0.4368
  889MOL0     H19964   6.269   8.286   8.997 -0.6487  0.0197  1.0155
  889MOL0     H19965   6.167   8.227   8.856 -2.2593 -1.0315  2.1329
  889MOL0     H19966   6.501   8.212   9.043  0.7357  0.8644 -0.1078
  889MOL0     H19967   6.749   8.008   8.997  0.0280 -1.2633  0.4431
  889MOL0     H19968   6.740   7.942   8.829  0.9890  0.3559 -1.0387
  889MOL0     H19969   6.785   8.140   8.726 -1.6087  0.0179  0.0392
  889MOL0     H19970   6.896   8.098   8.862  0.4567 -0.5859 -0.1186
  889MOL0     H19971   6.700   8.312   8.925  0.8501  1.9947 -0.0447
  889MOL0     H19972   6.854   8.360   8.859 -0.5724  3.3237  2.0945
  889MOL0     H19973   6.898   8.355   9.097  0.9407  1.0963 -2.3223
  889MOL0     H19974   6.953   8.193   9.048 -0.3035 -0.4116 -3.5774
  889MOL0     H19975   6.620   8.090   9.321 -0.1215 -0.6935 -0.9931
  889MOL0     H19976   6.281   8.130   9.363  1.1145  0.3549 -3.2966
  889MOL0     H19977   6.418   8.042   9.429 -1.6192 -0.4603  1.5227
  889MOL0     H19978   6.378   8.181   9.516  0.7209  1.0724 -0.5522
  889MOL0     H19979   6.110   8.371   9.669 -1.5395 -0.9885  0.4482
  889MOL0     H19980   5.903   8.465   9.743  2.4283  0.5007  0.8431
  889MOL0     H19981   5.701   8.401   9.678 -1.8972 -0.1848  3.5654
  889MOL0     H19982   5.653   8.529   9.777  1.9914 -0.9018  1.3866
  889MOL0     H19983   5.450   8.562   9.617 -3.8177 -1.5127 -3.9257
  889MOL0     H19984   5.520   8.466   9.494  0.4010 -0.9232 -0.8277
  889MOL0     H19985   5.455   8.379   9.781 -4.5234  0.4805  0.4826
  889MOL0     H19986   5.489   8.261   9.658  0.1380  0.1169 -0.4473
  889MOL0     H19987   5.253   8.453   9.663 -0.4433  0.1124 -2.6955
  889MOL0     H19988   5.275   8.352   9.528 -2.7835 -1.8045  0.3192
  889MOL0     H19989   5.245   8.278   9.819  3.4720  1.7942 -1.7555
  889MOL0     H19990   5.234   8.149   9.694 -1.5361 -0.5745  0.7057
  889MOL0     H19991   5.043   8.376   9.749 -0.7082 -1.0534 -0.3526
  889MOL0     H19992   5.054   8.305   9.589  0.2930  0.3980 -0.8560
  889MOL0     H19993   4.995   8.148   9.847 -0.3633  1.8615 -0.4679
  889MOL0     H19994   5.006   8.083   9.674 -4.0374 -0.5435 -1.6065
  889MOL0     H19995   4.841   8.174   9.582  1.2021  1.0619 -0.6712
  889MOL0     H19996   4.817   8.298   9.709 -2.3201 -0.5158  1.7799
  889MOL0     H19997   5.833   8.630   9.351  1.3575  0.8481  0.0958
  889MOL0     H19998   6.030   8.534   9.277  1.4758 -0.4639  0.3659
  889MOL0     H19999   6.489   8.556   9.189 -2.1152 -0.0238 -0.1633
  889MOL0     H20000   6.703   8.458   9.119  0.0021 -3.4110 -2.7110
  889MOL0     H20001   5.401   7.952   9.062 -0.6980  1.8999 -0.6262
  889MOL0     H20002   5.205   7.802   9.120  1.7034  1.1682 -1.7554
  889MOL0     H20003   4.735   7.968   9.414  1.6766 -0.6157 -1.7467
  889MOL0     H20004   4.519   7.855   9.420  2.4349  3.3929 -0.3201
  889MOL0     H20005   4.525   7.424   9.485 -1.0857  0.9566  0.2794
  889MOL0     H20006   4.351   7.458   9.453  0.9620 -0.7626  3.8430
  889MOL0     H20007   4.554   7.383   9.237  0.0225  4.5355  0.2224
  889MOL0     H20008   4.405   7.469   9.207  0.2970  1.7391  0.2202
  889MOL0     H20009   4.291   7.279   9.347 -0.5138 -3.7514 -1.0778
  889MOL0     H20010   4.432   7.185   9.304  0.5804  0.1615 -0.0857
  889MOL0     H20011   4.221   7.286   9.132 -1.6487 -1.6562 -0.7530
  889MOL0     H20012   4.277   7.130   9.169 -0.1743  0.8337  2.2931
  889MOL0     H20013   4.485   7.180   8.830 -0.9787 -2.5176  0.9674
  889MOL0     H20014   4.724   7.483   9.351 -0.1607  1.2373 -3.5262
  889MOL0     H20015   4.937   7.584   9.353  0.2835  1.3800 -1.9851
  890MOL0     O20016   1.174   2.821   9.972  0.1300  0.4904 -0.5329
  890MOL0     C20017   1.154   2.773   9.865  0.1531  0.0388  0.1451
  890MOL0     O20018   1.174   2.645   9.838  0.1849 -0.3958 -0.4636
  890MOL0     C20019   1.193   2.555   9.938  0.9690  0.7415 -0.4256
  890MOL0     C20020   1.102   2.445   9.955  0.2031 -0.3485 -0.4641
  890MOL0     C20021   1.111   2.344  10.050  0.3038  0.2360 -1.5640
  890MOL0     C20022   1.221   2.351  10.143 -0.6564 -0.4520  0.0033
  890MOL0     O20023   1.231   2.247  10.237  0.6831  0.2074  0.2455
  890MOL0     C20024   1.345   2.158  10.230  1.0286 -1.3154  0.7745
  890MOL0     C20025   1.337   2.041  10.328 -0.0450 -0.5724  0.0261
  890MOL0     C20026   1.421   2.055  10.454 -0.1199  0.3206 -0.0991
  890MOL0     C20027   1.359   2.125  10.574 -0.3004  0.5971  0.2933
  890MOL0     C20028   1.467   2.150  10.681  0.1057  0.5712 -0.7691
  890MOL0     C20029   1.412   2.221  10.802 -0.3845 -0.9506  0.3711
  890MOL0     C20030   1.348   2.129  10.907  0.3497 -0.0146  0.6165
  890MOL0     C20031   1.378   2.172  11.056 -0.1125 -0.5232  0.1940
  890MOL0     N20032   1.304   2.080  11.141  0.0979 -0.5582  0.0381
  890MOL0     C20033   1.174   2.098  11.196  0.1686 -0.2987 -0.5113
  890MOL0     C20034   1.149   1.991  11.269 -0.4148 -0.7740 -0.1346
  890MOL0     C20035   1.025   1.949  11.345  0.0423  0.2888  0.7710
  890MOL0     C20036   0.894   1.989  11.272 -0.5062 -0.4988  0.8417
  890MOL0     C20037   0.780   1.928  11.356 -0.2856 -0.1790 -0.5271
  890MOL0     C20038   0.641   1.930  11.313  0.6030 -0.4033  0.4286
  890MOL0     O20039   0.596   2.061  11.351 -0.1466 -0.3721  0.0448
  890MOL0     C20040   0.469   2.106  11.321 -0.7491  0.9505  0.1593
  890MOL0     C20041   0.371   2.020  11.288  0.1681 -1.1462  0.3764
  890MOL0     C20042   0.236   2.062  11.284 -0.6236  0.2308  0.7947
  890MOL0     C20043   0.126   1.958  11.265  0.0477  0.7328  0.4018
  890MOL0     C20044   0.221   2.204  11.297  0.4121 -0.1682 -0.8875
  890MOL0     C20045   0.085   2.267  11.291  0.3640  0.2481  0.1563
  890MOL0     O20046   0.087   2.400  11.249  0.3581  0.5605 -0.5321
  890MOL0     C20047  -0.033   2.470  11.268  0.2296  0.7477  0.1210
  890MOL0     C20048  -0.113   2.499  11.155 -0.5451  0.1353 -0.8936
  890MOL0     C20049  -0.232   2.570  11.178  0.3951  0.1665  0.3390
  890MOL0     C20050  -0.279   2.611  11.300 -0.4887  0.5600 -0.3891
  890MOL0     O20051  -0.398   2.692  11.301 -0.2833 -0.3926 -0.3325
  890MOL0     C20052  -0.420   2.774  11.423  0.6405 -0.0111  0.5026
  890MOL0     C20053  -0.550   2.858  11.399 -0.5094  0.0992  0.6087
  890MOL0     C20054  -0.686   2.784  11.441  0.1430 -0.3022  0.1220
  890MOL0     C20055  -0.810   2.873  11.413  0.3725  0.6703  0.4582
  890MOL0     C20056  -0.940   2.798  11.444  0.1276 -0.3895  0.8042
  890MOL0     C20057  -1.060   2.849  11.371  0.4689 -0.0663 -0.0824
  890MOL0     C20058  -1.076   2.998  11.382 -0.6127 -0.4075 -0.0830
  890MOL0     C20059  -1.095   3.051  11.526  0.4055  0.4018 -0.0601
  890MOL0    Cl20060  -1.254   2.982  11.567 -0.1447 -0.2339  0.0410
  890MOL0     C20061  -0.200   2.574  11.422 -0.1739  0.5572  0.9342
  890MOL0     C20062  -0.078   2.511  11.402  0.1440  0.3650  0.2343
  890MOL0     O20063  -0.025   2.207  11.319 -0.4099  0.0158  0.6214
  890MOL0     C20064   0.329   2.290  11.320 -0.5237 -0.7675  0.1044
  890MOL0     C20065   0.456   2.241  11.343 -0.8520  0.6120 -0.6735
  890MOL0     N20066   1.259   1.908  11.261 -0.4382  0.5170 -0.0863
  890MOL0     N20067   1.351   1.958  11.186 -0.3528  0.0422 -0.0555
  890MOL0     C20068   1.320   2.450  10.125 -0.4547  0.4659 -0.5148
  890MOL0     C20069   1.308   2.544  10.029 -0.0284  0.2609 -0.5804
  890MOL0     C20070   1.111   2.873   9.751 -0.0824 -0.1141 -0.0595
  890MOL0     C20071   1.051   2.817   9.647  0.6912  0.3045 -0.0990
  890MOL0     C20072   1.001   2.887   9.541 -0.3952 -0.1370 -0.4022
  890MOL0     C20073   1.012   3.027   9.535  0.0310  0.1634 -0.2878
  890MOL0     O20074   0.963   3.096   9.433 -0.4578  0.3764  0.8242
  890MOL0     C20075   0.965   3.238   9.424  0.6980 -0.1750 -0.4675
  890MOL0     C20076   0.911   3.289   9.290  0.1355 -0.1069 -0.0107
  890MOL0     C20077   0.948   3.435   9.251 -0.9295  0.4938 -0.4304
  890MOL0     C20078   0.939   3.538   9.373  0.0705  0.0600  0.1938
  890MOL0     C20079   0.979   3.672   9.312  1.0282 -0.9054 -0.4380
  890MOL0     C20080   1.030   3.780   9.276  0.8676  0.0603 -0.4339
  890MOL0     C20081   1.081   3.091   9.644  0.2038 -0.1798 -1.1135
  890MOL0     C20082   1.125   3.015   9.749 -0.0074 -0.4054 -0.8848
  890MOL0     H20083   1.019   2.446   9.886 -0.4363  0.3416  0.2889
  890MOL0     H20084   1.027   2.275  10.047 -2.1104  2.8680  0.3408
  890MOL0     H20085   1.344   2.113  10.131  1.5082 -2.4231  1.2570
  890MOL0     H20086   1.439   2.212  10.243  1.0544 -0.5518 -1.9581
  890MOL0     H20087   1.236   2.026  10.368  1.3892 -2.1614  3.5578
  890MOL0     H20088   1.370   1.948  10.281  1.7065  0.6364 -1.2799
  890MOL0     H20089   1.460   1.956  10.480  1.3595  0.4657 -1.6227
  890MOL0     H20090   1.517   2.098  10.425 -0.9616  1.6943 -0.9114
  890MOL0     H20091   1.325   2.224  10.543 -0.5266  0.2410 -0.6169
  890MOL0     H20092   1.274   2.067  10.613 -1.3897  1.7762 -0.2650
  890MOL0     H20093   1.505   2.051  10.707  1.4258  1.2839  0.0989
  890MOL0     H20094   1.540   2.216  10.634  0.6079 -0.9097 -2.1480
  890MOL0     H20095   1.490   2.281  10.849  3.3869 -1.0743 -4.8329
  890MOL0     H20096   1.343   2.292  10.756  1.4036  0.8738  0.3787
  890MOL0     H20097   1.241   2.138  10.885  0.7159 -2.4613 -3.1272
  890MOL0     H20098   1.383   2.026  10.894  4.1217  1.4890 -3.2190
  890MOL0     H20099   1.335   2.273  11.051  0.0156 -0.4071  1.2523
  890MOL0     H20100   1.479   2.184  11.095 -0.1361 -4.3112  1.8266
  890MOL0     H20101   1.107   2.182  11.183 -0.3593 -0.3114  1.7440
  890MOL0     H20102   1.028   1.841  11.330 -1.2312  0.2575  0.6312
  890MOL0     H20103   1.025   1.982  11.450  1.9498 -0.9177  1.1804
  890MOL0     H20104   0.877   1.953  11.170 -4.3770 -0.3158  1.2459
  890MOL0     H20105   0.870   2.096  11.266 -3.1235 -1.0759 -0.7201
  890MOL0     H20106   0.789   1.985  11.449  3.5226 -2.8169  1.0014
  890MOL0     H20107   0.798   1.824  11.383 -1.0690 -0.1561  0.1060
  890MOL0     H20108   0.594   1.850  11.372  0.4418 -2.1279 -1.8944
  890MOL0     H20109   0.627   1.909  11.207 -0.7722 -0.9771  0.7058
  890MOL0     H20110   0.373   1.912  11.279 -0.1172 -1.5872  4.0712
  890MOL0     H20111   0.068   1.928  11.353 -0.2237 -0.1833 -0.0759
  890MOL0     H20112   0.048   2.017  11.216 -0.3194  0.3001  0.4486
  890MOL0     H20113   0.156   1.869  11.209 -1.9503 -0.6648  1.4095
  890MOL0     H20114  -0.076   2.470  11.058  0.7123 -3.7440  0.5845
  890MOL0     H20115  -0.302   2.590  11.097  2.1037 -0.6509 -1.4372
  890MOL0     H20116  -0.417   2.721  11.519  0.4376  0.2147  0.6348
  890MOL0     H20117  -0.341   2.850  11.434 -0.8554  1.5301  1.0602
  890MOL0     H20118  -0.553   2.945  11.465 -4.4627 -0.4536  1.4366
  890MOL0     H20119  -0.556   2.880  11.292  2.2962  0.4110  0.4630
  890MOL0     H20120  -0.680   2.755  11.546 -0.4088 -1.3141 -0.1115
  890MOL0     H20121  -0.700   2.694  11.381 -0.2542 -0.5749  0.6130
  890MOL0     H20122  -0.803   2.953  11.487 -0.2055 -1.2149  2.6984
  890MOL0     H20123  -0.802   2.903  11.309 -3.1728 -2.1698 -0.8433
  890MOL0     H20124  -0.946   2.803  11.553 -3.0564 -1.5305  0.7785
  890MOL0     H20125  -0.945   2.693  11.412 -2.7316 -0.1176  0.0745
  890MOL0     H20126  -1.069   2.824  11.265 -0.9714  1.5815 -0.4054
  890MOL0     H20127  -1.153   2.800  11.403  0.8849 -2.2523 -1.9624
  890MOL0     H20128  -1.165   3.030  11.327 -1.3666 -0.0553  1.2890
  890MOL0     H20129  -0.984   3.048  11.350  0.1531 -1.0040  1.1407
  890MOL0     H20130  -1.087   3.160  11.530  0.6554  0.3848 -0.0555
  890MOL0     H20131  -1.023   3.016  11.601  1.7324  0.6292 -1.1972
  890MOL0     H20132  -0.219   2.609  11.523 -0.9444  0.3586  0.8673
  890MOL0     H20133   0.002   2.498  11.475  2.4733 -0.6936 -2.2968
  890MOL0     H20134   0.332   2.395  11.344  2.0257  0.0673 -3.1561
  890MOL0     H20135   0.551   2.291  11.361 -0.4307  0.3517 -1.9982
  890MOL0     H20136   1.406   2.455  10.191 -0.0048  2.7934 -1.1722
  890MOL0     H20137   1.384   2.622  10.023  0.2919 -0.1275 -1.9737
  890MOL0     H20138   1.030   2.710   9.646 -1.0984  0.5902 -2.4773
  890MOL0     H20139   0.950   2.835   9.460 -2.3326 -0.6711  1.0699
  890MOL0     H20140   0.930   3.290   9.514  0.0367 -0.8124 -0.3497
  890MOL0     H20141   1.070   3.269   9.415  1.5399 -2.9843 -1.3041
  890MOL0     H20142   0.803   3.279   9.273  0.6675 -0.8137 -3.9921
  890MOL0     H20143   0.968   3.232   9.216  0.6552  1.1588 -0.6062
  890MOL0     H20144   0.882   3.467   9.170 -1.0189  0.9436 -0.1814
  890MOL0     H20145   1.049   3.431   9.209 -0.6941 -0.1318  0.1724
  890MOL0     H20146   0.997   3.502   9.458 -0.8602 -2.6179 -0.2180
  890MOL0     H20147   0.837   3.550   9.412  0.1814  0.4990  0.3613
  890MOL0     H20148   1.048   3.878   9.236 -1.5763  0.2840 -1.1438
  890MOL0     H20149   1.091   3.199   9.656 -0.1184 -0.4392  2.5660
  890MOL0     H20150   1.171   3.068   9.832  1.4261 -2.3680 -0.3505
  891MOL0     O20151   6.364   2.008   5.797  0.5813 -0.1251  0.1475
  891MOL0     C20152   6.447   2.050   5.869 -0.0646 -0.3764  0.5339
  891MOL0     O20153   6.424   2.097   5.990  0.4870  0.1244 -0.4926
  891MOL0     C20154   6.299   2.079   6.052 -0.5711 -0.2077 -0.2460
  891MOL0     C20155   6.212   1.969   6.034 -0.4084  0.6455  0.1625
  891MOL0     C20156   6.093   1.959   6.105  0.5222  0.9222  0.7571
  891MOL0     C20157   6.043   2.063   6.178  0.8260  0.5715 -0.0925
  891MOL0     O20158   5.918   2.058   6.233  0.1587 -0.3381  0.6057
  891MOL0     C20159   5.826   2.058   6.124 -0.5133 -0.2498 -1.2051
  891MOL0     C20160   5.687   2.038   6.176  0.0069  0.1976  0.6823
  891MOL0     C20161   5.647   2.162   6.249 -0.7819 -1.0176 -0.3538
  891MOL0     C20162   5.516   2.228   6.192 -0.7246 -0.6823  0.1649
  891MOL0     C20163   5.483   2.373   6.245 -0.2129 -0.7867  0.8872
  891MOL0     C20164   5.451   2.371   6.390  0.6719  0.1242 -0.0009
  891MOL0     C20165   5.302   2.388   6.424 -0.0192  0.4326  0.1588
  891MOL0     C20166   5.304   2.383   6.578  0.4251 -0.2939 -0.3726
  891MOL0     N20167   5.171   2.362   6.633  0.1621  0.6280  0.0372
  891MOL0     C20168   5.115   2.240   6.663  0.3851  0.2064  0.0641
  891MOL0     C20169   4.993   2.269   6.718  0.8036  0.3548  0.8491
  891MOL0     C20170   4.882   2.170   6.748  0.5606 -0.8259 -0.2550
  891MOL0     C20171   4.828   2.208   6.888  1.0290 -0.5560 -0.4559
  891MOL0     C20172   4.921   2.194   7.009  0.0993 -0.6477  0.1404
  891MOL0     C20173   4.992   2.332   7.045 -0.1129  0.1747 -0.5740
  891MOL0     O20174   4.971   2.368   7.190 -0.9928  0.5978 -0.1448
  891MOL0     C20175   4.989   2.489   7.247 -0.7566  0.4801  0.1566
  891MOL0     C20176   5.000   2.495   7.381  1.1360  0.2223 -0.0690
  891MOL0     C20177   5.016   2.618   7.451 -0.1780 -0.0768 -0.2478
  891MOL0     C20178   5.026   2.599   7.603  0.5243  0.9495 -0.5772
  891MOL0     C20179   5.003   2.741   7.380 -0.0545 -0.4415 -0.3133
  891MOL0     C20180   4.988   2.874   7.447 -0.8714  0.1746 -0.3111
  891MOL0     O20181   4.954   2.980   7.367  0.3502 -0.7490 -0.2461
  891MOL0     C20182   4.957   3.103   7.425 -0.0471 -0.0661 -0.3175
  891MOL0     C20183   4.833   3.175   7.431 -0.1025  0.2922  0.5100
  891MOL0     C20184   4.831   3.302   7.482  0.0622 -0.0776 -0.0688
  891MOL0     C20185   4.946   3.350   7.551 -0.7533 -0.9784 -0.7999
  891MOL0     O20186   4.931   3.473   7.611  0.6852 -0.9030 -0.4486
  891MOL0     C20187   5.041   3.545   7.677  0.8367  1.0178 -0.2044
  891MOL0     C20188   5.136   3.593   7.568  0.1864 -0.9835  0.5140
  891MOL0     C20189   5.058   3.699   7.488  0.0853 -0.6214 -0.3448
  891MOL0     C20190   5.137   3.750   7.361  0.5904  0.5474 -1.0537
  891MOL0     C20191   5.072   3.873   7.304 -0.1161 -0.1658  0.2714
  891MOL0     C20192   5.137   3.941   7.184  0.4219 -0.1081 -0.5506
  891MOL0     C20193   5.089   3.862   7.057 -0.2219  0.1243  1.3559
  891MOL0     C20194   5.116   3.923   6.915 -0.4280  0.7381  0.7346
  891MOL0    Cl20195   5.288   3.967   6.909 -0.4080  0.2021 -0.1735
  891MOL0     C20196   5.070   3.278   7.543 -0.2680 -0.7036 -0.0748
  891MOL0     C20197   5.065   3.155   7.483 -0.4075  0.4844 -0.0434
  891MOL0     O20198   4.987   2.879   7.573 -0.1413 -0.3087 -0.8413
  891MOL0     C20199   4.990   2.730   7.239 -0.1223  0.2862 -0.2175
  891MOL0     C20200   4.997   2.599   7.176 -0.1394  0.4981 -0.6885
  891MOL0     N20201   4.976   2.405   6.711 -0.3847  0.6664 -0.4505
  891MOL0     N20202   5.085   2.462   6.672 -0.2308 -0.0135 -0.4984
  891MOL0     C20203   6.128   2.178   6.206 -0.2847 -0.1387 -0.5481
  891MOL0     C20204   6.258   2.175   6.146  0.0788  0.1046 -0.4970
  891MOL0     C20205   6.588   2.064   5.817  0.4240  0.5898  0.2450
  891MOL0     C20206   6.653   1.961   5.752  0.1269 -0.8347  0.2153
  891MOL0     C20207   6.789   1.980   5.715 -0.1369  0.2365  0.3069
  891MOL0     C20208   6.855   2.099   5.732 -0.8523 -0.2364 -0.0681
  891MOL0     O20209   6.976   2.119   5.683 -0.2707  0.0329  0.3087
  891MOL0     C20210   6.978   2.164   5.546  0.9445 -1.2376  0.0590
  891MOL0     C20211   7.110   2.105   5.486 -0.0538 -1.2454 -0.0252
  891MOL0     C20212   7.133   2.129   5.343 -0.1590 -0.5853  0.1130
  891MOL0     C20213   7.205   2.265   5.312 -1.3247  0.0636  0.8089
  891MOL0     C20214   7.345   2.271   5.346 -0.3531  0.8814 -0.2904
  891MOL0     C20215   7.456   2.250   5.382  0.4254 -0.1225 -1.5925
  891MOL0     C20216   6.793   2.199   5.807  0.8748  0.3037 -0.1689
  891MOL0     C20217   6.666   2.183   5.847  0.3513  0.0297 -0.1390
  891MOL0     H20218   6.236   1.884   5.972 -0.9073  1.7468 -1.6137
  891MOL0     H20219   6.039   1.865   6.099 -0.5041  1.4611  1.2798
  891MOL0     H20220   5.827   2.154   6.071  2.5873  1.4010  1.4789
  891MOL0     H20221   5.840   1.981   6.048  0.1046 -1.8816  0.4804
  891MOL0     H20222   5.609   2.018   6.102  0.4390  2.2271 -0.3812
  891MOL0     H20223   5.684   1.957   6.249 -0.4431 -0.9535 -0.5651
  891MOL0     H20224   5.627   2.142   6.354  2.5632 -3.4000 -0.0238
  891MOL0     H20225   5.729   2.235   6.252 -0.8364 -0.9733  1.7070
  891MOL0     H20226   5.537   2.264   6.091 -0.8422  1.0324  0.7327
  891MOL0     H20227   5.423   2.172   6.200 -1.4445  0.4113 -0.3530
  891MOL0     H20228   5.568   2.438   6.225 -4.6341  4.7119 -3.7280
  891MOL0     H20229   5.408   2.419   6.179  2.3579  0.4164 -1.4015
  891MOL0     H20230   5.489   2.281   6.438 -0.9916  0.1043  1.3935
  891MOL0     H20231   5.499   2.460   6.434 -1.2261  0.5436  1.3717
  891MOL0     H20232   5.262   2.482   6.383  0.5658  0.6376  0.0513
  891MOL0     H20233   5.252   2.297   6.390  4.6235 -3.3766  2.3468
  891MOL0     H20234   5.354   2.477   6.602 -0.0600 -0.0674 -0.2364
  891MOL0     H20235   5.367   2.300   6.611 -0.8219 -1.5190 -0.9698
  891MOL0     H20236   5.165   2.145   6.646  2.5928  1.2993  0.1662
  891MOL0     H20237   4.801   2.183   6.676 -1.0075  0.6771  1.6711
  891MOL0     H20238   4.925   2.070   6.762  0.9236 -0.5310  0.8717
  891MOL0     H20239   4.745   2.137   6.901 -1.3282  1.9719 -0.8547
  891MOL0     H20240   4.771   2.301   6.884 -1.6461 -2.1162 -1.5573
  891MOL0     H20241   5.002   2.123   6.991 -0.3626 -1.7183  2.0583
  891MOL0     H20242   4.852   2.165   7.088 -1.9425 -1.7649 -1.9352
  891MOL0     H20243   4.942   2.408   6.984  0.7813  0.0214 -1.5310
  891MOL0     H20244   5.100   2.327   7.025 -0.0204 -0.5958  0.0795
  891MOL0     H20245   5.006   2.395   7.423 -1.4060  0.3339  0.7231
  891MOL0     H20246   5.112   2.661   7.631 -2.1125  4.7876 -0.0509
  891MOL0     H20247   4.939   2.647   7.650 -0.0020  3.1045 -3.4475
  891MOL0     H20248   5.029   2.495   7.636  0.8749  1.1852  0.1375
  891MOL0     H20249   4.740   3.137   7.389 -1.5151  3.6404  0.3316
  891MOL0     H20250   4.739   3.358   7.490 -0.2716 -0.7991  1.8754
  891MOL0     H20251   5.010   3.638   7.725  1.0994  0.5538  0.8968
  891MOL0     H20252   5.087   3.474   7.747  0.3997  0.3334 -0.6027
  891MOL0     H20253   5.228   3.634   7.609  1.2204 -0.8632 -1.7570
  891MOL0     H20254   5.177   3.513   7.506  0.0959  0.2002 -1.1543
  891MOL0     H20255   5.054   3.786   7.554 -0.2096  0.1091 -1.3189
  891MOL0     H20256   4.959   3.660   7.462 -0.6308  0.4826  0.6348
  891MOL0     H20257   5.241   3.775   7.383 -0.0516  3.9412 -1.3326
  891MOL0     H20258   5.144   3.663   7.295  0.2243 -0.0471 -0.3258
  891MOL0     H20259   5.070   3.947   7.384  0.5834  1.1482 -0.8823
  891MOL0     H20260   4.964   3.869   7.284  0.3193 -1.7009 -2.2186
  891MOL0     H20261   5.100   4.043   7.195 -2.1199 -1.2628  4.8992
  891MOL0     H20262   5.246   3.941   7.190  0.6708  3.1347 -2.4515
  891MOL0     H20263   4.984   3.837   7.073 -0.6851  1.6564  0.8147
  891MOL0     H20264   5.147   3.769   7.051  0.6764  0.6809  1.3440
  891MOL0     H20265   5.043   4.002   6.894  0.1225  0.8941 -0.7669
  891MOL0     H20266   5.112   3.846   6.836  0.1902  3.5611 -2.2825
  891MOL0     H20267   5.168   3.308   7.577 -0.3356 -0.7702  0.1817
  891MOL0     H20268   5.167   3.123   7.467 -0.5686 -1.1632  1.8417
  891MOL0     H20269   4.979   2.812   7.169 -2.2320 -0.5633 -0.9462
  891MOL0     H20270   4.993   2.608   7.068 -2.7417 -0.9892 -0.8156
  891MOL0     H20271   6.100   2.248   6.284 -0.9067  2.4193 -2.9070
  891MOL0     H20272   6.330   2.251   6.173 -1.0533  1.5964 -1.5063
  891MOL0     H20273   6.608   1.866   5.727 -0.4014  0.4262 -4.5338
  891MOL0     H20274   6.849   1.903   5.668  0.9143  1.3521 -0.2113
  891MOL0     H20275   6.892   2.138   5.485 -0.0250 -2.0926  1.7291
  891MOL0     H20276   6.981   2.274   5.546  0.9352 -1.2350 -0.4060
  891MOL0     H20277   7.102   1.997   5.496  3.6216 -1.7329 -0.9014
  891MOL0     H20278   7.203   2.133   5.537 -0.1587  4.7313 -2.2654
  891MOL0     H20279   7.038   2.120   5.288  0.4964  0.0838 -1.1598
  891MOL0     H20280   7.196   2.052   5.298 -1.2197 -2.3120  1.4124
  891MOL0     H20281   7.145   2.343   5.360 -3.1453 -1.8728  1.8705
  891MOL0     H20282   7.194   2.290   5.206  1.5204 -2.3133 -0.1780
  891MOL0     H20283   7.560   2.229   5.398 -0.3742 -3.4991  0.0945
  891MOL0     H20284   6.849   2.291   5.819 -0.1260  0.8904  0.0920
  891MOL0     H20285   6.621   2.247   5.922  0.4436  0.2279 -0.2518
  892MOL0     O20286   5.082  10.520  10.586  0.0992 -0.4429 -1.1316
  892MOL0     C20287   5.063  10.516  10.467 -0.5821 -0.6100  0.1102
  892MOL0     O20288   5.161  10.503  10.371  0.5036 -0.5262  0.8355
  892MOL0     C20289   5.292  10.530  10.400 -0.9552 -0.0698  0.7457
  892MOL0     C20290   5.400  10.466  10.331 -0.9193  0.6969  0.1128
  892MOL0     C20291   5.527  10.509  10.350  0.3105  0.3425 -0.0247
  892MOL0     C20292   5.559  10.621  10.418  0.3302 -0.0884 -0.3518
  892MOL0     O20293   5.691  10.647  10.439 -0.7384  0.0149 -0.0766
  892MOL0     C20294   5.742  10.769  10.503  0.2540 -0.7144 -0.6183
  892MOL0     C20295   5.889  10.745  10.544  0.7751  0.3600 -0.3882
  892MOL0     C20296   5.981  10.731  10.426 -0.1737 -0.6287 -0.2331
  892MOL0     C20297   6.125  10.760  10.464 -0.3608  0.1073  0.2856
  892MOL0     C20298   6.215  10.755  10.337  0.4984  0.2601  0.4583
  892MOL0     C20299   6.355  10.703  10.377  0.6089 -0.2440  0.0683
  892MOL0     C20300   6.356  10.547  10.389  0.1096  0.5884  0.3974
  892MOL0     C20301   6.501  10.501  10.383 -0.1185  0.4879 -0.1905
  892MOL0     N20302   6.516  10.362  10.433  0.3453  0.6383 -0.2689
  892MOL0     C20303   6.555  10.254  10.352  0.1328 -0.7680 -0.2445
  892MOL0     C20304   6.583  10.149  10.435 -0.2446  0.3755  1.0687
  892MOL0     C20305   6.620  10.005  10.396 -0.5043 -0.2055  0.6685
  892MOL0     C20306   6.739  10.007  10.297  0.1902  1.4957 -0.6428
  892MOL0     C20307   6.764   9.870  10.225 -0.0129  0.0841 -0.0626
  892MOL0     C20308   6.641   9.820  10.154 -0.0084  0.5721 -0.8617
  892MOL0     O20309   6.656   9.700  10.083 -0.2659 -0.3657  0.9551
  892MOL0     C20310   6.770   9.706   9.999 -0.1474  0.0948 -0.1252
  892MOL0     C20311   6.876   9.624  10.029 -0.0414  0.0815  0.6917
  892MOL0     C20312   6.984   9.613   9.939 -0.2947 -0.0274 -0.3364
  892MOL0     C20313   7.101   9.522   9.981 -0.1345  0.1142  0.7219
  892MOL0     C20314   6.985   9.685   9.809 -0.2734 -0.1904  0.2171
  892MOL0     C20315   7.102   9.682   9.711  1.3281 -0.2043 -0.0332
  892MOL0     O20316   7.211   9.608   9.733  0.6921  0.9220  0.1945
  892MOL0     C20317   7.304   9.587   9.639 -0.0052  0.9223 -0.2071
  892MOL0     C20318   7.440   9.619   9.662  0.2828 -1.0583  0.8002
  892MOL0     C20319   7.530   9.577   9.558  0.3960  0.0910  0.0313
  892MOL0     C20320   7.488   9.510   9.445 -0.1235  0.3597 -0.3842
  892MOL0     O20321   7.591   9.467   9.360  0.1701  0.0221 -0.2995
  892MOL0     C20322   7.559   9.376   9.257 -0.6695  0.1889  0.3776
  892MOL0     C20323   7.692   9.323   9.207  0.5434 -0.0466  0.3192
  892MOL0     C20324   7.775   9.258   9.322 -0.5621  0.8074  0.4080
  892MOL0     C20325   7.914   9.228   9.268 -0.5892  0.0461  0.1885
  892MOL0     C20326   7.926   9.124   9.167  0.2902 -1.0165  0.1194
  892MOL0     C20327   8.052   9.138   9.083  0.2565 -0.7628 -0.1589
  892MOL0     C20328   8.054   9.020   8.975 -1.0377 -0.5741  0.3444
  892MOL0     C20329   8.195   8.971   8.934  1.1090  0.0088 -0.5713
  892MOL0    Cl20330   8.314   9.095   8.892  0.2293 -0.1300  0.2952
  892MOL0     C20331   7.354   9.489   9.419  0.6510 -0.2107 -0.2526
  892MOL0     C20332   7.263   9.524   9.521  0.6129  0.0304 -0.3045
  892MOL0     O20333   7.077   9.751   9.613  0.1560  0.2466 -0.3215
  892MOL0     C20334   6.861   9.755   9.778 -0.1263 -0.0424 -0.4282
  892MOL0     C20335   6.758   9.762   9.875 -1.0829 -0.5307  0.9889
  892MOL0     N20336   6.569  10.204  10.566 -0.1523  0.3057  0.5116
  892MOL0     N20337   6.526  10.326  10.561  0.6394  0.5395 -0.3680
  892MOL0     C20338   5.456  10.689  10.490 -0.4126  0.1013 -0.9322
  892MOL0     C20339   5.328  10.636  10.484 -0.2410 -1.2606  0.0465
  892MOL0     C20340   4.927  10.509  10.423  1.6741 -0.8512 -0.3292
  892MOL0     C20341   4.898  10.511  10.282 -0.1182 -0.7964 -1.1435
  892MOL0     C20342   4.762  10.517  10.240 -0.5369 -0.2159  0.8585
  892MOL0     C20343   4.657  10.508  10.332 -0.0331 -0.6774 -0.8699
  892MOL0     O20344   4.524  10.506  10.295 -0.0689 -0.0452 -0.6580
  892MOL0     C20345   4.483  10.514  10.159  0.0914  0.1729  0.3994
  892MOL0     C20346   4.329  10.523  10.154  0.5471 -0.8102  0.2256
  892MOL0     C20347   4.251  10.386  10.173  0.2032  0.2576 -0.4269
  892MOL0     C20348   4.329  10.287  10.270  0.3413 -0.7135 -0.1086
  892MOL0     C20349   4.256  10.159  10.288 -0.1706  0.2018 -1.1740
  892MOL0     C20350   4.205  10.045  10.288 -0.4665 -0.4186 -0.4986
  892MOL0     C20351   4.689  10.493  10.475  0.8217 -0.8787  0.4290
  892MOL0     C20352   4.824  10.502  10.515  0.5146  0.1931  0.0897
  892MOL0     H20353   5.377  10.379  10.271 -1.7463  0.4466  0.7678
  892MOL0     H20354   5.606  10.448  10.308 -3.3110 -2.3631 -3.7373
  892MOL0     H20355   5.731  10.855  10.436  0.2472  0.9297  1.4092
  892MOL0     H20356   5.694  10.780  10.600 -0.2706 -1.9885 -0.7195
  892MOL0     H20357   5.915  10.831  10.607 -0.8655 -0.0863  0.9704
  892MOL0     H20358   5.893  10.657  10.609  0.4189 -0.0238 -0.8798
  892MOL0     H20359   5.976  10.634  10.376 -0.0969  0.9622 -3.6413
  892MOL0     H20360   5.948  10.800  10.347  3.3954  1.6866  0.0748
  892MOL0     H20361   6.131  10.859  10.510 -3.2197  0.0219  1.0146
  892MOL0     H20362   6.150  10.686  10.540  0.0934  0.6562  0.6741
  892MOL0     H20363   6.174  10.700  10.252  2.1985 -1.4521  0.6699
  892MOL0     H20364   6.231  10.855  10.297  0.2651  0.6702  1.3658
  892MOL0     H20365   6.417  10.734  10.292 -1.9226 -0.8042 -2.1230
  892MOL0     H20366   6.392  10.749  10.469  1.8568 -1.5659  0.2615
  892MOL0     H20367   6.315  10.509  10.482 -4.0029 -1.3022 -1.9249
  892MOL0     H20368   6.302  10.502  10.305 -1.4877  1.5720  0.8534
  892MOL0     H20369   6.574  10.563  10.436  0.8352 -0.0712 -0.8216
  892MOL0     H20370   6.518  10.501  10.275  1.0534 -2.6657 -0.0965
  892MOL0     H20371   6.551  10.250  10.243 -1.3663 -0.0258 -0.2455
  892MOL0     H20372   6.641   9.956  10.491 -1.0228 -2.2875 -0.2332
  892MOL0     H20373   6.534   9.955  10.351  0.5806 -1.3477 -0.2373
  892MOL0     H20374   6.830  10.047  10.342  0.6910  2.0332 -2.0738
  892MOL0     H20375   6.724  10.078  10.215  3.0469  2.4070 -0.4755
  892MOL0     H20376   6.797   9.793  10.295 -0.8402 -0.4439 -0.2479
  892MOL0     H20377   6.840   9.888  10.148 -0.3810 -0.8257 -0.6506
  892MOL0     H20378   6.604   9.906  10.097  1.3210  2.0044  0.3174
  892MOL0     H20379   6.569   9.792  10.231  4.7845 -0.7633  3.7117
  892MOL0     H20380   6.880   9.582  10.129 -1.4330 -1.5926  0.0963
  892MOL0     H20381   7.107   9.434   9.917  1.0870 -0.0532  1.0400
  892MOL0     H20382   7.194   9.580   9.988 -0.3448  0.2928  2.3094
  892MOL0     H20383   7.088   9.492  10.085  0.1534  0.0812  0.7501
  892MOL0     H20384   7.459   9.676   9.752  0.6106 -1.7500  1.1759
  892MOL0     H20385   7.635   9.583   9.583  0.1344  1.4177  0.8896
  892MOL0     H20386   7.505   9.293   9.305  1.2138 -1.8788 -0.8657
  892MOL0     H20387   7.494   9.421   9.182 -0.7130 -1.8864 -0.9131
  892MOL0     H20388   7.663   9.257   9.125 -0.1041  0.9393 -0.2639
  892MOL0     H20389   7.748   9.409   9.168  1.3468 -1.1795 -1.1002
  892MOL0     H20390   7.732   9.164   9.358  1.9763 -0.8111 -0.4935
  892MOL0     H20391   7.781   9.327   9.406 -2.0094  0.5943  0.7011
  892MOL0     H20392   7.944   9.328   9.236  0.8809 -0.3500  0.2338
  892MOL0     H20393   7.977   9.186   9.348 -3.9033 -2.8186  1.5712
  892MOL0     H20394   7.847   9.137   9.092  2.4462 -3.7511 -2.9395
  892MOL0     H20395   7.921   9.022   9.208 -1.3407 -2.8490 -4.0566
  892MOL0     H20396   8.076   9.236   9.041  1.9078 -1.4934 -1.0075
  892MOL0     H20397   8.136   9.127   9.152  2.4223  0.7798 -2.3651
  892MOL0     H20398   8.003   9.061   8.887  1.7611  1.5574 -0.4626
  892MOL0     H20399   7.991   8.937   9.008 -2.8027  1.3684  2.1395
  892MOL0     H20400   8.173   8.889   8.865 -5.8747 -0.4926  1.4993
  892MOL0     H20401   8.233   8.916   9.021 -1.0221 -2.4583 -1.0740
  892MOL0     H20402   7.319   9.455   9.322  2.0705 -3.8762  0.3389
  892MOL0     H20403   7.156   9.521   9.502 -0.1119 -0.0698  3.0416
  892MOL0     H20404   6.845   9.798   9.680  0.9747 -1.4203 -1.2490
  892MOL0     H20405   6.666   9.800   9.832 -1.0728 -2.7403 -1.2787
  892MOL0     H20406   5.471  10.776  10.553 -3.3483 -1.3004  2.0256
  892MOL0     H20407   5.251  10.694  10.535 -0.5263 -0.8383 -0.8510
  892MOL0     H20408   4.977  10.518  10.208 -1.1954  2.6581 -2.1814
  892MOL0     H20409   4.757  10.511  10.132 -1.0416 -3.6886  0.9823
  892MOL0     H20410   4.538  10.602  10.122  1.1553 -2.2604 -4.6693
  892MOL0     H20411   4.507  10.419  10.111 -1.2814  0.4632 -0.9592
  892MOL0     H20412   4.296  10.561  10.057  0.8040 -2.5930 -0.5842
  892MOL0     H20413   4.297  10.592  10.233  3.1395  1.4038 -0.5047
  892MOL0     H20414   4.246  10.329  10.080  0.4018 -1.2976  0.4721
  892MOL0     H20415   4.151  10.405  10.212 -0.7010 -1.3156 -1.8299
  892MOL0     H20416   4.328  10.333  10.369 -3.2712  0.0325 -0.3340
  892MOL0     H20417   4.425  10.249  10.235 -0.5033 -0.5905 -2.8045
  892MOL0     H20418   4.169   9.944  10.288  4.0273 -2.2354 -0.0732
  892MOL0     H20419   4.614  10.477  10.551  1.2000 -0.5029  0.8876
  892MOL0     H20420   4.835  10.478  10.621  1.3781  2.2831  0.5164
  893MOL0     O20421   1.141   8.974   5.809  0.4951  0.1381  0.1532
  893MOL0     C20422   1.194   9.039   5.903  0.1149  1.0599 -0.0020
  893MOL0     O20423   1.140   9.057   6.021  0.5059 -0.6958 -0.6640
  893MOL0     C20424   1.010   9.005   6.042  0.0490  0.3730 -0.1698
  893MOL0     C20425   0.987   8.892   6.124  0.4020  0.7371 -0.4953
  893MOL0     C20426   0.868   8.819   6.137 -0.0555 -0.0921 -0.9635
  893MOL0     C20427   0.762   8.864   6.056 -0.4852  0.2498  0.5845
  893MOL0     O20428   0.648   8.790   6.050 -0.1256 -0.7521 -0.3221
  893MOL0     C20429   0.616   8.686   6.158  0.5176  0.1719  0.7417
  893MOL0     C20430   0.467   8.659   6.126  0.6140 -0.1985  0.5540
  893MOL0     C20431   0.442   8.533   6.194  0.4287  0.6260  0.7067
  893MOL0     C20432   0.376   8.538   6.340 -1.0503  0.0323 -0.3846
  893MOL0     C20433   0.310   8.404   6.359 -0.8676  0.7756 -0.1283
  893MOL0     C20434   0.240   8.387   6.494  0.6338 -0.1616 -0.2868
  893MOL0     C20435   0.181   8.245   6.511 -0.2038  0.1364 -0.4573
  893MOL0     C20436   0.213   8.198   6.653 -0.0470  1.0281 -0.4613
  893MOL0     N20437   0.147   8.072   6.688 -0.2386  0.3439  0.1762
  893MOL0     C20438   0.046   8.058   6.784  0.3029  0.8505 -0.3391
  893MOL0     C20439   0.052   7.927   6.818  0.7088 -0.3123 -0.6603
  893MOL0     C20440  -0.048   7.859   6.913  0.1070  0.3567 -1.0555
  893MOL0     C20441  -0.039   7.935   7.054  0.7897 -0.3731 -0.5522
  893MOL0     C20442  -0.145   7.873   7.158  0.3810  0.4208  0.1176
  893MOL0     C20443  -0.103   7.759   7.257  0.2170  0.1110  0.1930
  893MOL0     O20444  -0.011   7.804   7.354  0.0318 -0.6396  0.5122
  893MOL0     C20445   0.126   7.792   7.336 -0.0427 -0.3801  0.0876
  893MOL0     C20446   0.201   7.853   7.441  0.1455 -0.5000 -0.4998
  893MOL0     C20447   0.338   7.822   7.456  0.3789  0.1998  0.2874
  893MOL0     C20448   0.407   7.885   7.568 -0.0894  0.4629  0.4772
  893MOL0     C20449   0.397   7.745   7.353 -0.0990  0.2951 -0.1415
  893MOL0     C20450   0.540   7.702   7.366 -0.9164 -0.8715  0.4120
  893MOL0     O20451   0.559   7.571   7.334  0.4782 -0.3371 -0.5024
  893MOL0     C20452   0.688   7.550   7.289  0.9490  0.5636  0.6742
  893MOL0     C20453   0.807   7.529   7.358  0.1999 -0.1928  0.6994
  893MOL0     C20454   0.923   7.491   7.303  0.3300  0.9718 -0.7305
  893MOL0     C20455   0.926   7.455   7.167  0.5962  0.4133 -0.0950
  893MOL0     O20456   1.032   7.392   7.106 -0.0434  0.4120 -0.2227
  893MOL0     C20457   1.159   7.424   7.154  0.1881  0.2974  0.5615
  893MOL0     C20458   1.262   7.339   7.082 -0.3362  0.2263 -0.6978
  893MOL0     C20459   1.405   7.364   7.153 -0.4275 -0.4034  0.4727
  893MOL0     C20460   1.515   7.318   7.053  0.0074 -1.4594  0.3632
  893MOL0     C20461   1.647   7.366   7.117  0.6361 -0.1420  0.3944
  893MOL0     C20462   1.765   7.363   7.025  0.0498 -0.4202  0.2330
  893MOL0     C20463   1.899   7.412   7.091  0.0189 -0.3990 -0.4598
  893MOL0     C20464   2.021   7.358   7.027  0.8640 -0.0047 -0.2882
  893MOL0    Cl20465   2.038   7.415   6.864 -0.3253  0.3089 -0.0050
  893MOL0     C20466   0.805   7.477   7.093 -0.4628  0.2608  1.0138
  893MOL0     C20467   0.686   7.522   7.149  0.4614  0.0260  0.2168
  893MOL0     O20468   0.633   7.781   7.392  0.7775  0.0486 -0.0717
  893MOL0     C20469   0.328   7.691   7.249 -0.2415 -0.4260 -0.0596
  893MOL0     C20470   0.193   7.716   7.239  0.1347 -0.3480  0.1314
  893MOL0     N20471   0.151   7.874   6.751 -0.5658 -0.1680  0.1317
  893MOL0     N20472   0.202   7.950   6.669  0.0512 -0.2164 -0.0717
  893MOL0     C20473   0.773   8.989   5.993 -0.1446 -0.0274 -0.0792
  893MOL0     C20474   0.892   9.054   5.984  0.4740 -0.4912 -0.5725
  893MOL0     C20475   1.333   9.092   5.870  0.0686  0.4700 -0.7807
  893MOL0     C20476   1.407   9.067   5.756 -0.1863 -0.0350  0.0614
  893MOL0     C20477   1.537   9.121   5.747 -0.3746 -0.1316 -0.5290
  893MOL0     C20478   1.594   9.202   5.849 -0.0099  0.1860  0.4798
  893MOL0     O20479   1.711   9.258   5.842 -0.5796  0.4037 -0.2199
  893MOL0     C20480   1.811   9.158   5.854  0.2587  0.3671 -0.1164
  893MOL0     C20481   1.817   9.085   5.995 -0.2473 -0.3161  0.5753
  893MOL0     C20482   1.825   9.200   6.112 -0.2275 -0.7992  0.7217
  893MOL0     C20483   1.907   9.152   6.236  0.5033  0.0979  0.3943
  893MOL0     C20484   2.045   9.162   6.229 -0.9241  0.9734 -0.7601
  893MOL0     C20485   2.163   9.175   6.221  0.0004 -0.8153  0.5173
  893MOL0     C20486   1.511   9.232   5.953  0.1837 -0.6466 -0.3818
  893MOL0     C20487   1.382   9.179   5.966  0.4112  0.3203  0.4384
  893MOL0     H20488   1.072   8.865   6.186  0.2878 -0.1043 -0.6980
  893MOL0     H20489   0.868   8.730   6.200  0.4042  1.3129  1.1233
  893MOL0     H20490   0.671   8.594   6.137 -0.1438  0.1293 -1.0566
  893MOL0     H20491   0.621   8.720   6.262 -3.6779 -3.2068  2.3960
  893MOL0     H20492   0.401   8.741   6.155  3.5411  3.6801 -2.5214
  893MOL0     H20493   0.456   8.640   6.019  2.4530  0.2082  0.2459
  893MOL0     H20494   0.369   8.481   6.132  0.7071  1.0498  0.0148
  893MOL0     H20495   0.523   8.460   6.188  0.5557  0.7902  0.4221
  893MOL0     H20496   0.458   8.565   6.407  0.7388  0.2735 -2.5404
  893MOL0     H20497   0.300   8.616   6.347 -2.1375 -0.9965 -0.5088
  893MOL0     H20498   0.238   8.386   6.279 -1.1054 -0.1126  0.2774
  893MOL0     H20499   0.393   8.334   6.353  0.1744  2.0229 -0.6519
  893MOL0     H20500   0.299   8.416   6.581 -0.3700  1.8473 -0.2026
  893MOL0     H20501   0.147   8.446   6.497 -0.6434 -2.0946  2.3775
  893MOL0     H20502   0.074   8.254   6.492 -0.9413 -2.2182  1.9755
  893MOL0     H20503   0.229   8.176   6.441 -2.8415 -0.2346 -2.0370
  893MOL0     H20504   0.185   8.273   6.728 -2.8759  2.0869 -2.3926
  893MOL0     H20505   0.318   8.167   6.662 -0.5555 -1.4689 -2.1656
  893MOL0     H20506  -0.028   8.128   6.822 -0.7218  0.3386 -1.3198
  893MOL0     H20507  -0.145   7.856   6.863  0.1496 -0.0553 -1.1225
  893MOL0     H20508  -0.013   7.755   6.921 -1.3417 -0.2488 -2.2118
  893MOL0     H20509  -0.071   8.037   7.032 -1.5778 -0.5934  1.4357
  893MOL0     H20510   0.061   7.949   7.096  0.3332  0.1694  0.3784
  893MOL0     H20511  -0.228   7.844   7.093  0.4266  3.0188 -1.2253
  893MOL0     H20512  -0.183   7.952   7.223 -2.2891 -0.3107 -0.4192
  893MOL0     H20513  -0.071   7.662   7.217  0.2773  1.0377 -2.1655
  893MOL0     H20514  -0.192   7.726   7.311  0.3764 -0.7235 -0.0296
  893MOL0     H20515   0.154   7.923   7.510 -0.3600 -1.0049 -0.3214
  893MOL0     H20516   0.478   7.817   7.615 -0.4668  0.3728  0.9249
  893MOL0     H20517   0.461   7.975   7.537 -0.2386  0.6538  0.7733
  893MOL0     H20518   0.338   7.900   7.651 -1.1927 -0.9416 -0.1372
  893MOL0     H20519   0.805   7.549   7.465  4.0752  1.1433  0.6778
  893MOL0     H20520   1.003   7.478   7.375  0.9918 -1.8993 -1.8378
  893MOL0     H20521   1.190   7.528   7.140  1.5732 -0.0972  0.5243
  893MOL0     H20522   1.169   7.387   7.256 -1.6736  1.2800  1.1458
  893MOL0     H20523   1.230   7.235   7.080  1.3735 -0.3473 -0.3100
  893MOL0     H20524   1.267   7.376   6.979 -0.4300  0.3955 -0.6417
  893MOL0     H20525   1.419   7.317   7.251 -2.4825 -1.3004  0.3940
  893MOL0     H20526   1.405   7.473   7.163  0.8409 -0.3766  0.3219
  893MOL0     H20527   1.520   7.209   7.052 -0.2438 -1.5251  2.4959
  893MOL0     H20528   1.486   7.363   6.957 -3.3013 -3.3101  0.3763
  893MOL0     H20529   1.670   7.312   7.209 -0.8306  0.2841  1.0550
  893MOL0     H20530   1.633   7.471   7.144 -0.8371  0.8720 -3.5912
  893MOL0     H20531   1.786   7.262   6.990 -2.1667 -0.4169 -1.3058
  893MOL0     H20532   1.743   7.419   6.934 -0.3719 -0.4166  0.3314
  893MOL0     H20533   1.905   7.371   7.192  2.0060 -0.9105 -0.7396
  893MOL0     H20534   1.902   7.521   7.085 -0.0130 -0.3709  0.0260
  893MOL0     H20535   2.023   7.249   7.015  1.9687  0.0914 -1.1014
  893MOL0     H20536   2.111   7.387   7.082  0.7618 -0.4495  0.1195
  893MOL0     H20537   0.812   7.454   6.987  0.4287  1.8958  0.6758
  893MOL0     H20538   0.601   7.529   7.082  0.4339 -1.9070 -0.0026
  893MOL0     H20539   0.380   7.629   7.176  0.3688  2.0621 -1.8721
  893MOL0     H20540   0.135   7.676   7.156 -1.2058  1.5028  0.1154
  893MOL0     H20541   0.685   9.021   5.938 -0.1720 -0.6997 -0.4465
  893MOL0     H20542   0.887   9.154   5.943 -0.1202  2.0430  4.8147
  893MOL0     H20543   1.357   9.023   5.670  0.3504  2.5467 -1.6699
  893MOL0     H20544   1.571   9.127   5.644  0.8092  3.0365 -0.0808
  893MOL0     H20545   1.807   9.080   5.777  0.5606 -1.5159  1.6699
  893MOL0     H20546   1.901   9.218   5.841  0.8979 -0.4907  0.2731
  893MOL0     H20547   1.918   9.043   5.989  0.8453  1.6501  3.1290
  893MOL0     H20548   1.736   9.014   6.008 -2.0261  1.7922  1.7012
  893MOL0     H20549   1.728   9.234   6.148 -0.9918 -3.8489  1.8102
  893MOL0     H20550   1.878   9.288   6.072 -3.1625  1.5489  1.6130
  893MOL0     H20551   1.881   9.047   6.255 -0.1157  0.1666 -0.0499
  893MOL0     H20552   1.875   9.210   6.323 -1.2327  1.2069 -0.9395
  893MOL0     H20553   2.266   9.202   6.226  0.4612 -2.3934  0.1370
  893MOL0     H20554   1.550   9.293   6.033 -1.7195  0.1226  0.0087
  893MOL0     H20555   1.317   9.206   6.048  0.1403 -3.2970  1.5740
  894MOL0     O20556   7.750   4.682  11.438 -0.5276  0.2643  0.1647
  894MOL0     C20557   7.744   4.647  11.319  0.8645 -0.1893  0.4488
  894MOL0     O20558   7.853   4.616  11.233 -0.2965  0.1349  0.9307
  894MOL0     C20559   7.974   4.623  11.288  0.5882  1.9799 -1.0401
  894MOL0     C20560   8.005   4.539  11.398 -0.4113  0.0425  0.0686
  894MOL0     C20561   8.130   4.536  11.462 -1.2631  0.6689  0.6405
  894MOL0     C20562   8.229   4.616  11.412 -0.8854  0.3910  0.3451
  894MOL0     O20563   8.359   4.620  11.459 -0.8672 -0.6378 -0.5133
  894MOL0     C20564   8.385   4.577  11.591  0.2334  0.4527 -0.6036
  894MOL0     C20565   8.537   4.572  11.602 -0.3477 -0.8529 -0.9181
  894MOL0     C20566   8.576   4.483  11.725 -1.2356  0.0149 -0.8360
  894MOL0     C20567   8.723   4.485  11.738  0.7378 -0.1402 -0.0149
  894MOL0     C20568   8.775   4.404  11.862  0.4516  0.8196  0.2535
  894MOL0     C20569   8.927   4.396  11.874 -1.3213 -0.4234  0.5639
  894MOL0     C20570   8.986   4.332  11.999  0.2895  0.3825 -0.4967
  894MOL0     C20571   9.009   4.439  12.107  0.6039  0.9835 -0.7755
  894MOL0     N20572   9.086   4.365  12.206 -0.2059  0.9356 -0.0077
  894MOL0     C20573   9.221   4.340  12.207  0.2851  0.2448 -0.3435
  894MOL0     C20574   9.233   4.257  12.313  0.8614  0.2535 -0.1807
  894MOL0     C20575   9.358   4.179  12.335  0.2783 -0.4844 -0.0055
  894MOL0     C20576   9.377   4.171  12.487  1.3597 -0.2976 -0.9463
  894MOL0     C20577   9.517   4.121  12.516  0.1921  0.0263 -0.2713
  894MOL0     C20578   9.615   4.239  12.523 -0.7715  0.1363  0.7559
  894MOL0     O20579   9.742   4.181  12.558  1.2704  0.5158  0.1320
  894MOL0     C20580   9.841   4.274  12.573  0.4303 -0.0603 -0.1731
  894MOL0     C20581   9.831   4.411  12.548  0.9956 -0.1893  0.2112
  894MOL0     C20582   9.937   4.501  12.546 -0.7913  0.5704 -0.5330
  894MOL0     C20583   9.910   4.640  12.507  0.0757 -0.0545  0.2490
  894MOL0     C20584  10.067   4.447  12.575 -0.5925  0.4403  0.5315
  894MOL0     C20585  10.193   4.521  12.563  0.3721 -0.6163 -0.0620
  894MOL0     O20586  10.314   4.460  12.540 -0.7828 -0.4643  0.4746
  894MOL0     C20587  10.417   4.546  12.513 -0.1839  0.2210 -0.7896
  894MOL0     C20588  10.432   4.631  12.398 -0.0629  0.1906 -0.0310
  894MOL0     C20589  10.548   4.701  12.369 -1.1999 -0.0772 -1.0535
  894MOL0     C20590  10.656   4.702  12.454 -0.0584  0.1003  0.9324
  894MOL0     O20591  10.757   4.809  12.467  0.5989  0.3964 -0.2470
  894MOL0     C20592  10.725   4.931  12.397 -0.3389  0.7889 -0.4475
  894MOL0     C20593  10.829   5.024  12.446 -0.1839 -0.1615  0.6729
  894MOL0     C20594  10.816   5.161  12.379  0.1653  0.9053  0.3405
  894MOL0     C20595  10.938   5.242  12.374 -0.7555 -0.7635 -0.0509
  894MOL0     C20596  10.923   5.386  12.337 -0.0755  0.0367  0.1338
  894MOL0     C20597  11.061   5.456  12.319 -0.1822  0.3670 -0.2818
  894MOL0     C20598  11.051   5.615  12.322  0.0294  0.8308 -0.1912
  894MOL0     C20599  11.189   5.684  12.323 -0.4727 -0.8774  0.8971
  894MOL0    Cl20600  11.273   5.637  12.178  0.3060  0.1403  0.7307
  894MOL0     C20601  10.652   4.608  12.553 -0.2782 -0.0790 -1.0285
  894MOL0     C20602  10.538   4.530  12.578  0.5120  0.0923  0.2162
  894MOL0     O20603  10.178   4.642  12.572  0.2160 -0.2258 -0.2321
  894MOL0     C20604  10.083   4.311  12.612  0.7750  0.5520  0.4634
  894MOL0     C20605   9.967   4.226  12.610 -0.9162 -0.3850 -0.6840
  894MOL0     N20606   9.112   4.244  12.375 -0.1907 -0.7414  0.1974
  894MOL0     N20607   9.023   4.309  12.320  0.4195 -0.0938 -0.9774
  894MOL0     C20608   8.199   4.707  11.303 -0.2952  0.7493 -0.1751
  894MOL0     C20609   8.074   4.700  11.237  0.3648 -0.7795 -0.2823
  894MOL0     C20610   7.617   4.658  11.247  0.5094 -0.1774  0.1691
  894MOL0     C20611   7.614   4.656  11.101  0.0966 -0.0266  0.5614
  894MOL0     C20612   7.493   4.679  11.027  0.3119  0.4420  0.5377
  894MOL0     C20613   7.375   4.693  11.099 -1.0427 -0.7380  0.2386
  894MOL0     O20614   7.258   4.709  11.024 -0.2931  0.0259 -0.2951
  894MOL0     C20615   7.150   4.772  11.089  0.0648 -0.0682 -0.9280
  894MOL0     C20616   7.046   4.825  10.993 -1.0954 -0.6204  0.1366
  894MOL0     C20617   7.100   4.938  10.902  0.9074  0.7436  0.2354
  894MOL0     C20618   7.036   5.072  10.914  0.0335  0.3755  0.1257
  894MOL0     C20619   7.039   5.114  11.053  0.5220 -0.2773  0.0756
  894MOL0     C20620   7.051   5.143  11.172 -0.5742 -0.7588 -0.2711
  894MOL0     C20621   7.374   4.697  11.241 -0.3180 -0.9046  0.1521
  894MOL0     C20622   7.494   4.689  11.310  0.4163  0.5050 -0.5738
  894MOL0     H20623   7.938   4.458  11.426  0.8556 -1.2526 -0.5567
  894MOL0     H20624   8.151   4.477  11.551 -3.3371  1.6794  1.8918
  894MOL0     H20625   8.338   4.646  11.661  0.4415  0.8074 -0.8097
  894MOL0     H20626   8.354   4.473  11.601  0.1329  0.3959 -1.3954
  894MOL0     H20627   8.576   4.520  11.513  0.8082  0.6215 -1.3081
  894MOL0     H20628   8.571   4.673  11.626 -0.2087 -1.8803  4.4951
  894MOL0     H20629   8.528   4.521  11.815 -0.6058 -0.3254 -0.3483
  894MOL0     H20630   8.553   4.379  11.702  2.6938 -1.5643  1.3613
  894MOL0     H20631   8.769   4.445  11.647  1.7247 -3.0000  1.6260
  894MOL0     H20632   8.746   4.590  11.759 -1.8325  0.0247  2.7079
  894MOL0     H20633   8.745   4.463  11.949  2.3972 -0.2304  1.7163
  894MOL0     H20634   8.728   4.307  11.880  3.0835 -0.7863 -0.8648
  894MOL0     H20635   8.956   4.333  11.789 -2.6404 -0.3109  0.0084
  894MOL0     H20636   8.983   4.490  11.865  4.6693 -3.2359  2.9743
  894MOL0     H20637   8.919   4.257  12.042 -2.1283  1.7300 -1.6841
  894MOL0     H20638   9.075   4.276  11.970  0.5606  0.3781  0.3214
  894MOL0     H20639   8.915   4.470  12.155  0.7715 -1.9359  1.7262
  894MOL0     H20640   9.073   4.517  12.064 -0.3029  1.5827 -1.0758
  894MOL0     H20641   9.303   4.356  12.138 -0.0760 -2.9859 -1.7420
  894MOL0     H20642   9.338   4.080  12.294 -0.9200  0.1894 -1.1313
  894MOL0     H20643   9.433   4.220  12.267 -2.2696  1.4661 -1.9061
  894MOL0     H20644   9.305   4.101  12.530 -0.8011  2.5559  0.4149
  894MOL0     H20645   9.347   4.267  12.532 -0.4183 -1.5344  0.6716
  894MOL0     H20646   9.542   4.066  12.425  0.4450  3.1171 -2.2301
  894MOL0     H20647   9.530   4.069  12.611 -1.7169 -0.8508 -0.4383
  894MOL0     H20648   9.576   4.321  12.585  1.7778  0.5798  1.9108
  894MOL0     H20649   9.630   4.281  12.423  0.4511  2.8075  1.9532
  894MOL0     H20650   9.735   4.449  12.515 -0.0433 -2.1774  0.7953
  894MOL0     H20651   9.804   4.668  12.504  0.1984  0.3566 -0.5888
  894MOL0     H20652   9.957   4.714  12.573  1.3523  0.6498 -1.3823
  894MOL0     H20653   9.956   4.649  12.408  1.0211 -2.4567  0.4126
  894MOL0     H20654  10.341   4.631  12.338  0.3673  1.5913 -0.7263
  894MOL0     H20655  10.556   4.766  12.282  0.3456  1.6738  0.3162
  894MOL0     H20656  10.729   4.913  12.289 -4.8169 -1.7741 -0.4297
  894MOL0     H20657  10.626   4.967  12.427 -0.6858 -2.1251  2.3464
  894MOL0     H20658  10.829   5.040  12.554  2.2533  4.8168  0.2248
  894MOL0     H20659  10.924   4.981  12.411  1.3473  2.8488  0.8465
  894MOL0     H20660  10.743   5.221  12.434 -2.7768 -2.4214  0.4652
  894MOL0     H20661  10.782   5.139  12.277 -3.9305  1.0236  1.4764
  894MOL0     H20662  10.987   5.238  12.472 -0.3385 -0.7473 -0.2561
  894MOL0     H20663  11.004   5.194  12.301  0.7111  0.2902  0.5468
  894MOL0     H20664  10.879   5.432  12.426  0.4911  0.9253 -0.0282
  894MOL0     H20665  10.859   5.400  12.249  0.9158 -1.1682 -0.8241
  894MOL0     H20666  11.129   5.421  12.398 -0.3574 -0.7273 -0.6049
  894MOL0     H20667  11.097   5.424  12.221 -0.3984 -0.9719  0.0542
  894MOL0     H20668  10.996   5.644  12.413  0.4194 -4.0964  1.9146
  894MOL0     H20669  10.989   5.641  12.236  0.3876 -3.0689 -1.8424
  894MOL0     H20670  11.248   5.641  12.404 -0.2016 -1.8420  0.2088
  894MOL0     H20671  11.176   5.792  12.326 -1.0079 -0.8993 -0.1335
  894MOL0     H20672  10.736   4.602  12.622 -0.7111 -1.6433 -0.5869
  894MOL0     H20673  10.531   4.476  12.671  2.3091 -3.3773 -1.4721
  894MOL0     H20674  10.181   4.278  12.644  0.1665  1.1494  3.2682
  894MOL0     H20675   9.990   4.122  12.627 -0.5441 -0.7659 -3.1917
  894MOL0     H20676   8.270   4.776  11.259 -2.4228  1.8460 -2.0723
  894MOL0     H20677   8.054   4.762  11.150 -0.1246 -0.6942 -0.1140
  894MOL0     H20678   7.706   4.644  11.043 -0.6937  0.9129 -0.9777
  894MOL0     H20679   7.487   4.657  10.921  0.8350 -1.3950  0.8509
  894MOL0     H20680   7.092   4.698  11.144  0.8505 -0.2245 -0.2900
  894MOL0     H20681   7.180   4.852  11.157 -1.1773 -0.1310 -0.2673
  894MOL0     H20682   6.963   4.857  11.056 -0.6937 -0.5529  0.6420
  894MOL0     H20683   7.024   4.744  10.923  1.4962 -1.1214 -0.2067
  894MOL0     H20684   7.079   4.911  10.798  1.1925  0.8071  0.1599
  894MOL0     H20685   7.209   4.944  10.907  0.9941  0.2540 -0.8148
  894MOL0     H20686   6.929   5.066  10.892 -0.4161  0.2724  2.1051
  894MOL0     H20687   7.085   5.137  10.840 -1.0093 -0.3637 -1.2538
  894MOL0     H20688   7.050   5.178  11.274 -0.6823 -0.3478 -0.4108
  894MOL0     H20689   7.281   4.709  11.296 -0.6809 -0.2422 -0.5930
  894MOL0     H20690   7.492   4.672  11.417  4.0011 -2.9945 -0.8415
  895MOL0     O20691   2.221   1.841  10.183 -0.9475 -0.4475 -0.3126
  895MOL0     C20692   2.170   1.956  10.178 -0.0897  0.5156 -0.6173
  895MOL0     O20693   2.150   2.053  10.278 -0.3256  0.9262 -0.0246
  895MOL0     C20694   2.197   2.040  10.404 -0.1526 -0.4706 -0.1110
  895MOL0     C20695   2.214   1.917  10.468 -0.1090  0.7217  0.1968
  895MOL0     C20696   2.249   1.905  10.603 -0.6202  0.4454 -0.0316
  895MOL0     C20697   2.258   2.022  10.686 -0.2365 -0.0194  0.8050
  895MOL0     O20698   2.287   2.017  10.820 -0.1678 -0.0567  0.2487
  895MOL0     C20699   2.303   1.895  10.893  2.2863  0.2344  0.1756
  895MOL0     C20700   2.316   1.924  11.047  0.4031  0.6125 -0.6721
  895MOL0     C20701   2.287   1.805  11.133 -0.3740  0.5820  1.3209
  895MOL0     C20702   2.412   1.704  11.136 -0.9054 -0.5824  0.4350
  895MOL0     C20703   2.513   1.740  11.252 -0.2423 -0.3821  0.4854
  895MOL0     C20704   2.450   1.719  11.391 -0.3742  0.3453  0.6529
  895MOL0     C20705   2.543   1.776  11.504  0.0797  0.2075 -0.1338
  895MOL0     C20706   2.604   1.652  11.588  0.2700 -0.8553  1.5348
  895MOL0     N20707   2.721   1.704  11.664 -1.1816  0.1742 -0.5812
  895MOL0     C20708   2.852   1.678  11.638 -0.0404  0.4759 -0.1740
  895MOL0     C20709   2.919   1.743  11.731  0.0526  0.0180 -0.2073
  895MOL0     C20710   3.074   1.761  11.720  0.1124  0.2337  1.1319
  895MOL0     C20711   3.134   1.679  11.838 -0.0038  0.3467  0.8084
  895MOL0     C20712   3.105   1.740  11.979 -0.6352 -0.4272  0.3351
  895MOL0     C20713   3.178   1.666  12.093  0.0773 -0.7502  0.3005
  895MOL0     O20714   3.286   1.575  12.055  1.2499  0.6123 -1.0386
  895MOL0     C20715   3.330   1.486  12.147 -0.0105  0.4546 -1.0549
  895MOL0     C20716   3.290   1.473  12.284  0.0266 -0.0870 -0.4176
  895MOL0     C20717   3.357   1.395  12.371  0.0144  0.7340  0.3910
  895MOL0     C20718   3.321   1.405  12.518 -0.7547  1.0407  0.5526
  895MOL0     C20719   3.461   1.305  12.318  0.0944 -0.2883 -0.0993
  895MOL0     C20720   3.549   1.213  12.402  0.7049  0.5266  0.2580
  895MOL0     O20721   3.544   1.197  12.537 -0.2205 -0.7039  0.4738
  895MOL0     C20722   3.644   1.122  12.589  0.3757  0.9038 -0.5519
  895MOL0     C20723   3.664   0.982  12.573 -0.0106 -0.8428  0.2679
  895MOL0     C20724   3.749   0.910  12.670 -0.4325 -0.3505  0.0622
  895MOL0     C20725   3.831   0.980  12.760 -0.6183  0.3420  0.1246
  895MOL0     O20726   3.910   0.913  12.849  0.2724  0.2052 -0.1930
  895MOL0     C20727   4.027   0.971  12.903  0.6798 -0.2560 -0.4807
  895MOL0     C20728   4.149   0.897  12.860 -0.4861 -0.2969 -0.1308
  895MOL0     C20729   4.155   0.866  12.710  0.5997  0.4686 -0.4835
  895MOL0     C20730   4.287   0.805  12.672 -1.8912 -0.5734  0.1760
  895MOL0     C20731   4.299   0.810  12.510 -0.2885  0.6902 -0.7247
  895MOL0     C20732   4.395   0.717  12.453 -0.3249 -0.6064 -0.3064
  895MOL0     C20733   4.542   0.777  12.443 -1.4618 -0.6506 -0.1222
  895MOL0     C20734   4.648   0.664  12.410  0.0999 -0.7096  0.5536
  895MOL0    Cl20735   4.643   0.550  12.541 -0.1477 -0.4358  0.3520
  895MOL0     C20736   3.816   1.113  12.769  0.8203 -1.0280  0.4073
  895MOL0     C20737   3.722   1.186  12.686  0.0200 -0.4059  0.2629
  895MOL0     O20738   3.618   1.141  12.332  0.0749  1.0497  0.5803
  895MOL0     C20739   3.488   1.305  12.181 -0.3560 -0.4035  0.3724
  895MOL0     C20740   3.424   1.398  12.098  0.2413 -0.6078  0.5786
  895MOL0     N20741   2.828   1.803  11.819 -0.6769 -0.3509  0.5348
  895MOL0     N20742   2.709   1.783  11.776 -0.2901  0.9862  0.5311
  895MOL0     C20743   2.227   2.142  10.623 -0.1903 -0.4184 -0.6635
  895MOL0     C20744   2.198   2.155  10.488 -0.2862 -0.0279  0.3486
  895MOL0     C20745   2.127   1.990  10.038 -1.1889 -0.7264  0.0893
  895MOL0     C20746   2.061   2.111  10.007  0.3102  0.1095  0.5307
  895MOL0     C20747   2.005   2.127   9.880  0.5572  0.4684 -0.3338
  895MOL0     C20748   2.007   2.033   9.778 -0.4909 -0.4391 -0.2878
  895MOL0     O20749   1.952   2.049   9.653 -0.5541 -0.1528 -0.1362
  895MOL0     C20750   1.852   2.141   9.630  0.5581  0.3250  1.3225
  895MOL0     C20751   1.848   2.156   9.484 -0.8257  0.5070  0.5774
  895MOL0     C20752   1.958   2.233   9.407 -0.0635  0.2057 -0.7930
  895MOL0     C20753   1.935   2.225   9.254 -0.1836  0.1020  0.1916
  895MOL0     C20754   1.911   2.084   9.206 -0.8072 -0.4937  0.1345
  895MOL0     C20755   1.893   1.970   9.182 -1.1513  0.0113  0.4145
  895MOL0     C20756   2.084   1.920   9.803 -0.3146 -0.6224  0.3281
  895MOL0     C20757   2.138   1.895   9.932  0.0018  0.3229  0.4824
  895MOL0     H20758   2.182   1.828  10.415 -1.8599  0.0582  2.2168
  895MOL0     H20759   2.245   1.809  10.652 -1.2919  1.3655  1.7970
  895MOL0     H20760   2.213   1.834  10.877 -1.3474  4.3383  2.4386
  895MOL0     H20761   2.396   1.848  10.862  1.1128 -0.5387 -2.4996
  895MOL0     H20762   2.409   1.973  11.077  0.0916  2.8143 -2.9403
  895MOL0     H20763   2.244   2.004  11.065 -0.4539 -0.5798  1.5065
  895MOL0     H20764   2.253   1.836  11.232 -1.7485 -2.1428  1.7903
  895MOL0     H20765   2.199   1.752  11.096 -0.6075  2.1459 -0.5139
  895MOL0     H20766   2.380   1.599  11.137 -1.8699 -0.3070 -0.1227
  895MOL0     H20767   2.470   1.709  11.043 -1.2393 -3.3896 -0.0204
  895MOL0     H20768   2.606   1.683  11.245 -0.1299 -0.0506 -1.0666
  895MOL0     H20769   2.539   1.845  11.236  1.7889 -0.3635  3.2357
  895MOL0     H20770   2.349   1.761  11.403 -1.7257 -2.4762  0.0691
  895MOL0     H20771   2.433   1.612  11.403  0.9771  0.0445  0.0798
  895MOL0     H20772   2.626   1.818  11.445 -0.3579 -1.6401 -2.2154
  895MOL0     H20773   2.481   1.834  11.572 -2.2322 -2.0628 -0.1550
  895MOL0     H20774   2.632   1.566  11.526 -2.1992 -1.5803  1.3508
  895MOL0     H20775   2.539   1.617  11.669  0.8446 -0.7425  2.0544
  895MOL0     H20776   2.902   1.630  11.555  1.7022  1.9428 -0.0161
  895MOL0     H20777   3.103   1.717  11.624 -4.1782 -0.4992 -0.0286
  895MOL0     H20778   3.104   1.866  11.726  0.1034  0.2487  0.9204
  895MOL0     H20779   3.242   1.671  11.826 -0.1530 -1.0709  0.2928
  895MOL0     H20780   3.092   1.578  11.841  0.4646  0.1688  2.6929
  895MOL0     H20781   2.997   1.737  11.994 -0.5400 -1.6276  0.8693
  895MOL0     H20782   3.138   1.844  11.986 -1.5063 -0.1846  1.0467
  895MOL0     H20783   3.106   1.618  12.160 -1.4452 -0.1503 -0.8442
  895MOL0     H20784   3.227   1.738  12.159  2.4299 -2.3754  0.4340
  895MOL0     H20785   3.210   1.532  12.328 -1.9998 -3.7479  1.3268
  895MOL0     H20786   3.293   1.312  12.569  1.3902  1.2349  2.2182
  895MOL0     H20787   3.412   1.429  12.573  0.7648 -4.5268  1.0371
  895MOL0     H20788   3.239   1.476  12.537 -1.6931  0.4847 -1.1709
  895MOL0     H20789   3.597   0.928  12.507  0.1069 -1.7358  0.8592
  895MOL0     H20790   3.755   0.801  12.674 -0.9732 -0.4352 -1.1047
  895MOL0     H20791   4.045   1.075  12.873  0.2254 -0.2287 -0.6596
  895MOL0     H20792   4.009   0.968  13.011 -0.2517  0.9712 -0.5831
  895MOL0     H20793   4.236   0.955  12.894 -0.1141 -2.6217  3.4715
  895MOL0     H20794   4.161   0.800  12.908  5.4038  0.4932  0.7242
  895MOL0     H20795   4.140   0.962  12.659 -1.5083  0.4007 -0.0951
  895MOL0     H20796   4.079   0.795  12.677 -1.9368  3.0072 -0.4880
  895MOL0     H20797   4.370   0.867  12.708 -2.3611 -1.8591  3.8659
  895MOL0     H20798   4.314   0.712  12.722  1.1684  0.0225 -0.1609
  895MOL0     H20799   4.313   0.914  12.481 -1.3395  1.0998  0.1487
  895MOL0     H20800   4.205   0.772  12.467  0.0050 -1.7178  0.5849
  895MOL0     H20801   4.390   0.627  12.515  0.1784  1.2092  2.5465
  895MOL0     H20802   4.365   0.682  12.354  2.5654 -2.1176 -0.7544
  895MOL0     H20803   4.563   0.822  12.541 -2.4376  2.6139 -1.3074
  895MOL0     H20804   4.556   0.856  12.369  2.6035  0.0229  1.1281
  895MOL0     H20805   4.747   0.709  12.401 -0.7247  1.0686  0.0400
  895MOL0     H20806   4.618   0.617  12.316  1.8357  0.3358 -0.5874
  895MOL0     H20807   3.864   1.179  12.840  2.0127 -0.7847 -0.5893
  895MOL0     H20808   3.694   1.290  12.697  2.4223  0.6859 -2.4973
  895MOL0     H20809   3.551   1.228  12.138 -0.8097 -1.5120  1.6240
  895MOL0     H20810   3.450   1.392  11.992 -2.0200 -3.5615  0.0439
  895MOL0     H20811   2.220   2.223  10.694 -0.9044 -1.2060  0.2063
  895MOL0     H20812   2.166   2.251  10.451 -1.8136  0.3423  2.4536
  895MOL0     H20813   2.046   2.182  10.088 -0.8558 -1.4109  1.6985
  895MOL0     H20814   1.935   2.210   9.871 -0.8706 -0.8002 -1.4023
  895MOL0     H20815   1.753   2.103   9.656 -0.3754  0.5696 -1.5395
  895MOL0     H20816   1.885   2.239   9.665 -0.6759  0.8049  1.1961
  895MOL0     H20817   1.758   2.212   9.457 -0.0184  1.1909 -0.7800
  895MOL0     H20818   1.829   2.062   9.432 -0.4312  0.8341 -0.1687
  895MOL0     H20819   2.053   2.188   9.436  0.0248  1.9148  2.0270
  895MOL0     H20820   1.957   2.334   9.449  3.4373 -1.5820  4.6783
  895MOL0     H20821   2.021   2.266   9.201 -1.4981  2.2650 -0.3993
  895MOL0     H20822   1.846   2.286   9.234 -1.4051 -1.2751  1.1950
  895MOL0     H20823   1.888   1.868   9.149 -3.1490  0.3986 -0.5909
  895MOL0     H20824   2.113   1.851   9.724  0.2079 -1.6102  1.3475
  895MOL0     H20825   2.170   1.795   9.959 -2.2783 -1.2231 -2.0600
  896MOL0     O20826   7.176  10.741   5.170 -0.3530 -0.0140  0.7313
  896MOL0     C20827   7.161  10.861   5.142  1.2132  0.0108  0.2173
  896MOL0     O20828   7.146  10.923   5.012  0.0697 -0.1638 -0.3536
  896MOL0     C20829   7.123  10.845   4.904 -0.7117  0.4287  0.5189
  896MOL0     C20830   7.156  10.909   4.780  0.5670  0.7006  0.2532
  896MOL0     C20831   7.113  10.846   4.661 -0.5073 -0.1032  0.1425
  896MOL0     C20832   7.068  10.718   4.654 -0.7154  1.1520  0.6452
  896MOL0     O20833   7.054  10.645   4.540  0.2456  0.8225  0.0426
  896MOL0     C20834   6.922  10.601   4.510  0.2673 -0.5194  0.1178
  896MOL0     C20835   6.905  10.545   4.368  0.6612  0.2365 -0.0093
  896MOL0     C20836   6.993  10.422   4.336 -0.4622 -0.2830  0.3482
  896MOL0     C20837   6.912  10.290   4.336 -0.0747 -0.5507  0.1607
  896MOL0     C20838   7.004  10.159   4.319 -0.5010  0.0864 -0.2548
  896MOL0     C20839   6.917  10.031   4.314 -0.2697 -0.2329  0.1117
  896MOL0     C20840   6.986   9.901   4.344 -1.1932 -0.8812  0.3795
  896MOL0     C20841   7.001   9.871   4.494 -1.2969 -0.4754 -0.1526
  896MOL0     N20842   7.053   9.737   4.517 -0.1872 -0.3876 -0.7909
  896MOL0     C20843   7.165   9.675   4.467  0.7971  0.1004  0.3094
  896MOL0     C20844   7.167   9.552   4.532  1.2091  0.8455  0.9604
  896MOL0     C20845   7.258   9.441   4.503  0.4435 -0.5722 -0.0324
  896MOL0     C20846   7.396   9.485   4.517  0.4621 -0.2838 -0.2430
  896MOL0     C20847   7.494   9.376   4.480 -0.7874 -0.3662  0.0196
  896MOL0     C20848   7.630   9.441   4.509 -0.5008  0.0539 -0.5971
  896MOL0     O20849   7.728   9.335   4.506  0.3616 -0.2541  0.0007
  896MOL0     C20850   7.814   9.318   4.406  0.7171 -0.1149  0.5212
  896MOL0     C20851   7.790   9.384   4.281  0.5544  0.1775 -0.4357
  896MOL0     C20852   7.884   9.384   4.177  0.2786 -0.0829  0.0654
  896MOL0     C20853   7.842   9.456   4.053  0.0149 -0.0651  0.0528
  896MOL0     C20854   8.008   9.327   4.205  0.4167  0.2008 -0.2507
  896MOL0     C20855   8.119   9.319   4.115 -0.0338 -0.2339  0.4453
  896MOL0     O20856   8.237   9.344   4.182  0.5532 -0.3098 -0.3579
  896MOL0     C20857   8.353   9.373   4.117  0.1974  0.6098 -0.7116
  896MOL0     C20858   8.475   9.330   4.172  0.5002  0.5010 -0.0875
  896MOL0     C20859   8.594   9.340   4.095  0.4357  0.5370 -0.2845
  896MOL0     C20860   8.603   9.418   3.974 -0.1306 -0.3996  0.0038
  896MOL0     O20861   8.724   9.430   3.906 -0.5499 -0.0286 -0.0843
  896MOL0     C20862   8.796   9.306   3.911  0.4847  0.1953  0.6003
  896MOL0     C20863   8.915   9.299   3.818 -1.0857 -0.3340 -0.0416
  896MOL0     C20864   9.034   9.382   3.879  0.0925 -0.0355  0.0190
  896MOL0     C20865   9.137   9.413   3.761 -0.1127 -0.1458 -0.1861
  896MOL0     C20866   9.262   9.500   3.786 -0.4556  0.1768  0.4517
  896MOL0     C20867   9.353   9.503   3.658  0.7807  0.5191  0.3328
  896MOL0     C20868   9.456   9.609   3.689 -0.3416 -0.2179  0.5721
  896MOL0     C20869   9.557   9.613   3.583  0.8471 -0.8996 -0.3595
  896MOL0    Cl20870   9.664   9.478   3.605  0.0204 -0.0768  0.3137
  896MOL0     C20871   8.479   9.471   3.932 -0.3097  0.4378  0.2674
  896MOL0     C20872   8.362   9.455   4.004 -0.1146  0.1401  0.1502
  896MOL0     O20873   8.100   9.311   3.997 -0.0978  0.4278  0.1747
  896MOL0     C20874   8.038   9.270   4.334  0.5352 -0.5287  0.4231
  896MOL0     C20875   7.936   9.256   4.429 -0.8904 -0.6016  0.6190
  896MOL0     N20876   7.060   9.547   4.618 -0.3172  0.0105 -0.5931
  896MOL0     N20877   6.993   9.656   4.610  0.2725  0.6809 -0.3669
  896MOL0     C20878   7.041  10.652   4.775 -0.2420 -0.1521  0.8935
  896MOL0     C20879   7.060  10.717   4.893 -0.2719 -1.1996  1.1954
  896MOL0     C20880   7.155  10.950   5.264  0.3650  0.2196 -0.5206
  896MOL0     C20881   7.187  11.082   5.253 -0.9046 -1.1936 -0.1682
  896MOL0     C20882   7.156  11.174   5.357 -0.4620 -0.6247 -0.0252
  896MOL0     C20883   7.107  11.138   5.481  0.7613 -0.0846 -0.1217
  896MOL0     O20884   7.064  11.226   5.578 -0.0247 -0.6233 -0.9601
  896MOL0     C20885   7.171  11.299   5.640 -1.1444 -0.4541  0.6873
  896MOL0     C20886   7.264  11.213   5.717 -0.0578  0.5308 -0.1875
  896MOL0     C20887   7.336  11.289   5.835 -0.2307  0.1279 -0.0017
  896MOL0     C20888   7.433  11.188   5.897  0.5408 -0.5929  0.5315
  896MOL0     C20889   7.478  11.244   6.026 -0.8319 -0.1403  0.4785
  896MOL0     C20890   7.527  11.271   6.133  0.1713  0.5087 -0.5568
  896MOL0     C20891   7.077  10.999   5.489  0.3127 -0.3517  0.0752
  896MOL0     C20892   7.102  10.905   5.385  0.2797  0.1062  0.2483
  896MOL0     H20893   7.197  11.009   4.786  2.5366 -0.0855  0.6983
  896MOL0     H20894   7.126  10.892   4.564  0.0271 -0.9156 -0.1817
  896MOL0     H20895   6.893  10.519   4.577  1.0591 -1.5417 -0.7578
  896MOL0     H20896   6.841  10.675   4.519 -0.1197 -1.1026  2.0602
  896MOL0     H20897   6.801  10.519   4.346  0.6231 -2.1735  2.4557
  896MOL0     H20898   6.933  10.614   4.288  2.5113 -2.4217 -1.8247
  896MOL0     H20899   7.031  10.437   4.235  1.6063 -1.6560  0.8732
  896MOL0     H20900   7.081  10.403   4.398 -0.4711 -0.6313  0.2587
  896MOL0     H20901   6.858  10.257   4.425  0.4546 -0.1230  0.6446
  896MOL0     H20902   6.842  10.290   4.252 -1.7288 -0.1226  1.5062
  896MOL0     H20903   7.060  10.168   4.225  1.6374 -0.8256  0.8394
  896MOL0     H20904   7.079  10.155   4.398  0.9898 -2.9644 -1.6217
  896MOL0     H20905   6.843  10.044   4.393  1.5601 -1.1274  2.0726
  896MOL0     H20906   6.874  10.015   4.214  0.6781 -0.4934 -0.2696
  896MOL0     H20907   6.937   9.818   4.292 -2.4697  0.2046 -0.2064
  896MOL0     H20908   7.084   9.896   4.295 -2.4166 -0.9117 -2.2944
  896MOL0     H20909   6.910   9.886   4.552 -0.6887  1.7840  0.3225
  896MOL0     H20910   7.068   9.938   4.549 -2.0292  1.1934 -1.2328
  896MOL0     H20911   7.245   9.711   4.403  1.4748  1.6101  1.9489
  896MOL0     H20912   7.242   9.351   4.563  1.7115 -2.0667 -1.8206
  896MOL0     H20913   7.227   9.401   4.406  1.4181 -1.4688  0.0149
  896MOL0     H20914   7.411   9.518   4.621 -1.5892 -0.1788  0.0606
  896MOL0     H20915   7.420   9.570   4.453 -1.8568  0.8118  0.2417
  896MOL0     H20916   7.486   9.356   4.373 -2.8259  1.6805 -0.2706
  896MOL0     H20917   7.461   9.293   4.544 -0.3582  1.7126  3.1501
  896MOL0     H20918   7.634   9.486   4.609  1.2493  0.9874 -1.0573
  896MOL0     H20919   7.634   9.528   4.443  2.2049  0.1754 -0.3956
  896MOL0     H20920   7.703   9.448   4.278 -0.4047 -0.8855  2.0540
  896MOL0     H20921   7.768   9.535   4.071  1.3314  0.8379  1.9470
  896MOL0     H20922   7.929   9.511   4.015  0.9658  0.3221  2.5962
  896MOL0     H20923   7.806   9.382   3.981 -0.5014  0.0679  0.1662
  896MOL0     H20924   8.483   9.266   4.259  1.2606  0.2960 -0.3070
  896MOL0     H20925   8.680   9.298   4.147  2.0330  2.8088 -0.9189
  896MOL0     H20926   8.840   9.294   4.010  1.1482  0.7380  0.3832
  896MOL0     H20927   8.728   9.225   3.884 -1.1687  1.4222  0.9364
  896MOL0     H20928   8.952   9.197   3.803 -0.0591 -0.6139  3.3674
  896MOL0     H20929   8.881   9.341   3.724 -0.0396  0.0896 -0.2488
  896MOL0     H20930   9.072   9.316   3.957 -2.9575 -0.9557  0.8791
  896MOL0     H20931   8.996   9.474   3.925 -4.2173 -0.0996 -2.8409
  896MOL0     H20932   9.177   9.313   3.745 -0.8579 -0.9795  2.5384
  896MOL0     H20933   9.090   9.460   3.674 -0.8353 -1.0196 -0.2732
  896MOL0     H20934   9.299   9.454   3.878 -1.3260 -0.5320  0.4606
  896MOL0     H20935   9.237   9.602   3.818  0.2866  0.2546  0.8020
  896MOL0     H20936   9.400   9.407   3.637  1.1741  0.9748 -0.9412
  896MOL0     H20937   9.291   9.532   3.573  0.7916 -2.2859 -0.7112
  896MOL0     H20938   9.507   9.589   3.784 -0.5404  0.3702  0.8110
  896MOL0     H20939   9.405   9.703   3.715  1.2912  1.5864 -2.2997
  896MOL0     H20940   9.617   9.703   3.600  0.9913 -0.9573 -0.5688
  896MOL0     H20941   9.520   9.626   3.481  0.6352  3.8225  0.0872
  896MOL0     H20942   8.487   9.522   3.836 -0.4698 -1.4017 -0.7747
  896MOL0     H20943   8.271   9.500   3.967 -0.5524 -0.9504 -0.1160
  896MOL0     H20944   8.132   9.216   4.348  0.2529 -1.3445 -0.6755
  896MOL0     H20945   7.968   9.207   4.520  0.0257 -0.7346  0.2438
  896MOL0     H20946   7.003  10.550   4.779  0.2947 -0.8548 -4.2499
  896MOL0     H20947   7.006  10.674   4.977 -0.5221  0.2999  1.8406
  896MOL0     H20948   7.233  11.134   5.170  2.2836  0.8856  2.6311
  896MOL0     H20949   7.168  11.279   5.331 -3.3773 -0.7462 -2.4617
  896MOL0     H20950   7.210  11.368   5.566  0.9714 -0.0625  2.0930
  896MOL0     H20951   7.116  11.359   5.712 -2.4055 -2.7020  1.7191
  896MOL0     H20952   7.341  11.185   5.645 -0.1663  0.5138 -0.2957
  896MOL0     H20953   7.200  11.128   5.743 -0.3638 -0.0212 -2.5485
  896MOL0     H20954   7.268  11.337   5.906  0.6713  1.8825 -0.2714
  896MOL0     H20955   7.389  11.379   5.803 -1.1097  1.1329  1.2398
  896MOL0     H20956   7.519  11.158   5.836  0.9532 -2.4610  1.9623
  896MOL0     H20957   7.379  11.096   5.920 -2.4834  1.0311  0.5706
  896MOL0     H20958   7.549  11.303   6.233  3.5733 -4.9425  0.9008
  896MOL0     H20959   7.026  10.964   5.578 -1.0293 -1.9712 -1.2648
  896MOL0     H20960   7.064  10.805   5.403 -1.0197  0.8120  1.7296
  897MOL0     O20961  11.033   7.077   5.004 -0.1463  0.4786  0.0657
  897MOL0     C20962  11.137   7.122   4.952  0.5763 -0.1154  0.2252
  897MOL0     O20963  11.187   7.099   4.822 -0.0443  0.2691  0.1938
  897MOL0     C20964  11.100   7.062   4.722 -0.4224 -0.4643  0.2172
  897MOL0     C20965  11.157   7.038   4.596 -0.1432  0.2013 -0.1204
  897MOL0     C20966  11.079   6.997   4.494 -0.2010  0.3179  1.2386
  897MOL0     C20967  10.937   6.990   4.495  0.4135 -1.0902 -0.1562
  897MOL0     O20968  10.872   6.946   4.373  0.1145  0.2958 -0.2412
  897MOL0     C20969  10.727   6.962   4.356 -0.3036  0.4649 -0.1436
  897MOL0     C20970  10.679   6.869   4.244  0.2086 -0.3261  0.2144
  897MOL0     C20971  10.672   6.719   4.284  0.0272  0.0516 -0.1429
  897MOL0     C20972  10.731   6.621   4.190 -0.5719 -0.1410 -0.6705
  897MOL0     C20973  10.702   6.472   4.237 -0.0322 -0.3882  0.2028
  897MOL0     C20974  10.820   6.440   4.333 -0.7441  0.0313 -0.2244
  897MOL0     C20975  10.801   6.303   4.392  0.5476  0.0329 -1.8798
  897MOL0     C20976  10.764   6.301   4.541  0.3471 -0.6019  0.5145
  897MOL0     N20977  10.620   6.259   4.569  0.2778  0.5210 -0.1950
  897MOL0     C20978  10.580   6.154   4.648  0.7383 -0.4040  0.0841
  897MOL0     C20979  10.439   6.176   4.646 -0.5843 -0.6323  0.2310
  897MOL0     C20980  10.335   6.114   4.732 -0.4293  0.1072 -0.5132
  897MOL0     C20981  10.372   6.137   4.881  0.3634 -0.1835  0.1042
  897MOL0     C20982  10.397   6.282   4.933 -0.1108  0.6820 -0.1093
  897MOL0     C20983  10.271   6.361   4.971  0.3878  0.7398  0.2111
  897MOL0     O20984  10.252   6.459   4.872 -0.3054 -0.2627 -0.1790
  897MOL0     C20985  10.142   6.537   4.888  0.2754  0.0966  0.0560
  897MOL0     C20986  10.024   6.501   4.949  0.4603 -0.3951  0.4460
  897MOL0     C20987   9.920   6.586   4.967  0.7430  0.1613  0.0046
  897MOL0     C20988   9.815   6.528   5.059  0.0964 -0.6307 -0.3453
  897MOL0     C20989   9.918   6.712   4.896 -0.9740 -0.5104 -0.2399
  897MOL0     C20990   9.810   6.814   4.898  0.3108 -0.7262 -0.1945
  897MOL0     O20991   9.688   6.785   4.950  0.2966 -0.3226 -0.7227
  897MOL0     C20992   9.603   6.887   4.982 -0.0792 -0.2253 -0.2882
  897MOL0     C20993   9.608   6.919   5.121 -0.3251  0.1912 -0.4603
  897MOL0     C20994   9.547   7.039   5.172  0.1021  0.2176 -0.2475
  897MOL0     C20995   9.479   7.122   5.081 -0.0439  0.4154 -0.1554
  897MOL0     O20996   9.444   7.253   5.118  0.9034  0.4803 -0.8645
  897MOL0     C20997   9.480   7.362   5.042 -0.3779  0.1788  0.1135
  897MOL0     C20998   9.468   7.493   5.134 -0.2226  0.1313  0.6643
  897MOL0     C20999   9.589   7.500   5.230 -0.3556  0.5026 -0.0753
  897MOL0     C21000   9.718   7.554   5.159 -0.7766  0.8580  0.3457
  897MOL0     C21001   9.821   7.569   5.280 -0.4711 -0.2250 -0.0059
  897MOL0     C21002   9.952   7.632   5.238 -0.5325 -0.7446 -0.4066
  897MOL0     C21003  10.048   7.610   5.356  0.2967  0.3967 -0.9771
  897MOL0     C21004  10.182   7.654   5.320 -0.2734 -0.6970 -0.4487
  897MOL0    Cl21005  10.286   7.624   5.464 -0.4030 -0.3817 -0.3509
  897MOL0     C21006   9.480   7.093   4.943 -0.4716 -0.7207 -0.3261
  897MOL0     C21007   9.549   6.980   4.897 -0.0804  1.4460  0.9321
  897MOL0     O21008   9.828   6.915   4.836  0.2183 -0.0644  0.4454
  897MOL0     C21009  10.030   6.747   4.818 -0.7287 -0.3388 -0.5897
  897MOL0     C21010  10.144   6.663   4.815 -0.2415  0.5366 -0.3250
  897MOL0     N21011  10.410   6.284   4.563 -0.1779 -0.4485  0.1022
  897MOL0     N21012  10.520   6.339   4.518 -0.7945 -0.8560  0.4822
  897MOL0     C21013  10.876   7.012   4.621 -0.0279  0.0281 -0.1383
  897MOL0     C21014  10.955   7.061   4.730 -0.1611  0.8563 -0.5503
  897MOL0     C21015  11.236   7.195   5.040  0.3832  0.2855  0.0769
  897MOL0     C21016  11.218   7.199   5.181 -0.0636 -0.6034  0.5598
  897MOL0     C21017  11.312   7.268   5.257 -0.0689 -0.0962 -0.4705
  897MOL0     C21018  11.422   7.331   5.210  0.4866  0.3656 -0.1133
  897MOL0     O21019  11.517   7.403   5.276 -0.4999  0.3339 -0.0060
  897MOL0     C21020  11.515   7.411   5.423  0.4825  0.2131  0.2572
  897MOL0     C21021  11.637   7.483   5.463 -1.2159 -0.8306  0.7923
  897MOL0     C21022  11.665   7.615   5.392 -0.4563 -0.5010 -0.6980
  897MOL0     C21023  11.808   7.674   5.437  0.6005  0.0229  0.2999
  897MOL0     C21024  11.916   7.588   5.400  0.1796 -0.3161  0.3073
  897MOL0     C21025  12.009   7.510   5.377  0.2755  0.9185 -0.6352
  897MOL0     C21026  11.444   7.327   5.071 -0.1671 -0.4973  0.7190
  897MOL0     C21027  11.354   7.255   4.989  0.2113  0.2692 -0.0537
  897MOL0     H21028  11.265   7.039   4.582 -0.4401 -1.4844 -3.5041
  897MOL0     H21029  11.139   6.985   4.405  0.7439  0.7630  1.8021
  897MOL0     H21030  10.671   6.931   4.445  0.0498  2.0510  0.6650
  897MOL0     H21031  10.709   7.067   4.330 -3.8907  0.6502  2.3092
  897MOL0     H21032  10.577   6.902   4.221 -0.2399  1.5237  4.1135
  897MOL0     H21033  10.749   6.881   4.160  1.8771  1.6318  1.8009
  897MOL0     H21034  10.729   6.698   4.375 -0.2220 -1.7250 -0.3703
  897MOL0     H21035  10.568   6.694   4.306 -0.1931  0.3780 -0.8061
  897MOL0     H21036  10.697   6.634   4.087 -0.4432 -2.5408 -1.0736
  897MOL0     H21037  10.840   6.628   4.186 -0.2596 -2.6452  1.1873
  897MOL0     H21038  10.605   6.476   4.288  0.8568  2.7748  1.9130
  897MOL0     H21039  10.695   6.410   4.147 -0.4697  0.0163 -0.0431
  897MOL0     H21040  10.913   6.443   4.275 -0.4071 -4.7548 -0.3087
  897MOL0     H21041  10.825   6.510   4.417  0.2937 -2.8145  2.3053
  897MOL0     H21042  10.727   6.246   4.334  2.7245 -3.3719 -1.6037
  897MOL0     H21043  10.897   6.252   4.387  0.0683 -0.9778 -1.2092
  897MOL0     H21044  10.779   6.395   4.594 -0.0552  0.2834 -0.9037
  897MOL0     H21045  10.829   6.222   4.582 -0.4274 -1.6238 -0.1606
  897MOL0     H21046  10.632   6.076   4.703  2.1356  0.2076 -0.3479
  897MOL0     H21047  10.236   6.157   4.714 -1.9746 -3.8207 -2.8592
  897MOL0     H21048  10.327   6.005   4.723  1.8767 -0.1015 -0.5078
  897MOL0     H21049  10.468   6.089   4.902  1.0646 -0.7693 -3.6749
  897MOL0     H21050  10.294   6.093   4.943  1.8714  0.7360  2.8054
  897MOL0     H21051  10.437   6.344   4.852 -3.1562  1.9767 -0.7593
  897MOL0     H21052  10.463   6.286   5.020 -2.1591  1.0990  1.5087
  897MOL0     H21053  10.279   6.401   5.073  2.5108 -0.1754  0.4655
  897MOL0     H21054  10.183   6.296   4.970  1.1870 -0.3617  0.4404
  897MOL0     H21055  10.008   6.408   5.003 -0.9935 -0.2039  0.3965
  897MOL0     H21056   9.856   6.473   5.144 -0.2929 -2.0069 -1.0088
  897MOL0     H21057   9.752   6.603   5.108 -1.1182 -2.1831  0.5778
  897MOL0     H21058   9.754   6.458   5.000 -0.3835 -2.3336  2.0137
  897MOL0     H21059   9.681   6.862   5.178  0.2380  0.7609 -0.5939
  897MOL0     H21060   9.559   7.069   5.275 -1.7304  1.5693 -0.3822
  897MOL0     H21061   9.576   7.341   4.994 -1.7221 -0.5748 -2.4613
  897MOL0     H21062   9.416   7.368   4.953  2.1723 -4.1074 -2.3953
  897MOL0     H21063   9.458   7.580   5.068 -2.7786  1.1796  2.3147
  897MOL0     H21064   9.375   7.489   5.190  0.7121 -1.0296  2.2062
  897MOL0     H21065   9.614   7.399   5.265  3.6629  1.2481 -0.2859
  897MOL0     H21066   9.566   7.564   5.316  1.2442  4.8780 -2.5835
  897MOL0     H21067   9.752   7.491   5.076 -1.3567  2.1987 -0.9489
  897MOL0     H21068   9.697   7.652   5.117 -1.4142  0.3675 -0.5112
  897MOL0     H21069   9.835   7.463   5.305 -1.0197 -0.9967 -2.5931
  897MOL0     H21070   9.768   7.626   5.357 -2.3709  0.3137 -1.6381
  897MOL0     H21071   9.986   7.571   5.154 -1.0752 -1.2666 -0.2536
  897MOL0     H21072   9.939   7.732   5.197  1.3869 -0.3840 -0.2252
  897MOL0     H21073  10.050   7.503   5.376 -0.2669  0.4772 -0.4468
  897MOL0     H21074  10.025   7.674   5.442 -1.5581 -1.8781  0.3468
  897MOL0     H21075  10.176   7.761   5.297  1.6186  0.0709  2.1492
  897MOL0     H21076  10.217   7.595   5.234  1.5624 -0.3437  0.0092
  897MOL0     H21077   9.429   7.164   4.879  1.5019  0.6081 -0.5101
  897MOL0     H21078   9.567   6.951   4.794  1.7445 -0.7493  1.7722
  897MOL0     H21079  10.026   6.831   4.750  1.3912  0.8640  0.6450
  897MOL0     H21080  10.227   6.680   4.747  0.6546 -0.2324  0.5379
  897MOL0     H21081  10.767   7.004   4.626 -0.0261 -1.0020 -1.1925
  897MOL0     H21082  10.908   7.075   4.827 -1.4214  2.9950 -1.4047
  897MOL0     H21083  11.130   7.165   5.235 -0.1982 -0.8901  0.1701
  897MOL0     H21084  11.285   7.267   5.362 -0.5111  1.5476 -0.5458
  897MOL0     H21085  11.432   7.456   5.478 -0.3350 -2.3740  1.2939
  897MOL0     H21086  11.526   7.306   5.453  2.0094  0.1394 -0.4721
  897MOL0     H21087  11.721   7.416   5.444 -0.9000 -0.1605 -0.3039
  897MOL0     H21088  11.635   7.504   5.570 -2.9678  3.7834  0.0782
  897MOL0     H21089  11.590   7.693   5.409  2.0595  1.3489  3.4203
  897MOL0     H21090  11.681   7.596   5.286  2.1293 -3.1142  0.0284
  897MOL0     H21091  11.814   7.672   5.546 -0.5068 -0.8979  0.3616
  897MOL0     H21092  11.830   7.775   5.401  2.2669  0.2261  1.7680
  897MOL0     H21093  12.081   7.442   5.337  0.5042  1.3262 -0.9254
  897MOL0     H21094  11.530   7.378   5.030  0.1005 -2.0092 -0.7373
  897MOL0     H21095  11.373   7.248   4.882 -1.7605 -1.1327 -0.3550
  898MOL0     O21096   0.470  11.267  10.622 -0.5314  0.1146  0.4905
  898MOL0     C21097   0.487  11.235  10.502  0.2272  0.3019 -0.5747
  898MOL0     O21098   0.449  11.110  10.451 -0.0528  0.2314 -0.7210
  898MOL0     C21099   0.382  11.029  10.542 -0.1463 -0.3866 -0.2314
  898MOL0     C21100   0.241  11.057  10.573  0.8081  0.4819  0.9379
  898MOL0     C21101   0.177  10.975  10.663  0.2158  0.6234 -0.6465
  898MOL0     C21102   0.241  10.889  10.752 -0.3068  0.0808 -0.2752
  898MOL0     O21103   0.168  10.819  10.847  0.1625  0.1561 -0.6423
  898MOL0     C21104   0.234  10.716  10.929 -0.2326  0.0132 -0.5053
  898MOL0     C21105   0.128  10.634  10.995 -0.5050 -0.0926  0.4832
  898MOL0     C21106   0.001  10.699  11.052  0.0051 -1.1302 -0.5380
  898MOL0     C21107  -0.089  10.609  11.130 -0.4381 -0.7321  0.4045
  898MOL0     C21108  -0.153  10.505  11.033 -0.5022  0.6006 -0.2031
  898MOL0     C21109  -0.260  10.419  11.116 -1.0030  0.3482 -0.2430
  898MOL0     C21110  -0.249  10.264  11.088 -0.3033 -0.7537  0.1801
  898MOL0     C21111  -0.129  10.194  11.159 -0.0809  0.6614  0.3561
  898MOL0     N21112  -0.132  10.049  11.119  0.1694 -0.0600 -0.7549
  898MOL0     C21113  -0.043   9.995  11.025 -0.3026  0.5113  0.4184
  898MOL0     C21114  -0.096   9.872  11.005 -0.7549  0.5886  0.1577
  898MOL0     C21115  -0.018   9.759  10.934  1.0515 -0.2260 -0.1073
  898MOL0     C21116  -0.062   9.730  10.782  0.6803  0.2859 -0.7646
  898MOL0     C21117  -0.214   9.753  10.749  0.1459 -0.1042  0.9367
  898MOL0     C21118  -0.321   9.667  10.806 -0.6326  0.0641 -0.4296
  898MOL0     O21119  -0.293   9.527  10.788  0.1995 -0.1598 -0.1268
  898MOL0     C21120  -0.388   9.441  10.851 -1.2732  0.6190  1.3160
  898MOL0     C21121  -0.519   9.484  10.892 -0.4342  0.2124 -0.1419
  898MOL0     C21122  -0.599   9.395  10.959  0.0406 -0.9844 -0.5010
  898MOL0     C21123  -0.730   9.447  11.003  0.0399  1.0091 -0.2572
  898MOL0     C21124  -0.567   9.263  10.969  0.1781 -0.6045 -0.4805
  898MOL0     C21125  -0.664   9.158  11.029 -0.5270  0.0673  0.9571
  898MOL0     O21126  -0.611   9.079  11.133 -0.0224 -0.0320  0.5267
  898MOL0     C21127  -0.661   8.956  11.177 -0.2731  0.1676 -0.5061
  898MOL0     C21128  -0.757   8.873  11.106 -1.4180  1.0216 -1.1947
  898MOL0     C21129  -0.784   8.742  11.152  0.3421  0.7611 -1.8422
  898MOL0     C21130  -0.731   8.699  11.275 -0.7364  0.8784  0.3546
  898MOL0     O21131  -0.768   8.581  11.334 -0.4151 -0.5719  0.3774
  898MOL0     C21132  -0.714   8.468  11.264 -0.1892 -0.6396 -0.3015
  898MOL0     C21133  -0.691   8.350  11.350 -0.5730  0.8085 -0.0152
  898MOL0     C21134  -0.826   8.293  11.389  0.2947 -0.2230  1.1068
  898MOL0     C21135  -0.784   8.169  11.471 -0.0775  0.5493 -0.6523
  898MOL0     C21136  -0.911   8.105  11.530  0.0619  0.8761  0.3731
  898MOL0     C21137  -0.882   7.994  11.626 -0.4929 -1.0537  0.1412
  898MOL0     C21138  -1.004   7.928  11.665 -0.5169  0.1084 -0.7806
  898MOL0     C21139  -1.093   8.004  11.762  1.0685 -0.1559  0.3363
  898MOL0    Cl21140  -1.245   7.921  11.792 -0.1735  0.2464  0.0326
  898MOL0     C21141  -0.644   8.792  11.342  1.0345 -0.3068 -0.4099
  898MOL0     C21142  -0.608   8.913  11.290  0.8993 -0.7015 -0.3522
  898MOL0     O21143  -0.777   9.154  10.974  0.4290 -0.3993 -0.3492
  898MOL0     C21144  -0.444   9.215  10.925 -0.8858  0.2253  0.0823
  898MOL0     C21145  -0.351   9.301  10.864 -1.2546 -0.5886  0.2398
  898MOL0     N21146  -0.209   9.856  11.077 -0.5707 -0.4967 -0.8645
  898MOL0     N21147  -0.231   9.961  11.156 -0.1366 -0.0499 -0.4611
  898MOL0     C21148   0.378  10.874  10.730  0.7673 -0.3096 -0.6413
  898MOL0     C21149   0.448  10.933  10.628  0.3273 -0.6439 -0.0428
  898MOL0     C21150   0.538  11.342  10.416 -0.1526 -0.5197  0.7109
  898MOL0     C21151   0.562  11.473  10.465 -0.2506  0.5282 -0.4934
  898MOL0     C21152   0.572  11.585  10.381 -0.3563 -0.7426  0.4195
  898MOL0     C21153   0.581  11.568  10.240  0.0025 -0.3240 -0.7096
  898MOL0     O21154   0.607  11.674  10.173  0.2790 -0.0196  0.2041
  898MOL0     C21155   0.662  11.666  10.041 -0.5303 -0.2124  0.2099
  898MOL0     C21156   0.814  11.637  10.041  0.8061  0.4484  0.4132
  898MOL0     C21157   0.878  11.700   9.910  0.0153 -0.2175 -0.2064
  898MOL0     C21158   1.025  11.714   9.939 -0.9559  0.7759 -0.4054
  898MOL0     C21159   1.111  11.765   9.833  0.0681  0.0377 -0.6422
  898MOL0     C21160   1.164  11.832   9.749 -0.1323 -0.7795  0.1299
  898MOL0     C21161   0.555  11.434  10.190 -0.3469 -0.3838  0.2807
  898MOL0     C21162   0.544  11.324  10.271  0.2005  0.1738 -0.4003
  898MOL0     H21163   0.182  11.128  10.515  2.8146  2.4281  1.1234
  898MOL0     H21164   0.068  10.976  10.661  0.1843  0.2410 -3.9917
  898MOL0     H21165   0.287  10.638  10.872 -2.6655  0.1920 -3.2160
  898MOL0     H21166   0.303  10.762  11.000  2.0786  0.1117 -2.6712
  898MOL0     H21167   0.106  10.572  10.908 -0.3857  0.9394 -0.2983
  898MOL0     H21168   0.182  10.581  11.074  1.2100 -0.0535 -0.6186
  898MOL0     H21169   0.038  10.779  11.116 -2.0664  0.4811 -1.2426
  898MOL0     H21170  -0.063  10.752  10.982  0.4775 -0.2335 -0.3021
  898MOL0     H21171  -0.036  10.555  11.210  0.7640 -0.3994 -0.1381
  898MOL0     H21172  -0.162  10.663  11.191  2.0328 -0.5617  3.5435
  898MOL0     H21173  -0.202  10.554  10.949 -0.7032  2.5679  1.0159
  898MOL0     H21174  -0.076  10.435  10.998 -0.3180  1.5422 -1.7430
  898MOL0     H21175  -0.251  10.440  11.223 -1.0800  1.9805 -0.5268
  898MOL0     H21176  -0.360  10.447  11.079 -1.6600  1.0025  1.8803
  898MOL0     H21177  -0.345  10.224  11.121 -1.2860 -0.0873 -1.7019
  898MOL0     H21178  -0.235  10.239  10.983  1.1341 -0.2622  0.2421
  898MOL0     H21179  -0.149  10.199  11.266 -0.4495  1.1111  0.2670
  898MOL0     H21180  -0.043  10.248  11.120 -1.1691  1.5860 -0.8391
  898MOL0     H21181   0.051  10.036  10.991 -0.4053 -1.0587 -2.0471
  898MOL0     H21182   0.090   9.773  10.935  0.7448  2.6528  0.6732
  898MOL0     H21183  -0.061   9.670  10.982  1.9218  1.5107  4.4727
  898MOL0     H21184  -0.044   9.624  10.763 -1.0543  0.0625 -1.2800
  898MOL0     H21185   0.003   9.783  10.712 -0.7444  0.5013 -1.9609
  898MOL0     H21186  -0.233   9.748  10.641  1.3449 -2.1462  0.7787
  898MOL0     H21187  -0.244   9.855  10.777  1.8935  0.3132  1.4247
  898MOL0     H21188  -0.422   9.671  10.765 -0.4482  0.4521 -0.8593
  898MOL0     H21189  -0.303   9.697  10.910  1.7922 -0.3651 -0.6709
  898MOL0     H21190  -0.554   9.587  10.888  1.6292  1.0234  1.0882
  898MOL0     H21191  -0.809   9.419  10.932 -0.1138 -0.8474  0.5835
  898MOL0     H21192  -0.750   9.400  11.100  0.9158 -2.5884 -1.6540
  898MOL0     H21193  -0.729   9.556  11.004 -0.1178  1.0235  1.3487
  898MOL0     H21194  -0.802   8.899  11.011  2.2341  4.6135 -2.2117
  898MOL0     H21195  -0.816   8.670  11.077  3.8815 -1.4529 -1.4848
  898MOL0     H21196  -0.764   8.428  11.175 -0.3591 -0.9201 -0.0819
  898MOL0     H21197  -0.619   8.493  11.215  1.8338 -2.1972  2.5708
  898MOL0     H21198  -0.632   8.272  11.301 -3.8984 -1.8781 -0.1148
  898MOL0     H21199  -0.638   8.383  11.440  1.4780  0.6844 -1.1357
  898MOL0     H21200  -0.878   8.271  11.295  1.9229  2.2728 -0.4857
  898MOL0     H21201  -0.891   8.361  11.444 -2.1496 -2.4589  1.2217
  898MOL0     H21202  -0.728   8.103  11.404  2.3031  1.8355 -0.0296
  898MOL0     H21203  -0.702   8.191  11.540  0.8425  1.0006 -1.8424
  898MOL0     H21204  -0.968   8.077  11.441  0.6886  0.0699  0.2126
  898MOL0     H21205  -0.959   8.182  11.591  0.2337 -0.1554  1.8700
  898MOL0     H21206  -0.812   7.927  11.576 -2.2996 -1.1098 -2.4958
  898MOL0     H21207  -0.838   8.027  11.721 -0.0551 -0.8142 -0.1456
  898MOL0     H21208  -0.987   7.832  11.713 -1.9577 -0.7472 -1.8982
  898MOL0     H21209  -1.063   7.900  11.577 -1.0743 -1.0122 -0.0720
  898MOL0     H21210  -1.115   8.099  11.711 -2.1720  0.0454  1.8631
  898MOL0     H21211  -1.034   8.023  11.852  1.4891 -1.9795  0.4728
  898MOL0     H21212  -0.598   8.754  11.432  0.2198 -1.8438 -0.6195
  898MOL0     H21213  -0.551   8.983  11.350  0.1939 -0.9268  0.6073
  898MOL0     H21214  -0.418   9.112  10.946 -1.1544 -0.3473 -2.1130
  898MOL0     H21215  -0.256   9.272  10.822  0.4733  0.7606  2.9738
  898MOL0     H21216   0.434  10.806  10.795  0.2504 -0.3363 -0.2160
  898MOL0     H21217   0.553  10.912  10.610  0.4139  0.6252 -1.1675
  898MOL0     H21218   0.569  11.490  10.572 -1.6219  0.0557 -0.3187
  898MOL0     H21219   0.583  11.687  10.415  3.0200 -0.7463 -0.3382
  898MOL0     H21220   0.617  11.585   9.983  0.1201 -0.0981 -0.4800
  898MOL0     H21221   0.642  11.762   9.993  0.1467  0.4167  1.1445
  898MOL0     H21222   0.837  11.530  10.040 -1.1130 -0.0050 -0.8299
  898MOL0     H21223   0.854  11.665  10.138  0.6765  1.5456  0.1611
  898MOL0     H21224   0.835  11.798   9.887  0.1517 -0.5412 -2.0247
  898MOL0     H21225   0.857  11.637   9.823  1.0215 -1.4958  0.4285
  898MOL0     H21226   1.053  11.613   9.970  3.4971  1.8919 -0.0713
  898MOL0     H21227   1.041  11.774  10.029 -0.9645 -0.5977  0.5342
  898MOL0     H21228   1.216  11.900   9.685  2.2467 -0.1825  2.5371
  898MOL0     H21229   0.568  11.407  10.085  2.4694 -1.5029  0.8358
  898MOL0     H21230   0.528  11.227  10.225 -0.7876 -0.5301  1.3554
  899MOL0     O21231   4.743   6.968   6.165 -0.0689  0.4489  1.2088
  899MOL0     C21232   4.628   6.941   6.156 -0.4330 -0.3272 -0.9615
  899MOL0     O21233   4.573   6.820   6.161 -0.0400  0.0211 -0.5994
  899MOL0     C21234   4.643   6.704   6.214 -0.4494  0.7788 -0.3549
  899MOL0     C21235   4.562   6.592   6.214  0.1909 -0.2095 -0.2132
  899MOL0     C21236   4.597   6.474   6.292  0.1969 -0.6418  0.4617
  899MOL0     C21237   4.719   6.482   6.362 -0.6074 -0.4784  0.1064
  899MOL0     O21238   4.767   6.365   6.423 -0.0009 -0.4025 -0.1406
  899MOL0     C21239   4.692   6.341   6.543  0.1676  0.0950 -0.4133
  899MOL0     C21240   4.767   6.228   6.622 -0.4984 -0.4442  1.0236
  899MOL0     C21241   4.772   6.087   6.564 -0.0351  0.0192  0.5182
  899MOL0     C21242   4.746   5.986   6.674 -0.0635  0.0747 -0.3413
  899MOL0     C21243   4.711   5.856   6.613  0.1341 -0.5280  0.0203
  899MOL0     C21244   4.711   5.744   6.720  0.2022 -0.5463 -0.4399
  899MOL0     C21245   4.663   5.611   6.660  0.9151 -0.3016 -0.4135
  899MOL0     C21246   4.677   5.489   6.744 -0.1506  0.0870 -0.0214
  899MOL0     N21247   4.624   5.374   6.672  0.0259  0.2488 -0.7907
  899MOL0     C21248   4.692   5.296   6.577 -0.5728 -0.8461 -0.5268
  899MOL0     C21249   4.605   5.192   6.566  0.0854  0.5451 -0.4377
  899MOL0     C21250   4.630   5.074   6.472  0.8821  0.1292  0.3234
  899MOL0     C21251   4.518   5.076   6.364 -0.0114  0.5484  0.6569
  899MOL0     C21252   4.425   4.959   6.387 -0.6689  1.2011  0.3879
  899MOL0     C21253   4.327   4.948   6.275  0.2282 -0.0478  0.2426
  899MOL0     O21254   4.237   4.846   6.325  0.3644  0.1817 -0.5895
  899MOL0     C21255   4.116   4.830   6.254  0.3915  0.1560 -0.0771
  899MOL0     C21256   4.088   4.894   6.136  0.5582 -0.3960 -0.4819
  899MOL0     C21257   3.964   4.869   6.069  0.1375 -0.1517  0.2282
  899MOL0     C21258   3.957   4.959   5.948 -0.3017  0.0079 -0.4584
  899MOL0     C21259   3.870   4.777   6.120 -0.2465  0.6354  0.0405
  899MOL0     C21260   3.741   4.750   6.052 -0.1699 -0.8943  0.0050
  899MOL0     O21261   3.623   4.762   6.133 -0.0127 -0.4758  0.3695
  899MOL0     C21262   3.529   4.677   6.095  0.0547  0.3425 -0.4466
  899MOL0     C21263   3.434   4.719   6.004 -0.0083  0.6325 -0.0989
  899MOL0     C21264   3.305   4.662   6.004 -0.5100  0.8772  0.3018
  899MOL0     C21265   3.267   4.553   6.083 -0.1148 -1.0257 -0.5615
  899MOL0     O21266   3.131   4.522   6.085  1.1124  0.7307 -0.5551
  899MOL0     C21267   3.083   4.412   6.165 -0.2834  0.6083 -0.9646
  899MOL0     C21268   2.940   4.354   6.127 -0.0774  1.2526  0.8881
  899MOL0     C21269   2.945   4.289   5.978 -0.7758  0.2129  0.1243
  899MOL0     C21270   2.807   4.249   5.933 -0.8733 -0.6728  0.8347
  899MOL0     C21271   2.806   4.169   5.798  0.3694 -0.0179 -0.7387
  899MOL0     C21272   2.851   4.256   5.679  0.3593  0.2862  0.1223
  899MOL0     C21273   2.807   4.221   5.538  0.0455  0.5885 -0.0431
  899MOL0     C21274   2.882   4.315   5.437 -0.4044  0.6297 -0.3279
  899MOL0    Cl21275   2.752   4.386   5.335 -0.0886  0.0371  0.1754
  899MOL0     C21276   3.372   4.501   6.167 -0.5236  0.1060  0.6060
  899MOL0     C21277   3.496   4.563   6.174 -0.4088 -0.2142 -0.2082
  899MOL0     O21278   3.737   4.728   5.932 -0.2989 -0.4566  0.0008
  899MOL0     C21279   3.898   4.725   6.248  0.0665  0.0461 -0.5207
  899MOL0     C21280   4.019   4.752   6.311  0.8114  0.9532 -0.0856
  899MOL0     N21281   4.490   5.217   6.646 -0.3353 -0.3870  0.4885
  899MOL0     N21282   4.504   5.332   6.706 -0.2107  0.6996  0.2469
  899MOL0     C21283   4.806   6.591   6.346  0.1435  0.1332  0.3033
  899MOL0     C21284   4.772   6.708   6.275 -0.9506  0.1060  0.6359
  899MOL0     C21285   4.535   7.052   6.099 -0.7719 -1.1771  0.1555
  899MOL0     C21286   4.585   7.166   6.038 -0.2660  0.7530  0.2865
  899MOL0     C21287   4.509   7.268   5.980 -0.3806 -0.1442  0.4971
  899MOL0     C21288   4.373   7.247   5.962  0.7648 -0.4901  0.7942
  899MOL0     O21289   4.282   7.338   5.903  0.3707  0.7961  1.0011
  899MOL0     C21290   4.335   7.455   5.823  0.1041 -0.1838 -0.8018
  899MOL0     C21291   4.228   7.544   5.767  0.1921  0.7648 -0.4995
  899MOL0     C21292   4.143   7.465   5.665  0.6258 -0.0948  0.2102
  899MOL0     C21293   4.066   7.558   5.572  0.3087 -0.4723 -0.0594
  899MOL0     C21294   4.152   7.632   5.478  0.5212  0.6278 -0.4864
  899MOL0     C21295   4.224   7.689   5.408 -0.5746 -0.8691  0.0372
  899MOL0     C21296   4.319   7.133   6.019 -0.1384  0.2579 -0.4318
  899MOL0     C21297   4.395   7.044   6.091 -0.3971  1.1706  0.2087
  899MOL0     H21298   4.460   6.596   6.175  0.6332  0.1808 -1.3898
  899MOL0     H21299   4.547   6.378   6.297  0.7062 -0.9934 -0.6591
  899MOL0     H21300   4.675   6.432   6.602 -2.9165  0.0646 -1.1010
  899MOL0     H21301   4.597   6.291   6.520 -0.5882  2.4293 -2.8168
  899MOL0     H21302   4.871   6.259   6.636  0.6872 -1.8820 -3.2914
  899MOL0     H21303   4.729   6.223   6.725 -0.2945  0.4048  1.1488
  899MOL0     H21304   4.697   6.079   6.485  1.0938  1.0223 -0.6748
  899MOL0     H21305   4.871   6.056   6.531 -0.1021 -0.3403  0.6453
  899MOL0     H21306   4.839   5.969   6.728 -2.1450 -1.8948  2.9472
  899MOL0     H21307   4.663   6.015   6.739 -0.6641 -0.0589 -1.0267
  899MOL0     H21308   4.611   5.859   6.570  0.1877  0.7602 -0.0488
  899MOL0     H21309   4.789   5.832   6.539 -2.2024 -1.6006 -2.2852
  899MOL0     H21310   4.809   5.740   6.769  0.3618  2.1958 -0.3662
  899MOL0     H21311   4.645   5.777   6.801  0.9652 -1.5633  0.6382
  899MOL0     H21312   4.557   5.634   6.649  1.4800  5.1842  1.9325
  899MOL0     H21313   4.698   5.603   6.556  1.3433 -0.0069 -0.2999
  899MOL0     H21314   4.627   5.506   6.839 -0.0077 -1.0895  0.2780
  899MOL0     H21315   4.781   5.466   6.770  0.7593  1.5446 -2.0847
  899MOL0     H21316   4.795   5.307   6.544 -0.7085 -0.7166 -0.9195
  899MOL0     H21317   4.724   5.087   6.417 -1.0957  1.5535 -3.0625
  899MOL0     H21318   4.635   4.985   6.534  0.1838 -0.5895 -0.6228
  899MOL0     H21319   4.569   5.067   6.268 -0.5213 -1.8493  0.5511
  899MOL0     H21320   4.461   5.169   6.355 -0.3854  0.3513  0.9363
  899MOL0     H21321   4.378   4.975   6.485  1.0055 -3.0118  2.1120
  899MOL0     H21322   4.480   4.865   6.398 -0.4020  1.2004 -0.8599
  899MOL0     H21323   4.365   4.915   6.178  1.6014  3.4872 -0.5527
  899MOL0     H21324   4.285   5.047   6.255 -0.0925 -0.5178 -1.5631
  899MOL0     H21325   4.148   4.971   6.088 -0.9521  3.0262  2.6451
  899MOL0     H21326   3.937   5.060   5.985 -2.6159 -0.6653  0.2572
  899MOL0     H21327   4.053   4.956   5.896  0.9413  3.6385  1.2905
  899MOL0     H21328   3.888   4.933   5.868  0.2973 -0.8094 -0.7255
  899MOL0     H21329   3.463   4.804   5.944  4.0546  2.1107  3.4206
  899MOL0     H21330   3.231   4.703   5.935  0.3763 -0.6395 -1.6637
  899MOL0     H21331   3.145   4.325   6.187 -1.1778  0.6576  2.1095
  899MOL0     H21332   3.076   4.464   6.261  4.6943 -1.5899  0.9227
  899MOL0     H21333   2.904   4.285   6.204 -2.7514  1.6732  0.1355
  899MOL0     H21334   2.862   4.431   6.122 -1.8503 -0.4783  0.8698
  899MOL0     H21335   2.998   4.194   5.979  0.5141  0.8913 -0.9458
  899MOL0     H21336   2.986   4.362   5.907 -1.8711  1.2590  0.5223
  899MOL0     H21337   2.759   4.183   6.005 -0.8406 -1.5565  0.0596
  899MOL0     H21338   2.748   4.340   5.917 -1.8231 -1.3972  0.1444
  899MOL0     H21339   2.720   4.107   5.770  3.9863 -6.7393  0.8846
  899MOL0     H21340   2.882   4.091   5.792 -0.9133 -1.3778 -0.2038
  899MOL0     H21341   2.811   4.355   5.699  0.4247  0.6803 -1.5919
  899MOL0     H21342   2.960   4.268   5.679  0.3281  0.5688 -0.1144
  899MOL0     H21343   2.698   4.233   5.532  0.1938  1.4503 -1.1884
  899MOL0     H21344   2.831   4.114   5.538 -0.5931  0.4397  0.1910
  899MOL0     H21345   2.953   4.259   5.376  3.4669  0.1733  4.0861
  899MOL0     H21346   2.938   4.392   5.491 -0.2264 -1.4062  2.6243
  899MOL0     H21347   3.342   4.423   6.237 -2.3292 -2.4755 -2.6726
  899MOL0     H21348   3.577   4.529   6.237 -0.6269  0.3326  0.3761
  899MOL0     H21349   3.827   4.672   6.311  1.2853  1.0138  1.7970
  899MOL0     H21350   4.036   4.720   6.413 -3.0484  1.5079  0.8744
  899MOL0     H21351   4.908   6.585   6.384  0.5393 -0.5177 -0.8007
  899MOL0     H21352   4.842   6.790   6.264  0.6892 -1.3986 -0.7805
  899MOL0     H21353   4.693   7.174   6.036 -0.0935 -1.1186 -1.5803
  899MOL0     H21354   4.566   7.359   5.965  3.2813 -1.7870  2.7241
  899MOL0     H21355   4.381   7.521   5.897  0.2910  0.3167 -1.3516
  899MOL0     H21356   4.418   7.435   5.755 -0.2556 -1.3893 -0.9124
  899MOL0     H21357   4.276   7.636   5.732  2.0473  1.0611  2.4193
  899MOL0     H21358   4.159   7.583   5.842 -1.6188 -1.3329 -0.9866
  899MOL0     H21359   4.076   7.401   5.723 -1.5348  1.9855  0.1789
  899MOL0     H21360   4.203   7.402   5.598  4.9109  0.8397  2.8116
  899MOL0     H21361   4.019   7.637   5.631  1.0456  0.0254 -0.1207
  899MOL0     H21362   3.988   7.507   5.515  0.0290 -0.3474  0.2140
  899MOL0     H21363   4.280   7.767   5.361 -0.5721  0.5930  2.2979
  899MOL0     H21364   4.213   7.119   6.007 -0.1095  0.6878 -1.2408
  899MOL0     H21365   4.343   6.954   6.121  0.0817  1.3335  1.6105
  900MOL0     O21366   4.331   2.659   1.691  0.6261  0.2398  0.0532
  900MOL0     C21367   4.273   2.729   1.770  1.0823 -0.3464 -1.0504
  900MOL0     O21368   4.225   2.683   1.893 -0.2336  0.5161  0.4156
  900MOL0     C21369   4.234   2.553   1.936 -0.6450  0.8397  0.4063
  900MOL0     C21370   4.360   2.487   1.955  0.6500  0.5074  0.3075
  900MOL0     C21371   4.371   2.359   2.010 -1.0138  0.8264 -0.2700
  900MOL0     C21372   4.258   2.296   2.062 -0.5094  0.1982  1.0331
  900MOL0     O21373   4.287   2.175   2.121 -0.2025  0.4471  0.0101
  900MOL0     C21374   4.189   2.078   2.120 -0.0159  0.9255 -0.1433
  900MOL0     C21375   4.256   1.944   2.086  0.5620 -0.7637 -0.1969
  900MOL0     C21376   4.333   1.898   2.216 -0.0133 -0.6244  0.8519
  900MOL0     C21377   4.393   1.759   2.202 -0.5319 -0.4413 -0.5367
  900MOL0     C21378   4.460   1.719   2.334  0.0695 -0.5255 -0.0740
  900MOL0     C21379   4.547   1.594   2.328 -0.0703 -0.3522  0.4772
  900MOL0     C21380   4.455   1.467   2.359  0.2740 -0.1463  0.6194
  900MOL0     C21381   4.409   1.396   2.232  0.1007  0.5370  0.2081
  900MOL0     N21382   4.328   1.272   2.267 -1.0660  0.5804 -0.7316
  900MOL0     C21383   4.384   1.145   2.281  0.0203  0.6368 -0.0425
  900MOL0     C21384   4.284   1.065   2.250 -0.0518  0.0011 -0.6703
  900MOL0     C21385   4.289   0.913   2.247 -0.5928  0.1608  1.1074
  900MOL0     C21386   4.162   0.848   2.313 -0.4324 -0.4345 -0.2343
  900MOL0     C21387   4.087   0.743   2.232  0.3911  0.7270  0.4574
  900MOL0     C21388   4.000   0.822   2.126  0.2616 -0.8018 -0.3911
  900MOL0     O21389   3.904   0.734   2.075  0.0591 -0.0804  0.7831
  900MOL0     C21390   3.789   0.694   2.153  0.2165 -0.1686 -0.1715
  900MOL0     C21391   3.693   0.606   2.097 -0.2497  0.3629  0.6327
  900MOL0     C21392   3.592   0.541   2.171  0.0663 -0.6684  0.1957
  900MOL0     C21393   3.493   0.457   2.095 -0.4494 -1.1698 -0.4161
  900MOL0     C21394   3.595   0.562   2.313  0.5449  0.1493  0.3498
  900MOL0     C21395   3.504   0.497   2.402 -0.1747  0.4613 -0.4208
  900MOL0     O21396   3.375   0.485   2.361 -0.4099  0.4440  0.6311
  900MOL0     C21397   3.272   0.444   2.437  0.4548 -0.0889 -0.4572
  900MOL0     C21398   3.262   0.424   2.579 -0.4981 -0.5133  0.9432
  900MOL0     C21399   3.139   0.372   2.627  0.3202  0.4982  0.4856
  900MOL0     C21400   3.024   0.354   2.546 -0.0067 -0.1776 -0.2506
  900MOL0     O21401   2.898   0.331   2.603  0.1766  0.1588  0.4023
  900MOL0     C21402   2.854   0.369   2.737  1.6093 -0.5477  1.0911
  900MOL0     C21403   2.702   0.358   2.741  0.2774 -0.8379  0.1394
  900MOL0     C21404   2.640   0.494   2.701  0.0715  0.1724 -0.0738
  900MOL0     C21405   2.478   0.487   2.719 -0.3211  0.1803  0.8863
  900MOL0     C21406   2.401   0.588   2.631 -0.3832  0.5473  0.7992
  900MOL0     C21407   2.411   0.563   2.477  0.0834 -0.0170 -0.0415
  900MOL0     C21408   2.399   0.422   2.437 -0.5840 -0.5114 -0.2259
  900MOL0     C21409   2.373   0.403   2.282 -0.2558  0.0437 -0.3745
  900MOL0    Cl21410   2.426   0.226   2.257 -0.3518 -0.4852  0.2360
  900MOL0     C21411   3.047   0.352   2.412 -1.4335  0.0265 -0.8004
  900MOL0     C21412   3.165   0.400   2.359 -0.2770  0.2867  0.0293
  900MOL0     O21413   3.548   0.460   2.510  0.0973 -0.3151 -1.1352
  900MOL0     C21414   3.678   0.663   2.366 -0.1215  0.5403  0.5586
  900MOL0     C21415   3.773   0.730   2.287 -0.8864  0.9853  0.1095
  900MOL0     N21416   4.175   1.141   2.215  1.8627 -0.0195  0.0820
  900MOL0     N21417   4.204   1.272   2.224 -0.0642  1.5111 -0.8228
  900MOL0     C21418   4.132   2.356   2.035 -0.7103 -0.1017  1.0551
  900MOL0     C21419   4.117   2.477   1.969 -1.0096 -0.4414  0.7055
  900MOL0     C21420   4.247   2.861   1.724  0.3479 -0.1234  0.4554
  900MOL0     C21421   4.278   2.897   1.591  0.9881  0.5110  0.0642
  900MOL0     C21422   4.283   3.033   1.550  0.9900  0.3751 -0.3645
  900MOL0     C21423   4.246   3.128   1.642  0.8485 -0.3214  0.5170
  900MOL0     O21424   4.264   3.260   1.610 -0.6109 -0.1477  0.2561
  900MOL0     C21425   4.270   3.350   1.722 -0.4795 -0.7399 -0.9356
  900MOL0     C21426   4.302   3.491   1.668  0.2989  1.1817 -0.5779
  900MOL0     C21427   4.176   3.570   1.630  0.4892  0.9168  0.6824
  900MOL0     C21428   4.215   3.716   1.612  0.3506 -0.9073 -0.6065
  900MOL0     C21429   4.251   3.784   1.735 -1.0243  0.0091 -0.1532
  900MOL0     C21430   4.279   3.846   1.837  0.4141 -0.5116  0.1513
  900MOL0     C21431   4.213   3.091   1.768  0.5293 -0.5452 -0.4607
  900MOL0     C21432   4.207   2.966   1.805  0.0484  0.8993 -0.3021
  900MOL0     H21433   4.448   2.536   1.915 -0.2129  1.4022 -0.5698
  900MOL0     H21434   4.466   2.313   2.034  0.0154  2.8620 -0.2430
  900MOL0     H21435   4.151   2.072   2.223  3.1283 -0.2348  1.0564
  900MOL0     H21436   4.112   2.096   2.044  0.0856  1.0036 -0.2274
  900MOL0     H21437   4.179   1.871   2.059 -0.7843  0.2288  0.8534
  900MOL0     H21438   4.334   1.957   2.010  1.3811  1.5819  0.9644
  900MOL0     H21439   4.403   1.978   2.241 -0.7735  0.0212  0.9520
  900MOL0     H21440   4.261   1.896   2.299 -1.5468  0.1240 -0.3959
  900MOL0     H21441   4.313   1.685   2.191 -0.3334 -1.2546  2.4827
  900MOL0     H21442   4.457   1.741   2.115 -1.9007 -2.7839 -1.1505
  900MOL0     H21443   4.529   1.800   2.360  0.6818 -0.1957 -2.4848
  900MOL0     H21444   4.384   1.712   2.413 -0.7815  1.3223 -0.6757
  900MOL0     H21445   4.610   1.591   2.238  1.4299 -1.2945  1.5065
  900MOL0     H21446   4.623   1.588   2.406  0.4376 -5.3041 -0.0476
  900MOL0     H21447   4.514   1.389   2.407 -3.0677 -1.3499  3.1848
  900MOL0     H21448   4.365   1.487   2.418 -2.8965  3.4471 -4.5540
  900MOL0     H21449   4.495   1.363   2.175 -0.8717  0.1583 -1.0952
  900MOL0     H21450   4.358   1.468   2.167 -1.0760  0.9114  1.4889
  900MOL0     H21451   4.488   1.119   2.298 -0.1025  0.6864  0.8823
  900MOL0     H21452   4.281   0.899   2.139  1.7218 -0.5196  0.9612
  900MOL0     H21453   4.384   0.877   2.288 -0.5515 -1.9248 -0.6030
  900MOL0     H21454   4.087   0.918   2.350 -0.0277 -0.4235  0.6094
  900MOL0     H21455   4.191   0.807   2.410 -0.6627  2.0071  0.9579
  900MOL0     H21456   4.037   0.672   2.298  0.8207  0.3538  0.3841
  900MOL0     H21457   4.153   0.674   2.179  3.2310  3.7469 -0.2597
  900MOL0     H21458   4.072   0.859   2.052 -0.5903  0.6415 -0.5338
  900MOL0     H21459   3.949   0.909   2.167  0.2726 -1.4051  0.9630
  900MOL0     H21460   3.710   0.583   1.992  3.6129  0.7870  1.0058
  900MOL0     H21461   3.413   0.524   2.063 -1.3130 -1.5191  0.9272
  900MOL0     H21462   3.533   0.420   2.000 -0.3859  1.0401 -1.3154
  900MOL0     H21463   3.442   0.382   2.156  0.5438 -1.0648  0.5743
  900MOL0     H21464   3.337   0.437   2.656  1.0755  1.8126 -0.8540
  900MOL0     H21465   3.125   0.361   2.734 -2.6214 -2.8624 -0.0520
  900MOL0     H21466   2.887   0.307   2.821  3.1704  0.3165  1.1528
  900MOL0     H21467   2.874   0.475   2.756 -1.8537  0.0783  1.8174
  900MOL0     H21468   2.673   0.294   2.658 -0.6369  2.1394 -1.9787
  900MOL0     H21469   2.676   0.323   2.842  1.1135  0.9674  1.0400
  900MOL0     H21470   2.650   0.500   2.592 -0.9375  1.6339 -0.1089
  900MOL0     H21471   2.685   0.576   2.757  1.3310 -1.1052  0.8318
  900MOL0     H21472   2.444   0.387   2.691  1.9604  0.1341 -2.4051
  900MOL0     H21473   2.458   0.507   2.824  0.7263  3.0366  0.6517
  900MOL0     H21474   2.438   0.687   2.660  0.2725  0.1101  1.4767
  900MOL0     H21475   2.297   0.586   2.662 -0.9328 -0.3129 -0.9652
  900MOL0     H21476   2.340   0.635   2.434 -0.6496 -0.9003 -0.3253
  900MOL0     H21477   2.514   0.589   2.449  2.3790 -2.6373  4.7013
  900MOL0     H21478   2.322   0.379   2.502 -3.4005  3.5499 -0.5078
  900MOL0     H21479   2.498   0.380   2.455 -0.0448  0.7670 -0.0666
  900MOL0     H21480   2.418   0.466   2.204 -0.3072 -2.4511 -2.5890
  900MOL0     H21481   2.264   0.413   2.277 -0.2133  0.9821  0.4336
  900MOL0     H21482   2.969   0.326   2.342  0.2244 -0.6289 -2.4884
  900MOL0     H21483   3.171   0.418   2.252 -1.3488  1.7770  0.1973
  900MOL0     H21484   3.670   0.683   2.472 -1.6652 -1.0946  0.7918
  900MOL0     H21485   3.833   0.812   2.325  1.0217 -0.0513 -0.5370
  900MOL0     H21486   4.036   2.312   2.059 -0.1454 -1.8340  0.3393
  900MOL0     H21487   4.021   2.522   1.943  1.0821  1.8349 -4.3621
  900MOL0     H21488   4.312   2.824   1.518  1.7462  0.9026  0.0129
  900MOL0     H21489   4.314   3.059   1.449  0.3096 -1.6327 -1.1380
  900MOL0     H21490   4.184   3.355   1.789 -0.1242 -2.3166 -0.3236
  900MOL0     H21491   4.351   3.321   1.789 -0.7838  3.1717  1.4566
  900MOL0     H21492   4.373   3.494   1.584 -1.3515 -1.1293 -2.1642
  900MOL0     H21493   4.349   3.531   1.758 -1.6736 -0.5933  1.3495
  900MOL0     H21494   4.099   3.559   1.706  1.3214  0.9581  1.5452
  900MOL0     H21495   4.149   3.526   1.533 -0.3113  1.4765  0.6375
  900MOL0     H21496   4.133   3.773   1.566 -0.6021  0.2479  2.2716
  900MOL0     H21497   4.306   3.719   1.551  1.1615  1.2020  0.5867
  900MOL0     H21498   4.277   3.904   1.927  0.4047  3.5111 -2.1816
  900MOL0     H21499   4.182   3.159   1.847 -2.3192 -0.0710 -1.8589
  900MOL0     H21500   4.168   2.939   1.902  0.3159  0.9807 -0.1710
  901MOL0     O21501   8.113   7.675   1.345  0.6769 -0.5428  0.8100
  901MOL0     C21502   8.155   7.614   1.249 -0.4235  0.2214  0.5150
  901MOL0     O21503   8.087   7.513   1.187 -0.0270  0.4473  0.0800
  901MOL0     C21504   7.966   7.458   1.217  1.2826 -0.2920  0.2462
  901MOL0     C21505   7.939   7.335   1.167  0.5600  0.1726  0.3939
  901MOL0     C21506   7.810   7.284   1.164 -0.3986 -0.4575 -0.0406
  901MOL0     C21507   7.713   7.343   1.244 -1.3618 -0.1686 -0.1457
  901MOL0     O21508   7.593   7.288   1.273  0.2871  0.5051  0.8409
  901MOL0     C21509   7.510   7.279   1.154 -0.1189 -0.1966 -0.3262
  901MOL0     C21510   7.465   7.410   1.101  0.7561 -0.2858 -0.5192
  901MOL0     C21511   7.343   7.433   1.015  0.1742 -0.0648 -0.1569
  901MOL0     C21512   7.350   7.352   0.888  1.1124 -0.0750 -0.6295
  901MOL0     C21513   7.262   7.417   0.771 -0.3524 -0.2117 -0.2497
  901MOL0     C21514   7.114   7.430   0.789 -0.2471  0.5419 -0.0754
  901MOL0     C21515   7.049   7.533   0.695 -0.5115 -0.4066 -0.0042
  901MOL0     C21516   6.902   7.520   0.663  0.9944 -0.4773  0.7161
  901MOL0     N21517   6.867   7.384   0.606 -0.4549  0.4124  0.0119
  901MOL0     C21518   6.883   7.344   0.473  0.2928  0.4969  0.1272
  901MOL0     C21519   6.861   7.208   0.457  0.8795 -0.2588 -0.1189
  901MOL0     C21520   6.869   7.141   0.326  0.2155  0.6056  0.0648
  901MOL0     C21521   6.776   7.014   0.310 -0.5090 -0.3878 -0.1952
  901MOL0     C21522   6.624   7.040   0.321  0.6681  0.2230  0.6230
  901MOL0     C21523   6.560   7.094   0.451  0.7640  0.1390 -1.1413
  901MOL0     O21524   6.421   7.094   0.417 -0.4431 -0.1040 -0.0154
  901MOL0     C21525   6.319   7.081   0.508 -0.0475 -0.5141 -0.3554
  901MOL0     C21526   6.337   7.088   0.649 -0.3663  0.0164 -0.0969
  901MOL0     C21527   6.224   7.063   0.738  0.3040 -0.1683 -0.2919
  901MOL0     C21528   6.257   7.055   0.888  0.5380  0.3263 -0.3762
  901MOL0     C21529   6.091   7.051   0.687 -0.6501  0.5591 -0.1506
  901MOL0     C21530   5.971   7.038   0.765 -0.4657 -0.4852 -0.0081
  901MOL0     O21531   5.859   7.008   0.700 -0.1934  0.7092 -0.3567
  901MOL0     C21532   5.751   7.081   0.740 -1.1049  0.6486 -0.5541
  901MOL0     C21533   5.748   7.222   0.767 -0.6897  0.5599  0.2538
  901MOL0     C21534   5.632   7.280   0.820  0.1082  0.3087  0.4403
  901MOL0     C21535   5.517   7.206   0.841  0.3286  0.1393  0.6630
  901MOL0     O21536   5.403   7.282   0.864  0.4844 -0.6986  0.2615
  901MOL0     C21537   5.276   7.223   0.897  0.9775 -0.7085  0.3143
  901MOL0     C21538   5.164   7.320   0.922  0.1724  0.4773  0.5398
  901MOL0     C21539   5.185   7.375   1.065  0.3608 -0.7389 -0.2672
  901MOL0     C21540   5.112   7.499   1.110 -0.6234  0.1838  0.8960
  901MOL0     C21541   4.969   7.470   1.144 -0.7965  0.6209  0.1981
  901MOL0     C21542   4.891   7.601   1.179  0.4867  0.0013  0.0205
  901MOL0     C21543   4.747   7.566   1.234 -0.2506 -0.3517  0.3893
  901MOL0     C21544   4.676   7.682   1.306  0.0124 -0.5889 -0.3621
  901MOL0    Cl21545   4.513   7.628   1.339 -0.2637 -0.1832 -0.2910
  901MOL0     C21546   5.513   7.066   0.826 -0.3241  0.4004 -0.0506
  901MOL0     C21547   5.632   7.006   0.776  0.0523 -0.1667  0.9383
  901MOL0     O21548   5.976   7.070   0.881  0.8212  0.4466 -0.6387
  901MOL0     C21549   6.078   7.047   0.543 -0.3119 -0.4208 -0.2555
  901MOL0     C21550   6.192   7.056   0.463 -0.1680  0.0187 -0.0362
  901MOL0     N21551   6.839   7.162   0.587 -0.2142 -0.2221 -0.3309
  901MOL0     N21552   6.842   7.267   0.667 -0.1989 -0.0174  0.0153
  901MOL0     C21553   7.746   7.461   1.313 -0.0315  0.0977  0.2747
  901MOL0     C21554   7.859   7.527   1.285 -0.3819  0.2715 -0.0710
  901MOL0     C21555   8.265   7.667   1.172  0.1564  0.1030 -0.1541
  901MOL0     C21556   8.302   7.618   1.041 -0.7492  0.2953 -0.1441
  901MOL0     C21557   8.415   7.669   0.979  0.4657  0.5190 -0.0728
  901MOL0     C21558   8.496   7.770   1.035  0.6061  0.7726  0.4441
  901MOL0     O21559   8.599   7.837   0.977  0.3654 -0.2421  0.3652
  901MOL0     C21560   8.705   7.751   0.934  0.0994  0.1834  0.0100
  901MOL0     C21561   8.842   7.831   0.953  0.8489 -0.3457 -0.8501
  901MOL0     C21562   8.871   7.878   1.093 -0.3767  0.1638  0.0752
  901MOL0     C21563   9.001   7.956   1.099  0.0359  0.1264  1.0125
  901MOL0     C21564   9.053   7.997   1.227 -0.7184  0.3662 -0.8388
  901MOL0     C21565   9.102   8.038   1.331  0.0083  0.7647 -0.7360
  901MOL0     C21566   8.455   7.823   1.160  0.1502 -1.6835  0.7191
  901MOL0     C21567   8.342   7.770   1.224 -0.6029 -0.3168 -0.3248
  901MOL0     H21568   8.008   7.289   1.097  1.0376  2.2930 -0.6010
  901MOL0     H21569   7.789   7.192   1.110  0.1033  0.5890 -2.1019
  901MOL0     H21570   7.560   7.218   1.078  0.7607 -0.4201  0.4190
  901MOL0     H21571   7.416   7.234   1.187 -0.3244  0.1708 -0.4050
  901MOL0     H21572   7.446   7.484   1.180 -1.5283 -2.1638  0.8308
  901MOL0     H21573   7.548   7.455   1.045  0.1805 -0.6789 -1.7285
  901MOL0     H21574   7.245   7.422   1.062  0.1917 -1.7964 -0.4893
  901MOL0     H21575   7.345   7.538   0.984 -0.8112 -0.2880 -1.0438
  901MOL0     H21576   7.452   7.345   0.850  1.3980 -0.6195  0.1945
  901MOL0     H21577   7.317   7.251   0.914 -0.6321  0.4747 -0.6085
  901MOL0     H21578   7.310   7.515   0.761  4.1603 -1.7878  2.8299
  901MOL0     H21579   7.288   7.366   0.677  0.9933  1.8748 -1.0835
  901MOL0     H21580   7.058   7.335   0.783 -0.6314  0.7254  0.5309
  901MOL0     H21581   7.088   7.456   0.892 -2.3821  0.6934 -0.5925
  901MOL0     H21582   7.063   7.632   0.739 -2.0399  1.4300 -3.3015
  901MOL0     H21583   7.103   7.537   0.600  0.8353 -1.1561  0.6849
  901MOL0     H21584   6.871   7.593   0.587 -0.7097 -1.1819  0.6938
  901MOL0     H21585   6.844   7.524   0.755 -0.9635 -1.1246 -0.4297
  901MOL0     H21586   6.907   7.409   0.389 -1.5857 -0.1551 -0.9685
  901MOL0     H21587   6.849   7.206   0.240  5.3628  1.2062 -0.9973
  901MOL0     H21588   6.971   7.114   0.299  0.2202  0.4697  0.2125
  901MOL0     H21589   6.793   6.935   0.383 -0.3036  0.8502  1.1364
  901MOL0     H21590   6.797   6.985   0.207  3.4654 -0.1089  0.3756
  901MOL0     H21591   6.580   6.941   0.305  1.2697  0.2680 -1.7474
  901MOL0     H21592   6.604   7.092   0.227  0.9222 -1.8992 -0.6673
  901MOL0     H21593   6.613   7.186   0.477  0.6769  1.0269 -3.8018
  901MOL0     H21594   6.591   7.037   0.539  2.6621  1.1540 -1.0968
  901MOL0     H21595   6.435   7.098   0.694 -0.6687 -0.1290  0.6093
  901MOL0     H21596   6.229   7.151   0.932 -0.6541  1.3555 -3.1220
  901MOL0     H21597   6.188   6.978   0.921 -2.1460  2.4970 -0.5380
  901MOL0     H21598   6.363   7.036   0.905  0.4868 -0.1618 -0.5810
  901MOL0     H21599   5.845   7.269   0.758  0.1437 -1.0802  0.1708
  901MOL0     H21600   5.622   7.385   0.843  0.8459 -0.3575  4.7114
  901MOL0     H21601   5.240   7.153   0.821 -0.0878 -0.1131  0.2595
  901MOL0     H21602   5.288   7.179   0.997  2.1282 -2.7222 -0.6483
  901MOL0     H21603   5.168   7.405   0.854 -0.7065 -0.5003 -0.7719
  901MOL0     H21604   5.068   7.269   0.919 -0.1065  0.9720  0.9161
  901MOL0     H21605   5.291   7.398   1.080  0.4965 -2.1956  1.2296
  901MOL0     H21606   5.150   7.299   1.135  0.9801 -1.5239 -0.7979
  901MOL0     H21607   5.160   7.537   1.201  1.1687 -4.7771  2.3218
  901MOL0     H21608   5.112   7.575   1.031  0.8752 -0.8279 -0.1327
  901MOL0     H21609   4.951   7.402   1.228 -1.9046  0.4808 -0.1401
  901MOL0     H21610   4.930   7.427   1.051  1.5061 -2.1219  0.3569
  901MOL0     H21611   4.953   7.637   1.261  0.2110 -2.5593  1.4563
  901MOL0     H21612   4.884   7.669   1.093 -2.5293 -0.1789 -0.0113
  901MOL0     H21613   4.769   7.480   1.298  3.1601 -0.4992 -0.7335
  901MOL0     H21614   4.688   7.520   1.154  0.6223  0.5210 -0.7997
  901MOL0     H21615   4.670   7.777   1.252 -4.9686 -0.5557 -0.1763
  901MOL0     H21616   4.723   7.698   1.404  3.3493 -0.9316 -1.7492
  901MOL0     H21617   5.429   7.001   0.844 -2.4089  3.5480  2.8830
  901MOL0     H21618   5.630   6.900   0.751  2.6039 -0.9177  3.3588
  901MOL0     H21619   5.990   7.000   0.501  0.4229 -3.6209  1.4956
  901MOL0     H21620   6.168   7.042   0.358  2.8763  0.0701 -0.8462
  901MOL0     H21621   7.673   7.505   1.380 -0.4574 -3.5627  2.4760
  901MOL0     H21622   7.872   7.629   1.319  1.8796 -0.4604  1.5285
  901MOL0     H21623   8.255   7.531   0.996  1.3500  0.5646 -3.1772
  901MOL0     H21624   8.445   7.641   0.878  0.8267  0.5620  0.0203
  901MOL0     H21625   8.713   7.662   0.997  0.2824  1.9922  2.7229
  901MOL0     H21626   8.694   7.736   0.826  2.7934  2.6066 -0.7042
  901MOL0     H21627   8.830   7.928   0.902 -1.7677 -0.4581 -0.5598
  901MOL0     H21628   8.931   7.776   0.920  1.3523  0.8369 -1.5666
  901MOL0     H21629   8.876   7.787   1.154  2.6427 -1.5476 -2.4318
  901MOL0     H21630   8.792   7.942   1.134 -1.1153  0.6272 -1.9677
  901MOL0     H21631   8.974   8.044   1.040 -1.3354 -1.6145 -1.1489
  901MOL0     H21632   9.075   7.894   1.048 -1.1696 -2.3905  2.1258
  901MOL0     H21633   9.129   8.076   1.427  0.3893  2.1199 -1.3510
  901MOL0     H21634   8.502   7.918   1.184 -1.0352  0.0318 -2.9971
  901MOL0     H21635   8.302   7.804   1.319  0.2360 -3.8397  1.4698
  902MOL0     O21636   5.200   6.401  10.088 -0.1226 -0.1011  0.3187
  902MOL0     C21637   5.201   6.428  10.209  0.0035  0.1555 -0.1246
  902MOL0     O21638   5.104   6.392  10.296  0.8470  0.4601 -0.3255
  902MOL0     C21639   4.990   6.330  10.258  0.0845  0.0193 -0.7955
  902MOL0     C21640   4.917   6.334  10.143  0.8381 -0.1033 -0.0585
  902MOL0     C21641   4.789   6.276  10.133  0.8854  0.6634  0.2546
  902MOL0     C21642   4.729   6.200  10.244 -1.2328  0.1975 -0.1572
  902MOL0     O21643   4.624   6.121  10.235  0.8506  0.1481 -1.1810
  902MOL0     C21644   4.532   6.133  10.132 -0.1048 -0.4230  1.0380
  902MOL0     C21645   4.446   6.010  10.111 -0.0481 -0.6377 -0.2608
  902MOL0     C21646   4.349   6.040   9.994  0.0761  0.4601  0.1704
  902MOL0     C21647   4.278   5.912   9.968  0.9869  0.2616  0.4405
  902MOL0     C21648   4.160   5.940   9.871 -0.4763 -0.0821  1.2080
  902MOL0     C21649   4.224   5.935   9.721  0.2243  0.0852 -1.3303
  902MOL0     C21650   4.119   5.957   9.602 -0.0340 -0.2304  0.5824
  902MOL0     C21651   4.191   5.947   9.464  0.5639 -0.9268  1.1863
  902MOL0     N21652   4.093   5.937   9.354  0.4529  0.4226 -0.4075
  902MOL0     C21653   4.027   5.822   9.328 -0.0919 -0.3000  0.0508
  902MOL0     C21654   3.943   5.856   9.227  0.6342 -0.3205  0.1004
  902MOL0     C21655   3.864   5.770   9.138  0.2784 -0.2008  0.2204
  902MOL0     C21656   3.717   5.774   9.176 -1.0039  0.4405 -0.1384
  902MOL0     C21657   3.632   5.763   9.060  0.0047  0.4723  0.1190
  902MOL0     C21658   3.491   5.818   9.070  0.0851  0.2978 -0.2472
  902MOL0     O21659   3.443   5.784   9.204 -0.0958 -0.2081  0.1214
  902MOL0     C21660   3.311   5.804   9.232  0.0843 -0.4315  0.3149
  902MOL0     C21661   3.205   5.844   9.148  0.4355  0.7397 -0.2529
  902MOL0     C21662   3.073   5.856   9.180  0.1842  0.5065  0.2462
  902MOL0     C21663   2.981   5.924   9.070  0.5787  0.3399  0.0417
  902MOL0     C21664   3.039   5.822   9.313  0.4264 -0.3042  0.2063
  902MOL0     C21665   2.906   5.847   9.366  0.3192  1.1356 -0.6235
  902MOL0     O21666   2.877   5.782   9.491 -0.6344  0.5990  0.7641
  902MOL0     C21667   2.754   5.801   9.549 -0.9669 -0.2453  0.2203
  902MOL0     C21668   2.636   5.754   9.486  0.3203 -0.5473 -0.6478
  902MOL0     C21669   2.515   5.804   9.539 -0.2527 -0.1896 -0.3143
  902MOL0     C21670   2.509   5.866   9.662 -0.4907 -0.4707  0.0288
  902MOL0     O21671   2.381   5.878   9.713 -0.0853  0.5904  0.0196
  902MOL0     C21672   2.350   5.982   9.807  0.3264  0.0789  0.6666
  902MOL0     C21673   2.203   6.006   9.819  0.1868 -0.6151 -0.6663
  902MOL0     C21674   2.163   6.151   9.874  0.2278  0.5184  0.6123
  902MOL0     C21675   2.249   6.194   9.994 -0.3883  0.1607 -0.7532
  902MOL0     C21676   2.245   6.337  10.063 -0.2723  0.1221 -0.6714
  902MOL0     C21677   2.143   6.339  10.178  0.7346 -0.1921 -0.2089
  902MOL0     C21678   2.159   6.474  10.239 -0.4711 -0.0364  0.6418
  902MOL0     C21679   2.056   6.512  10.337  0.0306 -1.1177  0.0841
  902MOL0    Cl21680   2.083   6.402  10.478  0.1534 -0.0063 -0.3540
  902MOL0     C21681   2.633   5.909   9.725  0.0159 -0.2290 -0.0216
  902MOL0     C21682   2.753   5.876   9.668  0.4588 -0.4873 -0.9094
  902MOL0     O21683   2.824   5.910   9.305 -0.4892 -0.6543  0.9779
  902MOL0     C21684   3.149   5.797   9.403  0.9553  0.5343  0.7180
  902MOL0     C21685   3.281   5.789   9.365 -0.6556 -0.5550 -0.3843
  902MOL0     N21686   3.948   5.995   9.218  0.2315  0.0172  0.1416
  902MOL0     N21687   4.032   6.046   9.301  0.1997 -0.4949 -0.0416
  902MOL0     C21688   4.803   6.192  10.360 -0.3145  0.1892  0.1631
  902MOL0     C21689   4.935   6.261  10.366  0.2499  0.5039 -0.7676
  902MOL0     C21690   5.329   6.477  10.267 -0.6838 -0.2704 -0.7311
  902MOL0     C21691   5.413   6.547  10.185 -0.4264  0.0860  0.4253
  902MOL0     C21692   5.532   6.609  10.243  0.4461 -0.0121 -0.3047
  902MOL0     C21693   5.550   6.602  10.379 -1.1053  0.3760 -0.5996
  902MOL0     O21694   5.651   6.668  10.450  0.0395  0.5480 -0.7658
  902MOL0     C21695   5.625   6.812  10.465  0.3938  0.5871  0.2641
  902MOL0     C21696   5.660   6.850  10.603 -0.3482 -1.6706  0.4331
  902MOL0     C21697   5.801   6.906  10.623  0.1999 -0.5660 -0.4466
  902MOL0     C21698   5.838   7.049  10.556 -0.4007  0.4040 -0.6935
  902MOL0     C21699   5.968   7.098  10.611  0.3391 -0.2452  0.2952
  902MOL0     C21700   6.076   7.141  10.639 -0.6022 -0.3485  1.0117
  902MOL0     C21701   5.463   6.526  10.460  0.0065 -0.4920 -0.0937
  902MOL0     C21702   5.353   6.465  10.406  0.3167  0.1094  0.5811
  902MOL0     H21703   4.961   6.388  10.060 -1.9846 -1.3721 -2.5718
  902MOL0     H21704   4.743   6.297  10.037  2.9582  5.2043  0.0348
  902MOL0     H21705   4.479   6.229  10.131  2.7567  1.3752 -2.8864
  902MOL0     H21706   4.598   6.131  10.045  0.1424 -0.1603  1.2192
  902MOL0     H21707   4.514   5.931  10.080 -1.2187 -0.8882 -2.4328
  902MOL0     H21708   4.395   5.996  10.207 -0.5213  0.7824 -0.2707
  902MOL0     H21709   4.274   6.118  10.006 -3.1915 -1.9439 -2.5720
  902MOL0     H21710   4.409   6.074   9.908  1.0871 -1.6557 -0.0240
  902MOL0     H21711   4.342   5.837   9.922 -2.8296 -1.8205 -2.0059
  902MOL0     H21712   4.236   5.869  10.060  2.0985 -0.3226  0.6950
  902MOL0     H21713   4.088   5.859   9.884 -2.4121  1.1030 -1.3218
  902MOL0     H21714   4.107   6.032   9.896 -0.4473 -0.7270  3.8894
  902MOL0     H21715   4.307   6.005   9.710  0.5523 -0.5387 -3.1809
  902MOL0     H21716   4.263   5.833   9.720  0.0947 -0.0826  1.8689
  902MOL0     H21717   4.053   5.869   9.609 -0.2140 -0.1939 -0.4829
  902MOL0     H21718   4.071   6.054   9.618  0.7464 -0.2285  3.4215
  902MOL0     H21719   4.259   5.862   9.468 -1.5224 -2.6418  2.9877
  902MOL0     H21720   4.240   6.043   9.442 -0.0623 -0.9843 -0.6407
  902MOL0     H21721   4.039   5.719   9.360 -1.3975 -0.7326 -0.7511
  902MOL0     H21722   3.872   5.802   9.033 -2.7765 -0.7619 -0.2810
  902MOL0     H21723   3.886   5.663   9.148 -0.9348 -0.4288  0.6595
  902MOL0     H21724   3.695   5.867   9.229 -0.3070  0.9034 -0.6427
  902MOL0     H21725   3.714   5.696   9.252 -0.2422  2.2389  1.8380
  902MOL0     H21726   3.615   5.658   9.030  1.4763  0.1402  0.3934
  902MOL0     H21727   3.675   5.816   8.975  0.1305  0.8422  0.4132
  902MOL0     H21728   3.429   5.762   9.000 -0.0930 -2.5053  1.9828
  902MOL0     H21729   3.494   5.926   9.055  0.7524  0.3565  0.2436
  902MOL0     H21730   3.225   5.864   9.043  1.6991  2.5247  0.2725
  902MOL0     H21731   2.955   6.028   9.094 -1.0451 -0.0530  0.1267
  902MOL0     H21732   3.033   5.926   8.974  0.1458  2.3184 -0.2114
  902MOL0     H21733   2.894   5.860   9.050 -0.1339  1.2278  0.1922
  902MOL0     H21734   2.652   5.709   9.388 -2.4306 -0.4135 -1.2276
  902MOL0     H21735   2.417   5.786   9.495  0.1265 -0.1755 -1.1937
  902MOL0     H21736   2.393   5.973   9.907 -2.7049  2.2341  2.3344
  902MOL0     H21737   2.400   6.068   9.762  1.7608  1.1954  4.0653
  902MOL0     H21738   2.165   5.993   9.717  1.9966 -0.6157 -1.3629
  902MOL0     H21739   2.166   5.930   9.888 -0.0068 -0.8076 -0.9759
  902MOL0     H21740   2.060   6.155   9.911 -0.4329 -1.1378 -0.9034
  902MOL0     H21741   2.169   6.228   9.796  0.6317 -1.7837 -1.7829
  902MOL0     H21742   2.233   6.126  10.078  0.1651  0.4394 -0.4167
  902MOL0     H21743   2.353   6.181   9.963  0.2933  2.0453  0.5638
  902MOL0     H21744   2.223   6.408   9.983  0.8418  1.1959 -0.0642
  902MOL0     H21745   2.347   6.348  10.102  1.2612 -4.5964 -2.5686
  902MOL0     H21746   2.038   6.321  10.155  0.9655 -0.4522 -1.0888
  902MOL0     H21747   2.176   6.254  10.239 -1.0175 -0.6853  0.1074
  902MOL0     H21748   2.144   6.552  10.164 -0.3477 -0.2211  0.4220
  902MOL0     H21749   2.263   6.483  10.270  0.4164 -0.7373 -1.9322
  902MOL0     H21750   1.952   6.507  10.304  0.2115  2.0767 -1.3471
  902MOL0     H21751   2.068   6.620  10.346 -0.2455 -0.5653 -4.0441
  902MOL0     H21752   2.628   5.956   9.822  0.4899  1.7300 -0.8788
  902MOL0     H21753   2.853   5.896   9.706  1.1509 -2.4084 -1.5506
  902MOL0     H21754   3.122   5.774   9.505  0.8604 -3.5475 -0.0874
  902MOL0     H21755   3.367   5.765   9.428 -0.8951 -2.6900 -0.7697
  902MOL0     H21756   4.778   6.110  10.427 -0.8041 -1.7914 -2.2910
  902MOL0     H21757   4.991   6.249  10.458 -2.0619 -3.0992  0.4014
  902MOL0     H21758   5.389   6.569  10.081 -3.7829 -1.5456  0.7309
  902MOL0     H21759   5.602   6.658  10.177 -0.0949  0.4971 -0.5140
  902MOL0     H21760   5.689   6.869  10.397 -0.1021  0.2950 -0.4566
  902MOL0     H21761   5.520   6.837  10.447  1.3412  2.4538 -4.2198
  902MOL0     H21762   5.627   6.772  10.673 -3.1254  1.6579  3.2257
  902MOL0     H21763   5.585   6.927  10.622  1.4788  0.2354  0.2407
  902MOL0     H21764   5.875   6.831  10.594  3.0282  1.5134  0.9491
  902MOL0     H21765   5.806   6.913  10.732 -1.3181 -0.2755 -0.3686
  902MOL0     H21766   5.759   7.122  10.571  0.5679  1.0354  1.9562
  902MOL0     H21767   5.859   7.046  10.448  1.3551  1.2942 -0.4267
  902MOL0     H21768   6.171   7.186  10.660 -1.0430  2.1405 -1.6696
  902MOL0     H21769   5.492   6.519  10.565  0.4739  0.9258 -0.1066
  902MOL0     H21770   5.292   6.397  10.465  0.7460 -1.8740 -1.1708
  903MOL0     O21771   9.985   6.481   9.636  0.2947 -0.2556  1.1686
  903MOL0     C21772   9.977   6.517   9.749  0.1312  0.6733 -0.9305
  903MOL0     O21773  10.071   6.503   9.847 -0.9566  0.0851  0.2013
  903MOL0     C21774  10.204   6.465   9.834  0.0198 -0.2690  0.0846
  903MOL0     C21775  10.267   6.441   9.956 -0.6416 -0.6945  0.0810
  903MOL0     C21776  10.406   6.419   9.945  0.7279  0.2181 -0.1649
  903MOL0     C21777  10.477   6.419   9.826 -0.2658  0.6986 -0.7092
  903MOL0     O21778  10.605   6.364   9.823 -0.4482  0.0599  0.1015
  903MOL0     C21779  10.675   6.357   9.699 -0.1746  0.3312 -0.0822
  903MOL0     C21780  10.815   6.286   9.703  0.4172  0.4947 -1.0377
  903MOL0     C21781  10.913   6.351   9.805 -0.3470  0.3124 -0.6683
  903MOL0     C21782  11.027   6.260   9.843  0.5884  0.3242 -0.1209
  903MOL0     C21783  11.126   6.316   9.948 -0.1169 -0.5568  0.5551
  903MOL0     C21784  11.251   6.231   9.946 -0.5047 -0.6162 -0.0359
  903MOL0     C21785  11.353   6.277  10.048 -0.1923  0.3868 -0.7303
  903MOL0     C21786  11.430   6.394   9.991  0.0962  0.6050  0.5771
  903MOL0     N21787  11.537   6.434  10.079 -0.1582  0.3468 -0.4090
  903MOL0     C21788  11.520   6.495  10.203 -0.2107  0.0414  0.7638
  903MOL0     C21789  11.648   6.511  10.254 -0.7894 -0.2599 -0.4674
  903MOL0     C21790  11.694   6.558  10.387  0.0500  0.0485  0.8498
  903MOL0     C21791  11.724   6.711  10.396  0.0319  0.6352  0.0104
  903MOL0     C21792  11.772   6.751  10.533  0.4903  0.3041  0.9244
  903MOL0     C21793  11.679   6.702  10.650  0.1000  0.1149  0.2205
  903MOL0     O21794  11.537   6.723  10.618 -0.6317 -0.2112  0.6799
  903MOL0     C21795  11.455   6.686  10.721 -0.3843  0.0149 -0.1347
  903MOL0     C21796  11.411   6.770  10.827 -0.4424 -0.0499 -0.4598
  903MOL0     C21797  11.339   6.724  10.938  0.2506 -0.0404 -0.2053
  903MOL0     C21798  11.312   6.815  11.052  0.5523  0.8087 -0.4417
  903MOL0     C21799  11.310   6.590  10.942 -0.1244  0.5256 -0.0957
  903MOL0     C21800  11.230   6.541  11.054 -0.6628  0.0376  0.4225
  903MOL0     O21801  11.298   6.508  11.163 -0.0720  0.4460  0.0309
  903MOL0     C21802  11.248   6.443  11.277 -1.0109 -0.2874  0.4542
  903MOL0     C21803  11.112   6.416  11.310  0.1028 -0.7492  0.4693
  903MOL0     C21804  11.087   6.341  11.431  0.5113 -0.2401 -0.0665
  903MOL0     C21805  11.189   6.298  11.513  0.6430 -0.3517 -0.4177
  903MOL0     O21806  11.165   6.217  11.626 -0.0771  0.6970 -0.2030
  903MOL0     C21807  11.024   6.201  11.666 -0.0155 -0.1213  0.2290
  903MOL0     C21808  11.002   6.102  11.779  0.6942 -0.7411 -0.7116
  903MOL0     C21809  11.067   5.969  11.786  0.1604  0.7816  0.3227
  903MOL0     C21810  11.016   5.897  11.909  0.3404  0.5821  0.5888
  903MOL0     C21811  11.061   5.752  11.908  0.7798 -0.4079 -0.0393
  903MOL0     C21812  10.985   5.666  11.802 -0.4572  0.4930 -0.4167
  903MOL0     C21813  11.046   5.530  11.771 -0.0999  0.6401  0.5026
  903MOL0     C21814  10.955   5.448  11.678  0.1800  0.6680 -0.1208
  903MOL0    Cl21815  11.019   5.298  11.630  0.3478  0.2982 -0.2618
  903MOL0     C21816  11.320   6.332  11.482  0.7781  0.6093  0.7132
  903MOL0     C21817  11.344   6.405  11.372 -0.6082 -0.2546  0.6252
  903MOL0     O21818  11.107   6.532  11.032 -0.2768  0.1398  0.3226
  903MOL0     C21819  11.346   6.503  10.836 -0.6426 -0.0320 -0.1654
  903MOL0     C21820  11.433   6.552  10.731 -0.0576  0.2876  0.0986
  903MOL0     N21821  11.737   6.458  10.153 -0.0384  0.1378 -1.2737
  903MOL0     N21822  11.671   6.420  10.051 -0.5408  0.4710 -0.2184
  903MOL0     C21823  10.411   6.457   9.703  0.0406 -0.6179  0.0252
  903MOL0     C21824  10.276   6.486   9.714 -0.5234 -0.2238 -0.5540
  903MOL0     C21825   9.857   6.584   9.790 -0.6750  0.5390  0.3065
  903MOL0     C21826   9.733   6.545   9.736  0.3072 -0.1419  0.5601
  903MOL0     C21827   9.618   6.605   9.779  0.3153  0.2694 -0.0416
  903MOL0     C21828   9.610   6.711   9.874  0.4241  0.2650 -0.3622
  903MOL0     O21829   9.502   6.784   9.921 -0.4791 -1.2117  0.1794
  903MOL0     C21830   9.375   6.761   9.860 -0.1133 -0.0435 -0.4187
  903MOL0     C21831   9.286   6.886   9.881  0.5993 -0.6561 -0.5682
  903MOL0     C21832   9.258   6.912  10.027  0.1005  0.4611 -0.0683
  903MOL0     C21833   9.132   7.001  10.057  0.0379  1.1514 -0.2133
  903MOL0     C21834   9.163   7.135  10.011 -0.0566 -1.1880 -0.9034
  903MOL0     C21835   9.189   7.249   9.965  0.2965  0.3810  0.2659
  903MOL0     C21836   9.730   6.744   9.931  0.7267 -1.0409 -0.6390
  903MOL0     C21837   9.853   6.679   9.896 -0.3050 -0.3193  0.4624
  903MOL0     H21838  10.194   6.432  10.036  0.2436  2.4824  1.3800
  903MOL0     H21839  10.466   6.386  10.029 -0.0664  1.1028  0.7744
  903MOL0     H21840  10.616   6.297   9.631  0.9272 -1.6387  0.6141
  903MOL0     H21841  10.681   6.452   9.645 -4.0210 -0.4344 -2.1540
  903MOL0     H21842  10.797   6.178   9.710 -2.0888  0.9079  0.1310
  903MOL0     H21843  10.864   6.301   9.607 -0.4442 -0.1131 -1.5821
  903MOL0     H21844  10.956   6.441   9.760 -1.1223  0.7288 -0.5818
  903MOL0     H21845  10.874   6.380   9.903 -0.0354 -1.1113 -0.1004
  903MOL0     H21846  10.979   6.170   9.882 -0.3309  0.8639  0.0127
  903MOL0     H21847  11.074   6.224   9.751 -0.7515 -0.1653 -0.6413
  903MOL0     H21848  11.156   6.417   9.919 -1.6470 -0.0361  0.6926
  903MOL0     H21849  11.078   6.324  10.046  0.7745  0.4588  0.9293
  903MOL0     H21850  11.222   6.128   9.971  0.0496 -0.3447  1.9557
  903MOL0     H21851  11.302   6.236   9.850 -2.4876  2.0491 -1.0692
  903MOL0     H21852  11.300   6.303  10.140  1.5414  1.0862  0.1111
  903MOL0     H21853  11.426   6.199  10.069 -0.4720  0.9302  2.7326
  903MOL0     H21854  11.368   6.479   9.960 -1.5060 -0.9070 -0.5754
  903MOL0     H21855  11.477   6.360   9.898  1.3218 -0.0255  1.4117
  903MOL0     H21856  11.430   6.514  10.260  0.1353 -3.3635  2.7412
  903MOL0     H21857  11.619   6.524  10.459 -0.7412  1.2182  0.5999
  903MOL0     H21858  11.783   6.498  10.407  0.2915 -0.0466 -0.4320
  903MOL0     H21859  11.631   6.766  10.378 -0.1780  0.9960  1.9374
  903MOL0     H21860  11.800   6.745  10.325 -0.1725 -0.0479 -0.5411
  903MOL0     H21861  11.775   6.860  10.535  0.5002  0.3254  0.1097
  903MOL0     H21862  11.873   6.710  10.548  0.2383 -1.6224 -1.9519
  903MOL0     H21863  11.699   6.770  10.733  1.0173 -1.6888  1.5490
  903MOL0     H21864  11.701   6.601  10.686  0.9017  0.5559  1.0085
  903MOL0     H21865  11.418   6.879  10.824  0.8475 -0.1179 -0.1141
  903MOL0     H21866  11.208   6.843  11.037 -0.4580 -0.5146  2.9643
  903MOL0     H21867  11.312   6.766  11.150 -4.3250  0.1477 -0.5084
  903MOL0     H21868  11.380   6.900  11.048  0.3163  1.1013  1.1248
  903MOL0     H21869  11.027   6.433  11.245  0.0830  1.5300  1.0012
  903MOL0     H21870  10.984   6.310  11.449  0.6329 -1.5270 -1.3588
  903MOL0     H21871  11.005   6.295  11.719  1.6114 -0.7694  2.0886
  903MOL0     H21872  10.949   6.179  11.589  0.8839 -0.7802 -0.4831
  903MOL0     H21873  11.026   6.161  11.868 -0.7237 -0.7232 -0.3072
  903MOL0     H21874  10.893   6.090  11.787  1.0241 -2.8709  2.0996
  903MOL0     H21875  11.176   5.972  11.795  0.1569 -0.2153  0.8150
  903MOL0     H21876  11.037   5.904  11.702  3.6071 -1.7123  0.7699
  903MOL0     H21877  11.053   5.940  12.002 -0.4616  1.2446  0.6081
  903MOL0     H21878  10.907   5.908  11.907  0.2835  0.0651  0.7632
  903MOL0     H21879  11.027   5.709  12.003  0.6145 -1.1052 -0.4055
  903MOL0     H21880  11.170   5.749  11.906  0.8487  1.5153 -0.4773
  903MOL0     H21881  10.880   5.652  11.828 -0.2880  0.6748  0.4116
  903MOL0     H21882  10.989   5.717  11.705 -0.6379  0.9416 -0.1950
  903MOL0     H21883  11.069   5.470  11.859  0.4044 -1.7158 -1.1474
  903MOL0     H21884  11.142   5.536  11.719  0.6653 -0.6722  1.7098
  903MOL0     H21885  10.942   5.504  11.585 -0.6599  2.3132  0.9344
  903MOL0     H21886  10.856   5.429  11.721  0.2461 -0.9361 -0.6156
  903MOL0     H21887  11.408   6.292  11.532  1.7875  2.1938  0.2739
  903MOL0     H21888  11.448   6.429  11.350 -1.1145  0.7819 -0.7995
  903MOL0     H21889  11.333   6.395  10.841  1.2550 -0.6525 -4.3784
  903MOL0     H21890  11.474   6.477  10.663 -0.5634 -2.3810  2.5306
  903MOL0     H21891  10.485   6.476   9.626  1.5613  1.9882  1.9068
  903MOL0     H21892  10.232   6.529   9.625  0.0240  1.8175  0.1078
  903MOL0     H21893   9.718   6.470   9.659  1.0641  0.2216  0.0463
  903MOL0     H21894   9.527   6.583   9.725 -0.4883  1.9854  0.5605
  903MOL0     H21895   9.378   6.727   9.756 -0.2517 -2.1422  0.2090
  903MOL0     H21896   9.322   6.678   9.908 -0.0124 -0.0939 -0.3950
  903MOL0     H21897   9.193   6.871   9.826  1.4268 -2.3334 -1.5860
  903MOL0     H21898   9.321   6.978   9.834 -1.4040 -0.4913 -1.8339
  903MOL0     H21899   9.351   6.949  10.070 -0.7797 -0.0656  2.4370
  903MOL0     H21900   9.248   6.816  10.079  0.6929  0.4839  0.0949
  903MOL0     H21901   9.110   7.003  10.165  2.6086 -1.3501  0.4651
  903MOL0     H21902   9.049   6.945  10.012 -0.4202 -1.3584  3.3284
  903MOL0     H21903   9.202   7.351   9.935 -1.0468  0.8776  1.2793
  903MOL0     H21904   9.705   6.811  10.012  1.6821 -4.0456  2.3591
  903MOL0     H21905   9.946   6.703   9.947  0.3772  0.4738 -1.1037
  904MOL0     O21906  11.006   2.628   9.019  0.1822 -1.0449 -0.1276
  904MOL0     C21907  10.930   2.708   8.957 -0.1936  0.7512 -0.9378
  904MOL0     O21908  10.890   2.695   8.832  0.1584 -0.1694  0.9146
  904MOL0     C21909  10.958   2.599   8.764 -0.6801 -0.9093  0.0528
  904MOL0     C21910  11.065   2.649   8.690 -0.9214 -0.4678 -0.0144
  904MOL0     C21911  11.153   2.570   8.614 -0.4560  0.1746  0.8375
  904MOL0     C21912  11.130   2.433   8.616  0.3239 -0.0234 -0.2264
  904MOL0     O21913  11.238   2.366   8.564 -0.1955  0.0960 -0.5595
  904MOL0     C21914  11.200   2.260   8.472  0.2312 -0.0404  0.3513
  904MOL0     C21915  11.233   2.131   8.538  0.1125  0.1532 -0.6545
  904MOL0     C21916  11.387   2.127   8.575  0.1303 -0.5407 -0.3473
  904MOL0     C21917  11.445   1.988   8.576  0.5973  0.1274  0.6792
  904MOL0     C21918  11.388   1.887   8.673  0.1082  0.4248  0.1541
  904MOL0     C21919  11.415   1.731   8.658  0.0622  0.6611  0.8147
  904MOL0     C21920  11.363   1.658   8.776 -0.5723 -1.0118  0.8462
  904MOL0     C21921  11.423   1.686   8.907 -0.0358 -0.4005 -0.2923
  904MOL0     N21922  11.569   1.677   8.919 -0.6095  0.6029 -0.1517
  904MOL0     C21923  11.664   1.765   8.854  0.4594  1.1089 -0.9493
  904MOL0     C21924  11.772   1.685   8.843  0.6812  0.1622 -0.0928
  904MOL0     C21925  11.887   1.729   8.768  0.5700  0.3476  0.6193
  904MOL0     C21926  11.866   1.709   8.612 -0.7007  0.1732 -0.5613
  904MOL0     C21927  11.911   1.563   8.565 -0.2749 -1.6961  0.0269
  904MOL0     C21928  12.063   1.557   8.540 -0.0190 -0.6861  0.3550
  904MOL0     O21929  12.095   1.414   8.507  0.7115 -0.9160 -1.1442
  904MOL0     C21930  12.219   1.381   8.467  0.2115 -0.5775  0.1334
  904MOL0     C21931  12.241   1.250   8.413  0.3874  0.3682  0.0177
  904MOL0     C21932  12.370   1.188   8.408 -0.9834 -0.8078 -0.6932
  904MOL0     C21933  12.364   1.041   8.383  0.2868  1.5891 -0.5363
  904MOL0     C21934  12.493   1.266   8.428  0.3892  0.5720 -0.4285
  904MOL0     C21935  12.626   1.208   8.417 -0.3137  0.0595  0.4255
  904MOL0     O21936  12.726   1.300   8.410  0.5122  0.4858  0.0105
  904MOL0     C21937  12.851   1.269   8.347  0.2103  0.3643  0.3207
  904MOL0     C21938  12.875   1.171   8.248  0.5450  0.2818  0.1328
  904MOL0     C21939  12.999   1.149   8.193  0.6630  1.4788 -0.3529
  904MOL0     C21940  13.114   1.221   8.238  0.2463  0.4726  0.7547
  904MOL0     O21941  13.235   1.182   8.191  0.2136 -0.1950  0.0368
  904MOL0     C21942  13.338   1.271   8.205 -0.1767 -0.3342 -0.1002
  904MOL0     C21943  13.432   1.226   8.090  0.7316 -0.3870 -0.0170
  904MOL0     C21944  13.498   1.085   8.114  0.5902  0.0390  0.3114
  904MOL0     C21945  13.640   1.081   8.062  0.3603  0.0727  0.8985
  904MOL0     C21946  13.642   1.060   7.909  0.7410  0.3457  0.6963
  904MOL0     C21947  13.678   0.924   7.846  0.6526 -0.3478 -0.4722
  904MOL0     C21948  13.673   0.928   7.690 -0.2939  0.1186 -1.1293
  904MOL0     C21949  13.743   0.804   7.643 -1.3240 -1.0015  0.5106
  904MOL0    Cl21950  13.811   0.822   7.481  0.5209 -0.0507 -0.3856
  904MOL0     C21951  13.094   1.313   8.334  0.2446 -0.7154  0.4159
  904MOL0     C21952  12.966   1.346   8.380 -0.4287  0.6763 -0.0909
  904MOL0     O21953  12.643   1.085   8.414  0.2608  0.1044  0.2101
  904MOL0     C21954  12.463   1.394   8.474  0.0258 -1.6300  0.5789
  904MOL0     C21955  12.338   1.455   8.496  0.2984  0.3735 -1.1922
  904MOL0     N21956  11.753   1.569   8.905  0.0906  0.2935  0.2003
  904MOL0     N21957  11.639   1.568   8.969  0.3252 -0.5562 -0.3878
  904MOL0     C21958  11.027   2.379   8.689 -0.0893  0.1903 -0.9756
  904MOL0     C21959  10.935   2.466   8.742  0.8484 -1.0039 -0.0244
  904MOL0     C21960  10.858   2.802   9.037  0.2965  0.3668  0.1318
  904MOL0     C21961  10.772   2.886   8.962  0.2374 -0.3597  0.0580
  904MOL0     C21962  10.695   2.981   9.035  0.2033 -0.1094  1.0407
  904MOL0     C21963  10.686   2.987   9.172  0.5632  0.6075  0.3583
  904MOL0     O21964  10.592   3.076   9.224 -0.3705  0.4385  0.0239
  904MOL0     C21965  10.518   3.028   9.332  0.3780 -0.8480 -0.0443
  904MOL0     C21966  10.431   3.149   9.390 -0.6488 -0.2044 -0.3525
  904MOL0     C21967  10.517   3.244   9.468  0.0082  0.2068  0.5426
  904MOL0     C21968  10.472   3.386   9.471  0.0065 -0.7064  0.8530
  904MOL0     C21969  10.503   3.446   9.339  0.2740  0.4598  0.3673
  904MOL0     C21970  10.523   3.480   9.222 -0.6793  0.4042  0.4360
  904MOL0     C21971  10.767   2.900   9.246  0.3954 -0.2747 -0.8413
  904MOL0     C21972  10.850   2.814   9.175 -0.0133  0.5106  0.0494
  904MOL0     H21973  11.077   2.757   8.699  1.1849 -0.5845 -0.8662
  904MOL0     H21974  11.236   2.615   8.560 -0.6540  1.6896  1.7492
  904MOL0     H21975  11.094   2.269   8.446  0.6272 -1.8566 -2.3292
  904MOL0     H21976  11.247   2.255   8.373 -0.9019 -0.2835 -0.1844
  904MOL0     H21977  11.167   2.136   8.625 -2.7134 -1.0084 -2.6040
  904MOL0     H21978  11.195   2.045   8.482 -1.2962  1.3790 -1.6454
  904MOL0     H21979  11.439   2.164   8.486  0.2810  1.0286  0.3540
  904MOL0     H21980  11.406   2.176   8.671 -2.4226  0.7721 -0.4285
  904MOL0     H21981  11.436   1.944   8.476 -1.7711 -0.5616  1.1469
  904MOL0     H21982  11.550   1.997   8.608  1.1522 -1.8570 -0.3916
  904MOL0     H21983  11.418   1.930   8.769 -0.7885  3.0000 -0.6093
  904MOL0     H21984  11.280   1.906   8.679  0.3758  1.9343  0.6413
  904MOL0     H21985  11.358   1.697   8.571 -0.8406  1.1568  1.2004
  904MOL0     H21986  11.521   1.710   8.646 -0.0931 -0.0639  0.6735
  904MOL0     H21987  11.257   1.681   8.787 -0.9385  1.0822 -4.2924
  904MOL0     H21988  11.364   1.550   8.762 -1.4910 -1.1268  1.5949
  904MOL0     H21989  11.377   1.629   8.989 -0.9495 -0.9992 -1.1928
  904MOL0     H21990  11.391   1.786   8.938  0.2567 -0.6961  1.0614
  904MOL0     H21991  11.648   1.849   8.787 -0.2971  2.6735  1.0724
  904MOL0     H21992  11.900   1.836   8.786 -1.0214  1.2081 -2.5084
  904MOL0     H21993  11.978   1.688   8.814 -0.5657 -2.4260  0.5598
  904MOL0     H21994  11.911   1.788   8.551  1.3491 -0.9212 -0.5616
  904MOL0     H21995  11.761   1.717   8.582 -0.5611 -0.0008 -1.1120
  904MOL0     H21996  11.851   1.534   8.478 -3.2000 -2.4447  2.1448
  904MOL0     H21997  11.875   1.486   8.634 -0.5764 -1.1525  0.4792
  904MOL0     H21998  12.116   1.578   8.633 -0.5521 -1.5664  0.8763
  904MOL0     H21999  12.098   1.631   8.468  0.7781  0.7236  2.1335
  904MOL0     H22000  12.153   1.192   8.387  1.2132 -0.1460 -1.7839
  904MOL0     H22001  12.437   1.005   8.309 -0.8093  0.9869 -1.3592
  904MOL0     H22002  12.391   0.993   8.478 -0.4602  4.2383  1.0983
  904MOL0     H22003  12.273   0.997   8.341  1.8667  1.1217 -3.7662
  904MOL0     H22004  12.788   1.111   8.225  0.1422  0.5514  0.9595
  904MOL0     H22005  13.014   1.067   8.123  0.1619  0.1932  0.9801
  904MOL0     H22006  13.316   1.378   8.209 -0.5662 -0.4355  0.6374
  904MOL0     H22007  13.380   1.253   8.304 -2.0407 -2.1952  0.4477
  904MOL0     H22008  13.383   1.232   7.992  3.1634 -1.6971 -1.3846
  904MOL0     H22009  13.514   1.298   8.083 -0.3653  0.7195 -2.9849
  904MOL0     H22010  13.430   1.004   8.088  0.5358 -0.9723  3.2182
  904MOL0     H22011  13.513   1.059   8.219 -3.7991 -2.3374  0.5889
  904MOL0     H22012  13.683   1.180   8.080 -1.5572  1.2268 -0.4614
  904MOL0     H22013  13.701   1.002   8.106 -2.1168 -1.6140  1.4779
  904MOL0     H22014  13.728   1.123   7.885 -0.4615  1.4694 -0.8486
  904MOL0     H22015  13.553   1.104   7.863  0.8971  0.5930  0.6343
  904MOL0     H22016  13.777   0.896   7.884 -0.1284 -4.8383 -1.2511
  904MOL0     H22017  13.601   0.854   7.880 -1.4137  1.3118 -1.4680
  904MOL0     H22018  13.727   1.016   7.654  1.5235  0.3663  1.8543
  904MOL0     H22019  13.573   0.943   7.650 -1.2503 -1.2985  0.5995
  904MOL0     H22020  13.677   0.718   7.661 -3.5234  0.5376  0.1639
  904MOL0     H22021  13.834   0.781   7.699  0.2254 -1.3237 -1.9984
  904MOL0     H22022  13.180   1.362   8.379 -0.5070 -0.7144  1.9211
  904MOL0     H22023  12.957   1.423   8.457  0.3067 -0.1508  0.8492
  904MOL0     H22024  12.551   1.456   8.490 -1.2499  0.1101  1.1553
  904MOL0     H22025  12.327   1.553   8.542 -1.9094 -0.2309 -0.3215
  904MOL0     H22026  11.013   2.273   8.705 -1.6308  0.6118  0.9543
  904MOL0     H22027  10.840   2.431   8.783  0.4137  0.5095  0.3659
  904MOL0     H22028  10.764   2.889   8.854  1.2484  1.1635 -0.0053
  904MOL0     H22029  10.638   3.051   8.974  0.1183 -0.2984  0.9006
  904MOL0     H22030  10.439   2.958   9.302 -0.3929 -0.1605  0.3133
  904MOL0     H22031  10.573   2.982   9.414 -2.1834  0.5713  2.6597
  904MOL0     H22032  10.355   3.122   9.465 -0.2144 -3.2959 -0.8777
  904MOL0     H22033  10.388   3.197   9.302  0.6484  3.5332  0.8503
  904MOL0     H22034  10.620   3.241   9.431 -0.4399  0.3968 -0.7876
  904MOL0     H22035  10.510   3.194   9.565  0.0211 -0.2852  0.2958
  904MOL0     H22036  10.531   3.440   9.546 -0.5493  2.5798 -0.8875
  904MOL0     H22037  10.368   3.412   9.496  0.1111  2.7287 -1.5918
  904MOL0     H22038  10.531   3.508   9.119 -3.8800  5.0830  1.1589
  904MOL0     H22039  10.754   2.882   9.352  0.9459 -0.2858 -0.7732
  904MOL0     H22040  10.905   2.740   9.233 -2.7645 -1.0211  0.9057
  905MOL0     O22041   7.763   6.017   9.830 -0.9991  0.1010  0.5063
  905MOL0     C22042   7.737   5.891   9.824 -0.4291  0.2500 -0.9446
  905MOL0     O22043   7.617   5.833   9.791  0.4362 -0.1587  0.0502
  905MOL0     C22044   7.526   5.926   9.739  0.8289 -0.3923 -0.0752
  905MOL0     C22045   7.567   6.004   9.627 -0.0595  0.0220  0.3195
  905MOL0     C22046   7.492   6.112   9.585 -0.3726  0.0929  0.9007
  905MOL0     C22047   7.360   6.144   9.648 -0.7661 -0.2668 -0.5140
  905MOL0     O22048   7.271   6.238   9.608 -0.1593 -0.0108  0.3372
  905MOL0     C22049   7.299   6.296   9.480 -0.6505  0.2666  1.1509
  905MOL0     C22050   7.186   6.371   9.420 -0.0418 -0.2142  1.0058
  905MOL0     C22051   7.223   6.453   9.294 -1.0037  0.0228  0.9822
  905MOL0     C22052   7.099   6.525   9.240  0.1851 -0.3943 -0.4600
  905MOL0     C22053   7.124   6.658   9.165 -0.1069 -0.4838  0.5137
  905MOL0     C22054   6.999   6.745   9.134 -0.1695 -0.4488  0.3047
  905MOL0     C22055   7.045   6.883   9.075 -1.0250  0.2552 -0.0678
  905MOL0     C22056   6.954   6.999   9.080 -0.4339 -0.5680  0.3308
  905MOL0     N22057   7.016   7.135   9.079 -0.3500  0.5217 -1.0115
  905MOL0     C22058   7.128   7.164   9.143  0.1424  0.2978 -0.1103
  905MOL0     C22059   7.162   7.283   9.105  0.5400  0.4520 -0.0360
  905MOL0     C22060   7.275   7.361   9.171 -0.4456  0.2124 -0.1893
  905MOL0     C22061   7.414   7.335   9.114 -0.2654 -0.4223  0.6489
  905MOL0     C22062   7.510   7.436   9.183  0.8256  0.1523  0.1338
  905MOL0     C22063   7.652   7.395   9.160  0.1634  0.0477  1.0144
  905MOL0     O22064   7.728   7.483   9.241 -0.8505 -0.5750  0.2467
  905MOL0     C22065   7.869   7.492   9.222 -0.2507 -0.0664  0.2871
  905MOL0     C22066   7.948   7.376   9.177 -0.0251 -0.1296 -0.7188
  905MOL0     C22067   8.088   7.390   9.174 -0.5198 -0.4859  0.7233
  905MOL0     C22068   8.167   7.266   9.136  0.8758 -0.6037  1.3175
  905MOL0     C22069   8.150   7.511   9.203 -0.0591  0.4987  0.2086
  905MOL0     C22070   8.298   7.545   9.179  0.6051  0.6991 -0.0110
  905MOL0     O22071   8.337   7.675   9.147  0.3478 -0.3860 -0.0731
  905MOL0     C22072   8.468   7.713   9.126  0.2539 -0.7433 -0.4564
  905MOL0     C22073   8.504   7.760   9.005 -0.5768 -0.1463 -0.4919
  905MOL0     C22074   8.638   7.783   8.973 -0.8397  0.7445  0.1335
  905MOL0     C22075   8.740   7.763   9.061  0.5759 -0.4907  1.0107
  905MOL0     O22076   8.869   7.786   9.009 -0.5670  0.2425  0.2210
  905MOL0     C22077   8.980   7.835   9.090 -0.6742  0.0117 -0.0502
  905MOL0     C22078   9.114   7.825   9.016  0.8492  1.0986 -0.1461
  905MOL0     C22079   9.099   7.862   8.865  0.2083 -0.0443 -0.6511
  905MOL0     C22080   9.231   7.928   8.811  0.4113 -0.1339 -0.9467
  905MOL0     C22081   9.199   8.021   8.696  0.9309 -0.0513  1.4472
  905MOL0     C22082   9.315   8.064   8.607  0.4173 -0.9101 -0.1815
  905MOL0     C22083   9.448   8.111   8.679  0.4724 -0.2915 -0.1893
  905MOL0     C22084   9.527   8.194   8.584 -0.7875  0.0552 -0.1393
  905MOL0    Cl22085   9.590   8.094   8.448 -0.6546 -0.4459 -0.2266
  905MOL0     C22086   8.706   7.727   9.190  0.5884  0.0397 -0.5209
  905MOL0     C22087   8.565   7.697   9.225 -0.4220 -0.3469 -0.4035
  905MOL0     O22088   8.371   7.446   9.186 -0.5141  0.4138 -0.3457
  905MOL0     C22089   8.072   7.626   9.237  0.3495  0.0607 -0.4497
  905MOL0     C22090   7.937   7.609   9.250 -0.1153  0.5496  0.0605
  905MOL0     N22091   7.083   7.328   9.001 -0.3782 -0.1643  1.0792
  905MOL0     N22092   6.997   7.232   8.987  0.2429  0.1220  0.9724
  905MOL0     C22093   7.323   6.063   9.758 -0.1541  0.4294 -0.3436
  905MOL0     C22094   7.396   5.952   9.799 -0.1134  0.2311  0.9260
  905MOL0     C22095   7.832   5.794   9.871 -0.3094  0.3135 -0.1616
  905MOL0     C22096   7.955   5.849   9.919 -0.2536 -0.2507 -0.0997
  905MOL0     C22097   8.063   5.774   9.963 -0.3971 -0.6814 -0.0042
  905MOL0     C22098   8.044   5.637   9.976  0.5141  0.1857 -0.4297
  905MOL0     O22099   8.143   5.551  10.005 -0.0332 -0.0951 -0.1002
  905MOL0     C22100   8.256   5.595  10.078  0.4898  0.7685 -0.2598
  905MOL0     C22101   8.354   5.636   9.972 -0.5340  0.3219  0.5809
  905MOL0     C22102   8.483   5.693  10.037  0.4657  0.4720  0.4963
  905MOL0     C22103   8.463   5.849  10.041 -0.0570 -0.0476  0.7774
  905MOL0     C22104   8.550   5.920  10.138  0.3199  0.0883  0.2899
  905MOL0     C22105   8.609   6.003  10.206 -0.5928  0.2220  1.0570
  905MOL0     C22106   7.925   5.581   9.938  0.3815  0.0330  1.1295
  905MOL0     C22107   7.822   5.657   9.881 -0.2110 -0.1692  0.2306
  905MOL0     H22108   7.665   5.989   9.584 -0.5616 -0.8127 -0.5670
  905MOL0     H22109   7.535   6.179   9.512  0.3408  1.4355  2.4742
  905MOL0     H22110   7.385   6.362   9.492 -0.7473  0.4838  0.6995
  905MOL0     H22111   7.321   6.218   9.406  0.8144  1.3348  0.3962
  905MOL0     H22112   7.109   6.298   9.392 -2.0076  2.7647 -2.2942
  905MOL0     H22113   7.153   6.431   9.505  0.7026 -0.0951  1.2186
  905MOL0     H22114   7.306   6.521   9.310  0.9052 -1.2038 -2.6788
  905MOL0     H22115   7.254   6.382   9.217 -3.1715 -0.3599  0.3780
  905MOL0     H22116   7.036   6.456   9.183  0.0875  1.1890 -2.3798
  905MOL0     H22117   7.035   6.558   9.322 -0.2190 -0.0566 -0.9037
  905MOL0     H22118   7.204   6.718   9.209  1.0062 -0.5701 -1.3046
  905MOL0     H22119   7.171   6.629   9.070  0.1241 -0.9695  0.7689
  905MOL0     H22120   6.939   6.690   9.061 -0.8509  0.4690  0.1508
  905MOL0     H22121   6.942   6.761   9.227 -1.3857 -3.8941  0.3034
  905MOL0     H22122   7.132   6.908   9.137 -0.3063 -2.2185  0.0219
  905MOL0     H22123   7.075   6.870   8.971 -0.0252  0.4779  0.1733
  905MOL0     H22124   6.902   7.004   9.176 -2.5258  1.9899 -0.7931
  905MOL0     H22125   6.878   6.984   9.003 -3.7361  1.0217  3.0220
  905MOL0     H22126   7.179   7.110   9.222 -0.7290  1.9419  1.6612
  905MOL0     H22127   7.237   7.463   9.172  1.3585  0.9707 -2.2013
  905MOL0     H22128   7.277   7.333   9.277  1.2081 -0.2806 -0.3329
  905MOL0     H22129   7.394   7.358   9.009 -3.3879  2.9066  1.7689
  905MOL0     H22130   7.453   7.233   9.126 -2.9025 -1.4885  0.8636
  905MOL0     H22131   7.488   7.438   9.291 -0.4775  0.0832 -0.1169
  905MOL0     H22132   7.499   7.541   9.154  1.1099  0.4781  1.1473
  905MOL0     H22133   7.677   7.376   9.055 -0.9969 -1.6723  1.0090
  905MOL0     H22134   7.645   7.291   9.192 -3.6531 -0.1501  0.0597
  905MOL0     H22135   7.907   7.283   9.139  0.3441 -0.4112 -0.4356
  905MOL0     H22136   8.230   7.241   9.221  3.2028  1.9418  0.4770
  905MOL0     H22137   8.100   7.179   9.141 -0.0026 -0.0036  0.4295
  905MOL0     H22138   8.219   7.262   9.040 -2.1909  0.9019 -0.5735
  905MOL0     H22139   8.428   7.770   8.928  1.1241 -1.0911 -2.4041
  905MOL0     H22140   8.677   7.828   8.882  1.9457  1.3711  1.5006
  905MOL0     H22141   8.972   7.935   9.133  1.1560  0.2286 -0.1562
  905MOL0     H22142   8.984   7.773   9.181 -3.5507  1.6576  1.3476
  905MOL0     H22143   9.186   7.896   9.059  1.7200  0.8409 -1.1460
  905MOL0     H22144   9.154   7.725   9.033  0.8585  1.1029 -0.1448
  905MOL0     H22145   9.019   7.937   8.868 -0.0720 -0.3176 -1.2067
  905MOL0     H22146   9.072   7.769   8.814  1.8390 -1.1302  0.3699
  905MOL0     H22147   9.291   7.983   8.884  0.6514  0.1696 -1.3693
  905MOL0     H22148   9.287   7.842   8.773 -2.8942 -2.4619 -0.9467
  905MOL0     H22149   9.144   8.107   8.735 -1.6230 -0.9025 -0.0861
  905MOL0     H22150   9.133   7.965   8.629  1.9036 -0.9383  1.1903
  905MOL0     H22151   9.338   7.969   8.558  3.3060  0.5307 -1.8870
  905MOL0     H22152   9.278   8.143   8.541  2.1274  0.1156  0.0293
  905MOL0     H22153   9.505   8.024   8.713  1.5447  0.1363 -0.8445
  905MOL0     H22154   9.417   8.175   8.762  2.1294  1.8148 -1.0815
  905MOL0     H22155   9.613   8.246   8.627  0.2268 -1.8792  0.2862
  905MOL0     H22156   9.452   8.263   8.545 -2.5539 -1.3696  0.5477
  905MOL0     H22157   8.780   7.702   9.264 -2.8635 -0.8443  2.9455
  905MOL0     H22158   8.549   7.652   9.322  0.5677 -1.1484 -0.5848
  905MOL0     H22159   8.128   7.714   9.266  0.2340  0.2338 -0.7483
  905MOL0     H22160   7.875   7.690   9.287 -1.1619 -0.9141  1.7454
  905MOL0     H22161   7.230   6.082   9.810 -0.4064  1.1940 -1.0502
  905MOL0     H22162   7.364   5.879   9.873 -1.1513 -0.9588 -0.6325
  905MOL0     H22163   7.962   5.957   9.927 -3.3781 -0.0272  1.4683
  905MOL0     H22164   8.141   5.831  10.011  0.8022 -1.3128 -1.1356
  905MOL0     H22165   8.240   5.679  10.145  0.3579 -1.1994  2.3330
  905MOL0     H22166   8.287   5.508  10.136 -2.3977  1.4597  2.5635
  905MOL0     H22167   8.314   5.702   9.894 -3.0743 -1.7272  0.0133
  905MOL0     H22168   8.376   5.539   9.926  3.1273  2.1805 -2.1084
  905MOL0     H22169   8.567   5.664   9.973  0.0091 -1.0227  0.5184
  905MOL0     H22170   8.513   5.654  10.135  0.5200  0.4052  0.4531
  905MOL0     H22171   8.360   5.883  10.058 -0.3230  2.5470 -4.1155
  905MOL0     H22172   8.495   5.885   9.943  1.9018 -0.7121  1.1259
  905MOL0     H22173   8.662   6.074  10.267  1.3981  0.0024 -0.3104
  905MOL0     H22174   7.911   5.475   9.957  2.4699 -0.4406  0.2154
  905MOL0     H22175   7.725   5.613   9.859 -0.4859  1.1154 -1.2405
  906MOL0     O22176   0.293   1.019  10.408 -0.0422  0.2824  0.0040
  906MOL0     C22177   0.303   0.971  10.514 -0.7719 -0.2915  0.5559
  906MOL0     O22178   0.419   0.949  10.583  0.3891  0.0392  0.4323
  906MOL0     C22179   0.533   1.014  10.562 -0.8122  1.1490 -0.3367
  906MOL0     C22180   0.571   1.110  10.470  0.0546 -0.1972 -0.8982
  906MOL0     C22181   0.695   1.170  10.481  0.9129 -0.6428 -0.3863
  906MOL0     C22182   0.795   1.135  10.575 -0.2263  0.8467  0.0230
  906MOL0     O22183   0.909   1.204  10.590  0.6417  0.3379 -1.1778
  906MOL0     C22184   0.966   1.268  10.470 -0.9933 -0.9310 -0.2421
  906MOL0     C22185   1.095   1.323  10.512 -0.5505 -0.3061  0.1362
  906MOL0     C22186   1.091   1.466  10.567 -0.2373 -0.6128  0.1236
  906MOL0     C22187   1.050   1.470  10.718 -0.5390  1.0196 -0.8737
  906MOL0     C22188   1.097   1.600  10.779  0.0765  1.3173  0.6896
  906MOL0     C22189   1.029   1.728  10.713  0.2623 -0.4638 -0.4537
  906MOL0     C22190   1.044   1.861  10.800  0.0759 -0.7127  0.8466
  906MOL0     C22191   0.970   1.981  10.744 -1.1805 -1.0362 -0.2750
  906MOL0     N22192   0.844   2.015  10.809  0.5098 -0.0666  0.4354
  906MOL0     C22193   0.818   2.143  10.834 -0.6836  0.1456  0.0703
  906MOL0     C22194   0.712   2.146  10.911 -0.2270 -0.7283  0.4946
  906MOL0     C22195   0.644   2.257  10.978 -1.0620  0.3891  0.2751
  906MOL0     C22196   0.518   2.278  10.903  0.7170 -0.7158 -0.7572
  906MOL0     C22197   0.414   2.176  10.956  0.1782  0.1101 -0.6577
  906MOL0     C22198   0.262   2.214  10.953 -0.2605 -0.1352  0.1495
  906MOL0     O22199   0.231   2.241  10.815 -0.2508  0.3391 -0.0854
  906MOL0     C22200   0.102   2.276  10.782 -0.4110  0.1478  0.6020
  906MOL0     C22201  -0.011   2.233  10.847 -0.0348  0.5643 -0.3016
  906MOL0     C22202  -0.141   2.254  10.794  0.2532  0.2494 -0.2990
  906MOL0     C22203  -0.255   2.168  10.858  0.7136 -0.1937 -0.5306
  906MOL0     C22204  -0.159   2.314  10.666 -0.7221 -0.4531  0.5861
  906MOL0     C22205  -0.293   2.340  10.603 -0.0695  1.1555  0.0495
  906MOL0     O22206  -0.408   2.286  10.658 -0.2818 -0.4930 -0.0065
  906MOL0     C22207  -0.530   2.347  10.622  0.0514  0.2070  0.1903
  906MOL0     C22208  -0.579   2.346  10.489  0.3538  0.2525 -0.1435
  906MOL0     C22209  -0.699   2.406  10.474 -0.2873 -1.2412 -0.1226
  906MOL0     C22210  -0.774   2.472  10.573 -0.5937  0.0491  0.8749
  906MOL0     O22211  -0.894   2.533  10.557  0.0518 -0.2181 -0.3707
  906MOL0     C22212  -0.946   2.551  10.423 -0.1248  0.1382  0.0219
  906MOL0     C22213  -1.051   2.658  10.419  0.6995 -0.4384  0.8126
  906MOL0     C22214  -1.098   2.683  10.274 -0.6608  1.0797  0.8511
  906MOL0     C22215  -1.194   2.805  10.254 -0.7223 -0.3542  0.5379
  906MOL0     C22216  -1.277   2.803  10.121 -0.5256 -0.5290  0.0069
  906MOL0     C22217  -1.193   2.794   9.991 -0.0085  0.3585  0.1523
  906MOL0     C22218  -1.079   2.900   9.988 -0.1059  0.2193  0.4207
  906MOL0     C22219  -1.020   2.924   9.840 -0.8247  0.3147  0.6542
  906MOL0    Cl22220  -1.153   2.965   9.716  0.2616  0.5551  0.1661
  906MOL0     C22221  -0.721   2.470  10.699 -0.4257  1.0949 -0.1626
  906MOL0     C22222  -0.592   2.409  10.730 -0.3480 -0.7138 -0.0549
  906MOL0     O22223  -0.294   2.412  10.504  0.8452  0.5486  0.3678
  906MOL0     C22224  -0.043   2.350  10.598  0.6536 -0.0970  1.1574
  906MOL0     C22225   0.084   2.329  10.658  0.9483  0.6958  0.1835
  906MOL0     N22226   0.678   2.023  10.941 -0.6112 -0.2459 -1.1766
  906MOL0     N22227   0.759   1.938  10.880 -0.2927  0.5304  0.6718
  906MOL0     C22228   0.763   1.032  10.657  0.8215  0.7968 -0.4383
  906MOL0     C22229   0.632   0.974  10.656 -0.7052  0.4046  0.9590
  906MOL0     C22230   0.178   0.916  10.571 -0.3835  0.4443 -1.1112
  906MOL0     C22231   0.195   0.813  10.666 -0.5712  0.1802 -0.0162
  906MOL0     C22232   0.094   0.732  10.712 -0.1132  0.2438 -0.1421
  906MOL0     C22233  -0.030   0.749  10.659  0.3728  0.2438  0.1400
  906MOL0     O22234  -0.139   0.675  10.716 -0.0942  0.0857 -0.4453
  906MOL0     C22235  -0.253   0.737  10.757  0.5160 -0.5056 -0.9781
  906MOL0     C22236  -0.315   0.663  10.862  0.5585  0.2906 -0.2010
  906MOL0     C22237  -0.277   0.718  10.996 -0.7952  0.5083 -0.0852
  906MOL0     C22238  -0.353   0.636  11.097  0.4566 -0.6975  0.3134
  906MOL0     C22239  -0.502   0.662  11.094 -0.0605 -0.4184  0.3008
  906MOL0     C22240  -0.616   0.706  11.101  0.3529 -0.6166  0.1747
  906MOL0     C22241  -0.052   0.837  10.557  0.2153 -0.4385  0.7740
  906MOL0     C22242   0.051   0.919  10.513 -0.4907  0.1547  0.0434
  906MOL0     H22243   0.504   1.143  10.391  2.3766  1.3552 -2.3236
  906MOL0     H22244   0.710   1.252  10.411  0.4601 -1.5663 -1.6100
  906MOL0     H22245   0.972   1.202  10.383  0.7238 -1.7793  0.4768
  906MOL0     H22246   0.901   1.353  10.449  0.2404 -0.4743 -2.5983
  906MOL0     H22247   1.158   1.266  10.581  2.5906  3.1580  0.4660
  906MOL0     H22248   1.160   1.329  10.424  2.2622 -0.4802  2.0574
  906MOL0     H22249   1.186   1.518  10.555 -2.0433  2.9051 -0.1277
  906MOL0     H22250   1.022   1.529  10.510 -0.3477 -0.8068  0.0412
  906MOL0     H22251   0.943   1.454  10.733 -0.4679  0.8385 -0.5650
  906MOL0     H22252   1.111   1.398  10.774  0.1297  3.0986  1.1835
  906MOL0     H22253   1.084   1.601  10.888  0.6627  0.5936  0.7765
  906MOL0     H22254   1.204   1.605  10.758  0.0403 -3.7375 -2.1112
  906MOL0     H22255   1.066   1.747  10.612  1.8871  0.4688  0.2689
  906MOL0     H22256   0.925   1.695  10.710 -1.0420  2.2521  4.3668
  906MOL0     H22257   1.018   1.847  10.906  1.5079  0.9172  1.4632
  906MOL0     H22258   1.150   1.884  10.799  0.2169 -1.3238  1.1295
  906MOL0     H22259   0.950   1.978  10.637 -1.3163 -2.9430 -0.2295
  906MOL0     H22260   1.028   2.070  10.770 -0.6670 -1.6000  0.5274
  906MOL0     H22261   0.883   2.226  10.809 -0.3129  0.3064  1.4954
  906MOL0     H22262   0.629   2.228  11.082 -1.3198 -0.8392 -0.0860
  906MOL0     H22263   0.707   2.347  10.983  2.7152 -2.0712  3.5584
  906MOL0     H22264   0.537   2.273  10.795 -2.6449  2.2794 -1.6701
  906MOL0     H22265   0.470   2.374  10.923 -2.2278 -2.1368 -0.4686
  906MOL0     H22266   0.436   2.164  11.063  1.0920  1.9276 -0.6137
  906MOL0     H22267   0.427   2.083  10.900  0.7987 -0.7141  0.7889
  906MOL0     H22268   0.249   2.299  11.021 -0.1138  0.7773 -0.9369
  906MOL0     H22269   0.196   2.131  10.979 -2.5421  1.1753 -1.1155
  906MOL0     H22270  -0.001   2.163  10.929 -1.8962  1.5145  0.7902
  906MOL0     H22271  -0.262   2.090  10.781  0.6185  2.4465 -3.3507
  906MOL0     H22272  -0.220   2.137  10.957 -0.9651 -1.6958 -0.3505
  906MOL0     H22273  -0.357   2.204  10.866 -0.2744 -1.7094 -4.1503
  906MOL0     H22274  -0.518   2.300  10.412  1.0466  0.0933  0.4903
  906MOL0     H22275  -0.755   2.414  10.381 -1.2988  2.0674  0.6102
  906MOL0     H22276  -0.874   2.583  10.347  0.6718 -2.0423 -0.2244
  906MOL0     H22277  -0.989   2.453  10.401  0.3664 -0.2917  0.9170
  906MOL0     H22278  -1.133   2.640  10.488 -0.1644  5.2436  1.7159
  906MOL0     H22279  -1.013   2.755  10.452 -1.2039  0.6175  0.0496
  906MOL0     H22280  -1.149   2.599  10.228  1.1948  1.2072 -1.6307
  906MOL0     H22281  -1.013   2.709  10.211  0.1267  0.4967  1.6437
  906MOL0     H22282  -1.257   2.816  10.343 -1.5057 -1.1818  0.1014
  906MOL0     H22283  -1.127   2.891  10.248 -0.8859 -0.2969 -0.6194
  906MOL0     H22284  -1.322   2.899  10.092  1.6156 -0.3098 -3.1855
  906MOL0     H22285  -1.356   2.728  10.127 -1.9398  0.6677 -2.0139
  906MOL0     H22286  -1.151   2.693   9.989 -1.4484 -0.3577  2.0208
  906MOL0     H22287  -1.255   2.802   9.901 -1.9887  1.9576  1.5657
  906MOL0     H22288  -0.989   2.862  10.036 -0.3263 -0.2785  0.4480
  906MOL0     H22289  -1.108   2.990  10.043  0.2441 -0.8779  2.5180
  906MOL0     H22290  -0.971   2.834   9.802 -0.6691  0.5240  0.3626
  906MOL0     H22291  -0.940   2.998   9.843  0.6861 -1.2321 -0.0486
  906MOL0     H22292  -0.786   2.511  10.777 -1.8235  0.7116 -1.0908
  906MOL0     H22293  -0.551   2.391  10.829 -1.9628  0.5178  0.8738
  906MOL0     H22294  -0.058   2.420  10.516  0.5403  0.4791  1.6581
  906MOL0     H22295   0.168   2.363  10.599  0.0831  0.8489 -0.9853
  906MOL0     H22296   0.829   1.000  10.737 -1.1724 -0.0984  0.9207
  906MOL0     H22297   0.607   0.895  10.725  1.3774 -3.2421 -2.1120
  906MOL0     H22298   0.296   0.799  10.704 -0.8648 -0.6172  0.4974
  906MOL0     H22299   0.120   0.655  10.783 -0.5123  1.4943  1.4196
  906MOL0     H22300  -0.236   0.837  10.798 -0.7206  0.5240 -2.8301
  906MOL0     H22301  -0.331   0.733  10.681 -2.1049  1.2234  1.4492
  906MOL0     H22302  -0.294   0.558  10.843  1.8799  0.6618 -0.9575
  906MOL0     H22303  -0.423   0.666  10.845  0.3023 -1.0542  1.0447
  906MOL0     H22304  -0.298   0.826  10.996  0.1594  0.7761  2.3883
  906MOL0     H22305  -0.169   0.704  11.002 -0.9668 -1.0171 -0.3052
  906MOL0     H22306  -0.314   0.657  11.197 -0.4157  2.0770  0.1505
  906MOL0     H22307  -0.335   0.529  11.078 -0.4201 -0.2522 -4.0213
  906MOL0     H22308  -0.710   0.754  11.117  1.0359  0.6268  0.6161
  906MOL0     H22309  -0.151   0.852  10.517  0.1118  1.0450  1.5400
  906MOL0     H22310   0.026   0.971  10.420 -0.3837  0.6578  0.2965
  907MOL0     O22311   1.913  10.201   4.480 -0.5460 -0.3369  0.1707
  907MOL0     C22312   1.899  10.242   4.367 -0.2602 -0.6873 -0.6496
  907MOL0     O22313   1.802  10.325   4.314  0.5021  0.4355  0.1967
  907MOL0     C22314   1.681  10.349   4.381  0.3633 -0.2615 -0.5416
  907MOL0     C22315   1.643  10.481   4.401 -0.6090  0.0243  0.4229
  907MOL0     C22316   1.519  10.507   4.471  0.2420  0.0092 -0.1836
  907MOL0     C22317   1.439  10.402   4.515 -0.5563 -0.2890 -0.4371
  907MOL0     O22318   1.323  10.444   4.574 -0.5473 -0.1351  0.2874
  907MOL0     C22319   1.245  10.339   4.640  1.2185 -0.4315 -0.0819
  907MOL0     C22320   1.135  10.397   4.726  0.0103 -0.3121 -0.7094
  907MOL0     C22321   1.152  10.394   4.881  1.0117 -0.3505 -0.6512
  907MOL0     C22322   1.160  10.253   4.943  0.2565 -0.3104 -0.0034
  907MOL0     C22323   1.200  10.249   5.090 -1.3778  0.0158 -0.3035
  907MOL0     C22324   1.142  10.354   5.177 -0.6931  0.1074  0.1273
  907MOL0     C22325   1.162  10.318   5.323  0.9534  0.4811  0.7533
  907MOL0     C22326   1.049  10.239   5.381 -0.5197  0.8792 -0.9679
  907MOL0     N22327   0.933  10.316   5.410  1.0300  0.3675  0.6884
  907MOL0     C22328   0.811  10.298   5.351 -0.2964 -0.6171  0.2955
  907MOL0     C22329   0.720  10.365   5.433 -0.4955  0.8503 -0.1508
  907MOL0     C22330   0.571  10.396   5.403 -0.2012 -0.2137  0.3177
  907MOL0     C22331   0.482  10.392   5.522 -0.3228  0.3098 -0.1296
  907MOL0     C22332   0.458  10.244   5.560 -0.3649 -0.8654 -0.7606
  907MOL0     C22333   0.351  10.218   5.672 -0.1629 -0.7648  0.7634
  907MOL0     O22334   0.383  10.254   5.806  0.5042 -0.2050 -0.0058
  907MOL0     C22335   0.276  10.266   5.898 -0.5205  1.1090  0.6512
  907MOL0     C22336   0.316  10.270   6.034 -0.7530  0.3599  0.5517
  907MOL0     C22337   0.228  10.256   6.143 -0.0026 -1.1622  0.0669
  907MOL0     C22338   0.291  10.244   6.276 -0.1108 -0.5591 -0.3171
  907MOL0     C22339   0.092  10.239   6.113 -0.0618 -0.2552 -0.3095
  907MOL0     C22340  -0.001  10.219   6.219 -0.0521 -0.4427  0.6787
  907MOL0     O22341  -0.069  10.096   6.240 -0.2849  0.0286  0.0426
  907MOL0     C22342  -0.144  10.086   6.349  0.4661  0.1592  0.2425
  907MOL0     C22343  -0.283  10.083   6.342  0.0681  0.5917 -0.4586
  907MOL0     C22344  -0.357  10.092   6.466  0.7062  0.5109  0.2232
  907MOL0     C22345  -0.293  10.074   6.584  0.0647 -0.0749 -0.3545
  907MOL0     O22346  -0.365  10.073   6.703 -0.3050 -0.3614 -0.2060
  907MOL0     C22347  -0.415  10.196   6.751 -0.6335 -0.4450  0.3851
  907MOL0     C22348  -0.445  10.191   6.900  0.0826 -0.3016 -0.3751
  907MOL0     C22349  -0.567  10.105   6.937 -0.7964  0.9802 -0.2612
  907MOL0     C22350  -0.689  10.161   6.888  0.6183  0.0539  0.4930
  907MOL0     C22351  -0.807  10.089   6.951 -0.2641 -0.3587 -0.0732
  907MOL0     C22352  -0.852  10.152   7.090  0.1442  0.1524  0.9301
  907MOL0     C22353  -0.956  10.056   7.168  0.0187  0.3152  0.5454
  907MOL0     C22354  -0.961  10.087   7.317 -0.1069  1.0460  0.8210
  907MOL0    Cl22355  -1.061  10.241   7.341  0.0962  0.2291 -0.3131
  907MOL0     C22356  -0.156  10.086   6.593  0.0534 -0.1706 -0.0578
  907MOL0     C22357  -0.081  10.091   6.476 -0.5860  0.5542  0.1699
  907MOL0     O22358  -0.014  10.315   6.288  0.3087 -0.3704 -0.1177
  907MOL0     C22359   0.053  10.225   5.979 -0.4615 -0.3811  0.5568
  907MOL0     C22360   0.147  10.238   5.874  1.1099 -0.7891  0.6063
  907MOL0     N22361   0.786  10.423   5.539  0.1771 -0.3330  0.2908
  907MOL0     N22362   0.916  10.386   5.523 -0.1290 -0.0185 -0.0295
  907MOL0     C22363   1.474  10.269   4.491  0.7654 -1.3158 -0.3572
  907MOL0     C22364   1.597  10.245   4.429  0.4882 -0.3352 -0.1629
  907MOL0     C22365   2.000  10.193   4.276 -0.2502  0.0599  0.2581
  907MOL0     C22366   2.063  10.067   4.280  0.7859  0.5956 -0.2055
  907MOL0     C22367   2.167  10.032   4.197 -0.8240  0.2336 -0.6575
  907MOL0     C22368   2.219  10.127   4.106  0.1823 -0.3700  0.8559
  907MOL0     O22369   2.339  10.108   4.041  0.6621  0.3653 -0.0012
  907MOL0     C22370   2.409   9.986   4.054 -1.0518 -0.7775 -0.2422
  907MOL0     C22371   2.530  10.009   3.969  0.1573  0.4798  0.2991
  907MOL0     C22372   2.646   9.913   4.005  0.4434  0.8568 -0.4705
  907MOL0     C22373   2.773   9.931   3.917  0.0453  0.3307 -0.0168
  907MOL0     C22374   2.866   9.816   3.950 -0.4650  0.2506  0.2240
  907MOL0     C22375   2.960   9.747   3.987  0.5245 -0.3129  0.4482
  907MOL0     C22376   2.149  10.249   4.084 -0.3493 -0.0155 -0.4306
  907MOL0     C22377   2.039  10.280   4.170  0.2362  0.6044 -0.3432
  907MOL0     H22378   1.714  10.550   4.357  0.0766 -2.4196 -2.6000
  907MOL0     H22379   1.495  10.612   4.479  0.8940  0.0947  0.8618
  907MOL0     H22380   1.195  10.275   4.567 -0.9665  0.6870  0.3612
  907MOL0     H22381   1.312  10.270   4.691  1.2406 -0.2764  0.1021
  907MOL0     H22382   1.127  10.501   4.693  2.7731  0.3091  0.3069
  907MOL0     H22383   1.039  10.349   4.708  0.2831 -0.8692 -0.7080
  907MOL0     H22384   1.234  10.459   4.914  0.3125 -0.7068  2.0697
  907MOL0     H22385   1.054  10.422   4.921  0.6756 -0.9757 -1.0233
  907MOL0     H22386   1.061  10.209   4.929 -0.0861  0.4944 -0.1955
  907MOL0     H22387   1.230  10.194   4.883 -1.3494 -1.5223 -0.7535
  907MOL0     H22388   1.176  10.151   5.131  1.4773  0.8686  3.9997
  907MOL0     H22389   1.309  10.256   5.091 -1.4759  3.2405  1.8925
  907MOL0     H22390   1.196  10.446   5.151 -2.0427  0.5515 -1.2776
  907MOL0     H22391   1.038  10.360   5.144 -0.7170 -0.8803  0.0032
  907MOL0     H22392   1.253  10.258   5.332 -0.1739 -1.0800  2.4960
  907MOL0     H22393   1.177  10.409   5.381  3.0845  0.5166  0.2150
  907MOL0     H22394   1.082  10.202   5.479 -0.4162  0.4778 -1.1533
  907MOL0     H22395   1.025  10.157   5.314 -0.1357 -1.1203  1.2095
  907MOL0     H22396   0.788  10.255   5.254  0.6865 -0.1594 -0.1574
  907MOL0     H22397   0.556  10.500   5.374  0.1757  0.5231  2.5772
  907MOL0     H22398   0.528  10.332   5.325 -1.4996 -0.6670  1.3599
  907MOL0     H22399   0.394  10.454   5.504 -1.0303 -1.0016 -1.3545
  907MOL0     H22400   0.525  10.433   5.614  0.1821  0.9040 -0.6191
  907MOL0     H22401   0.551  10.200   5.597  1.8734 -0.8056 -5.5744
  907MOL0     H22402   0.419  10.195   5.470  0.8854 -0.2630 -1.6618
  907MOL0     H22403   0.313  10.116   5.679 -1.2428 -0.2671  3.4727
  907MOL0     H22404   0.268  10.284   5.643  2.3693  2.0564 -0.6673
  907MOL0     H22405   0.423  10.265   6.047 -0.7293 -2.7835 -0.0076
  907MOL0     H22406   0.225  10.214   6.358 -1.4647  2.0042 -0.3846
  907MOL0     H22407   0.378  10.177   6.278  1.4745  1.3806 -0.9286
  907MOL0     H22408   0.332  10.343   6.297 -1.0334 -0.6899  2.4796
  907MOL0     H22409  -0.339  10.091   6.250 -0.8109  1.1144  0.0956
  907MOL0     H22410  -0.464  10.111   6.458  0.7953  0.4930 -1.1978
  907MOL0     H22411  -0.331  10.266   6.745  1.1133 -2.5510 -1.2147
  907MOL0     H22412  -0.507  10.229   6.702 -2.1580  0.3038  3.4909
  907MOL0     H22413  -0.358  10.139   6.943 -1.5902 -1.0953  2.3335
  907MOL0     H22414  -0.458  10.289   6.946 -1.4078 -0.1894 -0.9685
  907MOL0     H22415  -0.566  10.098   7.047 -2.3685 -0.9233 -0.3099
  907MOL0     H22416  -0.556  10.003   6.899 -0.1379  1.3760 -1.1382
  907MOL0     H22417  -0.697  10.265   6.922 -1.5730 -0.4844  1.7951
  907MOL0     H22418  -0.685  10.165   6.778 -0.5674  3.5164  0.4296
  907MOL0     H22419  -0.787   9.984   6.971  1.3730  0.0615  0.6495
  907MOL0     H22420  -0.893  10.079   6.884  0.0651 -1.3915 -0.3660
  907MOL0     H22421  -0.763  10.169   7.151  1.5992 -3.0544 -0.0771
  907MOL0     H22422  -0.898  10.248   7.065 -2.0912 -0.8198  1.1017
  907MOL0     H22423  -0.924   9.952   7.158 -0.9464  0.1994 -2.2576
  907MOL0     H22424  -1.054  10.061   7.119  0.7382 -0.3743 -1.0394
  907MOL0     H22425  -0.855  10.097   7.343 -0.0304 -0.5922  1.2771
  907MOL0     H22426  -0.988  10.001   7.379 -1.2083  1.7950  1.4028
  907MOL0     H22427  -0.113  10.082   6.693  2.4760  1.7517 -0.9219
  907MOL0     H22428   0.027  10.099   6.481 -0.4345 -0.7920 -0.5644
  907MOL0     H22429  -0.046  10.200   5.942  0.6723 -2.7100 -1.1878
  907MOL0     H22430   0.096  10.246   5.779 -2.1770 -0.5214  2.2475
  907MOL0     H22431   1.402  10.192   4.517 -0.1983  0.2065  1.7553
  907MOL0     H22432   1.626  10.144   4.400  3.0849 -1.0010  3.9545
  907MOL0     H22433   2.021  10.005   4.360 -3.1351  2.5503 -0.5073
  907MOL0     H22434   2.206   9.931   4.207  0.8133  0.5871 -2.7457
  907MOL0     H22435   2.430   9.976   4.161  0.6055 -2.0752 -0.6405
  907MOL0     H22436   2.359   9.892   4.030 -1.3408 -0.1485 -2.2825
  907MOL0     H22437   2.562  10.110   3.996 -0.8710  1.3984 -1.7300
  907MOL0     H22438   2.510  10.012   3.862 -2.2829 -1.6611  0.5916
  907MOL0     H22439   2.616   9.809   3.992  1.6710  0.3101  0.8745
  907MOL0     H22440   2.674   9.921   4.110 -1.7351 -2.1439  0.4693
  907MOL0     H22441   2.819  10.025   3.948  0.8614  0.0469 -0.3617
  907MOL0     H22442   2.741   9.941   3.813  0.6319 -2.2182 -0.5002
  907MOL0     H22443   3.051   9.697   4.014  0.3463 -0.2748  1.1444
  907MOL0     H22444   2.186  10.330   4.023 -2.2375  1.2915  0.0626
  907MOL0     H22445   1.986  10.373   4.155  0.5898  1.4274  2.7758
  908MOL0     O22446   5.340   3.082   0.053  0.8718  0.5117 -0.6042
  908MOL0     C22447   5.388   3.177   0.106 -1.0187  0.5957 -1.3826
  908MOL0     O22448   5.330   3.247   0.219 -0.3254 -0.8018  0.4319
  908MOL0     C22449   5.201   3.212   0.258  0.0001 -0.6238 -0.3043
  908MOL0     C22450   5.177   3.092   0.314  0.5193  0.0527 -0.0071
  908MOL0     C22451   5.043   3.061   0.359  0.3616  0.3349  0.3338
  908MOL0     C22452   4.949   3.158   0.352 -0.3277  0.0362  0.2665
  908MOL0     O22453   4.824   3.120   0.395 -0.9418  0.9351 -0.6148
  908MOL0     C22454   4.817   3.018   0.511 -0.9612 -0.8688  0.1198
  908MOL0     C22455   4.695   3.052   0.595 -0.3945  0.0296  0.3737
  908MOL0     C22456   4.720   2.991   0.739  0.5084 -0.9785 -0.2126
  908MOL0     C22457   4.677   2.848   0.760  0.0637  0.1050  0.0697
  908MOL0     C22458   4.717   2.781   0.888 -0.1976 -0.4925 -0.5751
  908MOL0     C22459   4.676   2.860   1.005  0.3653  0.3692 -0.1971
  908MOL0     C22460   4.709   2.783   1.128 -0.0128  0.0912 -0.4067
  908MOL0     C22461   4.647   2.874   1.246  0.6550  0.7658 -0.0500
  908MOL0     N22462   4.683   2.828   1.385  0.3071 -0.1637 -0.0785
  908MOL0     C22463   4.606   2.867   1.491 -0.2403  0.0447  0.0490
  908MOL0     C22464   4.677   2.827   1.601  0.3941 -0.3849  1.0404
  908MOL0     C22465   4.646   2.838   1.745 -0.1976  0.3345  0.9283
  908MOL0     C22466   4.613   2.981   1.796  0.4055  0.1396 -0.3762
  908MOL0     C22467   4.739   3.068   1.774  0.2372 -0.2915  1.0167
  908MOL0     C22468   4.734   3.206   1.825 -0.3670  0.0022  0.3316
  908MOL0     O22469   4.653   3.294   1.746 -0.6427 -0.2183 -0.0832
  908MOL0     C22470   4.677   3.424   1.752  0.2589  0.4946  0.0462
  908MOL0     C22471   4.640   3.500   1.644 -0.4369 -0.2600  0.9130
  908MOL0     C22472   4.659   3.640   1.646  0.3257 -0.0469 -0.4765
  908MOL0     C22473   4.614   3.712   1.521  0.6819  0.0978 -0.0867
  908MOL0     C22474   4.723   3.700   1.758 -0.0638  0.1525 -0.6332
  908MOL0     C22475   4.755   3.845   1.771 -0.7329  0.9288 -0.5124
  908MOL0     O22476   4.757   3.889   1.899 -0.0504  0.7648 -0.7294
  908MOL0     C22477   4.776   4.022   1.922  0.1591 -0.3131 -0.6059
  908MOL0     C22478   4.671   4.097   1.967 -0.8225 -0.4344  0.1825
  908MOL0     C22479   4.688   4.226   2.008  0.0975 -0.0618 -0.3115
  908MOL0     C22480   4.812   4.288   1.994  0.2722 -0.4418 -0.4331
  908MOL0     O22481   4.824   4.425   2.032 -0.3799  0.2438 -0.2575
  908MOL0     C22482   4.958   4.472   2.043  0.4270 -0.3698  0.0141
  908MOL0     C22483   4.969   4.608   2.099  0.3710  0.6090 -0.3523
  908MOL0     C22484   5.109   4.659   2.094  1.4573 -0.0318  0.5273
  908MOL0     C22485   5.096   4.789   2.185 -0.4699 -0.4413  0.2699
  908MOL0     C22486   5.227   4.821   2.242  0.4935  0.1847  1.0852
  908MOL0     C22487   5.214   4.934   2.333  0.4729  0.0045  0.2595
  908MOL0     C22488   5.354   4.977   2.370 -0.0426 -0.6267  0.4482
  908MOL0     C22489   5.426   5.052   2.262 -0.5440 -0.1462  0.4702
  908MOL0    Cl22490   5.337   5.203   2.247  0.1520  0.2412 -0.4072
  908MOL0     C22491   4.922   4.213   1.933 -0.5883  0.1947  0.3685
  908MOL0     C22492   4.903   4.080   1.896 -0.0923 -0.1985 -0.0482
  908MOL0     O22493   4.773   3.920   1.678  0.1157  0.6937  0.0980
  908MOL0     C22494   4.762   3.618   1.866  0.1829  0.0063  0.4863
  908MOL0     C22495   4.734   3.486   1.857  0.3406  0.5439  0.3653
  908MOL0     N22496   4.799   2.776   1.556  0.1540  0.6362  0.2330
  908MOL0     N22497   4.799   2.780   1.430  0.9343  1.0988 -1.1005
  908MOL0     C22498   4.977   3.275   0.287 -0.5095  0.3581 -0.5443
  908MOL0     C22499   5.097   3.305   0.245 -0.3390  1.4973  0.4350
  908MOL0     C22500   5.514   3.240   0.043 -0.5230  0.3480 -0.8556
  908MOL0     C22501   5.543   3.381   0.061  0.0448  0.4126 -0.5699
  908MOL0     C22502   5.671   3.432   0.014  0.2779  0.8652  0.0994
  908MOL0     C22503   5.748   3.355  -0.075  0.6691  0.4083  0.7680
  908MOL0     O22504   5.858   3.427  -0.120 -0.0002  0.3794  0.5124
  908MOL0     C22505   5.966   3.366  -0.207  0.9778  0.2696  0.0215
  908MOL0     C22506   6.083   3.459  -0.217  0.4367  0.3204  0.0252
  908MOL0     C22507   6.162   3.452  -0.082 -0.2509 -0.4939  0.2114
  908MOL0     C22508   6.276   3.554  -0.074 -0.3338  0.3823 -0.5152
  908MOL0     C22509   6.289   3.598   0.069 -0.0485  0.1818  0.0401
  908MOL0     C22510   6.306   3.647   0.182  0.0520 -1.1056 -1.0173
  908MOL0     C22511   5.715   3.228  -0.100  0.5027  0.2274  1.1101
  908MOL0     C22512   5.595   3.174  -0.053 -0.5739  1.0820 -0.5375
  908MOL0     H22513   5.261   3.023   0.310  0.7186  0.1207  1.9833
  908MOL0     H22514   5.017   2.960   0.391 -2.2580  0.3032 -1.5925
  908MOL0     H22515   4.793   2.919   0.470  1.0028 -0.5162 -2.1432
  908MOL0     H22516   4.911   3.016   0.567 -2.6587 -0.2777  3.1644
  908MOL0     H22517   4.685   3.161   0.597 -2.0705 -0.0751 -0.1100
  908MOL0     H22518   4.599   3.012   0.562 -0.3605 -0.2017  0.5593
  908MOL0     H22519   4.824   3.001   0.770 -0.1434  0.9287  1.6174
  908MOL0     H22520   4.671   3.058   0.811  1.2153 -1.1157  0.4052
  908MOL0     H22521   4.570   2.843   0.742  0.0240  0.9555  0.0313
  908MOL0     H22522   4.724   2.793   0.678  1.0887  2.1156 -0.7770
  908MOL0     H22523   4.679   2.679   0.877  0.9374 -1.0874  0.7106
  908MOL0     H22524   4.826   2.769   0.882 -0.4672 -3.0022 -1.3410
  908MOL0     H22525   4.734   2.953   1.005 -0.2540  0.7785  1.4276
  908MOL0     H22526   4.569   2.881   0.999  0.4534  1.1079  0.6153
  908MOL0     H22527   4.661   2.685   1.128  1.6274 -0.7554  0.2726
  908MOL0     H22528   4.817   2.776   1.148 -0.5425 -0.3550  2.8696
  908MOL0     H22529   4.538   2.876   1.233  0.5903 -0.1979  0.2840
  908MOL0     H22530   4.677   2.976   1.220 -2.3145  2.0337  1.0687
  908MOL0     H22531   4.517   2.928   1.477  0.6794  1.2276 -0.9380
  908MOL0     H22532   4.557   2.775   1.759  0.1307 -0.8184 -1.5127
  908MOL0     H22533   4.728   2.786   1.795  0.6880 -0.3374 -1.1157
  908MOL0     H22534   4.616   2.983   1.906  2.3832 -0.6834 -0.3805
  908MOL0     H22535   4.521   3.024   1.756  0.2592 -0.7470 -1.0045
  908MOL0     H22536   4.767   3.065   1.668 -0.3898 -0.1517  0.8432
  908MOL0     H22537   4.815   3.004   1.820  1.1061 -0.0047  0.0302
  908MOL0     H22538   4.836   3.243   1.816  1.1128 -3.1016  2.7099
  908MOL0     H22539   4.694   3.208   1.927 -2.0045 -1.7127 -0.2135
  908MOL0     H22540   4.620   3.447   1.552  0.4109  0.9712 -0.0069
  908MOL0     H22541   4.616   3.658   1.426 -0.3257 -0.3530  0.1347
  908MOL0     H22542   4.516   3.760   1.530 -0.0207 -1.1190 -1.0387
  908MOL0     H22543   4.687   3.791   1.504  1.2525  0.2765  2.7075
  908MOL0     H22544   4.577   4.044   1.984 -0.1459 -3.4604 -3.9670
  908MOL0     H22545   4.602   4.284   2.040  0.6920  0.9102 -0.4228
  908MOL0     H22546   5.016   4.404   2.105  0.6009 -0.0150  0.2419
  908MOL0     H22547   5.004   4.481   1.944  2.2317 -3.1840  0.4776
  908MOL0     H22548   4.905   4.674   2.039 -0.1202  0.9332  0.5125
  908MOL0     H22549   4.937   4.612   2.204  5.4044  1.8329  1.4412
  908MOL0     H22550   5.137   4.690   1.992 -0.3600  1.3593  0.4085
  908MOL0     H22551   5.188   4.588   2.121  1.7139  0.7455  1.8737
  908MOL0     H22552   5.071   4.873   2.119  2.9483  0.3705 -0.1974
  908MOL0     H22553   5.021   4.790   2.264 -0.2395  0.6016  0.4810
  908MOL0     H22554   5.292   4.852   2.159 -1.1361 -2.4783 -1.3660
  908MOL0     H22555   5.268   4.729   2.283  0.5149  0.1497  0.9853
  908MOL0     H22556   5.160   5.005   2.270 -2.2069 -0.8181  1.4981
  908MOL0     H22557   5.146   4.905   2.413  1.3540  0.4485  1.1999
  908MOL0     H22558   5.404   4.889   2.411 -0.6992 -0.7070  1.1010
  908MOL0     H22559   5.355   5.041   2.459  1.5961  2.0353 -1.3443
  908MOL0     H22560   5.434   5.005   2.164  0.5402  4.7792 -2.1185
  908MOL0     H22561   5.528   5.078   2.294 -1.6619  3.2592  1.6865
  908MOL0     H22562   5.020   4.250   1.907 -0.8477  0.7850  0.2152
  908MOL0     H22563   4.980   4.024   1.844 -0.9159 -0.1543 -1.3303
  908MOL0     H22564   4.814   3.647   1.957 -1.7191  0.4891  1.4661
  908MOL0     H22565   4.761   3.437   1.950 -1.3290 -1.3764 -0.0980
  908MOL0     H22566   4.900   3.350   0.277 -0.0917  0.9327  0.3965
  908MOL0     H22567   5.107   3.406   0.206 -0.2984  1.3913  0.1698
  908MOL0     H22568   5.490   3.452   0.123 -1.6482 -1.6216  0.4259
  908MOL0     H22569   5.702   3.528   0.052  1.0694  0.5289  0.3089
  908MOL0     H22570   5.987   3.261  -0.185 -2.5308 -0.7633 -0.8706
  908MOL0     H22571   5.922   3.367  -0.308 -3.4336 -0.3410  1.7153
  908MOL0     H22572   6.048   3.558  -0.248  0.6382  0.7602  1.1568
  908MOL0     H22573   6.140   3.419  -0.301  1.4293 -0.5639  1.0928
  908MOL0     H22574   6.206   3.353  -0.063  0.7163  0.2021  1.8314
  908MOL0     H22575   6.091   3.474  -0.002 -1.2085 -2.0112 -0.1913
  908MOL0     H22576   6.269   3.635  -0.147  0.5142  0.5095 -0.4674
  908MOL0     H22577   6.370   3.499  -0.091  0.6804  2.0239 -0.4503
  908MOL0     H22578   6.301   3.683   0.283  1.7345 -2.4399 -0.3931
  908MOL0     H22579   5.782   3.167  -0.160 -0.0030  2.0255 -1.4668
  908MOL0     H22580   5.572   3.072  -0.084  0.1440  0.7961 -0.1512
  909MOL0     O22581   4.602   6.926   4.450  0.9268  0.2317 -0.6301
  909MOL0     C22582   4.513   6.844   4.446  0.5603 -0.9808 -0.1740
  909MOL0     O22583   4.427   6.810   4.551 -0.7270 -0.4131  0.2596
  909MOL0     C22584   4.439   6.885   4.668 -0.4253 -0.0744 -0.1174
  909MOL0     C22585   4.536   6.863   4.768  0.3102 -0.5548 -0.0270
  909MOL0     C22586   4.532   6.952   4.876 -0.3430  0.2748  0.2949
  909MOL0     C22587   4.448   7.066   4.889  0.2474  0.0750  0.0355
  909MOL0     O22588   4.429   7.157   4.988  1.0205  0.0224 -0.7315
  909MOL0     C22589   4.500   7.118   5.099  0.2757 -0.2180  0.5341
  909MOL0     C22590   4.427   7.213   5.208  0.1516  0.4585 -0.1294
  909MOL0     C22591   4.524   7.225   5.323 -0.1241  0.8203 -0.6569
  909MOL0     C22592   4.471   7.152   5.442  0.1840  0.2554  0.5224
  909MOL0     C22593   4.559   7.130   5.570 -0.0435 -0.3619  0.0850
  909MOL0     C22594   4.675   7.029   5.558 -0.3585 -0.2864  0.2454
  909MOL0     C22595   4.765   6.998   5.685 -0.7650 -0.9298  0.6246
  909MOL0     C22596   4.703   6.929   5.803 -0.0113 -0.9179  0.0700
  909MOL0     N22597   4.692   6.780   5.788 -0.0161 -0.1984  0.7759
  909MOL0     C22598   4.808   6.703   5.759 -0.1366  0.3435 -0.6348
  909MOL0     C22599   4.761   6.575   5.767 -0.4493  0.4129 -0.3001
  909MOL0     C22600   4.835   6.441   5.769  0.1417 -1.7662 -0.9995
  909MOL0     C22601   4.813   6.369   5.905  0.4165 -0.5735  0.2288
  909MOL0     C22602   4.862   6.442   6.031 -0.3779  0.5454 -0.0424
  909MOL0     C22603   5.001   6.507   6.015 -0.0839 -0.3163  0.2801
  909MOL0     O22604   5.101   6.400   5.988  0.6391  0.0961 -0.5897
  909MOL0     C22605   5.134   6.324   6.097 -0.1556 -0.2893  0.4777
  909MOL0     C22606   5.227   6.225   6.069  0.0167 -0.8472  0.0267
  909MOL0     C22607   5.282   6.140   6.166 -0.4834 -0.1189  0.6077
  909MOL0     C22608   5.401   6.036   6.138  0.1094  0.0027 -0.1642
  909MOL0     C22609   5.224   6.142   6.293 -0.1260  0.4468 -0.0621
  909MOL0     C22610   5.267   6.057   6.398  0.0687  0.0822 -0.0350
  909MOL0     O22611   5.289   5.923   6.372  0.5918  0.1959  0.2592
  909MOL0     C22612   5.318   5.838   6.483  0.2732 -1.0443 -0.2363
  909MOL0     C22613   5.429   5.761   6.488  0.1795 -0.5041  0.8139
  909MOL0     C22614   5.463   5.675   6.595 -1.0326  0.5271  0.7847
  909MOL0     C22615   5.387   5.677   6.712  0.3488 -0.4718  0.2709
  909MOL0     O22616   5.411   5.624   6.835 -0.6590 -0.1245 -0.7071
  909MOL0     C22617   5.549   5.572   6.859  0.4952  0.0684  0.0657
  909MOL0     C22618   5.549   5.425   6.827  0.1903 -0.8090  0.2067
  909MOL0     C22619   5.605   5.345   6.947  0.0106 -0.7050  0.3035
  909MOL0     C22620   5.755   5.362   6.938  0.0195  0.1654 -0.3792
  909MOL0     C22621   5.816   5.280   7.055  0.4094 -0.9333  0.1787
  909MOL0     C22622   5.784   5.130   7.056 -0.2015  1.2145  0.5048
  909MOL0     C22623   5.860   5.058   7.166 -0.5700  0.4185 -0.2072
  909MOL0     C22624   5.937   4.929   7.125  0.3987  0.0431 -0.6405
  909MOL0    Cl22625   5.813   4.811   7.066  0.1946  0.1008  0.3318
  909MOL0     C22626   5.266   5.743   6.700  1.0128 -0.4209 -0.0355
  909MOL0     C22627   5.230   5.822   6.588 -0.5444 -0.7463 -1.6453
  909MOL0     O22628   5.301   6.108   6.503 -0.1058 -0.2733 -0.7377
  909MOL0     C22629   5.140   6.252   6.327 -0.8546  0.0587  0.1176
  909MOL0     C22630   5.091   6.340   6.231 -0.3655  0.4996 -0.0753
  909MOL0     N22631   4.625   6.582   5.794  0.1309  0.3978 -0.1656
  909MOL0     N22632   4.591   6.705   5.821  0.0872 -0.0566 -0.0294
  909MOL0     C22633   4.363   7.086   4.778  0.0707  0.4719 -0.6681
  909MOL0     C22634   4.358   6.994   4.673 -0.3992 -0.0668 -0.7766
  909MOL0     C22635   4.488   6.793   4.310  0.0223  0.4395 -1.0377
  909MOL0     C22636   4.375   6.703   4.289 -0.8362  0.1300  0.6234
  909MOL0     C22637   4.346   6.647   4.162 -0.9154  0.9805  0.1078
  909MOL0     C22638   4.429   6.682   4.056  0.1244  0.6658 -0.5368
  909MOL0     O22639   4.403   6.615   3.937  0.1616 -0.1550 -0.1907
  909MOL0     C22640   4.509   6.583   3.853 -0.2085 -0.4068  0.8615
  909MOL0     C22641   4.546   6.683   3.744 -0.4214  0.0722 -0.8919
  909MOL0     C22642   4.422   6.687   3.654 -0.2351 -0.3923  0.1366
  909MOL0     C22643   4.460   6.708   3.503  0.1917 -0.6402 -0.5354
  909MOL0     C22644   4.529   6.831   3.470 -0.7686  0.0337  1.0264
  909MOL0     C22645   4.588   6.938   3.445  0.1832  0.3682  0.2519
  909MOL0     C22646   4.549   6.739   4.084  0.8362 -0.6305 -0.8093
  909MOL0     C22647   4.577   6.793   4.208  0.0876  0.4642  0.2147
  909MOL0     H22648   4.602   6.777   4.777  1.0811 -0.0273 -0.4989
  909MOL0     H22649   4.600   6.920   4.954 -0.2370 -2.6185 -0.8894
  909MOL0     H22650   4.475   7.014   5.123 -0.2618 -0.4972 -1.1080
  909MOL0     H22651   4.607   7.131   5.081  0.8053 -3.0853  1.1460
  909MOL0     H22652   4.399   7.308   5.161 -1.4686 -0.8708 -1.9869
  909MOL0     H22653   4.328   7.181   5.241  0.6355 -0.5491  0.3912
  909MOL0     H22654   4.625   7.188   5.305  0.6008  0.5562  3.0663
  909MOL0     H22655   4.538   7.327   5.360  0.3287  0.3755  0.4319
  909MOL0     H22656   4.378   7.205   5.464 -0.0627 -0.2721  0.7714
  909MOL0     H22657   4.448   7.050   5.412 -0.8240 -0.0399  2.1655
  909MOL0     H22658   4.586   7.228   5.610 -0.8023 -0.7214  1.5330
  909MOL0     H22659   4.499   7.084   5.649  2.0952 -3.7722 -0.0518
  909MOL0     H22660   4.636   6.934   5.521  0.1446 -0.7001  0.7638
  909MOL0     H22661   4.745   7.071   5.485 -1.7797  0.0329 -0.9917
  909MOL0     H22662   4.850   6.934   5.660 -0.9738 -0.9166 -0.1360
  909MOL0     H22663   4.811   7.087   5.728 -1.8635 -0.3043  0.5403
  909MOL0     H22664   4.602   6.970   5.808  0.8101  1.1490  1.0076
  909MOL0     H22665   4.770   6.945   5.888  0.6141  1.7125 -0.8245
  909MOL0     H22666   4.912   6.734   5.752  0.2913 -0.8924  0.0498
  909MOL0     H22667   4.781   6.377   5.699 -2.9844 -0.1669 -0.2286
  909MOL0     H22668   4.939   6.456   5.738  0.9973  0.0787  2.2250
  909MOL0     H22669   4.857   6.268   5.906  2.6045  0.3327  1.0132
  909MOL0     H22670   4.706   6.353   5.921  0.2618  0.9636  0.8502
  909MOL0     H22671   4.863   6.368   6.111  0.3756 -1.6657 -1.9959
  909MOL0     H22672   4.792   6.520   6.064 -1.4151  0.5042 -1.9856
  909MOL0     H22673   5.030   6.572   6.098  3.5412 -1.5088  0.1235
  909MOL0     H22674   5.019   6.577   5.933 -1.2156 -0.2061  0.1153
  909MOL0     H22675   5.255   6.223   5.964 -0.5070  1.6895 -0.2234
  909MOL0     H22676   5.375   5.930   6.139  3.7202 -1.0055  0.2639
  909MOL0     H22677   5.433   6.052   6.034 -0.4720  2.0591 -0.0724
  909MOL0     H22678   5.492   6.052   6.196  1.5108  1.8904 -2.6447
  909MOL0     H22679   5.500   5.774   6.407 -0.5464  2.6067  0.5282
  909MOL0     H22680   5.551   5.613   6.582 -1.2763  0.5998 -1.7825
  909MOL0     H22681   5.617   5.626   6.794  0.8794 -2.2426 -1.5895
  909MOL0     H22682   5.580   5.580   6.964 -0.0658  0.0563  0.2397
  909MOL0     H22683   5.448   5.389   6.803 -1.4282  2.2672  1.8526
  909MOL0     H22684   5.604   5.410   6.734  0.5465  0.8473  0.1192
  909MOL0     H22685   5.569   5.243   6.934 -1.5657 -0.1263 -0.1497
  909MOL0     H22686   5.561   5.380   7.041 -3.5682  2.3003 -2.1735
  909MOL0     H22687   5.797   5.330   6.842 -0.8297 -2.1050 -0.0492
  909MOL0     H22688   5.786   5.465   6.957 -0.4617  0.0217  1.2991
  909MOL0     H22689   5.798   5.327   7.152  1.9291 -1.9202  0.9791
  909MOL0     H22690   5.923   5.296   7.036  0.0523  1.0568 -0.4422
  909MOL0     H22691   5.678   5.106   7.061  0.1747 -0.3258  3.7714
  909MOL0     H22692   5.811   5.092   6.957  0.4920 -0.1468  1.1949
  909MOL0     H22693   5.788   5.051   7.248  0.2945  2.1379  0.7768
  909MOL0     H22694   5.933   5.124   7.214 -0.4171  0.1484 -0.0658
  909MOL0     H22695   5.978   4.893   7.219 -0.8870 -0.6222 -0.3067
  909MOL0     H22696   6.020   4.936   7.054 -0.5778 -0.9985 -1.9457
  909MOL0     H22697   5.193   5.747   6.780  0.3844 -0.1323 -0.6153
  909MOL0     H22698   5.135   5.873   6.600 -2.1804 -4.0154  1.1770
  909MOL0     H22699   5.109   6.267   6.430  0.9789  0.2800  0.6742
  909MOL0     H22700   5.031   6.422   6.269 -1.3338 -0.3841  0.3612
  909MOL0     H22701   4.290   7.166   4.775  1.2618  1.6059 -3.7065
  909MOL0     H22702   4.291   7.021   4.593 -1.1571 -2.0166 -0.8640
  909MOL0     H22703   4.315   6.678   4.376 -0.9144  1.7943  1.0822
  909MOL0     H22704   4.259   6.591   4.129  1.4668 -2.3053 -1.1344
  909MOL0     H22705   4.603   6.559   3.903  1.0723 -0.6486 -1.5196
  909MOL0     H22706   4.478   6.487   3.811  0.8383 -0.1436 -0.5546
  909MOL0     H22707   4.627   6.659   3.675  0.4432  1.4088 -0.3948
  909MOL0     H22708   4.572   6.776   3.796 -0.4794 -0.1994 -0.3658
  909MOL0     H22709   4.363   6.772   3.689  1.3185  0.2113  1.4323
  909MOL0     H22710   4.358   6.600   3.670 -0.9098  0.6024  3.7506
  909MOL0     H22711   4.364   6.707   3.451 -0.0310 -2.0467 -0.1382
  909MOL0     H22712   4.515   6.623   3.462 -0.2515 -1.0115 -0.3785
  909MOL0     H22713   4.644   7.028   3.427 -0.2294  1.3402  3.2648
  909MOL0     H22714   4.618   6.763   4.005 -0.7639 -0.9132 -2.3596
  909MOL0     H22715   4.671   6.847   4.207 -0.7436  1.9911 -0.8134
  910MOL0     O22716   0.467  10.546   6.175 -0.0328  0.3750  0.0605
  910MOL0     C22717   0.510  10.585   6.066  0.7351  1.3463 -0.2842
  910MOL0     O22718   0.433  10.616   5.966 -0.2220 -0.2315 -0.0595
  910MOL0     C22719   0.298  10.657   5.978 -1.1488 -0.3899 -0.4933
  910MOL0     C22720   0.218  10.652   6.092  0.7121  0.3630  0.1715
  910MOL0     C22721   0.082  10.686   6.079  0.3973  0.0087  0.2343
  910MOL0     C22722   0.030  10.754   5.965  0.2805  0.4203 -0.7022
  910MOL0     O22723  -0.097  10.799   5.974 -0.2875 -0.2214  0.0406
  910MOL0     C22724  -0.126  10.936   5.986  0.5010 -0.4323 -0.2325
  910MOL0     C22725  -0.177  10.989   5.843  0.0040  0.3741 -1.0640
  910MOL0     C22726  -0.276  11.100   5.861  0.0688 -1.1548  0.8292
  910MOL0     C22727  -0.219  11.237   5.921  0.6362 -0.2253 -1.2147
  910MOL0     C22728  -0.319  11.352   5.966 -0.5695  0.3228  0.1071
  910MOL0     C22729  -0.414  11.303   6.070 -0.1142 -0.3772  0.6363
  910MOL0     C22730  -0.507  11.423   6.098 -0.0346  0.0958 -0.3739
  910MOL0     C22731  -0.575  11.423   6.236  0.4296  0.1409 -0.6688
  910MOL0     N22732  -0.661  11.537   6.261 -0.1769 -0.6216  1.0971
  910MOL0     C22733  -0.732  11.595   6.155  0.3203  0.5119  0.2703
  910MOL0     C22734  -0.793  11.700   6.199  0.5512 -0.9771  0.2679
  910MOL0     C22735  -0.887  11.806   6.137 -0.6042  0.7981  0.3460
  910MOL0     C22736  -0.829  11.843   6.006 -0.2646 -0.5331  0.8760
  910MOL0     C22737  -0.902  11.958   5.934  0.5731 -0.7795 -0.3392
  910MOL0     C22738  -1.059  11.944   5.920 -0.5698  0.6278 -0.2812
  910MOL0     O22739  -1.138  11.975   6.039 -0.3079 -0.0204  0.3625
  910MOL0     C22740  -1.272  12.029   6.005 -0.2722  0.5048  0.4239
  910MOL0     C22741  -1.382  11.956   6.060  0.1748  0.1498 -0.5779
  910MOL0     C22742  -1.511  11.999   6.035 -0.2703 -0.7817  0.0212
  910MOL0     C22743  -1.627  11.911   6.074 -0.0835  0.2820  1.3999
  910MOL0     C22744  -1.535  12.129   5.976 -0.6739 -0.4792 -0.1773
  910MOL0     C22745  -1.674  12.179   5.945  0.4525  1.0758  0.3052
  910MOL0     O22746  -1.789  12.098   5.969 -0.0595 -0.2556  0.7306
  910MOL0     C22747  -1.905  12.147   5.930  0.7256 -0.4476 -0.7110
  910MOL0     C22748  -1.966  12.233   6.024 -0.3426  0.0206 -0.8590
  910MOL0     C22749  -2.084  12.288   5.981 -0.2513  1.9953 -0.6235
  910MOL0     C22750  -2.160  12.233   5.872 -0.4311 -0.3418 -0.4898
  910MOL0     O22751  -2.281  12.271   5.832 -0.5039 -0.4689  0.8416
  910MOL0     C22752  -2.343  12.394   5.893 -0.0864  0.1861  1.0661
  910MOL0     C22753  -2.460  12.424   5.802 -1.5415  0.3235  0.2474
  910MOL0     C22754  -2.557  12.533   5.857 -0.0040  0.5414 -0.9662
  910MOL0     C22755  -2.656  12.568   5.753  0.2229 -0.8153  0.3337
  910MOL0     C22756  -2.746  12.682   5.815  0.4461 -0.1882 -0.0882
  910MOL0     C22757  -2.888  12.671   5.759 -0.5989 -0.4201 -0.1678
  910MOL0     C22758  -2.976  12.567   5.837  0.6245  0.6171 -0.0135
  910MOL0     C22759  -2.992  12.618   5.985 -0.2252  0.7539 -0.0708
  910MOL0    Cl22760  -2.873  12.541   6.102 -0.2454  0.0088  0.0134
  910MOL0     C22761  -2.083  12.158   5.780 -0.1381 -0.2146 -0.2678
  910MOL0     C22762  -1.959  12.111   5.813  0.0295  0.0052  0.7298
  910MOL0     O22763  -1.685  12.294   5.904 -0.3606  0.2386 -0.1197
  910MOL0     C22764  -1.429  12.208   5.934  0.0088 -0.8485  1.1412
  910MOL0     C22765  -1.297  12.155   5.941  0.7760 -0.1525  0.3317
  910MOL0     N22766  -0.763  11.698   6.331 -0.8139  0.2465  0.4002
  910MOL0     N22767  -0.686  11.601   6.365 -0.2453 -1.1834  0.5061
  910MOL0     C22768   0.100  10.735   5.850 -0.4344 -0.0960  0.4182
  910MOL0     C22769   0.238  10.695   5.862 -0.2371 -0.5810 -0.1413
  910MOL0     C22770   0.653  10.561   6.028  0.2431  0.6082  0.1473
  910MOL0     C22771   0.705  10.597   5.897  0.0102 -0.1583  0.6649
  910MOL0     C22772   0.827  10.559   5.863 -0.7549 -1.0209  0.3673
  910MOL0     C22773   0.902  10.480   5.957  0.4562  0.2715  1.2770
  910MOL0     O22774   1.025  10.442   5.936  0.2155 -0.1479  0.1537
  910MOL0     C22775   1.087  10.478   5.815 -0.4327 -0.4269  0.1851
  910MOL0     C22776   1.155  10.616   5.825 -0.1182  1.1464  0.3402
  910MOL0     C22777   1.301  10.605   5.872 -0.2820  0.2933 -0.7147
  910MOL0     C22778   1.350  10.743   5.918  0.0799 -0.0833  0.0218
  910MOL0     C22779   1.495  10.746   5.942 -0.3674  0.0530 -0.6840
  910MOL0     C22780   1.611  10.720   5.951  0.0546 -0.2374 -0.8884
  910MOL0     C22781   0.856  10.442   6.081  0.5004  0.6439 -0.2390
  910MOL0     C22782   0.735  10.488   6.122 -0.1307  0.2933  0.1573
  910MOL0     H22783   0.236  10.606   6.189 -4.1802  1.3999  1.8572
  910MOL0     H22784   0.021  10.666   6.166 -0.6881 -0.1051 -0.5310
  910MOL0     H22785  -0.207  10.950   6.058  3.1486  1.3493  2.6040
  910MOL0     H22786  -0.041  10.997   6.018 -0.4039 -1.2179  4.2837
  910MOL0     H22787  -0.088  11.011   5.784  2.0346 -2.5472  0.6621
  910MOL0     H22788  -0.234  10.908   5.796 -2.5618  0.1073  2.1610
  910MOL0     H22789  -0.304  11.124   5.758  3.0714 -1.3009 -0.1295
  910MOL0     H22790  -0.363  11.059   5.913 -1.9979  1.1738 -0.5878
  910MOL0     H22791  -0.164  11.189   6.003 -0.3836 -0.2210 -0.5056
  910MOL0     H22792  -0.135  11.284   5.870 -0.6615  0.6102 -2.6988
  910MOL0     H22793  -0.257  11.432   6.009 -0.2836  0.2945 -0.2434
  910MOL0     H22794  -0.374  11.393   5.880  1.0770  1.6377 -0.3827
  910MOL0     H22795  -0.475  11.228   6.018  1.0413 -1.8945  1.3866
  910MOL0     H22796  -0.362  11.261   6.156  1.8533  3.5196  1.5675
  910MOL0     H22797  -0.453  11.518   6.088  0.5793 -0.0617  1.2829
  910MOL0     H22798  -0.585  11.423   6.021  1.1008  0.5703 -1.5826
  910MOL0     H22799  -0.492  11.425   6.307  1.4584  1.2414 -1.8529
  910MOL0     H22800  -0.629  11.329   6.254  2.7371 -0.8639  1.6344
  910MOL0     H22801  -0.737  11.551   6.055 -2.5230  1.0277  0.1046
  910MOL0     H22802  -0.981  11.751   6.124 -0.7273  0.9393  0.6390
  910MOL0     H22803  -0.900  11.896   6.198  1.2348  0.6495  1.0129
  910MOL0     H22804  -0.834  11.756   5.940 -2.2640  1.6557 -2.1172
  910MOL0     H22805  -0.726  11.876   6.023 -0.6907  0.4561  1.5893
  910MOL0     H22806  -0.865  11.973   5.833 -1.6527 -0.3834 -1.1525
  910MOL0     H22807  -0.895  12.053   5.988  1.2387 -0.4662 -0.9775
  910MOL0     H22808  -1.067  11.842   5.883  1.5245  0.2214  0.2730
  910MOL0     H22809  -1.100  11.993   5.830 -1.4010  1.5036  0.5526
  910MOL0     H22810  -1.373  11.859   6.106  1.8955  0.2065 -0.7341
  910MOL0     H22811  -1.690  11.973   6.138 -2.4547  0.9672 -1.3563
  910MOL0     H22812  -1.679  11.884   5.981  0.6385  2.4684  0.2868
  910MOL0     H22813  -1.595  11.820   6.124  0.0778 -0.2804  0.3122
  910MOL0     H22814  -1.923  12.258   6.120 -0.7674  0.3745 -0.7586
  910MOL0     H22815  -2.131  12.361   6.047 -0.0946 -1.1394  3.3140
  910MOL0     H22816  -2.390  12.375   5.990  0.8484 -2.8701  1.0418
  910MOL0     H22817  -2.269  12.472   5.910 -0.5361  0.9775 -0.4086
  910MOL0     H22818  -2.413  12.460   5.710 -1.2268  0.8584  0.6165
  910MOL0     H22819  -2.524  12.340   5.773  0.5044 -1.3081  0.2367
  910MOL0     H22820  -2.504  12.621   5.895 -0.1493  0.9525 -1.7061
  910MOL0     H22821  -2.602  12.481   5.943  2.8388  1.0382  0.9792
  910MOL0     H22822  -2.607  12.595   5.659  1.1794 -2.2986  0.3648
  910MOL0     H22823  -2.724  12.485   5.729 -1.3586  0.9013 -1.4196
  910MOL0     H22824  -2.707  12.779   5.785  0.2605 -0.0625  0.0687
  910MOL0     H22825  -2.740  12.682   5.924  0.3492 -0.7793 -0.0778
  910MOL0     H22826  -2.942  12.766   5.767 -2.9193 -1.4446 -2.1648
  910MOL0     H22827  -2.892  12.651   5.652 -1.9037  1.8119 -0.6048
  910MOL0     H22828  -2.932  12.467   5.837  1.3491  0.9339 -0.2875
  910MOL0     H22829  -3.072  12.550   5.787  0.5722  1.3434 -0.1750
  910MOL0     H22830  -3.091  12.588   6.020 -1.0975 -3.5715 -5.0113
  910MOL0     H22831  -2.971  12.725   5.990  0.0667  0.7363 -0.7634
  910MOL0     H22832  -2.138  12.124   5.693 -0.0048 -0.8197 -0.1242
  910MOL0     H22833  -1.897  12.048   5.750  0.5841 -1.0656  2.3116
  910MOL0     H22834  -1.453  12.307   5.896  1.7903 -0.6932  0.3282
  910MOL0     H22835  -1.215  12.223   5.917 -0.0874  0.3360 -1.3845
  910MOL0     H22836   0.059  10.754   5.752 -1.6697 -1.7061  0.5759
  910MOL0     H22837   0.304  10.708   5.778  0.2808  0.4312  0.4022
  910MOL0     H22838   0.639  10.634   5.819  1.0967 -1.3098 -0.8814
  910MOL0     H22839   0.867  10.592   5.768  2.3287  2.6056  2.6484
  910MOL0     H22840   1.174  10.412   5.805  0.1400  0.6210 -3.2835
  910MOL0     H22841   1.036  10.462   5.719  3.1629 -1.8556 -1.7073
  910MOL0     H22842   1.104  10.682   5.896 -0.4220  0.0771  1.1406
  910MOL0     H22843   1.148  10.666   5.728 -0.5258  0.5257  0.0435
  910MOL0     H22844   1.370  10.569   5.795 -1.0609 -2.0896 -0.3584
  910MOL0     H22845   1.305  10.543   5.962 -0.8022  3.3071  1.5574
  910MOL0     H22846   1.299  10.776   6.009 -2.1432  0.1276 -1.2374
  910MOL0     H22847   1.329  10.815   5.838 -1.7341 -0.9530 -0.3332
  910MOL0     H22848   1.709  10.677   5.952  0.3726  0.4089 -1.9481
  910MOL0     H22849   0.909  10.381   6.153  0.2895 -0.0822 -0.6866
  910MOL0     H22850   0.694  10.459   6.219  4.0811  1.5199  2.5428
  911MOL0     O22851   9.308   3.971  11.129 -1.2601 -0.3709 -0.5373
  911MOL0     C22852   9.272   4.067  11.201 -0.8253 -0.5081 -0.7426
  911MOL0     O22853   9.146   4.124  11.201 -0.5644 -0.1440  0.0554
  911MOL0     C22854   9.049   4.078  11.109  0.0606 -0.6658 -0.8077
  911MOL0     C22855   9.017   3.945  11.101  0.6896 -1.1022  0.4139
  911MOL0     C22856   8.908   3.903  11.029 -0.1612 -0.1988  0.1823
  911MOL0     C22857   8.829   3.995  10.955 -0.0418 -0.4441  0.2472
  911MOL0     O22858   8.723   3.954  10.877 -0.0479  0.0627 -0.1411
  911MOL0     C22859   8.727   3.834  10.805 -0.4698  0.3064 -0.0823
  911MOL0     C22860   8.636   3.842  10.684 -0.0011  0.1367  0.6942
  911MOL0     C22861   8.482   3.838  10.713  0.3238  0.2712 -0.1730
  911MOL0     C22862   8.393   3.800  10.588 -0.3348  0.5906 -0.3031
  911MOL0     C22863   8.242   3.791  10.635 -0.2950 -0.4227  0.0118
  911MOL0     C22864   8.179   3.937  10.655  0.8937  0.9430 -0.4268
  911MOL0     C22865   8.029   3.930  10.692  0.6107  0.6424 -0.4894
  911MOL0     C22866   7.976   4.051  10.767 -0.6556 -0.8592  0.3402
  911MOL0     N22867   7.837   4.058  10.752  0.9313  0.0999  0.2242
  911MOL0     C22868   7.763   4.149  10.675  0.1155 -0.1818 -0.5469
  911MOL0     C22869   7.635   4.103  10.690 -0.3061  0.7875  0.2831
  911MOL0     C22870   7.509   4.151  10.631 -0.3211 -0.5840  0.0981
  911MOL0     C22871   7.400   4.189  10.745 -0.4477 -0.7237 -0.6698
  911MOL0     C22872   7.262   4.187  10.688 -0.8251  0.6398 -0.5328
  911MOL0     C22873   7.163   4.216  10.799  0.5799  0.4005 -0.0396
  911MOL0     O22874   7.036   4.213  10.731 -0.4421 -0.4836  0.2932
  911MOL0     C22875   6.935   4.235  10.824  0.4379  0.2283  0.7823
  911MOL0     C22876   6.858   4.124  10.855 -0.2669  0.2914 -0.6519
  911MOL0     C22877   6.747   4.130  10.945 -0.1954  0.5648  0.7012
  911MOL0     C22878   6.676   4.003  10.975 -0.0631  0.3076  0.2412
  911MOL0     C22879   6.706   4.261  10.987  0.1710  0.5626  0.3710
  911MOL0     C22880   6.585   4.293  11.073  0.0691  0.3953  0.9865
  911MOL0     O22881   6.543   4.426  11.075 -0.3493  0.0434 -0.5255
  911MOL0     C22882   6.419   4.465  11.110 -0.1349  0.4132 -0.2678
  911MOL0     C22883   6.395   4.560  11.211  0.2057  0.6256  0.2261
  911MOL0     C22884   6.264   4.608  11.228 -0.1706  0.0298 -0.1737
  911MOL0     C22885   6.160   4.567  11.148  0.2326 -1.3727  0.3731
  911MOL0     O22886   6.027   4.618  11.157 -0.5900  0.7150 -0.9537
  911MOL0     C22887   5.972   4.630  11.287  0.7552  1.3797  0.5616
  911MOL0     C22888   5.862   4.514  11.315 -0.9962 -0.2548 -1.1068
  911MOL0     C22889   5.813   4.491  11.463  0.8400  0.8242  0.1117
  911MOL0     C22890   5.712   4.369  11.477  0.2090 -0.2447  1.3397
  911MOL0     C22891   5.580   4.398  11.404  0.1226 -1.1172 -0.2322
  911MOL0     C22892   5.458   4.333  11.467  0.5630  0.6571  0.1623
  911MOL0     C22893   5.323   4.393  11.405 -0.6031  0.8023  0.0032
  911MOL0     C22894   5.259   4.296  11.311  0.1400 -0.5176 -0.4198
  911MOL0    Cl22895   5.109   4.362  11.242 -0.1464 -0.0305  0.3775
  911MOL0     C22896   6.189   4.474  11.055 -0.9377  0.9882 -0.3061
  911MOL0     C22897   6.319   4.417  11.033  0.0719 -0.6617 -1.2720
  911MOL0     O22898   6.523   4.200  11.121 -0.2367  0.3970 -0.2261
  911MOL0     C22899   6.776   4.376  10.944 -0.0104  0.2918 -0.4996
  911MOL0     C22900   6.896   4.350  10.874  0.4181 -0.3626  0.3633
  911MOL0     N22901   7.632   3.997  10.782  0.1816  0.5744  0.2454
  911MOL0     N22902   7.758   3.970  10.812  0.1462 -0.2469 -0.0677
  911MOL0     C22903   8.850   4.134  10.969 -1.2488  0.2682  0.3593
  911MOL0     C22904   8.967   4.174  11.040  0.4753  0.9347 -0.1848
  911MOL0     C22905   9.377   4.133  11.281 -0.3068  0.4751 -0.1683
  911MOL0     C22906   9.497   4.060  11.310  0.8297  0.0611 -0.0724
  911MOL0     C22907   9.598   4.114  11.380 -0.7019 -0.4611 -0.4671
  911MOL0     C22908   9.587   4.237  11.433  1.0552  0.0561  0.2100
  911MOL0     O22909   9.686   4.303  11.495 -0.1960  1.0382 -0.0995
  911MOL0     C22910   9.791   4.342  11.403 -0.2393  0.6375  0.1712
  911MOL0     C22911   9.917   4.279  11.453 -0.6784  0.2107 -0.2235
  911MOL0     C22912   9.942   4.334  11.597  0.1192  0.4373 -0.3282
  911MOL0     C22913  10.091   4.298  11.658 -0.2963  0.0890  0.1773
  911MOL0     C22914  10.143   4.183  11.597 -0.0597  0.0236 -0.6705
  911MOL0     C22915  10.192   4.097  11.534  0.2020 -0.0709 -0.0296
  911MOL0     C22916   9.465   4.309  11.415  0.3428 -0.3036 -0.9792
  911MOL0     C22917   9.363   4.253  11.332  0.2067 -0.6301 -0.5811
  911MOL0     H22918   9.072   3.875  11.162  1.2006  0.0267  1.2880
  911MOL0     H22919   8.872   3.800  11.035 -3.5417  0.9221  3.3016
  911MOL0     H22920   8.829   3.815  10.769  0.4812 -0.4702  2.7259
  911MOL0     H22921   8.709   3.744  10.864  2.0199 -1.6887 -2.1244
  911MOL0     H22922   8.667   3.934  10.634 -1.7522 -0.4444 -1.6462
  911MOL0     H22923   8.661   3.765  10.610 -0.4128  0.6623 -0.0062
  911MOL0     H22924   8.478   3.770  10.798 -0.6227  2.7445  1.8997
  911MOL0     H22925   8.434   3.923  10.763 -0.2527  1.1125 -2.0710
  911MOL0     H22926   8.414   3.869  10.505  0.7365  0.5744 -0.0584
  911MOL0     H22927   8.425   3.705  10.544 -2.2720 -1.3053  2.1274
  911MOL0     H22928   8.183   3.751  10.552 -2.1472  1.7303  0.1777
  911MOL0     H22929   8.233   3.719  10.717 -0.0686  1.5587  1.8887
  911MOL0     H22930   8.238   3.980  10.736  2.5180 -1.8401 -0.0166
  911MOL0     H22931   8.190   3.997  10.564 -1.8253  0.5163 -1.1428
  911MOL0     H22932   7.961   3.902  10.611 -0.6538 -3.7668  1.7950
  911MOL0     H22933   8.028   3.843  10.757 -0.7166  1.5721  0.8003
  911MOL0     H22934   8.017   4.139  10.717  0.4979 -2.6443 -2.0659
  911MOL0     H22935   7.999   4.054  10.874 -1.4718 -2.9180  0.6174
  911MOL0     H22936   7.805   4.230  10.616 -2.5912  2.2640  0.6217
  911MOL0     H22937   7.525   4.238  10.567  0.9051  0.0865  1.2778
  911MOL0     H22938   7.466   4.074  10.567 -2.5070  1.8508 -1.5819
  911MOL0     H22939   7.423   4.292  10.776 -1.2530  0.1683 -2.8074
  911MOL0     H22940   7.406   4.120  10.830 -0.6866  0.8811  0.7046
  911MOL0     H22941   7.245   4.091  10.638 -0.7462  0.9520 -1.1632
  911MOL0     H22942   7.265   4.262  10.609  2.3472  0.7535 -0.4162
  911MOL0     H22943   7.171   4.307  10.861 -2.2689 -1.2044  3.0072
  911MOL0     H22944   7.171   4.130  10.866  0.2459  0.4399  0.0534
  911MOL0     H22945   6.881   4.025  10.819  0.5516  0.7314 -1.3672
  911MOL0     H22946   6.664   4.002  11.084 -1.0198 -0.2939  0.1351
  911MOL0     H22947   6.574   3.999  10.938 -0.5658 -0.9260  1.6560
  911MOL0     H22948   6.729   3.915  10.939  0.6140  0.3513  1.0807
  911MOL0     H22949   6.475   4.604  11.269  1.0020  2.8998 -2.3314
  911MOL0     H22950   6.249   4.680  11.308 -0.7684  1.2045 -1.3111
  911MOL0     H22951   6.044   4.618  11.368  0.0624  0.4893  1.0630
  911MOL0     H22952   5.915   4.723  11.292 -2.2496 -0.1767 -1.4763
  911MOL0     H22953   5.783   4.536  11.242 -0.0200  1.7693 -1.6412
  911MOL0     H22954   5.919   4.424  11.291  0.3913  0.3159 -0.0810
  911MOL0     H22955   5.768   4.573  11.520 -0.6586 -0.5319  0.9443
  911MOL0     H22956   5.902   4.463  11.521  1.2693  0.9470 -0.4755
  911MOL0     H22957   5.764   4.291  11.420 -2.7137  0.5781 -2.9162
  911MOL0     H22958   5.703   4.355  11.585 -1.5876  0.7356  1.3666
  911MOL0     H22959   5.593   4.374  11.298 -0.0715 -1.1472 -0.2492
  911MOL0     H22960   5.561   4.506  11.408 -1.2097 -1.2732 -1.5701
  911MOL0     H22961   5.474   4.225  11.458  0.3923  0.2023  3.9576
  911MOL0     H22962   5.453   4.351  11.574 -2.6353  0.4896  0.1292
  911MOL0     H22963   5.345   4.494  11.370 -0.8088  1.1083  0.7415
  911MOL0     H22964   5.253   4.410  11.487 -0.1886 -5.3990  2.1795
  911MOL0     H22965   5.233   4.203  11.361  0.6366 -0.9231 -0.8969
  911MOL0     H22966   5.325   4.273  11.227  2.8369  0.0135  1.4135
  911MOL0     H22967   6.104   4.438  10.998  1.6351 -1.9856 -2.5946
  911MOL0     H22968   6.343   4.333  10.968  0.7766 -1.3965 -0.0822
  911MOL0     H22969   6.760   4.475  10.985 -1.2466 -0.1429  0.1179
  911MOL0     H22970   6.949   4.442  10.853 -1.9362  1.3588  1.4757
  911MOL0     H22971   8.794   4.212  10.918  0.8254  3.0475  2.0409
  911MOL0     H22972   8.985   4.281  11.043 -0.0478  1.0147  1.5286
  911MOL0     H22973   9.497   3.954  11.286  1.4145 -1.1119  4.2482
  911MOL0     H22974   9.693   4.068  11.401 -0.4177  0.7624  1.0774
  911MOL0     H22975   9.770   4.320  11.298  1.5374 -0.5658  0.0169
  911MOL0     H22976   9.815   4.449  11.402  2.1132  0.1783  0.9579
  911MOL0     H22977  10.002   4.317  11.396 -1.8203 -1.4186 -3.1963
  911MOL0     H22978   9.911   4.171  11.441  0.4128 -0.0208  1.1115
  911MOL0     H22979   9.864   4.298  11.665 -0.7480  3.0596  0.1783
  911MOL0     H22980   9.925   4.442  11.593  1.7084  0.6945 -1.2631
  911MOL0     H22981  10.074   4.294  11.766 -2.4018  2.4999  0.0483
  911MOL0     H22982  10.163   4.380  11.646  0.8955 -0.7641  1.2450
  911MOL0     H22983  10.232   4.016  11.476  0.5417 -0.8697  1.2741
  911MOL0     H22984   9.466   4.411  11.452 -1.5124 -0.6482  0.1396
  911MOL0     H22985   9.267   4.299  11.308  0.4477 -0.3434 -1.0114
  912MOL0     O22986   2.767   3.843   2.904 -0.4965  0.0775 -0.5275
  912MOL0     C22987   2.741   3.843   2.787 -0.5567 -0.0672  0.0747
  912MOL0     O22988   2.742   3.947   2.702 -0.7597 -0.1467 -0.0529
  912MOL0     C22989   2.823   4.053   2.739 -0.8160 -0.1256 -0.4474
  912MOL0     C22990   2.763   4.162   2.792 -0.8003 -0.8645  0.1968
  912MOL0     C22991   2.835   4.283   2.830 -0.7841  0.8580  0.2737
  912MOL0     C22992   2.979   4.271   2.809  0.5490  0.9381  0.2662
  912MOL0     O22993   3.067   4.369   2.836  0.1522  0.5199  0.7090
  912MOL0     C22994   3.019   4.478   2.923 -0.2620 -0.7469  0.5810
  912MOL0     C22995   2.992   4.441   3.070 -0.1133 -0.7590 -0.0359
  912MOL0     C22996   2.969   4.566   3.154 -0.7284  0.4160  0.3840
  912MOL0     C22997   2.822   4.606   3.126 -1.0164  0.6050 -0.0528
  912MOL0     C22998   2.723   4.581   3.243 -0.0010 -0.7700 -0.1153
  912MOL0     C22999   2.690   4.441   3.269 -0.0628  1.6045 -0.8778
  912MOL0     C23000   2.624   4.423   3.402  0.1302 -1.0264 -0.1047
  912MOL0     C23001   2.631   4.273   3.445  0.0839 -0.2624 -0.2147
  912MOL0     N23002   2.630   4.252   3.589  0.0733 -0.5356  0.3860
  912MOL0     C23003   2.525   4.275   3.670  0.3609 -0.0109  1.4475
  912MOL0     C23004   2.556   4.228   3.790 -0.3351 -0.9656  1.3223
  912MOL0     C23005   2.477   4.228   3.910  0.1248  1.0159 -0.0937
  912MOL0     C23006   2.386   4.108   3.925 -0.0593  0.4969  0.4077
  912MOL0     C23007   2.329   4.105   4.064  0.8163  1.0750 -1.0801
  912MOL0     C23008   2.246   4.233   4.111 -1.2228 -0.0568 -0.5152
  912MOL0     O23009   2.143   4.270   4.024  0.5965 -0.2920 -0.0815
  912MOL0     C23010   2.011   4.229   4.049  0.1497  0.4430  0.3869
  912MOL0     C23011   1.915   4.262   3.952 -0.8773 -0.6549 -0.2312
  912MOL0     C23012   1.780   4.238   3.981 -0.4196 -0.5209 -0.0884
  912MOL0     C23013   1.681   4.308   3.887 -0.6564 -0.1240 -1.0776
  912MOL0     C23014   1.743   4.181   4.112  0.8533 -0.0674  0.0560
  912MOL0     C23015   1.608   4.184   4.155  1.3261 -0.7465 -1.0767
  912MOL0     O23016   1.514   4.268   4.092 -0.1159 -0.3130 -0.0513
  912MOL0     C23017   1.384   4.249   4.128  0.4344 -0.0940  0.0669
  912MOL0     C23018   1.345   4.322   4.235  0.2094  0.5895  0.2747
  912MOL0     C23019   1.217   4.329   4.277  0.1323  0.3065 -0.1291
  912MOL0     C23020   1.123   4.244   4.222 -1.4814  0.6553 -0.0538
  912MOL0     O23021   1.002   4.242   4.283 -0.1450  0.4113 -0.2645
  912MOL0     C23022   0.897   4.151   4.241 -0.0766  0.2472 -0.4474
  912MOL0     C23023   0.774   4.172   4.321 -0.1506  0.2269  0.1979
  912MOL0     C23024   0.658   4.112   4.246 -0.0781 -0.5520 -0.7606
  912MOL0     C23025   0.663   3.961   4.240  0.3549  0.4016 -0.4308
  912MOL0     C23026   0.535   3.897   4.181 -0.4811  0.2533  0.4605
  912MOL0     C23027   0.424   3.907   4.285  0.5208 -0.6339  0.6254
  912MOL0     C23028   0.306   3.832   4.227  0.5176 -0.3515 -0.1297
  912MOL0     C23029   0.169   3.837   4.306 -0.3372 -0.7497 -0.0020
  912MOL0    Cl23030   0.042   3.721   4.230  0.5627  0.0253  0.1869
  912MOL0     C23031   1.159   4.167   4.107 -0.2093  0.9069 -0.1374
  912MOL0     C23032   1.290   4.179   4.054  0.5325 -0.7758  0.1929
  912MOL0     O23033   1.576   4.100   4.239  0.0214 -0.0285  0.1137
  912MOL0     C23034   1.843   4.142   4.196 -0.0220  0.6826 -1.0894
  912MOL0     C23035   1.973   4.158   4.163 -0.0958 -0.1174  0.7994
  912MOL0     N23036   2.683   4.177   3.784  1.1262 -0.1642  0.0300
  912MOL0     N23037   2.726   4.194   3.666  0.0551  0.2683 -0.3130
  912MOL0     C23038   3.032   4.160   2.762 -0.8888 -0.6142  0.2717
  912MOL0     C23039   2.963   4.048   2.727 -0.7684 -0.6778 -0.3611
  912MOL0     C23040   2.688   3.715   2.725 -0.7382  0.3207  0.2738
  912MOL0     C23041   2.680   3.586   2.797  0.1989 -1.0894  0.6916
  912MOL0     C23042   2.618   3.484   2.739 -1.1018  0.5346  0.0111
  912MOL0     C23043   2.573   3.484   2.608  0.2086 -0.9262 -0.8174
  912MOL0     O23044   2.520   3.369   2.551 -0.0839  0.8709  0.4085
  912MOL0     C23045   2.511   3.363   2.405  0.1739 -0.1467  0.6297
  912MOL0     C23046   2.433   3.237   2.362 -0.3504  0.1456  0.1804
  912MOL0     C23047   2.430   3.218   2.213 -0.3936  0.2224 -0.0295
  912MOL0     C23048   2.348   3.106   2.148  0.0942  0.6396 -1.1855
  912MOL0     C23049   2.382   2.978   2.211 -0.2397  0.2514 -0.7557
  912MOL0     C23050   2.417   2.875   2.250 -0.0456  0.1562 -0.4459
  912MOL0     C23051   2.574   3.601   2.533 -0.4447  0.5569  0.2466
  912MOL0     C23052   2.637   3.712   2.590 -0.1916 -1.2739  0.0051
  912MOL0     H23053   2.655   4.154   2.801 -1.1445  0.6918 -1.7558
  912MOL0     H23054   2.781   4.370   2.866 -1.2699  0.8130 -0.3174
  912MOL0     H23055   3.108   4.543   2.920 -1.1523  0.4938  0.0822
  912MOL0     H23056   2.934   4.533   2.882  0.9947 -0.1497 -1.3688
  912MOL0     H23057   2.895   4.391   3.076 -0.7864  0.6785  2.0724
  912MOL0     H23058   3.076   4.379   3.103  0.4443  0.8018  1.6113
  912MOL0     H23059   2.988   4.532   3.256  1.5326  0.0118 -0.1166
  912MOL0     H23060   3.034   4.654   3.143 -0.3939  0.6470  3.3254
  912MOL0     H23061   2.815   4.711   3.094  2.0754  1.2313  1.0220
  912MOL0     H23062   2.780   4.563   3.035 -0.2868  0.9022 -0.5396
  912MOL0     H23063   2.762   4.625   3.335  1.9342 -1.6267 -0.4800
  912MOL0     H23064   2.634   4.645   3.234  0.5475 -0.1184 -1.2068
  912MOL0     H23065   2.626   4.394   3.194  0.6836 -0.8941 -0.0377
  912MOL0     H23066   2.781   4.381   3.255  1.5160  3.5322  0.5215
  912MOL0     H23067   2.674   4.491   3.472 -0.8186  2.6585 -2.7182
  912MOL0     H23068   2.525   4.470   3.399  0.1007 -0.6733  2.9830
  912MOL0     H23069   2.724   4.234   3.403  0.3068  0.7955 -0.7358
  912MOL0     H23070   2.552   4.214   3.398  3.2366 -2.2943 -3.4426
  912MOL0     H23071   2.434   4.324   3.637 -0.9180 -3.7651 -1.3750
  912MOL0     H23072   2.544   4.230   3.996  2.7231  2.0614 -2.0089
  912MOL0     H23073   2.416   4.319   3.902  2.6201  2.6389 -2.1768
  912MOL0     H23074   2.443   4.015   3.918 -2.2174 -0.8161 -0.4812
  912MOL0     H23075   2.300   4.101   3.858 -0.0446 -0.0911  0.4392
  912MOL0     H23076   2.410   4.086   4.135  1.2651 -0.1571 -1.8829
  912MOL0     H23077   2.255   4.027   4.084 -0.8909  2.6112 -1.1230
  912MOL0     H23078   2.314   4.318   4.124 -1.1419 -0.4729  2.4949
  912MOL0     H23079   2.211   4.203   4.210  2.0777  0.3274  0.9200
  912MOL0     H23080   1.944   4.328   3.871  2.5273  0.2039  1.5033
  912MOL0     H23081   1.644   4.404   3.923 -3.3356 -1.2555 -0.6317
  912MOL0     H23082   1.731   4.320   3.790 -1.0200  0.0719 -1.2409
  912MOL0     H23083   1.588   4.251   3.878 -0.3729 -0.8618  0.4075
  912MOL0     H23084   1.409   4.402   4.272  1.7863 -0.1888 -0.6431
  912MOL0     H23085   1.196   4.380   4.370  2.1672  2.1006 -0.5786
  912MOL0     H23086   0.878   4.187   4.139  2.5241 -1.0592 -1.5041
  912MOL0     H23087   0.930   4.049   4.259 -1.8620 -0.4015 -0.6594
  912MOL0     H23088   0.781   4.134   4.423 -0.5319  1.7036  0.7859
  912MOL0     H23089   0.753   4.279   4.330 -1.0945  0.1095 -0.4602
  912MOL0     H23090   0.648   4.148   4.144  0.3900 -0.5061 -0.7897
  912MOL0     H23091   0.568   4.142   4.302  0.8990  1.9672 -0.4156
  912MOL0     H23092   0.746   3.918   4.184  0.1283 -2.2481  1.0779
  912MOL0     H23093   0.669   3.921   4.342  0.0603 -4.2464 -2.0131
  912MOL0     H23094   0.560   3.792   4.167 -0.8362  0.1479  0.6178
  912MOL0     H23095   0.511   3.935   4.081 -3.3886 -2.1520  0.0994
  912MOL0     H23096   0.448   3.875   4.387 -3.4621 -2.1026  1.2923
  912MOL0     H23097   0.385   4.008   4.301 -1.2301 -1.1699 -0.0275
  912MOL0     H23098   0.324   3.724   4.228 -0.5617 -0.5822 -1.9517
  912MOL0     H23099   0.289   3.861   4.123 -0.8933 -1.6763 -0.2994
  912MOL0     H23100   0.136   3.941   4.311  0.8030 -0.2841 -1.5234
  912MOL0     H23101   0.201   3.810   4.407 -0.5250  1.5213  0.7336
  912MOL0     H23102   1.084   4.107   4.058 -1.7446  0.2777  2.7337
  912MOL0     H23103   1.328   4.142   3.959  0.8328 -1.6128  0.6261
  912MOL0     H23104   1.819   4.087   4.286  2.4013 -0.7119 -1.2207
  912MOL0     H23105   2.051   4.115   4.226 -1.1204  0.0998  2.2648
  912MOL0     H23106   3.137   4.156   2.736 -1.3319 -1.4921 -1.5562
  912MOL0     H23107   2.999   3.956   2.682  1.4680 -0.5506  1.0079
  912MOL0     H23108   2.717   3.569   2.897  0.9982 -4.0875 -0.0278
  912MOL0     H23109   2.618   3.393   2.800  0.5986 -0.1891 -1.0173
  912MOL0     H23110   2.478   3.456   2.357  0.2615  0.3558  1.5303
  912MOL0     H23111   2.612   3.343   2.367 -0.3351  0.3321 -1.0533
  912MOL0     H23112   2.330   3.258   2.392 -0.0453  1.9190  0.0935
  912MOL0     H23113   2.478   3.147   2.406 -0.3172 -0.1311 -0.4108
  912MOL0     H23114   2.528   3.198   2.169 -0.0318  0.9138  0.4384
  912MOL0     H23115   2.388   3.311   2.171  0.6233 -0.5024 -2.8915
  912MOL0     H23116   2.347   3.110   2.039 -1.4516  2.5148 -1.1604
  912MOL0     H23117   2.245   3.134   2.172  0.3602  2.3120 -1.8862
  912MOL0     H23118   2.463   2.781   2.275 -0.7586  0.6942  3.5572
  912MOL0     H23119   2.526   3.616   2.438 -5.6844 -4.0927  1.6316
  912MOL0     H23120   2.645   3.802   2.529 -1.9893 -1.3202 -0.3510
  913MOL0     O23121   9.297   8.285  11.194 -0.9102  0.6018 -0.8664
  913MOL0     C23122   9.369   8.209  11.118  0.8094 -0.2348  0.1104
  913MOL0     O23123   9.321   8.135  11.009 -0.3859  0.3961 -1.0565
  913MOL0     C23124   9.189   8.137  10.990  0.1266  0.3962 -0.7568
  913MOL0     C23125   9.145   8.159  10.863  0.1289 -0.3675  0.1375
  913MOL0     C23126   9.014   8.150  10.824 -0.2660  0.6190  0.3974
  913MOL0     C23127   8.922   8.111  10.927 -0.3096  0.1563 -0.6627
  913MOL0     O23128   8.791   8.099  10.904 -0.4807 -0.4614 -0.6089
  913MOL0     C23129   8.717   8.222  10.912  0.3206  0.2207 -0.2658
  913MOL0     C23130   8.577   8.191  10.856  0.1169  0.2859  0.3899
  913MOL0     C23131   8.490   8.319  10.856 -0.2298 -0.0773 -0.2515
  913MOL0     C23132   8.438   8.377  10.999  0.0251 -0.3208  0.3032
  913MOL0     C23133   8.301   8.436  10.977 -0.1654  0.4947 -0.4564
  913MOL0     C23134   8.270   8.545  11.084 -0.0722  0.6048 -0.0084
  913MOL0     C23135   8.120   8.569  11.049  0.1385  0.0877  1.2727
  913MOL0     C23136   8.071   8.711  11.085 -0.9063 -0.2570  0.3742
  913MOL0     N23137   8.009   8.718  11.211  0.2867  0.3093 -1.8883
  913MOL0     C23138   7.874   8.713  11.238 -0.3512  0.1440  0.3449
  913MOL0     C23139   7.874   8.708  11.372  0.1930 -0.1645  0.0041
  913MOL0     C23140   7.740   8.727  11.439  0.3298  0.5748  1.0336
  913MOL0     C23141   7.660   8.599  11.439 -0.5091  0.1274 -0.5076
  913MOL0     C23142   7.517   8.622  11.492  0.0595 -0.5560  0.5886
  913MOL0     C23143   7.422   8.538  11.397 -0.3385 -0.3406 -0.5105
  913MOL0     O23144   7.295   8.554  11.443 -0.0750 -0.3974  0.1092
  913MOL0     C23145   7.193   8.502  11.355  0.0611 -0.1710  0.4208
  913MOL0     C23146   7.210   8.449  11.226  0.3783  0.6443 -0.4722
  913MOL0     C23147   7.097   8.396  11.156 -0.5916  0.3659 -1.0959
  913MOL0     C23148   7.115   8.324  11.029 -0.0019 -0.1701  0.8527
  913MOL0     C23149   6.973   8.421  11.210 -0.2831 -0.1206 -0.0200
  913MOL0     C23150   6.850   8.398  11.135 -0.6512 -0.1123  0.5479
  913MOL0     O23151   6.812   8.506  11.059  0.1710  0.4846  1.1968
  913MOL0     C23152   6.693   8.498  10.992  0.8420 -0.1314  0.1537
  913MOL0     C23153   6.601   8.601  10.995 -0.1375 -0.3546  0.0026
  913MOL0     C23154   6.482   8.603  10.919  0.2976  0.2388 -0.0033
  913MOL0     C23155   6.469   8.503  10.825 -0.4248  0.3105  0.7086
  913MOL0     O23156   6.370   8.499  10.737  0.7216 -0.2649 -0.6052
  913MOL0     C23157   6.240   8.495  10.788  0.1067  0.1817  0.5578
  913MOL0     C23158   6.137   8.413  10.701 -0.5507 -0.1112 -0.2381
  913MOL0     C23159   6.150   8.425  10.547 -0.1550 -0.4325  0.0646
  913MOL0     C23160   6.271   8.359  10.466 -0.0254  0.4787  0.6851
  913MOL0     C23161   6.301   8.456  10.342  0.5539  0.2263 -0.0898
  913MOL0     C23162   6.179   8.474  10.240 -0.8239 -0.2408  0.6668
  913MOL0     C23163   6.120   8.343  10.190 -0.2201 -0.2781 -0.1863
  913MOL0     C23164   6.047   8.360  10.059 -0.3059 -0.1244  0.0161
  913MOL0    Cl23165   5.982   8.195  10.023  0.1091 -0.6537  0.2853
  913MOL0     C23166   6.556   8.397  10.817 -0.2154  0.5280  1.1925
  913MOL0     C23167   6.672   8.395  10.897 -0.4411  0.5955 -0.5889
  913MOL0     O23168   6.786   8.298  11.159 -0.1976  0.0188  0.7586
  913MOL0     C23169   6.959   8.472  11.342  0.4052 -0.2503  0.2692
  913MOL0     C23170   7.066   8.523  11.405 -0.2420  0.2894  0.0825
  913MOL0     N23171   7.993   8.720  11.432 -0.5388 -0.1688 -0.8321
  913MOL0     N23172   8.081   8.727  11.327  0.2544 -0.4131 -0.2842
  913MOL0     C23173   8.957   8.086  11.046 -0.9447 -0.4756 -0.0135
  913MOL0     C23174   9.087   8.096  11.079  1.0087 -0.0623 -0.0806
  913MOL0     C23175   9.520   8.218  11.125 -0.2221 -0.4478 -0.1765
  913MOL0     C23176   9.581   8.311  11.214  0.2113  0.8516 -1.1110
  913MOL0     C23177   9.718   8.325  11.212  0.5267  0.1537  0.5743
  913MOL0     C23178   9.801   8.255  11.124  0.3909 -0.0472  0.1585
  913MOL0     O23179   9.935   8.284  11.132  0.0241  0.2613 -0.0624
  913MOL0     C23180  10.013   8.241  11.015  0.5990  0.8938 -0.1910
  913MOL0     C23181  10.162   8.266  11.028  0.9384 -0.3923  0.5543
  913MOL0     C23182  10.176   8.416  11.031 -0.2846  0.5424  0.4760
  913MOL0     C23183  10.321   8.446  11.076 -0.8287 -0.9824 -0.5476
  913MOL0     C23184  10.319   8.598  11.101 -1.4351 -0.8641  0.3228
  913MOL0     C23185  10.329   8.719  11.117 -0.4577 -0.0823  0.2481
  913MOL0     C23186   9.742   8.175  11.028  0.2260 -0.4133  0.7050
  913MOL0     C23187   9.603   8.164  11.027 -1.2240  0.9996 -0.5765
  913MOL0     H23188   9.221   8.176  10.788  0.5252 -1.7800  0.1785
  913MOL0     H23189   8.983   8.154  10.720  0.2817  0.3240  0.2206
  913MOL0     H23190   8.709   8.258  11.015 -1.7439 -0.6524 -0.0559
  913MOL0     H23191   8.766   8.299  10.852 -1.2480  1.1698 -0.4008
  913MOL0     H23192   8.581   8.158  10.752  1.8792  2.8567 -0.4682
  913MOL0     H23193   8.530   8.117  10.922 -0.6504 -1.5154 -2.0370
  913MOL0     H23194   8.538   8.400  10.800  0.3990 -1.1559 -1.3259
  913MOL0     H23195   8.400   8.294  10.800 -0.6601 -1.1231  0.8724
  913MOL0     H23196   8.452   8.298  11.073  2.3256  1.9856  2.5228
  913MOL0     H23197   8.504   8.461  11.022 -0.4176  1.0172 -2.8231
  913MOL0     H23198   8.286   8.471  10.874 -2.2273 -2.0381 -1.1327
  913MOL0     H23199   8.224   8.358  10.988  1.2838 -0.6300  3.1480
  913MOL0     H23200   8.297   8.501  11.180  4.0342  1.4578 -0.5721
  913MOL0     H23201   8.337   8.630  11.068 -0.2512  0.7012 -0.2518
  913MOL0     H23202   8.099   8.549  10.944 -1.8228  0.9778  1.4581
  913MOL0     H23203   8.060   8.495  11.103  0.0877 -1.1273 -0.3626
  913MOL0     H23204   7.993   8.742  11.014 -2.1449  0.3276  1.9390
  913MOL0     H23205   8.147   8.788  11.095 -3.0045  1.7547  1.9650
  913MOL0     H23206   7.787   8.701  11.173  1.9176 -1.8168 -2.5916
  913MOL0     H23207   7.757   8.744  11.546  0.7509 -0.1740  1.0960
  913MOL0     H23208   7.694   8.818  11.401  0.8680  0.2836 -0.3692
  913MOL0     H23209   7.710   8.533  11.510  0.3929 -2.1926 -3.1083
  913MOL0     H23210   7.665   8.544  11.344 -0.8040 -0.2319 -0.3157
  913MOL0     H23211   7.494   8.729  11.496  2.4074  0.1940 -2.3665
  913MOL0     H23212   7.521   8.584  11.594  6.0860 -2.6946 -0.0213
  913MOL0     H23213   7.451   8.434  11.412  4.2245  0.4241 -2.4858
  913MOL0     H23214   7.451   8.573  11.298 -1.8012 -0.5612 -1.0452
  913MOL0     H23215   7.312   8.422  11.200  1.8164  2.2410  2.9853
  913MOL0     H23216   7.100   8.393  10.944 -0.9048 -1.1542  0.1838
  913MOL0     H23217   7.212   8.275  11.021  2.3690  3.6271  3.2440
  913MOL0     H23218   7.047   8.240  11.014  1.7110 -1.9075  2.3911
  913MOL0     H23219   6.624   8.676  11.070  0.5320 -1.4262  0.9155
  913MOL0     H23220   6.395   8.666  10.933  1.7975  2.6196 -0.8315
  913MOL0     H23221   6.241   8.436  10.880  0.7795 -2.0759 -0.8354
  913MOL0     H23222   6.187   8.591  10.796 -1.0496 -0.0155 -2.9051
  913MOL0     H23223   6.163   8.309  10.726 -1.7944 -1.3125 -3.3944
  913MOL0     H23224   6.035   8.436  10.732 -0.3060 -1.8525  2.1472
  913MOL0     H23225   6.121   8.525  10.516 -1.9977 -1.4946 -1.9139
  913MOL0     H23226   6.060   8.377  10.508 -2.6872  3.3849  0.6881
  913MOL0     H23227   6.362   8.352  10.527  1.1962 -2.8007 -1.2802
  913MOL0     H23228   6.251   8.256  10.437 -0.7477  0.2744  1.8566
  913MOL0     H23229   6.392   8.421  10.292 -0.3824  0.3729 -1.9883
  913MOL0     H23230   6.339   8.550  10.384  1.3054  0.4383 -1.1917
  913MOL0     H23231   6.103   8.528  10.298 -1.1597  0.2114 -0.1776
  913MOL0     H23232   6.204   8.530  10.150 -0.0070  0.2349  1.1807
  913MOL0     H23233   6.041   8.313  10.260  0.5878 -0.2219  0.7730
  913MOL0     H23234   6.189   8.261  10.166 -2.1405 -3.6088  4.2867
  913MOL0     H23235   6.125   8.389   9.988 -0.0412 -0.6295  0.0932
  913MOL0     H23236   5.965   8.432  10.063  0.8188  1.1921 -0.0814
  913MOL0     H23237   6.538   8.321  10.741 -0.5818  2.1604 -0.4446
  913MOL0     H23238   6.749   8.322  10.878 -0.7987  0.2705 -0.8205
  913MOL0     H23239   6.862   8.485  11.391  1.5244  1.2602  2.2244
  913MOL0     H23240   7.064   8.570  11.503 -0.2387 -4.0804  2.3973
  913MOL0     H23241   8.886   8.060  11.124 -0.5530  1.2818  0.9834
  913MOL0     H23242   9.120   8.083  11.182 -0.6761  0.2617  0.5313
  913MOL0     H23243   9.525   8.377  11.280 -0.1964 -0.3254 -0.2531
  913MOL0     H23244   9.766   8.398  11.277  1.7627 -0.8416  0.8238
  913MOL0     H23245  10.005   8.133  11.006  2.5874  0.7537 -0.7431
  913MOL0     H23246   9.979   8.283  10.919  0.3835 -0.9976 -0.9716
  913MOL0     H23247  10.218   8.217  10.947 -0.8748 -0.4314 -0.7320
  913MOL0     H23248  10.203   8.226  11.121  0.2337 -0.9259  0.6445
  913MOL0     H23249  10.109   8.469  11.099 -0.6097 -0.1250  0.6854
  913MOL0     H23250  10.163   8.458  10.930  3.7198 -0.2298 -0.5207
  913MOL0     H23251  10.392   8.430  10.993  1.3233  1.7776  0.6183
  913MOL0     H23252  10.357   8.371  11.147  0.6357  0.3814  0.2007
  913MOL0     H23253  10.317   8.826  11.122  0.6706  0.1547 -1.2911
  913MOL0     H23254   9.794   8.145  10.938  0.0406  3.0988 -0.7470
  913MOL0     H23255   9.555   8.109  10.947 -0.8582 -0.4667  0.1834
  914MOL0     O23256   3.139  10.612   5.046  0.2180  0.1872  0.5529
  914MOL0     C23257   3.173  10.585   4.935  0.2186  0.6112  0.1560
  914MOL0     O23258   3.132  10.644   4.816  0.3422  0.5040 -0.2272
  914MOL0     C23259   3.018  10.729   4.808 -0.6270  0.3104 -0.1073
  914MOL0     C23260   2.914  10.732   4.899  0.0081 -0.8623  0.0851
  914MOL0     C23261   2.794  10.813   4.876  0.2169  0.3093  0.6068
  914MOL0     C23262   2.794  10.892   4.760 -1.2184 -0.9540 -0.5231
  914MOL0     O23263   2.684  10.978   4.727 -1.1898 -0.0745 -0.5931
  914MOL0     C23264   2.628  11.049   4.835  0.3297 -0.1708  0.2304
  914MOL0     C23265   2.602  11.199   4.798 -0.4058 -0.2672 -0.3156
  914MOL0     C23266   2.491  11.264   4.889 -0.0334 -0.2459 -0.2927
  914MOL0     C23267   2.345  11.210   4.859  0.7623 -0.1933  0.3611
  914MOL0     C23268   2.237  11.296   4.916  0.5709  0.2185 -0.8866
  914MOL0     C23269   2.237  11.270   5.068  0.5961  0.7163  0.0887
  914MOL0     C23270   2.098  11.317   5.132 -0.7128 -0.4390 -0.0415
  914MOL0     C23271   2.062  11.234   5.264  0.5239 -0.7442 -0.3589
  914MOL0     N23272   2.025  11.105   5.227  0.4899 -0.4604 -0.0334
  914MOL0     C23273   2.103  10.992   5.216 -0.4387  0.3061 -0.4223
  914MOL0     C23274   2.022  10.882   5.210 -0.1516  0.9159  0.5936
  914MOL0     C23275   2.060  10.740   5.215  0.5902 -0.7769  0.2201
  914MOL0     C23276   2.060  10.700   5.357  0.3429  0.1202  0.0930
  914MOL0     C23277   1.922  10.676   5.426 -0.1742  0.0427  0.4717
  914MOL0     C23278   1.827  10.579   5.354 -0.0738 -0.5525 -0.0240
  914MOL0     O23279   1.714  10.549   5.432 -0.1147 -0.2811  0.2435
  914MOL0     C23280   1.644  10.424   5.410 -0.1847 -0.0474  0.6694
  914MOL0     C23281   1.667  10.343   5.300 -0.8446 -0.1046  0.4110
  914MOL0     C23282   1.605  10.223   5.269 -0.1936 -0.2124  0.6792
  914MOL0     C23283   1.654  10.166   5.135 -0.3143  0.8614 -0.2260
  914MOL0     C23284   1.507  10.171   5.360 -0.4253 -0.1456  0.5722
  914MOL0     C23285   1.444  10.039   5.347 -0.1017 -0.0977  0.2373
  914MOL0     O23286   1.451   9.971   5.224  0.2668 -0.1050 -0.7228
  914MOL0     C23287   1.410   9.843   5.232  0.1074  0.3203  1.1757
  914MOL0     C23288   1.277   9.812   5.237 -0.1480  0.3713  0.3762
  914MOL0     C23289   1.245   9.674   5.234  0.0860 -0.3812  0.2981
  914MOL0     C23290   1.347   9.576   5.216 -0.0811  0.2799 -0.0458
  914MOL0     O23291   1.317   9.442   5.217 -0.5683  0.2967  0.3340
  914MOL0     C23292   1.218   9.400   5.310  0.4352  0.5630 -0.7391
  914MOL0     C23293   1.173   9.263   5.262  0.5298  0.4462  0.4932
  914MOL0     C23294   1.098   9.184   5.366  0.5070 -0.0163 -0.6900
  914MOL0     C23295   1.044   9.060   5.294  0.4699  0.5717 -0.0729
  914MOL0     C23296   0.967   8.965   5.391  0.5638 -0.7643 -0.1116
  914MOL0     C23297   0.840   9.035   5.439 -0.8978 -0.1303  0.0728
  914MOL0     C23298   0.740   8.942   5.509 -0.3842  0.0292  0.8630
  914MOL0     C23299   0.642   9.013   5.620 -0.0900  0.1062  0.0691
  914MOL0    Cl23300   0.527   8.899   5.698  0.2412 -0.1057 -0.0242
  914MOL0     C23301   1.483   9.611   5.214 -0.3092  0.1546  1.0921
  914MOL0     C23302   1.511   9.751   5.212 -0.5077  0.7380  0.4868
  914MOL0     O23303   1.395   9.998   5.452  0.4036  0.2447  0.1360
  914MOL0     C23304   1.476  10.254   5.478  0.6480  0.2469  0.0062
  914MOL0     C23305   1.558  10.368   5.501 -1.2859 -0.2119 -1.3249
  914MOL0     N23306   1.898  10.927   5.208 -0.1306  0.3905 -0.0750
  914MOL0     N23307   1.898  11.063   5.223 -0.2362 -1.0483 -0.1676
  914MOL0     C23308   2.907  10.891   4.678 -0.2109 -0.1091 -0.0679
  914MOL0     C23309   3.014  10.803   4.696  0.4431 -0.7930  0.3147
  914MOL0     C23310   3.281  10.480   4.918  0.3558  0.7852 -0.3266
  914MOL0     C23311   3.336  10.452   4.787 -0.7074 -0.3593  0.6617
  914MOL0     C23312   3.433  10.351   4.765  0.6062 -0.2186  0.1635
  914MOL0     C23313   3.488  10.297   4.878  0.0944  0.0159 -0.4304
  914MOL0     O23314   3.590  10.208   4.854  0.1241  0.7246 -1.0969
  914MOL0     C23315   3.661  10.145   4.968 -0.1085 -0.7120  0.1757
  914MOL0     C23316   3.751  10.248   5.025 -0.8033 -0.2427  0.0403
  914MOL0     C23317   3.878  10.184   5.086  0.9553  0.2105  0.0091
  914MOL0     C23318   3.961  10.290   5.159  0.1308  0.6123 -0.2477
  914MOL0     C23319   3.889  10.339   5.276 -0.1541  0.1759  0.6565
  914MOL0     C23320   3.820  10.364   5.372 -0.2954 -0.4878 -0.2535
  914MOL0     C23321   3.442  10.323   5.008 -0.3714 -0.9258 -0.2916
  914MOL0     C23322   3.342  10.417   5.037 -0.0154 -0.0629  0.1960
  914MOL0     H23323   2.914  10.673   4.991  1.8000 -0.2016  0.5370
  914MOL0     H23324   2.710  10.811   4.946  0.6967  3.0451  1.3977
  914MOL0     H23325   2.534  11.001   4.862 -0.7415  1.3432 -0.6344
  914MOL0     H23326   2.701  11.061   4.917  0.7452  1.3909 -0.3211
  914MOL0     H23327   2.696  11.253   4.813 -2.1413  2.0604  4.8093
  914MOL0     H23328   2.577  11.222   4.694 -0.6709 -2.0258 -0.6643
  914MOL0     H23329   2.519  11.247   4.993  2.2214 -0.0705 -0.8219
  914MOL0     H23330   2.496  11.373   4.884 -1.2031 -0.2065 -0.8731
  914MOL0     H23331   2.331  11.231   4.752 -0.1905  1.3000  0.7545
  914MOL0     H23332   2.351  11.105   4.889  2.2860 -0.3661 -0.4366
  914MOL0     H23333   2.257  11.401   4.895  0.4162  0.6986  1.1772
  914MOL0     H23334   2.142  11.269   4.867  0.1632  0.7484 -0.3911
  914MOL0     H23335   2.251  11.164   5.094  0.0615  1.2198  2.7330
  914MOL0     H23336   2.324  11.323   5.108  3.2288 -2.5407 -0.8619
  914MOL0     H23337   2.109  11.424   5.154  2.9705 -0.6150 -0.4898
  914MOL0     H23338   2.012  11.300   5.067 -2.3943  1.0926  1.6268
  914MOL0     H23339   1.982  11.293   5.309  1.0090  0.8473 -1.5220
  914MOL0     H23340   2.140  11.235   5.340  1.4200  1.7633 -1.2149
  914MOL0     H23341   2.210  11.000   5.229 -0.8514  6.3452  2.2575
  914MOL0     H23342   1.988  10.680   5.158  1.1163  1.4860 -3.0925
  914MOL0     H23343   2.162  10.728   5.179  0.3147  0.2394 -0.9452
  914MOL0     H23344   2.107  10.778   5.418  1.6370 -0.9660  0.5384
  914MOL0     H23345   2.136  10.621   5.361  0.1029 -0.0918  0.5248
  914MOL0     H23346   1.883  10.778   5.433 -1.8281 -0.4635 -0.7219
  914MOL0     H23347   1.938  10.642   5.529  0.6343  2.6551  1.2974
  914MOL0     H23348   1.888  10.489   5.341 -1.2178 -1.0914 -1.8791
  914MOL0     H23349   1.795  10.609   5.254 -0.4663 -0.4979  0.1170
  914MOL0     H23350   1.738  10.382   5.228  0.4863 -2.7265  0.2170
  914MOL0     H23351   1.716  10.080   5.162  0.1514  0.7958 -1.4660
  914MOL0     H23352   1.573  10.132   5.070 -0.5262  0.4993  0.2217
  914MOL0     H23353   1.708  10.243   5.079 -0.6602  1.5498  0.3609
  914MOL0     H23354   1.204   9.892   5.241 -1.7316 -0.8904 -1.5878
  914MOL0     H23355   1.140   9.649   5.226 -0.1301  1.0761 -2.6382
  914MOL0     H23356   1.264   9.398   5.409  1.6397 -1.6140 -1.2849
  914MOL0     H23357   1.128   9.461   5.319 -1.7704 -2.1575 -2.4364
  914MOL0     H23358   1.112   9.279   5.173 -0.3232  2.1577  1.3455
  914MOL0     H23359   1.259   9.203   5.228 -1.4620 -2.1683 -0.2251
  914MOL0     H23360   1.023   9.246   5.417 -0.4381 -1.6836  0.0502
  914MOL0     H23361   1.157   9.143   5.449 -1.5326  0.4139  1.0826
  914MOL0     H23362   0.967   9.101   5.227 -0.9599  0.9558  1.7097
  914MOL0     H23363   1.122   9.013   5.234 -0.4131 -0.4912 -0.4194
  914MOL0     H23364   1.037   8.932   5.468  2.4521 -3.3477 -2.6738
  914MOL0     H23365   0.932   8.882   5.329  0.6169 -0.8296 -0.0543
  914MOL0     H23366   0.880   9.118   5.498  3.0310  1.4447 -4.1750
  914MOL0     H23367   0.790   9.068   5.348  2.3890 -0.1747 -1.8871
  914MOL0     H23368   0.801   8.861   5.550  0.3802 -0.4395 -1.0599
  914MOL0     H23369   0.685   8.882   5.436 -1.7961 -0.1271  2.0146
  914MOL0     H23370   0.580   9.085   5.568  0.1446 -0.1094 -0.5208
  914MOL0     H23371   0.696   9.057   5.705 -2.9617 -1.8372  3.1678
  914MOL0     H23372   1.562   9.537   5.210 -0.0059  0.5261 -1.2359
  914MOL0     H23373   1.614   9.782   5.211  0.3255 -1.5455  2.7847
  914MOL0     H23374   1.410  10.222   5.558 -0.8843  1.6060 -0.6410
  914MOL0     H23375   1.541  10.425   5.591  2.3364 -4.4110  2.5347
  914MOL0     H23376   2.916  10.948   4.586  1.7132 -0.9612 -0.4407
  914MOL0     H23377   3.091  10.781   4.623 -0.0379 -2.4428  0.2559
  914MOL0     H23378   3.305  10.512   4.702 -0.3639  0.3677  1.0428
  914MOL0     H23379   3.489  10.336   4.673 -0.0605 -0.0781 -0.2685
  914MOL0     H23380   3.611  10.080   5.041 -2.0448  1.2191  0.6404
  914MOL0     H23381   3.739  10.085   4.919  0.0211 -1.7645  1.5981
  914MOL0     H23382   3.701  10.302   5.106  0.0375 -2.3780  2.1105
  914MOL0     H23383   3.773  10.329   4.954 -5.0156  1.3667  0.2836
  914MOL0     H23384   3.940  10.128   5.015 -1.1162 -2.7108  0.3500
  914MOL0     H23385   3.849  10.103   5.153  0.1911  1.2451  0.9775
  914MOL0     H23386   3.989  10.355   5.075  2.8941 -0.3698 -0.1727
  914MOL0     H23387   4.061  10.252   5.179  0.2851  0.5844 -1.0415
  914MOL0     H23388   3.764  10.405   5.453  0.3839  2.0381 -0.9416
  914MOL0     H23389   3.467  10.264   5.095  1.1056  1.5896  1.1265
  914MOL0     H23390   3.334  10.445   5.141  2.2690 -1.4467  0.8197
  915MOL0     O23391   5.530   7.078   4.939  0.1149 -1.1329 -0.3200
  915MOL0     C23392   5.410   7.049   4.954 -0.1723  0.3140 -0.1372
  915MOL0     O23393   5.314   7.139   4.985 -0.0358  0.2719 -0.0150
  915MOL0     C23394   5.313   7.274   4.957  0.8726 -0.1540 -0.3763
  915MOL0     C23395   5.407   7.341   4.880  0.4615  0.0735 -0.0025
  915MOL0     C23396   5.384   7.486   4.861 -0.6933  0.0491 -0.3079
  915MOL0     C23397   5.272   7.546   4.902  0.2108  0.2347  0.1279
  915MOL0     O23398   5.252   7.686   4.898  0.1795  0.4356  0.8118
  915MOL0     C23399   5.301   7.773   4.797 -0.4786  1.3603  1.0002
  915MOL0     C23400   5.190   7.852   4.736 -0.7580  0.2433 -1.2598
  915MOL0     C23401   5.072   7.764   4.680 -0.3280 -0.0144 -0.4948
  915MOL0     C23402   4.961   7.869   4.646  0.3094 -0.6631  0.0031
  915MOL0     C23403   4.865   7.810   4.557 -0.3074  0.7442 -0.4237
  915MOL0     C23404   4.733   7.892   4.536 -0.2098 -1.3759 -0.2946
  915MOL0     C23405   4.650   7.825   4.425 -0.1012  0.5624  0.4324
  915MOL0     C23406   4.564   7.939   4.360 -0.2617  0.1416  0.2300
  915MOL0     N23407   4.435   7.974   4.427 -0.2241 -0.3830 -0.7659
  915MOL0     C23408   4.354   7.877   4.489  0.0256 -0.3649  0.6842
  915MOL0     C23409   4.236   7.934   4.514  0.2010  0.2421  0.6572
  915MOL0     C23410   4.123   7.856   4.563 -0.1576  0.5771 -0.7566
  915MOL0     C23411   3.979   7.908   4.532 -0.4485 -0.6935 -0.2967
  915MOL0     C23412   3.866   7.839   4.612 -0.3713  0.1288  0.6948
  915MOL0     C23413   3.835   7.920   4.733 -0.2667 -0.6553 -0.8712
  915MOL0     O23414   3.759   7.842   4.838  0.1136  0.2397  0.1924
  915MOL0     C23415   3.631   7.793   4.821  0.9438  0.3853 -0.0557
  915MOL0     C23416   3.589   7.676   4.884 -0.1120  0.1315  0.2436
  915MOL0     C23417   3.459   7.624   4.874 -0.2913  0.7085  0.3675
  915MOL0     C23418   3.430   7.503   4.959 -0.6799 -0.0932  0.8257
  915MOL0     C23419   3.362   7.699   4.794 -0.0171  0.3572 -0.9188
  915MOL0     C23420   3.221   7.657   4.774 -0.1922 -0.1834 -0.4691
  915MOL0     O23421   3.139   7.744   4.717 -0.0350 -0.3116  0.0112
  915MOL0     C23422   3.002   7.722   4.698 -0.3952  0.6012 -0.2965
  915MOL0     C23423   2.970   7.659   4.587 -0.0615 -1.2687  0.1707
  915MOL0     C23424   2.839   7.616   4.570 -0.7800 -0.3660  0.2599
  915MOL0     C23425   2.746   7.630   4.669 -0.2534  0.4715  0.3204
  915MOL0     O23426   2.624   7.558   4.654 -0.7043 -0.3402 -0.5465
  915MOL0     C23427   2.534   7.533   4.764  0.3381  0.2209  0.0955
  915MOL0     C23428   2.437   7.423   4.732 -0.0166 -0.2959  0.1748
  915MOL0     C23429   2.371   7.348   4.856  0.0344  0.0397 -0.1389
  915MOL0     C23430   2.336   7.450   4.977  0.6749  0.1723  0.5469
  915MOL0     C23431   2.330   7.394   5.120 -0.2383 -0.5251 -0.0198
  915MOL0     C23432   2.194   7.335   5.160 -0.4433 -0.3947  0.1217
  915MOL0     C23433   2.083   7.447   5.164  0.8120 -0.6007 -0.7277
  915MOL0     C23434   1.949   7.376   5.177  0.3164  0.4549  0.0148
  915MOL0    Cl23435   1.937   7.303   5.342 -0.3466 -0.3315 -0.5940
  915MOL0     C23436   2.779   7.697   4.786  0.0312 -0.6696 -0.4012
  915MOL0     C23437   2.907   7.747   4.800 -0.0357  0.0829  0.7054
  915MOL0     O23438   3.178   7.554   4.829 -0.3542 -0.5531  0.5943
  915MOL0     C23439   3.411   7.809   4.722  1.3938 -0.1752  0.3436
  915MOL0     C23440   3.534   7.864   4.746  0.0280  0.7875  0.1669
  915MOL0     N23441   4.247   8.068   4.489 -0.1519  0.4202  0.5027
  915MOL0     N23442   4.366   8.092   4.437 -0.0625 -0.9895 -0.6634
  915MOL0     C23443   5.179   7.477   4.982 -0.4632  0.9351 -1.0398
  915MOL0     C23444   5.198   7.340   5.003  0.9761  0.1374 -0.3423
  915MOL0     C23445   5.377   6.901   4.970 -0.1732 -0.9350 -0.3985
  915MOL0     C23446   5.273   6.850   5.055 -0.1907 -0.2763 -0.2634
  915MOL0     C23447   5.240   6.716   5.057 -1.0062 -0.0175 -0.4452
  915MOL0     C23448   5.324   6.625   4.984 -0.5956  0.3467 -0.3440
  915MOL0     O23449   5.323   6.487   5.002 -0.0849  0.5336 -0.5964
  915MOL0     C23450   5.243   6.418   5.100 -0.8135 -0.3814 -0.1365
  915MOL0     C23451   5.277   6.278   5.095  0.3258 -0.1343 -1.0294
  915MOL0     C23452   5.202   6.185   5.201  0.3753  0.4378  0.1272
  915MOL0     C23453   5.310   6.149   5.310  0.4109 -0.5754 -0.9482
  915MOL0     C23454   5.401   6.038   5.272 -0.2489 -0.2904 -0.7864
  915MOL0     C23455   5.466   5.943   5.238  0.9551  0.4385 -0.5489
  915MOL0     C23456   5.415   6.674   4.887 -0.5974 -0.5394  0.0025
  915MOL0     C23457   5.448   6.813   4.887 -0.1219  0.0996  0.6703
  915MOL0     H23458   5.501   7.296   4.851 -0.1889 -2.4523  1.5214
  915MOL0     H23459   5.464   7.544   4.816 -1.0703  0.5246 -0.3909
  915MOL0     H23460   5.385   7.829   4.841  2.0660 -3.0510  2.3672
  915MOL0     H23461   5.354   7.726   4.714 -1.6731  2.0234 -0.1826
  915MOL0     H23462   5.171   7.929   4.812 -0.2025 -2.5205  1.8977
  915MOL0     H23463   5.237   7.909   4.655 -2.7585  1.1154 -1.8560
  915MOL0     H23464   5.111   7.721   4.587  0.4992  1.1147 -0.6922
  915MOL0     H23465   5.030   7.695   4.754  3.3814  0.5478  2.4373
  915MOL0     H23466   4.922   7.913   4.739  1.6934  2.7394 -0.8754
  915MOL0     H23467   5.007   7.958   4.602 -1.6175  0.4815  0.1566
  915MOL0     H23468   4.919   7.792   4.464 -2.2971  0.1556 -1.5070
  915MOL0     H23469   4.823   7.720   4.603 -3.2995  1.0581 -2.3400
  915MOL0     H23470   4.670   7.903   4.624  0.3460  1.2445 -0.1489
  915MOL0     H23471   4.768   7.991   4.507 -3.5217  0.7359  2.2923
  915MOL0     H23472   4.708   7.773   4.347 -1.0499 -3.0946  1.9551
  915MOL0     H23473   4.601   7.742   4.477 -0.4228  0.4606 -0.0227
  915MOL0     H23474   4.526   7.891   4.269 -0.1781  2.2534 -0.9940
  915MOL0     H23475   4.628   8.026   4.340  1.0116 -0.7619  0.2240
  915MOL0     H23476   4.373   7.771   4.477  3.0262  0.3485 -2.4180
  915MOL0     H23477   4.129   7.758   4.515 -2.3191  0.0308  0.0160
  915MOL0     H23478   4.131   7.834   4.670 -1.3835  0.6349 -0.6443
  915MOL0     H23479   3.967   7.888   4.426 -1.9672 -0.1968 -0.2424
  915MOL0     H23480   3.983   8.015   4.554  0.6677 -0.1877 -2.6822
  915MOL0     H23481   3.912   7.741   4.627  3.7522  1.0320 -3.4891
  915MOL0     H23482   3.784   7.819   4.542  1.5525  0.7654 -1.9340
  915MOL0     H23483   3.777   8.007   4.702 -1.3000 -1.4444 -1.2259
  915MOL0     H23484   3.921   7.964   4.784 -1.3095  0.5113 -0.0591
  915MOL0     H23485   3.663   7.648   4.959 -0.1550  0.0375  0.2514
  915MOL0     H23486   3.503   7.502   5.041 -0.5207  3.3963  0.8781
  915MOL0     H23487   3.341   7.518   5.021  0.1284 -0.8702  2.2441
  915MOL0     H23488   3.425   7.409   4.903 -0.7511 -0.0535  0.7655
  915MOL0     H23489   3.047   7.657   4.511  0.9031  1.2351  0.9918
  915MOL0     H23490   2.814   7.572   4.474 -1.9941 -0.2500  0.5012
  915MOL0     H23491   2.597   7.495   4.845 -1.4120 -0.6661  1.0858
  915MOL0     H23492   2.490   7.623   4.807 -1.1134  0.3986 -1.6359
  915MOL0     H23493   2.362   7.482   4.677  0.0747  1.2148  1.5826
  915MOL0     H23494   2.483   7.349   4.667 -0.0031 -0.9557  0.9232
  915MOL0     H23495   2.442   7.273   4.891  1.4899  0.2307 -2.4475
  915MOL0     H23496   2.281   7.293   4.829  0.4444  1.0440 -4.3801
  915MOL0     H23497   2.397   7.541   4.974 -0.3363  0.8641  0.2312
  915MOL0     H23498   2.242   7.495   4.943  0.0520 -1.9653 -0.7494
  915MOL0     H23499   2.364   7.467   5.196 -1.1174 -0.5738  0.4298
  915MOL0     H23500   2.393   7.305   5.124 -0.6200 -0.7709  0.8404
  915MOL0     H23501   2.184   7.259   5.081  3.7163 -1.4475  0.3533
  915MOL0     H23502   2.185   7.291   5.259 -2.4010 -0.2273  0.0664
  915MOL0     H23503   2.091   7.511   5.075  2.6471  0.1408 -0.0767
  915MOL0     H23504   2.090   7.513   5.251 -3.3666 -1.9438  0.8803
  915MOL0     H23505   1.961   7.296   5.103 -2.1146  0.1893 -0.1763
  915MOL0     H23506   1.865   7.440   5.150  0.4169  0.6157  0.0811
  915MOL0     H23507   2.701   7.718   4.858 -1.1430  0.6995 -1.9828
  915MOL0     H23508   2.951   7.789   4.890  0.2461 -0.3184  0.7576
  915MOL0     H23509   3.343   7.868   4.660 -0.2725 -0.9288  1.3844
  915MOL0     H23510   3.565   7.952   4.691  1.4479 -1.2555 -2.5570
  915MOL0     H23511   5.089   7.532   5.008 -0.4450  1.7173 -2.5180
  915MOL0     H23512   5.117   7.286   5.050  1.3345 -1.9937 -2.0183
  915MOL0     H23513   5.227   6.921   5.124  0.5101  0.2951 -0.3723
  915MOL0     H23514   5.164   6.674   5.122 -2.1973  0.2237 -1.6492
  915MOL0     H23515   5.269   6.463   5.196 -0.4669  1.7119 -1.1527
  915MOL0     H23516   5.137   6.435   5.080 -0.3316  1.5152 -1.3917
  915MOL0     H23517   5.385   6.266   5.098  0.8392  3.3847 -1.7529
  915MOL0     H23518   5.246   6.246   4.994 -1.2825 -1.0318 -0.2943
  915MOL0     H23519   5.161   6.097   5.151 -0.6096  1.7388 -1.4722
  915MOL0     H23520   5.120   6.247   5.240 -1.4873  0.0486 -2.8266
  915MOL0     H23521   5.270   6.129   5.410 -1.4351  2.7162 -0.9106
  915MOL0     H23522   5.365   6.241   5.332  0.8821 -1.2495  0.9536
  915MOL0     H23523   5.525   5.862   5.198  2.1397  0.4669  1.0691
  915MOL0     H23524   5.476   6.608   4.827 -0.0209  0.0817 -0.1112
  915MOL0     H23525   5.533   6.844   4.828  0.9394 -0.7317  1.7192
  916MOL0     O23526   0.875   6.551   4.608  0.3777  0.3831  0.3863
  916MOL0     C23527   0.860   6.672   4.590 -0.1188  0.6022 -0.3031
  916MOL0     O23528   0.890   6.738   4.470 -0.5324 -0.1995  0.1043
  916MOL0     C23529   0.945   6.657   4.378 -0.3203  0.3740 -0.5787
  916MOL0     C23530   1.079   6.641   4.375 -0.7964 -0.2021  0.5766
  916MOL0     C23531   1.140   6.563   4.280 -0.4049  0.3795 -0.6569
  916MOL0     C23532   1.066   6.500   4.178  0.4858 -0.4534  0.1276
  916MOL0     O23533   1.118   6.431   4.067  0.0308 -0.6988 -0.5604
  916MOL0     C23534   1.244   6.468   4.014 -0.6866 -1.2871  0.5821
  916MOL0     C23535   1.222   6.598   3.941 -0.7679 -0.1124 -0.5111
  916MOL0     C23536   1.339   6.645   3.859 -0.2366  0.5341  0.9366
  916MOL0     C23537   1.312   6.790   3.811 -0.7212 -0.2678  0.0288
  916MOL0     C23538   1.416   6.845   3.711  0.2962 -0.2201 -0.2698
  916MOL0     C23539   1.403   7.003   3.704  0.4942  0.3835 -0.0628
  916MOL0     C23540   1.522   7.076   3.630  0.3578  0.8297 -0.2749
  916MOL0     C23541   1.502   7.225   3.598 -0.4692 -0.0690 -0.4583
  916MOL0     N23542   1.387   7.231   3.511  0.2878 -0.5381 -0.8051
  916MOL0     C23543   1.348   7.153   3.406 -0.6231 -0.1341 -0.6189
  916MOL0     C23544   1.241   7.221   3.352  0.5967  0.5467 -0.5026
  916MOL0     C23545   1.208   7.204   3.210  0.6400 -0.4677  1.0034
  916MOL0     C23546   1.077   7.260   3.169 -0.0483 -0.0768  0.7663
  916MOL0     C23547   0.959   7.187   3.221  0.6593  0.2343 -0.2597
  916MOL0     C23548   0.913   7.218   3.366  0.2740 -0.4950 -1.0095
  916MOL0     O23549   0.810   7.136   3.422  0.0540  0.6566  0.0119
  916MOL0     C23550   0.835   7.001   3.420  0.6610 -0.0232 -0.6051
  916MOL0     C23551   0.960   6.949   3.425  0.5233  1.0318 -0.0856
  916MOL0     C23552   0.985   6.806   3.434  0.1338 -0.0912  0.1213
  916MOL0     C23553   1.124   6.758   3.448 -0.5554  0.1189  0.7521
  916MOL0     C23554   0.869   6.718   3.437  0.6175  0.6166  0.1427
  916MOL0     C23555   0.858   6.565   3.441 -0.8947 -0.0382 -1.2538
  916MOL0     O23556   0.734   6.507   3.420  0.0345  0.3823  0.4865
  916MOL0     C23557   0.725   6.372   3.382 -0.1712  0.2821 -0.4015
  916MOL0     C23558   0.831   6.298   3.320 -0.7090  0.5335 -0.0484
  916MOL0     C23559   0.820   6.161   3.280 -0.0020 -0.8468 -0.2029
  916MOL0     C23560   0.692   6.099   3.289  0.7287 -1.0803  0.5834
  916MOL0     O23561   0.664   5.972   3.252  0.0264 -0.0337 -0.1634
  916MOL0     C23562   0.701   5.949   3.116  0.0482  0.2489 -0.1050
  916MOL0     C23563   0.683   5.807   3.084  0.4976  0.7030  0.3038
  916MOL0     C23564   0.755   5.715   3.189 -0.3489  0.2129  0.3773
  916MOL0     C23565   0.893   5.741   3.227 -0.7223 -0.6226 -0.2156
  916MOL0     C23566   0.951   5.627   3.312 -0.2340  0.1937  0.6635
  916MOL0     C23567   1.026   5.535   3.218  0.1692  0.1715  0.0592
  916MOL0     C23568   1.091   5.427   3.303  0.6850  0.0986 -0.0919
  916MOL0     C23569   1.217   5.375   3.245  0.1027 -0.1578  0.1643
  916MOL0    Cl23570   1.194   5.275   3.086 -0.6391  0.3080 -0.1202
  916MOL0     C23571   0.593   6.176   3.347  0.0571  0.5294  1.1800
  916MOL0     C23572   0.599   6.304   3.395 -0.9422 -0.4497  0.2290
  916MOL0     O23573   0.961   6.503   3.470  0.7530  0.3636  0.4086
  916MOL0     C23574   0.743   6.787   3.436  0.5141 -0.2346  0.1976
  916MOL0     C23575   0.726   6.918   3.428 -0.4693 -0.6836 -1.0306
  916MOL0     N23576   1.211   7.323   3.427  0.4917  0.0339 -0.4173
  916MOL0     N23577   1.285   7.318   3.532  0.6645 -0.7963 -0.3507
  916MOL0     C23578   0.925   6.514   4.189  0.8088  0.1794 -0.1811
  916MOL0     C23579   0.864   6.594   4.282 -1.0649 -0.7149 -0.0183
  916MOL0     C23580   0.794   6.751   4.696  0.4254  0.0911 -0.2137
  916MOL0     C23581   0.746   6.881   4.654 -0.5146 -1.0457  0.1386
  916MOL0     C23582   0.700   6.963   4.757  0.4701 -0.8534 -0.5454
  916MOL0     C23583   0.696   6.935   4.898 -0.3224 -0.3334 -0.3226
  916MOL0     O23584   0.658   7.032   4.983 -0.3541  0.3202  0.3341
  916MOL0     C23585   0.674   7.024   5.122  0.3794 -0.1642  0.1317
  916MOL0     C23586   0.599   7.140   5.198 -0.0696  0.6667  0.5028
  916MOL0     C23587   0.482   7.194   5.107 -0.2650  0.8285 -0.3367
  916MOL0     C23588   0.369   7.270   5.185 -0.6658  0.1309 -0.3787
  916MOL0     C23589   0.322   7.195   5.299  0.5528  0.1947 -0.7635
  916MOL0     C23590   0.307   7.117   5.399  1.0212 -0.9285 -0.0116
  916MOL0     C23591   0.754   6.812   4.932  0.0017  0.1417  0.2164
  916MOL0     C23592   0.801   6.717   4.832  1.3112 -0.7593 -0.1144
  916MOL0     H23593   1.150   6.703   4.429 -0.1122  3.8510 -4.2900
  916MOL0     H23594   1.248   6.562   4.277 -0.3636 -1.8564  0.0056
  916MOL0     H23595   1.317   6.492   4.091 -1.4275  0.4638  0.8042
  916MOL0     H23596   1.272   6.387   3.946  1.3902 -0.4382  0.3572
  916MOL0     H23597   1.149   6.560   3.869  1.1453 -3.4688 -0.8294
  916MOL0     H23598   1.183   6.671   4.013  0.8907 -1.5140  1.9774
  916MOL0     H23599   1.429   6.650   3.921 -0.9314 -0.0557  2.0302
  916MOL0     H23600   1.344   6.574   3.776  1.2310  0.8134  0.7618
  916MOL0     H23601   1.220   6.781   3.752  0.0301 -1.2922 -1.0251
  916MOL0     H23602   1.304   6.852   3.901 -2.1066 -0.5635  0.1375
  916MOL0     H23603   1.511   6.820   3.760 -1.7401 -3.0526  2.6750
  916MOL0     H23604   1.397   6.797   3.614 -1.7834  1.5593 -0.8107
  916MOL0     H23605   1.306   7.030   3.660  0.9608  2.3805  0.0218
  916MOL0     H23606   1.392   7.051   3.802  1.9671  2.1490 -0.6955
  916MOL0     H23607   1.612   7.069   3.692  0.6819  0.8516 -0.7399
  916MOL0     H23608   1.546   7.027   3.536  0.5113 -0.0257  0.1999
  916MOL0     H23609   1.590   7.272   3.555  2.4189 -2.4569  2.3659
  916MOL0     H23610   1.471   7.260   3.697  3.8425 -0.9478  1.4238
  916MOL0     H23611   1.402   7.071   3.359  0.0123  1.2198 -2.3802
  916MOL0     H23612   1.285   7.261   3.157  0.2676 -0.4387  0.4900
  916MOL0     H23613   1.217   7.097   3.194 -1.1104 -0.3832 -0.9366
  916MOL0     H23614   1.071   7.242   3.061  1.0197  0.4411  0.6109
  916MOL0     H23615   1.094   7.368   3.181  3.4762  0.3659 -4.6055
  916MOL0     H23616   0.976   7.080   3.214  2.2175  0.2998  1.5332
  916MOL0     H23617   0.877   7.217   3.156  1.1354  0.5143 -0.7455
  916MOL0     H23618   0.869   7.318   3.372 -1.1509 -1.1809  1.1424
  916MOL0     H23619   0.993   7.212   3.440 -0.9135 -0.0375  0.3487
  916MOL0     H23620   1.043   7.019   3.430  0.6013  0.9214  0.1984
  916MOL0     H23621   1.182   6.846   3.419 -2.3100  0.7001 -1.2223
  916MOL0     H23622   1.145   6.718   3.548  2.7423 -0.3388 -0.0232
  916MOL0     H23623   1.144   6.689   3.365  0.9808  2.2471 -0.7285
  916MOL0     H23624   0.929   6.340   3.304  0.4963 -2.1962 -0.4086
  916MOL0     H23625   0.901   6.109   3.231 -1.1445 -1.0548 -1.9297
  916MOL0     H23626   0.641   6.010   3.048  1.2747  0.4326 -1.0590
  916MOL0     H23627   0.804   5.981   3.101 -0.8418  2.2295 -2.8611
  916MOL0     H23628   0.579   5.776   3.076  0.6259  0.4859 -0.6753
  916MOL0     H23629   0.723   5.796   2.982  0.6976 -2.0180  0.5954
  916MOL0     H23630   0.739   5.613   3.153 -0.2148  0.8798 -1.7017
  916MOL0     H23631   0.686   5.723   3.273 -0.8172 -1.7759  0.2242
  916MOL0     H23632   0.956   5.775   3.144  0.0390 -0.8551  0.2514
  916MOL0     H23633   0.884   5.827   3.293  0.2252  1.1562 -2.2676
  916MOL0     H23634   0.882   5.572   3.377 -1.8606 -0.7772 -1.7357
  916MOL0     H23635   1.034   5.674   3.367  0.0438  0.5975 -0.0791
  916MOL0     H23636   0.956   5.479   3.155  2.5400 -3.5212  0.4353
  916MOL0     H23637   1.097   5.592   3.158  1.2439 -0.4499  0.7248
  916MOL0     H23638   1.015   5.349   3.311 -0.3251  1.0163 -0.4442
  916MOL0     H23639   1.106   5.459   3.407 -1.6796 -0.0625  0.3446
  916MOL0     H23640   1.265   5.304   3.314 -0.0686 -1.4301 -0.9780
  916MOL0     H23641   1.283   5.461   3.230 -0.3127  0.1856  0.3093
  916MOL0     H23642   0.505   6.112   3.351  1.4534 -1.4328  1.5339
  916MOL0     H23643   0.516   6.354   3.443  0.6150  3.6987 -1.0302
  916MOL0     H23644   0.656   6.724   3.446 -1.5965  2.6422  1.3389
  916MOL0     H23645   0.628   6.965   3.430 -1.4150 -2.6147 -0.5609
  916MOL0     H23646   0.873   6.464   4.108  0.1109  1.5271 -0.5928
  916MOL0     H23647   0.756   6.603   4.283 -0.9182  1.8432 -0.1025
  916MOL0     H23648   0.738   6.915   4.551 -0.8460 -2.9277 -0.5039
  916MOL0     H23649   0.655   7.058   4.731 -0.0621 -0.6470  1.0069
  916MOL0     H23650   0.649   6.923   5.155 -0.8766  0.2487  0.4749
  916MOL0     H23651   0.782   7.027   5.139  0.4549 -0.5989 -0.2601
  916MOL0     H23652   0.670   7.223   5.212 -2.0264  2.3785  0.7748
  916MOL0     H23653   0.561   7.100   5.292  0.4864 -0.2706  0.3336
  916MOL0     H23654   0.433   7.110   5.058  1.0902 -0.4388  0.4104
  916MOL0     H23655   0.519   7.263   5.031 -1.2113 -0.1607 -1.7496
  916MOL0     H23656   0.300   7.307   5.109  0.5628  1.3579 -0.9446
  916MOL0     H23657   0.417   7.350   5.242  0.7423 -0.9186 -0.0288
  916MOL0     H23658   0.305   7.047   5.480 -0.2489 -1.0073 -0.0931
  916MOL0     H23659   0.779   6.783   5.034 -1.3514 -1.9740  0.0226
  916MOL0     H23660   0.852   6.627   4.866  1.1223 -0.4532  1.0132
  917MOL0     O23661   3.571   8.669   9.169 -1.2013  0.4951 -0.3448
  917MOL0     C23662   3.485   8.586   9.155  0.3385 -0.9721 -0.8121
  917MOL0     O23663   3.359   8.613   9.123  0.0406 -0.6724 -0.2432
  917MOL0     C23664   3.317   8.741   9.108  0.2710  0.6255 -0.1197
  917MOL0     C23665   3.202   8.781   9.175  0.4093  0.4327  0.0788
  917MOL0     C23666   3.168   8.914   9.172  0.1669 -0.8359 -0.1606
  917MOL0     C23667   3.240   9.007   9.096 -0.2288 -0.1104 -0.3059
  917MOL0     O23668   3.220   9.152   9.095  0.1356 -0.3504  0.5047
  917MOL0     C23669   3.114   9.198   9.181  0.4501  0.3763  1.8834
  917MOL0     C23670   3.127   9.338   9.203  0.3930 -0.0504 -0.0452
  917MOL0     C23671   3.132   9.419   9.070  0.0676 -0.4910 -0.0828
  917MOL0     C23672   3.156   9.571   9.102  0.4258 -0.4744  0.6270
  917MOL0     C23673   3.149   9.653   8.983 -0.8738 -1.0370 -0.2936
  917MOL0     C23674   3.194   9.798   8.991 -0.3621 -0.2319 -0.1164
  917MOL0     C23675   3.102   9.882   9.093  0.4557  0.2533 -0.3952
  917MOL0     C23676   3.171  10.019   9.129 -0.2457  0.2780 -1.1856
  917MOL0     N23677   3.100  10.097   9.230  0.0723  0.6999 -0.9915
  917MOL0     C23678   3.008  10.052   9.318  1.6182 -0.0360 -0.0990
  917MOL0     C23679   2.947  10.166   9.363  0.5404  0.3426 -0.0401
  917MOL0     C23680   2.845  10.163   9.467 -0.1919 -1.2526  0.1541
  917MOL0     C23681   2.790  10.305   9.491 -0.4036  0.3352 -0.1220
  917MOL0     C23682   2.714  10.306   9.626  0.4286  0.4159  0.3343
  917MOL0     C23683   2.679  10.447   9.662  0.9479 -0.0836 -0.5171
  917MOL0     O23684   2.597  10.500   9.562  0.0742  0.1731  0.2628
  917MOL0     C23685   2.465  10.515   9.588  0.1645  0.9434 -0.0282
  917MOL0     C23686   2.401  10.635   9.543  0.2442 -0.3529 -0.3493
  917MOL0     C23687   2.266  10.663   9.576  0.0457 -0.5676  0.6881
  917MOL0     C23688   2.226  10.802   9.538  0.7269 -0.5939 -0.4751
  917MOL0     C23689   2.185  10.568   9.635 -0.2709  0.2275 -0.2334
  917MOL0     C23690   2.032  10.581   9.646 -0.0518 -0.5157 -0.2452
  917MOL0     O23691   1.970  10.468   9.678 -0.2908 -0.0925 -0.3496
  917MOL0     C23692   1.851  10.476   9.752  0.0897 -1.1169 -0.1800
  917MOL0     C23693   1.819  10.579   9.845  0.3801 -0.1849  0.4594
  917MOL0     C23694   1.696  10.585   9.914 -0.4768  1.1155 -0.3657
  917MOL0     C23695   1.604  10.479   9.896 -0.0851 -0.1608  0.1366
  917MOL0     O23696   1.482  10.493   9.954  0.8111  0.8569  0.1343
  917MOL0     C23697   1.377  10.397   9.952 -0.0987  1.0114  0.8802
  917MOL0     C23698   1.281  10.392  10.078  0.1368 -0.0523 -0.3407
  917MOL0     C23699   1.351  10.364  10.212  0.3271 -0.0519  0.4078
  917MOL0     C23700   1.256  10.377  10.344  0.7107  0.1287  0.7166
  917MOL0     C23701   1.202  10.237  10.404  0.2372  0.2618  0.4970
  917MOL0     C23702   1.124  10.146  10.303  0.5733  0.7851  0.3860
  917MOL0     C23703   0.997  10.214  10.261  0.0813 -0.3408  0.2313
  917MOL0     C23704   0.915  10.106  10.189 -0.0251 -0.6893  0.2455
  917MOL0    Cl23705   0.983  10.067  10.024 -0.0052  0.1873  0.2027
  917MOL0     C23706   1.637  10.375   9.803 -0.9164  0.6733  0.0998
  917MOL0     C23707   1.760  10.373   9.733 -0.5780 -0.1801  0.3256
  917MOL0     O23708   1.970  10.681   9.606  0.0618  0.6027 -0.4214
  917MOL0     C23709   2.248  10.448   9.686 -0.5119 -0.4134  0.9821
  917MOL0     C23710   2.385  10.425   9.665  0.5810  0.0368  0.4660
  917MOL0     N23711   2.998  10.270   9.291  0.3724  0.0775 -0.4732
  917MOL0     N23712   3.094  10.232   9.213  0.4354  0.4973 -0.9046
  917MOL0     C23713   3.348   8.964   9.018  0.7291 -0.8570  0.0759
  917MOL0     C23714   3.389   8.840   9.029  0.6771  0.5087  0.1608
  917MOL0     C23715   3.522   8.452   9.175 -0.1591  0.3975  1.2366
  917MOL0     C23716   3.434   8.357   9.235 -0.1186  0.2350 -0.1263
  917MOL0     C23717   3.479   8.238   9.276  0.7045  0.2827  0.6742
  917MOL0     C23718   3.607   8.193   9.237  0.8114  0.1440  0.0290
  917MOL0     O23719   3.661   8.074   9.274  0.0320 -0.9146 -0.3013
  917MOL0     C23720   3.613   7.992   9.376 -0.2287 -0.1130  0.6292
  917MOL0     C23721   3.694   8.021   9.505  0.2164 -0.1915 -0.5187
  917MOL0     C23722   3.600   8.016   9.624  0.1535  0.7285  0.3153
  917MOL0     C23723   3.540   7.881   9.658 -0.2704  1.0207 -0.2586
  917MOL0     C23724   3.645   7.787   9.701 -0.6835 -0.1440 -0.0045
  917MOL0     C23725   3.728   7.701   9.730 -0.5799  0.1482 -0.8792
  917MOL0     C23726   3.684   8.275   9.152 -0.2689  0.2406 -0.8511
  917MOL0     C23727   3.639   8.411   9.123  0.5236  0.9927 -0.1828
  917MOL0     H23728   3.138   8.710   9.226  0.9545 -1.0706 -1.2481
  917MOL0     H23729   3.073   8.943   9.215 -0.2971 -0.4149 -1.4235
  917MOL0     H23730   3.020   9.177   9.129  1.7180 -0.7258 -0.0458
  917MOL0     H23731   3.108   9.151   9.280 -0.2353 -1.8850  0.8355
  917MOL0     H23732   3.045   9.372   9.267 -2.1846 -4.0520 -0.8778
  917MOL0     H23733   3.219   9.363   9.256 -1.3021  1.5371  2.3631
  917MOL0     H23734   3.208   9.379   9.002 -1.6301 -3.1003 -0.6159
  917MOL0     H23735   3.042   9.406   9.009  0.2742 -1.1383 -0.2582
  917MOL0     H23736   3.083   9.609   9.174  2.0221  2.0394  1.0489
  917MOL0     H23737   3.247   9.584   9.161 -2.1130  0.3301  4.7416
  917MOL0     H23738   3.208   9.602   8.906  2.0787 -0.3783  1.3828
  917MOL0     H23739   3.043   9.647   8.954 -1.7974 -1.1792  2.7500
  917MOL0     H23740   3.297   9.795   9.027 -0.5725 -1.0365  0.4503
  917MOL0     H23741   3.197   9.853   8.897 -0.9855 -2.8473 -1.7432
  917MOL0     H23742   3.002   9.897   9.051 -0.7449  0.0366  2.2397
  917MOL0     H23743   3.099   9.828   9.188 -0.2802  2.1633  0.7217
  917MOL0     H23744   3.183  10.086   9.043  1.3401 -0.4232 -1.5528
  917MOL0     H23745   3.274  10.018   9.166  0.4820 -0.0486 -3.0815
  917MOL0     H23746   3.007   9.955   9.365  1.3365  1.6992  3.8192
  917MOL0     H23747   2.768  10.092   9.435  0.3541 -2.4691  1.4632
  917MOL0     H23748   2.888  10.130   9.562 -2.5906 -1.5061  1.2135
  917MOL0     H23749   2.729  10.322   9.402  1.9724 -0.8535 -2.1227
  917MOL0     H23750   2.871  10.379   9.491 -0.5225  0.5382 -2.3051
  917MOL0     H23751   2.771  10.253   9.703 -0.3224 -0.8056  0.0736
  917MOL0     H23752   2.619  10.251   9.622 -1.7498  3.5102  3.2180
  917MOL0     H23753   2.774  10.501   9.656  1.2783 -0.5206  0.6036
  917MOL0     H23754   2.627  10.460   9.757 -0.2125 -2.0112 -0.8230
  917MOL0     H23755   2.473  10.699   9.493  1.8394 -0.5910  1.5366
  917MOL0     H23756   2.301  10.879   9.517  0.1989  0.8914  2.5264
  917MOL0     H23757   2.153  10.802   9.457  0.8203  0.1330 -0.5664
  917MOL0     H23758   2.180  10.847   9.626  0.5019 -0.0179 -0.8815
  917MOL0     H23759   1.880  10.669   9.852 -0.5873  0.5971 -0.6228
  917MOL0     H23760   1.680  10.658   9.993  1.4752 -0.5057  1.6274
  917MOL0     H23761   1.316  10.420   9.864  1.1617 -1.4283 -0.7215
  917MOL0     H23762   1.413  10.294   9.943  2.8185  1.9394  0.9601
  917MOL0     H23763   1.241  10.494  10.078  0.2306 -0.0025  0.7682
  917MOL0     H23764   1.196  10.328  10.053  0.5288 -0.1855 -1.3910
  917MOL0     H23765   1.431  10.434  10.235 -0.1477  0.3043  0.9857
  917MOL0     H23766   1.386  10.260  10.214 -0.7084 -0.4022  2.6707
  917MOL0     H23767   1.314  10.422  10.425 -0.3881  0.0102  1.6010
  917MOL0     H23768   1.170  10.442  10.328  0.9248  0.7444  1.9720
  917MOL0     H23769   1.134  10.255  10.487  0.9840 -2.5481  1.8628
  917MOL0     H23770   1.291  10.181  10.435  0.4483 -0.4784 -1.2960
  917MOL0     H23771   1.201  10.143  10.226  2.1915 -0.6322  1.9749
  917MOL0     H23772   1.103  10.050  10.351 -1.4220  0.8989 -0.1662
  917MOL0     H23773   1.015  10.292  10.186  0.7538  1.2356  1.9456
  917MOL0     H23774   0.946  10.258  10.347  1.0054  1.4293 -0.0813
  917MOL0     H23775   0.812  10.142  10.186 -0.4217 -1.7784  0.2173
  917MOL0     H23776   0.923  10.014  10.248  1.0196 -1.1374 -0.5471
  917MOL0     H23777   1.577  10.286   9.787  1.5245 -0.9026 -0.8380
  917MOL0     H23778   1.794  10.286   9.677  0.0087  0.2373  0.0189
  917MOL0     H23779   2.200  10.373   9.748 -1.2405 -0.5308  0.2943
  917MOL0     H23780   2.431  10.335   9.702 -2.0369 -1.4709  0.2882
  917MOL0     H23781   3.404   9.036   8.960  0.3319 -1.6137 -1.2849
  917MOL0     H23782   3.478   8.810   8.974  1.0197 -2.2079  1.9828
  917MOL0     H23783   3.341   8.402   9.269  0.1391  0.0677  0.8160
  917MOL0     H23784   3.416   8.171   9.333  2.4163  0.2431  2.6457
  917MOL0     H23785   3.505   8.006   9.387 -0.1254 -1.0318  3.7026
  917MOL0     H23786   3.622   7.886   9.353 -2.1144 -0.5977  1.8744
  917MOL0     H23787   3.734   8.123   9.507 -0.3969  0.1066  2.7804
  917MOL0     H23788   3.788   7.967   9.517  1.4210  2.0288  0.7436
  917MOL0     H23789   3.517   8.086   9.612 -0.2923  0.1525  0.0283
  917MOL0     H23790   3.662   8.051   9.707  0.5394 -2.8312  1.7226
  917MOL0     H23791   3.485   7.831   9.578 -0.4565  0.0956  0.4270
  917MOL0     H23792   3.476   7.883   9.746  0.5273 -0.9631  0.4229
  917MOL0     H23793   3.813   7.642   9.757 -0.4777  0.1409 -1.2065
  917MOL0     H23794   3.783   8.240   9.122  0.9252  2.0525  0.7279
  917MOL0     H23795   3.705   8.479   9.071  2.6999 -0.6357  0.2696
  918MOL0     O23796  11.331   9.284   9.246  0.1115 -0.0907  0.0168
  918MOL0     C23797  11.286   9.203   9.157 -0.4511  0.0481 -0.3669
  918MOL0     O23798  11.199   9.241   9.060 -0.3020  0.1289 -1.0004
  918MOL0     C23799  11.157   9.372   9.056 -1.1068  0.0030  0.2011
  918MOL0     C23800  11.045   9.408   9.110  0.4677 -0.1826 -1.1142
  918MOL0     C23801  11.004   9.541   9.110 -0.8691  0.4187  0.1539
  918MOL0     C23802  11.078   9.643   9.045  0.3801 -0.3445  0.6052
  918MOL0     O23803  11.019   9.768   9.046  0.2683  0.5085  0.1428
  918MOL0     C23804  11.063   9.862   8.956 -1.0691  0.7118  0.4972
  918MOL0     C23805  10.982   9.983   8.990 -0.0148  0.2279  0.2521
  918MOL0     C23806  10.842   9.960   8.943  0.5420 -0.3328 -0.3906
  918MOL0     C23807  10.758  10.086   8.947  0.2133  0.0954  0.5225
  918MOL0     C23808  10.711  10.141   9.094  1.1109  0.2908  0.3742
  918MOL0     C23809  10.661  10.280   9.061 -0.0022 -0.2758 -0.7357
  918MOL0     C23810  10.543  10.308   9.160 -0.0888 -0.2809  0.9722
  918MOL0     C23811  10.573  10.279   9.311  0.2948  0.1518  0.1204
  918MOL0     N23812  10.686  10.357   9.364 -0.0111  0.6268 -0.7841
  918MOL0     C23813  10.692  10.491   9.399 -0.5734  0.3778 -0.1658
  918MOL0     C23814  10.824  10.504   9.437 -0.1532  0.3314 -0.0551
  918MOL0     C23815  10.899  10.625   9.486  0.2915 -0.0388  0.4799
  918MOL0     C23816  10.932  10.721   9.376  0.4652  0.5748 -0.2080
  918MOL0     C23817  10.968  10.863   9.430 -0.9766 -0.9847  0.3416
  918MOL0     C23818  10.966  10.969   9.318 -0.5799 -0.2072  0.2410
  918MOL0     O23819  10.967  11.102   9.377  0.5077 -0.3491 -0.4078
  918MOL0     C23820  11.080  11.179   9.351  0.2074  0.5546 -0.4354
  918MOL0     C23821  11.059  11.314   9.324 -0.0951  0.0293 -0.5175
  918MOL0     C23822  11.167  11.400   9.292  0.6042  0.5701 -0.1164
  918MOL0     C23823  11.136  11.545   9.272  0.6180  0.3825  0.1031
  918MOL0     C23824  11.301  11.350   9.296 -0.3643 -0.1704  1.0380
  918MOL0     C23825  11.422  11.441   9.289 -0.0435 -0.1845 -0.2856
  918MOL0     O23826  11.531  11.396   9.365  0.2797 -0.0750  0.3360
  918MOL0     C23827  11.650  11.407   9.306 -0.1467 -1.5909 -0.3253
  918MOL0     C23828  11.723  11.521   9.334 -0.2331 -0.1277  0.0734
  918MOL0     C23829  11.848  11.546   9.285 -1.0510  0.3290 -1.1427
  918MOL0     C23830  11.898  11.467   9.178 -0.4721  0.6311 -0.3594
  918MOL0     O23831  12.009  11.509   9.109 -0.0971 -0.1595  1.4533
  918MOL0     C23832  12.044  11.434   8.991 -0.6634 -1.3415  0.0821
  918MOL0     C23833  12.144  11.519   8.924 -0.0835 -0.4826  0.9444
  918MOL0     C23834  12.283  11.511   8.994  0.5494  0.2494 -0.0015
  918MOL0     C23835  12.382  11.611   8.944 -0.5670  1.0521  0.5937
  918MOL0     C23836  12.523  11.557   8.966 -0.4460  0.6911  0.0982
  918MOL0     C23837  12.632  11.659   8.928 -1.5646  0.4676 -0.3933
  918MOL0     C23838  12.757  11.592   8.863 -0.7128 -0.4222 -0.2125
  918MOL0     C23839  12.859  11.704   8.841  0.0894 -0.1980  0.1929
  918MOL0    Cl23840  13.036  11.643   8.839 -0.0564 -0.4091 -0.8373
  918MOL0     C23841  11.819  11.348   9.148  0.3368 -0.0180  0.2310
  918MOL0     C23842  11.701  11.318   9.216  0.6142  0.9167 -1.4970
  918MOL0     O23843  11.421  11.529   9.203 -0.1502 -0.1036 -0.2769
  918MOL0     C23844  11.314  11.218   9.329 -0.1460  0.4609  0.6333
  918MOL0     C23845  11.207  11.128   9.345  0.3791  0.3155  0.1752
  918MOL0     N23846  10.885  10.382   9.416  0.3843  0.6009  0.8950
  918MOL0     N23847  10.801  10.286   9.373 -0.0649 -0.6062  0.1232
  918MOL0     C23848  11.193   9.604   8.979  0.4212  0.5422  0.4720
  918MOL0     C23849  11.237   9.474   8.982 -0.1745  0.9483  0.2581
  918MOL0     C23850  11.339   9.066   9.160  0.6842 -0.0778  0.5610
  918MOL0     C23851  11.436   9.025   9.251  0.0766  0.1673  1.0550
  918MOL0     C23852  11.484   8.895   9.242 -0.4940  0.0296 -0.7120
  918MOL0     C23853  11.426   8.798   9.162  1.1934 -0.6947  0.4220
  918MOL0     O23854  11.454   8.665   9.159  0.5135 -0.2187  0.3490
  918MOL0     C23855  11.526   8.620   9.045 -0.7825 -0.7898  0.1724
  918MOL0     C23856  11.608   8.494   9.078 -0.2191 -0.7722 -0.0410
  918MOL0     C23857  11.636   8.399   8.961 -0.0684 -0.5304 -0.0359
  918MOL0     C23858  11.665   8.256   9.010  0.5593 -0.1272 -0.0419
  918MOL0     C23859  11.787   8.267   9.085  0.0474  0.5000  0.3945
  918MOL0     C23860  11.886   8.254   9.151 -0.4194  0.6831 -0.4134
  918MOL0     C23861  11.338   8.846   9.071 -0.3934  0.4004  0.4077
  918MOL0     C23862  11.288   8.971   9.069  0.8287 -0.1366 -0.2427
  918MOL0     H23863  10.985   9.334   9.162 -1.3159  1.8674 -0.0581
  918MOL0     H23864  10.912   9.559   9.166  0.5717 -0.3243  2.9507
  918MOL0     H23865  11.167   9.896   8.963 -0.5196 -0.8895  0.3247
  918MOL0     H23866  11.046   9.822   8.856  0.1382  1.6671 -0.1172
  918MOL0     H23867  10.967   9.989   9.098  2.0869 -2.1696  0.7737
  918MOL0     H23868  11.020  10.076   8.948  1.7842 -0.9786 -0.9491
  918MOL0     H23869  10.846   9.923   8.840  1.1411 -0.1041 -0.4515
  918MOL0     H23870  10.811   9.877   9.007  0.5155  0.0739  0.1331
  918MOL0     H23871  10.819  10.160   8.894 -2.7052  2.4025  0.1007
  918MOL0     H23872  10.669  10.077   8.884 -0.8196  3.1477  1.3691
  918MOL0     H23873  10.630  10.077   9.130  0.2595  0.9442 -0.3314
  918MOL0     H23874  10.800  10.143   9.157 -0.2502  1.6951  2.3811
  918MOL0     H23875  10.747  10.347   9.073  0.9219 -1.3412 -1.2258
  918MOL0     H23876  10.627  10.302   8.960  2.0376 -1.2618 -1.6868
  918MOL0     H23877  10.507  10.411   9.152  3.6880  1.1550  0.4692
  918MOL0     H23878  10.458  10.244   9.136  0.5586 -0.2865 -1.6260
  918MOL0     H23879  10.594  10.173   9.328  1.9563  0.2879 -0.8256
  918MOL0     H23880  10.487  10.291   9.376 -0.2884 -2.8143  0.0314
  918MOL0     H23881  10.608  10.559   9.394  0.0630  1.2855  0.8451
  918MOL0     H23882  10.847  10.673   9.569  1.0863 -0.1303  1.0390
  918MOL0     H23883  10.999  10.592   9.514  1.8135  0.3461 -3.8355
  918MOL0     H23884  10.848  10.725   9.306  0.3435 -2.6752 -0.4086
  918MOL0     H23885  11.020  10.681   9.325  3.0902  3.0868  1.9449
  918MOL0     H23886  11.071  10.852   9.467 -0.3618  1.0034 -0.6252
  918MOL0     H23887  10.899  10.893   9.509 -0.8335 -0.6497  0.3420
  918MOL0     H23888  10.881  10.953   9.252 -2.4623  3.7768  1.4046
  918MOL0     H23889  11.046  10.943   9.248  0.7178 -4.3460  2.8467
  918MOL0     H23890  10.956  11.348   9.322 -0.1494 -0.0399 -3.9085
  918MOL0     H23891  11.175  11.601   9.357  1.2007 -1.4310  1.0986
  918MOL0     H23892  11.188  11.582   9.184  3.6329  1.2126  2.0739
  918MOL0     H23893  11.027  11.553   9.269  0.4954 -0.8187  0.4691
  918MOL0     H23894  11.674  11.588   9.405 -1.1637  0.0599 -0.7218
  918MOL0     H23895  11.899  11.638   9.312 -1.7498  0.8855 -1.6597
  918MOL0     H23896  12.092  11.338   9.013 -1.4582 -1.4069  1.6844
  918MOL0     H23897  11.961  11.421   8.921 -0.2127  0.2831 -0.8004
  918MOL0     H23898  12.151  11.490   8.818  0.2181  1.6453  0.3343
  918MOL0     H23899  12.102  11.620   8.931 -0.5208 -0.6265  0.4672
  918MOL0     H23900  12.323  11.410   8.980  1.0663  0.7026 -2.3346
  918MOL0     H23901  12.274  11.516   9.103  0.4769 -0.9843  0.0614
  918MOL0     H23902  12.366  11.627   8.837 -3.8043 -0.9977  0.6122
  918MOL0     H23903  12.363  11.706   8.994 -0.4052  0.7475  1.2486
  918MOL0     H23904  12.537  11.465   8.910  0.4084  0.9211 -0.0737
  918MOL0     H23905  12.546  11.528   9.069 -0.0582  0.0145 -0.1775
  918MOL0     H23906  12.584  11.717   8.848 -1.0462 -0.6287 -1.5378
  918MOL0     H23907  12.649  11.712   9.022 -4.8553 -1.0599  1.2076
  918MOL0     H23908  12.729  11.556   8.763 -1.2185  2.1435 -1.0773
  918MOL0     H23909  12.803  11.519   8.930 -0.7997 -0.9507 -0.7241
  918MOL0     H23910  12.860  11.771   8.928 -1.2225 -1.4632  1.2351
  918MOL0     H23911  12.836  11.745   8.742  0.9415 -0.5508 -0.1563
  918MOL0     H23912  11.834  11.279   9.066 -1.2671 -3.1701  2.3453
  918MOL0     H23913  11.649  11.235   9.170  3.1415 -1.0194 -1.1060
  918MOL0     H23914  11.414  11.176   9.337  1.0116  2.6204 -1.4143
  918MOL0     H23915  11.236  11.024   9.351  1.6214  0.6505  0.2602
  918MOL0     H23916  11.260   9.671   8.926  0.8827 -1.8214 -2.2460
  918MOL0     H23917  11.325   9.440   8.930 -1.8384  0.6990 -2.6008
  918MOL0     H23918  11.461   9.088   9.336 -1.3876  0.8270  1.0358
  918MOL0     H23919  11.573   8.872   9.300  0.0720 -0.4022 -1.7423
  918MOL0     H23920  11.462   8.592   8.961  0.1342 -1.6935 -0.2470
  918MOL0     H23921  11.601   8.691   9.008 -2.7264  1.4735  0.3503
  918MOL0     H23922  11.556   8.448   9.163 -0.9422  1.3588  0.7452
  918MOL0     H23923  11.704   8.535   9.110 -0.5371  0.3039 -0.4530
  918MOL0     H23924  11.712   8.431   8.890 -1.4899  0.8043 -1.0278
  918MOL0     H23925  11.545   8.391   8.901 -2.9629  3.2961  3.2682
  918MOL0     H23926  11.666   8.192   8.922 -2.5828  1.9508 -1.7776
  918MOL0     H23927  11.592   8.211   9.078  1.5794 -1.3601  0.2767
  918MOL0     H23928  11.977   8.232   9.202  2.0915  2.8715 -3.5754
  918MOL0     H23929  11.302   8.783   8.991 -3.0232  4.5926 -2.0530
  918MOL0     H23930  11.221   9.007   8.991 -2.7153  1.2537  3.1123
  919MOL0     O23931   5.221   5.263  11.230 -0.4045  0.1203 -0.9176
  919MOL0     C23932   5.208   5.382  11.220 -0.3982 -0.6184 -0.3719
  919MOL0     O23933   5.192   5.479  11.312  0.2641 -0.6535  0.6647
  919MOL0     C23934   5.193   5.453  11.450 -0.8098 -0.1768  0.4090
  919MOL0     C23935   5.252   5.339  11.505  0.2856  0.5887  0.1522
  919MOL0     C23936   5.259   5.316  11.654  0.0709  0.0649 -0.2460
  919MOL0     C23937   5.198   5.409  11.741  0.2884  0.7974  0.1858
  919MOL0     O23938   5.188   5.381  11.876 -0.5816 -0.8562 -0.2827
  919MOL0     C23939   5.055   5.395  11.941  0.3617 -1.1473  0.2366
  919MOL0     C23940   5.049   5.329  12.081  0.3841 -0.8906 -0.7986
  919MOL0     C23941   5.061   5.177  12.091 -0.1491 -1.0551 -0.3527
  919MOL0     C23942   5.060   5.126  12.227  0.4354 -0.0282 -0.6831
  919MOL0     C23943   5.044   4.977  12.240 -0.5981  1.0847  0.7728
  919MOL0     C23944   5.173   4.903  12.202  0.1117 -0.0401  0.0344
  919MOL0     C23945   5.282   4.914  12.309  0.5008 -0.5095 -0.1232
  919MOL0     C23946   5.391   4.800  12.301 -0.6496 -0.5383 -0.2636
  919MOL0     N23947   5.480   4.846  12.193 -1.2986 -0.3698 -0.1408
  919MOL0     C23948   5.574   4.952  12.200  0.8574 -0.2561 -0.4884
  919MOL0     C23949   5.610   4.985  12.072 -0.8744  0.0016  0.4814
  919MOL0     C23950   5.696   5.095  12.026  0.4031 -0.2051  0.9193
  919MOL0     C23951   5.605   5.230  11.991 -1.0625  1.2285  0.2288
  919MOL0     C23952   5.528   5.289  12.094 -0.6726 -0.3579 -0.2818
  919MOL0     C23953   5.607   5.339  12.218  0.4641  0.2379  0.5578
  919MOL0     O23954   5.512   5.406  12.309  0.0071 -0.1327  0.4341
  919MOL0     C23955   5.419   5.332  12.374 -0.6368  0.0531  0.1981
  919MOL0     C23956   5.444   5.227  12.459  0.6817  0.6366 -0.3833
  919MOL0     C23957   5.344   5.161  12.532 -0.3877 -0.4781 -0.6732
  919MOL0     C23958   5.400   5.054  12.632  0.0348 -0.3608  0.4300
  919MOL0     C23959   5.214   5.210  12.535  0.3599 -0.8838  0.7442
  919MOL0     C23960   5.105   5.153  12.618 -0.6395 -0.0461  0.3169
  919MOL0     O23961   4.999   5.241  12.626  0.0526  0.9692 -0.6142
  919MOL0     C23962   4.882   5.194  12.668  0.6827  0.5472  0.0612
  919MOL0     C23963   4.813   5.085  12.598 -0.2160 -0.2628  0.3057
  919MOL0     C23964   4.682   5.045  12.624 -0.0732  0.5965  1.0731
  919MOL0     C23965   4.613   5.118  12.718 -0.4246  0.0754 -0.1279
  919MOL0     O23966   4.478   5.098  12.741 -1.0490 -0.8533  0.5935
  919MOL0     C23967   4.423   4.973  12.713 -0.2882  0.4685  0.2894
  919MOL0     C23968   4.275   4.993  12.741 -1.1251  0.0407 -0.0578
  919MOL0     C23969   4.232   5.017  12.882  0.4146 -0.1405  0.3414
  919MOL0     C23970   4.080   4.996  12.885 -0.1497  0.0182  0.5709
  919MOL0     C23971   4.006   5.045  13.016  0.1704  0.2292 -0.5882
  919MOL0     C23972   3.860   5.013  12.978 -0.4390 -0.1571 -0.2115
  919MOL0     C23973   3.754   5.087  13.068 -0.1654  0.7645  0.6964
  919MOL0     C23974   3.621   5.011  13.054  0.1321  0.1651  0.5268
  919MOL0    Cl23975   3.500   5.086  13.172 -0.2302 -0.3789  0.3967
  919MOL0     C23976   4.671   5.229  12.781  0.0665  0.0030  0.1728
  919MOL0     C23977   4.804   5.270  12.752 -0.9633 -0.1521 -0.4614
  919MOL0     O23978   5.108   5.032  12.646 -1.0603 -0.5683  0.6654
  919MOL0     C23979   5.193   5.333  12.454 -0.0001  0.3515 -0.0890
  919MOL0     C23980   5.293   5.401  12.384 -0.5496 -0.1408  0.1725
  919MOL0     N23981   5.540   4.892  11.986  0.7676 -0.0064 -0.4067
  919MOL0     N23982   5.461   4.818  12.066  0.2128  0.2532  0.1020
  919MOL0     C23983   5.153   5.524  11.675 -0.5138 -0.3288  0.5261
  919MOL0     C23984   5.151   5.548  11.535 -0.0953 -0.2493 -0.6851
  919MOL0     C23985   5.227   5.429  11.079  0.2820 -0.8093 -0.6776
  919MOL0     C23986   5.147   5.532  11.025  0.9791 -0.1791  0.1187
  919MOL0     C23987   5.158   5.561  10.889 -0.3506 -1.8483 -0.0179
  919MOL0     C23988   5.242   5.500  10.809  0.7868  0.1817 -0.0716
  919MOL0     O23989   5.237   5.541  10.680  0.0554 -0.0359 -0.1872
  919MOL0     C23990   5.294   5.670  10.655 -0.4382  0.5862  0.5321
  919MOL0     C23991   5.444   5.682  10.644  0.4790 -0.9041 -0.4498
  919MOL0     C23992   5.503   5.560  10.570 -0.1082 -0.3480  0.3701
  919MOL0     C23993   5.657   5.564  10.564 -0.0287  0.0453 -1.1395
  919MOL0     C23994   5.719   5.691  10.513  0.1435  0.8384 -0.2590
  919MOL0     C23995   5.784   5.792  10.493 -0.3558 -0.1722  0.6003
  919MOL0     C23996   5.327   5.407  10.865  0.6413  0.2388  0.2793
  919MOL0     C23997   5.323   5.372  10.996  0.3615  0.1368  0.6554
  919MOL0     H23998   5.281   5.249  11.450 -0.0515 -1.6231  3.3207
  919MOL0     H23999   5.296   5.229  11.708  0.5000 -0.4211 -1.3046
  919MOL0     H24000   5.038   5.503  11.945  0.8609 -0.9884 -1.3956
  919MOL0     H24001   4.975   5.355  11.878  1.4383 -1.6783 -0.8543
  919MOL0     H24002   5.129   5.375  12.140 -1.5425  2.7231 -0.7044
  919MOL0     H24003   4.960   5.364  12.136  1.4763  1.4607 -0.3922
  919MOL0     H24004   4.973   5.137  12.040  1.2804 -2.0296 -2.1600
  919MOL0     H24005   5.141   5.133  12.031 -0.8023 -5.1735  1.4400
  919MOL0     H24006   5.159   5.149  12.266  1.3038  1.0656 -3.3087
  919MOL0     H24007   4.972   5.169  12.275  0.5876 -1.2830  0.7679
  919MOL0     H24008   5.011   4.937  12.336  0.0325 -0.0013  0.5609
  919MOL0     H24009   4.976   4.933  12.166  0.8146 -2.6177  1.4252
  919MOL0     H24010   5.154   4.797  12.184 -0.0778  0.3595 -2.4285
  919MOL0     H24011   5.206   4.942  12.105 -2.9427  1.6149 -0.4780
  919MOL0     H24012   5.327   5.013  12.294 -0.4512 -0.2095 -1.1393
  919MOL0     H24013   5.242   4.911  12.411 -0.1059  0.4797 -0.3156
  919MOL0     H24014   5.358   4.697  12.281  1.1580 -0.8028 -2.2958
  919MOL0     H24015   5.450   4.793  12.394 -2.5250 -0.2386  1.0079
  919MOL0     H24016   5.610   5.003  12.289 -1.2386 -0.3737  0.4973
  919MOL0     H24017   5.759   5.114  12.114 -1.7833 -1.6391  2.9208
  919MOL0     H24018   5.765   5.064  11.947  2.0986  5.0311 -0.0509
  919MOL0     H24019   5.540   5.188  11.914  2.0160 -5.8379  0.6542
  919MOL0     H24020   5.655   5.305  11.930 -0.1379 -1.1769 -2.2184
  919MOL0     H24021   5.460   5.215  12.137  1.5691 -1.3549  1.8667
  919MOL0     H24022   5.469   5.372  12.055  0.0348  0.4220  0.2698
  919MOL0     H24023   5.688   5.406  12.189  2.5126 -2.9580 -1.6717
  919MOL0     H24024   5.647   5.253  12.272  0.1737 -1.2065 -1.4041
  919MOL0     H24025   5.547   5.198  12.476  1.2937  2.2153 -1.2397
  919MOL0     H24026   5.510   5.055  12.628  0.2060  1.3845  3.0025
  919MOL0     H24027   5.381   5.080  12.736 -0.3444  4.5773 -0.5974
  919MOL0     H24028   5.369   4.952  12.610  1.3760 -0.4668 -1.1980
  919MOL0     H24029   4.860   5.038  12.513 -1.3736  1.2936 -1.2933
  919MOL0     H24030   4.643   4.966  12.561  0.9666  0.0160  1.1237
  919MOL0     H24031   4.427   4.952  12.606 -1.8223  0.3751  0.2214
  919MOL0     H24032   4.478   4.894  12.764 -0.8090  0.5168  0.9431
  919MOL0     H24033   4.238   5.067  12.669 -1.8458  0.8346  1.0847
  919MOL0     H24034   4.240   4.892  12.716  1.5602 -1.5341  2.0590
  919MOL0     H24035   4.241   5.122  12.909 -2.3607  0.8733 -2.0678
  919MOL0     H24036   4.281   4.947  12.950  0.5017 -0.9038 -0.4911
  919MOL0     H24037   4.044   5.047  12.795  0.8908  0.2551  0.2740
  919MOL0     H24038   4.059   4.890  12.871 -0.4994  0.4295 -3.0710
  919MOL0     H24039   4.018   5.154  13.016 -1.5929  0.4784 -2.0796
  919MOL0     H24040   4.035   4.991  13.107 -0.7542  0.3970 -0.1770
  919MOL0     H24041   3.837   5.033  12.873 -1.4881  0.1493  0.0653
  919MOL0     H24042   3.837   4.908  12.994  0.0492 -0.3556 -0.7806
  919MOL0     H24043   3.747   5.192  13.039 -0.5244 -0.3113 -3.8843
  919MOL0     H24044   3.783   5.083  13.174 -2.1166  1.1580  1.3022
  919MOL0     H24045   3.627   4.908  13.091 -0.4320  0.6997  2.1563
  919MOL0     H24046   3.591   5.009  12.949  1.2008  0.9261  0.1907
  919MOL0     H24047   4.620   5.297  12.849  1.9305  2.2721 -0.5383
  919MOL0     H24048   4.838   5.360  12.801 -0.0148  0.1952 -1.6941
  919MOL0     H24049   5.097   5.382  12.457 -0.5670 -0.7748  1.3828
  919MOL0     H24050   5.255   5.485  12.327 -2.0112 -1.2143 -0.5134
  919MOL0     H24051   5.111   5.612  11.722  2.1258  2.4640 -1.9122
  919MOL0     H24052   5.123   5.645  11.495 -3.0358 -0.4929  0.5220
  919MOL0     H24053   5.075   5.578  11.092  0.2317 -0.3682 -0.5444
  919MOL0     H24054   5.087   5.636  10.854  2.0013 -0.0808 -1.3591
  919MOL0     H24055   5.263   5.709  10.558  1.5932  2.0647  0.4042
  919MOL0     H24056   5.266   5.742  10.732 -2.9155  2.6245 -2.0461
  919MOL0     H24057   5.485   5.685  10.746  1.2735  0.9705 -0.7873
  919MOL0     H24058   5.469   5.772  10.588  0.1431 -0.4252  0.1654
  919MOL0     H24059   5.467   5.560  10.467  3.2876 -4.3044 -1.1177
  919MOL0     H24060   5.459   5.472  10.617 -0.4461 -0.4782 -0.1841
  919MOL0     H24061   5.687   5.484  10.495  0.4746 -1.0776  0.3080
  919MOL0     H24062   5.687   5.544  10.667  5.8183  2.6726 -1.9009
  919MOL0     H24063   5.858   5.863  10.463 -0.5866 -0.4936 -0.7949
  919MOL0     H24064   5.405   5.354  10.811 -0.0095  0.6308 -1.0885
  919MOL0     H24065   5.372   5.281  11.031  0.5239  0.2927  0.8323
  920MOL0     O24066  10.803   8.569  10.726  0.1958  0.0196 -0.2307
  920MOL0     C24067  10.689   8.534  10.713  0.8544 -0.9152 -0.4443
  920MOL0     O24068  10.639   8.408  10.697  0.2603  0.5586 -0.0029
  920MOL0     C24069  10.706   8.290  10.707 -1.1032  0.5270  0.0292
  920MOL0     C24070  10.639   8.176  10.648  0.2700 -0.4351 -0.1639
  920MOL0     C24071  10.696   8.055  10.630  0.8568  0.4343  0.4979
  920MOL0     C24072  10.818   8.026  10.699 -0.3570  0.3388  1.3834
  920MOL0     O24073  10.853   7.896  10.699 -0.1400  0.4067 -1.4111
  920MOL0     C24074  10.906   7.868  10.831  0.1374 -0.0775  0.7955
  920MOL0     C24075  10.886   7.708  10.840 -0.0114 -0.5239 -0.5353
  920MOL0     C24076  10.898   7.668  10.987 -0.3038  0.3171  0.4002
  920MOL0     C24077  10.849   7.525  10.998 -0.1750  0.4049 -0.2410
  920MOL0     C24078  10.854   7.456  11.137  1.1628 -0.9368  0.6285
  920MOL0     C24079  10.807   7.317  11.138 -0.0830 -0.3189 -0.3427
  920MOL0     C24080  10.816   7.242  11.271  0.1388  0.8481 -0.0799
  920MOL0     C24081  10.780   7.094  11.256 -0.2351  0.1118 -0.5336
  920MOL0     N24082  10.638   7.061  11.241 -0.7819  0.1848  0.6850
  920MOL0     C24083  10.538   7.126  11.302  0.3273  0.0275 -0.2239
  920MOL0     C24084  10.417   7.081  11.258 -0.4652 -0.2682  0.1703
  920MOL0     C24085  10.274   7.114  11.302  0.6415 -0.3148  0.4860
  920MOL0     C24086  10.221   7.048  11.435  0.0423  0.5547 -0.5476
  920MOL0     C24087  10.074   7.063  11.472  0.6176 -0.7277  0.8453
  920MOL0     C24088  10.024   7.204  11.502  0.7130 -0.1813  0.3104
  920MOL0     O24089  10.119   7.269  11.591 -0.3720  0.4405 -1.0053
  920MOL0     C24090  10.215   7.358  11.551  0.1959 -0.8920 -0.1575
  920MOL0     C24091  10.204   7.452  11.449  0.7900 -0.1827  0.5634
  920MOL0     C24092  10.309   7.538  11.405 -0.1310 -0.0222  0.2931
  920MOL0     C24093  10.282   7.641  11.286 -0.6832  0.5637 -0.0221
  920MOL0     C24094  10.428   7.539  11.477 -0.3183 -0.2490 -0.2583
  920MOL0     C24095  10.555   7.627  11.454  0.9433  0.2065  0.4314
  920MOL0     O24096  10.557   7.690  11.337 -0.0903  0.6608  0.4438
  920MOL0     C24097  10.655   7.786  11.301 -0.5792  0.8782  0.3191
  920MOL0     C24098  10.788   7.773  11.330 -0.2824 -0.3719 -0.6273
  920MOL0     C24099  10.878   7.877  11.288  0.4926  0.8151  0.6321
  920MOL0     C24100  10.838   7.981  11.203  0.3522  0.2071  0.0080
  920MOL0     O24101  10.915   8.089  11.178  0.0482 -0.2462  0.8198
  920MOL0     C24102  11.047   8.076  11.125  0.4924  0.2352 -0.2571
  920MOL0     C24103  11.135   8.115  11.233 -0.3995 -0.5481 -0.1590
  920MOL0     C24104  11.269   8.171  11.182  0.1270  0.2656 -0.0855
  920MOL0     C24105  11.383   8.228  11.275  0.2371 -0.5548 -0.2110
  920MOL0     C24106  11.494   8.278  11.194  0.5203 -0.0016 -0.1117
  920MOL0     C24107  11.608   8.312  11.295 -0.6814  0.5135 -0.2043
  920MOL0     C24108  11.582   8.454  11.352 -0.0687  0.0706  0.3329
  920MOL0     C24109  11.688   8.483  11.455 -0.0534 -0.5686 -0.1545
  920MOL0    Cl24110  11.850   8.512  11.387  0.3297  0.1080 -0.2313
  920MOL0     C24111  10.699   7.981  11.167  0.0983 -0.7059 -0.5409
  920MOL0     C24112  10.619   7.884  11.213 -0.0716 -0.3085 -0.6426
  920MOL0     O24113  10.642   7.620  11.539 -0.0369 -0.0015  0.5302
  920MOL0     C24114  10.444   7.449  11.587 -0.0552 -0.2906  1.2885
  920MOL0     C24115  10.338   7.367  11.625  1.0121  0.1441  0.3351
  920MOL0     N24116  10.448   6.979  11.171 -0.6445 -0.0749 -0.3237
  920MOL0     N24117  10.577   6.973  11.157 -0.3247  0.0493 -0.8572
  920MOL0     C24118  10.892   8.130  10.759  0.0245  0.0014  0.0067
  920MOL0     C24119  10.835   8.264  10.760  0.4524 -0.3687 -1.1162
  920MOL0     C24120  10.595   8.642  10.716 -0.3426  0.0922  0.5201
  920MOL0     C24121  10.646   8.773  10.738 -1.0850  0.2799  0.6904
  920MOL0     C24122  10.554   8.881  10.743  0.2241  0.1170 -0.3246
  920MOL0     C24123  10.417   8.856  10.733  0.3556  0.2992  0.1119
  920MOL0     O24124  10.328   8.949  10.771 -0.0635 -0.0824 -0.0768
  920MOL0     C24125  10.370   9.092  10.770  0.0408 -0.2797  0.6197
  920MOL0     C24126  10.407   9.149  10.630  0.7399 -0.4322 -0.2904
  920MOL0     C24127  10.394   9.304  10.615 -1.5935  0.6713 -0.0025
  920MOL0     C24128  10.526   9.374  10.673 -0.5389  0.0357 -0.2237
  920MOL0     C24129  10.642   9.324  10.609 -0.7732  0.3562 -0.3898
  920MOL0     C24130  10.733   9.277  10.550  0.5702 -0.6311 -0.4862
  920MOL0     C24131  10.367   8.726  10.717 -0.2332 -1.0110  0.0237
  920MOL0     C24132  10.452   8.618  10.706 -0.7875 -0.0171 -0.7130
  920MOL0     H24133  10.539   8.195  10.610 -0.4141 -0.0663  1.7320
  920MOL0     H24134  10.652   7.968  10.581  0.9961 -0.0351  1.1989
  920MOL0     H24135  11.009   7.907  10.836 -0.3791  1.5873 -0.3459
  920MOL0     H24136  10.835   7.919  10.897 -4.7569 -2.4623 -2.0922
  920MOL0     H24137  10.792   7.674  10.796  0.3075 -1.4348 -0.5208
  920MOL0     H24138  10.965   7.657  10.784  0.0986 -2.5748  1.3650
  920MOL0     H24139  11.000   7.661  11.027 -0.9272 -1.9808  1.7283
  920MOL0     H24140  10.839   7.735  11.050 -1.0802  0.9480 -0.9586
  920MOL0     H24141  10.744   7.525  10.967  0.1268  2.3186 -1.4293
  920MOL0     H24142  10.914   7.464  10.934 -2.8506 -1.0251 -1.8021
  920MOL0     H24143  10.955   7.445  11.176  0.9974 -2.8350  0.6327
  920MOL0     H24144  10.792   7.520  11.201  0.4773 -0.1217 -0.7967
  920MOL0     H24145  10.700   7.322  11.117 -0.0751 -1.1994 -0.6447
  920MOL0     H24146  10.851   7.260  11.056  0.7638  2.6627 -2.0960
  920MOL0     H24147  10.919   7.251  11.307 -0.9814 -1.5128  4.4482
  920MOL0     H24148  10.755   7.296  11.344  2.5988  2.4904  0.9196
  920MOL0     H24149  10.814   7.036  11.342  4.4754 -0.6416 -2.5769
  920MOL0     H24150  10.830   7.046  11.171 -1.3142 -1.4409 -0.3347
  920MOL0     H24151  10.547   7.203  11.379 -2.5476  0.3915 -0.1326
  920MOL0     H24152  10.264   7.221  11.320  1.0270  0.4431 -3.0786
  920MOL0     H24153  10.205   7.081  11.224 -2.1157  0.7975  2.3221
  920MOL0     H24154  10.274   7.082  11.524 -0.0750  0.7377 -0.5461
  920MOL0     H24155  10.245   6.941  11.438  0.2619  0.6015  2.1520
  920MOL0     H24156  10.055   6.984  11.545 -0.9626 -4.0118 -2.7418
  920MOL0     H24157  10.018   7.026  11.386 -0.0159  1.1242  0.4139
  920MOL0     H24158   9.933   7.192  11.561  0.3397  2.3567  0.3586
  920MOL0     H24159  10.012   7.256  11.406 -0.3635 -2.9288 -1.1776
  920MOL0     H24160  10.103   7.472  11.415  1.4790  0.8591 -0.9736
  920MOL0     H24161  10.178   7.638  11.255 -1.4150 -0.5130  2.2637
  920MOL0     H24162  10.312   7.745  11.305 -0.0826  0.2300  0.9975
  920MOL0     H24163  10.344   7.627  11.197 -0.4742  2.9918 -0.3248
  920MOL0     H24164  10.816   7.690  11.393 -0.6116 -0.2148 -0.2719
  920MOL0     H24165  10.972   7.877  11.342  0.0921  0.9597  1.3395
  920MOL0     H24166  11.066   7.975  11.086  0.1079  0.5334 -1.2469
  920MOL0     H24167  11.059   8.154  11.050  0.9436  1.3115  0.8988
  920MOL0     H24168  11.094   8.197  11.294 -0.9865 -0.2358 -0.9529
  920MOL0     H24169  11.152   8.024  11.291  0.9285 -1.2673 -1.6204
  920MOL0     H24170  11.253   8.247  11.106  0.7317 -0.2767 -0.7684
  920MOL0     H24171  11.314   8.080  11.139 -0.7377 -0.2503  0.0772
  920MOL0     H24172  11.341   8.304  11.342 -1.0945 -0.6383 -0.9141
  920MOL0     H24173  11.417   8.142  11.334  0.9972 -0.6308 -0.7535
  920MOL0     H24174  11.469   8.371  11.142  0.2565  1.1778  2.0169
  920MOL0     H24175  11.531   8.205  11.121  1.7456 -0.0613  0.5389
  920MOL0     H24176  11.624   8.241  11.376  2.1066 -0.7972 -1.7689
  920MOL0     H24177  11.699   8.313  11.235  0.6981 -2.2315  1.6429
  920MOL0     H24178  11.478   8.468  11.382 -0.0612  1.0133 -0.0624
  920MOL0     H24179  11.592   8.525  11.269  1.3965  1.5746  1.7279
  920MOL0     H24180  11.684   8.404  11.531  1.8396 -0.7480 -0.1961
  920MOL0     H24181  11.665   8.577  11.505  0.9782 -0.8517  0.9008
  920MOL0     H24182  10.649   8.060  11.113  2.3362 -0.1980 -2.0067
  920MOL0     H24183  10.517   7.882  11.175 -0.3319 -3.6378 -0.0765
  920MOL0     H24184  10.533   7.437  11.648 -0.3311  0.4192  1.8463
  920MOL0     H24185  10.336   7.295  11.706  2.6829 -0.3199 -0.0003
  920MOL0     H24186  10.987   8.108  10.806  1.7960  4.7378 -0.8682
  920MOL0     H24187  10.892   8.341  10.810 -0.2747 -1.2182  1.1725
  920MOL0     H24188  10.749   8.798  10.762  0.1591 -4.2391  1.1000
  920MOL0     H24189  10.600   8.979  10.753  0.8446  0.2027 -3.0746
  920MOL0     H24190  10.285   9.159  10.786  0.1000  1.2437 -3.8768
  920MOL0     H24191  10.457   9.098  10.835  1.3744  1.2259 -1.2093
  920MOL0     H24192  10.325   9.110  10.569  1.1298 -1.5213 -0.1534
  920MOL0     H24193  10.502   9.107  10.595  0.0929 -1.6191 -0.6691
  920MOL0     H24194  10.313   9.356  10.667  0.2052  1.5112  2.1044
  920MOL0     H24195  10.395   9.330  10.508 -1.8773  1.4092  0.1700
  920MOL0     H24196  10.539   9.353  10.779 -2.9897  2.4687  0.6826
  920MOL0     H24197  10.529   9.483  10.670  2.8791  0.0635  0.7804
  920MOL0     H24198  10.824   9.235  10.514  1.9791  3.1742 -1.8041
  920MOL0     H24199  10.259   8.719  10.711 -0.4302 -0.3880  2.1263
  920MOL0     H24200  10.404   8.521  10.707 -0.9714  0.0739 -0.3039
  921MOL0     O24201   3.398   9.484   1.152  0.2037 -1.3110  1.1251
  921MOL0     C24202   3.514   9.462   1.123 -0.0181  0.2799 -0.8615
  921MOL0     O24203   3.617   9.468   1.216  0.1585 -0.6577 -0.0742
  921MOL0     C24204   3.601   9.510   1.349 -0.1784  1.5688  0.2095
  921MOL0     C24205   3.518   9.442   1.430  0.6110 -0.1690  0.0415
  921MOL0     C24206   3.474   9.503   1.552 -1.0704 -0.5218 -0.0219
  921MOL0     C24207   3.522   9.630   1.593  0.2769  0.9386  0.4162
  921MOL0     O24208   3.504   9.690   1.715  0.1707 -0.2480  0.1564
  921MOL0     C24209   3.477   9.591   1.820  0.2293 -1.1274 -0.9430
  921MOL0     C24210   3.467   9.678   1.948  0.1616  0.0724 -0.5530
  921MOL0     C24211   3.353   9.782   1.950  0.0000  0.1785  0.0795
  921MOL0     C24212   3.205   9.743   1.969 -0.2758  0.1728 -0.5158
  921MOL0     C24213   3.131   9.876   1.979  0.1542 -0.2004  0.1281
  921MOL0     C24214   2.986   9.828   1.995 -0.5781 -0.1395  0.2940
  921MOL0     C24215   2.892   9.949   1.966 -0.3094  0.5123 -0.3113
  921MOL0     C24216   2.748   9.895   1.969 -0.0405 -0.3699  0.4156
  921MOL0     N24217   2.641   9.984   1.926 -0.6881 -0.3742  0.1085
  921MOL0     C24218   2.634  10.060   1.806  0.0032  0.1824  0.0133
  921MOL0     C24219   2.517  10.122   1.823 -0.2653 -0.1122 -0.1238
  921MOL0     C24220   2.465  10.218   1.727 -0.7589 -0.5479 -0.0377
  921MOL0     C24221   2.306  10.202   1.715 -0.2171  0.2312  0.3457
  921MOL0     C24222   2.229  10.290   1.820 -0.1673 -0.6096  0.0002
  921MOL0     C24223   2.142  10.202   1.916  0.3986 -0.1410 -0.8191
  921MOL0     O24224   2.067  10.292   2.001  0.4192  0.1982  0.0838
  921MOL0     C24225   2.116  10.343   2.118 -0.7783 -0.7151  0.8045
  921MOL0     C24226   2.045  10.451   2.182 -0.7779 -0.5734 -0.0129
  921MOL0     C24227   2.096  10.506   2.304 -0.4612 -0.4554 -0.7646
  921MOL0     C24228   2.001  10.605   2.376  0.6370 -0.1162  0.2863
  921MOL0     C24229   2.220  10.465   2.355 -0.6151  0.0976 -0.3010
  921MOL0     C24230   2.286  10.521   2.473 -0.7552  0.3123 -0.0554
  921MOL0     O24231   2.380  10.450   2.535 -0.3385 -0.3429  0.3518
  921MOL0     C24232   2.469  10.510   2.608 -0.8482 -0.1135 -0.7773
  921MOL0     C24233   2.565  10.576   2.536  0.6112 -1.9818  0.2242
  921MOL0     C24234   2.672  10.644   2.592 -0.7939  0.4926  0.2738
  921MOL0     C24235   2.693  10.633   2.731  0.0865 -0.2519 -0.3101
  921MOL0     O24236   2.794  10.700   2.779 -0.1450 -0.5404 -0.7308
  921MOL0     C24237   2.814  10.700   2.927  0.0071  0.2572 -0.0923
  921MOL0     C24238   2.930  10.785   2.967 -0.9906  1.3758  0.5455
  921MOL0     C24239   3.062  10.734   2.887  1.0212 -0.4345  0.7266
  921MOL0     C24240   3.172  10.784   2.972 -1.0982 -0.1664  1.1822
  921MOL0     C24241   3.304  10.737   2.908 -0.6674 -0.1383 -0.0786
  921MOL0     C24242   3.408  10.755   3.017  0.5083  0.5514 -0.3610
  921MOL0     C24243   3.538  10.689   2.971 -0.9238 -0.4495 -0.1054
  921MOL0     C24244   3.664  10.697   3.064  1.1965  0.0940 -0.3709
  921MOL0    Cl24245   3.693  10.868   3.118  0.3730 -0.2870 -0.4558
  921MOL0     C24246   2.590  10.567   2.810  0.3300  0.1342  0.0861
  921MOL0     C24247   2.480  10.505   2.747 -0.0561  0.3966  0.3054
  921MOL0     O24248   2.265  10.635   2.502 -0.0168  0.2577  0.8538
  921MOL0     C24249   2.298  10.367   2.284 -0.7010 -0.1818  0.3774
  921MOL0     C24250   2.245  10.307   2.171  1.0427 -0.0396 -0.3795
  921MOL0     N24251   2.464  10.093   1.951 -0.8365  0.2405 -0.1662
  921MOL0     N24252   2.539  10.001   2.010  0.2577 -0.3199 -0.4905
  921MOL0     C24253   3.616   9.683   1.517  0.8863 -0.5446  0.1519
  921MOL0     C24254   3.656   9.626   1.397  0.2330 -0.1625  0.5085
  921MOL0     C24255   3.549   9.415   0.992 -0.0404 -0.1386  0.3161
  921MOL0     C24256   3.679   9.367   0.965  0.2243  0.3489  0.4221
  921MOL0     C24257   3.724   9.359   0.832 -0.6219  0.5394  0.3341
  921MOL0     C24258   3.632   9.369   0.721 -0.7640 -0.1255  0.0274
  921MOL0     O24259   3.670   9.365   0.586 -0.2659  0.3640  0.1771
  921MOL0     C24260   3.799   9.312   0.567  0.0492 -0.8985 -0.0759
  921MOL0     C24261   3.822   9.252   0.436  0.1616 -0.0210 -0.0259
  921MOL0     C24262   3.716   9.152   0.392  0.5518  0.1056 -0.3881
  921MOL0     C24263   3.768   9.033   0.309  0.0699  0.0474 -0.0165
  921MOL0     C24264   3.667   8.956   0.245 -0.3882 -0.6983 -0.4645
  921MOL0     C24265   3.586   8.890   0.189 -0.1997 -0.0578  0.5553
  921MOL0     C24266   3.500   9.402   0.755 -0.9677 -0.9584 -0.7834
  921MOL0     C24267   3.461   9.427   0.887  0.2909  1.0255 -0.8140
  921MOL0     H24268   3.482   9.341   1.413 -3.1376  0.8160  1.1837
  921MOL0     H24269   3.402   9.452   1.615 -1.8092  2.2537  1.5948
  921MOL0     H24270   3.379   9.544   1.808 -0.4874  0.3446 -0.9799
  921MOL0     H24271   3.549   9.515   1.851 -0.3495 -0.9617  0.9879
  921MOL0     H24272   3.447   9.607   2.029 -0.0514  1.0712  0.2914
  921MOL0     H24273   3.562   9.729   1.964  1.5213 -1.7855 -2.2197
  921MOL0     H24274   3.381   9.861   2.021 -1.1970  1.0986 -0.4476
  921MOL0     H24275   3.366   9.827   1.852 -0.9766  1.9262  0.6958
  921MOL0     H24276   3.175   9.681   1.884 -1.3533  0.6402 -0.4893
  921MOL0     H24277   3.187   9.682   2.059 -2.2346  0.2749 -0.7906
  921MOL0     H24278   3.176   9.934   2.060  4.7062 -1.5124 -1.1901
  921MOL0     H24279   3.145   9.933   1.887 -1.0723  1.8703  1.1517
  921MOL0     H24280   2.971   9.749   1.921  1.2271 -0.4672  0.2246
  921MOL0     H24281   2.969   9.781   2.092  0.2547  0.3375  0.6798
  921MOL0     H24282   2.908  10.022   2.046 -2.1060  2.1995 -1.4074
  921MOL0     H24283   2.902   9.991   1.866 -1.0446 -0.0259 -0.6177
  921MOL0     H24284   2.741   9.862   2.073  1.7410 -2.2699  0.0152
  921MOL0     H24285   2.738   9.809   1.902  2.5425 -0.2723 -0.2017
  921MOL0     H24286   2.709  10.063   1.728  0.5359 -1.7992  0.3976
  921MOL0     H24287   2.501  10.311   1.771 -0.3016 -1.7697  2.3336
  921MOL0     H24288   2.509  10.201   1.628 -1.6194  1.9059 -0.9188
  921MOL0     H24289   2.282  10.097   1.737 -0.4451  0.4538  1.1779
  921MOL0     H24290   2.276  10.222   1.612 -1.7705 -2.2332  0.2328
  921MOL0     H24291   2.165  10.358   1.762 -2.1394 -1.0137  1.5689
  921MOL0     H24292   2.296  10.336   1.893  0.6140  1.5485 -1.9638
  921MOL0     H24293   2.195  10.125   1.972 -1.6967  0.0109  1.5482
  921MOL0     H24294   2.068  10.155   1.852 -0.4905  2.0337 -1.4836
  921MOL0     H24295   1.949  10.486   2.147  0.5116 -0.1195 -3.6229
  921MOL0     H24296   1.928  10.644   2.305  2.0017  3.0472  0.4625
  921MOL0     H24297   1.939  10.557   2.453 -1.2844 -0.6313 -1.4967
  921MOL0     H24298   2.050  10.696   2.412  0.0306 -0.0422  0.9345
  921MOL0     H24299   2.558  10.582   2.428  1.0378  2.5454  0.2505
  921MOL0     H24300   2.752  10.690   2.536 -2.1374  1.7919 -0.6407
  921MOL0     H24301   2.718  10.729   2.973 -0.6796 -1.6584 -0.2263
  921MOL0     H24302   2.836  10.605   2.977 -1.1969  0.3398  0.6382
  921MOL0     H24303   2.906  10.889   2.942 -0.1764  0.4806 -5.7569
  921MOL0     H24304   2.952  10.760   3.071  3.0877 -0.2035 -0.5182
  921MOL0     H24305   3.075  10.783   2.789 -2.1623  1.4654  1.0848
  921MOL0     H24306   3.070  10.627   2.870 -1.7705 -0.5501 -0.4540
  921MOL0     H24307   3.175  10.893   2.985 -1.2602 -0.2366  1.8748
  921MOL0     H24308   3.164  10.746   3.075  0.5740  1.3183  1.9268
  921MOL0     H24309   3.332  10.776   2.810  1.7858 -4.7546 -1.5150
  921MOL0     H24310   3.308  10.631   2.879  2.5491 -0.3777  0.9230
  921MOL0     H24311   3.422  10.860   3.045  1.9304 -0.0657  1.4629
  921MOL0     H24312   3.367  10.712   3.109 -0.5393  0.5412 -0.8240
  921MOL0     H24313   3.578  10.733   2.879 -0.8552 -3.1146 -1.4455
  921MOL0     H24314   3.526  10.583   2.949  0.9477 -0.5726 -0.7228
  921MOL0     H24315   3.746  10.652   3.008  0.4069 -0.7505 -0.8732
  921MOL0     H24316   3.647  10.641   3.156 -1.4939 -1.3087 -1.5885
  921MOL0     H24317   2.602  10.575   2.918 -0.1478 -0.1873  0.1696
  921MOL0     H24318   2.408  10.459   2.814 -0.8624  0.4923 -0.4732
  921MOL0     H24319   2.393  10.333   2.324  0.6900  1.1442 -1.6226
  921MOL0     H24320   2.319  10.241   2.128  2.1347  1.2313 -0.5204
  921MOL0     H24321   3.654   9.780   1.549  0.7448 -0.4320 -0.0212
  921MOL0     H24322   3.737   9.674   1.343  1.0153  0.5332  2.2201
  921MOL0     H24323   3.753   9.358   1.044  0.3244  1.3836  0.4634
  921MOL0     H24324   3.827   9.327   0.827 -0.3688  1.3624  0.2370
  921MOL0     H24325   3.875   9.388   0.588  0.7925 -1.7385  0.3682
  921MOL0     H24326   3.821   9.241   0.648  0.4209  1.9955  2.5619
  921MOL0     H24327   3.918   9.203   0.418  0.2693 -0.7331  2.1693
  921MOL0     H24328   3.813   9.334   0.364 -1.5455 -1.1277 -1.1452
  921MOL0     H24329   3.635   9.202   0.338 -1.2072 -1.6248  0.5364
  921MOL0     H24330   3.671   9.112   0.483 -0.6680  1.4936 -0.3402
  921MOL0     H24331   3.832   8.975   0.376  0.8969  1.9441  0.9200
  921MOL0     H24332   3.834   9.076   0.233 -0.2817  2.2508  0.8454
  921MOL0     H24333   3.513   8.826   0.144 -0.6371 -0.1500  1.3856
  921MOL0     H24334   3.429   9.384   0.674  0.0151 -1.1774 -1.6206
  921MOL0     H24335   3.354   9.445   0.892 -0.2801 -1.4523 -2.1675
  922MOL0     O24336   9.278   3.172   4.044  0.9171  0.0042  0.0509
  922MOL0     C24337   9.190   3.100   4.097  0.1015 -0.7142  0.5707
  922MOL0     O24338   9.208   2.986   4.159 -0.6753  0.1535 -0.5298
  922MOL0     C24339   9.327   2.915   4.170  0.6266  0.2684  0.7864
  922MOL0     C24340   9.450   2.977   4.172 -0.8626  0.3846  0.3731
  922MOL0     C24341   9.567   2.900   4.199 -1.2895 -0.2359  0.4868
  922MOL0     C24342   9.563   2.761   4.207  0.1518 -1.3909 -0.6993
  922MOL0     O24343   9.674   2.679   4.221 -0.2995  0.8720  0.2628
  922MOL0     C24344   9.674   2.544   4.273 -0.7451  0.4462 -0.5241
  922MOL0     C24345   9.815   2.506   4.313 -0.8254  0.4281  0.3194
  922MOL0     C24346   9.812   2.400   4.412 -0.0417  0.2851  0.8153
  922MOL0     C24347   9.955   2.372   4.460  0.5643 -0.0047  0.4110
  922MOL0     C24348   9.955   2.242   4.544 -1.5953 -0.5181 -0.3406
  922MOL0     C24349   9.954   2.107   4.465  0.3089  0.0900  0.0886
  922MOL0     C24350   9.971   1.991   4.566  0.9617 -0.1486  0.4269
  922MOL0     C24351   9.983   1.854   4.513  0.3606 -0.7380  0.8549
  922MOL0     N24352   9.877   1.797   4.434 -0.8194 -0.2496  0.6296
  922MOL0     C24353   9.898   1.760   4.302  0.6556 -0.4135 -0.1614
  922MOL0     C24354   9.795   1.675   4.276  0.1993 -0.6733  0.7743
  922MOL0     C24355   9.762   1.604   4.143 -0.5476 -0.8321  0.0274
  922MOL0     C24356   9.658   1.683   4.064 -0.2383  0.2181 -0.3671
  922MOL0     C24357   9.730   1.789   3.987  0.0454  0.5120  0.2854
  922MOL0     C24358   9.643   1.835   3.874 -0.2927  0.1528  1.3138
  922MOL0     O24359   9.646   1.736   3.773  0.2936  0.0191  0.2933
  922MOL0     C24360   9.571   1.770   3.656 -0.5445 -0.0542 -0.3863
  922MOL0     C24361   9.486   1.886   3.651  0.0035 -0.3375  0.3341
  922MOL0     C24362   9.408   1.904   3.534  0.2505  0.5757 -0.6166
  922MOL0     C24363   9.317   2.021   3.522  0.3168 -0.2971 -0.4490
  922MOL0     C24364   9.420   1.811   3.428  0.0084  0.1249 -0.1556
  922MOL0     C24365   9.349   1.815   3.297 -0.6917 -0.0633 -0.4204
  922MOL0     O24366   9.410   1.772   3.175  0.2320 -0.1155 -1.1998
  922MOL0     C24367   9.326   1.711   3.083 -0.7274 -0.6383 -0.2082
  922MOL0     C24368   9.236   1.777   3.001 -1.1057 -0.2377 -0.4297
  922MOL0     C24369   9.164   1.709   2.908  0.5208 -0.5930  0.7620
  922MOL0     C24370   9.180   1.572   2.887 -0.4245 -0.4141 -0.2185
  922MOL0     O24371   9.119   1.503   2.788 -0.5965  0.2281 -0.1758
  922MOL0     C24372   9.011   1.559   2.706  0.2693  0.3861  0.2701
  922MOL0     C24373   8.884   1.556   2.783 -0.5140 -0.6582 -0.2318
  922MOL0     C24374   8.774   1.629   2.716  1.2656 -0.3271 -0.3315
  922MOL0     C24375   8.644   1.612   2.797 -0.4712  0.6377 -0.7597
  922MOL0     C24376   8.553   1.717   2.748 -0.8272 -0.0866  0.8792
  922MOL0     C24377   8.411   1.712   2.811  0.0088  0.9577 -0.7929
  922MOL0     C24378   8.327   1.848   2.811  0.3358  1.6748  0.5227
  922MOL0     C24379   8.319   1.910   2.670 -0.1121 -0.6848 -0.6657
  922MOL0    Cl24380   8.195   1.826   2.585 -0.1234 -0.0446 -0.1370
  922MOL0     C24381   9.262   1.507   2.984 -0.2904  0.2678  0.0390
  922MOL0     C24382   9.337   1.568   3.072  0.1208 -0.6536  0.9125
  922MOL0     O24383   9.233   1.845   3.303  0.7107  0.4943  0.4597
  922MOL0     C24384   9.490   1.692   3.446  0.4153 -0.3250 -0.8212
  922MOL0     C24385   9.567   1.673   3.563  0.3080  0.2475 -0.0531
  922MOL0     N24386   9.721   1.662   4.390  0.2826 -0.0428  0.4282
  922MOL0     N24387   9.770   1.737   4.482  0.4166  0.0885 -0.3373
  922MOL0     C24388   9.441   2.703   4.200  0.4871 -0.3911  0.5236
  922MOL0     C24389   9.317   2.773   4.180 -0.6003  0.7788  0.1767
  922MOL0     C24390   9.051   3.152   4.109 -0.3532  0.8338 -0.8217
  922MOL0     C24391   8.952   3.076   4.175  0.0059 -0.5226  0.5901
  922MOL0     C24392   8.829   3.135   4.195  0.5745 -0.8354  0.3313
  922MOL0     C24393   8.787   3.255   4.134 -1.4815 -0.6760  0.2170
  922MOL0     O24394   8.650   3.278   4.143  0.2570  0.3458  0.2088
  922MOL0     C24395   8.593   3.390   4.081 -0.2190  0.6475 -1.0428
  922MOL0     C24396   8.568   3.355   3.932 -0.1967  0.1826 -0.8576
  922MOL0     C24397   8.438   3.274   3.892 -0.2632 -0.1710  0.8984
  922MOL0     C24398   8.415   3.141   3.959 -0.2627  0.7229 -0.6290
  922MOL0     C24399   8.532   3.050   3.939  0.8253  0.7411  0.1045
  922MOL0     C24400   8.641   2.990   3.932 -0.2489  0.5585  0.3993
  922MOL0     C24401   8.890   3.335   4.077 -1.2047  0.2522 -0.1680
  922MOL0     C24402   9.019   3.285   4.062 -0.0916  0.9537  0.2569
  922MOL0     H24403   9.454   3.084   4.150 -0.2669  0.3428  0.2657
  922MOL0     H24404   9.662   2.953   4.199 -1.0993 -0.5511  1.6458
  922MOL0     H24405   9.604   2.524   4.355  0.6610 -0.0061  0.6060
  922MOL0     H24406   9.652   2.479   4.188  2.0502 -1.5399  0.1314
  922MOL0     H24407   9.865   2.458   4.228  0.9764  0.0928  1.5043
  922MOL0     H24408   9.872   2.590   4.355  1.7403 -0.7052 -0.6534
  922MOL0     H24409   9.748   2.439   4.491 -1.0986 -0.7371  0.5014
  922MOL0     H24410   9.769   2.311   4.365  2.0546 -0.1815 -0.3593
  922MOL0     H24411  10.012   2.356   4.368 -1.6508 -2.7247 -0.6140
  922MOL0     H24412   9.982   2.464   4.512  1.0506  0.8542 -1.2750
  922MOL0     H24413  10.044   2.254   4.606 -2.4688  4.4191  0.3177
  922MOL0     H24414   9.874   2.257   4.615 -0.9204  3.1802 -0.1615
  922MOL0     H24415   9.855   2.098   4.418  0.7682 -0.5134 -0.7692
  922MOL0     H24416  10.037   2.090   4.397  3.3585  0.5881  3.4035
  922MOL0     H24417  10.067   2.008   4.614  0.1314 -0.2855  2.2445
  922MOL0     H24418   9.895   2.005   4.644  0.8364  0.7290  0.1546
  922MOL0     H24419  10.006   1.789   4.599 -5.3078  0.6920  3.9734
  922MOL0     H24420  10.072   1.868   4.452 -0.6785  1.9676 -0.1836
  922MOL0     H24421   9.976   1.787   4.232  1.1576 -3.9512 -1.1565
  922MOL0     H24422   9.856   1.602   4.088  2.6083  1.8137  4.5903
  922MOL0     H24423   9.714   1.508   4.166 -1.7836 -0.2737 -0.0912
  922MOL0     H24424   9.585   1.724   4.134 -0.5546 -0.6708 -0.1586
  922MOL0     H24425   9.603   1.618   3.995 -2.6775  0.4497  1.2427
  922MOL0     H24426   9.819   1.744   3.944 -0.8291 -0.0055 -1.0366
  922MOL0     H24427   9.755   1.870   4.056 -1.5266  0.5369  0.8761
  922MOL0     H24428   9.685   1.922   3.823 -2.8039 -0.8462 -3.0183
  922MOL0     H24429   9.541   1.844   3.911 -1.0934 -0.0101 -0.6953
  922MOL0     H24430   9.492   1.967   3.723 -0.0259  0.9991 -1.1274
  922MOL0     H24431   9.221   1.975   3.548  1.3146 -0.8496  2.6917
  922MOL0     H24432   9.326   2.107   3.589 -2.6716 -1.9952  2.3980
  922MOL0     H24433   9.294   2.053   3.420 -0.7125 -2.2521 -0.8766
  922MOL0     H24434   9.234   1.884   3.017  1.6740 -0.2106  0.1632
  922MOL0     H24435   9.108   1.771   2.839  0.1814 -3.6897 -2.0203
  922MOL0     H24436   9.031   1.660   2.669  1.2173 -0.0323 -0.4052
  922MOL0     H24437   9.001   1.496   2.616  1.7185 -0.5243  0.7038
  922MOL0     H24438   8.858   1.453   2.811 -0.3351 -1.5376 -3.0378
  922MOL0     H24439   8.911   1.613   2.872  1.2515  1.3138 -1.9266
  922MOL0     H24440   8.759   1.582   2.619 -0.5656  1.9344 -1.2179
  922MOL0     H24441   8.790   1.736   2.699 -2.7461  0.7471  1.5359
  922MOL0     H24442   8.603   1.515   2.769  0.5117  0.1498 -0.5350
  922MOL0     H24443   8.678   1.617   2.901  1.6336 -0.3296 -1.3569
  922MOL0     H24444   8.544   1.716   2.639 -1.5952 -2.0986  0.9357
  922MOL0     H24445   8.604   1.809   2.779 -0.1022 -1.2419  3.3890
  922MOL0     H24446   8.353   1.637   2.757 -0.2833  2.2643 -2.3537
  922MOL0     H24447   8.419   1.680   2.916 -0.2268  1.8000 -0.5103
  922MOL0     H24448   8.389   1.908   2.878  1.1048  0.4835  0.9102
  922MOL0     H24449   8.234   1.854   2.869  0.0239 -1.4144  0.4756
  922MOL0     H24450   8.417   1.904   2.623  0.5122 -0.7191  0.5888
  922MOL0     H24451   8.288   2.014   2.684 -4.2223 -2.0876  3.1583
  922MOL0     H24452   9.272   1.401   2.965  1.7765  0.7035 -1.6226
  922MOL0     H24453   9.405   1.510   3.135  0.0490 -0.5090  1.1235
  922MOL0     H24454   9.492   1.625   3.361 -0.0048 -1.0806 -0.2517
  922MOL0     H24455   9.627   1.583   3.578 -3.7949 -2.4983  1.9829
  922MOL0     H24456   9.431   2.595   4.201 -0.0253 -0.3757 -0.8264
  922MOL0     H24457   9.230   2.712   4.158  0.4323 -1.7858  2.6177
  922MOL0     H24458   8.959   2.971   4.201 -1.4323 -1.1011 -1.1852
  922MOL0     H24459   8.756   3.079   4.252  1.0366 -1.7136  0.0653
  922MOL0     H24460   8.500   3.414   4.132  0.7126 -0.2505  1.2080
  922MOL0     H24461   8.649   3.483   4.096 -1.0798  0.9376  0.4985
  922MOL0     H24462   8.655   3.305   3.888 -0.7053  1.2145 -3.2044
  922MOL0     H24463   8.552   3.450   3.878 -2.7322 -0.0500 -0.6506
  922MOL0     H24464   8.437   3.270   3.783  0.0398  0.5112  0.8621
  922MOL0     H24465   8.349   3.332   3.920  0.3031  0.3276  1.7165
  922MOL0     H24466   8.335   3.094   3.902  0.8271 -2.7535  0.4236
  922MOL0     H24467   8.383   3.151   4.063  2.2880  2.7901  0.0589
  922MOL0     H24468   8.746   2.970   3.926 -0.4701 -0.2210 -1.3773
  922MOL0     H24469   8.846   3.430   4.048 -1.4181  0.4352  0.7491
  922MOL0     H24470   9.086   3.348   4.006  2.9538 -1.8228  0.4561
  923MOL0     O24471  10.768   7.779  10.131 -0.6823 -0.8980  0.7698
  923MOL0     C24472  10.748   7.805  10.012 -0.5233 -0.1700  0.4841
  923MOL0     O24473  10.629   7.776   9.943 -0.4472  0.1934 -0.4804
  923MOL0     C24474  10.537   7.714  10.020  0.3360  0.4410  0.0624
  923MOL0     C24475  10.446   7.792  10.092 -0.0101  0.1156 -0.7154
  923MOL0     C24476  10.377   7.737  10.200 -0.0805  0.7172  0.2415
  923MOL0     C24477  10.358   7.603  10.200  0.3272 -0.3816  0.7948
  923MOL0     O24478  10.281   7.550  10.299 -0.3399 -0.2848 -0.6208
  923MOL0     C24479  10.324   7.429  10.355 -0.0138  0.2283  0.5538
  923MOL0     C24480  10.228   7.372  10.458  0.8626  0.1422  0.0646
  923MOL0     C24481  10.200   7.466  10.575 -0.3008 -0.1946  0.7127
  923MOL0     C24482  10.159   7.393  10.703  0.2202  0.7849  0.7392
  923MOL0     C24483  10.251   7.412  10.818  0.4108 -0.3633 -0.0134
  923MOL0     C24484  10.223   7.338  10.941 -0.3779 -0.2042 -0.1196
  923MOL0     C24485  10.075   7.307  10.969  0.4114  0.2684  0.3723
  923MOL0     C24486  10.004   7.434  11.003  0.1473 -1.1175 -0.0654
  923MOL0     N24487   9.883   7.419  11.069 -0.0177 -0.5937 -1.1914
  923MOL0     C24488   9.766   7.473  11.027  0.1406 -1.3250 -0.0949
  923MOL0     C24489   9.681   7.447  11.131  0.1837  0.7478 -0.8314
  923MOL0     C24490   9.543   7.506  11.138 -0.8148 -0.4261 -0.1024
  923MOL0     C24491   9.471   7.435  11.259 -0.4769  0.1162  1.2344
  923MOL0     C24492   9.329   7.479  11.262 -0.0298  0.6669  0.0479
  923MOL0     C24493   9.250   7.429  11.387 -0.6340 -0.3191  0.9707
  923MOL0     O24494   9.109   7.424  11.373 -0.0995 -0.0547 -0.7110
  923MOL0     C24495   9.044   7.334  11.296  0.1135  0.6933  0.0400
  923MOL0     C24496   9.102   7.236  11.216  0.5591  0.4900  0.2024
  923MOL0     C24497   9.030   7.144  11.138  0.1425 -0.4886  0.0184
  923MOL0     C24498   9.110   7.035  11.066  0.4145  0.0499 -0.2552
  923MOL0     C24499   8.883   7.147  11.144 -0.4419  0.0802 -0.6497
  923MOL0     C24500   8.800   7.052  11.067 -0.5473  1.0557  0.3449
  923MOL0     O24501   8.852   6.970  10.967 -0.4844 -0.3679 -0.1879
  923MOL0     C24502   8.758   6.914  10.889  0.7011  0.0667  0.1060
  923MOL0     C24503   8.723   6.976  10.778  0.1254  0.6403 -0.1862
  923MOL0     C24504   8.619   6.918  10.703 -0.1489 -0.6404  0.0858
  923MOL0     C24505   8.555   6.805  10.736 -0.9466 -0.4372 -0.3963
  923MOL0     O24506   8.452   6.752  10.665  0.0534  0.2250 -0.5164
  923MOL0     C24507   8.324   6.757  10.727 -0.8007  0.1284  0.2856
  923MOL0     C24508   8.234   6.776  10.608 -0.2184 -0.1362  0.9389
  923MOL0     C24509   8.086   6.743  10.644  0.2592 -0.6051  0.0229
  923MOL0     C24510   8.064   6.590  10.655  0.3966 -0.6036 -0.4103
  923MOL0     C24511   7.935   6.573  10.739  0.8031 -0.5153  0.2685
  923MOL0     C24512   7.907   6.434  10.787 -0.7193  0.4264 -0.3931
  923MOL0     C24513   7.833   6.350  10.686  0.0940 -0.0176 -0.5316
  923MOL0     C24514   7.761   6.236  10.752 -0.4123  0.6170  0.5183
  923MOL0    Cl24515   7.873   6.113  10.832 -0.1311  0.0671 -0.3484
  923MOL0     C24516   8.596   6.729  10.842  0.5891 -0.4983 -0.2636
  923MOL0     C24517   8.703   6.789  10.924 -0.5100  0.9625  0.7324
  923MOL0     O24518   8.683   7.075  11.081  0.5730 -0.5043 -0.4174
  923MOL0     C24519   8.828   7.252  11.225 -0.8053 -0.2741  0.5961
  923MOL0     C24520   8.907   7.342  11.304  1.0938 -0.5790  0.4093
  923MOL0     N24521   9.742   7.376  11.230  0.2712  0.3240  0.0633
  923MOL0     N24522   9.867   7.370  11.195 -0.2999 -0.0075  0.4821
  923MOL0     C24523  10.437   7.518  10.109 -0.2476 -0.0269 -0.9876
  923MOL0     C24524  10.522   7.576  10.020 -0.6207 -0.7684 -0.7128
  923MOL0     C24525  10.851   7.872   9.929 -0.3481 -0.4369  0.6078
  923MOL0     C24526  10.987   7.874   9.974 -0.5591  0.3965  0.5209
  923MOL0     C24527  11.090   7.951   9.905  0.0563  0.4986  0.0550
  923MOL0     C24528  11.050   8.011   9.782 -0.3928 -0.1439  0.3975
  923MOL0     O24529  11.132   8.068   9.687 -0.3485  0.5619  0.0197
  923MOL0     C24530  11.266   8.031   9.696  0.0470  0.6281 -0.3302
  923MOL0     C24531  11.338   8.059   9.568 -0.4384  0.3732 -0.8051
  923MOL0     C24532  11.344   8.200   9.541 -0.6083  0.0972  0.3346
  923MOL0     C24533  11.420   8.231   9.413  0.5151  0.0640  0.5270
  923MOL0     C24534  11.572   8.226   9.427 -0.7247 -0.2186 -0.1257
  923MOL0     C24535  11.692   8.196   9.432  0.0431  0.0081  0.0126
  923MOL0     C24536  10.923   7.993   9.733  0.6327 -1.5152 -1.0223
  923MOL0     C24537  10.819   7.929   9.801 -0.9306  0.2084 -0.5413
  923MOL0     H24538  10.444   7.900  10.079 -0.9635  0.4715  1.8973
  923MOL0     H24539  10.337   7.802  10.276  4.9446  1.4912  2.6795
  923MOL0     H24540  10.341   7.344  10.288  3.9872 -0.9609  2.7434
  923MOL0     H24541  10.422   7.445  10.402  0.2556  0.5466 -0.1043
  923MOL0     H24542  10.141   7.341  10.400  1.9492  1.8050 -2.6275
  923MOL0     H24543  10.269   7.280  10.501  6.1046  1.9483 -0.4168
  923MOL0     H24544  10.286   7.525  10.609  0.1061 -0.9767  1.0643
  923MOL0     H24545  10.124   7.535  10.539 -2.5499 -1.3934  2.8901
  923MOL0     H24546  10.056   7.413  10.734  0.4378 -1.1701  2.9943
  923MOL0     H24547  10.172   7.286  10.686  0.7749  0.7850  1.1455
  923MOL0     H24548  10.357   7.400  10.794  0.3677 -0.9838  0.0771
  923MOL0     H24549  10.232   7.517  10.839 -0.5054 -0.1519 -1.7230
  923MOL0     H24550  10.265   7.237  10.931 -3.2372 -1.3485 -1.9186
  923MOL0     H24551  10.278   7.391  11.019  1.3216 -1.4171 -0.4350
  923MOL0     H24552  10.022   7.255  10.888 -1.3491 -0.4396  1.9217
  923MOL0     H24553  10.080   7.231  11.047  3.0674 -0.0837 -0.0491
  923MOL0     H24554   9.978   7.489  10.913 -2.7202 -0.8616  0.8263
  923MOL0     H24555  10.077   7.483  11.069 -0.8343  0.4835 -0.1246
  923MOL0     H24556   9.738   7.537  10.944  0.2151 -1.2518 -0.0644
  923MOL0     H24557   9.548   7.611  11.168  0.6329 -0.9559  1.6728
  923MOL0     H24558   9.491   7.494  11.043  0.0730 -1.1244 -0.5086
  923MOL0     H24559   9.524   7.473  11.348  1.6193  0.9166 -0.2771
  923MOL0     H24560   9.484   7.327  11.249 -0.2965  0.2075  0.4692
  923MOL0     H24561   9.273   7.443  11.175  1.2350  0.4567 -0.7077
  923MOL0     H24562   9.319   7.587  11.276 -1.4879  0.2749  2.4253
  923MOL0     H24563   9.269   7.491  11.475  1.1667 -3.4430  2.9851
  923MOL0     H24564   9.292   7.331  11.410  1.0957 -0.5238 -2.4544
  923MOL0     H24565   9.208   7.223  11.233  0.0667 -3.4031  1.1237
  923MOL0     H24566   9.119   7.050  10.958  2.8830  0.1111 -0.1019
  923MOL0     H24567   9.214   7.027  11.099 -0.2917 -0.4806  1.9729
  923MOL0     H24568   9.069   6.938  11.094  1.9645 -0.3316  0.7921
  923MOL0     H24569   8.767   7.070  10.746 -1.8564  1.6103 -0.2135
  923MOL0     H24570   8.580   6.987  10.629  4.0822 -1.2329 -3.0522
  923MOL0     H24571   8.306   6.672  10.793 -0.9706  1.6993  2.3415
  923MOL0     H24572   8.307   6.844  10.791  2.7007  1.3984 -0.2698
  923MOL0     H24573   8.240   6.880  10.575 -1.4466  0.7468  3.2848
  923MOL0     H24574   8.274   6.709  10.531  0.4036  1.4198 -0.1472
  923MOL0     H24575   8.020   6.793  10.573  0.9035 -1.0959 -0.9325
  923MOL0     H24576   8.070   6.788  10.743 -1.9433 -0.6320 -0.2663
  923MOL0     H24577   8.064   6.538  10.559 -0.3157 -0.6850 -0.3760
  923MOL0     H24578   8.152   6.561  10.714  0.9597  0.4249 -0.7356
  923MOL0     H24579   7.862   6.579  10.658  2.6467 -1.5202 -1.5467
  923MOL0     H24580   7.916   6.656  10.809  2.6397  2.3533 -2.3643
  923MOL0     H24581   7.997   6.382  10.820  1.0825  2.4875 -1.8306
  923MOL0     H24582   7.841   6.458  10.871  0.3485 -0.3681  0.7165
  923MOL0     H24583   7.908   6.308  10.619 -1.1843 -0.9773 -1.4264
  923MOL0     H24584   7.764   6.406  10.622 -0.4329 -1.1135 -0.9548
  923MOL0     H24585   7.704   6.188  10.672 -3.9846  0.8330  2.7246
  923MOL0     H24586   7.687   6.283  10.818  0.0849 -0.7737  2.1597
  923MOL0     H24587   8.555   6.637  10.883  1.8630 -0.9937 -0.0538
  923MOL0     H24588   8.733   6.731  11.011  0.2292 -1.5635 -1.0917
  923MOL0     H24589   8.724   7.281  11.220  0.1228  3.8708  1.1164
  923MOL0     H24590   8.868   7.420  11.369  0.7504 -0.7657  0.4310
  923MOL0     H24591  10.432   7.409  10.108  2.4023 -0.2138 -1.9619
  923MOL0     H24592  10.592   7.518   9.960 -1.6609 -2.5307 -0.2711
  923MOL0     H24593  11.010   7.809  10.058 -0.9830 -0.3548  0.0678
  923MOL0     H24594  11.195   7.955   9.931  0.4278 -1.4704 -0.9367
  923MOL0     H24595  11.305   8.077   9.787 -0.9590  1.0741 -0.1101
  923MOL0     H24596  11.276   7.923   9.712 -0.0333  0.6745  0.0562
  923MOL0     H24597  11.284   8.005   9.490 -3.1589 -1.3536  2.0811
  923MOL0     H24598  11.442   8.026   9.583 -0.6432 -0.6330 -1.4790
  923MOL0     H24599  11.381   8.254   9.629 -0.6497  0.0318  0.3937
  923MOL0     H24600  11.243   8.234   9.519  0.4190  2.3654 -1.2102
  923MOL0     H24601  11.407   8.337   9.390  0.9720  0.4490  1.9339
  923MOL0     H24602  11.379   8.185   9.323  1.0433  0.4550  0.0802
  923MOL0     H24603  11.799   8.188   9.434  0.0047 -0.5170  0.1210
  923MOL0     H24604  10.900   8.041   9.638 -2.4537  2.3371  1.3459
  923MOL0     H24605  10.723   7.903   9.758 -1.1317  1.7314 -1.0789
  924MOL0     O24606   5.820   8.652   4.067  0.1780  1.0604  0.3635
  924MOL0     C24607   5.704   8.650   4.110 -1.0163  0.6763 -0.5737
  924MOL0     O24608   5.596   8.636   4.043  0.4465 -0.7909  0.3009
  924MOL0     C24609   5.587   8.684   3.913 -1.4929  0.3573 -0.6269
  924MOL0     C24610   5.563   8.589   3.810  0.8077  0.8746 -0.4546
  924MOL0     C24611   5.536   8.622   3.682  0.0410  0.3516 -0.4614
  924MOL0     C24612   5.524   8.763   3.651  0.3250 -0.5774 -0.2101
  924MOL0     O24613   5.478   8.793   3.527 -0.2689 -0.3891 -0.2518
  924MOL0     C24614   5.585   8.784   3.434 -1.0338 -0.2690 -0.6208
  924MOL0     C24615   5.659   8.919   3.403 -0.0044 -0.8872 -0.4443
  924MOL0     C24616   5.777   8.893   3.306 -0.0644  1.2589 -0.1198
  924MOL0     C24617   5.892   8.992   3.327 -0.9272 -0.8707  0.2609
  924MOL0     C24618   6.011   8.954   3.226 -0.8314  0.2426 -0.7146
  924MOL0     C24619   6.002   8.989   3.080  0.1932  0.1794 -0.3602
  924MOL0     C24620   6.125   8.934   3.004  0.1087 -0.5335 -0.3559
  924MOL0     C24621   6.106   8.946   2.848  0.1745 -0.5620 -0.4477
  924MOL0     N24622   6.036   8.837   2.783  0.3292 -0.4950  0.9009
  924MOL0     C24623   5.904   8.838   2.746  0.0918  0.1219 -0.0458
  924MOL0     C24624   5.875   8.715   2.692  0.1773  0.3648  0.3104
  924MOL0     C24625   5.740   8.652   2.657 -0.1561 -0.5679 -0.2312
  924MOL0     C24626   5.749   8.497   2.647 -0.4304  0.6584 -0.1592
  924MOL0     C24627   5.619   8.420   2.609  0.4638  1.2087  0.4737
  924MOL0     C24628   5.644   8.275   2.577 -1.2060  0.3306  0.4920
  924MOL0     O24629   5.508   8.214   2.564 -0.6363  0.0045 -0.3516
  924MOL0     C24630   5.448   8.180   2.678  0.4044 -0.0408 -1.3727
  924MOL0     C24631   5.505   8.189   2.803 -0.2799 -0.0393 -0.4341
  924MOL0     C24632   5.440   8.138   2.918  0.6376  0.1779  0.3348
  924MOL0     C24633   5.513   8.142   3.049  0.2593 -0.0241  0.6443
  924MOL0     C24634   5.318   8.071   2.899  1.0787  0.5187 -0.8171
  924MOL0     C24635   5.240   8.016   3.014 -0.1102 -0.0142 -0.7568
  924MOL0     O24636   5.136   7.941   2.986  0.4304  0.7373  0.2198
  924MOL0     C24637   5.064   7.880   3.088 -0.0562  0.7835 -0.6640
  924MOL0     C24638   5.116   7.835   3.210  0.1759  0.4017  0.3193
  924MOL0     C24639   5.033   7.771   3.303 -0.0070 -0.0906 -0.0553
  924MOL0     C24640   4.902   7.743   3.273 -0.4498  0.5876  1.0264
  924MOL0     O24641   4.826   7.667   3.356 -1.1553  0.2705 -0.0912
  924MOL0     C24642   4.840   7.683   3.502 -0.5110  0.5022  0.8724
  924MOL0     C24643   4.724   7.637   3.568  0.6199  0.0314 -0.4329
  924MOL0     C24644   4.605   7.742   3.538 -0.0897  0.5205  0.5925
  924MOL0     C24645   4.485   7.746   3.639 -0.3466  1.8736  0.0225
  924MOL0     C24646   4.376   7.832   3.598  0.9066  0.2938 -0.4175
  924MOL0     C24647   4.262   7.830   3.714  0.0445 -0.6159  0.1889
  924MOL0     C24648   4.122   7.882   3.652  0.6063  0.3117 -0.1384
  924MOL0     C24649   3.995   7.901   3.748  0.3322 -0.3462 -0.1010
  924MOL0    Cl24650   3.981   7.727   3.827 -0.1382  0.2349 -0.1107
  924MOL0     C24651   4.851   7.785   3.151  0.3728  0.5681  0.2009
  924MOL0     C24652   4.930   7.856   3.059  0.1210 -0.0440 -0.1100
  924MOL0     O24653   5.271   8.050   3.132 -0.5092 -0.3047  0.8449
  924MOL0     C24654   5.267   8.060   2.767 -0.2937  0.4526 -0.6081
  924MOL0     C24655   5.324   8.118   2.656 -0.1728  0.5425 -0.2985
  924MOL0     N24656   5.996   8.648   2.700  0.4342  0.4523  0.1574
  924MOL0     N24657   6.088   8.722   2.742 -1.3571  0.3625 -0.5427
  924MOL0     C24658   5.582   8.850   3.741  0.6963  1.0468 -0.5911
  924MOL0     C24659   5.602   8.822   3.874 -0.3956  1.1662 -0.6578
  924MOL0     C24660   5.691   8.642   4.257 -0.3651  0.9482  0.0812
  924MOL0     C24661   5.573   8.597   4.303  0.0490  0.2719 -1.0205
  924MOL0     C24662   5.548   8.594   4.444 -0.1160  0.5161  0.2724
  924MOL0     C24663   5.648   8.630   4.529  0.2881  0.1783  0.1905
  924MOL0     O24664   5.620   8.618   4.662  0.2084  0.0508 -0.1388
  924MOL0     C24665   5.718   8.588   4.758 -0.5139  0.6461 -1.5866
  924MOL0     C24666   5.712   8.680   4.876 -0.7397 -1.4403 -0.3795
  924MOL0     C24667   5.579   8.695   4.946  0.9202  0.1986 -0.4853
  924MOL0     C24668   5.575   8.798   5.048  0.4130  0.8952 -1.3075
  924MOL0     C24669   5.442   8.807   5.096  0.5081 -0.4688  0.0165
  924MOL0     C24670   5.337   8.826   5.151  0.5055 -0.6404 -0.1580
  924MOL0     C24671   5.776   8.657   4.482  0.2337 -0.1975  1.4936
  924MOL0     C24672   5.798   8.669   4.341 -0.4577  0.0069  0.1011
  924MOL0     H24673   5.583   8.489   3.849  1.5856  1.0944 -0.2841
  924MOL0     H24674   5.506   8.548   3.608  0.2562  1.8994 -2.1665
  924MOL0     H24675   5.663   8.714   3.464 -1.8576 -0.9627 -0.0622
  924MOL0     H24676   5.539   8.740   3.346  0.5104 -0.8088 -1.1794
  924MOL0     H24677   5.582   8.985   3.364  0.5177 -1.1330 -1.9403
  924MOL0     H24678   5.695   8.978   3.488 -2.1012  2.0712 -1.4673
  924MOL0     H24679   5.813   8.789   3.310  1.2114  1.4161 -3.7870
  924MOL0     H24680   5.742   8.898   3.203 -5.2879 -0.4210  1.2563
  924MOL0     H24681   5.862   9.097   3.328  0.3684 -0.4784  0.1847
  924MOL0     H24682   5.930   8.980   3.429  0.6947 -0.2415 -0.2251
  924MOL0     H24683   6.102   8.998   3.268 -1.3055 -2.0970  3.4186
  924MOL0     H24684   6.013   8.845   3.241 -0.3543  0.3105 -0.2524
  924MOL0     H24685   5.918   8.938   3.032  0.6713  1.1763 -2.3777
  924MOL0     H24686   6.011   9.098   3.083  2.6292  0.0206  0.1219
  924MOL0     H24687   6.215   8.992   3.025 -1.1130  1.8470 -1.3021
  924MOL0     H24688   6.146   8.827   3.013  1.2533 -0.5047 -2.1536
  924MOL0     H24689   6.206   8.948   2.805 -0.3117  0.5480 -1.5609
  924MOL0     H24690   6.044   9.035   2.835  0.1313 -0.3260  1.1638
  924MOL0     H24691   5.828   8.913   2.770 -0.0644  0.0748 -0.3931
  924MOL0     H24692   5.674   8.679   2.740  1.1462 -0.6147  0.8555
  924MOL0     H24693   5.703   8.699   2.566 -0.4804  2.0802  1.1723
  924MOL0     H24694   5.783   8.456   2.742 -1.3516 -1.6918 -0.7792
  924MOL0     H24695   5.825   8.488   2.568  0.3006  2.9855  0.1748
  924MOL0     H24696   5.559   8.462   2.527 -0.4140 -0.8323  0.0072
  924MOL0     H24697   5.547   8.438   2.690  1.0341  1.4352  0.9387
  924MOL0     H24698   5.701   8.222   2.654 -0.9068 -0.8322 -0.5121
  924MOL0     H24699   5.696   8.268   2.482 -1.1905  1.1833  0.4293
  924MOL0     H24700   5.600   8.240   2.816  0.8215 -1.3557 -2.5868
  924MOL0     H24701   5.616   8.169   3.023 -0.2743 -0.9048 -3.0554
  924MOL0     H24702   5.467   8.206   3.125  1.7098  1.2447  0.5081
  924MOL0     H24703   5.512   8.040   3.088 -0.8838 -0.4343 -0.4150
  924MOL0     H24704   5.218   7.853   3.241  0.2247  0.6524  0.0102
  924MOL0     H24705   5.072   7.719   3.390 -2.5510  1.8366  2.4365
  924MOL0     H24706   4.923   7.618   3.530  1.4059  2.3112 -0.2984
  924MOL0     H24707   4.862   7.786   3.532  0.1717  1.5417 -2.6439
  924MOL0     H24708   4.700   7.537   3.532 -1.8595  0.0040  1.0788
  924MOL0     H24709   4.735   7.630   3.677 -1.8234 -1.9668 -0.2506
  924MOL0     H24710   4.568   7.725   3.436 -0.3260 -3.4461  1.1855
  924MOL0     H24711   4.649   7.842   3.547 -1.7675  1.3762 -0.2155
  924MOL0     H24712   4.441   7.647   3.656 -0.2687  1.1030 -3.3663
  924MOL0     H24713   4.523   7.775   3.737  0.3649  3.3510 -0.6591
  924MOL0     H24714   4.342   7.793   3.502 -0.4730 -0.3215  0.2783
  924MOL0     H24715   4.414   7.934   3.585 -0.6545  0.7979 -1.2912
  924MOL0     H24716   4.263   7.737   3.771 -4.5506 -1.1160 -0.2275
  924MOL0     H24717   4.289   7.910   3.784  1.5890 -0.7698 -0.1757
  924MOL0     H24718   4.087   7.816   3.572  0.4576 -1.1144  1.0642
  924MOL0     H24719   4.131   7.981   3.608  0.8735 -0.0657 -0.9477
  924MOL0     H24720   3.909   7.935   3.690  1.4172  1.7421 -0.5910
  924MOL0     H24721   4.013   7.982   3.819  1.9014  0.8092 -1.7345
  924MOL0     H24722   4.749   7.754   3.131  1.2201 -2.7196  0.2781
  924MOL0     H24723   4.890   7.886   2.963 -0.6408 -1.8604 -0.4020
  924MOL0     H24724   5.185   7.992   2.748  0.3895 -0.1303 -1.5263
  924MOL0     H24725   5.272   8.093   2.565 -4.1371  0.3954  1.7809
  924MOL0     H24726   5.600   8.946   3.694 -0.8951 -0.3680 -4.4786
  924MOL0     H24727   5.638   8.899   3.941 -0.4008  0.4031  0.2375
  924MOL0     H24728   5.494   8.568   4.233 -3.1501  1.3844  1.8396
  924MOL0     H24729   5.447   8.562   4.465  0.1612  0.0830  0.9589
  924MOL0     H24730   5.696   8.486   4.792  0.1883  1.1505  0.5286
  924MOL0     H24731   5.822   8.580   4.726 -1.1230 -1.2272 -3.3618
  924MOL0     H24732   5.735   8.774   4.824 -1.1612 -2.4132 -2.4415
  924MOL0     H24733   5.800   8.663   4.939  0.9384  0.1225 -2.1594
  924MOL0     H24734   5.552   8.599   4.990  2.8548 -1.6724 -3.1412
  924MOL0     H24735   5.506   8.724   4.870  0.5476  1.8875  0.4406
  924MOL0     H24736   5.596   8.898   5.009 -0.4225  1.9625  0.8030
  924MOL0     H24737   5.643   8.763   5.126 -0.4972  1.9533  0.0085
  924MOL0     H24738   5.248   8.823   5.209  0.3212 -1.5545 -0.4605
  924MOL0     H24739   5.857   8.683   4.550  1.6050  0.9220 -0.4577
  924MOL0     H24740   5.891   8.705   4.299 -0.4426 -1.2453 -0.9886
  925MOL0     O24741   9.687  11.421   5.634  0.4566 -0.7454  0.2060
  925MOL0     C24742   9.665  11.410   5.753  0.0612 -0.7984  0.6667
  925MOL0     O24743   9.538  11.385   5.809  0.1555  0.1613 -0.0140
  925MOL0     C24744   9.432  11.379   5.726 -0.0530 -0.1768  0.7940
  925MOL0     C24745   9.357  11.504   5.713  0.5225  0.7435 -0.1795
  925MOL0     C24746   9.251  11.514   5.625  0.6499  0.5350  0.2641
  925MOL0     C24747   9.231  11.416   5.535  0.2680  0.7698 -0.4788
  925MOL0     O24748   9.135  11.413   5.442  0.1706 -0.7627  0.0194
  925MOL0     C24749   9.004  11.454   5.487 -0.2328  0.1739 -0.2552
  925MOL0     C24750   8.917  11.425   5.367  0.5287  0.2645 -0.4147
  925MOL0     C24751   8.772  11.424   5.398  0.5908 -0.4342 -0.2332
  925MOL0     C24752   8.705  11.561   5.399  1.1805  0.4660 -0.5269
  925MOL0     C24753   8.554  11.552   5.372 -0.0476  0.3827 -0.6015
  925MOL0     C24754   8.464  11.664   5.439 -0.9232 -0.2064  0.5531
  925MOL0     C24755   8.316  11.671   5.396 -0.6013 -0.5695 -0.4388
  925MOL0     C24756   8.253  11.796   5.470  0.8847 -0.4955  0.2941
  925MOL0     N24757   8.109  11.793   5.415 -0.7428 -0.4162 -0.4941
  925MOL0     C24758   8.042  11.882   5.342 -0.4480 -0.6163 -0.5247
  925MOL0     C24759   7.911  11.836   5.323  0.0245 -0.2620 -0.2194
  925MOL0     C24760   7.800  11.932   5.275 -0.1822  1.2098  0.4503
  925MOL0     C24761   7.706  11.857   5.173 -0.7385 -0.1778  0.8946
  925MOL0     C24762   7.586  11.937   5.156  1.2483 -0.5629 -0.0846
  925MOL0     C24763   7.506  11.918   5.025  0.0621 -0.5763  0.1869
  925MOL0     O24764   7.593  11.955   4.912  0.4173  0.1043  0.6059
  925MOL0     C24765   7.532  11.948   4.788  0.0676  1.2666 -0.5488
  925MOL0     C24766   7.417  11.881   4.741 -0.1554  0.9010 -0.9434
  925MOL0     C24767   7.362  11.877   4.613 -0.0442 -0.5644  0.9661
  925MOL0     C24768   7.253  11.778   4.584  0.9499  0.1249  0.0382
  925MOL0     C24769   7.425  11.954   4.508 -1.1360  0.2148  0.0584
  925MOL0     C24770   7.370  11.961   4.365  0.3484  0.0201 -0.2520
  925MOL0     O24771   7.416  12.058   4.284 -0.0702 -0.1692 -0.1696
  925MOL0     C24772   7.333  12.110   4.185 -0.1000 -0.2968  0.3507
  925MOL0     C24773   7.308  12.046   4.066 -1.7078  0.1560 -0.3129
  925MOL0     C24774   7.251  12.105   3.957 -0.2957 -0.1923 -0.6698
  925MOL0     C24775   7.217  12.243   3.965  0.0777 -0.1434 -0.0559
  925MOL0     O24776   7.166  12.316   3.862 -0.1885  0.1136  0.0221
  925MOL0     C24777   7.049  12.266   3.796  0.5299  0.5496 -0.4346
  925MOL0     C24778   6.947  12.372   3.778 -0.1311  0.5052  0.0425
  925MOL0     C24779   6.831  12.328   3.686  0.0618 -0.5587 -1.1019
  925MOL0     C24780   6.747  12.205   3.747  0.5738  0.4059  0.2019
  925MOL0     C24781   6.642  12.174   3.633  0.7644  1.2547 -0.0825
  925MOL0     C24782   6.697  12.079   3.522  0.2871 -0.3398  1.1416
  925MOL0     C24783   6.600  12.062   3.407  0.1081  0.0511  0.7280
  925MOL0     C24784   6.682  12.020   3.278 -0.1225  0.3019 -0.2010
  925MOL0    Cl24785   6.746  11.861   3.301 -0.2189  0.0367  0.4073
  925MOL0     C24786   7.235  12.309   4.087 -0.5222  0.6899 -0.2941
  925MOL0     C24787   7.285  12.244   4.200 -0.9997  0.0432 -0.4148
  925MOL0     O24788   7.264  11.904   4.337  0.0018  0.2027 -0.0306
  925MOL0     C24789   7.535  12.024   4.558  0.1339 -0.4027  0.4581
  925MOL0     C24790   7.584  12.025   4.689 -0.6368  0.4152  0.0413
  925MOL0     N24791   7.908  11.718   5.389  0.2317  0.2383 -1.0597
  925MOL0     N24792   8.024  11.692   5.443  0.2050  1.2492 -0.1220
  925MOL0     C24793   9.313  11.298   5.543  0.1340 -1.0087  0.0431
  925MOL0     C24794   9.410  11.278   5.642 -1.1729  0.0310  0.1840
  925MOL0     C24795   9.774  11.449   5.837  0.7386 -0.2410  0.0204
  925MOL0     C24796   9.897  11.493   5.800 -1.0824  0.1404  0.2577
  925MOL0     C24797   9.998  11.536   5.890  0.5104  0.2215 -0.4405
  925MOL0     C24798   9.974  11.533   6.027  0.1960  0.6664 -1.0608
  925MOL0     O24799  10.072  11.581   6.112 -1.0715  0.3419  0.0448
  925MOL0     C24800  10.120  11.492   6.223  0.5952  0.5077  1.0721
  925MOL0     C24801  10.266  11.466   6.203 -0.3494 -0.5733 -0.8391
  925MOL0     C24802  10.304  11.359   6.312 -0.4909 -0.6228 -0.6263
  925MOL0     C24803  10.454  11.350   6.325 -0.1268 -0.0335 -0.0175
  925MOL0     C24804  10.519  11.317   6.196 -0.7758  0.5095  0.2708
  925MOL0     C24805  10.585  11.292   6.094  0.2431  1.1546  0.7264
  925MOL0     C24806   9.852  11.475   6.070 -0.0612 -0.0379  0.4529
  925MOL0     C24807   9.758  11.433   5.977  0.4100  0.6253  0.5178
  925MOL0     H24808   9.388  11.581   5.783  0.9507  1.6317 -1.3288
  925MOL0     H24809   9.210  11.612   5.600  1.3193  0.5741 -0.7451
  925MOL0     H24810   8.971  11.398   5.575 -0.1905 -3.2119 -2.1900
  925MOL0     H24811   9.009  11.560   5.511  0.0299  0.7815 -2.7498
  925MOL0     H24812   8.943  11.499   5.291  0.2550 -1.6993 -2.5186
  925MOL0     H24813   8.938  11.326   5.326  0.2469  1.1913 -3.0056
  925MOL0     H24814   8.720  11.383   5.311  1.5853  0.1012 -1.1047
  925MOL0     H24815   8.762  11.372   5.494 -1.1511  2.0581  1.0423
  925MOL0     H24816   8.737  11.606   5.493 -0.0896 -0.9501  0.6217
  925MOL0     H24817   8.741  11.632   5.324  1.3562  1.3745  0.3893
  925MOL0     H24818   8.528  11.544   5.266 -0.7045  0.2918 -0.4399
  925MOL0     H24819   8.523  11.462   5.426 -4.3517  0.5582 -2.3638
  925MOL0     H24820   8.485  11.667   5.546  0.6372  3.3154  0.2808
  925MOL0     H24821   8.500  11.764   5.411 -0.5516 -0.3937  0.3494
  925MOL0     H24822   8.295  11.669   5.288  1.5912  1.0245 -0.9540
  925MOL0     H24823   8.269  11.579   5.433  1.4031 -1.2545  0.5190
  925MOL0     H24824   8.301  11.893   5.451 -1.0721  0.0727 -2.1348
  925MOL0     H24825   8.249  11.773   5.577 -1.2297 -1.9869 -0.0407
  925MOL0     H24826   8.072  11.984   5.319  1.2234 -0.6945  1.0972
  925MOL0     H24827   7.743  11.959   5.364 -1.7287 -1.1406  0.2656
  925MOL0     H24828   7.851  12.014   5.225 -1.3051  1.4762 -0.2909
  925MOL0     H24829   7.692  11.760   5.223  3.5452  0.6428  4.3165
  925MOL0     H24830   7.756  11.851   5.076 -0.2097  2.1691  0.9707
  925MOL0     H24831   7.619  12.041   5.152 -0.0351 -0.1348 -0.0814
  925MOL0     H24832   7.526  11.925   5.246  2.1517 -2.1015  0.3557
  925MOL0     H24833   7.417  11.982   5.036 -0.9766 -1.6923 -1.2620
  925MOL0     H24834   7.475  11.814   5.011  0.7054 -0.6668 -0.6011
  925MOL0     H24835   7.364  11.826   4.817 -0.1266 -0.9408 -2.1808
  925MOL0     H24836   7.217  11.738   4.679 -0.8347  1.6822  0.0927
  925MOL0     H24837   7.167  11.827   4.537  2.4724  1.1377 -1.8626
  925MOL0     H24838   7.291  11.692   4.529  0.4001 -1.0177  1.3918
  925MOL0     H24839   7.352  11.948   4.048 -0.5579  0.3540  1.1696
  925MOL0     H24840   7.242  12.046   3.867 -0.8291  2.5167 -2.5026
  925MOL0     H24841   7.083  12.224   3.701  1.1003  3.3275 -1.5464
  925MOL0     H24842   7.009  12.175   3.843  1.1827  1.8432  2.9093
  925MOL0     H24843   6.918  12.401   3.879 -0.3143  4.2340 -0.9408
  925MOL0     H24844   6.989  12.460   3.728  0.1659 -0.8317 -2.2548
  925MOL0     H24845   6.866  12.306   3.585  0.1352 -1.6942 -0.8401
  925MOL0     H24846   6.757  12.409   3.683  1.9180  1.2408 -1.2416
  925MOL0     H24847   6.813  12.123   3.774  0.3627 -0.0836 -0.7152
  925MOL0     H24848   6.687  12.236   3.833 -0.3330 -0.7653  0.0162
  925MOL0     H24849   6.595  12.259   3.583 -0.3442  2.4693  2.8148
  925MOL0     H24850   6.571  12.116   3.693  1.9711  1.9225  2.0932
  925MOL0     H24851   6.782  12.137   3.487 -4.6017  6.6612 -1.2743
  925MOL0     H24852   6.737  11.991   3.575  0.8094  0.1388  1.5614
  925MOL0     H24853   6.535  12.149   3.390  0.2528  0.8625  3.7881
  925MOL0     H24854   6.545  11.980   3.454  0.6713  0.2666  1.7838
  925MOL0     H24855   6.753  12.097   3.245 -1.4505  1.6721 -0.0033
  925MOL0     H24856   6.606  12.003   3.201 -2.0287 -2.5535  2.1482
  925MOL0     H24857   7.223  12.417   4.093 -0.1192  0.7701 -0.8305
  925MOL0     H24858   7.296  12.290   4.298  0.6188 -0.4814 -0.3207
  925MOL0     H24859   7.597  12.080   4.489  0.5755 -2.8524 -1.2680
  925MOL0     H24860   7.675  12.080   4.710 -1.4278  2.2594 -1.1034
  925MOL0     H24861   9.291  11.220   5.471 -1.6674 -1.7414  1.3231
  925MOL0     H24862   9.463  11.183   5.649 -1.1804  0.0873  1.1457
  925MOL0     H24863   9.928  11.481   5.696 -2.5507  0.4263 -0.2368
  925MOL0     H24864  10.097  11.567   5.857  1.1078  0.5592  1.5025
  925MOL0     H24865  10.109  11.527   6.326  0.1222 -2.2798  2.0614
  925MOL0     H24866  10.062  11.399   6.219 -3.5621  2.8646 -1.7925
  925MOL0     H24867  10.334  11.551   6.215  1.1840 -1.4073 -2.9980
  925MOL0     H24868  10.281  11.409   6.111  0.3314  0.8931 -1.6708
  925MOL0     H24869  10.257  11.264   6.286 -0.3583 -1.2256  1.2262
  925MOL0     H24870  10.268  11.396   6.408  0.6161  1.8457 -1.0864
  925MOL0     H24871  10.464  11.266   6.395  0.6521  1.4714  1.7528
  925MOL0     H24872  10.495  11.437   6.376  1.0464 -0.4347 -0.2357
  925MOL0     H24873  10.637  11.268   6.004  1.4239 -1.0648  1.9258
  925MOL0     H24874   9.824  11.473   6.175 -2.1848  0.8211 -0.0255
  925MOL0     H24875   9.671  11.398   6.032  0.0798 -1.1458 -1.0499
  926MOL0     O24876  10.999   7.928   4.657  0.3555  0.1991  0.8079
  926MOL0     C24877  10.948   7.941   4.767  0.1253  0.5030 -0.6024
  926MOL0     O24878  10.824   7.892   4.811  0.4415  0.3013  0.2471
  926MOL0     C24879  10.748   7.824   4.719 -0.3831  0.0403  0.1285
  926MOL0     C24880  10.660   7.903   4.646 -0.6549 -0.6318  0.1718
  926MOL0     C24881  10.565   7.834   4.571  0.7849 -1.2732  0.7977
  926MOL0     C24882  10.547   7.693   4.568  0.9969 -0.3167 -0.4061
  926MOL0     O24883  10.450   7.624   4.498 -0.0950 -0.1399  0.3980
  926MOL0     C24884  10.350   7.688   4.425 -0.0226 -0.0271  0.3246
  926MOL0     C24885  10.275   7.581   4.343 -0.4169 -0.6491 -0.1285
  926MOL0     C24886  10.160   7.524   4.416 -0.7779  0.4221  0.0130
  926MOL0     C24887  10.023   7.602   4.408 -0.1771 -0.9371  0.4062
  926MOL0     C24888   9.904   7.516   4.438 -0.7086 -0.5872  0.2583
  926MOL0     C24889   9.885   7.507   4.590 -0.4312 -0.0194  0.8137
  926MOL0     C24890   9.776   7.403   4.622  0.1046 -0.1129 -0.1263
  926MOL0     C24891   9.750   7.402   4.780  0.4639 -0.1770  0.2888
  926MOL0     N24892   9.867   7.362   4.847  0.9783  0.0274  0.0325
  926MOL0     C24893   9.915   7.230   4.859 -0.9134 -0.6852 -0.6343
  926MOL0     C24894  10.030   7.241   4.939  0.0985 -0.5871 -0.8274
  926MOL0     C24895  10.108   7.113   4.971  0.4225 -0.0783 -0.2250
  926MOL0     C24896  10.239   7.141   5.052  0.7063  0.4383  0.2048
  926MOL0     C24897  10.217   7.208   5.192  0.0209 -0.5882  0.6722
  926MOL0     C24898  10.346   7.260   5.256 -0.8095 -0.5891 -0.1106
  926MOL0     O24899  10.454   7.172   5.274 -0.1840  0.4653  0.7261
  926MOL0     C24900  10.570   7.204   5.346 -1.1095  0.1666  0.1180
  926MOL0     C24901  10.678   7.115   5.347 -0.5199 -0.3600 -0.9942
  926MOL0     C24902  10.784   7.126   5.450 -0.5910 -0.8170  0.1801
  926MOL0     C24903  10.889   7.024   5.467  0.0681 -0.0625  0.5104
  926MOL0     C24904  10.782   7.232   5.534 -0.9028 -0.2683 -0.3543
  926MOL0     C24905  10.898   7.284   5.613  1.1706 -0.7458  0.2995
  926MOL0     O24906  11.016   7.286   5.557  0.3015  0.0196  0.0179
  926MOL0     C24907  11.112   7.339   5.643 -0.6722  0.6614  0.7863
  926MOL0     C24908  11.130   7.473   5.674 -0.7505 -0.0065 -0.0234
  926MOL0     C24909  11.241   7.512   5.755 -0.3960  0.0777 -0.2153
  926MOL0     C24910  11.333   7.420   5.808  0.5194  0.1460  0.0925
  926MOL0     O24911  11.439   7.462   5.890  0.3081 -0.2147 -0.2042
  926MOL0     C24912  11.467   7.603   5.891 -0.5109 -0.1965 -0.4657
  926MOL0     C24913  11.602   7.631   5.968  0.5188  1.0987 -0.3621
  926MOL0     C24914  11.722   7.579   5.889  0.2941  0.2834  0.3447
  926MOL0     C24915  11.863   7.596   5.960  0.9520  0.2909  0.2396
  926MOL0     C24916  11.937   7.735   5.963  0.3466  0.2161 -0.1533
  926MOL0     C24917  12.017   7.773   5.834 -0.4173  0.1533 -0.5696
  926MOL0     C24918  12.156   7.709   5.846  0.2520 -0.1321 -0.8641
  926MOL0     C24919  12.194   7.635   5.716 -0.0935 -0.1337  0.5344
  926MOL0    Cl24920  12.370   7.660   5.693  0.0868 -0.0157  0.1260
  926MOL0     C24921  11.310   7.286   5.782 -0.0607  0.8769  0.1213
  926MOL0     C24922  11.206   7.246   5.698  0.7635 -0.5073  0.0984
  926MOL0     O24923  10.870   7.323   5.727 -0.3068 -1.1199  0.2157
  926MOL0     C24924  10.680   7.327   5.524  0.0782 -0.3732 -0.0087
  926MOL0     C24925  10.581   7.321   5.426  0.5993 -0.0255 -0.5177
  926MOL0     N24926  10.046   7.367   4.975  0.6648 -0.1775  0.1662
  926MOL0     N24927   9.953   7.440   4.924 -0.1690 -0.7564 -0.0506
  926MOL0     C24928  10.641   7.623   4.632 -0.2803  0.0667  0.2558
  926MOL0     C24929  10.735   7.681   4.710 -0.6278 -0.7373  0.1874
  926MOL0     C24930  11.041   7.998   4.864  0.1795  0.2487  0.2816
  926MOL0     C24931  11.007   7.989   5.003  0.2321 -0.2073  0.0771
  926MOL0     C24932  11.090   8.036   5.110  0.0023 -0.4251  0.0754
  926MOL0     C24933  11.215   8.101   5.076  0.6559  0.1198 -0.0254
  926MOL0     O24934  11.295   8.138   5.175 -0.1050 -0.1954 -0.2948
  926MOL0     C24935  11.328   8.276   5.159  0.4758  0.4705  0.2461
  926MOL0     C24936  11.480   8.300   5.154  0.1917  0.2649 -0.5629
  926MOL0     C24937  11.540   8.344   5.295 -0.0893 -0.1597  0.7011
  926MOL0     C24938  11.691   8.321   5.304 -0.4352 -0.6718  0.1844
  926MOL0     C24939  11.762   8.457   5.296  0.0136  0.3323 -0.4553
  926MOL0     C24940  11.815   8.567   5.304 -0.1504 -0.6869  0.0928
  926MOL0     C24941  11.259   8.096   4.944  0.1938 -0.2422 -0.4421
  926MOL0     C24942  11.176   8.047   4.840  0.5771 -0.0726  0.1645
  926MOL0     H24943  10.675   8.010   4.654 -2.5036 -0.1243 -2.0686
  926MOL0     H24944  10.497   7.895   4.511  1.7203  0.4100  1.3877
  926MOL0     H24945  10.273   7.742   4.481 -0.9944  1.7134 -2.4879
  926MOL0     H24946  10.387   7.762   4.353 -0.7539  1.1026  1.0709
  926MOL0     H24947  10.254   7.624   4.245  1.6721  0.1890 -0.2569
  926MOL0     H24948  10.345   7.498   4.331  1.0156 -0.0794  3.1467
  926MOL0     H24949  10.157   7.421   4.380  3.5912 -1.1738  3.3835
  926MOL0     H24950  10.187   7.516   4.521  1.4942 -1.6517 -0.6437
  926MOL0     H24951  10.024   7.693   4.468 -0.2471 -0.5363 -0.1963
  926MOL0     H24952  10.010   7.630   4.303 -2.8125 -1.2531  0.5884
  926MOL0     H24953   9.816   7.559   4.389 -0.3973 -3.3746 -3.1395
  926MOL0     H24954   9.919   7.413   4.406  1.9357  0.2006 -1.3265
  926MOL0     H24955   9.973   7.472   4.644 -0.7430 -1.7759  0.2650
  926MOL0     H24956   9.856   7.607   4.622  3.7346  2.0656 -1.2886
  926MOL0     H24957   9.682   7.424   4.570 -1.2538 -1.8016  1.4630
  926MOL0     H24958   9.813   7.305   4.588  2.3477  0.4662  0.4886
  926MOL0     H24959   9.674   7.328   4.806 -0.7353  0.3442 -1.5706
  926MOL0     H24960   9.722   7.499   4.824 -1.9173 -0.9872  0.7431
  926MOL0     H24961   9.884   7.136   4.813 -0.6563 -1.5906  0.9811
  926MOL0     H24962  10.058   7.040   5.034 -0.7764  2.4987  2.0154
  926MOL0     H24963  10.137   7.055   4.883 -2.3550 -1.7547 -0.1341
  926MOL0     H24964  10.302   7.195   4.981 -1.3180  1.3329 -1.0165
  926MOL0     H24965  10.290   7.048   5.075  0.2469 -0.0288 -0.5930
  926MOL0     H24966  10.177   7.137   5.265  0.9832 -0.2848  1.5231
  926MOL0     H24967  10.150   7.294   5.183 -1.9347 -2.1871 -1.0935
  926MOL0     H24968  10.313   7.306   5.350  0.5447  0.7006 -0.2292
  926MOL0     H24969  10.389   7.343   5.199 -0.1250 -0.2024  0.9451
  926MOL0     H24970  10.669   7.015   5.305 -0.2027 -2.6634  3.6870
  926MOL0     H24971  10.929   7.028   5.569 -1.3286  1.3975  1.0605
  926MOL0     H24972  10.853   6.922   5.449  0.9415 -0.3075  0.1204
  926MOL0     H24973  10.974   7.041   5.401 -1.4745  1.1106 -1.3134
  926MOL0     H24974  11.077   7.553   5.623  2.8993  1.0963 -2.5063
  926MOL0     H24975  11.253   7.615   5.787  1.1246 -0.3445  0.6642
  926MOL0     H24976  11.473   7.639   5.788  0.6754  0.1371 -0.2980
  926MOL0     H24977  11.389   7.655   5.947  0.6358  1.1023 -0.0157
  926MOL0     H24978  11.619   7.739   5.974  2.4439  0.7842  1.2331
  926MOL0     H24979  11.599   7.585   6.068 -3.6497 -1.9848 -1.6002
  926MOL0     H24980  11.726   7.632   5.793  0.9501 -2.2260 -1.0958
  926MOL0     H24981  11.702   7.474   5.867  1.2849  0.1161  0.2065
  926MOL0     H24982  11.849   7.576   6.066 -2.2862  1.2973  0.1026
  926MOL0     H24983  11.930   7.519   5.920 -0.0284 -2.1459  2.9812
  926MOL0     H24984  12.008   7.736   6.046  2.1331 -2.7530 -1.4802
  926MOL0     H24985  11.857   7.809   5.972  0.6718  0.4278  1.1625
  926MOL0     H24986  11.974   7.737   5.740  0.2646  0.7124 -1.1071
  926MOL0     H24987  12.032   7.881   5.825  0.7532  0.6273  4.2739
  926MOL0     H24988  12.174   7.648   5.936 -0.6030  0.2604 -0.4098
  926MOL0     H24989  12.233   7.786   5.850  0.3984 -0.2443 -1.5163
  926MOL0     H24990  12.138   7.675   5.631  1.6377 -0.3180 -0.7682
  926MOL0     H24991  12.177   7.529   5.738  0.6812 -1.0073 -2.5142
  926MOL0     H24992  11.372   7.208   5.826 -1.2952 -0.6444 -0.7205
  926MOL0     H24993  11.203   7.142   5.665  0.4980 -0.4932  0.0793
  926MOL0     H24994  10.677   7.414   5.590  1.8720  1.2902 -1.9640
  926MOL0     H24995  10.509   7.402   5.433  0.6973 -0.0647  1.8069
  926MOL0     H24996  10.639   7.516   4.616 -3.6142 -0.0249  0.5670
  926MOL0     H24997  10.821   7.618   4.732 -0.0420 -0.7945 -2.0236
  926MOL0     H24998  10.911   7.949   5.034 -1.4544  1.0053 -3.0762
  926MOL0     H24999  11.074   8.027   5.217 -1.7503  0.0388 -0.1118
  926MOL0     H25000  11.290   8.315   5.065 -0.1474 -3.3989 -1.2956
  926MOL0     H25001  11.290   8.338   5.241 -1.7482 -0.4410 -0.0534
  926MOL0     H25002  11.514   8.367   5.074  0.6450 -0.4218 -0.9634
  926MOL0     H25003  11.532   8.217   5.106  1.0671  2.9247 -4.8245
  926MOL0     H25004  11.481   8.283   5.364 -2.5088 -2.0828 -2.7684
  926MOL0     H25005  11.527   8.452   5.297  0.0945  0.2131 -4.2775
  926MOL0     H25006  11.737   8.259   5.228  0.3017 -0.9904  0.8794
  926MOL0     H25007  11.708   8.278   5.403  0.2323 -0.9871 -0.0631
  926MOL0     H25008  11.877   8.654   5.311 -2.3396  1.2291 -2.2124
  926MOL0     H25009  11.344   8.161   4.923 -1.5599  2.7184  0.9647
  926MOL0     H25010  11.218   8.057   4.741 -1.2592 -0.8447 -0.7343
  927MOL0     O25011   5.501   1.525   6.805  0.1899  0.4495  0.4418
  927MOL0     C25012   5.537   1.449   6.722  0.1453  0.2608  0.5031
  927MOL0     O25013   5.461   1.343   6.674 -0.2484  0.5404 -0.1055
  927MOL0     C25014   5.342   1.303   6.731  0.8344 -0.4009 -0.0443
  927MOL0     C25015   5.320   1.167   6.765 -0.9688 -0.3434 -0.4646
  927MOL0     C25016   5.204   1.130   6.827  0.6685  0.6468  0.0364
  927MOL0     C25017   5.100   1.221   6.849  0.4175  0.3331 -0.0273
  927MOL0     O25018   4.974   1.198   6.904  0.0702  0.4027 -0.0475
  927MOL0     C25019   4.983   1.089   7.010  0.4423 -0.9032  0.5821
  927MOL0     C25020   4.892   1.126   7.120  0.6663  0.5802 -0.3049
  927MOL0     C25021   4.747   1.100   7.081 -0.1860  0.0124 -0.4506
  927MOL0     C25022   4.659   1.130   7.199  0.2558  0.4197  0.3890
  927MOL0     C25023   4.502   1.126   7.191  0.2958  0.5292 -0.0371
  927MOL0     C25024   4.444   0.984   7.209 -0.3243 -0.3490  0.3279
  927MOL0     C25025   4.467   0.900   7.332  0.3350 -0.2665  1.1881
  927MOL0     C25026   4.380   0.767   7.358  0.4340 -0.4993  0.4234
  927MOL0     N25027   4.419   0.726   7.495  0.0147  0.6089  0.0184
  927MOL0     C25028   4.446   0.594   7.522  0.0702 -0.4230 -1.0400
  927MOL0     C25029   4.411   0.586   7.655 -0.2651  0.7191 -0.2563
  927MOL0     C25030   4.403   0.464   7.732  0.0378  0.2121  0.6295
  927MOL0     C25031   4.287   0.443   7.827  0.2472 -0.2123 -0.1486
  927MOL0     C25032   4.150   0.466   7.763  0.8253  0.6762 -0.1364
  927MOL0     C25033   4.030   0.432   7.857  0.7655 -0.5558  0.6192
  927MOL0     O25034   3.983   0.297   7.851 -0.0239 -0.2787  0.1295
  927MOL0     C25035   3.884   0.247   7.934 -0.6903  0.0603 -0.4979
  927MOL0     C25036   3.822   0.315   8.032 -0.0405  1.0590 -0.4125
  927MOL0     C25037   3.714   0.261   8.109 -0.5987 -0.1212  0.7979
  927MOL0     C25038   3.666   0.351   8.214  0.2855 -0.4231 -0.2204
  927MOL0     C25039   3.662   0.136   8.067  0.2256 -1.1392 -0.7201
  927MOL0     C25040   3.542   0.079   8.133  1.2006  0.6938  0.0372
  927MOL0     O25041   3.525  -0.059   8.118  0.0161 -0.4251 -0.2712
  927MOL0     C25042   3.395  -0.101   8.156 -0.0342  1.7005 -0.0313
  927MOL0     C25043   3.388  -0.198   8.258 -0.3508 -0.2946 -0.2656
  927MOL0     C25044   3.260  -0.246   8.305 -0.1334  0.4259 -0.5327
  927MOL0     C25045   3.147  -0.204   8.245  0.0305 -0.7890 -0.0386
  927MOL0     O25046   3.022  -0.248   8.284 -0.4566 -0.1779 -0.1195
  927MOL0     C25047   2.983  -0.187   8.415 -0.2783  0.3638  1.5310
  927MOL0     C25048   2.845  -0.218   8.457  0.3684 -0.5150 -0.1607
  927MOL0     C25049   2.740  -0.234   8.346  0.7714  0.3560  0.9606
  927MOL0     C25050   2.609  -0.223   8.424  0.7242  0.1127 -0.2157
  927MOL0     C25051   2.488  -0.262   8.335  0.9612  0.1108  0.1720
  927MOL0     C25052   2.348  -0.257   8.413  0.2296 -0.8218  0.4511
  927MOL0     C25053   2.233  -0.269   8.323  0.8361  0.0948 -0.3585
  927MOL0     C25054   2.104  -0.276   8.402  0.7245 -1.1178  0.0824
  927MOL0    Cl25055   2.099  -0.416   8.502  0.0726 -0.2055 -0.5017
  927MOL0     C25056   3.153  -0.099   8.156  0.0740 -0.0816 -0.1093
  927MOL0     C25057   3.275  -0.052   8.101  0.1736  0.0262 -0.8057
  927MOL0     O25058   3.472   0.148   8.205 -0.0758  0.5618 -0.0136
  927MOL0     C25059   3.733   0.064   7.968  0.8891  0.1887 -0.7485
  927MOL0     C25060   3.840   0.114   7.906 -0.2756 -1.1920 -0.3180
  927MOL0     N25061   4.400   0.714   7.703  0.2400  0.6406 -0.0306
  927MOL0     N25062   4.401   0.796   7.606 -1.0064  0.2214 -0.1174
  927MOL0     C25063   5.114   1.356   6.803 -0.3393 -0.0836  0.5064
  927MOL0     C25064   5.237   1.399   6.748  0.3148  0.0427  1.1828
  927MOL0     C25065   5.674   1.472   6.659  1.1219 -0.0215  0.7622
  927MOL0     C25066   5.722   1.401   6.548  0.7800  0.4405  0.0752
  927MOL0     C25067   5.838   1.435   6.484 -0.8690 -0.9690  0.1046
  927MOL0     C25068   5.915   1.550   6.531  0.2539  0.8173  0.1882
  927MOL0     O25069   6.043   1.592   6.493 -0.1503  0.2155  0.2538
  927MOL0     C25070   6.108   1.520   6.388  0.5148 -0.0714 -0.6083
  927MOL0     C25071   6.230   1.596   6.342  0.2860  0.3037 -0.6478
  927MOL0     C25072   6.345   1.594   6.446  0.3521 -0.3006  0.8741
  927MOL0     C25073   6.428   1.712   6.401 -0.3777  0.4298  0.6941
  927MOL0     C25074   6.533   1.729   6.494 -0.7917 -0.2189  0.7702
  927MOL0     C25075   6.618   1.752   6.576 -0.1518  0.3627 -0.3232
  927MOL0     C25076   5.866   1.618   6.634  0.4049  0.6271 -0.5606
  927MOL0     C25077   5.748   1.583   6.700  0.9304  0.7654  0.7226
  927MOL0     H25078   5.396   1.095   6.737  1.0962  1.2527  0.7081
  927MOL0     H25079   5.196   1.027   6.860  1.7328  0.9933  1.4651
  927MOL0     H25080   4.947   1.002   6.954 -2.4795  1.4777 -1.5795
  927MOL0     H25081   5.087   1.095   7.042  0.8316  0.7100 -0.8749
  927MOL0     H25082   4.915   1.057   7.201 -2.4856 -0.4417 -0.1652
  927MOL0     H25083   4.898   1.232   7.148 -1.5639  0.4688  0.8131
  927MOL0     H25084   4.724   1.165   6.996  3.8516  0.6821 -1.2333
  927MOL0     H25085   4.722   0.996   7.057  0.1108 -0.0054 -0.6814
  927MOL0     H25086   4.697   1.069   7.282  1.1092 -0.2292 -0.4475
  927MOL0     H25087   4.693   1.232   7.219  1.7277 -0.2899  1.6714
  927MOL0     H25088   4.459   1.188   7.270 -3.5259  0.2972 -1.6575
  927MOL0     H25089   4.456   1.164   7.099 -1.3134 -1.7724 -0.2684
  927MOL0     H25090   4.335   0.997   7.213 -0.2976 -0.3073  0.9954
  927MOL0     H25091   4.478   0.920   7.128  1.1214 -1.6646  1.9086
  927MOL0     H25092   4.569   0.861   7.320 -0.3798 -1.6781 -0.9844
  927MOL0     H25093   4.445   0.967   7.416 -1.4924  1.4346 -0.5580
  927MOL0     H25094   4.389   0.692   7.280  0.5446  0.4312 -0.4726
  927MOL0     H25095   4.275   0.797   7.363  0.5255 -0.3406  3.3120
  927MOL0     H25096   4.471   0.508   7.462  1.3577 -0.8983  0.1270
  927MOL0     H25097   4.390   0.375   7.670  0.9947 -3.3793  5.0711
  927MOL0     H25098   4.500   0.448   7.780  0.6713  1.3616 -0.2210
  927MOL0     H25099   4.295   0.522   7.902  1.8910  1.0576 -1.5607
  927MOL0     H25100   4.292   0.348   7.880  2.3730  1.8353  3.7595
  927MOL0     H25101   4.138   0.413   7.668 -1.4370  2.0253 -0.6902
  927MOL0     H25102   4.137   0.571   7.736  1.5755  0.3677 -1.8483
  927MOL0     H25103   3.944   0.492   7.825  1.4443  0.2589  0.2807
  927MOL0     H25104   4.060   0.444   7.962  0.8365 -2.5221  0.8506
  927MOL0     H25105   3.856   0.415   8.056 -0.5955  1.5456 -1.6228
  927MOL0     H25106   3.624   0.291   8.296  2.5921 -2.6548 -0.5429
  927MOL0     H25107   3.738   0.424   8.252 -0.6512 -0.7850  2.4742
  927MOL0     H25108   3.586   0.411   8.169  2.7593  1.1756 -2.8424
  927MOL0     H25109   3.483  -0.232   8.297  1.0262  1.1726 -2.1738
  927MOL0     H25110   3.249  -0.318   8.385 -1.5026  1.7182  0.5120
  927MOL0     H25111   3.062  -0.208   8.488  1.9791  2.5087 -0.1172
  927MOL0     H25112   2.994  -0.082   8.388  3.4198  0.1921  1.8528
  927MOL0     H25113   2.842  -0.282   8.545  3.0193 -0.6186 -0.0694
  927MOL0     H25114   2.793  -0.140   8.514 -4.4855 -3.9024  0.6319
  927MOL0     H25115   2.747  -0.328   8.291  0.3631  0.9174 -0.0824
  927MOL0     H25116   2.750  -0.147   8.280 -1.0490 -0.0195  0.1267
  927MOL0     H25117   2.620  -0.302   8.499  0.5001 -0.6252 -0.9418
  927MOL0     H25118   2.602  -0.122   8.466 -2.9952 -0.1970  0.2234
  927MOL0     H25119   2.508  -0.364   8.302 -0.0985  0.4342 -1.6171
  927MOL0     H25120   2.476  -0.195   8.249 -2.2062  2.1313  1.9770
  927MOL0     H25121   2.353  -0.333   8.492  0.8738  1.1683  2.4230
  927MOL0     H25122   2.336  -0.157   8.455 -2.6823 -1.2045  0.7637
  927MOL0     H25123   2.237  -0.367   8.274 -1.3277 -3.6604  5.8529
  927MOL0     H25124   2.244  -0.182   8.259  3.6830  1.4287  1.7369
  927MOL0     H25125   2.018  -0.276   8.334  0.6599 -1.5678  0.1654
  927MOL0     H25126   2.093  -0.186   8.464  2.7530  0.9789 -2.3905
  927MOL0     H25127   3.061  -0.054   8.123 -0.3478 -1.8677 -1.5209
  927MOL0     H25128   3.277   0.025   8.024  0.4993  2.8234  1.7761
  927MOL0     H25129   3.696  -0.034   7.939  0.0956 -1.0795  3.6985
  927MOL0     H25130   3.895   0.051   7.837 -1.5201 -0.3567 -2.1552
  927MOL0     H25131   5.033   1.428   6.808 -0.6061 -0.4644  1.9610
  927MOL0     H25132   5.239   1.503   6.716  1.1842 -0.3483 -0.0973
  927MOL0     H25133   5.670   1.306   6.540  1.3758  0.1267 -0.1306
  927MOL0     H25134   5.885   1.371   6.410  2.2299 -0.9197  1.8638
  927MOL0     H25135   6.136   1.420   6.423  3.4094  0.8657  0.0208
  927MOL0     H25136   6.037   1.516   6.305 -2.4143 -2.1037  1.8013
  927MOL0     H25137   6.208   1.699   6.312  1.7762  0.5563 -0.9805
  927MOL0     H25138   6.267   1.549   6.251  2.5168  1.6562 -0.5141
  927MOL0     H25139   6.411   1.507   6.437  1.2453  0.4009  0.4853
  927MOL0     H25140   6.310   1.603   6.549  3.5886  0.9304  1.9737
  927MOL0     H25141   6.382   1.811   6.407  0.8670  0.9348  3.1340
  927MOL0     H25142   6.466   1.679   6.304  0.1039 -0.8954  1.3138
  927MOL0     H25143   6.696   1.751   6.649  0.2830  0.5115 -0.7793
  927MOL0     H25144   5.923   1.701   6.676  3.5299 -1.9213  0.6304
  927MOL0     H25145   5.712   1.647   6.780  2.6445  0.2752  1.9267
  928MOL0     O25146   0.094  10.797   4.110 -0.6131 -0.4700  0.7313
  928MOL0     C25147   0.091  10.754   3.994 -0.2219 -0.0247 -0.5483
  928MOL0     O25148  -0.002  10.767   3.899 -0.6369  0.1612 -0.0736
  928MOL0     C25149  -0.095  10.860   3.915  0.1030  0.1475 -0.0479
  928MOL0     C25150  -0.204  10.830   3.999 -0.6503  0.2136 -0.1103
  928MOL0     C25151  -0.308  10.929   4.000 -0.2845  0.4847 -1.8765
  928MOL0     C25152  -0.306  11.049   3.919  0.2989 -0.2525 -0.9862
  928MOL0     O25153  -0.404  11.144   3.948  0.1201  0.1446  0.0847
  928MOL0     C25154  -0.387  11.281   3.923  0.4034 -0.2841 -0.1142
  928MOL0     C25155  -0.404  11.326   3.777  0.2091  0.4516  0.0109
  928MOL0     C25156  -0.403  11.473   3.769 -0.1640 -1.0079 -0.8222
  928MOL0     C25157  -0.441  11.520   3.629  0.1225  0.7800  0.1005
  928MOL0     C25158  -0.467  11.677   3.632  0.0647 -0.6747  0.3579
  928MOL0     C25159  -0.356  11.750   3.558  0.1938  0.0848  0.7524
  928MOL0     C25160  -0.234  11.795   3.642  1.3035 -0.3472  0.3244
  928MOL0     C25161  -0.270  11.908   3.744  0.0929  0.1424  0.3189
  928MOL0     N25162  -0.341  12.019   3.687  0.7098 -0.4929  0.6916
  928MOL0     C25163  -0.300  12.111   3.585  0.3872  1.4460  0.1634
  928MOL0     C25164  -0.397  12.198   3.580  0.2628 -0.4752 -0.5086
  928MOL0     C25165  -0.385  12.320   3.496 -0.2054 -0.1481  0.3076
  928MOL0     C25166  -0.472  12.291   3.370  0.7449 -0.2168  0.1617
  928MOL0     C25167  -0.399  12.192   3.275  0.5669 -0.9628  0.1714
  928MOL0     C25168  -0.263  12.248   3.240 -0.3206 -0.3017  1.3673
  928MOL0     O25169  -0.165  12.194   3.322 -0.3257  0.2986  0.1818
  928MOL0     C25170  -0.032  12.216   3.283 -0.6518 -0.3519 -0.3789
  928MOL0     C25171   0.068  12.149   3.358  0.6977  0.0969 -0.5187
  928MOL0     C25172   0.206  12.186   3.346 -0.1128  0.4763  0.4020
  928MOL0     C25173   0.302  12.122   3.432 -0.0226 -0.0265 -0.0763
  928MOL0     C25174   0.247  12.285   3.247 -0.0813 -0.4265 -0.6040
  928MOL0     C25175   0.388  12.310   3.224 -0.7573  0.4224  0.1824
  928MOL0     O25176   0.476  12.205   3.210  0.2437  0.3518  0.0860
  928MOL0     C25177   0.600  12.224   3.160  0.4253  0.4060  0.3227
  928MOL0     C25178   0.672  12.342   3.129 -0.0265 -0.2383  0.8301
  928MOL0     C25179   0.792  12.327   3.056  0.9324 -0.4486  0.3449
  928MOL0     C25180   0.851  12.204   3.024  0.3799  0.0785  0.3469
  928MOL0     O25181   0.981  12.192   2.986 -0.4540 -0.0323  0.7544
  928MOL0     C25182   1.066  12.307   2.968 -0.4016 -0.4354 -0.6233
  928MOL0     C25183   1.046  12.377   2.834 -0.1302  0.0401  0.0077
  928MOL0     C25184   1.151  12.484   2.808 -0.8261  0.1237  0.2547
  928MOL0     C25185   1.191  12.576   2.919  0.1868 -0.4467  0.6581
  928MOL0     C25186   1.289  12.680   2.877 -0.3149  0.3092 -1.3968
  928MOL0     C25187   1.300  12.799   2.972  0.8477  0.1632  0.5847
  928MOL0     C25188   1.431  12.877   2.956 -0.7638  0.3485  0.1921
  928MOL0     C25189   1.422  12.990   3.049  0.5039  0.5771 -0.4936
  928MOL0    Cl25190   1.472  12.963   3.220  0.3672  0.7508 -0.5948
  928MOL0     C25191   0.783  12.093   3.057 -0.3232  0.3582 -0.2948
  928MOL0     C25192   0.654  12.105   3.123  0.1447 -0.0193  0.0238
  928MOL0     O25193   0.412  12.430   3.213  0.5078 -0.3572 -0.5560
  928MOL0     C25194   0.147  12.348   3.174  0.8198 -0.0341  0.4110
  928MOL0     C25195   0.011  12.317   3.189 -0.2688  0.3272  0.2794
  928MOL0     N25196  -0.496  12.168   3.681 -1.2565 -0.6422  0.2588
  928MOL0     N25197  -0.455  12.064   3.744 -0.1741 -0.2693  0.4099
  928MOL0     C25198  -0.200  11.068   3.829 -0.1841 -0.1746 -0.2790
  928MOL0     C25199  -0.098  10.971   3.828  0.6789 -0.2022  0.5310
  928MOL0     C25200   0.204  10.673   3.965  0.1528 -0.8740  0.0603
  928MOL0     C25201   0.231  10.635   3.836 -0.8691  0.0562 -0.1106
  928MOL0     C25202   0.336  10.541   3.798 -0.7951  0.4897 -0.0713
  928MOL0     C25203   0.426  10.501   3.898  0.1860 -0.3628  0.2863
  928MOL0     O25204   0.527  10.410   3.865  0.9975 -0.8811  0.1870
  928MOL0     C25205   0.593  10.344   3.979 -0.5686 -0.1531 -1.0305
  928MOL0     C25206   0.702  10.253   3.941 -1.0571  0.2594  0.7688
  928MOL0     C25207   0.650  10.126   3.872 -0.3757  0.5384 -0.5050
  928MOL0     C25208   0.768  10.046   3.811  0.6945  0.1632  0.3241
  928MOL0     C25209   0.810  10.101   3.681  0.6027 -0.9424 -0.5777
  928MOL0     C25210   0.837  10.139   3.568  0.6591 -0.6590  0.4004
  928MOL0     C25211   0.411  10.554   4.028  0.2826  0.0962 -0.7813
  928MOL0     C25212   0.305  10.641   4.060 -0.4331  0.8755 -0.1540
  928MOL0     H25213  -0.199  10.744   4.065 -0.4923 -0.0484 -0.4570
  928MOL0     H25214  -0.373  10.899   4.082  0.1856  0.5844 -1.4606
  928MOL0     H25215  -0.451  11.334   3.994 -1.8837 -1.8854 -0.8646
  928MOL0     H25216  -0.285  11.305   3.955  0.7340 -0.0450 -1.2725
  928MOL0     H25217  -0.323  11.294   3.711  1.7277 -0.4828  2.1766
  928MOL0     H25218  -0.503  11.289   3.749 -0.0894  2.0259 -1.0924
  928MOL0     H25219  -0.479  11.519   3.834  0.9105  0.0613 -0.2781
  928MOL0     H25220  -0.307  11.522   3.787  0.1035 -1.3428 -1.3372
  928MOL0     H25221  -0.369  11.508   3.547 -1.8842  1.3152 -1.8617
  928MOL0     H25222  -0.515  11.463   3.572  1.6868 -0.6234 -0.6257
  928MOL0     H25223  -0.552  11.688   3.564 -0.2563  2.1919  1.1193
  928MOL0     H25224  -0.508  11.726   3.721  1.1872  0.0756  0.4770
  928MOL0     H25225  -0.322  11.690   3.473 -1.6365 -1.8043  1.2838
  928MOL0     H25226  -0.398  11.831   3.497  1.3847  0.9910  1.1026
  928MOL0     H25227  -0.202  11.711   3.705 -1.4268  0.2382  2.7151
  928MOL0     H25228  -0.157  11.829   3.572  1.0716  2.3828  1.2659
  928MOL0     H25229  -0.177  11.949   3.783  0.9466  2.6332 -3.6884
  928MOL0     H25230  -0.329  11.859   3.822  1.1425 -2.8103 -0.6350
  928MOL0     H25231  -0.198  12.106   3.548  0.6016 -3.7030  0.6550
  928MOL0     H25232  -0.443  12.399   3.544 -2.0205 -0.6116 -1.0477
  928MOL0     H25233  -0.286  12.359   3.471 -1.8377  4.0410 -0.5080
  928MOL0     H25234  -0.501  12.386   3.324 -1.6993 -0.8055  0.3589
  928MOL0     H25235  -0.566  12.247   3.404  1.1168  0.9423  3.0034
  928MOL0     H25236  -0.452  12.169   3.182 -0.6365 -4.7098  1.6023
  928MOL0     H25237  -0.395  12.099   3.332 -1.2487  0.5474  3.0486
  928MOL0     H25238  -0.259  12.356   3.257  3.8803 -0.0928  0.1102
  928MOL0     H25239  -0.234  12.230   3.136  2.0931  0.7411  1.7925
  928MOL0     H25240   0.047  12.076   3.435  0.7141  2.5888  2.0206
  928MOL0     H25241   0.385  12.189   3.453  0.7459 -1.7063  2.7943
  928MOL0     H25242   0.247  12.086   3.519 -0.3029 -1.7363 -0.9171
  928MOL0     H25243   0.336  12.034   3.376  1.5531  2.0637 -2.6491
  928MOL0     H25244   0.640  12.443   3.153  1.0605  0.3333 -0.0093
  928MOL0     H25245   0.833  12.425   3.035 -1.3305  0.6522  0.7539
  928MOL0     H25246   1.047  12.373   3.053 -0.2274 -2.6940  1.2609
  928MOL0     H25247   1.166  12.263   2.974  0.0638  0.7321  0.5075
  928MOL0     H25248   1.035  12.304   2.754  1.3869 -0.2857  0.0675
  928MOL0     H25249   0.950  12.429   2.837  0.3089  1.0454 -1.9451
  928MOL0     H25250   1.105  12.540   2.725 -3.5992  1.0177  2.2527
  928MOL0     H25251   1.244  12.436   2.776 -0.4584 -0.5088  2.1600
  928MOL0     H25252   1.095  12.623   2.941 -0.9707 -1.8625 -1.1180
  928MOL0     H25253   1.240  12.519   2.999  3.0807 -1.2013 -1.4689
  928MOL0     H25254   1.257  12.734   2.788 -0.1218  1.4092 -0.8141
  928MOL0     H25255   1.385  12.628   2.865 -0.5161 -0.7921  1.0275
  928MOL0     H25256   1.217  12.861   2.935  2.3279  0.7755 -2.0103
  928MOL0     H25257   1.296  12.765   3.075  2.4838 -0.7933  0.3567
  928MOL0     H25258   1.440  12.909   2.852  3.0040 -3.8460 -1.1168
  928MOL0     H25259   1.522  12.817   2.963 -0.9240 -0.5198 -3.3242
  928MOL0     H25260   1.319  13.026   3.045  0.7143  1.3123  0.3421
  928MOL0     H25261   1.490  13.072   3.021 -0.5016  1.6832  0.1956
  928MOL0     H25262   0.841  12.003   3.038 -0.2160  0.2587  0.4779
  928MOL0     H25263   0.605  12.011   3.144  0.3964  0.1587  1.4966
  928MOL0     H25264   0.186  12.414   3.098 -2.4564  0.6546 -0.8276
  928MOL0     H25265  -0.062  12.383   3.145  0.3494  2.0041  1.6253
  928MOL0     H25266  -0.204  11.149   3.757 -0.7925 -1.5364 -1.8413
  928MOL0     H25267  -0.015  10.981   3.758  0.8537 -0.6570  0.6684
  928MOL0     H25268   0.182  10.678   3.749 -1.8238  0.1856  0.4750
  928MOL0     H25269   0.342  10.503   3.697  1.9983 -0.9061  0.5411
  928MOL0     H25270   0.643  10.421   4.038  0.8788 -2.4902  0.9644
  928MOL0     H25271   0.519  10.289   4.038 -1.0468 -0.2936 -1.7460
  928MOL0     H25272   0.777  10.233   4.017  1.1698  1.6189 -0.9360
  928MOL0     H25273   0.760  10.304   3.863  0.4661 -1.2296  0.8503
  928MOL0     H25274   0.585  10.165   3.793 -0.7619  3.3294  1.0702
  928MOL0     H25275   0.601  10.057   3.941 -1.2133 -0.0847 -1.6837
  928MOL0     H25276   0.739   9.941   3.802 -1.3594  0.6133  1.0328
  928MOL0     H25277   0.856  10.053   3.876  1.7122  1.2144 -1.1061
  928MOL0     H25278   0.878  10.171   3.474 -2.0343 -0.7127 -0.8902
  928MOL0     H25279   0.476  10.532   4.112 -2.3608  0.7324  1.5833
  928MOL0     H25280   0.296  10.666   4.165  0.1607  0.9031 -0.1105
  929MOL0     O25281   3.283   8.383   9.543 -0.0687  0.0451 -0.7046
  929MOL0     C25282   3.324   8.304   9.626 -0.5358  0.2657  0.2857
  929MOL0     O25283   3.446   8.315   9.694  0.2820  0.2926  0.0851
  929MOL0     C25284   3.537   8.407   9.671 -0.7238 -0.2480 -0.5700
  929MOL0     C25285   3.620   8.444   9.780  0.7295  0.5684 -0.3942
  929MOL0     C25286   3.724   8.533   9.769  0.5140 -0.5571  0.0116
  929MOL0     C25287   3.749   8.602   9.652 -0.3308 -0.0063 -0.2368
  929MOL0     O25288   3.855   8.679   9.660 -0.1692 -0.2898 -0.5872
  929MOL0     C25289   3.893   8.761   9.547  0.0994  0.0271 -0.2619
  929MOL0     C25290   3.956   8.677   9.434 -0.3074  0.1599 -0.0027
  929MOL0     C25291   4.042   8.760   9.342 -0.1742  0.4217  0.0899
  929MOL0     C25292   4.110   8.686   9.220  0.6195 -0.5425  0.1687
  929MOL0     C25293   4.081   8.734   9.078  0.1348  0.5430 -0.2503
  929MOL0     C25294   3.941   8.715   9.042 -0.3765  0.1192  0.1622
  929MOL0     C25295   3.897   8.832   8.938 -0.6767  0.2685 -0.9005
  929MOL0     C25296   3.741   8.844   8.929 -0.8958 -0.2559 -0.3423
  929MOL0     N25297   3.693   8.895   8.801 -0.0993  0.1043  0.6760
  929MOL0     C25298   3.680   8.830   8.689  0.1845 -0.4503  1.1527
  929MOL0     C25299   3.602   8.913   8.613  0.1768 -0.0339  0.2712
  929MOL0     C25300   3.559   8.880   8.475  0.0921  0.1269  0.0801
  929MOL0     C25301   3.669   8.914   8.364  0.2904  0.0270 -1.0227
  929MOL0     C25302   3.642   8.850   8.225  0.4960  0.8012 -0.9579
  929MOL0     C25303   3.759   8.895   8.140  0.6115 -0.0110 -0.2945
  929MOL0     O25304   3.741   8.852   8.004 -0.3723 -0.6882  0.0356
  929MOL0     C25305   3.816   8.913   7.902 -1.0285 -0.7607 -0.2477
  929MOL0     C25306   3.773   8.895   7.773 -0.2822 -1.3439  0.9305
  929MOL0     C25307   3.859   8.949   7.660 -0.5137 -0.5964 -0.7252
  929MOL0     C25308   3.806   8.910   7.523  0.6511 -0.3053  0.5302
  929MOL0     C25309   3.963   9.031   7.688 -0.6934 -0.6788  0.1440
  929MOL0     C25310   4.058   9.091   7.596 -0.1547 -0.4641 -0.2377
  929MOL0     O25311   4.130   9.200   7.645 -0.3221 -0.0869 -0.0512
  929MOL0     C25312   4.239   9.233   7.583  0.3242 -0.7847  0.4128
  929MOL0     C25313   4.249   9.365   7.531 -0.4833 -0.5245 -0.3156
  929MOL0     C25314   4.372   9.420   7.482  0.7403  0.1791  0.4248
  929MOL0     C25315   4.478   9.336   7.459 -0.9060 -0.5986  0.9413
  929MOL0     O25316   4.601   9.369   7.418 -0.4947 -0.6012  1.2128
  929MOL0     C25317   4.652   9.498   7.438 -0.5581 -0.0655  0.2996
  929MOL0     C25318   4.765   9.540   7.343 -0.3199  0.2046 -0.4889
  929MOL0     C25319   4.816   9.684   7.367 -0.1589  0.4182  0.1866
  929MOL0     C25320   4.904   9.683   7.492 -0.0044  0.5472  0.3726
  929MOL0     C25321   4.957   9.823   7.514  0.5443 -0.6289 -0.9376
  929MOL0     C25322   5.048   9.832   7.641  0.0965  1.0521  0.3219
  929MOL0     C25323   5.082   9.969   7.680  0.9196 -0.5794  0.4460
  929MOL0     C25324   5.158   9.986   7.814 -0.7093  0.4052  0.1745
  929MOL0    Cl25325   5.272   9.852   7.818 -0.0722  0.3309  0.2951
  929MOL0     C25326   4.466   9.202   7.492 -0.1271  0.5518 -0.1718
  929MOL0     C25327   4.349   9.150   7.561  0.2225 -0.8563 -0.5694
  929MOL0     O25328   4.077   9.036   7.487 -0.2698 -0.2774 -0.8699
  929MOL0     C25329   3.993   9.046   7.822 -0.7147 -0.3926  0.4518
  929MOL0     C25330   3.932   8.984   7.925  0.2079 -0.5999 -0.4934
  929MOL0     N25331   3.584   9.032   8.671  0.1124  0.2328 -0.0370
  929MOL0     N25332   3.638   9.020   8.784  0.4985 -0.7936 -0.0730
  929MOL0     C25333   3.664   8.576   9.538  0.1608 -0.8566  0.0828
  929MOL0     C25334   3.562   8.476   9.547 -0.0757 -0.2224 -0.3119
  929MOL0     C25335   3.248   8.181   9.671  0.0981 -0.1107  0.6423
  929MOL0     C25336   3.157   8.109   9.583 -1.0728 -0.7712  0.6304
  929MOL0     C25337   3.109   7.984   9.627 -1.4570  0.0769  0.4559
  929MOL0     C25338   3.132   7.943   9.760 -1.3495  0.3180 -0.2788
  929MOL0     O25339   3.073   7.833   9.797 -0.1125 -0.0668 -0.1523
  929MOL0     C25340   3.101   7.778   9.929  0.8557 -0.2255  0.0110
  929MOL0     C25341   3.043   7.641   9.917  0.6068  0.2030  0.0335
  929MOL0     C25342   3.070   7.547  10.035  0.2799 -0.9987 -0.1776
  929MOL0     C25343   2.976   7.423  10.021  0.8053  0.1426 -1.0210
  929MOL0     C25344   2.828   7.455  10.024 -0.5925  0.6570  0.1823
  929MOL0     C25345   2.704   7.465  10.028 -0.0800  1.3431  0.1922
  929MOL0     C25346   3.220   8.012   9.843  0.6274  0.1852  0.9053
  929MOL0     C25347   3.274   8.127   9.795 -0.3733  0.7302  0.1641
  929MOL0     H25348   3.609   8.382   9.869  0.8637  3.5600  1.8337
  929MOL0     H25349   3.785   8.548   9.858  0.9440  0.0952 -0.3860
  929MOL0     H25350   3.814   8.822   9.502 -0.2938 -1.0301 -1.0562
  929MOL0     H25351   3.967   8.830   9.588  1.4608  0.2292 -2.8623
  929MOL0     H25352   4.038   8.618   9.476 -0.6902 -0.1901  0.2518
  929MOL0     H25353   3.886   8.616   9.377 -0.4470  0.7032 -0.4137
  929MOL0     H25354   3.977   8.840   9.303  0.5470  2.0958  2.1639
  929MOL0     H25355   4.122   8.794   9.409 -0.9280 -0.3494  1.4291
  929MOL0     H25356   4.217   8.695   9.241  0.7088  1.8591 -1.0164
  929MOL0     H25357   4.096   8.578   9.223 -0.5353 -0.4838 -1.4016
  929MOL0     H25358   4.108   8.838   9.060  2.0314 -0.0574 -1.2193
  929MOL0     H25359   4.134   8.665   9.012 -1.6942 -1.5780  0.3665
  929MOL0     H25360   3.937   8.618   8.991 -0.9637  0.9139 -1.3800
  929MOL0     H25361   3.872   8.718   9.126 -1.1887  1.4543 -0.5259
  929MOL0     H25362   3.932   8.930   8.969  0.0018  0.0952 -1.1075
  929MOL0     H25363   3.942   8.813   8.840 -1.2118  2.5177 -1.6422
  929MOL0     H25364   3.714   8.909   9.013  2.2906  0.9244 -0.0674
  929MOL0     H25365   3.692   8.746   8.936 -3.0906  0.6729 -1.8299
  929MOL0     H25366   3.729   8.739   8.655  2.5281  1.1292  0.0075
  929MOL0     H25367   3.535   8.773   8.483  1.5630 -0.3744 -1.4247
  929MOL0     H25368   3.474   8.943   8.448  1.6270  0.7567 -4.0532
  929MOL0     H25369   3.760   8.865   8.403 -0.2871 -0.1379  0.1558
  929MOL0     H25370   3.692   9.020   8.377  3.8549 -0.9784  3.4099
  929MOL0     H25371   3.553   8.898   8.183  0.1083  0.9111 -0.0205
  929MOL0     H25372   3.632   8.742   8.239 -2.0334  1.3012  2.0115
  929MOL0     H25373   3.858   8.866   8.177  2.2380  2.4004 -2.4160
  929MOL0     H25374   3.743   9.002   8.149  1.0834  0.1174 -0.9524
  929MOL0     H25375   3.679   8.847   7.746  0.3142 -3.7646  2.8042
  929MOL0     H25376   3.727   8.834   7.522  1.5040 -1.2123  0.2233
  929MOL0     H25377   3.769   9.001   7.474 -0.6426 -1.3024 -0.4373
  929MOL0     H25378   3.880   8.864   7.457  0.2147 -1.4785  0.8298
  929MOL0     H25379   4.169   9.437   7.547  1.2794  1.4642  0.0118
  929MOL0     H25380   4.369   9.525   7.455 -0.0249  0.2322  0.6920
  929MOL0     H25381   4.582   9.581   7.426  1.3055  1.3186 -1.8661
  929MOL0     H25382   4.679   9.492   7.544 -1.8136 -3.2634  0.5371
  929MOL0     H25383   4.852   9.474   7.342  0.0741  0.6990  0.2099
  929MOL0     H25384   4.739   9.533   7.237 -1.2775 -1.6450 -0.1652
  929MOL0     H25385   4.729   9.749   7.377 -2.5103 -2.7376  2.7455
  929MOL0     H25386   4.879   9.718   7.285  3.3783 -1.3398  1.9403
  929MOL0     H25387   4.846   9.649   7.578 -1.3032 -0.2715 -0.7728
  929MOL0     H25388   4.992   9.620   7.476 -1.0978 -0.6816 -1.2166
  929MOL0     H25389   4.875   9.895   7.504  2.1253  1.4655  0.3706
  929MOL0     H25390   5.022   9.844   7.429 -0.2585 -0.6552 -1.5692
  929MOL0     H25391   5.001   9.783   7.726 -2.7847  0.6652 -1.3726
  929MOL0     H25392   5.137   9.769   7.628  0.7566  1.3667  2.9156
  929MOL0     H25393   4.990  10.027   7.694  1.8711  1.5879 -1.5156
  929MOL0     H25394   5.132  10.016   7.595 -1.1239  1.6927  0.3874
  929MOL0     H25395   5.099   9.969   7.904 -0.2757 -2.0225  0.0617
  929MOL0     H25396   5.215  10.079   7.815  1.1626 -0.6974  0.0165
  929MOL0     H25397   4.541   9.126   7.472  0.3166  1.6670 -3.1194
  929MOL0     H25398   4.350   9.045   7.586 -0.2026 -0.8421 -0.4769
  929MOL0     H25399   4.086   9.096   7.850 -1.4937  0.9735  0.6900
  929MOL0     H25400   3.986   8.998   8.018  1.3595  1.4667 -1.4221
  929MOL0     H25401   3.675   8.633   9.446  4.3731 -1.1190  0.2271
  929MOL0     H25402   3.498   8.452   9.463  0.4411 -0.1399 -0.7305
  929MOL0     H25403   3.132   8.148   9.485  0.5850 -1.2712 -0.0333
  929MOL0     H25404   3.055   7.926   9.552  1.2558  1.8233 -3.1513
  929MOL0     H25405   3.209   7.775   9.950  0.8935  1.0641  0.1019
  929MOL0     H25406   3.049   7.835  10.006 -1.0226  0.1073 -1.4412
  929MOL0     H25407   3.074   7.601   9.820 -0.2712 -2.8150  0.8715
  929MOL0     H25408   2.934   7.654   9.920  0.7563  1.4446  0.5873
  929MOL0     H25409   3.035   7.600  10.124 -0.5255  0.9354 -1.5652
  929MOL0     H25410   3.178   7.530  10.033  1.1644  3.1740  1.7378
  929MOL0     H25411   2.994   7.368  10.115  0.1124  0.8841 -0.4415
  929MOL0     H25412   3.012   7.363   9.937 -0.7249 -3.7375  0.8461
  929MOL0     H25413   2.597   7.473  10.030 -0.2076  1.1617 -2.3007
  929MOL0     H25414   3.241   7.993   9.948 -0.5129  2.2174  1.5586
  929MOL0     H25415   3.336   8.171   9.872  1.0160 -2.1577  0.8542
  930MOL0     O25416   0.622   6.570  10.379 -0.0095  0.0227 -0.6267
  930MOL0     C25417   0.672   6.618  10.482  0.8791  0.2418  1.0158
  930MOL0     O25418   0.689   6.748  10.502  0.8970 -0.6268 -0.5366
  930MOL0     C25419   0.701   6.849  10.405 -1.0137 -0.8292 -1.2009
  930MOL0     C25420   0.707   6.837  10.260  0.1184 -0.3284  0.5170
  930MOL0     C25421   0.719   6.948  10.177 -0.2573 -0.1455 -0.4309
  930MOL0     C25422   0.723   7.076  10.236 -0.5378  0.7099  0.2346
  930MOL0     O25423   0.753   7.169  10.147 -0.7482 -0.1809  0.2654
  930MOL0     C25424   0.733   7.307  10.178  0.8200 -0.0278  0.7538
  930MOL0     C25425   0.779   7.398  10.057 -0.2437  0.1985 -0.7207
  930MOL0     C25426   0.672   7.402   9.952  0.9266 -0.1592  0.1043
  930MOL0     C25427   0.724   7.439   9.815  0.4548  0.1131  0.3079
  930MOL0     C25428   0.626   7.432   9.698  0.4804  0.8121  0.0725
  930MOL0     C25429   0.681   7.448   9.554  0.1835 -0.5308  0.4928
  930MOL0     C25430   0.573   7.400   9.449  0.0709 -0.1152  0.0641
  930MOL0     C25431   0.582   7.252   9.409  0.4440  0.0923 -0.0696
  930MOL0     N25432   0.495   7.209   9.309  0.3026 -0.6413  0.8328
  930MOL0     C25433   0.357   7.220   9.301 -0.4018 -0.3283 -0.1817
  930MOL0     C25434   0.323   7.169   9.181  0.3686  1.0473  0.4836
  930MOL0     C25435   0.187   7.152   9.137  0.7604  0.9508  0.3096
  930MOL0     C25436   0.122   7.033   9.213 -0.3191  1.8789 -0.2817
  930MOL0     C25437   0.174   6.888   9.176  0.6304  0.5800 -0.0395
  930MOL0     C25438   0.171   6.846   9.029 -0.3700  0.2969  0.2612
  930MOL0     O25439   0.060   6.892   8.953 -1.1023 -0.3226 -0.7974
  930MOL0     C25440  -0.072   6.878   8.995 -0.7921 -0.3461 -0.6922
  930MOL0     C25441  -0.103   6.762   9.069  0.1973 -1.2422 -0.4832
  930MOL0     C25442  -0.244   6.757   9.120 -0.2089  0.0005  0.2683
  930MOL0     C25443  -0.274   6.639   9.204  0.2936  0.6979 -1.1956
  930MOL0     C25444  -0.349   6.847   9.078  0.1622 -0.5919 -0.3747
  930MOL0     C25445  -0.502   6.840   9.111 -0.8712 -0.6919 -0.4870
  930MOL0     O25446  -0.582   6.932   9.050 -0.8700 -0.2390 -0.1443
  930MOL0     C25447  -0.706   6.961   9.101  0.0198  0.1474 -0.5195
  930MOL0     C25448  -0.737   6.993   9.237  0.3486 -0.8994 -0.2170
  930MOL0     C25449  -0.870   7.034   9.270  0.1433  0.8952 -0.1278
  930MOL0     C25450  -0.961   7.041   9.163  0.3647  0.2186 -0.0683
  930MOL0     O25451  -1.094   7.078   9.177 -0.3617  0.6433 -0.4200
  930MOL0     C25452  -1.134   7.135   9.294  0.8772  0.7107  0.3848
  930MOL0     C25453  -1.276   7.178   9.249 -0.1224 -0.6835  0.3641
  930MOL0     C25454  -1.356   7.240   9.369 -0.0504 -0.3244  0.9269
  930MOL0     C25455  -1.476   7.317   9.335  0.5076 -0.1098  0.3254
  930MOL0     C25456  -1.552   7.391   9.443 -0.1987  0.7156 -0.9094
  930MOL0     C25457  -1.708   7.370   9.431 -0.3124 -0.1101  0.4381
  930MOL0     C25458  -1.769   7.448   9.312  0.0746 -0.9139 -1.2090
  930MOL0     C25459  -1.812   7.590   9.346  0.2086 -1.1820 -0.5081
  930MOL0    Cl25460  -1.709   7.697   9.444  0.0107  0.5038 -0.3059
  930MOL0     C25461  -0.935   7.000   9.035 -0.5926  0.7218  0.5198
  930MOL0     C25462  -0.804   6.973   9.006 -0.1859  0.1077 -0.1408
  930MOL0     O25463  -0.543   6.762   9.195 -0.0586 -0.8203 -0.7458
  930MOL0     C25464  -0.304   6.958   9.003 -0.2277 -0.0115 -0.3208
  930MOL0     C25465  -0.178   6.962   8.958 -0.0003  1.4750  0.3891
  930MOL0     N25466   0.439   7.138   9.111 -0.0747  0.4091  0.0389
  930MOL0     N25467   0.540   7.159   9.188 -0.4357 -0.0916 -0.0453
  930MOL0     C25468   0.724   7.087  10.373  0.0974  0.1306 -0.6769
  930MOL0     C25469   0.718   6.973  10.460  0.0583 -0.3330 -0.0621
  930MOL0     C25470   0.744   6.520  10.572  0.3315  0.4734  0.3085
  930MOL0     C25471   0.748   6.378  10.547  0.2481  0.1219  0.3495
  930MOL0     C25472   0.814   6.293  10.635  0.4062 -0.1394 -0.8847
  930MOL0     C25473   0.890   6.350  10.729 -0.3409 -0.1711 -0.0557
  930MOL0     O25474   0.964   6.262  10.801  0.5846 -0.1095  0.4851
  930MOL0     C25475   0.906   6.232  10.935  0.2069 -1.5918  0.7247
  930MOL0     C25476   0.812   6.113  10.928  0.8812 -0.0365  0.3170
  930MOL0     C25477   0.871   5.985  10.872 -0.5318  0.2800 -0.9080
  930MOL0     C25478   0.977   5.908  10.967 -0.5289 -0.0284  0.6339
  930MOL0     C25479   0.927   5.866  11.096  0.2201 -0.0889 -0.0014
  930MOL0     C25480   0.869   5.837  11.196 -0.5118  0.6963 -0.9512
  930MOL0     C25481   0.888   6.490  10.756  0.6535 -0.4456  0.2531
  930MOL0     C25482   0.811   6.577  10.684  0.3608  0.1029  0.9457
  930MOL0     H25483   0.686   6.740  10.217  1.1859  0.2477 -1.4113
  930MOL0     H25484   0.715   6.945  10.068  2.9493  0.0010 -0.6391
  930MOL0     H25485   0.629   7.331  10.205 -0.5046 -0.6860 -3.1262
  930MOL0     H25486   0.796   7.331  10.264 -0.4903  2.3235  1.1500
  930MOL0     H25487   0.801   7.502  10.086 -1.0291 -0.3553  2.1263
  930MOL0     H25488   0.872   7.364  10.012  0.6287  1.9761 -0.3903
  930MOL0     H25489   0.604   7.316   9.952 -2.9858  2.6673  0.8032
  930MOL0     H25490   0.596   7.475   9.983 -1.3258 -2.9197  1.6911
  930MOL0     H25491   0.774   7.536   9.821  0.5595  0.0283  0.8825
  930MOL0     H25492   0.801   7.366   9.788 -0.6020 -0.1489 -2.2640
  930MOL0     H25493   0.576   7.335   9.707  3.1628 -0.9932 -2.5047
  930MOL0     H25494   0.554   7.514   9.709  1.5436  1.5322  2.2003
  930MOL0     H25495   0.711   7.552   9.537 -2.0871  0.5407  2.4538
  930MOL0     H25496   0.778   7.400   9.545  0.1348 -0.5506  0.0454
  930MOL0     H25497   0.475   7.421   9.492  0.3493  0.1420  0.5844
  930MOL0     H25498   0.574   7.467   9.363 -3.6242  0.2896  0.1788
  930MOL0     H25499   0.564   7.198   9.503  2.3511 -0.6726 -0.0957
  930MOL0     H25500   0.685   7.230   9.378  1.5047  1.9431  1.8915
  930MOL0     H25501   0.295   7.281   9.365 -2.5271  0.8596 -3.1674
  930MOL0     H25502   0.131   7.243   9.163 -1.5302 -0.5294  0.8691
  930MOL0     H25503   0.171   7.142   9.029 -1.7722 -0.0704  0.7053
  930MOL0     H25504   0.015   7.022   9.194 -0.2781 -0.4552  0.6106
  930MOL0     H25505   0.121   7.040   9.322  1.2764 -0.3659 -0.0548
  930MOL0     H25506   0.119   6.811   9.229  1.0062  0.8886  0.8187
  930MOL0     H25507   0.277   6.880   9.211  0.8277 -1.0137 -0.8892
  930MOL0     H25508   0.202   6.741   9.028 -0.9163  0.1172 -1.2787
  930MOL0     H25509   0.253   6.887   8.969 -1.6319  0.6553 -1.2887
  930MOL0     H25510  -0.034   6.685   9.104  0.4255 -0.3412  1.1534
  930MOL0     H25511  -0.189   6.570   9.204 -0.4820 -0.2988 -1.9126
  930MOL0     H25512  -0.286   6.669   9.308  1.7750  0.5360 -0.9597
  930MOL0     H25513  -0.372   6.593   9.184 -0.1825  1.2196 -0.1366
  930MOL0     H25514  -0.647   6.978   9.297  1.4712  3.6870 -0.3925
  930MOL0     H25515  -0.911   7.049   9.369  1.6004 -1.0996  0.8653
  930MOL0     H25516  -1.135   7.057   9.371 -2.1259 -1.1041 -1.2853
  930MOL0     H25517  -1.073   7.216   9.334  1.3281 -0.5478  2.4092
  930MOL0     H25518  -1.273   7.241   9.160  3.8125  0.6923  1.2664
  930MOL0     H25519  -1.336   7.098   9.205 -1.0634  2.9042 -6.0553
  930MOL0     H25520  -1.289   7.308   9.423  1.3662 -0.8368 -0.1042
  930MOL0     H25521  -1.397   7.164   9.436 -1.4262 -1.2588 -0.8821
  930MOL0     H25522  -1.464   7.393   9.258  1.2680 -0.3304  0.2227
  930MOL0     H25523  -1.547   7.248   9.289 -1.3068  0.4556  2.1041
  930MOL0     H25524  -1.528   7.497   9.434 -0.1876  0.8095  0.1047
  930MOL0     H25525  -1.525   7.351   9.541 -0.1786 -1.9091 -1.8969
  930MOL0     H25526  -1.730   7.265   9.407  1.4159  0.2691 -3.7784
  930MOL0     H25527  -1.755   7.394   9.526  1.7558 -1.4307  1.8918
  930MOL0     H25528  -1.867   7.406   9.285 -0.6687 -1.1950  1.5833
  930MOL0     H25529  -1.715   7.442   9.218 -0.0441  2.6954 -1.6608
  930MOL0     H25530  -1.899   7.563   9.407  0.5804 -1.1571  0.0383
  930MOL0     H25531  -1.844   7.649   9.260  1.2019  3.0506  1.7270
  930MOL0     H25532  -1.015   6.988   8.962  1.9027 -4.3670 -1.9082
  930MOL0     H25533  -0.780   6.962   8.901 -0.0027  0.5025 -0.1406
  930MOL0     H25534  -0.372   7.037   8.972 -1.1465 -0.4075  0.6045
  930MOL0     H25535  -0.160   7.055   8.905  2.2432  0.2697 -1.1083
  930MOL0     H25536   0.722   7.182  10.426  1.8255 -0.5288  0.6419
  930MOL0     H25537   0.720   6.980  10.568 -1.4174 -3.6996  0.3086
  930MOL0     H25538   0.691   6.354  10.458 -1.2118  0.8760  1.0519
  930MOL0     H25539   0.807   6.186  10.618 -0.9270  0.2579 -3.3634
  930MOL0     H25540   0.997   6.206  10.990  0.2113 -3.6627 -0.1838
  930MOL0     H25541   0.856   6.324  10.968  2.9741 -0.7491  3.0059
  930MOL0     H25542   0.725   6.142  10.869  3.0334  3.9464 -1.2821
  930MOL0     H25543   0.762   6.094  11.023  1.6492  1.2924  1.0126
  930MOL0     H25544   0.915   6.000  10.773  2.2795  0.9985  0.3348
  930MOL0     H25545   0.785   5.919  10.856 -0.3357 -0.5644  1.2761
  930MOL0     H25546   1.067   5.968  10.980 -1.0421  0.4462  2.2620
  930MOL0     H25547   1.012   5.820  10.912  0.3099 -1.3506  3.1404
  930MOL0     H25548   0.820   5.801  11.284  0.3283  3.0162  0.5825
  930MOL0     H25549   0.925   6.547  10.840 -1.1424  1.7995 -0.3871
  930MOL0     H25550   0.812   6.683  10.705 -1.4032  0.2075  0.7202
  931MOL0     O25551  10.899   7.397   3.632  0.0642  0.2599  0.2411
  931MOL0     C25552  10.994   7.324   3.598  0.0204  0.0546 -0.2366
  931MOL0     O25553  10.995   7.238   3.489 -0.0645 -0.6143  0.2960
  931MOL0     C25554  10.870   7.220   3.436 -0.9918  0.3343  0.0036
  931MOL0     C25555  10.787   7.326   3.375 -0.0181 -0.3042 -0.8586
  931MOL0     C25556  10.663   7.297   3.330 -0.5282  0.2576  0.5197
  931MOL0     C25557  10.612   7.166   3.330 -0.7924  0.6750 -0.5660
  931MOL0     O25558  10.489   7.156   3.280  0.4733  0.1716 -0.8201
  931MOL0     C25559  10.419   7.042   3.265 -0.5745 -0.4406  0.1528
  931MOL0     C25560  10.296   7.089   3.192  0.1211 -0.7563  0.1182
  931MOL0     C25561  10.185   6.990   3.170  0.2140  0.0256  0.9603
  931MOL0     C25562  10.107   6.945   3.298  0.0651  0.1423  1.4818
  931MOL0     C25563  10.028   6.808   3.292  0.4019 -0.3178  0.1550
  931MOL0     C25564  10.111   6.686   3.330  0.4368 -0.5497  1.0712
  931MOL0     C25565  10.062   6.563   3.249  0.2295 -0.8050 -1.0858
  931MOL0     C25566  10.086   6.424   3.305 -0.8858  0.1997 -0.2696
  931MOL0     N25567  10.056   6.318   3.206  0.0232  0.0769  0.3961
  931MOL0     C25568  10.121   6.293   3.086 -0.6292  0.1651  0.0720
  931MOL0     C25569  10.050   6.193   3.028 -0.2431  0.4796 -0.6488
  931MOL0     C25570  10.071   6.137   2.898  0.9899 -0.0156  0.7208
  931MOL0     C25571   9.991   6.214   2.781 -0.2735 -1.2438  0.4476
  931MOL0     C25572   9.867   6.135   2.744 -0.7381 -0.3889  0.8281
  931MOL0     C25573   9.776   6.208   2.637  0.6882  0.1356 -0.1804
  931MOL0     O25574   9.652   6.134   2.627 -0.4172 -0.8313 -0.3963
  931MOL0     C25575   9.549   6.185   2.553  0.0468  0.0711  0.9236
  931MOL0     C25576   9.519   6.156   2.423 -0.2949  1.2597 -0.0804
  931MOL0     C25577   9.398   6.206   2.360  0.1663 -1.0972  0.2144
  931MOL0     C25578   9.365   6.165   2.220  0.4074  0.0772 -0.1406
  931MOL0     C25579   9.315   6.306   2.422  0.5394  0.2240 -0.7879
  931MOL0     C25580   9.199   6.387   2.366 -0.2144  0.2765  1.0082
  931MOL0     O25581   9.092   6.431   2.439 -0.4747 -0.2270 -0.5462
  931MOL0     C25582   8.979   6.472   2.376  0.2321  0.7834 -0.4634
  931MOL0     C25583   8.961   6.546   2.260  0.2019 -0.6584  0.7706
  931MOL0     C25584   8.840   6.583   2.211 -0.7845  0.1069 -0.5275
  931MOL0     C25585   8.722   6.537   2.267 -0.6270  0.5104 -0.5888
  931MOL0     O25586   8.613   6.560   2.183  0.2801  0.5624 -0.2392
  931MOL0     C25587   8.517   6.655   2.228  0.0740 -0.0145  0.2135
  931MOL0     C25588   8.425   6.670   2.116  0.0025  0.0180 -1.0742
  931MOL0     C25589   8.346   6.547   2.082  1.0132  0.2746  0.1335
  931MOL0     C25590   8.239   6.514   2.191 -0.6637 -0.1730  0.6957
  931MOL0     C25591   8.180   6.364   2.170 -0.6644  0.1174 -1.0232
  931MOL0     C25592   8.090   6.329   2.286 -1.1434 -0.6846 -0.8845
  931MOL0     C25593   7.960   6.402   2.299  0.5290 -0.4121 -0.1710
  931MOL0     C25594   7.859   6.364   2.191  0.4255  0.7066 -1.3001
  931MOL0    Cl25595   7.804   6.188   2.214 -0.1788  0.0728  0.4769
  931MOL0     C25596   8.729   6.465   2.391 -0.9450  0.9829  0.4267
  931MOL0     C25597   8.856   6.439   2.444 -1.0563 -0.8298 -0.8898
  931MOL0     O25598   9.214   6.409   2.250  0.1853  0.3698  0.6053
  931MOL0     C25599   9.333   6.314   2.562 -0.8926  0.0079 -0.0710
  931MOL0     C25600   9.448   6.255   2.627 -0.7021 -0.1730  0.2674
  931MOL0     N25601   9.945   6.170   3.116 -0.9584 -0.0959 -0.6564
  931MOL0     N25602   9.948   6.239   3.220 -0.0017 -0.7763 -0.3504
  931MOL0     C25603  10.700   7.065   3.378  1.1029 -0.0933 -0.4500
  931MOL0     C25604  10.826   7.089   3.434 -0.4920  0.2177  0.1127
  931MOL0     C25605  11.131   7.350   3.655  0.5497 -0.0256 -0.2931
  931MOL0     C25606  11.250   7.265   3.640  0.4709  0.0672 -0.2563
  931MOL0     C25607  11.364   7.283   3.710  0.1115  0.4447 -1.4157
  931MOL0     C25608  11.367   7.395   3.802 -1.0238 -0.0681  0.2875
  931MOL0     O25609  11.482   7.416   3.882  0.3450  0.6874  0.5967
  931MOL0     C25610  11.558   7.529   3.844 -0.5459  0.8012 -0.1848
  931MOL0     C25611  11.703   7.497   3.845 -0.4026  0.5324 -0.4295
  931MOL0     C25612  11.747   7.371   3.757 -0.0623  0.2450 -0.0795
  931MOL0     C25613  11.713   7.387   3.606  0.2916  0.0617 -0.3173
  931MOL0     C25614  11.736   7.518   3.552  0.1941 -0.0282 -0.0838
  931MOL0     C25615  11.754   7.627   3.498 -0.5471 -0.9060  0.5180
  931MOL0     C25616  11.257   7.475   3.820  0.7013  0.6347  0.4109
  931MOL0     C25617  11.143   7.448   3.752 -0.3691 -0.6411  0.0066
  931MOL0     H25618  10.816   7.429   3.391 -0.0527 -0.6724  2.0957
  931MOL0     H25619  10.611   7.383   3.287 -0.1955 -0.5622 -1.6614
  931MOL0     H25620  10.472   6.959   3.217  0.5890 -0.7577  1.9244
  931MOL0     H25621  10.372   6.995   3.351  0.4008 -0.8180  0.4971
  931MOL0     H25622  10.251   7.172   3.246  0.3936  1.1797 -2.4059
  931MOL0     H25623  10.318   7.133   3.094 -0.3634 -0.0930  0.3043
  931MOL0     H25624  10.113   7.033   3.100 -1.2334 -0.0953  2.3044
  931MOL0     H25625  10.216   6.900   3.116 -1.0112 -0.9294  1.8072
  931MOL0     H25626  10.176   6.932   3.383  1.8491 -1.6277 -0.1278
  931MOL0     H25627  10.029   7.019   3.315 -0.6391 -0.1240 -0.4022
  931MOL0     H25628   9.948   6.817   3.366 -0.3141 -1.1829 -0.4848
  931MOL0     H25629   9.989   6.788   3.191 -1.5538 -0.4948  0.9022
  931MOL0     H25630  10.207   6.717   3.287 -0.9285 -1.7144 -3.3906
  931MOL0     H25631  10.112   6.671   3.438 -0.6321 -3.0966  0.8012
  931MOL0     H25632   9.954   6.567   3.236 -0.4681 -0.9436  3.3184
  931MOL0     H25633  10.122   6.562   3.157  0.1789 -2.3493 -1.1294
  931MOL0     H25634  10.023   6.409   3.394  0.4446 -0.1745  0.6371
  931MOL0     H25635  10.192   6.418   3.330 -0.7590 -0.2767 -0.9014
  931MOL0     H25636  10.205   6.351   3.049 -1.6461  1.2105 -0.6712
  931MOL0     H25637  10.177   6.163   2.885  1.6696 -1.8582  2.1733
  931MOL0     H25638  10.046   6.032   2.886 -3.5227  0.9333  0.1485
  931MOL0     H25639  10.061   6.229   2.699 -2.1413 -0.0412 -1.0076
  931MOL0     H25640   9.953   6.314   2.803  0.8250  0.5072 -4.4677
  931MOL0     H25641   9.812   6.092   2.828 -0.3187 -1.6440  0.4891
  931MOL0     H25642   9.913   6.047   2.697  2.5011  0.3537  2.3390
  931MOL0     H25643   9.832   6.203   2.542 -1.4043  0.5361 -1.5006
  931MOL0     H25644   9.755   6.311   2.667  1.2265 -0.5538  2.8244
  931MOL0     H25645   9.576   6.077   2.375 -2.2982 -1.6241  1.9073
  931MOL0     H25646   9.425   6.079   2.191  0.6455 -0.1544  0.9758
  931MOL0     H25647   9.256   6.155   2.213  0.2268  2.0830 -0.6851
  931MOL0     H25648   9.398   6.236   2.144  1.3823  0.6818  0.8242
  931MOL0     H25649   9.054   6.586   2.219 -0.7536  0.3939 -0.4560
  931MOL0     H25650   8.830   6.651   2.126 -1.5444  1.7499  0.8038
  931MOL0     H25651   8.468   6.631   2.323  0.8023  1.2198  0.9252
  931MOL0     H25652   8.561   6.755   2.240 -3.6250  1.9526 -1.0159
  931MOL0     H25653   8.350   6.742   2.148  0.8147  0.4262 -0.0266
  931MOL0     H25654   8.477   6.712   2.029 -1.7523  2.2214 -1.1292
  931MOL0     H25655   8.416   6.463   2.075  2.5147  1.5822 -1.4856
  931MOL0     H25656   8.307   6.567   1.983  3.8726  0.8466 -0.9841
  931MOL0     H25657   8.278   6.516   2.293 -0.5030 -0.2603  0.6367
  931MOL0     H25658   8.161   6.588   2.169  1.0157  1.0182 -1.7278
  931MOL0     H25659   8.265   6.295   2.176 -0.4875  0.2579 -1.8348
  931MOL0     H25660   8.135   6.346   2.072 -1.7649  2.3345 -0.9968
  931MOL0     H25661   8.070   6.222   2.290  1.7062 -1.2772  2.8123
  931MOL0     H25662   8.150   6.353   2.374 -0.0950 -0.3517 -1.6807
  931MOL0     H25663   7.978   6.509   2.288  1.0724 -0.0427  3.2288
  931MOL0     H25664   7.915   6.391   2.399  3.3121 -1.0237  1.1012
  931MOL0     H25665   7.900   6.385   2.092 -0.7976  0.2610 -1.9204
  931MOL0     H25666   7.778   6.438   2.187 -1.0492 -0.8299 -1.1590
  931MOL0     H25667   8.639   6.429   2.440 -0.1982  1.9927  2.6682
  931MOL0     H25668   8.868   6.380   2.535  3.0518 -1.1823 -1.4894
  931MOL0     H25669   9.268   6.378   2.622  1.4832  2.4821  0.0469
  931MOL0     H25670   9.466   6.260   2.734 -1.4850 -1.4993  0.4797
  931MOL0     H25671  10.645   6.972   3.367 -1.0812  1.0679 -0.0194
  931MOL0     H25672  10.889   7.011   3.475 -1.6121  0.7503  3.1896
  931MOL0     H25673  11.239   7.172   3.587 -0.3599 -0.5454  0.9605
  931MOL0     H25674  11.446   7.212   3.712  0.2655  0.6114 -1.8646
  931MOL0     H25675  11.542   7.572   3.744  1.9570 -1.0433 -1.4906
  931MOL0     H25676  11.548   7.608   3.920 -0.3812  4.6013 -3.7420
  931MOL0     H25677  11.749   7.471   3.941  1.0376 -1.6891 -1.6234
  931MOL0     H25678  11.762   7.582   3.811  4.8143 -2.8225 -0.9965
  931MOL0     H25679  11.684   7.287   3.790  1.3822 -0.8429  0.0238
  931MOL0     H25680  11.852   7.342   3.770 -0.6184 -1.9694 -0.1260
  931MOL0     H25681  11.604   7.379   3.602 -0.0630  2.5527  1.8447
  931MOL0     H25682  11.765   7.309   3.550  0.9200 -0.8662  1.4621
  931MOL0     H25683  11.760   7.721   3.447  1.5337 -0.5198  1.3660
  931MOL0     H25684  11.246   7.548   3.900 -1.0466  1.3212 -0.4138
  931MOL0     H25685  11.056   7.510   3.773 -1.1184 -2.6763  3.8939
  932MOL0     O25686   5.034  10.980   6.355  0.2445 -0.9898 -0.2929
  932MOL0     C25687   4.963  10.963   6.250  0.2449  0.3039  0.0061
  932MOL0     O25688   5.003  10.912   6.130 -0.1257 -0.1802  0.6256
  932MOL0     C25689   5.134  10.862   6.108 -0.4307 -0.6864  0.1634
  932MOL0     C25690   5.149  10.805   5.981 -0.2414 -0.1709  0.3085
  932MOL0     C25691   5.271  10.757   5.937 -0.4448 -0.1616 -0.2076
  932MOL0     C25692   5.380  10.762   6.025  0.1344 -0.2519 -0.1706
  932MOL0     O25693   5.496  10.722   5.975 -0.1992 -0.8279  0.3016
  932MOL0     C25694   5.620  10.759   6.046  0.1224  0.2539 -1.1205
  932MOL0     C25695   5.734  10.685   5.962  0.0728 -1.0958 -0.9512
  932MOL0     C25696   5.871  10.739   5.997 -0.1414  0.2040 -0.6423
  932MOL0     C25697   5.925  10.826   5.879  0.3744 -0.1987 -0.4876
  932MOL0     C25698   6.058  10.886   5.922 -0.0235  0.1622 -0.1571
  932MOL0     C25699   6.110  10.971   5.807  0.4185 -0.1555 -0.1161
  932MOL0     C25700   6.261  11.001   5.818  0.6105  0.5436  0.1830
  932MOL0     C25701   6.293  11.137   5.755  0.1702  0.5988 -0.1156
  932MOL0     N25702   6.439  11.153   5.746 -0.3939 -0.3090 -0.5535
  932MOL0     C25703   6.514  11.186   5.626 -0.2674 -0.2190 -0.9981
  932MOL0     C25704   6.633  11.219   5.666 -0.0856 -0.1284  0.4162
  932MOL0     C25705   6.746  11.267   5.578 -0.4753  1.0851 -0.4426
  932MOL0     C25706   6.742  11.401   5.512  0.2409 -0.8785  0.3156
  932MOL0     C25707   6.792  11.525   5.603 -0.1571 -0.1097  0.7182
  932MOL0     C25708   6.756  11.654   5.529 -0.0134  0.7715  0.1364
  932MOL0     O25709   6.621  11.665   5.482  0.5406 -0.3735 -0.3904
  932MOL0     C25710   6.579  11.773   5.410 -0.0281  0.4986  0.1614
  932MOL0     C25711   6.650  11.888   5.369 -0.6906  0.1727 -0.4978
  932MOL0     C25712   6.600  11.983   5.280 -0.0550  0.3261 -0.5292
  932MOL0     C25713   6.682  12.105   5.258  0.2208  0.1546  0.4242
  932MOL0     C25714   6.468  11.962   5.234 -0.1038  0.0340 -0.3152
  932MOL0     C25715   6.410  12.061   5.143 -0.1804 -0.1307  0.0350
  932MOL0     O25716   6.294  12.114   5.189 -0.4061 -0.0681 -0.2706
  932MOL0     C25717   6.237  12.200   5.095 -1.1898  0.4078 -0.5534
  932MOL0     C25718   6.129  12.157   5.016 -0.0139 -1.1527  1.4432
  932MOL0     C25719   6.045  12.251   4.949  0.7028 -0.7911 -0.7500
  932MOL0     C25720   6.079  12.391   4.955  0.4108  0.1792 -0.1338
  932MOL0     O25721   6.013  12.488   4.886 -0.6204 -0.1354 -0.0838
  932MOL0     C25722   5.928  12.453   4.777  0.0081 -0.1088 -0.0994
  932MOL0     C25723   5.888  12.587   4.711 -0.7162 -0.7539 -0.0849
  932MOL0     C25724   5.801  12.547   4.589  0.3858 -0.8387 -0.4601
  932MOL0     C25725   5.889  12.517   4.470  1.0519  0.2222 -0.0523
  932MOL0     C25726   5.800  12.440   4.359 -0.6522 -0.6577 -0.5119
  932MOL0     C25727   5.696  12.532   4.283 -0.5771  0.8350  0.2120
  932MOL0     C25728   5.623  12.436   4.180 -0.2318 -0.2569 -1.4193
  932MOL0     C25729   5.511  12.515   4.120  0.2974 -0.3138 -0.4431
  932MOL0    Cl25730   5.358  12.422   4.083 -0.3334  0.1175  0.6523
  932MOL0     C25731   6.185  12.434   5.041 -0.8501 -0.2363  0.2224
  932MOL0     C25732   6.259  12.339   5.106 -0.0560  0.3539  1.0471
  932MOL0     O25733   6.463  12.069   5.031  0.0488 -1.1308 -0.4778
  932MOL0     C25734   6.388  11.861   5.289 -0.1619  0.0362  0.0502
  932MOL0     C25735   6.444  11.766   5.370  0.1594  0.5795 -0.4076
  932MOL0     N25736   6.645  11.202   5.800  0.0276  0.0729 -0.9383
  932MOL0     N25737   6.527  11.166   5.850  0.4243 -0.5818 -0.2409
  932MOL0     C25738   5.356  10.811   6.152 -0.4960 -0.4312 -0.5538
  932MOL0     C25739   5.237  10.848   6.197  0.3011 -0.2374 -0.5584
  932MOL0     C25740   4.836  11.020   6.245  0.1646 -0.4145  0.7396
  932MOL0     C25741   4.741  10.954   6.166  0.5773 -0.2151 -0.1998
  932MOL0     C25742   4.614  11.018   6.143 -0.5355  0.4372 -0.2144
  932MOL0     C25743   4.584  11.143   6.213  0.0063  0.6369 -0.2838
  932MOL0     O25744   4.470  11.214   6.194  0.1412 -0.9714  0.1859
  932MOL0     C25745   4.399  11.226   6.065  0.0113 -0.1860  0.0952
  932MOL0     C25746   4.245  11.240   6.074 -0.4654  1.0457  1.3092
  932MOL0     C25747   4.201  11.357   6.140  0.9613 -0.1552 -0.1452
  932MOL0     C25748   4.053  11.363   6.186  0.2236  1.4391 -0.0113
  932MOL0     C25749   4.021  11.469   6.273  0.6141 -0.3040 -0.8337
  932MOL0     C25750   3.982  11.571   6.314  0.0765 -0.3750 -0.1501
  932MOL0     C25751   4.683  11.206   6.292  0.0360  0.2261 -0.3437
  932MOL0     C25752   4.805  11.136   6.310  1.2609 -0.5373 -0.0584
  932MOL0     H25753   5.058  10.807   5.921  0.5457  0.0941 -0.8970
  932MOL0     H25754   5.282  10.726   5.834  2.5802  2.0590 -0.7016
  932MOL0     H25755   5.621  10.869   6.045  1.4547  0.2612 -1.7592
  932MOL0     H25756   5.614  10.724   6.149  3.1762  0.6745 -0.6857
  932MOL0     H25757   5.733  10.578   5.989 -0.1426 -0.5625  1.4381
  932MOL0     H25758   5.718  10.704   5.856  4.5502  0.0026 -1.6150
  932MOL0     H25759   5.876  10.787   6.095 -2.5456 -2.8488  1.1792
  932MOL0     H25760   5.942  10.655   5.994 -2.1203 -1.5164 -2.2546
  932MOL0     H25761   5.939  10.765   5.790  0.0919 -1.9123  0.5944
  932MOL0     H25762   5.860  10.911   5.860  0.5461 -0.6046 -3.2700
  932MOL0     H25763   6.043  10.956   6.005  1.9910 -3.0532  3.2122
  932MOL0     H25764   6.132  10.810   5.948 -0.7818 -1.2202 -1.8434
  932MOL0     H25765   6.088  10.921   5.712  0.0447 -3.5787  1.5755
  932MOL0     H25766   6.047  11.060   5.809 -0.4151 -0.7436  1.2495
  932MOL0     H25767   6.278  11.007   5.926  0.5287  1.1737  0.1676
  932MOL0     H25768   6.319  10.917   5.780 -3.3456 -3.6258  2.4040
  932MOL0     H25769   6.252  11.217   5.817 -2.8098 -1.4981  0.8300
  932MOL0     H25770   6.234  11.132   5.663 -1.2865  0.1724  0.8131
  932MOL0     H25771   6.491  11.195   5.521 -0.9870 -0.5416 -0.8731
  932MOL0     H25772   6.842  11.252   5.629 -1.7340 -1.2749  1.4276
  932MOL0     H25773   6.732  11.205   5.489  2.2293  1.2634 -1.0789
  932MOL0     H25774   6.641  11.413   5.471 -0.1268 -0.6849  1.2482
  932MOL0     H25775   6.806  11.397   5.424  1.5227 -1.8163  1.2560
  932MOL0     H25776   6.900  11.518   5.612  0.4359  3.7392 -1.3302
  932MOL0     H25777   6.755  11.523   5.706  0.9968  1.9267  1.2121
  932MOL0     H25778   6.835  11.673   5.456  1.9232 -0.1792  1.8984
  932MOL0     H25779   6.765  11.737   5.601  0.4950  1.2897 -0.5109
  932MOL0     H25780   6.753  11.902   5.401 -0.6416 -0.8121 -0.1892
  932MOL0     H25781   6.758  12.123   5.335  1.8727 -0.3257 -1.0373
  932MOL0     H25782   6.734  12.090   5.163  1.3545  2.7111  0.5400
  932MOL0     H25783   6.624  12.197   5.242  0.3995 -0.0355 -1.5903
  932MOL0     H25784   6.098  12.053   5.019  1.5151 -1.7730 -1.3286
  932MOL0     H25785   5.955  12.206   4.908  0.0925  1.0261 -1.5295
  932MOL0     H25786   5.971  12.376   4.713  0.7989  1.5714 -1.6696
  932MOL0     H25787   5.833  12.412   4.814 -0.1506 -0.8759 -1.2992
  932MOL0     H25788   5.822  12.640   4.781 -2.4430  1.0013 -2.8145
  932MOL0     H25789   5.974  12.650   4.689 -2.7525  1.8046 -1.3259
  932MOL0     H25790   5.747  12.638   4.563 -0.5581 -1.3724 -0.4113
  932MOL0     H25791   5.741  12.457   4.606 -1.6071  0.8186  2.1480
  932MOL0     H25792   5.935  12.608   4.430  1.4570 -0.7206 -1.8574
  932MOL0     H25793   5.971  12.445   4.480  0.7977 -0.3026 -1.4034
  932MOL0     H25794   5.744  12.359   4.407 -1.5731  1.5247  2.4050
  932MOL0     H25795   5.861  12.388   4.285  1.6613  1.7920 -0.4845
  932MOL0     H25796   5.618  12.561   4.354  0.3882 -0.5499  1.9103
  932MOL0     H25797   5.752  12.609   4.231  1.1392 -0.2439  0.3794
  932MOL0     H25798   5.581  12.352   4.235 -2.5347  2.6945  1.7830
  932MOL0     H25799   5.703  12.400   4.115  0.1418 -0.1466 -1.0316
  932MOL0     H25800   5.558  12.558   4.031 -0.5448  2.1893  0.2434
  932MOL0     H25801   5.477  12.602   4.176 -2.0820 -2.3263  1.4770
  932MOL0     H25802   6.219  12.537   5.036  1.9919 -1.0714  0.7571
  932MOL0     H25803   6.339  12.375   5.170  0.5355  2.4204 -0.7600
  932MOL0     H25804   6.288  11.861   5.247 -0.9939  1.6656  1.8730
  932MOL0     H25805   6.396  11.677   5.409  2.4243 -1.0493 -1.1105
  932MOL0     H25806   5.429  10.797   6.231 -1.7842  0.0783  0.7964
  932MOL0     H25807   5.230  10.878   6.301  1.4320 -1.2188 -0.1730
  932MOL0     H25808   4.756  10.855   6.124  4.5830 -1.7730  3.9867
  932MOL0     H25809   4.534  10.989   6.076 -1.5628  1.6558  0.4377
  932MOL0     H25810   4.443  11.306   6.004 -1.2135 -2.1975 -3.7912
  932MOL0     H25811   4.416  11.141   5.998 -1.8907  0.0324 -0.7232
  932MOL0     H25812   4.214  11.154   6.134 -1.1254  1.7385  1.9837
  932MOL0     H25813   4.200  11.236   5.974  1.6060  0.0322  0.3402
  932MOL0     H25814   4.218  11.447   6.079  1.1986 -1.5144 -2.1777
  932MOL0     H25815   4.265  11.359   6.229  1.1644  0.1340 -0.2939
  932MOL0     H25816   4.028  11.270   6.237 -3.4384 -0.9540 -5.3439
  932MOL0     H25817   3.981  11.351   6.105 -0.6461 -3.9221  1.2178
  932MOL0     H25818   3.950  11.660   6.365 -0.8930 -3.1140  4.5626
  932MOL0     H25819   4.664  11.300   6.342  0.6637 -0.1315  0.5843
  932MOL0     H25820   4.880  11.175   6.378  1.6452 -0.1485 -0.6841
  933MOL0     O25821   4.154  10.975   8.216  0.1584 -0.9033  0.8438
  933MOL0     C25822   4.112  11.084   8.160  0.5037 -0.0810  0.9808
  933MOL0     O25823   3.982  11.124   8.163  0.9582 -0.3473  0.2046
  933MOL0     C25824   3.894  11.070   8.254  0.3259 -0.1774  0.0697
  933MOL0     C25825   3.934  11.056   8.397  0.1934 -0.9096  0.0201
  933MOL0     C25826   3.835  11.020   8.492  0.3640  0.0663 -0.0899
  933MOL0     C25827   3.701  10.992   8.448  0.1931  0.8274 -0.2983
  933MOL0     O25828   3.600  10.974   8.533  0.0021  0.0727  0.5936
  933MOL0     C25829   3.609  11.051   8.652  0.6583 -0.0242 -1.0797
  933MOL0     C25830   3.464  11.067   8.711 -0.3993  0.4363  0.7568
  933MOL0     C25831   3.466  11.045   8.859 -0.3726 -0.7859  0.8001
  933MOL0     C25832   3.324  11.032   8.924 -0.4986 -0.0737  0.0049
  933MOL0     C25833   3.249  10.905   8.902  0.2083 -0.3580 -0.7573
  933MOL0     C25834   3.107  10.916   8.849  0.1246 -0.0450  0.1244
  933MOL0     C25835   2.994  10.933   8.954  0.3087  0.3975  0.8480
  933MOL0     C25836   3.015  11.065   9.032  0.0453  0.6276 -0.1863
  933MOL0     N25837   2.993  11.180   8.942  0.3730  0.9269  0.0561
  933MOL0     C25838   3.083  11.282   8.912 -0.3839  0.3827 -1.1480
  933MOL0     C25839   3.034  11.349   8.811  0.4201  0.2689  0.3970
  933MOL0     C25840   3.106  11.459   8.742 -0.1122 -0.1282 -0.2731
  933MOL0     C25841   3.252  11.430   8.720 -0.3803 -0.4558  0.4814
  933MOL0     C25842   3.321  11.540   8.638 -0.5493  0.2062  0.4031
  933MOL0     C25843   3.447  11.494   8.572  0.2512  0.3640  0.2437
  933MOL0     O25844   3.533  11.426   8.662  0.1876 -0.7243  1.1648
  933MOL0     C25845   3.662  11.397   8.626  0.2781  0.2100 -0.7708
  933MOL0     C25846   3.718  11.409   8.495 -0.0763  0.1566  0.2018
  933MOL0     C25847   3.853  11.399   8.470  0.5877 -0.2208  0.3490
  933MOL0     C25848   3.905  11.416   8.331  0.2902 -0.4502 -0.5065
  933MOL0     C25849   3.939  11.357   8.581  0.5268 -0.8960  0.1673
  933MOL0     C25850   4.086  11.369   8.570  0.5411  0.6347 -0.1825
  933MOL0     O25851   4.175  11.265   8.603  0.0319  0.2220  0.1029
  933MOL0     C25852   4.301  11.274   8.549  0.6034  0.1706 -0.2133
  933MOL0     C25853   4.389  11.355   8.620  0.1685  0.5164  0.1622
  933MOL0     C25854   4.519  11.384   8.572 -0.0443  0.9038 -1.0228
  933MOL0     C25855   4.554  11.326   8.443  0.1494  0.9619 -0.1836
  933MOL0     O25856   4.682  11.355   8.403  0.2254 -0.6202  0.3812
  933MOL0     C25857   4.736  11.325   8.273  0.4734 -0.9912  0.2519
  933MOL0     C25858   4.824  11.447   8.238  0.7461 -0.3405  0.0218
  933MOL0     C25859   4.911  11.421   8.109 -1.0110 -0.3868  0.1149
  933MOL0     C25860   5.047  11.346   8.143  0.6212  0.3901  0.2070
  933MOL0     C25861   5.127  11.319   8.009  0.3402 -0.6387 -0.0461
  933MOL0     C25862   5.274  11.271   8.039 -0.4816 -0.2424  0.2123
  933MOL0     C25863   5.363  11.401   8.060  0.4461 -0.3357  0.5696
  933MOL0     C25864   5.515  11.375   8.056 -0.0473  0.2084  0.5404
  933MOL0    Cl25865   5.546  11.345   7.880 -0.4545 -0.2121 -0.5515
  933MOL0     C25866   4.469  11.231   8.376  0.4860 -0.5512 -0.5004
  933MOL0     C25867   4.340  11.212   8.428 -0.6955 -0.2737 -0.2459
  933MOL0     O25868   4.128  11.478   8.527 -0.7484  0.4075 -1.1319
  933MOL0     C25869   3.880  11.330   8.713 -0.1713 -0.4638  0.4950
  933MOL0     C25870   3.741  11.348   8.727 -0.1196  1.3794 -1.0791
  933MOL0     N25871   2.912  11.291   8.770  0.0055  0.1429 -0.8654
  933MOL0     N25872   2.886  11.192   8.853 -0.0833 -0.7750  0.4133
  933MOL0     C25873   3.662  11.011   8.312 -0.3975  0.1926 -0.6375
  933MOL0     C25874   3.755  11.042   8.218  0.0713 -0.2275  0.0682
  933MOL0     C25875   4.220  11.165   8.093 -0.1747  0.4095 -0.7194
  933MOL0     C25876   4.202  11.297   8.072  0.0191  0.0548 -0.2297
  933MOL0     C25877   4.291  11.371   7.998  0.7631 -0.1913  0.4434
  933MOL0     C25878   4.403  11.318   7.939  0.1414  0.5597 -0.7655
  933MOL0     O25879   4.473  11.400   7.857 -0.3480 -0.6893  0.2301
  933MOL0     C25880   4.610  11.380   7.836  0.4341 -0.5804  0.1229
  933MOL0     C25881   4.665  11.515   7.804 -0.4229  0.4401 -0.6051
  933MOL0     C25882   4.813  11.505   7.762  0.0985 -0.0612 -0.2216
  933MOL0     C25883   4.882  11.644   7.755 -0.6508 -0.3506  1.0525
  933MOL0     C25884   4.798  11.721   7.657 -0.4802 -0.3046  0.2046
  933MOL0     C25885   4.750  11.774   7.562 -1.2410 -0.4342 -0.0316
  933MOL0     C25886   4.429  11.184   7.969 -0.9698 -0.8497  0.1796
  933MOL0     C25887   4.343  11.108   8.048  0.4810 -0.1451  0.2444
  933MOL0     H25888   4.035  11.088   8.419  0.7371 -1.3022 -1.7648
  933MOL0     H25889   3.865  11.021   8.597 -0.7791 -0.7160  0.2655
  933MOL0     H25890   3.677  11.009   8.726  0.7208  1.2400 -0.3848
  933MOL0     H25891   3.642  11.150   8.619  1.2132 -0.0997 -0.7552
  933MOL0     H25892   3.432  11.167   8.679  1.3509  0.5004 -0.9358
  933MOL0     H25893   3.402  10.984   8.676  1.9640 -0.7423 -0.8612
  933MOL0     H25894   3.513  10.948   8.880 -2.0251 -2.0627 -1.0406
  933MOL0     H25895   3.520  11.126   8.908 -1.0160  1.0582 -1.3663
  933MOL0     H25896   3.343  11.040   9.031  0.5125  0.1006 -0.1798
  933MOL0     H25897   3.260  11.116   8.894 -1.5959 -1.0075 -0.3391
  933MOL0     H25898   3.311  10.848   8.831 -2.4403 -1.9161 -2.0020
  933MOL0     H25899   3.243  10.849   8.995 -0.7377 -1.0904 -1.2401
  933MOL0     H25900   3.098  10.990   8.769  0.7554  0.4259  0.4785
  933MOL0     H25901   3.079  10.822   8.800 -3.4155  0.5814  0.7419
  933MOL0     H25902   2.899  10.936   8.900  0.3925  2.2643  0.7496
  933MOL0     H25903   2.986  10.844   9.018  0.8147 -1.4480 -1.4928
  933MOL0     H25904   3.114  11.073   9.077  0.3759 -1.3907 -0.4828
  933MOL0     H25905   2.943  11.062   9.114 -1.1532 -1.9517 -1.2190
  933MOL0     H25906   3.181  11.299   8.956 -0.8472 -0.8205  0.4774
  933MOL0     H25907   3.063  11.474   8.642 -0.0245  1.0159 -0.1568
  933MOL0     H25908   3.089  11.552   8.798 -0.8467  0.7885 -1.9270
  933MOL0     H25909   3.261  11.334   8.668 -1.6951 -0.6271  0.5554
  933MOL0     H25910   3.304  11.418   8.816 -1.1705  3.1926  1.5123
  933MOL0     H25911   3.345  11.607   8.722 -2.8219  1.5348  0.1074
  933MOL0     H25912   3.263  11.599   8.566  0.8897 -1.4461 -2.2649
  933MOL0     H25913   3.480  11.592   8.537 -0.2064  1.6472  3.1233
  933MOL0     H25914   3.422  11.438   8.481  1.3756 -2.4119  1.5257
  933MOL0     H25915   3.662  11.459   8.417  2.7304  1.9140 -0.8182
  933MOL0     H25916   4.009  11.391   8.306  0.9026  0.8670  0.5564
  933MOL0     H25917   3.844  11.359   8.261 -1.0673 -0.0463  0.3085
  933MOL0     H25918   3.899  11.524   8.313 -1.6982 -0.6305 -1.0734
  933MOL0     H25919   4.368  11.394   8.719  3.8380  0.5462  1.0683
  933MOL0     H25920   4.598  11.445   8.614  1.1447  0.5634 -2.6492
  933MOL0     H25921   4.799  11.236   8.284  0.9301 -0.7994 -0.6866
  933MOL0     H25922   4.659  11.316   8.196 -1.4256  4.0841  1.1803
  933MOL0     H25923   4.766  11.539   8.238  0.7213 -0.3489  1.0752
  933MOL0     H25924   4.887  11.471   8.324  1.9208 -0.3072 -0.8267
  933MOL0     H25925   4.928  11.522   8.069 -0.7971  0.3788  1.9959
  933MOL0     H25926   4.853  11.359   8.041 -2.9438  0.6289  0.7359
  933MOL0     H25927   5.097  11.413   8.213 -2.9501  2.5038  0.9892
  933MOL0     H25928   5.035  11.249   8.192 -1.3187  0.4413 -0.0624
  933MOL0     H25929   5.132  11.418   7.963  0.2138  0.2126  1.6934
  933MOL0     H25930   5.069  11.251   7.946  0.5604  1.5409 -2.7953
  933MOL0     H25931   5.283  11.213   8.131  1.0590 -0.1827  0.1235
  933MOL0     H25932   5.313  11.200   7.965  0.3396 -0.1540  0.5441
  933MOL0     H25933   5.324  11.447   8.151 -0.8391  0.4086 -0.3121
  933MOL0     H25934   5.342  11.475   7.982 -0.0270  0.8133  1.7562
  933MOL0     H25935   5.545  11.294   8.123 -0.8696  0.7257  1.5454
  933MOL0     H25936   5.569  11.464   8.090 -2.6712  2.2638 -0.3756
  933MOL0     H25937   4.507  11.179   8.289 -2.0548  0.5723 -2.3879
  933MOL0     H25938   4.272  11.150   8.370  0.9565 -3.1177  0.6416
  933MOL0     H25939   3.949  11.295   8.790  0.5272 -0.9820 -0.3536
  933MOL0     H25940   3.693  11.334   8.823  0.4999  1.0112 -0.8110
  933MOL0     H25941   3.556  11.003   8.287 -0.9108  1.6641  0.8575
  933MOL0     H25942   3.736  11.054   8.112  0.7423 -2.1053 -0.3075
  933MOL0     H25943   4.124  11.349   8.127  1.8724  1.4389  1.2336
  933MOL0     H25944   4.280  11.476   7.975 -0.6130 -0.4821 -0.3234
  933MOL0     H25945   4.657  11.341   7.927 -0.9237 -2.3083  0.1319
  933MOL0     H25946   4.622  11.315   7.748 -1.6839 -2.1802  0.9335
  933MOL0     H25947   4.658  11.589   7.884  0.5821  2.5946 -2.3890
  933MOL0     H25948   4.614  11.561   7.719  1.4027  2.0260 -0.9019
  933MOL0     H25949   4.802  11.474   7.658 -0.5580  0.5845 -0.3605
  933MOL0     H25950   4.868  11.434   7.824 -0.5145 -1.0198 -0.7515
  933MOL0     H25951   4.982  11.632   7.713 -0.3412 -0.7474  1.8953
  933MOL0     H25952   4.893  11.690   7.853  1.6972  0.9968  0.2439
  933MOL0     H25953   4.709  11.807   7.469  3.9885 -0.1019 -2.5815
  933MOL0     H25954   4.515  11.133   7.927  1.9924  1.6818  2.6602
  933MOL0     H25955   4.368  11.006   8.074 -0.9930 -0.1385  1.8726
  934MOL0     O25956   9.432   0.535   2.016 -0.2268  0.6478 -0.7485
  934MOL0     C25957   9.441   0.468   2.121 -0.5028  0.4827 -0.3109
  934MOL0     O25958   9.553   0.436   2.188 -0.0580 -0.3990 -1.0497
  934MOL0     C25959   9.680   0.465   2.144 -1.0384  0.8234  0.6915
  934MOL0     C25960   9.722   0.437   2.011 -0.1656 -0.5807  0.6396
  934MOL0     C25961   9.857   0.460   1.972 -0.6083  0.0990 -0.2708
  934MOL0     C25962   9.951   0.505   2.066 -0.1984 -0.0711 -0.8693
  934MOL0     O25963  10.086   0.519   2.045 -0.0577 -0.8008 -0.4691
  934MOL0     C25964  10.161   0.520   1.919 -0.3033 -0.5806  0.0673
  934MOL0     C25965  10.304   0.479   1.937 -0.0778  0.5519 -0.3601
  934MOL0     C25966  10.370   0.454   1.798  0.3317 -0.3847 -0.3849
  934MOL0     C25967  10.394   0.592   1.726 -0.0121 -0.2433  0.0004
  934MOL0     C25968  10.502   0.573   1.613 -0.1818 -0.3187  0.0342
  934MOL0     C25969  10.516   0.698   1.516 -0.1365 -1.0517  0.2173
  934MOL0     C25970  10.602   0.670   1.384  0.0242 -0.1009  0.2190
  934MOL0     C25971  10.726   0.586   1.433  0.6179  0.3001  0.1552
  934MOL0     N25972  10.838   0.590   1.345  0.0636  0.5685  0.6762
  934MOL0     C25973  10.926   0.483   1.310 -0.0284 -0.8302  0.4318
  934MOL0     C25974  11.024   0.545   1.248 -0.8662 -0.8906 -0.3328
  934MOL0     C25975  11.152   0.475   1.196 -0.2363 -0.2356  0.7621
  934MOL0     C25976  11.110   0.396   1.071  0.6526 -0.0556  0.1248
  934MOL0     C25977  11.192   0.266   1.060  0.1144  0.9194 -0.1342
  934MOL0     C25978  11.175   0.207   0.919 -0.8811  0.1270 -0.7671
  934MOL0     O25979  11.041   0.161   0.903  0.0127 -0.1351 -0.1304
  934MOL0     C25980  10.946   0.232   0.827 -0.8013 -1.1628 -0.0705
  934MOL0     C25981  10.815   0.184   0.824  0.7337 -0.5853 -0.2754
  934MOL0     C25982  10.702   0.245   0.756 -0.6231  0.5580 -0.2354
  934MOL0     C25983  10.572   0.161   0.747 -0.0473 -0.5463 -0.0345
  934MOL0     C25984  10.727   0.362   0.678  0.0326 -0.0250  0.1468
  934MOL0     C25985  10.631   0.431   0.602 -0.0153 -0.1263  0.9456
  934MOL0     O25986  10.518   0.369   0.560 -0.2243  0.7039 -0.6157
  934MOL0     C25987  10.430   0.428   0.477  0.2429  0.2104 -0.0261
  934MOL0     C25988  10.351   0.539   0.523 -0.6496  1.0401 -0.5276
  934MOL0     C25989  10.262   0.595   0.435  0.1053  0.2269 -0.0181
  934MOL0     C25990  10.235   0.551   0.307  0.4927 -0.2739  0.0362
  934MOL0     O25991  10.151   0.625   0.236 -0.2251 -0.1178 -0.5599
  934MOL0     C25992  10.060   0.564   0.152 -0.7817  0.5272  0.3953
  934MOL0     C25993   9.920   0.571   0.206 -0.7789 -0.0329 -0.0778
  934MOL0     C25994   9.822   0.478   0.117 -0.0507 -0.3618 -0.1068
  934MOL0     C25995   9.807   0.533  -0.025  1.2331 -0.0250  0.0487
  934MOL0     C25996   9.723   0.435  -0.118  0.1728  0.4425  0.3547
  934MOL0     C25997   9.760   0.290  -0.133  0.1911 -0.3470 -0.0646
  934MOL0     C25998   9.735   0.236  -0.267  1.2007 -0.5662 -0.8048
  934MOL0     C25999   9.780   0.082  -0.275 -0.2909 -0.6484  0.4642
  934MOL0    Cl26000   9.649  -0.020  -0.199 -0.0488 -0.0935 -0.0121
  934MOL0     C26001  10.311   0.437   0.263  0.1385 -0.2577 -0.9670
  934MOL0     C26002  10.414   0.384   0.345  0.3057 -0.3169  0.4778
  934MOL0     O26003  10.665   0.540   0.560 -0.0687  0.7440 -0.3489
  934MOL0     C26004  10.865   0.417   0.682  0.4021  0.9367 -0.1108
  934MOL0     C26005  10.965   0.348   0.749 -0.6266 -0.4399 -0.3009
  934MOL0     N26006  10.999   0.680   1.231  0.1633  0.1705 -0.8394
  934MOL0     N26007  10.891   0.706   1.297 -0.7142 -0.2150 -0.4004
  934MOL0     C26008   9.910   0.533   2.193  0.6834  0.7620 -0.2138
  934MOL0     C26009   9.773   0.523   2.229  0.0241 -0.0692  0.6014
  934MOL0     C26010   9.318   0.415   2.185 -0.3463  0.0449 -0.0824
  934MOL0     C26011   9.197   0.400   2.121 -0.4592  0.3027 -0.5105
  934MOL0     C26012   9.085   0.346   2.184  0.1393  0.1736 -1.0487
  934MOL0     C26013   9.099   0.300   2.321  0.5821 -0.0660  0.4575
  934MOL0     O26014   9.006   0.252   2.408 -0.2528  0.0095  0.1460
  934MOL0     C26015   8.878   0.226   2.362 -0.3629  0.5094 -0.1014
  934MOL0     C26016   8.854   0.100   2.286 -0.2442 -0.0618  0.0985
  934MOL0     C26017   8.870  -0.031   2.368  0.5166 -0.2227 -0.2203
  934MOL0     C26018   8.796  -0.158   2.316  0.3041  0.4639  0.4591
  934MOL0     C26019   8.654  -0.155   2.275  0.3002 -0.0166  0.6270
  934MOL0     C26020   8.546  -0.149   2.218 -0.6029 -0.4720  0.3863
  934MOL0     C26021   9.223   0.309   2.385  0.3511  0.3236  0.5717
  934MOL0     C26022   9.331   0.368   2.315 -0.5254 -0.1440 -1.0122
  934MOL0     H26023   9.647   0.393   1.947  0.3111 -0.5314  0.0479
  934MOL0     H26024   9.884   0.425   1.873  0.7522  0.3883 -0.0147
  934MOL0     H26025  10.121   0.435   1.864  1.1882 -1.2548 -0.0232
  934MOL0     H26026  10.152   0.620   1.876  1.3792  0.0836  1.1377
  934MOL0     H26027  10.364   0.558   1.984 -0.8143  1.3310 -0.6977
  934MOL0     H26028  10.313   0.391   2.001 -0.6981  0.7651  0.0320
  934MOL0     H26029  10.461   0.396   1.812 -1.3256 -2.8867  0.8542
  934MOL0     H26030  10.299   0.386   1.749 -1.4892  2.3131 -1.7478
  934MOL0     H26031  10.293   0.620   1.695  0.2104 -0.0990 -0.5936
  934MOL0     H26032  10.445   0.669   1.787 -1.6942  2.4915 -1.8393
  934MOL0     H26033  10.595   0.545   1.662 -1.3692 -0.1554  2.5257
  934MOL0     H26034  10.467   0.500   1.539 -0.8064  1.2243 -1.2626
  934MOL0     H26035  10.414   0.731   1.494 -0.4843 -3.0111 -1.4081
  934MOL0     H26036  10.569   0.778   1.568 -1.7847 -0.1222  0.5259
  934MOL0     H26037  10.551   0.611   1.307  1.3819 -0.8285 -0.1640
  934MOL0     H26038  10.625   0.770   1.345  1.9049 -1.1128 -1.4754
  934MOL0     H26039  10.696   0.481   1.436  2.6807 -0.6459 -4.4339
  934MOL0     H26040  10.752   0.602   1.538 -0.0637 -3.1268  0.9591
  934MOL0     H26041  10.920   0.384   1.354  1.4492 -1.7993 -1.3766
  934MOL0     H26042  11.224   0.553   1.172 -0.2212 -0.3750  0.3454
  934MOL0     H26043  11.189   0.411   1.277  0.9908 -0.7642 -0.1680
  934MOL0     H26044  11.139   0.466   0.992  0.5179  1.9783  1.7672
  934MOL0     H26045  11.002   0.385   1.085  0.4296  2.0114  0.3510
  934MOL0     H26046  11.149   0.191   1.127 -0.5396 -0.3056 -1.8566
  934MOL0     H26047  11.300   0.276   1.078 -0.1352 -0.7930  3.0343
  934MOL0     H26048  11.245   0.124   0.921  0.5550  1.2463 -2.0656
  934MOL0     H26049  11.198   0.282   0.843 -0.6739  0.7572 -0.0994
  934MOL0     H26050  10.783   0.099   0.883  0.9266  1.1073  2.4687
  934MOL0     H26051  10.491   0.231   0.768 -0.0586 -0.2300 -1.0744
  934MOL0     H26052  10.560   0.120   0.646 -0.7267 -2.0559  0.6247
  934MOL0     H26053  10.582   0.070   0.808  4.2335 -1.6015 -1.9396
  934MOL0     H26054  10.379   0.567   0.624  1.3901 -1.9410 -0.1136
  934MOL0     H26055  10.213   0.688   0.462 -0.4281 -0.2788  0.8224
  934MOL0     H26056  10.064   0.624   0.061  3.0501 -0.2080 -0.0799
  934MOL0     H26057  10.087   0.462   0.122  0.5252  1.4011 -1.6092
  934MOL0     H26058   9.914   0.530   0.308 -1.1504 -2.8619 -1.1301
  934MOL0     H26059   9.889   0.675   0.221  1.9112  0.6858  1.0921
  934MOL0     H26060   9.724   0.469   0.164 -0.3733 -1.1725 -0.9057
  934MOL0     H26061   9.867   0.380   0.100 -0.9871 -1.3466  2.5320
  934MOL0     H26062   9.746   0.623  -0.018 -0.7016 -1.3463  1.1776
  934MOL0     H26063   9.901   0.556  -0.077  0.2694 -0.3109 -1.9283
  934MOL0     H26064   9.738   0.482  -0.215  1.8615  0.3372  0.5388
  934MOL0     H26065   9.618   0.432  -0.086 -0.1261 -0.5474 -0.6602
  934MOL0     H26066   9.867   0.265  -0.126 -0.3538 -2.6664  1.1322
  934MOL0     H26067   9.684   0.241  -0.071  0.3416 -0.7929 -0.2268
  934MOL0     H26068   9.805   0.288  -0.333  2.6426 -1.8064 -0.3135
  934MOL0     H26069   9.637   0.253  -0.313 -0.2507 -3.2069  1.0445
  934MOL0     H26070   9.871   0.076  -0.214 -1.1785  0.8972  2.0341
  934MOL0     H26071   9.795   0.045  -0.377  0.5282 -1.0280  0.7114
  934MOL0     H26072  10.295   0.400   0.162 -0.5219  2.0221 -1.7519
  934MOL0     H26073  10.485   0.316   0.298  2.0532  1.5509  0.3081
  934MOL0     H26074  10.903   0.504   0.631  1.5478  1.8627  2.1652
  934MOL0     H26075  11.064   0.389   0.732 -0.3323 -0.2820  1.6151
  934MOL0     H26076   9.986   0.563   2.265 -0.5237  0.2892  1.2986
  934MOL0     H26077   9.748   0.558   2.329  2.0219  2.1753  0.3877
  934MOL0     H26078   9.203   0.432   2.018  0.2155  2.5839  0.1709
  934MOL0     H26079   8.993   0.339   2.126 -0.2424 -2.1268 -0.2399
  934MOL0     H26080   8.810   0.224   2.447  0.8234  1.7659  0.9225
  934MOL0     H26081   8.835   0.305   2.300  2.2126  0.6629 -1.8568
  934MOL0     H26082   8.915   0.093   2.196 -2.6454  0.9348 -1.7211
  934MOL0     H26083   8.750   0.096   2.253  0.4061 -3.2082 -2.0737
  934MOL0     H26084   8.831  -0.011   2.468  0.2081 -1.8230  0.0069
  934MOL0     H26085   8.977  -0.041   2.387  0.5789 -1.6388 -1.2010
  934MOL0     H26086   8.799  -0.232   2.397 -2.9185  1.5148  1.7127
  934MOL0     H26087   8.867  -0.195   2.241  1.3688  0.4972  1.4200
  934MOL0     H26088   8.443  -0.144   2.189  0.0125 -0.7470 -2.0065
  934MOL0     H26089   9.244   0.278   2.487  3.1644 -1.3595 -0.3957
  934MOL0     H26090   9.415   0.393   2.380  0.7909  0.1388 -2.7253
  935MOL0     O26091   0.879   9.528   1.066  0.1953 -0.1956 -0.4098
  935MOL0     C26092   0.946   9.570   1.155  0.4560  0.3520 -0.2024
  935MOL0     O26093   1.071   9.626   1.134 -0.3217 -0.3562  0.1173
  935MOL0     C26094   1.133   9.652   1.011  0.3886 -0.8279 -0.1245
  935MOL0     C26095   1.116   9.579   0.892 -0.2891  0.7383  0.6715
  935MOL0     C26096   1.167   9.622   0.771 -0.5177  0.3064 -1.1365
  935MOL0     C26097   1.257   9.729   0.773  1.0200 -0.0488 -0.4814
  935MOL0     O26098   1.335   9.770   0.665 -0.1082 -0.0902 -0.1131
  935MOL0     C26099   1.314   9.699   0.542  1.1004  0.5231  0.3769
  935MOL0     C26100   1.383   9.751   0.417  0.7328 -0.0869 -0.4195
  935MOL0     C26101   1.522   9.692   0.396 -0.4319  0.4447 -0.3653
  935MOL0     C26102   1.630   9.749   0.505  0.1740  0.6342  0.1698
  935MOL0     C26103   1.746   9.649   0.524  0.2729 -1.0747  0.2095
  935MOL0     C26104   1.723   9.542   0.636 -0.0368  0.2004  0.3735
  935MOL0     C26105   1.831   9.438   0.655  0.0147 -0.6865 -0.5686
  935MOL0     C26106   1.932   9.507   0.753  0.3214  0.6064  0.7544
  935MOL0     N26107   2.025   9.405   0.793  0.7231 -1.1614 -0.3951
  935MOL0     C26108   2.018   9.329   0.904 -0.2627  0.9983 -0.5523
  935MOL0     C26109   2.126   9.246   0.891 -1.3173  0.5152  0.6808
  935MOL0     C26110   2.178   9.123   0.977  0.0307 -0.4639  0.7845
  935MOL0     C26111   2.167   8.977   0.908  0.0546 -0.1223  0.0582
  935MOL0     C26112   2.065   8.970   0.797  0.0341 -0.1786  0.9960
  935MOL0     C26113   1.915   8.985   0.851  0.0387 -0.0692 -0.7983
  935MOL0     O26114   1.832   9.002   0.737 -0.2355  0.3136 -0.4932
  935MOL0     C26115   1.804   8.877   0.691  0.3042  0.3567  0.1874
  935MOL0     C26116   1.695   8.809   0.750 -0.9730 -0.4111 -0.5626
  935MOL0     C26117   1.642   8.692   0.699  0.1787  0.4463  0.4950
  935MOL0     C26118   1.532   8.622   0.780 -0.7140 -0.8652 -0.8622
  935MOL0     C26119   1.693   8.645   0.572 -0.1824  0.0013  0.6119
  935MOL0     C26120   1.644   8.520   0.505 -0.4024 -0.1929  0.0271
  935MOL0     O26121   1.593   8.427   0.596  0.2034 -0.4683  0.9158
  935MOL0     C26122   1.527   8.313   0.558 -0.6007  0.0434  0.4169
  935MOL0     C26123   1.485   8.286   0.429  0.3850 -0.2490 -0.0973
  935MOL0     C26124   1.440   8.159   0.407  0.1048 -0.2291 -0.3106
  935MOL0     C26125   1.423   8.061   0.509  0.7341  0.2306  0.6512
  935MOL0     O26126   1.376   7.938   0.484  0.1059 -0.3259 -0.1585
  935MOL0     C26127   1.366   7.885   0.351 -0.4477 -0.7872  0.7222
  935MOL0     C26128   1.339   7.736   0.364 -0.3873 -0.0644 -0.4201
  935MOL0     C26129   1.193   7.712   0.398  0.1303  0.1808  0.0215
  935MOL0     C26130   1.157   7.567   0.394 -0.0313  0.7967 -0.3947
  935MOL0     C26131   1.005   7.536   0.426  0.7745  0.6881 -1.1075
  935MOL0     C26132   0.993   7.545   0.588  0.6355  0.0906 -0.3321
  935MOL0     C26133   0.853   7.499   0.636 -1.6554 -1.1331  0.2199
  935MOL0     C26134   0.813   7.357   0.604 -0.2833  0.1427  0.5850
  935MOL0    Cl26135   0.947   7.260   0.669 -0.6060  0.6415 -0.0059
  935MOL0     C26136   1.460   8.089   0.635  0.4237  0.2361  0.0987
  935MOL0     C26137   1.511   8.214   0.655 -0.4295 -0.0459  0.1107
  935MOL0     O26138   1.666   8.502   0.387  0.3027 -0.0777 -0.2711
  935MOL0     C26139   1.795   8.712   0.511  0.4393 -0.7588  0.7152
  935MOL0     C26140   1.854   8.829   0.570  0.1121 -1.1679  0.2152
  935MOL0     N26141   2.191   9.269   0.777  0.9637  0.0324  0.6285
  935MOL0     N26142   2.129   9.367   0.716  0.3777 -0.3681 -0.5564
  935MOL0     C26143   1.282   9.796   0.895 -0.7249  0.4729  0.4244
  935MOL0     C26144   1.224   9.757   1.006  0.5429  0.6347 -1.4404
  935MOL0     C26145   0.885   9.552   1.289  0.5183  0.4758  0.5221
  935MOL0     C26146   0.778   9.456   1.316  0.1447 -0.2107 -0.0694
  935MOL0     C26147   0.733   9.438   1.446  0.0093  0.0419  0.0757
  935MOL0     C26148   0.788   9.505   1.552  0.1979  1.4439  0.3371
  935MOL0     O26149   0.747   9.463   1.676 -0.7742 -0.0019  0.0035
  935MOL0     C26150   0.628   9.541   1.714  0.8584  0.4305 -0.4221
  935MOL0     C26151   0.525   9.445   1.771 -0.0274  0.3055  0.1760
  935MOL0     C26152   0.443   9.382   1.662 -0.4258  0.3355 -0.2595
  935MOL0     C26153   0.349   9.285   1.723  0.5105  0.6677  0.0026
  935MOL0     C26154   0.311   9.182   1.618 -1.6380 -0.4885  0.9476
  935MOL0     C26155   0.287   9.111   1.525  0.7943  1.0248 -0.0136
  935MOL0     C26156   0.872   9.609   1.525 -0.5495 -0.7040  0.4795
  935MOL0     C26157   0.923   9.622   1.403 -0.7856 -1.0620 -0.3435
  935MOL0     H26158   1.038   9.503   0.894 -1.4229  1.5892 -3.1443
  935MOL0     H26159   1.127   9.566   0.687 -2.8789 -1.3882  0.9856
  935MOL0     H26160   1.346   9.594   0.551 -1.8082 -0.6160 -1.1835
  935MOL0     H26161   1.209   9.682   0.514  1.0458  1.5771 -0.1113
  935MOL0     H26162   1.332   9.713   0.328 -0.6200 -0.2226  0.3855
  935MOL0     H26163   1.385   9.860   0.407 -3.7390  0.2902  0.6882
  935MOL0     H26164   1.523   9.585   0.415  1.7243  0.1455 -1.7754
  935MOL0     H26165   1.545   9.719   0.292 -2.3996  0.4384 -0.8366
  935MOL0     H26166   1.677   9.839   0.463  3.9469 -0.8517  0.7791
  935MOL0     H26167   1.601   9.772   0.607  1.8981 -2.9255  1.6352
  935MOL0     H26168   1.775   9.599   0.432 -2.2257 -2.1724 -0.0698
  935MOL0     H26169   1.830   9.710   0.559 -2.6022  2.4071  1.7987
  935MOL0     H26170   1.685   9.586   0.728  0.5356 -0.5751  0.9977
  935MOL0     H26171   1.644   9.472   0.607 -0.7567  0.2440  2.0899
  935MOL0     H26172   1.796   9.346   0.703 -0.1239  1.0932  3.0766
  935MOL0     H26173   1.886   9.413   0.564  2.3494 -0.1356  0.6210
  935MOL0     H26174   1.885   9.560   0.836 -0.8998 -0.5911  0.8603
  935MOL0     H26175   1.995   9.580   0.701  0.5833 -1.5055 -2.1610
  935MOL0     H26176   1.950   9.322   0.989  1.5946 -2.3304  0.8599
  935MOL0     H26177   2.279   9.136   1.016 -0.6027  2.0654  1.7713
  935MOL0     H26178   2.114   9.126   1.066 -0.5589 -0.5953  0.3778
  935MOL0     H26179   2.147   8.908   0.991 -0.3774 -0.1711 -0.0816
  935MOL0     H26180   2.262   8.940   0.871  1.5016  1.4779  1.9597
  935MOL0     H26181   2.071   8.875   0.743 -1.6568  0.5103 -0.4687
  935MOL0     H26182   2.080   9.047   0.722 -0.2934 -0.1444  0.9636
  935MOL0     H26183   1.907   9.063   0.927  0.5363  0.1525 -0.9655
  935MOL0     H26184   1.892   8.897   0.911 -1.3861  1.3065  0.7559
  935MOL0     H26185   1.648   8.849   0.839  1.7059  2.7843 -0.3766
  935MOL0     H26186   1.487   8.687   0.856 -1.3366 -0.7753 -1.3041
  935MOL0     H26187   1.446   8.602   0.716 -1.1650 -0.0995 -0.5081
  935MOL0     H26188   1.561   8.529   0.831 -0.3830  0.1406  0.8721
  935MOL0     H26189   1.490   8.360   0.350 -1.3520  0.3893  0.3444
  935MOL0     H26190   1.398   8.140   0.308  1.0359  0.1927 -0.8016
  935MOL0     H26191   1.293   7.930   0.283  0.0278 -0.8387  0.1664
  935MOL0     H26192   1.458   7.907   0.297 -0.7143 -0.6298  0.3208
  935MOL0     H26193   1.366   7.685   0.271  2.9124  0.5631  0.0684
  935MOL0     H26194   1.388   7.699   0.455 -3.3794 -0.1983  1.2858
  935MOL0     H26195   1.125   7.767   0.333  0.6245  2.3618  1.2429
  935MOL0     H26196   1.177   7.741   0.502 -2.1123  1.0483 -0.5134
  935MOL0     H26197   1.188   7.542   0.292 -0.2369  1.0744 -0.5270
  935MOL0     H26198   1.226   7.502   0.449  1.5689  1.0032 -2.0759
  935MOL0     H26199   0.968   7.439   0.393 -0.4708  0.5324  0.5931
  935MOL0     H26200   0.934   7.602   0.375 -1.1523  1.2195  1.9502
  935MOL0     H26201   1.067   7.482   0.638  2.9029  1.6339 -1.5544
  935MOL0     H26202   1.012   7.648   0.621  0.7261  0.9330 -2.7963
  935MOL0     H26203   0.788   7.572   0.587 -0.7951  0.6585  1.6326
  935MOL0     H26204   0.846   7.517   0.744 -2.4872  0.4645 -0.0840
  935MOL0     H26205   0.805   7.337   0.497 -3.4027  0.4327  0.6726
  935MOL0     H26206   0.718   7.318   0.642  0.3403 -1.0893  0.9147
  935MOL0     H26207   1.448   8.013   0.711 -0.8811 -0.8978 -1.1833
  935MOL0     H26208   1.535   8.238   0.758 -4.5895 -1.3856  1.6001
  935MOL0     H26209   1.852   8.672   0.428  3.0053 -0.2062  2.0989
  935MOL0     H26210   1.921   8.892   0.512 -1.1096 -0.5827 -0.6060
  935MOL0     H26211   1.357   9.875   0.897  0.7445 -0.7762 -1.5877
  935MOL0     H26212   1.243   9.819   1.093  0.2596 -0.0892 -0.8585
  935MOL0     H26213   0.733   9.397   1.237  0.3887 -1.0245  0.3889
  935MOL0     H26214   0.661   9.359   1.466  0.8597 -0.7792 -0.0179
  935MOL0     H26215   0.650   9.620   1.786 -1.1838  0.9989 -0.3673
  935MOL0     H26216   0.584   9.589   1.626  0.6471  0.0579 -0.5224
  935MOL0     H26217   0.464   9.498   1.846 -1.6533 -0.0716 -0.8458
  935MOL0     H26218   0.581   9.364   1.819 -0.6289 -1.3675 -1.8317
  935MOL0     H26219   0.506   9.334   1.587  0.1224  0.6248  0.0136
  935MOL0     H26220   0.383   9.461   1.616 -0.4850 -0.2950 -1.3015
  935MOL0     H26221   0.258   9.321   1.772 -0.1530 -1.5160  0.5013
  935MOL0     H26222   0.409   9.228   1.794 -4.2646 -0.2083  3.9313
  935MOL0     H26223   0.262   9.046   1.443  1.3208 -1.7921  1.9273
  935MOL0     H26224   0.904   9.670   1.608 -0.3982 -1.6731  1.1411
  935MOL0     H26225   1.007   9.690   1.394 -0.0570 -1.6775  1.4552
  936MOL0     O26226   1.305   7.048   7.420  0.3524  0.3888 -0.2136
  936MOL0     C26227   1.381   7.112   7.495 -0.3107 -0.4258  0.1058
  936MOL0     O26228   1.346   7.215   7.570  0.3499  0.3513  0.9346
  936MOL0     C26229   1.224   7.227   7.627  0.0898 -0.5600  1.2311
  936MOL0     C26230   1.152   7.116   7.678  0.3104  0.6532 -1.0012
  936MOL0     C26231   1.021   7.138   7.710  0.3680 -0.7073 -0.3834
  936MOL0     C26232   0.959   7.265   7.713  0.2482 -0.2771 -0.9660
  936MOL0     O26233   0.830   7.278   7.761  0.4925 -0.1152 -0.0868
  936MOL0     C26234   0.730   7.289   7.659 -0.5949  0.2713 -0.3317
  936MOL0     C26235   0.584   7.290   7.710  0.0657  0.6565  0.1142
  936MOL0     C26236   0.483   7.255   7.601  0.4539 -0.0086  0.4163
  936MOL0     C26237   0.350   7.312   7.645  0.1724  0.4734  0.9325
  936MOL0     C26238   0.252   7.295   7.527  0.2289  0.0289  0.2912
  936MOL0     C26239   0.114   7.335   7.576  0.0085 -0.4987  0.4731
  936MOL0     C26240   0.010   7.373   7.475 -0.6278 -0.9302 -0.1881
  936MOL0     C26241  -0.122   7.387   7.532 -0.1161  0.6979 -0.9331
  936MOL0     N26242  -0.219   7.375   7.424  1.2962 -0.1552  0.3695
  936MOL0     C26243  -0.320   7.273   7.414 -0.3761  0.6894  0.0351
  936MOL0     C26244  -0.399   7.311   7.307  0.1948  0.3360  0.1613
  936MOL0     C26245  -0.528   7.253   7.258 -0.2231  0.4639 -0.7310
  936MOL0     C26246  -0.636   7.248   7.364 -0.1010  0.8149 -0.2630
  936MOL0     C26247  -0.745   7.156   7.316  0.8238  0.4222 -0.4834
  936MOL0     C26248  -0.852   7.150   7.420  0.3879  0.1278  1.1209
  936MOL0     O26249  -0.943   7.035   7.412 -0.0220  0.0371 -0.9077
  936MOL0     C26250  -1.062   7.060   7.347  0.3917  0.2382 -0.7675
  936MOL0     C26251  -1.157   6.975   7.391  0.1809 -0.3557 -0.6375
  936MOL0     C26252  -1.281   6.989   7.347  0.0750  0.0809 -0.3119
  936MOL0     C26253  -1.391   6.905   7.407 -0.3652  0.1000  0.5053
  936MOL0     C26254  -1.305   7.084   7.243 -0.0702  0.7280 -0.8885
  936MOL0     C26255  -1.433   7.103   7.173  0.5937 -0.0412 -0.5842
  936MOL0     O26256  -1.420   7.166   7.047  0.3738  0.5609  0.2247
  936MOL0     C26257  -1.536   7.189   6.965 -0.4381 -0.8946  0.3446
  936MOL0     C26258  -1.672   7.171   6.984  0.2424 -0.1752  0.2857
  936MOL0     C26259  -1.761   7.226   6.892 -0.5061  0.0317 -0.0023
  936MOL0     C26260  -1.726   7.285   6.773  1.1106  0.0413 -0.4240
  936MOL0     O26261  -1.813   7.343   6.683  0.1046 -0.4271 -0.1512
  936MOL0     C26262  -1.922   7.258   6.629 -0.3557 -0.0585  1.1322
  936MOL0     C26263  -2.019   7.336   6.543 -0.0634  0.2023  0.3224
  936MOL0     C26264  -2.131   7.387   6.632 -0.6753  0.5022  0.0679
  936MOL0     C26265  -2.246   7.462   6.549 -0.4054  0.0399  0.4259
  936MOL0     C26266  -2.299   7.563   6.648  0.0108 -0.7850 -0.3647
  936MOL0     C26267  -2.390   7.526   6.757  0.4469 -0.7569 -0.2390
  936MOL0     C26268  -2.409   7.642   6.860  0.7508  0.6288 -0.2413
  936MOL0     C26269  -2.536   7.604   6.948 -0.2704  0.2680  0.2262
  936MOL0    Cl26270  -2.527   7.674   7.109  0.8766 -0.3118 -0.2185
  936MOL0     C26271  -1.592   7.297   6.745 -0.0691 -0.0977  0.0674
  936MOL0     C26272  -1.502   7.256   6.841  0.1097  0.0132 -0.2397
  936MOL0     O26273  -1.542   7.072   7.232  0.3463 -0.3018  0.5364
  936MOL0     C26274  -1.204   7.169   7.204 -0.1132  0.9042 -0.4144
  936MOL0     C26275  -1.078   7.166   7.259  0.8075 -0.4083 -1.2291
  936MOL0     N26276  -0.330   7.406   7.232  0.2541  0.4432 -0.5098
  936MOL0     N26277  -0.234   7.463   7.312  0.3867 -0.0899 -0.4983
  936MOL0     C26278   1.025   7.369   7.647  0.8692  0.0366 -0.3600
  936MOL0     C26279   1.157   7.357   7.611 -0.0722  0.6896  0.6948
  936MOL0     C26280   1.524   7.092   7.456 -0.6328 -0.9496 -0.3483
  936MOL0     C26281   1.565   7.014   7.337 -0.1655  0.1097  0.1663
  936MOL0     C26282   1.696   7.017   7.287  0.1814  0.5242  0.0315
  936MOL0     C26283   1.790   7.086   7.358  0.3964  0.6118 -0.1488
  936MOL0     O26284   1.917   7.084   7.311 -0.0813 -0.6919  0.7312
  936MOL0     C26285   2.026   7.137   7.390 -0.8760  0.4376 -0.1723
  936MOL0     C26286   2.138   7.120   7.278 -0.0907 -0.8776 -0.3381
  936MOL0     C26287   2.183   6.979   7.284 -0.6840 -1.0241  0.0485
  936MOL0     C26288   2.310   6.956   7.204 -0.4938 -0.6091  0.9965
  936MOL0     C26289   2.305   7.005   7.065 -0.0019  0.1987  0.3384
  936MOL0     C26290   2.297   7.051   6.958 -0.4045  0.4129  0.3556
  936MOL0     C26291   1.758   7.142   7.481  0.9087 -0.3930  0.5983
  936MOL0     C26292   1.627   7.143   7.531  0.2544  0.1641  0.0808
  936MOL0     H26293   1.193   7.015   7.682  0.3543  0.6758 -0.8836
  936MOL0     H26294   0.975   7.047   7.747 -0.0434 -0.6970 -0.8509
  936MOL0     H26295   0.748   7.378   7.596 -1.3518  0.3261 -0.4763
  936MOL0     H26296   0.737   7.205   7.589  0.5872  1.3070 -1.5374
  936MOL0     H26297   0.572   7.211   7.784 -0.6979  0.5928 -0.0708
  936MOL0     H26298   0.568   7.384   7.762  2.4346  0.2294  1.7680
  936MOL0     H26299   0.521   7.309   7.514 -3.5772  1.7633 -0.4692
  936MOL0     H26300   0.478   7.151   7.570 -1.2908  0.6808 -1.8398
  936MOL0     H26301   0.308   7.257   7.730 -0.3054  3.3063  2.6961
  936MOL0     H26302   0.359   7.418   7.671 -1.7684  2.0137 -3.6650
  936MOL0     H26303   0.275   7.370   7.451 -1.4562  2.3300  1.9027
  936MOL0     H26304   0.260   7.190   7.499  1.5084  0.6157 -1.8095
  936MOL0     H26305   0.078   7.247   7.631 -0.7915 -0.1275  0.5643
  936MOL0     H26306   0.117   7.417   7.648 -0.6603 -2.6119  3.1223
  936MOL0     H26307   0.033   7.466   7.421 -2.0717 -1.9449 -2.7340
  936MOL0     H26308   0.003   7.288   7.407 -1.0402  0.2409 -1.6660
  936MOL0     H26309  -0.130   7.472   7.599 -0.7592 -2.0137  2.7610
  936MOL0     H26310  -0.157   7.306   7.597 -1.5514  1.9626 -0.0776
  936MOL0     H26311  -0.323   7.182   7.474  0.2706  0.0301 -0.8941
  936MOL0     H26312  -0.558   7.314   7.172  2.6656  2.4360 -0.4658
  936MOL0     H26313  -0.504   7.157   7.212  1.9217  1.0426 -0.9258
  936MOL0     H26314  -0.677   7.348   7.380 -1.6888  0.0932  0.4233
  936MOL0     H26315  -0.597   7.202   7.455  2.1778  1.3187 -0.9137
  936MOL0     H26316  -0.708   7.057   7.288 -0.4757 -0.3246  0.3252
  936MOL0     H26317  -0.775   7.184   7.215  0.0409 -0.5284 -0.5269
  936MOL0     H26318  -0.907   7.244   7.428 -2.2935 -1.0309 -1.7124
  936MOL0     H26319  -0.796   7.130   7.512  1.3661  0.0271  0.5156
  936MOL0     H26320  -1.137   6.897   7.463  0.0270 -0.7160 -0.9819
  936MOL0     H26321  -1.438   6.962   7.488  0.2089 -0.2006  1.0577
  936MOL0     H26322  -1.454   6.882   7.321  3.4488 -1.9554 -1.9856
  936MOL0     H26323  -1.352   6.810   7.444  0.5135  0.7417  1.2812
  936MOL0     H26324  -1.705   7.143   7.084  0.5095  3.5479  1.5808
  936MOL0     H26325  -1.864   7.223   6.926  0.3245 -0.2730  2.7833
  936MOL0     H26326  -1.874   7.176   6.575  1.2097 -0.7360  3.4144
  936MOL0     H26327  -1.973   7.206   6.712  0.2902  0.9751  2.2089
  936MOL0     H26328  -1.959   7.414   6.496  1.3177  0.6794  2.7617
  936MOL0     H26329  -2.059   7.266   6.468 -4.4317 -0.3868  2.8792
  936MOL0     H26330  -2.085   7.441   6.716 -0.4445  2.3876 -1.2189
  936MOL0     H26331  -2.181   7.299   6.676 -0.3065 -0.2967 -1.0622
  936MOL0     H26332  -2.190   7.528   6.483  1.0108  1.4678  2.9036
  936MOL0     H26333  -2.322   7.394   6.510 -0.1591 -0.8552  1.4502
  936MOL0     H26334  -2.344   7.646   6.593  2.7471  0.6331 -0.6330
  936MOL0     H26335  -2.204   7.610   6.674  1.1098 -2.6255 -0.8106
  936MOL0     H26336  -2.488   7.505   6.712 -1.6869  1.7692  2.7392
  936MOL0     H26337  -2.367   7.435   6.812  0.2368  0.3014  1.6630
  936MOL0     H26338  -2.429   7.733   6.803  1.2199  0.4092 -0.7641
  936MOL0     H26339  -2.315   7.648   6.915 -0.5373  0.5118  2.1006
  936MOL0     H26340  -2.545   7.497   6.972  1.7349  0.6858  3.5130
  936MOL0     H26341  -2.627   7.643   6.902 -0.2879 -1.4342 -1.2788
  936MOL0     H26342  -1.543   7.342   6.659 -1.0189  2.4797  0.7872
  936MOL0     H26343  -1.395   7.270   6.832 -0.0364  0.5334 -1.2785
  936MOL0     H26344  -1.221   7.244   7.127 -0.7307  0.5543 -0.6181
  936MOL0     H26345  -1.004   7.240   7.231  0.6752  0.2785  0.1500
  936MOL0     H26346   0.984   7.470   7.645  0.4703  0.0208  2.3037
  936MOL0     H26347   1.205   7.442   7.564  1.8164  0.6370  2.3737
  936MOL0     H26348   1.498   6.946   7.286  0.0922 -1.6533  2.0509
  936MOL0     H26349   1.729   6.959   7.201  2.7600 -0.6253  1.6676
  936MOL0     H26350   2.019   7.245   7.408 -2.7036  0.3973 -0.5133
  936MOL0     H26351   2.033   7.079   7.483 -0.4698 -4.7144 -3.0885
  936MOL0     H26352   2.220   7.186   7.306 -0.4408 -0.0560 -1.2080
  936MOL0     H26353   2.096   7.159   7.185  0.3787  0.1075 -0.1433
  936MOL0     H26354   2.113   6.902   7.250 -2.4072 -0.2972  1.7787
  936MOL0     H26355   2.214   6.948   7.385 -1.2538 -0.6802  0.3337
  936MOL0     H26356   2.336   6.851   7.193  1.8588 -0.0554  0.7031
  936MOL0     H26357   2.391   7.002   7.261  0.9824  3.2368 -3.5658
  936MOL0     H26358   2.296   7.107   6.866  2.9045 -1.2029 -0.8337
  936MOL0     H26359   1.835   7.193   7.539 -1.0969 -0.1293  3.2376
  936MOL0     H26360   1.610   7.193   7.626  0.6866 -2.2671  1.5326
  937MOL0     O26361   9.829   1.331  11.084 -0.0420 -0.0384  0.3614
  937MOL0     C26362   9.893   1.228  11.112 -0.0332  1.0165 -0.1593
  937MOL0     O26363   9.843   1.102  11.128 -0.2660 -0.0289  0.5866
  937MOL0     C26364   9.720   1.072  11.183 -0.5502 -0.0828 -0.6628
  937MOL0     C26365   9.656   1.163  11.276  0.4470 -0.1793 -1.2662
  937MOL0     C26366   9.521   1.128  11.311  0.5592 -0.4466 -0.2853
  937MOL0     C26367   9.442   1.027  11.257 -1.2045  0.8982  0.2626
  937MOL0     O26368   9.313   0.996  11.289  0.1679 -0.0212  0.3981
  937MOL0     C26369   9.268   1.024  11.421 -0.7162 -0.5777  0.0451
  937MOL0     C26370   9.117   1.012  11.454 -1.1616 -0.2760  0.5948
  937MOL0     C26371   9.075   1.079  11.577 -0.9749  0.7003  0.0029
  937MOL0     C26372   8.928   1.053  11.600  0.6608  0.3762 -0.2644
  937MOL0     C26373   8.883   1.157  11.710 -0.4174 -0.1769 -0.2645
  937MOL0     C26374   8.745   1.115  11.758  0.9996 -0.5337  0.3694
  937MOL0     C26375   8.641   1.178  11.661 -0.3742  0.0677  0.6153
  937MOL0     C26376   8.492   1.167  11.706 -0.6568  0.0852  0.3825
  937MOL0     N26377   8.402   1.266  11.642 -0.3200  0.9338 -0.0713
  937MOL0     C26378   8.437   1.341  11.538  0.6224 -0.2229 -0.3923
  937MOL0     C26379   8.346   1.436  11.531  0.7834  0.2429  0.1029
  937MOL0     C26380   8.347   1.558  11.435 -0.0251 -0.1946  0.0148
  937MOL0     C26381   8.249   1.664  11.485 -0.4795  0.9229 -0.8729
  937MOL0     C26382   8.111   1.614  11.449  0.6174 -0.1381  0.0895
  937MOL0     C26383   8.002   1.661  11.545  0.6719 -0.0244  0.0739
  937MOL0     O26384   7.872   1.621  11.499 -0.0401  0.3131  0.0764
  937MOL0     C26385   7.807   1.509  11.546 -0.1609 -0.3044  0.2660
  937MOL0     C26386   7.861   1.415  11.635  0.5550 -0.7459 -0.2495
  937MOL0     C26387   7.782   1.311  11.679  0.2953 -0.5213 -1.0451
  937MOL0     C26388   7.841   1.203  11.766  0.3026  0.0644  0.5866
  937MOL0     C26389   7.646   1.308  11.643 -0.3087 -0.7356  0.2828
  937MOL0     C26390   7.551   1.205  11.693  1.1086 -0.3678  0.1133
  937MOL0     O26391   7.440   1.169  11.602 -0.2326 -0.5906 -0.0397
  937MOL0     C26392   7.346   1.080  11.654 -0.2519  0.4500  0.6289
  937MOL0     C26393   7.211   1.110  11.682 -0.4722  0.0945  0.3153
  937MOL0     C26394   7.128   1.009  11.724 -0.3309  0.3642  0.1943
  937MOL0     C26395   7.160   0.871  11.717 -0.0782 -0.4985 -0.9884
  937MOL0     O26396   7.050   0.785  11.739 -0.2876 -0.0476 -0.1505
  937MOL0     C26397   7.074   0.643  11.733  1.0826  0.7898  0.8555
  937MOL0     C26398   6.929   0.575  11.731  0.1732 -0.6765  0.2234
  937MOL0     C26399   6.924   0.436  11.779 -0.0210 -0.1059  0.9743
  937MOL0     C26400   6.997   0.336  11.695 -0.1220 -0.6283  0.7956
  937MOL0     C26401   6.960   0.194  11.745 -0.2123 -0.7048  0.6414
  937MOL0     C26402   7.038   0.081  11.680  0.0651 -0.8840 -0.0094
  937MOL0     C26403   7.168   0.054  11.757 -0.0801 -0.1222 -0.1298
  937MOL0     C26404   7.237  -0.077  11.700  0.5541 -0.1890  0.2191
  937MOL0    Cl26405   7.208  -0.082  11.525 -0.3249  0.3401  0.1415
  937MOL0     C26406   7.293   0.840  11.696 -1.1259  0.7555  0.8111
  937MOL0     C26407   7.389   0.944  11.669  0.6641 -0.3053 -1.0500
  937MOL0     O26408   7.553   1.168  11.812  0.0030  0.0293  0.1657
  937MOL0     C26409   7.589   1.405  11.558 -0.7796 -0.6144 -0.1513
  937MOL0     C26410   7.671   1.502  11.504  0.0789  0.5460  0.2300
  937MOL0     N26411   8.260   1.410  11.630  1.0651  0.1173  1.0238
  937MOL0     N26412   8.287   1.308  11.696 -0.0177 -0.4470 -0.1818
  937MOL0     C26413   9.507   0.952  11.160 -0.3996 -0.1758  1.0009
  937MOL0     C26414   9.647   0.964  11.134 -0.5548 -0.6795 -0.3279
  937MOL0     C26415  10.042   1.237  11.105  0.6742  0.9688 -0.6600
  937MOL0     C26416  10.120   1.124  11.146 -1.0012 -0.8444 -0.5266
  937MOL0     C26417  10.257   1.122  11.130 -0.2355 -1.0129  0.3116
  937MOL0     C26418  10.323   1.236  11.076 -0.2879  0.5532  0.4821
  937MOL0     O26419  10.458   1.223  11.055 -0.6369  0.2585  0.1147
  937MOL0     C26420  10.537   1.312  10.967  0.0541  0.4437 -0.0997
  937MOL0     C26421  10.602   1.439  11.024 -0.5080 -0.5901  0.0982
  937MOL0     C26422  10.634   1.536  10.906 -0.1263  0.3595  0.7369
  937MOL0     C26423  10.708   1.651  10.962  1.3522  0.0547  0.6174
  937MOL0     C26424  10.842   1.618  11.011  0.4800  0.7327 -0.1890
  937MOL0     C26425  10.956   1.603  11.047 -0.3712 -0.7913 -0.3210
  937MOL0     C26426  10.245   1.350  11.040  1.3334 -1.2636 -1.3075
  937MOL0     C26427  10.096   1.351  11.047  0.1893 -0.2500 -0.0897
  937MOL0     H26428   9.695   1.258  11.311 -1.7350  0.9364 -1.6994
  937MOL0     H26429   9.480   1.205  11.376 -0.0544 -1.0694  0.0863
  937MOL0     H26430   9.327   0.968  11.495  1.2867  0.9026 -0.3414
  937MOL0     H26431   9.289   1.129  11.441  2.7270 -1.3501  1.2435
  937MOL0     H26432   9.062   1.067  11.377 -3.4144 -0.2125  2.1294
  937MOL0     H26433   9.088   0.906  11.454 -2.0601 -0.0393  0.3715
  937MOL0     H26434   9.130   1.038  11.663  1.2888 -0.8972 -2.0875
  937MOL0     H26435   9.090   1.187  11.578 -1.6840  0.8488  2.6548
  937MOL0     H26436   8.866   1.070  11.511  4.6279  2.6078 -2.9035
  937MOL0     H26437   8.915   0.950  11.635  2.0382  0.4188  0.4555
  937MOL0     H26438   8.943   1.173  11.800 -1.2526  2.8278 -0.1060
  937MOL0     H26439   8.870   1.256  11.665 -2.0553 -0.2441 -0.0181
  937MOL0     H26440   8.739   1.006  11.751  2.6221 -0.5346 -2.7090
  937MOL0     H26441   8.720   1.159  11.856 -3.4334 -0.6485 -0.4799
  937MOL0     H26442   8.674   1.278  11.632 -0.0246 -0.6010 -1.3787
  937MOL0     H26443   8.646   1.122  11.567 -0.6158  2.4741 -0.9142
  937MOL0     H26444   8.489   1.166  11.815  0.6067 -1.1826  0.4447
  937MOL0     H26445   8.466   1.065  11.676  2.0827 -0.8923  0.9745
  937MOL0     H26446   8.531   1.330  11.484  0.3655  0.7689 -1.0755
  937MOL0     H26447   8.447   1.603  11.440  0.0127 -0.3500  0.7740
  937MOL0     H26448   8.322   1.544  11.329  1.0668 -0.4944 -0.2138
  937MOL0     H26449   8.283   1.761  11.447  3.4235 -0.8804 -2.5535
  937MOL0     H26450   8.261   1.669  11.593  0.7744 -0.9520 -0.8846
  937MOL0     H26451   8.110   1.505  11.446 -2.4452 -0.2135  0.0541
  937MOL0     H26452   8.075   1.632  11.347  0.2045 -1.8954 -0.1069
  937MOL0     H26453   8.009   1.770  11.541  1.7880  0.1931  3.9296
  937MOL0     H26454   8.030   1.625  11.645 -3.7208  2.3680  2.4586
  937MOL0     H26455   7.966   1.417  11.666  0.0475 -1.2697  1.6748
  937MOL0     H26456   7.951   1.211  11.770  0.2730  0.7221  0.3120
  937MOL0     H26457   7.804   1.194  11.869  3.2281  4.0405  2.3010
  937MOL0     H26458   7.836   1.104  11.721  0.8754  0.7462 -1.0424
  937MOL0     H26459   7.172   1.207  11.653 -2.0635 -0.2685  1.1373
  937MOL0     H26460   7.026   1.030  11.754 -1.4124 -3.4631 -0.2605
  937MOL0     H26461   7.142   0.618  11.650  0.8001 -5.8244  2.0700
  937MOL0     H26462   7.124   0.599  11.820  1.9472  0.5596  0.2603
  937MOL0     H26463   6.874   0.626  11.811 -3.0440 -4.1830  0.5609
  937MOL0     H26464   6.883   0.588  11.633  1.6749  0.8366 -0.3107
  937MOL0     H26465   6.816   0.416  11.779  0.0871 -0.7373  0.3908
  937MOL0     H26466   6.965   0.431  11.880  0.8026 -1.1195  0.6054
  937MOL0     H26467   6.965   0.334  11.590  1.1157 -2.0998  0.4091
  937MOL0     H26468   7.102   0.340  11.725  0.6372  0.9002 -1.7554
  937MOL0     H26469   6.854   0.181  11.722 -0.7401  0.7466  2.0476
  937MOL0     H26470   6.960   0.196  11.855 -0.6997 -0.7774  0.6488
  937MOL0     H26471   6.979  -0.011  11.679 -2.5178  0.6846 -0.6835
  937MOL0     H26472   7.054   0.107  11.575 -0.7706  0.5776  0.2002
  937MOL0     H26473   7.134   0.037  11.860 -0.4955 -2.5022 -0.5982
  937MOL0     H26474   7.229   0.144  11.751  0.1730 -0.3378 -0.8917
  937MOL0     H26475   7.183  -0.161  11.743 -1.5790  1.5041  1.0426
  937MOL0     H26476   7.345  -0.087  11.715  0.1713 -4.8365  1.1748
  937MOL0     H26477   7.332   0.740  11.711  1.4704  1.6051  0.3196
  937MOL0     H26478   7.492   0.916  11.652 -0.2847 -4.0399 -1.5089
  937MOL0     H26479   7.483   1.401  11.535 -0.3856  1.8839 -3.0363
  937MOL0     H26480   7.642   1.579  11.432  2.6050  0.1520 -1.3669
  937MOL0     H26481   9.445   0.870  11.126 -0.6706 -0.0548  1.1992
  937MOL0     H26482   9.678   0.903  11.050 -1.9772 -2.4142  0.3525
  937MOL0     H26483  10.065   1.033  11.167 -0.3339 -1.3694 -1.0052
  937MOL0     H26484  10.319   1.041  11.167 -0.0763  0.9198  4.9599
  937MOL0     H26485  10.612   1.253  10.913  0.0811  0.7693 -0.4179
  937MOL0     H26486  10.466   1.348  10.893 -0.4138  2.8703  1.4391
  937MOL0     H26487  10.688   1.417  11.088  0.0561  1.7961  0.2506
  937MOL0     H26488  10.526   1.494  11.079 -1.2573  0.1115 -1.5761
  937MOL0     H26489  10.534   1.561  10.870  0.1312 -1.3433 -1.3419
  937MOL0     H26490  10.687   1.492  10.821  0.9110  0.0196  1.5458
  937MOL0     H26491  10.652   1.686  11.049 -0.3283  0.0745 -0.4371
  937MOL0     H26492  10.703   1.730  10.887 -3.3937  0.5713  1.2021
  937MOL0     H26493  11.056   1.596  11.082 -0.6712  2.7803  1.6807
  937MOL0     H26494  10.280   1.442  10.995  0.6533 -1.8390 -3.0771
  937MOL0     H26495  10.036   1.433  11.011  2.5596  1.3062 -0.7521
  938MOL0     O26496   0.017   2.565   1.890  0.2468  0.0300  0.1711
  938MOL0     C26497  -0.025   2.624   1.984 -0.8893  0.5398 -0.5003
  938MOL0     O26498   0.047   2.695   2.080  0.3484  0.0778 -0.1505
  938MOL0     C26499   0.168   2.645   2.101 -0.0982  0.6738  0.7972
  938MOL0     C26500   0.191   2.561   2.211 -0.4733 -0.1514 -0.1948
  938MOL0     C26501   0.325   2.538   2.240  0.6012  0.5141 -0.2747
  938MOL0     C26502   0.436   2.588   2.163 -0.5352 -0.3658  0.0633
  938MOL0     O26503   0.570   2.556   2.186  0.2541 -0.1836 -0.0911
  938MOL0     C26504   0.594   2.423   2.235 -0.6286 -0.1979  1.1711
  938MOL0     C26505   0.659   2.411   2.371  0.5004 -0.3303 -0.4591
  938MOL0     C26506   0.647   2.277   2.438 -0.3400 -0.7000 -0.3304
  938MOL0     C26507   0.685   2.155   2.362 -0.8038 -0.9543 -0.2801
  938MOL0     C26508   0.719   2.032   2.447 -0.7881 -0.1281  0.0694
  938MOL0     C26509   0.588   1.976   2.511  0.1973 -0.0409 -0.4966
  938MOL0     C26510   0.621   1.857   2.601 -1.0061 -0.4288  0.1894
  938MOL0     C26511   0.496   1.801   2.658 -0.2685 -0.0923  0.1627
  938MOL0     N26512   0.423   1.714   2.562 -0.2862  0.3969  0.2538
  938MOL0     C26513   0.483   1.616   2.482 -0.3546  0.0699 -0.5687
  938MOL0     C26514   0.389   1.586   2.394 -0.4137  0.3169  0.0961
  938MOL0     C26515   0.391   1.494   2.269 -0.6566  0.3000 -0.0241
  938MOL0     C26516   0.378   1.343   2.300  0.6969 -0.2962  0.6738
  938MOL0     C26517   0.230   1.306   2.322  0.0103  0.4707 -0.4700
  938MOL0     C26518   0.238   1.153   2.330  0.6143 -0.6794 -0.9106
  938MOL0     O26519   0.108   1.100   2.354  1.4621  0.3242 -0.2651
  938MOL0     C26520   0.099   0.967   2.378 -0.4015  1.4077 -0.7064
  938MOL0     C26521  -0.032   0.923   2.402  0.4188  0.1442 -0.7824
  938MOL0     C26522  -0.073   0.795   2.430 -0.4411  0.0770 -0.2203
  938MOL0     C26523  -0.212   0.768   2.479  0.6227  0.4120  0.9279
  938MOL0     C26524   0.036   0.694   2.432  0.3997  0.2454 -0.4302
  938MOL0     C26525   0.028   0.543   2.462  1.1634  0.5346 -0.3148
  938MOL0     O26526   0.139   0.463   2.470  0.4693 -0.1442 -0.0837
  938MOL0     C26527   0.137   0.338   2.522 -0.6897 -0.2883  0.3393
  938MOL0     C26528   0.063   0.304   2.634 -0.2488  0.0060  0.6886
  938MOL0     C26529   0.073   0.172   2.690 -0.1762 -0.3059 -0.5666
  938MOL0     C26530   0.132   0.070   2.620 -0.1239  0.5251  0.0186
  938MOL0     O26531   0.117  -0.057   2.681 -0.4914  0.0505  0.3172
  938MOL0     C26532   0.152  -0.165   2.594 -0.1704 -0.1485 -0.0023
  938MOL0     C26533   0.114  -0.299   2.660  0.0555 -0.5922  0.1612
  938MOL0     C26534   0.208  -0.336   2.780 -1.0999  0.0802  0.1542
  938MOL0     C26535   0.145  -0.430   2.885 -0.0106 -0.0645  0.6929
  938MOL0     C26536   0.254  -0.505   2.965 -0.3915  0.7360  0.1186
  938MOL0     C26537   0.333  -0.424   3.079 -0.7201 -0.4750 -0.2923
  938MOL0     C26538   0.447  -0.511   3.120  0.3797  0.8932 -0.6965
  938MOL0     C26539   0.471  -0.511   3.270 -0.2406 -0.2224 -0.1816
  938MOL0    Cl26540   0.489  -0.340   3.323 -0.6328  0.6328  0.0074
  938MOL0     C26541   0.223   0.106   2.512  1.7850  0.0491 -0.0020
  938MOL0     C26542   0.225   0.238   2.462 -0.7046  0.2847 -0.2046
  938MOL0     O26543  -0.085   0.497   2.470  0.0819 -0.1293 -0.6767
  938MOL0     C26544   0.172   0.742   2.408  0.5695 -0.1041 -0.5178
  938MOL0     C26545   0.203   0.873   2.381  0.3460 -0.1973  0.4367
  938MOL0     N26546   0.268   1.646   2.430  0.4801 -0.5868  0.3641
  938MOL0     N26547   0.293   1.731   2.526  0.1426  0.8085 -0.1382
  938MOL0     C26548   0.405   2.661   2.049 -1.0436 -0.2340  0.3345
  938MOL0     C26549   0.270   2.690   2.011  0.0713 -0.5045 -0.7970
  938MOL0     C26550  -0.175   2.626   2.011 -0.6035  0.0566  0.7164
  938MOL0     C26551  -0.236   2.698   2.113 -0.8257  0.6203  1.0689
  938MOL0     C26552  -0.374   2.713   2.124 -0.8215 -0.6663 -0.3195
  938MOL0     C26553  -0.463   2.643   2.052 -0.0273 -0.5720  0.3834
  938MOL0     O26554  -0.587   2.639   2.109  0.2092  0.6333  0.1443
  938MOL0     C26555  -0.652   2.522   2.069  0.3619 -0.0501 -0.7845
  938MOL0     C26556  -0.785   2.511   2.133  1.0034  0.7653  1.3880
  938MOL0     C26557  -0.850   2.366   2.129 -0.6872 -0.5041 -0.4932
  938MOL0     C26558  -0.767   2.261   2.197  0.0057 -0.0858  0.3863
  938MOL0     C26559  -0.818   2.121   2.180  0.3115 -0.1022  0.0228
  938MOL0     C26560  -0.858   2.009   2.167  0.5098  0.7489  0.3945
  938MOL0     C26561  -0.404   2.566   1.941  0.0482 -0.3404 -0.2609
  938MOL0     C26562  -0.261   2.556   1.921 -0.1900  0.7854  0.1205
  938MOL0     H26563   0.109   2.532   2.275 -1.5104  0.1947 -1.3464
  938MOL0     H26564   0.344   2.472   2.323 -0.1879  2.1655  1.2884
  938MOL0     H26565   0.497   2.373   2.230 -1.0396  0.6992 -0.2301
  938MOL0     H26566   0.665   2.383   2.162 -0.0439 -0.9501  2.1299
  938MOL0     H26567   0.761   2.446   2.355 -0.2003  3.9759  2.6645
  938MOL0     H26568   0.605   2.482   2.434  0.6598 -0.1471 -0.5287
  938MOL0     H26569   0.714   2.282   2.525  0.2087  4.1891 -0.7499
  938MOL0     H26570   0.545   2.268   2.476  0.1868 -1.0127  1.0884
  938MOL0     H26571   0.612   2.136   2.283 -0.3967  1.8181 -1.4505
  938MOL0     H26572   0.781   2.176   2.313  0.0877 -1.0372  1.3265
  938MOL0     H26573   0.786   1.971   2.387  3.8894  4.9173 -0.5756
  938MOL0     H26574   0.766   2.064   2.540 -0.3778  0.9216 -0.4959
  938MOL0     H26575   0.536   2.051   2.573 -0.4289 -0.4931 -0.4651
  938MOL0     H26576   0.532   1.943   2.424  2.8938 -3.7869 -1.0519
  938MOL0     H26577   0.680   1.783   2.546 -0.9787  1.5813 -2.7155
  938MOL0     H26578   0.678   1.908   2.679  0.8564  0.8656 -1.9322
  938MOL0     H26579   0.430   1.882   2.691  1.6010  1.2062  0.8541
  938MOL0     H26580   0.534   1.742   2.742 -1.2367  0.6381  1.1362
  938MOL0     H26581   0.587   1.587   2.480 -0.5604 -0.6610 -0.7061
  938MOL0     H26582   0.313   1.518   2.197  1.4097  1.8888 -1.8561
  938MOL0     H26583   0.486   1.515   2.220 -0.2972  1.6141  1.1522
  938MOL0     H26584   0.434   1.322   2.392  0.7167 -2.1825  0.2715
  938MOL0     H26585   0.426   1.291   2.217  0.1824 -0.6790  0.6124
  938MOL0     H26586   0.160   1.312   2.239 -0.9228  2.1990  0.3727
  938MOL0     H26587   0.186   1.354   2.411  0.7166  1.3075 -0.5658
  938MOL0     H26588   0.291   1.134   2.424 -0.6675 -0.6942 -0.1607
  938MOL0     H26589   0.281   1.101   2.245 -0.6267 -2.4131 -0.5549
  938MOL0     H26590  -0.106   1.002   2.408  1.7304  1.2999  3.8907
  938MOL0     H26591  -0.257   0.700   2.407  0.8569  1.4604 -0.2550
  938MOL0     H26592  -0.220   0.737   2.583  1.7565  0.0740  0.9259
  938MOL0     H26593  -0.265   0.864   2.469  3.2483  1.7096 -4.5659
  938MOL0     H26594   0.012   0.388   2.680 -1.9790 -0.4916 -0.2169
  938MOL0     H26595   0.029   0.156   2.788 -1.0875 -1.6505 -1.1649
  938MOL0     H26596   0.077  -0.156   2.514 -1.4283 -1.1262  1.0293
  938MOL0     H26597   0.258  -0.174   2.567 -0.0219 -0.8507  0.7938
  938MOL0     H26598   0.014  -0.280   2.701  0.3490 -1.8970  1.5681
  938MOL0     H26599   0.114  -0.376   2.583  2.5213  1.2076 -1.8415
  938MOL0     H26600   0.257  -0.249   2.825 -1.0109  0.3145 -0.3721
  938MOL0     H26601   0.291  -0.386   2.729  0.4379  1.0752  1.5732
  938MOL0     H26602   0.084  -0.357   2.940 -1.9052  0.4783 -1.9680
  938MOL0     H26603   0.088  -0.510   2.838 -1.3765  0.8321  0.7380
  938MOL0     H26604   0.325  -0.541   2.890 -0.8214  4.0859 -2.0851
  938MOL0     H26605   0.197  -0.587   3.009  2.0456 -1.3544 -0.4176
  938MOL0     H26606   0.373  -0.329   3.044  1.7871 -1.3368  0.0325
  938MOL0     H26607   0.264  -0.398   3.161 -0.3273  0.3882 -0.2291
  938MOL0     H26608   0.536  -0.488   3.062 -0.1475  2.5389 -0.9128
  938MOL0     H26609   0.420  -0.613   3.090  0.2124  0.2253  1.4961
  938MOL0     H26610   0.563  -0.568   3.285  0.7547  1.0988 -1.0265
  938MOL0     H26611   0.388  -0.556   3.325  0.9897  0.0962  2.0621
  938MOL0     H26612   0.276   0.031   2.454 -1.1009 -2.9376  0.9135
  938MOL0     H26613   0.280   0.260   2.371 -1.5408 -3.5017 -1.8097
  938MOL0     H26614   0.255   0.672   2.413  1.6986  1.2290 -0.1828
  938MOL0     H26615   0.304   0.911   2.366 -0.0411  1.8460  2.4663
  938MOL0     H26616   0.487   2.682   1.981  0.7941 -2.3583  1.7638
  938MOL0     H26617   0.257   2.747   1.920  0.0128  1.1715  0.2179
  938MOL0     H26618  -0.161   2.743   2.178 -0.4809 -2.2203  2.7927
  938MOL0     H26619  -0.416   2.768   2.208  0.6644  0.2004 -0.0911
  938MOL0     H26620  -0.657   2.508   1.961  2.0214 -0.0653 -0.8853
  938MOL0     H26621  -0.589   2.439   2.103  1.7189  0.9094 -0.8588
  938MOL0     H26622  -0.862   2.575   2.088  0.1553 -1.0546  0.1499
  938MOL0     H26623  -0.787   2.529   2.241 -2.3695 -1.0477  1.7496
  938MOL0     H26624  -0.871   2.344   2.024 -0.3139  2.8372 -1.3664
  938MOL0     H26625  -0.941   2.376   2.189 -2.1783  1.7887 -2.9142
  938MOL0     H26626  -0.751   2.304   2.296  0.3848  2.2543 -0.6303
  938MOL0     H26627  -0.668   2.264   2.150 -0.4982 -2.2374 -0.9686
  938MOL0     H26628  -0.897   1.911   2.152  0.0843  1.1719 -1.5301
  938MOL0     H26629  -0.473   2.510   1.878  1.1460  0.1474 -1.9596
  938MOL0     H26630  -0.239   2.491   1.837 -0.5377 -1.4607  1.6772
  939MOL0     O26631   1.110   4.540   8.289  0.3333 -0.9053 -0.6350
  939MOL0     C26632   1.201   4.619   8.261  0.7313  0.3253  0.6492
  939MOL0     O26633   1.179   4.731   8.182 -0.2936  0.2232  0.4600
  939MOL0     C26634   1.060   4.753   8.120 -0.4432  0.9707 -0.5539
  939MOL0     C26635   0.953   4.777   8.207  0.6844  0.2522 -0.0249
  939MOL0     C26636   0.829   4.810   8.160  0.1077 -0.4036 -0.0400
  939MOL0     C26637   0.805   4.808   8.020 -0.0943 -0.7370 -0.3108
  939MOL0     O26638   0.682   4.832   7.975  1.2330 -0.4848  0.2344
  939MOL0     C26639   0.613   4.715   7.917  0.5353  0.0697  0.3703
  939MOL0     C26640   0.464   4.748   7.895 -0.3364  0.5552  0.6777
  939MOL0     C26641   0.393   4.808   8.016  0.0607  0.4968 -0.6702
  939MOL0     C26642   0.236   4.768   8.007  0.0309 -0.0023 -0.4607
  939MOL0     C26643   0.166   4.798   8.138 -0.0300 -0.2040  0.5623
  939MOL0     C26644   0.024   4.748   8.129  0.6487 -0.3542 -0.0152
  939MOL0     C26645  -0.048   4.720   8.271 -0.6719  0.5142  0.9500
  939MOL0     C26646  -0.012   4.594   8.347  0.7401 -0.1479 -0.2241
  939MOL0     N26647  -0.075   4.474   8.292  0.2433 -0.4325 -0.8536
  939MOL0     C26648  -0.202   4.457   8.233  0.4875  1.2918 -0.1478
  939MOL0     C26649  -0.211   4.325   8.206  0.1952 -0.1908  0.6043
  939MOL0     C26650  -0.319   4.250   8.134 -0.2047  0.4872 -0.3749
  939MOL0     C26651  -0.428   4.192   8.239 -0.3926 -0.3383  0.5536
  939MOL0     C26652  -0.507   4.301   8.299 -0.4510 -1.4613 -0.6140
  939MOL0     C26653  -0.622   4.270   8.393 -0.0142  0.2745  0.2450
  939MOL0     O26654  -0.727   4.215   8.318 -0.0078  0.6453  0.5789
  939MOL0     C26655  -0.785   4.112   8.387 -0.2076  0.1250 -0.0245
  939MOL0     C26656  -0.794   3.985   8.323 -0.3807  0.1450 -0.1690
  939MOL0     C26657  -0.873   3.883   8.390  0.3885 -0.3163  0.9374
  939MOL0     C26658  -0.869   3.738   8.332 -1.3086 -0.7012  0.3622
  939MOL0     C26659  -0.941   3.913   8.512 -0.5919  0.6716 -0.5328
  939MOL0     C26660  -1.033   3.824   8.589 -0.7952 -0.1432  0.7535
  939MOL0     O26661  -1.072   3.870   8.716 -0.3304 -0.3274  0.4437
  939MOL0     C26662  -1.181   3.819   8.781 -0.2974  0.1208 -0.4597
  939MOL0     C26663  -1.301   3.808   8.706 -0.1714  1.1939 -0.3897
  939MOL0     C26664  -1.406   3.738   8.765 -0.6084  0.2751  0.1689
  939MOL0     C26665  -1.402   3.705   8.907 -0.0251 -0.6690  0.2137
  939MOL0     O26666  -1.494   3.635   8.979 -0.6593  0.3836 -0.0869
  939MOL0     C26667  -1.591   3.553   8.912  0.1352  0.1083  0.2317
  939MOL0     C26668  -1.662   3.464   9.026 -0.0957 -0.0504  0.5648
  939MOL0     C26669  -1.558   3.351   9.059  1.0027  0.2679  0.1241
  939MOL0     C26670  -1.608   3.271   9.177  0.1575  0.7173 -0.7645
  939MOL0     C26671  -1.536   3.151   9.225 -0.6808  0.2612 -0.9639
  939MOL0     C26672  -1.620   3.041   9.319  0.3711 -0.3566 -0.1037
  939MOL0     C26673  -1.525   2.957   9.406 -0.7063  0.6965  0.6448
  939MOL0     C26674  -1.605   2.922   9.536  0.5781 -0.6283  0.2433
  939MOL0    Cl26675  -1.756   2.836   9.501  0.1423  0.2448  0.0185
  939MOL0     C26676  -1.290   3.756   8.981 -0.9594 -0.4447  0.2190
  939MOL0     C26677  -1.174   3.799   8.923  0.2943 -0.6800  0.4697
  939MOL0     O26678  -1.086   3.726   8.537  0.1491 -0.5612 -0.1917
  939MOL0     C26679  -0.922   4.034   8.568 -0.4984  0.4919 -0.4316
  939MOL0     C26680  -0.847   4.132   8.511 -0.2767  0.3859 -0.0959
  939MOL0     N26681  -0.108   4.261   8.269  0.0896  0.2892 -0.6389
  939MOL0     N26682  -0.023   4.348   8.310  0.8611  0.3439  0.2983
  939MOL0     C26683   0.907   4.770   7.938  0.6857  0.3374 -0.0492
  939MOL0     C26684   1.042   4.752   7.984  0.9989  1.3202 -0.0109
  939MOL0     C26685   1.331   4.584   8.296  0.7581 -0.2987 -0.0757
  939MOL0     C26686   1.438   4.649   8.233 -0.3048 -0.6971 -0.3289
  939MOL0     C26687   1.570   4.607   8.256  0.1210 -0.3923 -0.2250
  939MOL0     C26688   1.595   4.503   8.337  0.1357  1.3474  0.1155
  939MOL0     O26689   1.732   4.482   8.358 -0.2447  0.2290  0.0912
  939MOL0     C26690   1.774   4.389   8.465  0.1190 -0.9572 -0.3704
  939MOL0     C26691   1.921   4.394   8.524  1.3901 -0.7146 -0.2655
  939MOL0     C26692   1.922   4.509   8.637  0.9535 -0.0342 -0.0793
  939MOL0     C26693   2.009   4.461   8.755 -0.0778  0.4492  1.0960
  939MOL0     C26694   2.048   4.559   8.852  0.5587 -0.1916  0.1901
  939MOL0     C26695   2.098   4.650   8.917  0.0046 -0.2698  0.2939
  939MOL0     C26696   1.489   4.432   8.401  0.6607  0.5356  1.6355
  939MOL0     C26697   1.353   4.463   8.374  0.4779  0.2910  0.6119
  939MOL0     H26698   0.966   4.779   8.314  0.9525 -2.1927  0.0287
  939MOL0     H26699   0.747   4.842   8.223 -0.4493  0.4128 -1.1501
  939MOL0     H26700   0.653   4.709   7.815 -1.7437  1.0653 -0.6442
  939MOL0     H26701   0.638   4.629   7.980 -0.7506 -0.2093  0.5189
  939MOL0     H26702   0.457   4.823   7.815  0.0166  0.9916  1.0466
  939MOL0     H26703   0.409   4.657   7.872 -0.9009  1.2932 -0.9912
  939MOL0     H26704   0.429   4.774   8.114  0.1857 -2.6049 -1.6628
  939MOL0     H26705   0.395   4.917   8.017 -1.1971  0.5381  1.0901
  939MOL0     H26706   0.186   4.823   7.927  0.6504  1.8457  0.3558
  939MOL0     H26707   0.231   4.662   7.983  1.4108 -0.4597  1.0904
  939MOL0     H26708   0.211   4.745   8.222 -1.0181 -0.7892  0.7375
  939MOL0     H26709   0.171   4.906   8.155 -0.1930 -0.0197 -0.4706
  939MOL0     H26710  -0.026   4.825   8.070  0.2438  0.4561  1.3350
  939MOL0     H26711   0.027   4.653   8.076  0.9109 -1.0979  1.2760
  939MOL0     H26712  -0.012   4.806   8.330  1.2752  0.7610 -0.4878
  939MOL0     H26713  -0.156   4.736   8.266 -0.8090 -0.8498 -1.0642
  939MOL0     H26714  -0.032   4.616   8.452  3.1614  1.9171 -0.1007
  939MOL0     H26715   0.096   4.582   8.337  1.1942  3.1595 -0.1679
  939MOL0     H26716  -0.275   4.528   8.195  0.7439  0.1385 -3.0384
  939MOL0     H26717  -0.370   4.311   8.060 -0.7747  1.3419  0.6937
  939MOL0     H26718  -0.256   4.169   8.095 -0.4307  0.5309 -0.8357
  939MOL0     H26719  -0.385   4.147   8.329  1.3217  2.9334  1.5138
  939MOL0     H26720  -0.495   4.119   8.192  0.7136 -0.1649 -1.4232
  939MOL0     H26721  -0.543   4.364   8.217 -0.1780  0.4601  0.6549
  939MOL0     H26722  -0.451   4.375   8.358 -1.2248  0.6648 -2.4043
  939MOL0     H26723  -0.658   4.360   8.442 -0.0873  2.5828 -3.6868
  939MOL0     H26724  -0.590   4.203   8.474  0.9392  0.9016  0.4021
  939MOL0     H26725  -0.745   3.964   8.229  1.2399  2.7995 -0.0102
  939MOL0     H26726  -0.770   3.701   8.304 -1.7991 -2.0291  0.3202
  939MOL0     H26727  -0.889   3.666   8.412  2.3174 -0.7692  1.4214
  939MOL0     H26728  -0.928   3.734   8.240  0.6076  0.8505 -1.0245
  939MOL0     H26729  -1.320   3.842   8.605 -3.3378  1.5523  0.2326
  939MOL0     H26730  -1.503   3.721   8.720 -0.3387 -2.4004  0.3983
  939MOL0     H26731  -1.656   3.624   8.861  0.1559 -1.2191 -1.7703
  939MOL0     H26732  -1.544   3.490   8.836 -1.6720  0.6319 -1.3803
  939MOL0     H26733  -1.686   3.530   9.111  1.3690  2.0906 -0.6141
  939MOL0     H26734  -1.761   3.434   8.991 -0.8703  1.6667  1.1457
  939MOL0     H26735  -1.459   3.391   9.084  0.8244  1.2023 -0.6421
  939MOL0     H26736  -1.538   3.294   8.967 -1.8224  0.5616 -0.7583
  939MOL0     H26737  -1.617   3.337   9.264 -0.1294  1.3451 -1.2626
  939MOL0     H26738  -1.709   3.239   9.150  0.5306  1.4607 -3.2769
  939MOL0     H26739  -1.460   3.196   9.289 -0.3917  0.3513 -1.3669
  939MOL0     H26740  -1.501   3.097   9.136 -1.7930  2.1115 -2.5961
  939MOL0     H26741  -1.682   3.102   9.385 -0.5118 -1.2173 -0.1196
  939MOL0     H26742  -1.688   2.976   9.264  0.1282  0.1495 -0.4078
  939MOL0     H26743  -1.438   3.017   9.434  2.5416 -3.4473  0.5275
  939MOL0     H26744  -1.500   2.864   9.353  2.0204  0.8508  1.5218
  939MOL0     H26745  -1.635   3.007   9.599  1.9456 -1.9870  2.9338
  939MOL0     H26746  -1.542   2.857   9.599 -1.4305 -1.7792  1.1501
  939MOL0     H26747  -1.291   3.739   9.088 -1.3392  1.4313  0.5510
  939MOL0     H26748  -1.082   3.802   8.980  1.6811  0.6038 -1.6630
  939MOL0     H26749  -0.979   4.071   8.653 -1.3547 -4.4209  1.4672
  939MOL0     H26750  -0.839   4.236   8.541  1.4892  0.7500 -1.6365
  939MOL0     H26751   0.887   4.765   7.831  0.3587  1.6394 -0.0654
  939MOL0     H26752   1.130   4.733   7.924  1.1286 -1.8741  1.0246
  939MOL0     H26753   1.431   4.733   8.165  1.0386  0.0434  0.4063
  939MOL0     H26754   1.657   4.659   8.217 -1.7280  1.0649 -2.7319
  939MOL0     H26755   1.711   4.387   8.555  1.7190  1.7902  0.9613
  939MOL0     H26756   1.763   4.294   8.414 -1.4741 -1.1603  0.2831
  939MOL0     H26757   1.996   4.408   8.446  2.1859  0.0284  0.6136
  939MOL0     H26758   1.939   4.296   8.570  1.0067 -0.6089  0.1238
  939MOL0     H26759   1.821   4.542   8.661  1.3398  0.8242  0.4081
  939MOL0     H26760   1.979   4.595   8.599  0.5933 -0.0575 -0.6841
  939MOL0     H26761   2.104   4.425   8.713 -0.5949 -0.2902  0.5305
  939MOL0     H26762   1.964   4.382   8.816  0.5900  0.8073  2.0759
  939MOL0     H26763   2.146   4.728   8.973 -2.2556  0.3165  1.5341
  939MOL0     H26764   1.511   4.354   8.473  0.3876  1.0857  2.3252
  939MOL0     H26765   1.268   4.412   8.416  1.1966 -3.9118 -2.4164
  940MOL0     O26766   3.065   0.004  10.989 -0.0895 -0.3921 -0.3611
  940MOL0     C26767   3.055   0.041  11.107 -0.6068 -0.2535  0.3659
  940MOL0     O26768   2.949   0.019  11.184  0.1007 -0.8134 -0.0715
  940MOL0     C26769   2.843  -0.053  11.125 -0.1314 -0.1946  0.1875
  940MOL0     C26770   2.790  -0.174  11.181  0.4640 -1.0025 -0.5303
  940MOL0     C26771   2.664  -0.234  11.138  0.4865 -0.1721 -0.9274
  940MOL0     C26772   2.595  -0.176  11.027  0.7358  0.0332 -1.1105
  940MOL0     O26773   2.472  -0.219  10.986 -0.3895 -0.1185  0.3413
  940MOL0     C26774   2.405  -0.330  11.037 -0.0648  1.0896 -0.0579
  940MOL0     C26775   2.251  -0.296  11.029 -0.4794 -0.3771 -0.6350
  940MOL0     C26776   2.143  -0.400  11.069  0.2864  1.2430  1.0557
  940MOL0     C26777   2.021  -0.336  11.142  0.6497  0.6004  0.4740
  940MOL0     C26778   1.925  -0.246  11.052 -0.4181 -0.1360 -0.2518
  940MOL0     C26779   1.817  -0.199  11.155 -0.1189 -0.6119  0.4512
  940MOL0     C26780   1.702  -0.134  11.084 -0.6813  0.3266 -0.0952
  940MOL0     C26781   1.581  -0.097  11.177  0.2997  0.1075 -0.0705
  940MOL0     N26782   1.614  -0.069  11.318  0.2603 -0.6711  0.7407
  940MOL0     C26783   1.698   0.029  11.366 -0.5610  0.3276  0.7328
  940MOL0     C26784   1.679   0.020  11.499 -0.6465 -0.3976  0.0539
  940MOL0     C26785   1.764   0.104  11.592 -0.8854 -0.4788  1.3326
  940MOL0     C26786   1.706   0.230  11.651  0.3310  0.7547 -0.3666
  940MOL0     C26787   1.609   0.202  11.763  1.0086  0.3957  0.7475
  940MOL0     C26788   1.582   0.342  11.831 -0.7356  0.5407  0.0372
  940MOL0     O26789   1.525   0.456  11.759  0.0796 -0.9203 -0.4144
  940MOL0     C26790   1.410   0.437  11.692 -0.8599 -0.1602 -0.9561
  940MOL0     C26791   1.311   0.345  11.724 -1.3952  0.1902 -0.7322
  940MOL0     C26792   1.195   0.323  11.656  0.4868  0.3216  0.0832
  940MOL0     C26793   1.124   0.190  11.687  0.5215  0.8012 -0.5300
  940MOL0     C26794   1.175   0.406  11.538 -0.5567 -0.6700 -0.1248
  940MOL0     C26795   1.058   0.401  11.449 -0.0887  0.9705 -0.5460
  940MOL0     O26796   1.070   0.478  11.337  0.2147 -0.3950 -0.4512
  940MOL0     C26797   0.973   0.455  11.245 -0.6085  0.4156  0.6159
  940MOL0     C26798   0.865   0.538  11.274  0.7749  0.6070  0.2757
  940MOL0     C26799   0.742   0.516  11.203 -0.4008 -0.7311 -1.1745
  940MOL0     C26800   0.744   0.431  11.090  0.2597  0.3220 -0.7944
  940MOL0     O26801   0.636   0.426  11.008  0.3093 -0.3231  0.6505
  940MOL0     C26802   0.581   0.305  10.970  1.1120 -0.4434 -0.7268
  940MOL0     C26803   0.470   0.344  10.866  0.0528 -0.7458 -0.7268
  940MOL0     C26804   0.507   0.452  10.756 -0.7731 -0.5099 -0.1117
  940MOL0     C26805   0.412   0.456  10.640  0.6612 -1.0301 -0.2106
  940MOL0     C26806   0.447   0.579  10.541  0.0578 -0.3837 -0.0126
  940MOL0     C26807   0.344   0.594  10.423 -0.3186  0.1244 -0.2866
  940MOL0     C26808   0.406   0.513  10.305  0.2289 -0.4582  0.3300
  940MOL0     C26809   0.333   0.560  10.177  0.1924 -1.5051 -0.6657
  940MOL0    Cl26810   0.367   0.452  10.056 -0.4948 -0.4218 -0.2060
  940MOL0     C26811   0.864   0.379  11.044 -0.5367 -0.0978  0.5974
  940MOL0     C26812   0.971   0.382  11.124 -0.8281 -0.5316 -0.6807
  940MOL0     O26813   0.958   0.334  11.494 -0.7446 -0.1941  0.4523
  940MOL0     C26814   1.273   0.504  11.505  0.9969  0.7123 -0.1786
  940MOL0     C26815   1.379   0.522  11.589  0.4390 -0.6841 -0.8765
  940MOL0     N26816   1.584  -0.073  11.535 -0.3235  1.0250  0.6472
  940MOL0     N26817   1.549  -0.124  11.423  0.3710  0.0063 -0.4630
  940MOL0     C26818   2.654  -0.064  10.975  0.8179 -0.3666  0.6183
  940MOL0     C26819   2.774  -0.002  11.011  0.4070  0.7472 -0.7071
  940MOL0     C26820   3.168   0.113  11.178 -0.6546  0.4347  0.4042
  940MOL0     C26821   3.158   0.174  11.311  0.0551  0.3264 -0.6882
  940MOL0     C26822   3.265   0.240  11.358  0.7891  0.1273  0.2795
  940MOL0     C26823   3.384   0.270  11.282  1.1024  0.6093 -0.1311
  940MOL0     O26824   3.487   0.337  11.339  0.4708  1.0007 -0.3288
  940MOL0     C26825   3.615   0.282  11.317 -0.6401  0.1260 -0.0118
  940MOL0     C26826   3.728   0.372  11.382 -0.7761 -0.5568 -0.8850
  940MOL0     C26827   3.860   0.317  11.347 -1.1043  1.0077 -0.4405
  940MOL0     C26828   3.970   0.424  11.329 -0.7643 -0.6856  0.2453
  940MOL0     C26829   3.947   0.537  11.234  0.2902 -0.2227 -0.4600
  940MOL0     C26830   3.934   0.630  11.154 -0.7726 -0.8064 -0.1711
  940MOL0     C26831   3.380   0.226  11.148 -0.4498 -0.1327 -0.7770
  940MOL0     C26832   3.269   0.162  11.095 -0.2471 -0.1880  0.2612
  940MOL0     H26833   2.838  -0.205  11.273  2.4490  2.2190 -0.3149
  940MOL0     H26834   2.634  -0.321  11.195  1.2795 -2.3018 -3.5430
  940MOL0     H26835   2.436  -0.412  10.971 -0.7214  1.1884 -0.4918
  940MOL0     H26836   2.440  -0.342  11.140  0.2934  0.2185 -0.2687
  940MOL0     H26837   2.246  -0.222  11.110 -0.7850  1.0673 -1.9313
  940MOL0     H26838   2.224  -0.234  10.943 -1.3375  4.6078  2.7736
  940MOL0     H26839   2.099  -0.442  10.978 -1.5165 -0.4215  2.5974
  940MOL0     H26840   2.190  -0.479  11.129 -1.9890 -0.3795  0.8173
  940MOL0     H26841   1.956  -0.414  11.183  0.0417 -1.1074 -3.2957
  940MOL0     H26842   2.058  -0.280  11.228  0.9740  1.1895 -0.0432
  940MOL0     H26843   1.984  -0.162  11.016 -1.4772 -0.3430 -2.6630
  940MOL0     H26844   1.873  -0.298  10.971 -0.5001 -0.0466 -0.2571
  940MOL0     H26845   1.785  -0.289  11.209  1.5179 -1.7847 -0.4444
  940MOL0     H26846   1.877  -0.132  11.216  1.0928 -1.1834 -0.0847
  940MOL0     H26847   1.751  -0.050  11.033 -0.4938 -0.3504 -1.0790
  940MOL0     H26848   1.669  -0.203  11.006  0.5322 -0.4725  0.0772
  940MOL0     H26849   1.516  -0.185  11.173  0.4045  0.0011  0.4679
  940MOL0     H26850   1.528  -0.013  11.133 -3.6326 -0.2144  3.4449
  940MOL0     H26851   1.760   0.086  11.298 -1.2356 -1.5779 -1.5971
  940MOL0     H26852   1.802   0.029  11.662  0.1815 -3.2350 -1.8865
  940MOL0     H26853   1.853   0.138  11.539 -0.5648  2.8621  3.7688
  940MOL0     H26854   1.646   0.287  11.579 -2.1697 -0.1839  0.8299
  940MOL0     H26855   1.784   0.299  11.683  0.9855  0.1629 -0.6619
  940MOL0     H26856   1.653   0.126  11.828  0.1010  1.2167  2.3963
  940MOL0     H26857   1.511   0.165  11.732 -0.2950  2.3199  2.2845
  940MOL0     H26858   1.675   0.373  11.880 -2.3254  1.5717  2.5840
  940MOL0     H26859   1.521   0.316  11.918  2.0749  0.8919  2.2512
  940MOL0     H26860   1.344   0.283  11.807  1.4475  1.7295 -0.5625
  940MOL0     H26861   1.139   0.117  11.607 -2.0437  0.5108 -0.8387
  940MOL0     H26862   1.156   0.145  11.781 -0.1342 -0.3852 -0.8486
  940MOL0     H26863   1.019   0.217  11.700  0.0484 -1.5286  1.2348
  940MOL0     H26864   0.876   0.603  11.360  1.3202  1.0220 -0.0984
  940MOL0     H26865   0.650   0.569  11.223 -0.0190 -1.5397  3.8140
  940MOL0     H26866   0.659   0.256  10.911  2.7011  3.0004 -1.7657
  940MOL0     H26867   0.546   0.238  11.050  0.2901 -1.1519 -1.6594
  940MOL0     H26868   0.434   0.255  10.814 -0.6793  0.2941 -2.0453
  940MOL0     H26869   0.382   0.382  10.919  0.9497  0.1093  0.2180
  940MOL0     H26870   0.608   0.432  10.718 -1.5447 -0.2002 -2.5130
  940MOL0     H26871   0.512   0.551  10.803  1.8256  0.8545 -2.8934
  940MOL0     H26872   0.433   0.361  10.591 -2.0895 -1.2562 -1.1166
  940MOL0     H26873   0.306   0.460  10.666  0.5164 -0.4165 -0.8530
  940MOL0     H26874   0.546   0.563  10.496 -0.2729 -1.9816 -0.2388
  940MOL0     H26875   0.460   0.678  10.587  2.2689  0.5828 -2.4545
  940MOL0     H26876   0.254   0.544  10.458 -1.4277 -0.1786 -3.2457
  940MOL0     H26877   0.329   0.701  10.406  1.5141  0.4775  0.0764
  940MOL0     H26878   0.387   0.407  10.320 -1.4650 -0.6422 -2.4551
  940MOL0     H26879   0.512   0.538  10.294 -0.2960  0.8745 -2.7896
  940MOL0     H26880   0.387   0.651  10.148  0.2191 -0.5155  2.1936
  940MOL0     H26881   0.228   0.574  10.203  0.7456  0.1787  0.8642
  940MOL0     H26882   0.873   0.357  10.938 -2.8187  6.2717 -1.3889
  940MOL0     H26883   1.069   0.347  11.090  0.4932 -0.1927  2.4687
  940MOL0     H26884   1.265   0.571  11.420  2.0164 -0.5927 -1.3517
  940MOL0     H26885   1.434   0.608  11.551  1.1780 -1.7954 -2.4696
  940MOL0     H26886   2.605  -0.025  10.887 -0.5552 -1.3316  0.9257
  940MOL0     H26887   2.803   0.097  10.977  2.4211  0.1570 -0.8811
  940MOL0     H26888   3.080   0.144  11.380  1.8970 -1.8904  0.5660
  940MOL0     H26889   3.260   0.267  11.463 -0.7882  2.4978 -0.3416
  940MOL0     H26890   3.619   0.180  11.356 -2.1884 -0.9267 -2.4174
  940MOL0     H26891   3.634   0.265  11.211  3.9519 -1.9038  0.8922
  940MOL0     H26892   3.716   0.368  11.491  0.7796  1.5183 -0.5862
  940MOL0     H26893   3.714   0.475  11.349 -1.3271 -0.1916  0.4283
  940MOL0     H26894   3.863   0.255  11.257  0.0558  1.2320 -0.5716
  940MOL0     H26895   3.896   0.247  11.424  2.3320  3.0719  0.0152
  940MOL0     H26896   4.050   0.364  11.284 -0.6021  2.0443 -3.5559
  940MOL0     H26897   3.995   0.457  11.430  0.7182  0.1843 -0.3738
  940MOL0     H26898   3.922   0.704  11.077  0.0511 -0.9615 -0.4516
  940MOL0     H26899   3.459   0.264  11.084  1.3832 -0.1037  1.3331
  940MOL0     H26900   3.259   0.144  10.989 -1.1534  3.7883 -0.4727
  941MOL0     O26901   8.733   4.946   2.339  0.7991  0.1269  0.0505
  941MOL0     C26902   8.789   4.998   2.435  0.4379  0.1035 -0.7152
  941MOL0     O26903   8.751   5.011   2.559  0.2603 -0.4357 -0.0008
  941MOL0     C26904   8.639   4.955   2.610 -0.8522  0.2919 -0.0480
  941MOL0     C26905   8.531   5.028   2.666  0.0470  0.0781 -0.5252
  941MOL0     C26906   8.407   4.977   2.720  0.3043 -0.6746 -0.9500
  941MOL0     C26907   8.380   4.848   2.705 -0.7666  0.4315  0.6253
  941MOL0     O26908   8.256   4.807   2.723  0.1181 -0.5756  0.0452
  941MOL0     C26909   8.236   4.669   2.755  0.8122 -0.2201  1.4794
  941MOL0     C26910   8.093   4.660   2.811  0.9149  0.5579  0.4846
  941MOL0     C26911   8.064   4.522   2.869  1.1190  0.5064 -0.0643
  941MOL0     C26912   7.912   4.502   2.900  0.3667 -0.6268  0.1966
  941MOL0     C26913   7.866   4.580   3.025 -0.3527 -0.2444 -0.4043
  941MOL0     C26914   7.745   4.513   3.097 -0.6796  0.6058  0.1481
  941MOL0     C26915   7.705   4.602   3.214 -0.1238  0.7640 -0.5234
  941MOL0     C26916   7.575   4.550   3.280  0.4911  0.2383 -0.1402
  941MOL0     N26917   7.460   4.538   3.192 -0.0972 -0.4993  0.6228
  941MOL0     C26918   7.398   4.649   3.137 -0.0183 -0.4186  0.8307
  941MOL0     C26919   7.305   4.592   3.057 -0.2486 -1.0208 -0.5699
  941MOL0     C26920   7.215   4.673   2.970 -0.0591 -0.6578  0.7171
  941MOL0     C26921   7.087   4.595   2.929 -1.1893  0.4593  0.9368
  941MOL0     C26922   7.000   4.656   2.818 -1.3365  0.3783  0.7728
  941MOL0     C26923   6.867   4.578   2.807  1.2520  0.1309  0.0492
  941MOL0     O26924   6.898   4.454   2.751  0.3356 -0.0517  0.1120
  941MOL0     C26925   6.791   4.378   2.716 -0.4897 -0.3639  0.2227
  941MOL0     C26926   6.653   4.399   2.746 -0.4843 -0.7354  0.5475
  941MOL0     C26927   6.544   4.323   2.698 -1.0131  0.1937  0.0460
  941MOL0     C26928   6.409   4.348   2.754  0.0211  0.4802 -0.0543
  941MOL0     C26929   6.573   4.222   2.601 -0.5234  0.2988 -0.3091
  941MOL0     C26930   6.477   4.129   2.540 -0.3393 -0.1688  0.0898
  941MOL0     O26931   6.368   4.195   2.499 -0.1378  0.3448  0.8247
  941MOL0     C26932   6.283   4.113   2.430  0.3466  0.1366  0.0564
  941MOL0     C26933   6.296   4.092   2.292  0.2327 -0.6783  0.3383
  941MOL0     C26934   6.214   4.000   2.224  0.5469  0.0189 -0.1030
  941MOL0     C26935   6.108   3.926   2.292 -0.1043  1.0157 -0.0136
  941MOL0     O26936   6.020   3.843   2.231 -0.2023  0.4220  0.2622
  941MOL0     C26937   6.047   3.814   2.093  0.8784  0.1119 -0.2501
  941MOL0     C26938   5.917   3.742   2.035  0.5838 -0.0730  0.6497
  941MOL0     C26939   5.939   3.701   1.889  1.2633  0.8688 -0.5580
  941MOL0     C26940   5.798   3.674   1.819 -0.4656  0.2917  0.2209
  941MOL0     C26941   5.727   3.801   1.775  0.2408  0.1362  0.5593
  941MOL0     C26942   5.591   3.759   1.703 -1.1615  0.3453  0.0625
  941MOL0     C26943   5.505   3.871   1.660 -0.4453 -0.3337  0.1546
  941MOL0     C26944   5.564   3.975   1.569 -0.0803 -0.1036 -0.5047
  941MOL0    Cl26945   5.661   3.898   1.420 -0.1472 -0.0795 -0.2248
  941MOL0     C26946   6.099   3.945   2.428  0.8195 -0.0809  0.0853
  941MOL0     C26947   6.177   4.039   2.498 -0.4442 -0.6593  1.1722
  941MOL0     O26948   6.502   4.011   2.541 -0.7660  0.3282  1.1604
  941MOL0     C26949   6.708   4.212   2.559 -0.2519 -0.0291  0.8246
  941MOL0     C26950   6.811   4.279   2.618 -0.1233 -0.4106  1.2125
  941MOL0     N26951   7.320   4.453   3.057 -0.1174 -0.8065 -1.1224
  941MOL0     N26952   7.415   4.423   3.143  0.3825  0.3781  0.6136
  941MOL0     C26953   8.483   4.764   2.650  0.7017 -0.0713 -0.2233
  941MOL0     C26954   8.615   4.818   2.620 -0.3025 -0.0825  0.2646
  941MOL0     C26955   8.921   5.066   2.400  0.8432  0.7599 -0.6520
  941MOL0     C26956   9.025   5.105   2.488  0.5894  0.1312 -0.2958
  941MOL0     C26957   9.145   5.164   2.438  0.2970 -0.6779 -0.0465
  941MOL0     C26958   9.158   5.193   2.301  0.5693 -0.3162  0.1511
  941MOL0     O26959   9.270   5.250   2.246  0.0438  0.5400  0.5460
  941MOL0     C26960   9.269   5.391   2.262  0.0843  0.7208 -0.1289
  941MOL0     C26961   9.398   5.451   2.215  0.2138 -0.4647  0.5198
  941MOL0     C26962   9.424   5.594   2.272 -0.5154  0.1075 -0.0731
  941MOL0     C26963   9.491   5.601   2.410 -0.4790  0.5123 -0.2216
  941MOL0     C26964   9.452   5.736   2.464 -0.4683  0.6956 -0.4599
  941MOL0     C26965   9.439   5.846   2.516 -0.1362 -0.2551  0.6162
  941MOL0     C26966   9.058   5.148   2.214  0.0088  0.0307 -0.4021
  941MOL0     C26967   8.943   5.095   2.262 -0.1001 -0.6809  0.3913
  941MOL0     H26968   8.542   5.136   2.669 -0.3402  0.1397 -1.2225
  941MOL0     H26969   8.323   5.041   2.743  0.8787  0.0157 -0.7528
  941MOL0     H26970   8.244   4.612   2.662 -2.0879  1.4105  0.0982
  941MOL0     H26971   8.317   4.639   2.823  1.7470 -1.2792 -0.0494
  941MOL0     H26972   8.077   4.734   2.891 -1.0732  0.6425  0.0730
  941MOL0     H26973   8.021   4.679   2.730  3.0686 -0.1754 -1.7063
  941MOL0     H26974   8.094   4.459   2.785 -2.0113 -0.2252 -0.7437
  941MOL0     H26975   8.112   4.502   2.965 -1.6407  1.7107  1.6791
  941MOL0     H26976   7.852   4.522   2.810 -0.5947 -2.1187  0.4795
  941MOL0     H26977   7.909   4.396   2.923  2.9922 -0.4334  1.9428
  941MOL0     H26978   7.950   4.591   3.094 -0.6359 -0.0692 -0.0876
  941MOL0     H26979   7.853   4.685   2.997 -1.0127  0.0776  1.0376
  941MOL0     H26980   7.658   4.512   3.032  0.5130  1.4973 -1.5512
  941MOL0     H26981   7.760   4.416   3.146 -3.1337 -0.9057 -1.8508
  941MOL0     H26982   7.782   4.592   3.291 -1.5185  2.2555  1.1864
  941MOL0     H26983   7.690   4.705   3.179 -1.3771  0.3238 -1.3403
  941MOL0     H26984   7.547   4.620   3.360  1.0014 -1.4486  1.5858
  941MOL0     H26985   7.593   4.450   3.321 -0.3093 -1.0565 -2.7552
  941MOL0     H26986   7.433   4.752   3.141  0.0867 -0.5023  3.0469
  941MOL0     H26987   7.193   4.768   3.020  1.0207 -0.9802  1.8394
  941MOL0     H26988   7.268   4.705   2.880 -1.9775  0.1255 -0.2045
  941MOL0     H26989   7.026   4.571   3.016 -1.6637  1.4931  0.9021
  941MOL0     H26990   7.132   4.501   2.894  0.2623  1.0752  1.0648
  941MOL0     H26991   7.046   4.660   2.719  0.0455  1.9046  1.4354
  941MOL0     H26992   6.992   4.759   2.851  2.2785  0.7366  0.9392
  941MOL0     H26993   6.801   4.623   2.732  0.6183  0.3499  0.7221
  941MOL0     H26994   6.833   4.576   2.911 -0.2108 -2.0703 -0.4135
  941MOL0     H26995   6.631   4.477   2.818 -0.5902  2.4015 -2.6128
  941MOL0     H26996   6.331   4.292   2.702 -0.9978  1.6137  0.1895
  941MOL0     H26997   6.412   4.314   2.857 -0.3247  1.2016  0.2032
  941MOL0     H26998   6.389   4.456   2.753 -0.1828  0.4689  1.1237
  941MOL0     H26999   6.366   4.156   2.239  0.7922 -3.3292 -2.3976
  941MOL0     H27000   6.237   3.989   2.118 -0.7586 -1.5060 -0.2579
  941MOL0     H27001   6.050   3.899   2.024 -4.0125  0.3273 -0.5400
  941MOL0     H27002   6.129   3.742   2.088  1.2736  0.5140  0.3058
  941MOL0     H27003   5.882   3.671   2.111  1.2253  1.9183  2.9399
  941MOL0     H27004   5.838   3.818   2.032 -1.2560 -1.9313 -0.7346
  941MOL0     H27005   6.001   3.611   1.891  3.2396  2.1804  1.1094
  941MOL0     H27006   6.001   3.772   1.834  1.3741  0.9430 -0.3406
  941MOL0     H27007   5.812   3.617   1.727 -1.9397 -0.4650  0.4219
  941MOL0     H27008   5.729   3.613   1.879 -1.0649 -0.7685 -1.4748
  941MOL0     H27009   5.788   3.855   1.702 -1.9829 -0.2373 -1.7079
  941MOL0     H27010   5.699   3.851   1.869 -3.4036 -0.4983 -0.0807
  941MOL0     H27011   5.625   3.696   1.620 -3.8633  0.3180 -1.1310
  941MOL0     H27012   5.529   3.699   1.771 -0.4677 -2.4865 -1.6300
  941MOL0     H27013   5.456   3.917   1.747 -2.7043 -0.1989 -1.1246
  941MOL0     H27014   5.418   3.842   1.601 -0.9975 -0.1841  0.8738
  941MOL0     H27015   5.619   4.048   1.629  0.2311 -1.9566  1.6112
  941MOL0     H27016   5.480   4.031   1.527  1.8927  2.3209 -1.5312
  941MOL0     H27017   6.018   3.905   2.489  1.6777  0.6450  1.7643
  941MOL0     H27018   6.168   4.062   2.604 -0.0439  1.2456  0.8325
  941MOL0     H27019   6.732   4.145   2.478  0.6789 -0.1433  1.1841
  941MOL0     H27020   6.905   4.265   2.567 -1.3634 -0.8517 -1.0815
  941MOL0     H27021   8.473   4.659   2.629  1.9326 -0.4628  0.9632
  941MOL0     H27022   8.692   4.747   2.590  2.7086  2.9425  0.2361
  941MOL0     H27023   9.021   5.075   2.593  1.2108 -1.9274 -0.8332
  941MOL0     H27024   9.222   5.184   2.511  1.0200 -2.9248 -0.1038
  941MOL0     H27025   9.185   5.436   2.209 -0.5238  0.6968  0.7984
  941MOL0     H27026   9.261   5.416   2.368  0.1145  1.0844 -0.2127
  941MOL0     H27027   9.393   5.462   2.106  1.5091 -1.2161  0.3694
  941MOL0     H27028   9.490   5.396   2.237  2.4022  2.3852 -0.8147
  941MOL0     H27029   9.326   5.642   2.281  0.1836  1.4716  0.6553
  941MOL0     H27030   9.477   5.650   2.195  1.0480  2.1933  2.3563
  941MOL0     H27031   9.600   5.590   2.406 -0.5631 -1.6561  1.5425
  941MOL0     H27032   9.444   5.533   2.482 -1.4872  1.6556  0.2290
  941MOL0     H27033   9.426   5.946   2.551 -0.9758 -0.1075 -0.0699
  941MOL0     H27034   9.061   5.156   2.106 -0.3209 -2.5937 -0.6653
  941MOL0     H27035   8.867   5.065   2.190  1.3090 -1.3494 -0.8702
  942MOL0     O27036   6.063   7.932   7.980  0.0781  0.1166  0.2738
  942MOL0     C27037   6.093   7.817   8.010 -0.2349  0.2339  0.0239
  942MOL0     O27038   6.009   7.706   8.022  0.2662 -0.1679 -0.7146
  942MOL0     C27039   5.879   7.733   8.018  0.7192 -0.1256  0.2198
  942MOL0     C27040   5.810   7.722   7.902 -0.2405 -0.1699 -0.4149
  942MOL0     C27041   5.679   7.737   7.889  0.2222 -0.0218  0.8029
  942MOL0     C27042   5.603   7.763   8.005 -0.1098  0.1511  0.2882
  942MOL0     O27043   5.472   7.790   7.980  0.6956 -0.2405  0.1851
  942MOL0     C27044   5.415   7.891   8.059 -1.0060  0.1483 -0.3048
  942MOL0     C27045   5.277   7.952   8.018 -0.6098 -0.2849 -0.6875
  942MOL0     C27046   5.287   8.090   7.942 -0.1247  0.1044  1.1336
  942MOL0     C27047   5.266   8.215   8.024 -0.5810  0.4656 -0.4521
  942MOL0     C27048   5.208   8.331   7.940 -0.8639  0.0805  0.4660
  942MOL0     C27049   5.170   8.461   8.009 -0.1058 -0.6415 -0.9142
  942MOL0     C27050   5.275   8.530   8.088 -0.0095 -1.0161  0.4939
  942MOL0     C27051   5.279   8.494   8.234  0.1485  0.9604  0.1648
  942MOL0     N27052   5.198   8.582   8.317 -1.0100  0.9491 -0.0076
  942MOL0     C27053   5.071   8.568   8.365  0.8978 -0.2472 -0.3489
  942MOL0     C27054   5.046   8.666   8.456 -0.2325  0.6484  0.0700
  942MOL0     C27055   4.910   8.683   8.531 -0.2407  0.5594  0.7946
  942MOL0     C27056   4.888   8.595   8.652  0.2450  0.3132  0.8476
  942MOL0     C27057   4.758   8.628   8.733  0.1178 -0.0619  0.0072
  942MOL0     C27058   4.756   8.568   8.872 -0.6737 -0.7811 -0.5388
  942MOL0     O27059   4.627   8.588   8.941  0.0642  0.1007 -0.0141
  942MOL0     C27060   4.604   8.509   9.055  0.7670  0.0665 -0.3650
  942MOL0     C27061   4.708   8.434   9.129  0.8601  0.5115 -0.3997
  942MOL0     C27062   4.683   8.377   9.259  0.1588  0.2674  0.4637
  942MOL0     C27063   4.804   8.320   9.332 -0.5945  1.4094 -0.2444
  942MOL0     C27064   4.547   8.390   9.309 -0.1340  0.1582 -0.3469
  942MOL0     C27065   4.509   8.337   9.431 -0.1085  0.1405 -0.6463
  942MOL0     O27066   4.406   8.408   9.496 -0.2135  0.4863  0.1191
  942MOL0     C27067   4.394   8.421   9.630  0.4039 -0.0400  0.7591
  942MOL0     C27068   4.447   8.339   9.729  0.3945  0.6658  0.3079
  942MOL0     C27069   4.411   8.350   9.865 -0.8526  0.6500  0.2190
  942MOL0     C27070   4.315   8.450   9.902  0.5963  0.2295  0.1154
  942MOL0     O27071   4.279   8.445  10.032 -0.3306 -1.0588  0.0311
  942MOL0     C27072   4.146   8.452  10.077  0.3801  0.1300 -0.6111
  942MOL0     C27073   4.077   8.325  10.110  0.0871 -0.3689  0.2888
  942MOL0     C27074   4.034   8.232   9.990  0.2025 -0.1027 -0.3105
  942MOL0     C27075   3.918   8.289   9.897 -0.1182  0.3800 -0.4372
  942MOL0     C27076   3.902   8.200   9.769 -0.9684 -0.2381 -0.5438
  942MOL0     C27077   4.014   8.217   9.660  0.9883  0.7624 -0.0544
  942MOL0     C27078   3.992   8.334   9.571  0.9342  0.2032  0.0276
  942MOL0     C27079   4.082   8.325   9.452  0.0515  0.6284 -0.4000
  942MOL0    Cl27080   3.987   8.373   9.314  0.3196  0.5765  0.0128
  942MOL0     C27081   4.267   8.544   9.808 -0.6628 -0.6984 -0.3606
  942MOL0     C27082   4.307   8.524   9.672 -0.5259  0.0539 -0.4196
  942MOL0     O27083   4.565   8.241   9.471  0.6505  0.4325  0.2801
  942MOL0     C27084   4.451   8.456   9.236  0.1457  0.7225  0.9086
  942MOL0     C27085   4.484   8.523   9.116 -0.0440  0.7420  0.1513
  942MOL0     N27086   5.165   8.733   8.466  0.0914 -0.1894  0.3345
  942MOL0     N27087   5.248   8.692   8.371  0.9000 -0.6995  0.3204
  942MOL0     C27088   5.667   7.761   8.128 -0.5737 -0.3076 -0.7972
  942MOL0     C27089   5.809   7.762   8.137  0.0367  0.9571  0.1657
  942MOL0     C27090   6.236   7.777   8.018  0.9489 -0.3460 -0.0385
  942MOL0     C27091   6.276   7.699   8.124  0.3014 -0.0623  0.2899
  942MOL0     C27092   6.412   7.684   8.144 -0.7633 -1.0173  0.0764
  942MOL0     C27093   6.510   7.727   8.054 -0.1284  0.4509  0.0513
  942MOL0     O27094   6.641   7.687   8.076  1.2686 -1.7789  0.5749
  942MOL0     C27095   6.738   7.738   7.989 -0.3385 -1.1443  0.1301
  942MOL0     C27096   6.758   7.658   7.864 -0.4482  0.1981  0.1040
  942MOL0     C27097   6.861   7.718   7.766  0.2866  0.2425 -0.9247
  942MOL0     C27098   6.882   7.618   7.653  0.4862 -0.4858  0.1202
  942MOL0     C27099   7.008   7.542   7.647  0.7624  0.0328 -0.4006
  942MOL0     C27100   7.112   7.482   7.647 -0.0269 -0.0741  0.3600
  942MOL0     C27101   6.471   7.801   7.943  0.2628  0.4425 -0.2761
  942MOL0     C27102   6.332   7.825   7.921 -0.8934 -0.1249 -0.1146
  942MOL0     H27103   5.865   7.690   7.814  0.8611  2.5260 -0.7818
  942MOL0     H27104   5.639   7.743   7.789 -1.7685 -1.1047  1.4664
  942MOL0     H27105   5.406   7.858   8.163  2.2002 -0.2750 -0.0523
  942MOL0     H27106   5.485   7.973   8.080 -0.5720  0.0919 -1.4740
  942MOL0     H27107   5.222   7.877   7.961 -1.6375  1.2311 -1.7532
  942MOL0     H27108   5.225   7.963   8.114  0.7958 -0.6881  0.1519
  942MOL0     H27109   5.384   8.097   7.893  1.1141 -4.5329  2.3989
  942MOL0     H27110   5.227   8.092   7.850  4.8626  0.6903 -2.5153
  942MOL0     H27111   5.201   8.195   8.111 -1.4541  0.8076 -1.0107
  942MOL0     H27112   5.358   8.241   8.078  0.2636 -1.9640 -0.5760
  942MOL0     H27113   5.283   8.364   7.867  0.8767  0.9860  2.5277
  942MOL0     H27114   5.117   8.293   7.894  1.5503 -4.3134 -1.3364
  942MOL0     H27115   5.135   8.531   7.933  1.0650 -0.3076 -1.1635
  942MOL0     H27116   5.091   8.428   8.078  0.0669  0.6833 -0.0447
  942MOL0     H27117   5.375   8.500   8.055 -0.3625 -2.4234  0.6224
  942MOL0     H27118   5.260   8.636   8.067 -2.1615 -1.6345 -1.5618
  942MOL0     H27119   5.383   8.497   8.269 -0.1697 -3.2636  2.0225
  942MOL0     H27120   5.243   8.391   8.238 -0.9440  1.1642 -2.6214
  942MOL0     H27121   4.986   8.510   8.330 -1.7055  1.7490  2.1609
  942MOL0     H27122   4.896   8.790   8.552  0.1487  0.9345 -0.7664
  942MOL0     H27123   4.827   8.658   8.464  0.2688  1.4818 -0.1977
  942MOL0     H27124   4.968   8.623   8.721 -0.6813  2.1461  1.2682
  942MOL0     H27125   4.901   8.488   8.637 -0.6799  0.2872  0.0703
  942MOL0     H27126   4.677   8.587   8.673 -0.3191  1.8945 -0.8123
  942MOL0     H27127   4.738   8.734   8.748 -0.4278  0.1004 -1.7716
  942MOL0     H27128   4.840   8.609   8.930 -2.4279  3.0364 -0.3938
  942MOL0     H27129   4.770   8.460   8.875  0.1591 -0.7099 -1.3593
  942MOL0     H27130   4.809   8.433   9.088  0.3679  0.7796 -1.6524
  942MOL0     H27131   4.895   8.370   9.300  0.3448 -0.6303 -0.8751
  942MOL0     H27132   4.800   8.316   9.441  1.5841  2.0045 -0.1074
  942MOL0     H27133   4.818   8.216   9.302 -0.8633  1.7817 -1.7091
  942MOL0     H27134   4.520   8.262   9.704 -0.6733 -0.6838  1.1807
  942MOL0     H27135   4.441   8.289   9.949 -0.3620  1.1283  0.4007
  942MOL0     H27136   4.156   8.492  10.179 -1.2063 -2.7033  0.8068
  942MOL0     H27137   4.089   8.522  10.016  1.0662 -0.5529 -2.0632
  942MOL0     H27138   4.134   8.265  10.182 -1.0937 -1.6383  0.1992
  942MOL0     H27139   3.982   8.363  10.150 -1.5936 -0.1232 -3.4680
  942MOL0     H27140   3.990   8.145  10.039  0.3760  1.0664  2.0623
  942MOL0     H27141   4.120   8.208   9.927  0.6216 -1.4169  0.7164
  942MOL0     H27142   3.825   8.286   9.955 -0.1392  1.2501 -0.4021
  942MOL0     H27143   3.945   8.390   9.865 -0.5056  0.2844 -1.0866
  942MOL0     H27144   3.802   8.219   9.729 -1.3409  0.7418  0.7768
  942MOL0     H27145   3.902   8.095   9.797 -0.0964 -0.0593  0.1899
  942MOL0     H27146   4.115   8.225   9.699  0.3997  0.3094  1.6887
  942MOL0     H27147   3.992   8.135   9.590 -0.4664  1.1355 -0.0812
  942MOL0     H27148   4.028   8.420   9.627  1.1449 -0.2379  0.5803
  942MOL0     H27149   3.885   8.346   9.551  0.1934 -1.3603  2.5184
  942MOL0     H27150   4.118   8.222   9.446 -0.1511  0.6058 -1.5857
  942MOL0     H27151   4.162   8.399   9.462 -0.0224  0.8729 -1.4700
  942MOL0     H27152   4.203   8.629   9.830 -3.0220 -2.3490 -0.4030
  942MOL0     H27153   4.254   8.576   9.593 -1.2436  0.3732  0.2575
  942MOL0     H27154   4.355   8.478   9.282 -1.7329 -0.6680 -2.0216
  942MOL0     H27155   4.407   8.588   9.075 -3.1701  1.2121  5.7127
  942MOL0     H27156   5.613   7.784   8.219 -1.7792  1.4948 -1.9098
  942MOL0     H27157   5.867   7.753   8.228  0.7047  0.1421 -0.3285
  942MOL0     H27158   6.201   7.659   8.192 -0.2620  1.2619  0.4915
  942MOL0     H27159   6.442   7.638   8.237  0.2051  2.3812  1.5744
  942MOL0     H27160   6.714   7.843   7.971 -3.2077 -1.6152  0.6798
  942MOL0     H27161   6.834   7.736   8.041  0.0600  0.7479 -0.4667
  942MOL0     H27162   6.664   7.657   7.809 -2.0841  2.4698  2.5954
  942MOL0     H27163   6.792   7.561   7.901 -2.1523 -0.3680  0.2508
  942MOL0     H27164   6.963   7.737   7.802  0.8937  0.7364 -2.7598
  942MOL0     H27165   6.826   7.816   7.731 -2.7892 -0.3764  0.1200
  942MOL0     H27166   6.881   7.679   7.562  3.8179 -0.8349 -0.3009
  942MOL0     H27167   6.795   7.553   7.644  1.4455 -1.9431  0.9199
  942MOL0     H27168   7.202   7.427   7.665  2.3567  3.2852 -0.3659
  942MOL0     H27169   6.536   7.862   7.881 -0.8171  3.2136  1.1182
  942MOL0     H27170   6.298   7.878   7.833 -4.3670 -0.2187  1.0474
  943MOL0     O27171   2.860   8.817   3.771  0.7471 -0.2274  0.4711
  943MOL0     C27172   2.954   8.812   3.850 -0.0182 -0.5720 -0.3109
  943MOL0     O27173   2.970   8.900   3.954  0.0177  0.0273  0.5244
  943MOL0     C27174   2.868   8.981   3.987 -0.5942  0.4893  0.5695
  943MOL0     C27175   2.860   9.115   3.937 -0.0575  0.0790  0.4329
  943MOL0     C27176   2.742   9.186   3.956  0.5610 -0.2532  0.0587
  943MOL0     C27177   2.639   9.145   4.038 -0.1418  0.5740 -0.2057
  943MOL0     O27178   2.530   9.226   4.056  0.2274 -0.8036 -0.1766
  943MOL0     C27179   2.430   9.173   4.137  0.3295  0.3511 -0.0324
  943MOL0     C27180   2.342   9.279   4.193 -0.6432 -0.2001  0.2907
  943MOL0     C27181   2.208   9.308   4.123 -1.0590  0.2778 -0.4850
  943MOL0     C27182   2.145   9.410   4.212  0.0934  0.1906 -0.5227
  943MOL0     C27183   2.010   9.458   4.164 -0.5888 -0.0414  0.1168
  943MOL0     C27184   1.952   9.553   4.271  0.3503 -0.7058  0.2146
  943MOL0     C27185   1.846   9.632   4.199 -0.5754  0.5817  0.2346
  943MOL0     C27186   1.786   9.732   4.290 -0.7896  0.2970  0.6464
  943MOL0     N27187   1.685   9.820   4.231 -0.1167 -1.9913  0.2443
  943MOL0     C27188   1.691   9.873   4.105  0.3024 -0.5182  0.0413
  943MOL0     C27189   1.595   9.970   4.108  0.0229 -0.3892 -0.6482
  943MOL0     C27190   1.571  10.054   3.989  0.3035  0.0667 -0.7104
  943MOL0     C27191   1.689  10.160   3.972  0.0233  0.0193 -0.4523
  943MOL0     C27192   1.675  10.252   3.850 -0.2742 -0.0264 -0.1865
  943MOL0     C27193   1.771  10.377   3.861 -0.1482  0.1576  0.3765
  943MOL0     O27194   1.751  10.468   3.968 -0.3185 -0.5446  0.0583
  943MOL0     C27195   1.636  10.552   3.970 -0.9298  0.3985  0.2684
  943MOL0     C27196   1.620  10.634   4.076 -0.7418  0.1459  0.1007
  943MOL0     C27197   1.501  10.706   4.095 -0.3031  0.5756  0.2438
  943MOL0     C27198   1.491  10.776   4.233  0.4209 -0.6776 -0.2072
  943MOL0     C27199   1.398  10.706   3.992 -0.1246  0.1408  0.2410
  943MOL0     C27200   1.281  10.798   3.984 -0.4583  0.6941  0.5201
  943MOL0     O27201   1.194  10.784   3.881  0.2816  0.1815 -0.6085
  943MOL0     C27202   1.107  10.887   3.861 -0.0644 -1.5265 -0.1116
  943MOL0     C27203   1.023  10.944   3.956  0.5326  0.5003 -0.1568
  943MOL0     C27204   0.923  11.033   3.925  0.3058 -0.0224 -0.1296
  943MOL0     C27205   0.923  11.084   3.796 -0.8663  0.2289 -0.3464
  943MOL0     O27206   0.833  11.188   3.775 -0.5870  0.9837 -0.1862
  943MOL0     C27207   0.783  11.213   3.642  0.0900 -0.0722 -0.1819
  943MOL0     C27208   0.723  11.348   3.649  0.3092 -1.0142 -0.9864
  943MOL0     C27209   0.641  11.392   3.536 -0.2153 -0.5614 -0.5246
  943MOL0     C27210   0.574  11.525   3.570  0.2558  0.1670  1.0057
  943MOL0     C27211   0.468  11.561   3.463  0.2386 -0.7824  0.7596
  943MOL0     C27212   0.330  11.598   3.518  0.8724  0.9649 -0.3556
  943MOL0     C27213   0.231  11.637   3.398 -0.6470  1.1330 -0.7243
  943MOL0     C27214   0.090  11.677   3.440  0.0683 -0.1845 -0.0442
  943MOL0    Cl27215  -0.012  11.555   3.526 -0.0629 -0.2731  0.1254
  943MOL0     C27216   1.010  11.029   3.705 -0.5490 -0.5961  0.2628
  943MOL0     C27217   1.094  10.922   3.732  0.8698  0.8450  0.3523
  943MOL0     O27218   1.261  10.872   4.081  0.1468  0.2429  0.2104
  943MOL0     C27219   1.424  10.625   3.884 -0.1647  0.1546 -0.5890
  943MOL0     C27220   1.539  10.547   3.872 -0.0529 -0.2394  0.3060
  943MOL0     N27221   1.525   9.967   4.223 -1.1612 -0.0696  0.1048
  943MOL0     N27222   1.583   9.879   4.300  0.4242 -0.0088  0.3449
  943MOL0     C27223   2.649   9.006   4.088 -0.4001 -1.0340  0.2986
  943MOL0     C27224   2.763   8.930   4.065  0.2415 -0.0008  0.0504
  943MOL0     C27225   3.063   8.711   3.826 -0.4168  0.1837  0.6340
  943MOL0     C27226   3.052   8.603   3.736 -0.6789 -0.0841 -0.0202
  943MOL0     C27227   3.157   8.508   3.731  0.3578 -0.5004 -1.0058
  943MOL0     C27228   3.276   8.520   3.804 -0.0311 -0.6175 -0.1205
  943MOL0     O27229   3.383   8.445   3.794 -0.5133 -0.1012  0.3129
  943MOL0     C27230   3.377   8.335   3.702 -0.3947  1.1005 -0.1427
  943MOL0     C27231   3.516   8.269   3.698 -0.0086 -0.0189  1.3557
  943MOL0     C27232   3.535   8.182   3.814  0.2144 -0.1147 -1.0201
  943MOL0     C27233   3.660   8.101   3.807 -0.2019  0.3064 -0.1713
  943MOL0     C27234   3.781   8.185   3.812 -0.4706  0.3773 -0.9979
  943MOL0     C27235   3.887   8.248   3.802 -0.5431  0.5906  0.2038
  943MOL0     C27236   3.287   8.634   3.879  0.3459  0.8316 -0.3140
  943MOL0     C27237   3.183   8.723   3.904  0.3005 -0.7630 -0.5445
  943MOL0     H27238   2.928   9.161   3.865  0.0501  1.2034  1.2168
  943MOL0     H27239   2.742   9.287   3.916  0.6776 -0.4229 -0.3729
  943MOL0     H27240   2.372   9.099   4.081 -0.7434 -0.2697  1.7796
  943MOL0     H27241   2.482   9.127   4.222  1.5200  0.4273 -0.6966
  943MOL0     H27242   2.330   9.253   4.299  1.5623 -1.5878  0.2633
  943MOL0     H27243   2.402   9.370   4.185  2.2552 -2.1606 -3.2174
  943MOL0     H27244   2.230   9.345   4.022 -1.1119 -1.4539 -1.1638
  943MOL0     H27245   2.156   9.213   4.107  0.0726 -0.2346 -1.2308
  943MOL0     H27246   2.124   9.373   4.313  0.7646  1.0194 -0.0651
  943MOL0     H27247   2.206   9.500   4.216 -0.5160  0.5792  2.9112
  943MOL0     H27248   2.008   9.506   4.066 -0.5265 -3.1012 -1.5081
  943MOL0     H27249   1.936   9.378   4.152 -1.2037  0.1562  2.1313
  943MOL0     H27250   1.913   9.506   4.362 -1.0931 -1.3136 -0.6881
  943MOL0     H27251   2.034   9.625   4.282  0.5313 -0.9134  0.2578
  943MOL0     H27252   1.890   9.691   4.117 -1.6986  0.9254 -0.1456
  943MOL0     H27253   1.766   9.575   4.152 -0.8977  1.2440 -0.0461
  943MOL0     H27254   1.874   9.783   4.330  2.1060 -3.6556 -0.0771
  943MOL0     H27255   1.738   9.669   4.365  0.0882 -1.6479 -0.3485
  943MOL0     H27256   1.767   9.852   4.031  0.7168  0.8562  0.0505
  943MOL0     H27257   1.546  10.010   3.892 -0.7737 -0.6362 -0.1246
  943MOL0     H27258   1.478  10.107   4.011  1.3294  1.5178  0.3235
  943MOL0     H27259   1.786  10.115   3.950  1.1017  1.1178  1.7427
  943MOL0     H27260   1.704  10.223   4.061 -0.0923  1.5565 -1.4696
  943MOL0     H27261   1.573  10.291   3.842  0.3795  2.3135  1.7893
  943MOL0     H27262   1.705  10.192   3.763  2.6220 -0.4517  0.9922
  943MOL0     H27263   1.780  10.431   3.767 -1.0417 -2.8245 -1.5835
  943MOL0     H27264   1.873  10.341   3.880 -0.0535  0.4877  0.4905
  943MOL0     H27265   1.697  10.631   4.153 -0.2866  2.2354 -0.2102
  943MOL0     H27266   1.585  10.778   4.290 -0.6972  2.3893  1.7475
  943MOL0     H27267   1.460  10.879   4.214 -2.3979 -1.6018 -1.1307
  943MOL0     H27268   1.416  10.722   4.291 -1.1152  1.3537 -0.2151
  943MOL0     H27269   1.034  10.910   4.058  0.8387 -1.5365 -0.8149
  943MOL0     H27270   0.854  11.065   4.003  1.3957  1.8331  0.1334
  943MOL0     H27271   0.863  11.214   3.568  2.4724  2.0576  2.2096
  943MOL0     H27272   0.701  11.146   3.617 -2.0214  2.7146 -1.1561
  943MOL0     H27273   0.666  11.346   3.742 -1.1920  2.5004 -1.6739
  943MOL0     H27274   0.807  11.416   3.668 -0.7167  0.2087 -0.6760
  943MOL0     H27275   0.569  11.311   3.527  3.1869 -3.6466 -2.6745
  943MOL0     H27276   0.708  11.422   3.455  0.9753  0.8374  0.9065
  943MOL0     H27277   0.534  11.530   3.672  1.0280 -0.8973  1.3832
  943MOL0     H27278   0.639  11.612   3.582  0.0827  0.9380 -2.5478
  943MOL0     H27279   0.444  11.473   3.401 -2.9466  0.4233  0.0667
  943MOL0     H27280   0.502  11.633   3.389 -2.7201 -1.2946 -1.2906
  943MOL0     H27281   0.285  11.509   3.563  0.2521  0.0095 -2.7267
  943MOL0     H27282   0.340  11.686   3.583 -0.0564  1.3087 -0.6664
  943MOL0     H27283   0.221  11.544   3.340 -0.9973  2.0867 -2.2386
  943MOL0     H27284   0.284  11.703   3.329  1.9646  0.8500  0.8752
  943MOL0     H27285   0.029  11.710   3.356 -3.0224  0.0836  2.1442
  943MOL0     H27286   0.097  11.761   3.510  2.1713 -1.1606  1.0022
  943MOL0     H27287   1.000  11.061   3.602 -3.3634  0.3511  0.7442
  943MOL0     H27288   1.160  10.877   3.659 -0.8213  1.8738 -1.8938
  943MOL0     H27289   1.349  10.613   3.806  0.3227 -2.6223 -0.7576
  943MOL0     H27290   1.553  10.495   3.778  2.7626  1.5908 -0.4126
  943MOL0     H27291   2.566   8.954   4.134 -1.6647 -0.2806 -1.0187
  943MOL0     H27292   2.768   8.825   4.091 -1.9674 -0.3369 -0.6391
  943MOL0     H27293   2.977   8.602   3.657 -1.2250  3.6220  0.2587
  943MOL0     H27294   3.141   8.431   3.656 -1.0460  0.4017 -1.6634
  943MOL0     H27295   3.299   8.264   3.732  0.7271  0.1065  0.5099
  943MOL0     H27296   3.359   8.358   3.597 -0.1381 -0.0545 -0.4518
  943MOL0     H27297   3.599   8.341   3.696 -0.8253  0.9359  1.0020
  943MOL0     H27298   3.519   8.217   3.602  0.6807  2.1377  0.1225
  943MOL0     H27299   3.446   8.126   3.843  0.0858 -0.4942 -2.1162
  943MOL0     H27300   3.545   8.260   3.890  1.7405 -0.1086 -1.1915
  943MOL0     H27301   3.663   8.033   3.722 -0.5899  2.7326 -2.2566
  943MOL0     H27302   3.665   8.044   3.901 -3.7492  2.0748  1.2822
  943MOL0     H27303   3.989   8.278   3.791 -0.2384 -1.2317 -4.1720
  943MOL0     H27304   3.381   8.652   3.930 -0.1898  3.0246  0.0037
  943MOL0     H27305   3.191   8.807   3.972  0.3743 -1.3195  0.1497
  944MOL0     O27306   3.054   9.004   0.476 -0.5081 -0.3965  0.3006
  944MOL0     C27307   3.074   8.886   0.438 -0.1287 -0.8131  0.9545
  944MOL0     O27308   3.129   8.846   0.320 -0.1127  0.3842 -0.0069
  944MOL0     C27309   3.162   8.944   0.226 -0.6727  0.0290  0.9964
  944MOL0     C27310   3.128   8.927   0.095  0.1957  0.2085 -0.2106
  944MOL0     C27311   3.164   9.014  -0.010 -1.1075 -0.3196  0.7606
  944MOL0     C27312   3.247   9.121   0.021  0.9581 -0.8009  0.7644
  944MOL0     O27313   3.286   9.194  -0.087 -0.4285 -0.0859 -0.5660
  944MOL0     C27314   3.397   9.286  -0.072  0.4405  1.6858 -0.0205
  944MOL0     C27315   3.536   9.209  -0.045  0.2365  0.5568 -0.0003
  944MOL0     C27316   3.638   9.306   0.011 -0.5919  0.2473  0.2812
  944MOL0     C27317   3.689   9.413  -0.093  0.5318  0.8000 -0.9077
  944MOL0     C27318   3.810   9.496  -0.034 -0.3062 -0.1676 -0.3155
  944MOL0     C27319   3.789   9.605   0.078 -0.1644 -0.6308  0.5774
  944MOL0     C27320   3.763   9.739   0.015  0.4467 -0.0994  0.8935
  944MOL0     C27321   3.783   9.852   0.110 -0.2782 -0.2843 -0.2517
  944MOL0     N27322   3.699   9.834   0.233  0.0623  0.3096  1.0777
  944MOL0     C27323   3.731   9.758   0.348  0.2192  0.5936 -0.8913
  944MOL0     C27324   3.631   9.791   0.432  0.4513  0.5132  0.6233
  944MOL0     C27325   3.604   9.745   0.576 -0.3429  0.3489 -0.5690
  944MOL0     C27326   3.470   9.782   0.644  0.0224  0.2400  0.3081
  944MOL0     C27327   3.346   9.717   0.570 -0.1374  0.1458 -0.4148
  944MOL0     C27328   3.217   9.737   0.644 -0.1842 -0.6574  0.6970
  944MOL0     O27329   3.222   9.642   0.748  0.5483  0.4534 -0.3777
  944MOL0     C27330   3.136   9.650   0.855  0.1094  0.0495  0.5263
  944MOL0     C27331   3.117   9.767   0.925  0.7967  0.7825 -0.4072
  944MOL0     C27332   3.027   9.777   1.035 -0.3644 -0.0860  0.2127
  944MOL0     C27333   3.006   9.922   1.085 -0.5368 -0.4953 -0.0874
  944MOL0     C27334   2.959   9.657   1.075 -0.7524 -0.2742  0.4918
  944MOL0     C27335   2.862   9.648   1.184 -0.4377 -1.0043 -0.4123
  944MOL0     O27336   2.813   9.770   1.232  0.1370 -0.0475 -0.3200
  944MOL0     C27337   2.693   9.763   1.300 -0.5083 -0.2423  0.4375
  944MOL0     C27338   2.582   9.686   1.259 -0.7896 -0.8886 -0.9287
  944MOL0     C27339   2.461   9.689   1.334 -0.5232 -0.3189 -0.0455
  944MOL0     C27340   2.452   9.767   1.448 -0.5002  0.2873 -0.0521
  944MOL0     O27341   2.335   9.753   1.518 -0.3260  0.1810 -0.3361
  944MOL0     C27342   2.317   9.797   1.652  0.1039 -0.3583 -0.1180
  944MOL0     C27343   2.161   9.843   1.672  0.7585  0.3472  0.4577
  944MOL0     C27344   2.074   9.715   1.659 -0.1020 -0.0501 -0.4709
  944MOL0     C27345   1.926   9.730   1.702 -0.8774  0.1990 -0.1947
  944MOL0     C27346   1.841   9.610   1.645 -0.6625  0.8154  0.2877
  944MOL0     C27347   1.692   9.611   1.669 -0.1566 -0.4714  0.3410
  944MOL0     C27348   1.637   9.609   1.814  0.2699 -0.6753  0.4323
  944MOL0     C27349   1.490   9.638   1.815 -0.4449 -1.1026 -0.3554
  944MOL0    Cl27350   1.448   9.585   1.982 -0.0666 -0.0286 -0.1898
  944MOL0     C27351   2.556   9.858   1.471 -0.3347  0.7599  0.0178
  944MOL0     C27352   2.673   9.850   1.403  0.7092  0.3597 -0.2698
  944MOL0     O27353   2.842   9.537   1.231 -0.4341 -0.2873 -0.2298
  944MOL0     C27354   2.979   9.533   1.001 -0.6058  0.1550  0.4791
  944MOL0     C27355   3.064   9.539   0.892  0.8371 -0.1594 -0.0982
  944MOL0     N27356   3.547   9.884   0.369  0.3603 -0.2658 -0.1171
  944MOL0     N27357   3.584   9.907   0.248 -0.6583 -0.0202  0.1736
  944MOL0     C27358   3.283   9.151   0.151  0.2213 -0.8249 -0.3934
  944MOL0     C27359   3.242   9.058   0.250  0.7486 -0.0150 -0.1533
  944MOL0     C27360   3.010   8.786   0.531 -0.1882 -0.1813 -0.6196
  944MOL0     C27361   2.973   8.660   0.483  0.5602  1.0115 -0.3290
  944MOL0     C27362   2.916   8.563   0.564 -0.7911 -0.2022 -0.1837
  944MOL0     C27363   2.896   8.588   0.702  0.1159  0.7385  0.0651
  944MOL0     O27364   2.842   8.482   0.785 -0.5692  0.1250  1.0806
  944MOL0     C27365   2.752   8.384   0.724 -0.1466  1.0784 -0.4132
  944MOL0     C27366   2.698   8.288   0.831 -0.3750 -0.1758  0.0242
  944MOL0     C27367   2.615   8.351   0.945  0.6841 -0.6577 -0.3352
  944MOL0     C27368   2.606   8.274   1.073 -0.1592  0.8540  0.5864
  944MOL0     C27369   2.494   8.320   1.160 -0.4545 -0.4639 -0.2196
  944MOL0     C27370   2.413   8.358   1.240 -0.4075 -0.7738  0.9210
  944MOL0     C27371   2.926   8.712   0.761 -0.0687 -0.2843 -0.0201
  944MOL0     C27372   2.976   8.815   0.671 -0.4848  0.7388  0.0967
  944MOL0     H27373   3.066   8.840   0.074 -1.4529  1.2480  0.1289
  944MOL0     H27374   3.122   9.002  -0.110  0.0322 -1.5944  0.3953
  944MOL0     H27375   3.403   9.341  -0.166 -0.1256 -1.6640 -2.1490
  944MOL0     H27376   3.382   9.363   0.005 -1.0779 -0.0601  1.5170
  944MOL0     H27377   3.519   9.129   0.028  0.7439  0.4238 -0.0221
  944MOL0     H27378   3.577   9.154  -0.130 -0.8330 -1.5602  0.7707
  944MOL0     H27379   3.589   9.355   0.096  1.1732  1.6998  0.5245
  944MOL0     H27380   3.726   9.253   0.048 -0.3327  1.9914  2.3607
  944MOL0     H27381   3.707   9.365  -0.189 -2.1241 -0.8748 -0.6670
  944MOL0     H27382   3.597   9.472  -0.097 -0.3007 -0.5278 -2.4630
  944MOL0     H27383   3.870   9.427   0.026  0.0673  0.4740  0.0579
  944MOL0     H27384   3.858   9.535  -0.124 -2.8094 -1.7976 -2.5130
  944MOL0     H27385   3.699   9.574   0.132 -1.3644  0.6611 -0.5966
  944MOL0     H27386   3.879   9.608   0.139 -0.6261 -0.2352  1.2480
  944MOL0     H27387   3.825   9.763  -0.071  1.9192 -2.0797  1.3263
  944MOL0     H27388   3.656   9.741  -0.008  0.8586 -1.0392 -1.2584
  944MOL0     H27389   3.769   9.951   0.066  0.6663  0.3468  0.8149
  944MOL0     H27390   3.888   9.834   0.136  0.0582  1.0232 -0.6352
  944MOL0     H27391   3.814   9.689   0.361  1.0848  2.1224  3.5037
  944MOL0     H27392   3.611   9.636   0.582  1.0609  0.3804 -1.1183
  944MOL0     H27393   3.690   9.782   0.633 -0.1953  0.0179 -0.5704
  944MOL0     H27394   3.453   9.890   0.653  2.3401  1.0632 -3.3311
  944MOL0     H27395   3.465   9.731   0.741  2.0517  1.2228  0.9785
  944MOL0     H27396   3.347   9.608   0.580  0.8407  0.3949  4.1961
  944MOL0     H27397   3.341   9.739   0.463 -2.5810  2.8698  0.1362
  944MOL0     H27398   3.140   9.706   0.573  0.0125  0.5879 -0.0941
  944MOL0     H27399   3.202   9.839   0.681  0.1620 -0.2540 -0.2454
  944MOL0     H27400   3.175   9.856   0.900 -2.3386  2.6262 -1.6421
  944MOL0     H27401   2.911   9.962   1.048  0.4436 -0.3294 -2.6535
  944MOL0     H27402   3.005   9.929   1.194  0.0230 -1.6330  0.0016
  944MOL0     H27403   3.089   9.987   1.056  0.2361 -0.4174  2.1109
  944MOL0     H27404   2.583   9.626   1.168  1.4244  2.4306 -3.3361
  944MOL0     H27405   2.370   9.636   1.309 -0.5977 -1.9631  3.2448
  944MOL0     H27406   2.359   9.726   1.723  0.7696  1.7865  1.7639
  944MOL0     H27407   2.371   9.890   1.669 -0.7713  0.5074 -1.7369
  944MOL0     H27408   2.144   9.871   1.776  3.3457 -0.5011  1.1967
  944MOL0     H27409   2.131   9.919   1.599  1.0834  0.4789  0.4606
  944MOL0     H27410   2.126   9.649   1.729 -1.2312  3.1895  3.8493
  944MOL0     H27411   2.085   9.682   1.555  0.1592  1.7099 -1.0321
  944MOL0     H27412   1.911   9.745   1.809  1.1145 -1.5764  0.3987
  944MOL0     H27413   1.897   9.823   1.652  1.2150  1.2185  0.3713
  944MOL0     H27414   1.889   9.522   1.688 -0.5795  0.0087 -1.3637
  944MOL0     H27415   1.849   9.594   1.537  2.0964 -0.6658  0.6354
  944MOL0     H27416   1.654   9.696   1.612  1.2678 -0.0306 -0.0068
  944MOL0     H27417   1.647   9.526   1.616 -1.3280  0.0525  0.4678
  944MOL0     H27418   1.692   9.690   1.863 -0.3975  0.5272 -0.7529
  944MOL0     H27419   1.656   9.510   1.857  0.2778 -2.2246 -2.8799
  944MOL0     H27420   1.428   9.578   1.748 -0.4572 -1.8396  0.3031
  944MOL0     H27421   1.479   9.746   1.797 -0.8772 -1.2160 -0.8003
  944MOL0     H27422   2.550   9.931   1.551  0.4062 -0.6716  1.4462
  944MOL0     H27423   2.746   9.923   1.437 -0.6937  0.9578  1.6542
  944MOL0     H27424   2.924   9.443   1.027 -2.4752  0.5610 -1.6997
  944MOL0     H27425   3.093   9.445   0.845  0.2349  1.1850 -3.4458
  944MOL0     H27426   3.336   9.237   0.191 -2.3640  0.4251  0.6264
  944MOL0     H27427   3.269   9.069   0.354 -3.2723 -2.0992  1.3554
  944MOL0     H27428   2.989   8.650   0.376 -1.9714  0.4804 -0.7184
  944MOL0     H27429   2.888   8.466   0.524  0.0326 -0.0438 -1.2020
  944MOL0     H27430   2.666   8.423   0.668 -0.2686 -1.0729 -1.8107
  944MOL0     H27431   2.813   8.321   0.659 -0.0197  0.2264  0.5146
  944MOL0     H27432   2.784   8.239   0.877 -0.7728 -1.9104 -1.0037
  944MOL0     H27433   2.650   8.208   0.774  1.2785 -1.2959  0.1385
  944MOL0     H27434   2.514   8.367   0.906  0.8642  0.9871 -0.2107
  944MOL0     H27435   2.646   8.454   0.966 -1.9180  0.0003  0.7885
  944MOL0     H27436   2.701   8.287   1.125 -0.1510  2.5178  0.1861
  944MOL0     H27437   2.602   8.166   1.056  1.0498  1.0599 -1.2785
  944MOL0     H27438   2.338   8.393   1.308 -1.1059  1.4500 -0.8452
  944MOL0     H27439   2.913   8.736   0.866 -1.4064  0.1183 -0.2600
  944MOL0     H27440   2.998   8.904   0.728 -2.9244  1.0193  0.6734
  945MOL0     O27441   0.600   5.490   9.567  0.4426 -1.0315  0.3471
  945MOL0     C27442   0.685   5.489   9.476 -0.8877 -0.7571  0.4804
  945MOL0     O27443   0.653   5.488   9.342 -0.1743  0.2009  0.6288
  945MOL0     C27444   0.516   5.475   9.317  0.0728 -0.3901 -0.2994
  945MOL0     C27445   0.429   5.582   9.308 -0.3124 -0.6327 -0.0337
  945MOL0     C27446   0.309   5.561   9.231 -0.8065 -1.2281  0.9427
  945MOL0     C27447   0.259   5.439   9.201  0.8300  0.0111  0.0860
  945MOL0     O27448   0.135   5.413   9.144 -1.2145 -0.1474 -0.2571
  945MOL0     C27449   0.046   5.517   9.123 -0.2731 -0.9869 -0.4177
  945MOL0     C27450  -0.090   5.445   9.077  0.2883 -0.2716 -0.5754
  945MOL0     C27451  -0.191   5.548   9.023  0.9975  0.2514  0.9172
  945MOL0     C27452  -0.301   5.477   8.940  0.4999 -0.1445  0.3352
  945MOL0     C27453  -0.370   5.367   9.016 -0.1317  0.3062 -0.1441
  945MOL0     C27454  -0.506   5.318   8.961 -0.2894  0.1086  0.3669
  945MOL0     C27455  -0.611   5.292   9.078  0.7369  0.0526  0.7192
  945MOL0     C27456  -0.730   5.202   9.025 -0.7223 -0.1661  0.4339
  945MOL0     N27457  -0.824   5.280   8.952 -0.3427 -0.4443 -0.4792
  945MOL0     C27458  -0.957   5.259   8.936  0.7059  0.0971 -0.1820
  945MOL0     C27459  -1.017   5.367   8.890  0.5874  0.6802  0.7266
  945MOL0     C27460  -1.163   5.390   8.867  0.0272 -0.0031 -0.7224
  945MOL0     C27461  -1.180   5.470   8.739 -0.4650 -0.3969  0.0113
  945MOL0     C27462  -1.318   5.500   8.698 -0.1567  0.1276  0.3910
  945MOL0     C27463  -1.419   5.387   8.699 -0.5003  0.6188 -0.4282
  945MOL0     O27464  -1.445   5.348   8.832  0.1150  0.0601 -0.2706
  945MOL0     C27465  -1.548   5.264   8.857 -0.3295  0.2509 -0.2905
  945MOL0     C27466  -1.623   5.197   8.759  0.2894 -0.9552  0.0341
  945MOL0     C27467  -1.728   5.111   8.787 -0.4258 -0.0491 -0.6795
  945MOL0     C27468  -1.788   5.049   8.661 -0.3532  1.1512 -0.5542
  945MOL0     C27469  -1.756   5.083   8.926  0.2870  0.5083 -0.2419
  945MOL0     C27470  -1.862   4.994   8.983  0.0975  0.2050  0.1688
  945MOL0     O27471  -1.981   4.979   8.915 -0.7240 -0.3887  0.1636
  945MOL0     C27472  -2.077   4.891   8.957  0.0418  0.1043 -0.1913
  945MOL0     C27473  -2.080   4.760   8.907  0.9252 -0.3120 -0.4147
  945MOL0     C27474  -2.196   4.689   8.927 -0.0860  0.3747 -0.1764
  945MOL0     C27475  -2.307   4.739   8.991  0.3888 -0.1578 -0.6361
  945MOL0     O27476  -2.416   4.662   8.998  0.2879  0.4213 -0.3383
  945MOL0     C27477  -2.438   4.591   9.122  0.4175 -0.1143 -0.1128
  945MOL0     C27478  -2.550   4.493   9.119  0.1410  0.5137  0.6343
  945MOL0     C27479  -2.692   4.541   9.073  0.0132 -0.4943 -0.2789
  945MOL0     C27480  -2.713   4.514   8.920 -0.0578  0.4951  0.4907
  945MOL0     C27481  -2.821   4.601   8.859 -0.3740 -0.7343 -0.1388
  945MOL0     C27482  -2.750   4.739   8.847  0.0274 -0.7837  0.5044
  945MOL0     C27483  -2.832   4.833   8.768  0.3640 -0.4500 -0.1829
  945MOL0     C27484  -2.730   4.922   8.690  0.8245 -0.1844 -0.0275
  945MOL0    Cl27485  -2.834   5.020   8.572 -0.2821  0.5004 -0.5801
  945MOL0     C27486  -2.306   4.862   9.053  0.0881 -0.4028  0.2121
  945MOL0     C27487  -2.191   4.937   9.035 -0.0523  0.1791 -0.0396
  945MOL0     O27488  -1.831   4.934   9.087  0.5074 -0.5557 -0.8603
  945MOL0     C27489  -1.682   5.150   9.023  0.1193 -1.0877  0.2986
  945MOL0     C27490  -1.576   5.239   8.991  0.0406  0.1019 -0.5783
  945MOL0     N27491  -0.914   5.461   8.872  0.2311  0.5360 -0.7166
  945MOL0     N27492  -0.801   5.409   8.918 -0.2022 -0.3332 -0.1935
  945MOL0     C27493   0.338   5.329   9.223 -0.5995 -0.8116 -0.0830
  945MOL0     C27494   0.470   5.349   9.274  0.0505 -0.4894 -1.7447
  945MOL0     C27495   0.830   5.488   9.512  0.4018 -0.0996 -0.6874
  945MOL0     C27496   0.924   5.492   9.410  0.0560 -0.5721 -0.9987
  945MOL0     C27497   1.066   5.490   9.446  0.9392  0.2672  0.5233
  945MOL0     C27498   1.105   5.462   9.578  1.2039 -0.7123 -0.1482
  945MOL0     O27499   1.235   5.438   9.628 -0.0503 -0.7968 -0.1376
  945MOL0     C27500   1.355   5.464   9.549  0.3370  0.8557 -0.4429
  945MOL0     C27501   1.424   5.333   9.522 -0.1263 -0.9830 -0.3922
  945MOL0     C27502   1.500   5.284   9.639 -0.1414  0.9265  0.5630
  945MOL0     C27503   1.573   5.149   9.609  0.6330  0.2403 -0.0812
  945MOL0     C27504   1.652   5.166   9.491  0.4914  0.0677  1.0152
  945MOL0     C27505   1.715   5.183   9.391  0.3001 -0.0564 -0.2857
  945MOL0     C27506   1.011   5.452   9.675 -0.5904 -0.0561 -0.2058
  945MOL0     C27507   0.872   5.468   9.653  0.2047 -0.0487  0.9853
  945MOL0     H27508   0.454   5.685   9.333 -0.0010 -1.1256  1.7837
  945MOL0     H27509   0.240   5.644   9.222 -0.7729 -1.3116 -0.1827
  945MOL0     H27510   0.031   5.577   9.213 -1.3376  0.0289 -1.2482
  945MOL0     H27511   0.083   5.588   9.048  0.0110 -1.9735 -1.2390
  945MOL0     H27512  -0.060   5.374   8.998 -1.0763 -0.1463 -1.2342
  945MOL0     H27513  -0.133   5.384   9.157  4.0357 -0.8695  1.1711
  945MOL0     H27514  -0.236   5.610   9.101 -1.5386  0.2697 -0.4614
  945MOL0     H27515  -0.137   5.615   8.956 -2.1897  1.1596 -0.9611
  945MOL0     H27516  -0.365   5.557   8.903  3.0213  1.0601 -1.8146
  945MOL0     H27517  -0.258   5.432   8.850 -0.7319  0.5021 -0.5998
  945MOL0     H27518  -0.308   5.278   9.031 -2.4201 -1.2547  0.5986
  945MOL0     H27519  -0.400   5.407   9.113 -1.4214 -1.2367  0.1427
  945MOL0     H27520  -0.544   5.399   8.899 -1.3768  1.2771  2.4338
  945MOL0     H27521  -0.501   5.228   8.899 -1.5060 -0.6617  1.3326
  945MOL0     H27522  -0.573   5.239   9.165 -0.8606  1.3804  2.3034
  945MOL0     H27523  -0.654   5.380   9.128  0.2049  0.8872 -1.1104
  945MOL0     H27524  -0.784   5.146   9.101 -2.8696 -0.2351 -1.0392
  945MOL0     H27525  -0.691   5.135   8.947 -2.0602  2.8308 -3.1574
  945MOL0     H27526  -1.007   5.164   8.953 -1.5024  1.5644  2.6283
  945MOL0     H27527  -1.212   5.293   8.868 -0.6265  0.3196 -0.4580
  945MOL0     H27528  -1.209   5.444   8.951 -2.9568  0.7224 -2.6207
  945MOL0     H27529  -1.135   5.413   8.657  1.7796  1.1507  0.0814
  945MOL0     H27530  -1.131   5.568   8.742  1.1746 -1.1736 -0.0417
  945MOL0     H27531  -1.309   5.531   8.593  0.8614  1.8570  0.9474
  945MOL0     H27532  -1.343   5.583   8.764 -0.0746  0.4879 -0.0242
  945MOL0     H27533  -1.374   5.310   8.637  0.5413  2.5401 -2.1821
  945MOL0     H27534  -1.505   5.418   8.639 -0.5692 -1.7179 -1.6555
  945MOL0     H27535  -1.608   5.214   8.653 -0.2789  1.2540  0.2434
  945MOL0     H27536  -1.733   5.079   8.572  0.1690 -2.2248 -1.5177
  945MOL0     H27537  -1.783   4.939   8.665 -3.8280  0.9141  1.3969
  945MOL0     H27538  -1.895   5.073   8.655 -0.7808 -0.4425 -0.0085
  945MOL0     H27539  -2.000   4.717   8.848  1.5882 -0.2269  0.4057
  945MOL0     H27540  -2.206   4.589   8.886  1.7052  0.1675 -0.1833
  945MOL0     H27541  -2.351   4.527   9.144  0.0892 -0.4820  0.1392
  945MOL0     H27542  -2.455   4.670   9.196 -0.0666  0.7099 -1.0844
  945MOL0     H27543  -2.515   4.410   9.057 -0.7401 -0.5363  1.4938
  945MOL0     H27544  -2.565   4.451   9.219  1.5119  1.2963  1.1899
  945MOL0     H27545  -2.714   4.642   9.107  0.5180 -0.1357 -0.9794
  945MOL0     H27546  -2.767   4.486   9.130 -1.3095  0.9886 -0.5250
  945MOL0     H27547  -2.621   4.529   8.863 -1.6550 -1.3377 -2.8376
  945MOL0     H27548  -2.738   4.408   8.911  2.3208  0.0553 -2.2225
  945MOL0     H27549  -2.905   4.610   8.930 -0.0838 -0.8365  0.2183
  945MOL0     H27550  -2.863   4.566   8.764 -0.1897  1.7595 -1.2217
  945MOL0     H27551  -2.741   4.772   8.951  1.0037 -0.7745  0.4238
  945MOL0     H27552  -2.652   4.740   8.798 -0.2257 -2.6927 -0.1427
  945MOL0     H27553  -2.905   4.892   8.825  1.0170  0.1295  0.0649
  945MOL0     H27554  -2.879   4.770   8.692  4.1317 -1.1696 -2.1560
  945MOL0     H27555  -2.648   4.874   8.636  0.6205 -0.1334 -0.3871
  945MOL0     H27556  -2.677   4.987   8.760  1.6965 -0.3267 -0.5388
  945MOL0     H27557  -2.400   4.891   9.100 -2.9411 -3.5152 -3.2712
  945MOL0     H27558  -2.186   5.042   9.061  1.7301  0.2665 -0.5892
  945MOL0     H27559  -1.725   5.146   9.123 -1.0224  1.8649  0.0481
  945MOL0     H27560  -1.497   5.273   9.058  2.5592 -1.7590 -2.3896
  945MOL0     H27561   0.308   5.227   9.197  1.4501 -1.4120 -0.2846
  945MOL0     H27562   0.530   5.259   9.288  1.2103  0.6142  1.2790
  945MOL0     H27563   0.900   5.497   9.304 -0.3342  0.5700 -0.8707
  945MOL0     H27564   1.148   5.474   9.377 -1.1463  0.4259 -2.1440
  945MOL0     H27565   1.337   5.527   9.461 -1.2116  2.6827  1.1062
  945MOL0     H27566   1.425   5.523   9.609 -0.2710  0.1049  1.0470
  945MOL0     H27567   1.504   5.358   9.451  1.8997  0.3684  2.1764
  945MOL0     H27568   1.350   5.264   9.482 -4.1405  3.0900 -0.8083
  945MOL0     H27569   1.442   5.269   9.730 -0.2441 -1.6934  0.1580
  945MOL0     H27570   1.578   5.359   9.653  1.0259  0.5074 -2.8072
  945MOL0     H27571   1.504   5.065   9.608  0.9114  0.0080  0.0783
  945MOL0     H27572   1.620   5.147   9.708 -0.7061  0.9291  0.6059
  945MOL0     H27573   1.776   5.205   9.307  1.0991 -3.3754 -0.7263
  945MOL0     H27574   1.046   5.438   9.777 -2.9404  1.8793  0.9754
  945MOL0     H27575   0.791   5.468   9.725  1.4997 -0.8316  2.4852
  946MOL0     O27576   7.429   7.983   0.772  0.1988 -0.1076  0.0843
  946MOL0     C27577   7.341   8.053   0.722 -0.4761  1.0059 -0.3847
  946MOL0     O27578   7.292   8.042   0.596 -0.1069 -0.0315  0.0535
  946MOL0     C27579   7.345   7.953   0.505  0.0899 -0.0545 -0.1638
  946MOL0     C27580   7.325   7.813   0.515  0.6448 -0.0228 -0.5664
  946MOL0     C27581   7.407   7.733   0.432  0.0273  0.7019 -0.1183
  946MOL0     C27582   7.503   7.792   0.348 -0.5201  0.8724 -0.2712
  946MOL0     O27583   7.574   7.702   0.268 -0.4659  0.5382 -0.0443
  946MOL0     C27584   7.537   7.675   0.129  0.1206  0.0623 -0.2477
  946MOL0     C27585   7.399   7.611   0.127 -0.6746 -0.1253  0.4780
  946MOL0     C27586   7.396   7.464   0.180 -0.5793  0.3136 -0.0531
  946MOL0     C27587   7.249   7.409   0.182  0.3246 -0.4791 -0.2038
  946MOL0     C27588   7.235   7.271   0.257 -0.7841  0.0849  0.3472
  946MOL0     C27589   7.233   7.293   0.407 -0.4779  0.0448 -0.0930
  946MOL0     C27590   7.197   7.161   0.477  0.1568  0.3261 -0.1437
  946MOL0     C27591   7.314   7.068   0.502 -0.0966  1.0132  0.2510
  946MOL0     N27592   7.353   6.996   0.382  0.3507  0.0657 -0.1713
  946MOL0     C27593   7.290   6.873   0.348  0.1355 -0.4840 -0.8902
  946MOL0     C27594   7.363   6.809   0.263  0.8671  0.3058 -0.4833
  946MOL0     C27595   7.315   6.686   0.184 -0.2194 -0.5125 -0.2385
  946MOL0     C27596   7.338   6.554   0.252  1.3261  0.4648  0.8130
  946MOL0     C27597   7.308   6.434   0.159 -0.5150  0.6998  0.1611
  946MOL0     C27598   7.330   6.295   0.223  0.7831  0.0293  0.3802
  946MOL0     O27599   7.251   6.291   0.347 -0.1438  0.1549  0.1417
  946MOL0     C27600   7.267   6.177   0.421 -0.7671  0.2795 -0.2379
  946MOL0     C27601   7.223   6.173   0.553 -0.1144  0.0508 -0.3355
  946MOL0     C27602   7.229   6.060   0.630  0.8343  0.4484 -0.1355
  946MOL0     C27603   7.186   6.065   0.775  0.8796 -0.4172 -0.4200
  946MOL0     C27604   7.303   5.949   0.592  0.2926  0.2594 -0.4025
  946MOL0     C27605   7.308   5.823   0.665 -0.2031  0.1232  0.3664
  946MOL0     O27606   7.415   5.809   0.745 -0.4844 -0.6559  0.1407
  946MOL0     C27607   7.417   5.700   0.820 -0.2370  0.0674 -0.2379
  946MOL0     C27608   7.450   5.575   0.766  0.4989 -0.8003 -0.7379
  946MOL0     C27609   7.428   5.460   0.835  0.0070 -0.2766 -0.1235
  946MOL0     C27610   7.383   5.463   0.972 -0.1095 -0.1800  0.4584
  946MOL0     O27611   7.347   5.354   1.044  0.0235  0.4478 -0.2809
  946MOL0     C27612   7.452   5.263   1.080 -0.3314 -0.7353 -0.0589
  946MOL0     C27613   7.470   5.259   1.231  0.4798  0.1524  0.5701
  946MOL0     C27614   7.601   5.216   1.294 -0.1480  0.0371  0.3811
  946MOL0     C27615   7.635   5.073   1.256 -0.7934 -0.2199  0.8719
  946MOL0     C27616   7.743   5.010   1.338  0.2110  0.4575  0.9352
  946MOL0     C27617   7.877   5.081   1.318 -0.1011 -0.3943  0.1944
  946MOL0     C27618   8.003   5.001   1.342  0.4800  0.6829 -0.3328
  946MOL0     C27619   8.021   4.980   1.492  0.0960  0.0187  0.2428
  946MOL0    Cl27620   8.183   4.920   1.532  0.3710  0.0613 -0.2994
  946MOL0     C27621   7.342   5.582   1.023 -0.4533 -0.2154  0.2539
  946MOL0     C27622   7.367   5.703   0.949  0.1294 -0.4079  0.1235
  946MOL0     O27623   7.207   5.752   0.645  0.3330  0.5149 -0.0150
  946MOL0     C27624   7.366   5.954   0.470  0.1510 -0.3211 -0.3457
  946MOL0     C27625   7.341   6.062   0.381  0.3964 -0.1216  0.6087
  946MOL0     N27626   7.476   6.880   0.248 -0.3504 -0.0064 -0.0560
  946MOL0     N27627   7.473   6.993   0.319 -0.0985 -0.3316 -0.7386
  946MOL0     C27628   7.519   7.931   0.344  0.3897  0.3680 -0.4114
  946MOL0     C27629   7.438   8.009   0.423  0.0336  0.6859 -0.0564
  946MOL0     C27630   7.269   8.140   0.818  1.1073  0.1289 -0.7743
  946MOL0     C27631   7.134   8.191   0.790 -0.2178 -0.4092 -0.2661
  946MOL0     C27632   7.062   8.252   0.890  0.2167  0.9033  0.4469
  946MOL0     C27633   7.115   8.259   1.014  0.5337 -0.0813  0.4659
  946MOL0     O27634   7.040   8.303   1.115 -0.3137  0.3803 -0.3834
  946MOL0     C27635   6.987   8.194   1.183  0.2409  0.0746 -0.8680
  946MOL0     C27636   6.889   8.249   1.293 -0.8692  0.5272 -0.3694
  946MOL0     C27637   6.751   8.287   1.234  0.4897 -0.0633  0.5956
  946MOL0     C27638   6.659   8.341   1.345  1.3508  0.4304  0.0407
  946MOL0     C27639   6.711   8.452   1.425 -0.3533 -0.3790 -0.3969
  946MOL0     C27640   6.765   8.548   1.485 -0.8808  0.7224  0.2515
  946MOL0     C27641   7.255   8.233   1.033 -0.4204  0.5949  0.2091
  946MOL0     C27642   7.327   8.163   0.939 -0.2019 -0.4502  0.1494
  946MOL0     H27643   7.256   7.763   0.583  2.5855 -0.1026  1.4744
  946MOL0     H27644   7.402   7.626   0.451  0.2239  0.6472 -0.3728
  946MOL0     H27645   7.540   7.766   0.068 -1.2445 -0.8289 -1.7416
  946MOL0     H27646   7.607   7.599   0.092  0.6059  0.8330 -0.9434
  946MOL0     H27647   7.330   7.676   0.181  0.6926  1.0105  0.9031
  946MOL0     H27648   7.363   7.606   0.023 -2.6369 -0.3947  1.1197
  946MOL0     H27649   7.452   7.401   0.110 -1.9814  1.3278 -2.1997
  946MOL0     H27650   7.439   7.466   0.281 -1.5775  0.2013  0.3864
  946MOL0     H27651   7.193   7.480   0.244  0.0206 -2.7709  2.3608
  946MOL0     H27652   7.208   7.402   0.081 -1.7704 -2.6309  0.6807
  946MOL0     H27653   7.144   7.213   0.238 -0.6985 -0.1766  0.7257
  946MOL0     H27654   7.311   7.202   0.219 -1.4850  0.1300 -1.2142
  946MOL0     H27655   7.334   7.324   0.436 -0.0326 -1.7683  0.4365
  946MOL0     H27656   7.166   7.374   0.436  3.3388  2.8573  1.7468
  946MOL0     H27657   7.179   7.197   0.579 -0.3905 -0.5501  0.0764
  946MOL0     H27658   7.111   7.106   0.437  1.2113 -1.3883 -0.1344
  946MOL0     H27659   7.287   6.995   0.578 -1.1471  2.1152  0.9674
  946MOL0     H27660   7.400   7.127   0.537  0.8661 -0.6828  0.8520
  946MOL0     H27661   7.189   6.861   0.388  1.0862  3.5178  3.7318
  946MOL0     H27662   7.208   6.702   0.168 -0.5523 -2.6383 -0.5042
  946MOL0     H27663   7.346   6.696   0.080  0.6189  0.9151  0.1218
  946MOL0     H27664   7.279   6.553   0.344  0.1036  3.7303  0.2139
  946MOL0     H27665   7.440   6.548   0.290  1.8868 -0.1637 -0.6849
  946MOL0     H27666   7.375   6.445   0.073  1.9214  1.5583  2.0230
  946MOL0     H27667   7.201   6.438   0.141 -1.3784  0.5435  4.2584
  946MOL0     H27668   7.434   6.270   0.247  0.6541 -1.7748 -0.7699
  946MOL0     H27669   7.299   6.214   0.157 -0.7695  0.0016  1.0997
  946MOL0     H27670   7.187   6.266   0.595 -2.6606  0.1150 -2.3640
  946MOL0     H27671   7.103   6.134   0.792 -1.1306 -2.4007 -1.6085
  946MOL0     H27672   7.151   5.966   0.805  1.2232 -0.6723 -0.8650
  946MOL0     H27673   7.270   6.103   0.835 -1.6311 -0.4642  3.4562
  946MOL0     H27674   7.487   5.579   0.664 -2.1888 -0.0780 -1.7813
  946MOL0     H27675   7.461   5.377   0.773  2.5485 -1.5195  2.6500
  946MOL0     H27676   7.429   5.161   1.047 -3.0780  0.5126 -2.3992
  946MOL0     H27677   7.546   5.295   1.034 -0.9384  0.9947 -0.1683
  946MOL0     H27678   7.458   5.362   1.265  1.5299 -0.0979  1.7972
  946MOL0     H27679   7.390   5.192   1.264 -2.4016  2.4547 -1.3095
  946MOL0     H27680   7.608   5.232   1.402  0.0403 -0.3952  0.4351
  946MOL0     H27681   7.680   5.277   1.249  0.2469 -0.6255  0.1727
  946MOL0     H27682   7.546   5.009   1.259  0.0489 -1.5249 -0.3618
  946MOL0     H27683   7.672   5.078   1.153  0.2320  2.3377  1.2924
  946MOL0     H27684   7.747   4.908   1.298 -1.0153  1.9324 -3.4943
  946MOL0     H27685   7.713   4.997   1.443  0.8372  0.0126  1.0671
  946MOL0     H27686   7.886   5.113   1.214 -0.3907 -0.4141  0.1617
  946MOL0     H27687   7.881   5.180   1.364  0.2546 -0.9454  1.3699
  946MOL0     H27688   8.086   5.064   1.306 -0.9875  3.2824  0.5279
  946MOL0     H27689   8.002   4.906   1.289 -2.4246 -0.5126  1.6723
  946MOL0     H27690   7.939   4.920   1.531 -0.2118  0.8340  0.8595
  946MOL0     H27691   8.010   5.074   1.547 -1.9081  0.0628 -0.1466
  946MOL0     H27692   7.297   5.603   1.119 -5.0786 -1.1590 -1.4762
  946MOL0     H27693   7.344   5.796   0.999 -0.6407 -1.3646  1.6513
  946MOL0     H27694   7.424   5.868   0.439 -1.2310 -1.5627  0.3594
  946MOL0     H27695   7.371   6.052   0.277 -5.2529 -0.5502 -1.3135
  946MOL0     H27696   7.593   7.972   0.276  0.0572 -2.0282 -2.3373
  946MOL0     H27697   7.456   8.116   0.418  0.4070  0.5918 -0.8392
  946MOL0     H27698   7.083   8.171   0.697 -0.5638 -0.7796  0.0027
  946MOL0     H27699   6.965   8.277   0.850 -0.2640 -2.0024 -0.4918
  946MOL0     H27700   6.926   8.128   1.121  0.5903  0.7132 -1.8978
  946MOL0     H27701   7.062   8.128   1.228 -3.4926 -3.0283  1.5448
  946MOL0     H27702   6.941   8.323   1.354  3.1516 -1.9174 -0.4731
  946MOL0     H27703   6.875   8.166   1.362  1.4232 -0.6283 -1.1803
  946MOL0     H27704   6.702   8.194   1.204 -1.8171  1.2220  0.1061
  946MOL0     H27705   6.755   8.358   1.151  0.5960  2.7333  2.8024
  946MOL0     H27706   6.626   8.256   1.406  1.4862 -0.4248 -1.0377
  946MOL0     H27707   6.565   8.371   1.297  1.0573 -1.5241 -0.7260
  946MOL0     H27708   6.811   8.637   1.523 -0.4588  1.5212 -1.9868
  946MOL0     H27709   7.284   8.255   1.136 -0.6032  0.9925  0.1767
  946MOL0     H27710   7.423   8.118   0.964  0.4831  0.8145 -0.0672
  947MOL0     O27711   5.592   1.192   5.750 -0.6760  0.7034 -0.1792
  947MOL0     C27712   5.485   1.244   5.735  0.1071 -0.4547 -0.1645
  947MOL0     O27713   5.400   1.290   5.836  1.1385  0.4629 -0.2203
  947MOL0     C27714   5.429   1.285   5.972  0.5424 -0.1956 -1.0707
  947MOL0     C27715   5.328   1.278   6.055  0.1326 -0.2149 -0.0579
  947MOL0     C27716   5.354   1.260   6.192  0.1653  0.3779 -0.7143
  947MOL0     C27717   5.484   1.269   6.239  0.8698  0.0271  0.2816
  947MOL0     O27718   5.511   1.245   6.378 -0.1689  0.4063  0.0312
  947MOL0     C27719   5.468   1.109   6.412 -0.9748 -0.4840  0.0295
  947MOL0     C27720   5.567   1.049   6.513  0.2611  0.1928 -0.0812
  947MOL0     C27721   5.673   0.981   6.439  0.5278  0.0387  0.2244
  947MOL0     C27722   5.783   0.945   6.552  0.6338  0.9465 -0.7934
  947MOL0     C27723   5.902   0.869   6.500  0.1167 -0.3385  0.0818
  947MOL0     C27724   5.999   0.836   6.607 -0.5012 -0.2913  0.4892
  947MOL0     C27725   6.103   0.736   6.561  0.2659 -0.8436  0.2550
  947MOL0     C27726   6.089   0.599   6.615 -0.7300 -0.4877 -0.9601
  947MOL0     N27727   6.209   0.521   6.597 -0.2825 -0.2040  0.0700
  947MOL0     C27728   6.333   0.539   6.654 -0.7910  0.4250  0.4007
  947MOL0     C27729   6.402   0.431   6.613 -2.2838 -1.3444  0.5288
  947MOL0     C27730   6.543   0.393   6.680  0.1291  0.6937 -0.4639
  947MOL0     C27731   6.638   0.373   6.557  0.5294 -0.2283 -0.2492
  947MOL0     C27732   6.780   0.351   6.612  0.1698 -0.0579 -0.1415
  947MOL0     C27733   6.871   0.348   6.490 -0.2795  1.0757  0.8660
  947MOL0     O27734   6.874   0.479   6.434  0.3720 -0.0099  0.5307
  947MOL0     C27735   6.984   0.546   6.481  0.2904  1.7253  0.6659
  947MOL0     C27736   6.971   0.665   6.545 -0.1285  0.4064 -0.4679
  947MOL0     C27737   7.077   0.741   6.603 -0.6743  0.0934  0.2746
  947MOL0     C27738   7.042   0.839   6.709  0.9634 -0.1411 -0.6054
  947MOL0     C27739   7.214   0.696   6.564  0.2312  0.2520  0.5882
  947MOL0     C27740   7.334   0.779   6.609 -0.0302  0.0123  0.0527
  947MOL0     O27741   7.458   0.728   6.581 -0.1283 -0.3915  0.7858
  947MOL0     C27742   7.580   0.778   6.619  0.0438  0.0261  0.5180
  947MOL0     C27743   7.683   0.716   6.562 -0.1840  0.7044  0.5122
  947MOL0     C27744   7.811   0.752   6.587 -0.3876  0.5074  0.4223
  947MOL0     C27745   7.849   0.852   6.677 -0.8733  0.1976 -0.2671
  947MOL0     O27746   7.982   0.886   6.698 -0.4543  0.3025  0.0711
  947MOL0     C27747   8.088   0.794   6.652 -0.0981  0.2891 -0.5082
  947MOL0     C27748   8.231   0.852   6.688  1.0320  0.2658 -0.7715
  947MOL0     C27749   8.245   0.882   6.840  0.3785 -0.6913  0.5695
  947MOL0     C27750   8.211   0.759   6.925  0.8420 -0.3668 -0.0949
  947MOL0     C27751   8.248   0.771   7.068 -0.6937  0.1028 -0.4965
  947MOL0     C27752   8.401   0.790   7.094  0.9081  0.2625  0.9566
  947MOL0     C27753   8.438   0.777   7.242  0.5152  0.6837  0.5865
  947MOL0     C27754   8.583   0.810   7.262  0.2359  0.2011  0.8058
  947MOL0    Cl27755   8.692   0.686   7.204 -0.0249 -0.3959 -0.1620
  947MOL0     C27756   7.745   0.930   6.737 -0.7587  0.0506  0.2418
  947MOL0     C27757   7.612   0.883   6.708  0.1158 -0.5807  0.3040
  947MOL0     O27758   7.312   0.885   6.668 -0.2279  0.0852 -0.6782
  947MOL0     C27759   7.228   0.580   6.475  1.2021  0.6836 -0.7672
  947MOL0     C27760   7.110   0.512   6.429  0.5695 -0.3932  0.3207
  947MOL0     N27761   6.336   0.363   6.521 -0.0044 -0.0609  0.9804
  947MOL0     N27762   6.214   0.416   6.512  0.4524 -0.2922 -0.3760
  947MOL0     C27763   5.589   1.277   6.156 -0.5395  0.1083  0.4990
  947MOL0     C27764   5.560   1.291   6.017  1.0117  0.0426  0.4202
  947MOL0     C27765   5.437   1.256   5.595 -0.4582 -0.1272  0.3193
  947MOL0     C27766   5.523   1.228   5.490  0.4644  0.3936  0.0247
  947MOL0     C27767   5.481   1.235   5.354  0.1168 -0.8001 -0.1573
  947MOL0     C27768   5.347   1.290   5.323  0.5107  0.1139 -1.0477
  947MOL0     O27769   5.295   1.287   5.198 -0.3836  0.5659 -0.2034
  947MOL0     C27770   5.267   1.163   5.139 -0.0498  0.1063  0.7241
  947MOL0     C27771   5.151   1.096   5.205  0.3428  0.3707  0.7787
  947MOL0     C27772   5.008   1.177   5.172 -0.8615 -0.5476  0.6427
  947MOL0     C27773   4.895   1.113   5.253  1.2013 -0.5592 -0.5134
  947MOL0     C27774   4.837   1.001   5.184  0.4115  0.4327 -0.0325
  947MOL0     C27775   4.795   0.917   5.102  0.0420 -0.3933 -0.0415
  947MOL0     C27776   5.270   1.313   5.436  0.1306 -0.6285 -0.1995
  947MOL0     C27777   5.301   1.295   5.566  0.2328  0.2247 -0.2142
  947MOL0     H27778   5.231   1.250   6.014  0.6784  0.4694 -1.9019
  947MOL0     H27779   5.270   1.248   6.260 -1.2153  3.7060 -1.6209
  947MOL0     H27780   5.376   1.125   6.470 -0.5993  1.4592  0.1593
  947MOL0     H27781   5.444   1.040   6.331  0.9599 -0.8665 -0.2652
  947MOL0     H27782   5.614   1.122   6.579  2.6425  0.1030 -1.5578
  947MOL0     H27783   5.526   0.965   6.570 -1.2091 -1.0966 -2.7961
  947MOL0     H27784   5.628   0.900   6.381 -0.8090  0.6595  0.3681
  947MOL0     H27785   5.722   1.047   6.366  2.8415  0.9665  2.4574
  947MOL0     H27786   5.810   1.041   6.597 -0.7561  0.5786  0.9494
  947MOL0     H27787   5.733   0.895   6.635 -0.6777  3.1579 -0.1504
  947MOL0     H27788   5.868   0.773   6.460 -1.1701 -1.5712  3.7320
  947MOL0     H27789   5.943   0.933   6.422 -0.7927 -0.3372 -0.3995
  947MOL0     H27790   6.049   0.929   6.635 -4.1384  1.7855  0.8110
  947MOL0     H27791   5.952   0.809   6.702 -1.5389 -0.2679  0.0012
  947MOL0     H27792   6.109   0.737   6.452  0.5784  0.8222  0.2597
  947MOL0     H27793   6.204   0.767   6.587  0.7523 -1.8594 -0.3919
  947MOL0     H27794   6.010   0.543   6.564  0.8082 -2.2253 -1.5622
  947MOL0     H27795   6.069   0.625   6.719  1.8254  2.7073 -1.1122
  947MOL0     H27796   6.366   0.626   6.710 -0.2272 -0.6395  1.7744
  947MOL0     H27797   6.580   0.466   6.753 -0.0622  1.8011 -1.4329
  947MOL0     H27798   6.527   0.294   6.724 -2.3457  0.8231 -0.9511
  947MOL0     H27799   6.638   0.463   6.494  0.2701  0.0018  0.0791
  947MOL0     H27800   6.603   0.282   6.507  1.6582 -0.4079 -0.7440
  947MOL0     H27801   6.781   0.255   6.663  1.7408 -2.8005 -4.7034
  947MOL0     H27802   6.807   0.429   6.683  1.9861  1.0748 -1.9419
  947MOL0     H27803   6.829   0.278   6.417  0.3902  0.6947  0.8487
  947MOL0     H27804   6.967   0.311   6.525  1.2579 -1.7630 -5.0994
  947MOL0     H27805   6.868   0.699   6.553 -0.7979 -1.3136 -1.1649
  947MOL0     H27806   7.063   0.937   6.667 -3.1969  1.5189  0.6580
  947MOL0     H27807   6.935   0.843   6.730  0.7894 -0.2880 -1.4464
  947MOL0     H27808   7.099   0.821   6.801 -1.8981 -0.2820  1.2718
  947MOL0     H27809   7.666   0.629   6.499  0.4539  1.2515 -0.4439
  947MOL0     H27810   7.884   0.714   6.516  1.9037  0.2241  2.7906
  947MOL0     H27811   8.089   0.691   6.687  1.6112  0.5236  0.2440
  947MOL0     H27812   8.083   0.779   6.543 -2.1035 -1.2745 -0.2647
  947MOL0     H27813   8.299   0.771   6.660 -1.3679 -1.7597 -1.1414
  947MOL0     H27814   8.253   0.944   6.633  3.3364 -0.4420 -1.1527
  947MOL0     H27815   8.173   0.951   6.886 -1.2845  0.1356 -2.8982
  947MOL0     H27816   8.348   0.915   6.859  0.8137 -0.3413 -2.0038
  947MOL0     H27817   8.107   0.726   6.922  0.9526 -0.6897 -0.9362
  947MOL0     H27818   8.269   0.674   6.887  1.7939  0.3925 -0.3857
  947MOL0     H27819   8.203   0.688   7.123 -2.1630  1.2887  0.1466
  947MOL0     H27820   8.199   0.860   7.107  0.0422 -0.3143  1.4590
  947MOL0     H27821   8.457   0.710   7.046  0.4147  1.1799 -1.2567
  947MOL0     H27822   8.423   0.891   7.057  1.0063  1.3469  3.6778
  947MOL0     H27823   8.413   0.675   7.274 -0.6283  0.3451 -1.2757
  947MOL0     H27824   8.369   0.835   7.304  0.0776 -0.0834  0.8276
  947MOL0     H27825   8.598   0.813   7.370  1.2236 -1.4330  0.7477
  947MOL0     H27826   8.596   0.912   7.225 -0.8219  0.9613  2.3932
  947MOL0     H27827   7.762   0.996   6.821  0.5109  0.2103 -0.1266
  947MOL0     H27828   7.534   0.927   6.770  0.4558 -2.7733  2.4533
  947MOL0     H27829   7.323   0.538   6.443  3.3418  2.4354  2.6331
  947MOL0     H27830   7.132   0.435   6.356 -0.3795  1.0004 -1.5060
  947MOL0     H27831   5.687   1.264   6.201 -0.4674  0.6578  0.5059
  947MOL0     H27832   5.645   1.310   5.952 -0.4055  0.7222 -1.3244
  947MOL0     H27833   5.626   1.200   5.514 -0.2981 -0.7380  2.2647
  947MOL0     H27834   5.552   1.224   5.273 -0.9489 -2.8810 -0.8626
  947MOL0     H27835   5.239   1.188   5.036  1.4215  3.3346  0.9866
  947MOL0     H27836   5.352   1.093   5.140 -0.9441 -1.0573 -0.6903
  947MOL0     H27837   5.166   1.088   5.313 -1.4213  1.7730  1.1810
  947MOL0     H27838   5.140   0.993   5.169 -1.4822  1.5926 -2.4942
  947MOL0     H27839   4.978   1.164   5.068  0.2319  0.1894  0.2226
  947MOL0     H27840   5.014   1.284   5.190  0.0735 -0.6287  0.8796
  947MOL0     H27841   4.818   1.189   5.269  1.0840 -1.3338  3.8504
  947MOL0     H27842   4.925   1.081   5.353 -0.0102 -2.8907 -0.8361
  947MOL0     H27843   4.754   0.863   5.019  1.2832 -3.2078  1.0486
  947MOL0     H27844   5.167   1.334   5.408 -0.7309 -3.2602  0.6728
  947MOL0     H27845   5.217   1.315   5.631 -1.2296 -1.6309 -1.4114
  948MOL0     O27846   0.745  11.405   7.192 -0.5904  0.5821 -0.5173
  948MOL0     C27847   0.746  11.297   7.136  0.3179  0.2694 -0.7124
  948MOL0     O27848   0.680  11.183   7.170  0.2521  0.4056 -0.4805
  948MOL0     C27849   0.585  11.173   7.261 -0.1880 -0.2448  0.1089
  948MOL0     C27850   0.567  11.248   7.375  0.9577  0.0403 -0.2190
  948MOL0     C27851   0.452  11.233   7.462  0.5513 -0.0799  0.7969
  948MOL0     C27852   0.372  11.118   7.455 -0.6496  0.1700  0.3390
  948MOL0     O27853   0.277  11.072   7.549 -0.4646  0.7126  0.0275
  948MOL0     C27854   0.297  11.116   7.687  0.4584  0.2196  0.4976
  948MOL0     C27855   0.246  11.011   7.784  0.2577  0.9862 -0.6784
  948MOL0     C27856   0.096  10.988   7.758 -0.6422  0.4033  0.1893
  948MOL0     C27857   0.005  11.083   7.841 -0.3260  0.2484 -0.1745
  948MOL0     C27858  -0.148  11.047   7.847 -0.0297  0.8469  0.1146
  948MOL0     C27859  -0.209  11.094   7.977  0.5646  0.0266  0.3312
  948MOL0     C27860  -0.357  11.057   7.978  0.4668  0.3910 -0.0036
  948MOL0     C27861  -0.445  11.151   7.902 -1.0969  0.0306 -0.6187
  948MOL0     N27862  -0.594  11.144   7.924  0.4291  0.5274  0.0780
  948MOL0     C27863  -0.683  11.069   7.849 -0.8253  0.6786  0.0254
  948MOL0     C27864  -0.804  11.108   7.877  0.1374 -0.0995  0.0381
  948MOL0     C27865  -0.936  11.068   7.816  0.2141 -0.5345  0.1354
  948MOL0     C27866  -0.956  10.927   7.870 -0.4973  0.3284  0.3187
  948MOL0     C27867  -0.960  10.905   8.021 -0.8275 -0.6336 -0.4165
  948MOL0     C27868  -1.041  10.997   8.107  0.6883  0.4057  0.6263
  948MOL0     O27869  -1.087  10.925   8.221 -0.6120 -0.1636 -0.8637
  948MOL0     C27870  -1.151  11.001   8.316  1.1074 -0.2746  1.1059
  948MOL0     C27871  -1.210  10.928   8.409  0.3566 -0.2064 -0.2666
  948MOL0     C27872  -1.283  10.987   8.519 -0.6897  0.0834 -0.5225
  948MOL0     C27873  -1.340  10.902   8.633 -0.2487  0.6935 -0.8123
  948MOL0     C27874  -1.294  11.124   8.521  0.6304 -0.0659 -0.8618
  948MOL0     C27875  -1.365  11.199   8.629 -0.5633  0.7353 -0.2861
  948MOL0     O27876  -1.430  11.313   8.583 -0.5837  0.2470  0.4858
  948MOL0     C27877  -1.505  11.390   8.662  1.7336  0.3277 -0.1010
  948MOL0     C27878  -1.540  11.514   8.617 -0.1517 -0.3358  0.1462
  948MOL0     C27879  -1.648  11.576   8.673 -0.4503  0.1327 -1.3876
  948MOL0     C27880  -1.717  11.529   8.784 -0.6585  0.6400  0.3071
  948MOL0     O27881  -1.809  11.618   8.819  0.5648 -0.2640 -0.1357
  948MOL0     C27882  -1.880  11.598   8.946 -0.3197 -0.5791  0.0140
  948MOL0     C27883  -1.965  11.718   8.983  0.2082  0.0373  0.1962
  948MOL0     C27884  -2.115  11.703   8.967 -0.2763  0.2104 -0.4625
  948MOL0     C27885  -2.192  11.799   9.056  0.1742 -0.0255 -0.1442
  948MOL0     C27886  -2.340  11.775   9.060  0.0248  0.0455  0.1372
  948MOL0     C27887  -2.398  11.826   8.926  0.0951 -0.0262 -0.3474
  948MOL0     C27888  -2.543  11.844   8.934 -0.5481  0.2149 -0.3865
  948MOL0     C27889  -2.644  11.725   8.949  0.2770  0.4418  0.6044
  948MOL0    Cl27890  -2.795  11.801   8.981 -0.2213  0.5491 -0.1029
  948MOL0     C27891  -1.674  11.413   8.843 -0.0662 -0.4726 -0.9853
  948MOL0     C27892  -1.579  11.338   8.775 -0.2964  0.8063  0.2631
  948MOL0     O27893  -1.338  11.169   8.751 -0.5150  0.0533 -0.0972
  948MOL0     C27894  -1.229  11.198   8.421 -0.2450 -0.9691 -0.9100
  948MOL0     C27895  -1.162  11.137   8.320 -0.1168 -0.1152 -0.0310
  948MOL0     N27896  -0.794  11.205   7.976  0.0906  0.4764  0.2847
  948MOL0     N27897  -0.668  11.224   8.007  0.2056 -0.1126  0.2807
  948MOL0     C27898   0.400  11.030   7.347 -0.3071 -0.0280 -0.5830
  948MOL0     C27899   0.494  11.062   7.251  0.7462  0.6968  0.8568
  948MOL0     C27900   0.833  11.288   7.019  0.8200 -0.3359  0.5441
  948MOL0     C27901   0.785  11.215   6.909 -0.6167 -0.0378 -0.1928
  948MOL0     C27902   0.867  11.205   6.795  0.4909 -0.1095 -0.5881
  948MOL0     C27903   0.992  11.262   6.789 -0.6959 -0.3013  1.4381
  948MOL0     O27904   1.061  11.238   6.669  0.1063  0.4179  0.2279
  948MOL0     C27905   1.199  11.287   6.652 -0.1175 -0.0474  0.0362
  948MOL0     C27906   1.286  11.177   6.595 -0.0960  0.8241  1.4721
  948MOL0     C27907   1.438  11.206   6.592 -0.8609  0.4793 -0.4532
  948MOL0     C27908   1.516  11.104   6.511 -0.2367  0.3619 -0.6632
  948MOL0     C27909   1.655  11.098   6.541 -0.2645 -0.7751  0.2310
  948MOL0     C27910   1.773  11.086   6.538  0.4424 -0.0351  0.4741
  948MOL0     C27911   1.029  11.357   6.887  0.3436  0.2404  0.6773
  948MOL0     C27912   0.946  11.361   7.003  0.4404 -0.1784  0.0726
  948MOL0     H27913   0.625  11.336   7.400  3.7007 -1.5484 -0.6448
  948MOL0     H27914   0.443  11.312   7.536 -3.9450  0.7320 -0.3497
  948MOL0     H27915   0.402  11.147   7.700  0.7056  0.6293 -1.9720
  948MOL0     H27916   0.234  11.204   7.700  1.6901  1.0093  1.3590
  948MOL0     H27917   0.309  10.923   7.769  2.2800  2.1089  0.7702
  948MOL0     H27918   0.259  11.048   7.886  0.9369  0.0309 -0.4097
  948MOL0     H27919   0.080  11.011   7.652 -1.7288  3.1182  0.8518
  948MOL0     H27920   0.076  10.881   7.770 -0.0393  0.0218 -1.7225
  948MOL0     H27921   0.039  11.094   7.945 -0.9638  1.2841 -0.0535
  948MOL0     H27922   0.014  11.184   7.798  0.0243 -0.0723 -0.8670
  948MOL0     H27923  -0.205  11.084   7.761 -2.3897 -2.7233 -0.0289
  948MOL0     H27924  -0.156  10.938   7.845  1.0684  0.6545  2.3262
  948MOL0     H27925  -0.160  11.039   8.058  1.0529 -0.0292  0.0002
  948MOL0     H27926  -0.197  11.202   7.986  1.5929  0.0649 -1.2185
  948MOL0     H27927  -0.375  10.953   7.950  1.8609  0.3469 -0.8340
  948MOL0     H27928  -0.382  11.057   8.085  2.2052 -1.2433  0.4563
  948MOL0     H27929  -0.425  11.125   7.798 -0.8926 -1.8296 -0.1419
  948MOL0     H27930  -0.417  11.256   7.917 -2.4288  0.3368 -0.1600
  948MOL0     H27931  -0.662  10.991   7.777  1.1204  2.0284 -0.9532
  948MOL0     H27932  -1.011  11.141   7.847  0.5571 -0.1797  0.1361
  948MOL0     H27933  -0.930  11.064   7.707 -3.7615 -0.4742 -0.2381
  948MOL0     H27934  -0.871  10.870   7.832 -0.6266 -0.6428  1.4441
  948MOL0     H27935  -1.041  10.873   7.827 -1.3629  1.2746  0.7888
  948MOL0     H27936  -0.854  10.910   8.048 -0.5503 -0.6417 -1.4747
  948MOL0     H27937  -0.993  10.802   8.034  0.7059 -1.4838 -2.5846
  948MOL0     H27938  -1.129  11.028   8.050  3.0352  1.6619 -2.6279
  948MOL0     H27939  -0.977  11.082   8.130 -1.4939  2.2303  0.2750
  948MOL0     H27940  -1.192  10.822   8.396  0.0449 -0.1670 -1.0475
  948MOL0     H27941  -1.443  10.928   8.659 -1.8471 -0.8992 -4.7000
  948MOL0     H27942  -1.321  10.795   8.618  2.6844  0.5186  2.6718
  948MOL0     H27943  -1.281  10.936   8.718 -0.6133  2.3606 -1.1971
  948MOL0     H27944  -1.476  11.551   8.538 -0.0720  2.0702  1.2518
  948MOL0     H27945  -1.672  11.676   8.638 -0.2380  0.3966 -0.7895
  948MOL0     H27946  -1.942  11.508   8.946 -0.8342 -0.2530 -1.4327
  948MOL0     H27947  -1.814  11.586   9.032  2.6785  5.1770 -1.0306
  948MOL0     H27948  -1.942  11.744   9.087 -0.3607  0.2845  0.2613
  948MOL0     H27949  -1.941  11.797   8.910 -3.6273  1.9234  0.7043
  948MOL0     H27950  -2.141  11.600   8.993 -2.8382  0.8403 -0.2415
  948MOL0     H27951  -2.151  11.715   8.864  2.4473  3.0660 -1.2392
  948MOL0     H27952  -2.156  11.797   9.159 -3.1240  1.7013  1.1714
  948MOL0     H27953  -2.166  11.897   9.015  0.8175 -0.5204 -0.9558
  948MOL0     H27954  -2.389  11.819   9.147 -1.2078 -1.8871  0.5136
  948MOL0     H27955  -2.354  11.667   9.077  1.7976 -0.5387 -1.7030
  948MOL0     H27956  -2.343  11.917   8.900 -2.5146  2.6033  2.3500
  948MOL0     H27957  -2.371  11.749   8.854  0.8105 -0.5642  0.4701
  948MOL0     H27958  -2.566  11.891   8.838 -0.0537  1.1531 -0.0602
  948MOL0     H27959  -2.567  11.918   9.011 -1.9384  1.3103 -1.7881
  948MOL0     H27960  -2.606  11.659   9.027 -1.3276  2.0193  2.8330
  948MOL0     H27961  -2.671  11.673   8.856 -1.5480 -0.8290  1.7853
  948MOL0     H27962  -1.721  11.373   8.933  2.4190  3.2439  2.3249
  948MOL0     H27963  -1.554  11.244   8.823 -1.3423  0.4504  0.1320
  948MOL0     H27964  -1.206  11.304   8.426  2.0571 -1.4864  0.8782
  948MOL0     H27965  -1.131  11.200   8.237 -3.8669  1.0709 -0.7405
  948MOL0     H27966   0.348  10.937   7.329  0.2366 -0.2418 -1.0788
  948MOL0     H27967   0.500  10.992   7.168 -2.3119  0.4740  0.7314
  948MOL0     H27968   0.697  11.151   6.910  1.7719 -3.6481 -1.5303
  948MOL0     H27969   0.819  11.150   6.715  0.3557  2.1189 -2.1437
  948MOL0     H27970   1.199  11.377   6.590  0.7606  0.2231  0.4160
  948MOL0     H27971   1.240  11.322   6.748  2.4762  2.1455 -1.6988
  948MOL0     H27972   1.255  11.153   6.493 -0.2907  1.4312  1.3822
  948MOL0     H27973   1.283  11.085   6.654 -1.7693 -0.4950 -0.4797
  948MOL0     H27974   1.472  11.207   6.696  0.0013 -0.6399 -0.7103
  948MOL0     H27975   1.455  11.295   6.530  5.1113 -1.1069 -1.6596
  948MOL0     H27976   1.506  11.111   6.402  0.4042 -1.7880 -0.9081
  948MOL0     H27977   1.472  11.009   6.544 -2.5329  0.9807 -1.7363
  948MOL0     H27978   1.876  11.059   6.528 -0.5517 -3.6216 -2.9316
  948MOL0     H27979   1.114  11.420   6.862  1.7660 -2.0661 -0.7944
  948MOL0     H27980   0.981  11.412   7.092  1.8774 -0.8937 -0.0549
  949MOL0     O27981   0.852   0.857   0.394 -0.0119 -0.1887 -0.3845
  949MOL0     C27982   0.888   0.759   0.344  0.8132  0.8413 -0.2063
  949MOL0     O27983   1.006   0.699   0.363 -0.1442  0.2829  0.4265
  949MOL0     C27984   1.111   0.766   0.422  0.1511  0.4106  0.3259
  949MOL0     C27985   1.117   0.885   0.499 -0.2087  0.6566 -0.2164
  949MOL0     C27986   1.231   0.934   0.559 -1.2873 -1.0059 -0.0694
  949MOL0     C27987   1.353   0.867   0.544  0.1659 -0.1469 -1.1563
  949MOL0     O27988   1.457   0.932   0.597 -0.4350 -0.0385  0.2589
  949MOL0     C27989   1.575   0.924   0.505  0.2186  1.0676 -0.8554
  949MOL0     C27990   1.680   1.038   0.531  0.7128  0.4792 -0.2603
  949MOL0     C27991   1.734   1.033   0.669  0.0811  0.7284 -0.0166
  949MOL0     C27992   1.800   1.160   0.714 -0.3930  0.1333  0.4795
  949MOL0     C27993   1.776   1.167   0.866 -0.1638  0.1438 -0.1388
  949MOL0     C27994   1.830   1.300   0.927 -0.2291  0.2642  1.3014
  949MOL0     C27995   1.757   1.419   0.866  0.1796 -0.0712  0.2465
  949MOL0     C27996   1.805   1.543   0.937 -1.2076  0.0779  0.2295
  949MOL0     N27997   1.935   1.590   0.888  0.0408 -0.2356  0.1445
  949MOL0     C27998   1.953   1.687   0.799  1.1916  0.0007 -0.6373
  949MOL0     C27999   2.084   1.695   0.771 -0.2051 -0.2936 -0.9010
  949MOL0     C28000   2.145   1.783   0.673 -0.4864 -0.0181  0.1703
  949MOL0     C28001   2.069   1.925   0.663  0.7274  0.3685  0.4019
  949MOL0     C28002   2.074   2.021   0.785 -0.9309 -0.2563  0.4070
  949MOL0     C28003   1.997   2.147   0.760  0.2592 -0.7654  0.4647
  949MOL0     O28004   1.863   2.098   0.745  0.8264 -0.8044  0.2917
  949MOL0     C28005   1.760   2.191   0.737  0.5821  1.1283 -0.2214
  949MOL0     C28006   1.712   2.204   0.607 -0.1870  0.7761  0.5084
  949MOL0     C28007   1.598   2.280   0.582 -0.7382 -0.5073  1.0614
  949MOL0     C28008   1.540   2.278   0.445  0.4654  0.5350 -0.7879
  949MOL0     C28009   1.549   2.366   0.680 -0.0150 -0.2229  0.8672
  949MOL0     C28010   1.435   2.465   0.658 -0.1708  0.3619 -0.6491
  949MOL0     O28011   1.391   2.488   0.535  0.1275  0.9596  0.0682
  949MOL0     C28012   1.287   2.572   0.519 -0.3726  0.4439 -1.0365
  949MOL0     C28013   1.297   2.704   0.483 -0.4343 -0.1420 -0.4177
  949MOL0     C28014   1.181   2.776   0.461 -0.2362  0.1237 -0.2176
  949MOL0     C28015   1.053   2.721   0.482  0.9960  0.1342  0.6851
  949MOL0     O28016   0.948   2.808   0.450 -0.4669 -0.1823  0.2683
  949MOL0     C28017   0.809   2.769   0.451 -0.3238  0.2305  0.3671
  949MOL0     C28018   0.734   2.850   0.355 -0.1889  0.1823  0.6280
  949MOL0     C28019   0.731   2.801   0.206 -0.5041 -0.2970  0.6843
  949MOL0     C28020   0.842   2.863   0.124  0.5970 -0.3461 -0.4389
  949MOL0     C28021   0.974   2.788   0.114  0.1864 -0.0538  1.1997
  949MOL0     C28022   1.069   2.862   0.029 -1.1944  0.1985  0.3181
  949MOL0     C28023   1.204   2.790   0.005  0.4349  0.3729 -0.3723
  949MOL0     C28024   1.253   2.719   0.130 -0.3812  0.0581 -0.3194
  949MOL0    Cl28025   1.425   2.667   0.097  0.4054 -0.1729 -0.4718
  949MOL0     C28026   1.038   2.585   0.515  0.2348 -0.6939  0.1058
  949MOL0     C28027   1.162   2.520   0.544  0.1803 -0.7462 -1.2410
  949MOL0     O28028   1.384   2.512   0.762  0.8671 -0.3958 -0.0116
  949MOL0     C28029   1.606   2.351   0.809 -1.0625 -0.0366 -0.1808
  949MOL0     C28030   1.716   2.272   0.836 -0.9566 -0.0267 -0.5764
  949MOL0     N28031   2.156   1.611   0.854 -0.0072 -0.9652 -1.1134
  949MOL0     N28032   2.068   1.548   0.923  0.7161 -0.1174  0.0169
  949MOL0     C28033   1.354   0.748   0.469 -0.1826  0.3755 -0.1257
  949MOL0     C28034   1.237   0.700   0.410  0.0910 -0.3301  0.1417
  949MOL0     C28035   0.797   0.692   0.247  0.7408 -0.6408  0.1943
  949MOL0     C28036   0.692   0.762   0.184 -0.9189 -0.3861  0.1382
  949MOL0     C28037   0.599   0.714   0.096 -0.5916 -0.6170  0.1437
  949MOL0     C28038   0.604   0.574   0.085 -0.2176  0.6750 -0.0354
  949MOL0     O28039   0.510   0.492   0.025 -0.6736  0.7118  0.1716
  949MOL0     C28040   0.402   0.561  -0.035  0.4210 -0.6910  0.7538
  949MOL0     C28041   0.303   0.464  -0.104  0.5623  0.1769  0.0215
  949MOL0     C28042   0.367   0.376  -0.208 -0.0363 -0.0082  0.6864
  949MOL0     C28043   0.259   0.292  -0.278 -0.2078  0.2278  1.6062
  949MOL0     C28044   0.182   0.387  -0.367 -0.2433 -0.1277  0.5864
  949MOL0     C28045   0.110   0.465  -0.433  0.0273  0.0045 -0.4648
  949MOL0     C28046   0.713   0.502   0.130 -1.1555 -0.5333 -0.2089
  949MOL0     C28047   0.812   0.561   0.206 -0.8194  0.5615  0.0377
  949MOL0     H28048   1.026   0.942   0.517 -0.4974 -0.3982  2.1036
  949MOL0     H28049   1.229   1.026   0.617 -1.2243  0.1137 -1.7542
  949MOL0     H28050   1.629   0.832   0.530 -1.3288  0.4784  0.4598
  949MOL0     H28051   1.547   0.925   0.399  0.8018 -0.3188 -1.0497
  949MOL0     H28052   1.762   1.018   0.462 -0.5800  0.1596 -1.7601
  949MOL0     H28053   1.641   1.139   0.513  2.0599  0.9738 -0.5564
  949MOL0     H28054   1.657   1.013   0.744 -0.2000  0.8795 -0.2650
  949MOL0     H28055   1.810   0.954   0.666 -2.5492 -1.9407 -1.4926
  949MOL0     H28056   1.909   1.160   0.707 -0.2883 -2.2799  1.1168
  949MOL0     H28057   1.758   1.242   0.656  1.6875  0.7379 -0.2819
  949MOL0     H28058   1.668   1.165   0.883 -0.8611 -0.4017 -3.7867
  949MOL0     H28059   1.822   1.085   0.922 -2.0244 -2.1803 -1.8210
  949MOL0     H28060   1.825   1.296   1.036  1.3536 -1.2801  1.3651
  949MOL0     H28061   1.938   1.299   0.912 -0.3115 -1.3329  0.5686
  949MOL0     H28062   1.764   1.434   0.757 -0.6282 -1.2677  0.0084
  949MOL0     H28063   1.652   1.403   0.892  0.5239 -1.4793  0.8835
  949MOL0     H28064   1.808   1.520   1.044  0.3330 -0.2209  0.1578
  949MOL0     H28065   1.740   1.630   0.924 -1.9414 -0.4973  0.0300
  949MOL0     H28066   1.870   1.736   0.749  0.3044 -1.3396 -0.5107
  949MOL0     H28067   2.242   1.816   0.709 -1.4122  3.8651 -0.5132
  949MOL0     H28068   2.171   1.742   0.574  2.2620  1.7286  0.0898
  949MOL0     H28069   1.965   1.920   0.629  1.0313 -1.6311 -0.3405
  949MOL0     H28070   2.121   1.982   0.585  0.2555  2.6288  1.6606
  949MOL0     H28071   2.179   2.048   0.803 -0.3600  0.5148 -3.1988
  949MOL0     H28072   2.040   1.971   0.876  0.6695 -0.9400  0.6597
  949MOL0     H28073   2.021   2.191   0.663  0.0180 -0.7690  0.4032
  949MOL0     H28074   2.003   2.216   0.845 -2.6343  0.4424 -0.1950
  949MOL0     H28075   1.748   2.146   0.522 -2.3970  0.1392 -0.0779
  949MOL0     H28076   1.435   2.248   0.443  0.4905 -0.0318  2.1355
  949MOL0     H28077   1.559   2.369   0.387 -0.7967  1.8803  0.8330
  949MOL0     H28078   1.583   2.195   0.389 -1.2814 -1.0299  0.1066
  949MOL0     H28079   1.389   2.757   0.462 -0.3497 -0.2891 -0.4188
  949MOL0     H28080   1.195   2.880   0.431  1.0435 -0.5656 -2.1540
  949MOL0     H28081   0.798   2.664   0.420 -0.0113  0.4638 -0.5815
  949MOL0     H28082   0.771   2.786   0.552 -1.0143 -0.1604  0.1858
  949MOL0     H28083   0.634   2.831   0.395 -2.2682  1.1494 -3.5953
  949MOL0     H28084   0.748   2.959   0.353 -0.2597  0.1804 -0.4574
  949MOL0     H28085   0.638   2.829   0.156  0.4550  0.3471 -0.8076
  949MOL0     H28086   0.728   2.692   0.202  0.1447 -0.4326  2.6046
  949MOL0     H28087   0.804   2.868   0.021  0.1935  0.0834 -0.2739
  949MOL0     H28088   0.858   2.966   0.158 -4.1221 -0.0072  1.5254
  949MOL0     H28089   0.963   2.686   0.074 -1.9267  0.4326  0.4106
  949MOL0     H28090   1.006   2.765   0.217  0.5532 -2.2059  0.6658
  949MOL0     H28091   1.028   2.867  -0.073  0.5558  0.1741 -0.4136
  949MOL0     H28092   1.078   2.962   0.072 -1.2422  0.2701  0.1646
  949MOL0     H28093   1.269   2.867  -0.037 -2.3860  2.2820 -1.5224
  949MOL0     H28094   1.192   2.702  -0.059 -0.4596  0.3275 -0.1509
  949MOL0     H28095   1.177   2.644   0.155 -0.9558  0.9007  0.5506
  949MOL0     H28096   1.253   2.788   0.216  3.1254 -1.7129  1.3204
  949MOL0     H28097   0.946   2.528   0.524 -0.1895 -0.5508 -2.5931
  949MOL0     H28098   1.152   2.421   0.588 -0.3426  0.7093  2.2326
  949MOL0     H28099   1.555   2.412   0.883 -0.8074 -2.4134  2.0949
  949MOL0     H28100   1.756   2.273   0.937 -0.2197 -0.8063 -0.8462
  949MOL0     H28101   1.441   0.687   0.451  0.8532  1.2044  1.8445
  949MOL0     H28102   1.247   0.607   0.356 -2.0712 -1.1962  1.1114
  949MOL0     H28103   0.682   0.866   0.215  0.6623  0.0576 -0.7290
  949MOL0     H28104   0.516   0.766   0.049 -1.0741 -0.9967  0.5643
  949MOL0     H28105   0.348   0.623   0.037  1.6425  1.4605 -0.0921
  949MOL0     H28106   0.436   0.630  -0.113 -1.3115  1.2687  1.6538
  949MOL0     H28107   0.207   0.510  -0.133 -1.0718 -2.6339  0.5936
  949MOL0     H28108   0.263   0.384  -0.040  0.3650  1.4940  1.6274
  949MOL0     H28109   0.455   0.315  -0.186  0.2644 -0.4358 -1.5107
  949MOL0     H28110   0.407   0.451  -0.277 -1.0180 -0.7300 -0.6926
  949MOL0     H28111   0.188   0.243  -0.211 -0.5874 -0.5263  0.6700
  949MOL0     H28112   0.303   0.213  -0.339 -4.2707  0.9174 -2.8456
  949MOL0     H28113   0.035   0.530  -0.474  0.0023  0.4391  0.2597
  949MOL0     H28114   0.724   0.398   0.100  3.2867 -0.5686  0.7622
  949MOL0     H28115   0.900   0.503   0.233 -2.9656 -2.5955  0.8507
  950MOL0     O28116   1.788   7.988   9.417 -0.6771 -0.8863  0.3939
  950MOL0     C28117   1.715   8.047   9.335  0.2448 -0.3726  0.0596
  950MOL0     O28118   1.701   8.183   9.308 -0.5916  0.3676  0.8327
  950MOL0     C28119   1.771   8.276   9.388 -0.0698  0.0621 -0.6166
  950MOL0     C28120   1.910   8.273   9.410 -0.2343 -0.0497  1.1834
  950MOL0     C28121   1.978   8.380   9.456  1.1060 -0.6615  0.3250
  950MOL0     C28122   1.906   8.494   9.508 -0.2767  0.6127 -0.1661
  950MOL0     O28123   1.967   8.603   9.572  0.0763 -0.0252  0.1495
  950MOL0     C28124   2.100   8.590   9.624 -0.9005  0.2746 -0.3856
  950MOL0     C28125   2.152   8.709   9.700 -0.6566 -0.6836 -0.4603
  950MOL0     C28126   2.152   8.826   9.598 -0.6257  0.3253 -0.5939
  950MOL0     C28127   2.209   8.946   9.666  0.7086 -0.7010 -0.5713
  950MOL0     C28128   2.181   9.066   9.572  1.1817 -0.3096  0.7087
  950MOL0     C28129   2.230   9.198   9.635 -0.4398 -0.2334 -0.3551
  950MOL0     C28130   2.362   9.251   9.566  0.7500  0.6589  0.6044
  950MOL0     C28131   2.483   9.155   9.582  0.2009 -0.0854 -0.4707
  950MOL0     N28132   2.536   9.145   9.721  0.0581  0.7048  0.3760
  950MOL0     C28133   2.583   9.238   9.803  0.4996 -0.1526 -0.7374
  950MOL0     C28134   2.622   9.167   9.913 -0.0136  0.1585  0.3002
  950MOL0     C28135   2.683   9.215  10.045  0.3733  1.3332 -0.2706
  950MOL0     C28136   2.581   9.289  10.127  0.6805  0.1091 -0.4791
  950MOL0     C28137   2.638   9.303  10.267 -0.0036  0.4994 -0.2777
  950MOL0     C28138   2.572   9.423  10.345 -0.1803 -0.1242  0.5323
  950MOL0     O28139   2.430   9.436  10.312  0.3108  0.4673  0.3547
  950MOL0     C28140   2.344   9.345  10.369 -0.2944  0.0116 -0.1649
  950MOL0     C28141   2.209   9.373  10.335  0.2334  0.9690 -0.2797
  950MOL0     C28142   2.099   9.311  10.408  0.0117 -0.2413 -0.7592
  950MOL0     C28143   1.958   9.328  10.368 -0.0605  0.0517 -0.0187
  950MOL0     C28144   2.125   9.240  10.521  0.2461  0.6391  0.5313
  950MOL0     C28145   2.027   9.157  10.609 -0.2396 -0.2135  0.4297
  950MOL0     O28146   2.008   9.039  10.559  0.0938  0.5779  0.0434
  950MOL0     C28147   1.942   8.941  10.636 -0.8702 -0.3882  0.0214
  950MOL0     C28148   1.852   8.862  10.568 -0.1984  0.0735 -0.1382
  950MOL0     C28149   1.808   8.748  10.634 -1.0455 -0.2587 -0.4671
  950MOL0     C28150   1.838   8.724  10.770 -0.0272  0.2153  0.4339
  950MOL0     O28151   1.781   8.612  10.833 -0.2287  0.6578 -0.2832
  950MOL0     C28152   1.847   8.484  10.812 -0.4613  0.2032 -0.8336
  950MOL0     C28153   1.848   8.401  10.944 -1.9130 -0.5887 -0.1160
  950MOL0     C28154   1.705   8.342  10.961 -0.5763 -0.4176  0.3742
  950MOL0     C28155   1.701   8.248  11.081  0.5447 -0.6548  0.2880
  950MOL0     C28156   1.701   8.326  11.209  0.3600 -0.8293 -0.3669
  950MOL0     C28157   1.705   8.242  11.342  1.0198 -0.5718  0.5215
  950MOL0     C28158   1.584   8.156  11.350 -0.3769 -0.3539 -0.5616
  950MOL0     C28159   1.555   8.105  11.486 -0.6644  0.3429 -0.5154
  950MOL0    Cl28160   1.434   7.974  11.498  0.5607 -0.0754 -0.1127
  950MOL0     C28161   1.920   8.818  10.839 -0.4585  0.0611 -0.1261
  950MOL0     C28162   1.978   8.925  10.771 -0.2531 -0.9425  0.0163
  950MOL0     O28163   1.970   9.211  10.703  0.1608  0.2957 -0.4492
  950MOL0     C28164   2.259   9.228  10.564  0.9527 -0.0423  0.6639
  950MOL0     C28165   2.368   9.283  10.488  0.1880 -0.0846  0.3520
  950MOL0     N28166   2.579   9.035   9.893  1.3405 -1.3882 -0.2930
  950MOL0     N28167   2.529   9.029   9.783 -0.5406  0.7443  0.0164
  950MOL0     C28168   1.765   8.487   9.488 -0.7969 -0.4235 -0.1465
  950MOL0     C28169   1.699   8.383   9.417  0.6302 -0.2330  0.2550
  950MOL0     C28170   1.639   7.969   9.237  0.0264  0.9071  0.9415
  950MOL0     C28171   1.666   7.839   9.210  1.6570  0.7242  0.3292
  950MOL0     C28172   1.584   7.767   9.117  0.2138 -0.5751  0.3984
  950MOL0     C28173   1.473   7.821   9.053 -0.6898 -0.5797 -0.5879
  950MOL0     O28174   1.401   7.731   8.975 -0.6975  0.6680  0.0751
  950MOL0     C28175   1.277   7.769   8.928  0.4793 -0.4219 -0.3837
  950MOL0     C28176   1.212   7.639   8.880 -0.0136  0.6117  0.2196
  950MOL0     C28177   1.273   7.595   8.746  0.6072  0.2535 -0.7556
  950MOL0     C28178   1.215   7.462   8.704  0.7289  0.8281  0.6071
  950MOL0     C28179   1.293   7.404   8.588  0.1507 -0.4816  0.0807
  950MOL0     C28180   1.350   7.380   8.486  0.4513 -0.0374 -0.1819
  950MOL0     C28181   1.443   7.956   9.087 -0.4954  0.1758 -0.6441
  950MOL0     C28182   1.525   8.024   9.178 -0.4871  0.2783  0.5255
  950MOL0     H28183   1.957   8.179   9.386  0.7659  0.9106 -0.8624
  950MOL0     H28184   2.086   8.387   9.463  1.3249 -0.7129 -2.0850
  950MOL0     H28185   2.108   8.508   9.695  0.9755 -0.7093 -1.6426
  950MOL0     H28186   2.165   8.565   9.540 -0.5725 -1.0532  0.2560
  950MOL0     H28187   2.086   8.727   9.785  0.2424 -0.6715  0.2569
  950MOL0     H28188   2.249   8.689   9.747 -0.9678 -0.0191  0.4951
  950MOL0     H28189   2.219   8.803   9.515  1.6398 -0.0259  1.2026
  950MOL0     H28190   2.053   8.844   9.556 -0.3268  2.4207 -0.5406
  950MOL0     H28191   2.167   8.958   9.766  2.8746 -0.4710  0.3680
  950MOL0     H28192   2.315   8.941   9.692  0.2010  1.7797  2.6383
  950MOL0     H28193   2.246   9.051   9.485  1.5070  1.3752  0.6219
  950MOL0     H28194   2.074   9.073   9.551  0.9744 -1.2954  1.3514
  950MOL0     H28195   2.153   9.274   9.622 -1.3358 -0.6323  2.1509
  950MOL0     H28196   2.240   9.185   9.743 -1.2437 -2.3023 -0.4718
  950MOL0     H28197   2.340   9.260   9.459  1.1640 -0.4962  0.4155
  950MOL0     H28198   2.388   9.353   9.597 -0.1031  2.4369 -3.8365
  950MOL0     H28199   2.552   9.213   9.521 -0.9899  2.0416  0.1038
  950MOL0     H28200   2.462   9.059   9.532 -1.0263  0.8985 -1.9445
  950MOL0     H28201   2.596   9.343   9.780 -0.2648 -0.2329 -1.6043
  950MOL0     H28202   2.720   9.135  10.110  2.6627  1.9913 -0.6923
  950MOL0     H28203   2.771   9.272  10.016  2.8284 -2.8087 -1.8244
  950MOL0     H28204   2.487   9.234  10.126 -0.4004  1.8707 -0.8649
  950MOL0     H28205   2.567   9.392  10.092 -0.2245 -0.2510 -1.2044
  950MOL0     H28206   2.746   9.319  10.264  0.7181 -3.4995 -0.6709
  950MOL0     H28207   2.611   9.220  10.333 -0.3091  0.0255 -0.9826
  950MOL0     H28208   2.626   9.512  10.311  0.0537 -0.2957  0.4576
  950MOL0     H28209   2.581   9.418  10.454 -4.1136 -0.6509  1.0070
  950MOL0     H28210   2.180   9.443  10.257 -2.3690 -0.1227 -0.3728
  950MOL0     H28211   1.910   9.230  10.380  4.0965 -2.7888 -3.1696
  950MOL0     H28212   1.906   9.402  10.429  0.6619 -1.0845  2.1196
  950MOL0     H28213   1.953   9.350  10.261  1.1971 -1.7652 -0.5139
  950MOL0     H28214   1.831   8.875  10.462 -2.6258  0.8093  0.3729
  950MOL0     H28215   1.757   8.663  10.589 -1.0262 -3.2261  4.4126
  950MOL0     H28216   1.799   8.426  10.732 -1.6282  0.0509 -0.0446
  950MOL0     H28217   1.953   8.498  10.789 -0.2253 -0.7584 -0.3974
  950MOL0     H28218   1.914   8.316  10.922  0.4809  1.2829 -0.6135
  950MOL0     H28219   1.886   8.449  11.034 -1.7975 -1.5134  0.3334
  950MOL0     H28220   1.682   8.279  10.875  2.4539 -0.3964 -0.5933
  950MOL0     H28221   1.630   8.422  10.965 -0.5507 -0.2231 -1.9431
  950MOL0     H28222   1.608   8.192  11.062  0.4797 -0.3189 -0.3892
  950MOL0     H28223   1.787   8.181  11.090  0.6636 -0.4444  0.7606
  950MOL0     H28224   1.617   8.396  11.213 -1.2841 -2.6837 -0.9004
  950MOL0     H28225   1.795   8.381  11.213 -1.4101  2.4043 -0.2359
  950MOL0     H28226   1.791   8.175  11.353  1.0345 -0.4973  0.8884
  950MOL0     H28227   1.696   8.310  11.427 -1.1878 -1.2922  0.9237
  950MOL0     H28228   1.615   8.068  11.292  4.3693 -2.1138  3.9322
  950MOL0     H28229   1.496   8.207  11.309  0.7388  1.5586 -0.7012
  950MOL0     H28230   1.511   8.185  11.546 -0.9061  0.0432 -0.2888
  950MOL0     H28231   1.648   8.083  11.539 -0.3156 -0.8756 -1.5846
  950MOL0     H28232   1.945   8.809  10.945 -0.9058  1.5672  0.1258
  950MOL0     H28233   2.045   8.986  10.831 -0.7267 -0.1901 -0.2045
  950MOL0     H28234   2.269   9.164  10.651  0.6098  1.4056  1.8157
  950MOL0     H28235   2.464   9.262  10.533 -0.1968 -0.3351  1.0779
  950MOL0     H28236   1.704   8.563   9.535  0.1779  0.8547 -0.8675
  950MOL0     H28237   1.593   8.375   9.398  0.9645 -3.6497 -0.8358
  950MOL0     H28238   1.743   7.783   9.262  3.3626  4.3179  2.0235
  950MOL0     H28239   1.611   7.663   9.099  1.6636 -0.2117  0.3446
  950MOL0     H28240   1.208   7.817   8.997 -4.3243 -0.1291 -4.8130
  950MOL0     H28241   1.288   7.842   8.847 -0.3984 -2.5704 -2.5784
  950MOL0     H28242   1.104   7.646   8.862 -0.1049  0.2588  0.6355
  950MOL0     H28243   1.223   7.554   8.947  0.6659 -0.9631 -1.7647
  950MOL0     H28244   1.381   7.580   8.757  0.4134 -0.2956  0.5162
  950MOL0     H28245   1.253   7.675   8.674 -4.1712  2.5629  2.5785
  950MOL0     H28246   1.108   7.472   8.680  0.1236 -1.2868  2.1638
  950MOL0     H28247   1.217   7.394   8.789 -0.5796 -0.6489 -0.4674
  950MOL0     H28248   1.398   7.362   8.391  1.0680  1.9718 -0.3031
  950MOL0     H28249   1.349   7.993   9.050  0.1797  0.6865 -1.9145
  950MOL0     H28250   1.484   8.120   9.206 -5.6449 -2.1956  2.7562
  951MOL0     O28251   7.295   5.213   8.813  0.3652  0.4384 -0.2278
  951MOL0     C28252   7.352   5.148   8.725  0.1187 -0.3057 -0.3010
  951MOL0     O28253   7.355   5.017   8.712 -0.2006  0.2866 -0.3978
  951MOL0     C28254   7.272   4.946   8.804  0.0830 -0.2717 -0.4770
  951MOL0     C28255   7.321   4.908   8.934  0.5388 -0.5781  0.8487
  951MOL0     C28256   7.236   4.843   9.028  0.6207 -0.1239  0.5763
  951MOL0     C28257   7.098   4.824   9.000 -0.0740  0.7555 -0.1782
  951MOL0     O28258   7.020   4.759   9.094  0.0794 -0.3672 -0.3554
  951MOL0     C28259   6.878   4.765   9.087 -0.7195 -1.5297 -1.1828
  951MOL0     C28260   6.812   4.784   9.224 -0.3487  0.4054 -0.8920
  951MOL0     C28261   6.874   4.895   9.310 -0.3100 -0.0840 -0.1030
  951MOL0     C28262   6.841   5.031   9.254 -0.7642  0.6910 -0.1232
  951MOL0     C28263   6.933   5.142   9.303 -0.2306 -0.6395 -0.1879
  951MOL0     C28264   6.894   5.196   9.435  1.2458 -0.0648  0.7795
  951MOL0     C28265   6.969   5.327   9.471  0.5466  0.5844  0.8030
  951MOL0     C28266   6.908   5.373   9.601  0.2234 -0.2659  0.0453
  951MOL0     N28267   6.969   5.498   9.634 -0.8882 -0.1655  0.4329
  951MOL0     C28268   6.919   5.577   9.729  0.2987  0.4782 -0.5785
  951MOL0     C28269   7.021   5.664   9.750 -0.2673  0.1187  0.3253
  951MOL0     C28270   7.017   5.792   9.827  0.4018  0.0394  0.0783
  951MOL0     C28271   6.938   5.903   9.754 -1.7481  0.7134  0.1096
  951MOL0     C28272   6.982   5.927   9.610 -1.1767 -0.4292 -0.3234
  951MOL0     C28273   6.947   6.067   9.555  0.2065  0.0263  1.3105
  951MOL0     O28274   6.887   6.062   9.427 -0.1574  0.0291  0.1983
  951MOL0     C28275   6.758   6.022   9.401  0.1330  0.3163 -0.3320
  951MOL0     C28276   6.658   6.038   9.498 -0.4004  0.4825 -0.1826
  951MOL0     C28277   6.525   5.996   9.469  0.6839 -0.0718  0.1343
  951MOL0     C28278   6.433   6.028   9.590 -0.6664  0.4780  0.5511
  951MOL0     C28279   6.490   5.941   9.335 -0.2938  0.0931 -0.5407
  951MOL0     C28280   6.354   5.903   9.297 -0.1509 -0.0798  0.4737
  951MOL0     O28281   6.328   5.836   9.183 -0.4773 -0.9043  0.5216
  951MOL0     C28282   6.200   5.786   9.143 -0.2996  0.0347 -0.1233
  951MOL0     C28283   6.136   5.695   9.230 -1.0822  0.0125 -0.3639
  951MOL0     C28284   6.023   5.627   9.183 -0.4901 -1.1438 -0.2483
  951MOL0     C28285   5.977   5.644   9.049 -0.0499  0.1926  1.3001
  951MOL0     O28286   5.862   5.575   9.007 -0.0962  0.1348 -0.2794
  951MOL0     C28287   5.842   5.543   8.871  0.4581  0.5114 -0.1461
  951MOL0     C28288   5.726   5.450   8.854  0.5589 -0.1233 -0.3290
  951MOL0     C28289   5.594   5.499   8.914  0.2765 -0.2631  0.1926
  951MOL0     C28290   5.490   5.399   8.894 -0.1433  0.8145 -0.4843
  951MOL0     C28291   5.357   5.466   8.906 -0.2192  0.7223 -0.3698
  951MOL0     C28292   5.247   5.360   8.876  0.0743  0.2551  0.4909
  951MOL0     C28293   5.120   5.435   8.905  1.1208 -0.1158  0.3836
  951MOL0     C28294   5.008   5.341   8.901  0.3132  0.5758 -0.6452
  951MOL0    Cl28295   5.015   5.197   9.021 -0.3662  0.5276 -0.4086
  951MOL0     C28296   6.053   5.730   8.968  0.3608 -1.0474  0.2706
  951MOL0     C28297   6.163   5.796   9.014 -0.5043  0.3851 -0.7435
  951MOL0     O28298   6.260   5.956   9.361  0.6735 -0.4866  0.1004
  951MOL0     C28299   6.599   5.900   9.263 -0.2013 -0.8234 -0.9507
  951MOL0     C28300   6.729   5.939   9.296  0.7359 -0.9135 -0.3983
  951MOL0     N28301   7.136   5.633   9.669 -0.5068 -0.2485 -0.1959
  951MOL0     N28302   7.098   5.536   9.594  0.0419 -0.1758 -0.4275
  951MOL0     C28303   7.052   4.879   8.874 -0.8513  0.1321 -0.1150
  951MOL0     C28304   7.135   4.937   8.780  0.7167 -0.0664 -0.2177
  951MOL0     C28305   7.396   5.227   8.606  0.6410 -0.2686 -0.2198
  951MOL0     C28306   7.379   5.362   8.587  0.1927 -0.3002  0.0950
  951MOL0     C28307   7.420   5.441   8.474  0.0345  0.5368  0.1188
  951MOL0     C28308   7.480   5.374   8.368 -0.7843  0.4225 -0.4994
  951MOL0     O28309   7.525   5.425   8.246  0.0130 -0.4065  0.7849
  951MOL0     C28310   7.494   5.557   8.216 -0.0649  0.4847  1.1832
  951MOL0     C28311   7.344   5.572   8.188  0.5819 -0.9047  1.1382
  951MOL0     C28312   7.290   5.511   8.051  0.3149  0.4030  0.6625
  951MOL0     C28313   7.138   5.498   8.049 -0.1718  0.7074  0.3019
  951MOL0     C28314   7.060   5.627   8.043 -0.6974 -0.4928  0.4103
  951MOL0     C28315   6.979   5.717   8.043 -0.1176  0.1528 -0.3773
  951MOL0     C28316   7.507   5.244   8.388  0.1647  0.9868  0.3454
  951MOL0     C28317   7.468   5.166   8.501 -0.9499 -0.7853 -0.7190
  951MOL0     H28318   7.427   4.923   8.955  1.1825 -3.7993  0.4478
  951MOL0     H28319   7.280   4.829   9.127 -2.4265 -0.2609  2.0282
  951MOL0     H28320   6.848   4.856   9.035 -1.5896 -1.1414 -0.0316
  951MOL0     H28321   6.829   4.674   9.048 -1.7157 -1.6986  0.3803
  951MOL0     H28322   6.705   4.798   9.203 -1.0974 -3.4908 -0.3444
  951MOL0     H28323   6.830   4.693   9.282  0.1680  1.2938  0.4148
  951MOL0     H28324   6.837   4.896   9.413  1.6918  1.5832  0.6757
  951MOL0     H28325   6.983   4.895   9.298 -0.0906  3.2130  0.8772
  951MOL0     H28326   6.861   5.023   9.146 -1.3723 -3.1524 -0.1103
  951MOL0     H28327   6.736   5.054   9.267 -0.2582  2.9174  0.3227
  951MOL0     H28328   7.038   5.113   9.300  0.2071  0.8916 -0.6191
  951MOL0     H28329   6.920   5.228   9.236  0.5333 -0.2707  0.1205
  951MOL0     H28330   6.786   5.212   9.439  1.4472  1.4106  0.8688
  951MOL0     H28331   6.930   5.119   9.504 -3.3094 -3.2374  0.0578
  951MOL0     H28332   7.075   5.314   9.496  0.0692  0.6805  3.1151
  951MOL0     H28333   6.956   5.401   9.392 -0.6262 -1.3332 -0.8623
  951MOL0     H28334   6.926   5.289   9.669 -3.3974 -2.5963 -1.5945
  951MOL0     H28335   6.800   5.381   9.590  0.2798 -0.5229 -0.6919
  951MOL0     H28336   6.819   5.565   9.766  0.5850  2.0835  0.8330
  951MOL0     H28337   6.976   5.752   9.920  1.3723 -3.6722 -0.8905
  951MOL0     H28338   7.119   5.830   9.838 -0.5975  3.4300 -1.2137
  951MOL0     H28339   6.946   5.996   9.810 -2.4818  0.2701  0.9927
  951MOL0     H28340   6.832   5.878   9.745 -1.4713 -1.2000  1.4474
  951MOL0     H28341   6.930   5.856   9.546  0.1694 -0.5574 -1.2991
  951MOL0     H28342   7.090   5.912   9.596 -0.8155 -0.3468  1.8790
  951MOL0     H28343   7.042   6.120   9.539 -0.5534  0.7794 -1.2584
  951MOL0     H28344   6.884   6.124   9.623 -0.4235  0.6709  0.2149
  951MOL0     H28345   6.686   6.087   9.591  0.0244  0.8418 -0.4954
  951MOL0     H28346   6.366   6.110   9.563  1.1973  1.3325 -1.8082
  951MOL0     H28347   6.370   5.938   9.587  0.6482 -0.4898 -3.0689
  951MOL0     H28348   6.490   6.031   9.683 -1.4579 -0.8402  1.1107
  951MOL0     H28349   6.159   5.665   9.332  0.7596 -2.4036 -1.3796
  951MOL0     H28350   5.968   5.549   9.236 -1.0382 -0.1554  0.6872
  951MOL0     H28351   5.831   5.635   8.813  0.1531 -0.5535 -1.8287
  951MOL0     H28352   5.934   5.497   8.833 -1.0043 -0.5053 -2.6286
  951MOL0     H28353   5.710   5.427   8.749 -0.4564 -0.6872 -0.0725
  951MOL0     H28354   5.763   5.356   8.897 -2.0153 -0.0718  2.4140
  951MOL0     H28355   5.581   5.595   8.862  1.0658  0.9983  2.2150
  951MOL0     H28356   5.608   5.522   9.020 -1.9149 -3.0559  1.2283
  951MOL0     H28357   5.493   5.350   8.797  0.6973 -0.4941  0.1744
  951MOL0     H28358   5.501   5.328   8.976 -1.6004  0.3003 -0.6995
  951MOL0     H28359   5.353   5.554   8.841 -0.2226  0.5196 -0.6460
  951MOL0     H28360   5.346   5.513   9.004  1.1421  0.1355  0.0828
  951MOL0     H28361   5.251   5.330   8.771 -1.6150 -2.7529  1.1807
  951MOL0     H28362   5.246   5.272   8.940  2.2583 -1.1274 -1.2096
  951MOL0     H28363   5.110   5.512   8.828 -2.0103 -1.1786 -0.3856
  951MOL0     H28364   5.122   5.482   9.004  1.1461  4.0086 -1.3406
  951MOL0     H28365   5.000   5.288   8.806 -0.2951 -1.8972  0.6699
  951MOL0     H28366   4.914   5.393   8.920 -2.0578 -2.8944 -1.7802
  951MOL0     H28367   6.023   5.746   8.865  1.8300 -3.7193 -0.6775
  951MOL0     H28368   6.218   5.844   8.934  1.3071 -3.3094 -1.9552
  951MOL0     H28369   6.585   5.820   9.190  1.3299 -1.1544 -0.9132
  951MOL0     H28370   6.806   5.912   9.225  0.9321  4.0502 -2.4871
  951MOL0     H28371   6.948   4.890   8.844 -0.8826  0.9182  0.2744
  951MOL0     H28372   7.104   4.974   8.683 -1.0850 -2.4378 -0.6369
  951MOL0     H28373   7.338   5.412   8.674 -0.0742  0.0037 -0.2040
  951MOL0     H28374   7.392   5.546   8.472 -2.3440 -0.0275  1.3093
  951MOL0     H28375   7.537   5.630   8.284 -0.6081  1.9292  0.0282
  951MOL0     H28376   7.554   5.580   8.128  1.5583  1.3654  2.4752
  951MOL0     H28377   7.333   5.680   8.173  1.3240 -0.7081  1.9353
  951MOL0     H28378   7.281   5.534   8.269  0.0771 -2.9487 -0.1341
  951MOL0     H28379   7.336   5.413   8.037 -0.4009  0.0769  0.5277
  951MOL0     H28380   7.319   5.571   7.964 -0.1484  2.2352  1.7297
  951MOL0     H28381   7.111   5.449   8.143  1.7283  0.8945  0.9936
  951MOL0     H28382   7.100   5.433   7.970  0.3379  0.8713 -0.0803
  951MOL0     H28383   6.900   5.789   8.052 -0.5008 -0.0414 -1.9549
  951MOL0     H28384   7.572   5.198   8.314 -1.8888 -3.4090  0.9728
  951MOL0     H28385   7.491   5.060   8.505 -0.7330 -0.7053  0.5427
  952MOL0     O28386   2.359   5.220   2.441  0.1217  0.4015 -0.2594
  952MOL0     C28387   2.401   5.198   2.324 -0.6163  0.0967  0.7600
  952MOL0     O28388   2.332   5.188   2.211 -0.3035 -0.5082 -0.7225
  952MOL0     C28389   2.204   5.236   2.213  0.7086  0.0867  0.4583
  952MOL0     C28390   2.169   5.373   2.218  0.3181  0.7370 -0.6207
  952MOL0     C28391   2.039   5.411   2.198  0.9412  0.0307 -0.0044
  952MOL0     C28392   1.933   5.320   2.189 -1.4495  0.4213  0.6078
  952MOL0     O28393   1.804   5.347   2.168  0.3358  0.7128 -0.0021
  952MOL0     C28394   1.762   5.483   2.166 -0.3818  0.9626  0.9720
  952MOL0     C28395   1.621   5.471   2.119 -0.3128  0.0314  0.0124
  952MOL0     C28396   1.556   5.609   2.104  0.5799  0.2708  1.1080
  952MOL0     C28397   1.412   5.581   2.056  0.0664  0.0948 -0.0436
  952MOL0     C28398   1.328   5.517   2.158 -0.5338 -1.1673 -0.6257
  952MOL0     C28399   1.321   5.592   2.292 -0.6710  0.3590 -0.7332
  952MOL0     C28400   1.285   5.735   2.268  0.4828  0.6513 -0.6597
  952MOL0     C28401   1.272   5.808   2.403  0.5929 -0.3610 -0.2797
  952MOL0     N28402   1.382   5.815   2.496  0.1121 -0.0332  0.4941
  952MOL0     C28403   1.519   5.817   2.471 -0.6736 -0.5789 -0.2301
  952MOL0     C28404   1.569   5.869   2.580 -0.1630  0.3359 -0.5879
  952MOL0     C28405   1.707   5.907   2.602 -1.0158  0.1333 -0.3562
  952MOL0     C28406   1.741   6.048   2.560 -0.2944 -0.1110  0.2324
  952MOL0     C28407   1.890   6.069   2.605  0.5406 -0.5995 -0.2177
  952MOL0     C28408   1.951   6.206   2.570 -0.6672  0.1302  0.2818
  952MOL0     O28409   1.968   6.195   2.427 -0.5810  0.4475  0.9992
  952MOL0     C28410   2.034   6.293   2.359 -0.6744 -0.1442  0.6175
  952MOL0     C28411   2.028   6.293   2.220 -0.0447 -0.1280 -0.2506
  952MOL0     C28412   2.091   6.382   2.137 -0.3856 -0.4316 -0.8043
  952MOL0     C28413   2.088   6.367   1.987  0.4669  0.9308  0.1638
  952MOL0     C28414   2.165   6.490   2.192  0.3108 -0.4719  0.5330
  952MOL0     C28415   2.219   6.607   2.119 -0.2989 -1.0362  0.6252
  952MOL0     O28416   2.197   6.729   2.172  0.5394  0.1227 -0.5150
  952MOL0     C28417   2.248   6.829   2.095 -1.4521  0.1869 -0.4745
  952MOL0     C28418   2.182   6.898   1.990  0.0300  0.3610 -0.8572
  952MOL0     C28419   2.237   7.010   1.938  0.7826 -0.0707 -0.4892
  952MOL0     C28420   2.357   7.062   1.970  0.3832  0.1760  0.3155
  952MOL0     O28421   2.404   7.183   1.917  0.1087  0.4610 -0.4164
  952MOL0     C28422   2.535   7.182   1.848  1.1316  0.3099 -0.7865
  952MOL0     C28423   2.591   7.328   1.825 -0.1122 -0.6172  0.1150
  952MOL0     C28424   2.690   7.319   1.715  0.0727  1.8154 -0.1493
  952MOL0     C28425   2.777   7.433   1.680 -0.1627 -0.7956  0.0959
  952MOL0     C28426   2.878   7.406   1.569 -0.0859  0.1617  0.3444
  952MOL0     C28427   2.972   7.524   1.531 -0.0983 -0.3843 -0.9244
  952MOL0     C28428   3.064   7.503   1.409  0.5126  0.4487  0.7961
  952MOL0     C28429   3.115   7.641   1.356  0.4651  0.0713 -0.4552
  952MOL0    Cl28430   3.267   7.587   1.258 -0.6040  0.1701  0.4801
  952MOL0     C28431   2.424   6.989   2.066 -0.2162 -0.0136  0.4623
  952MOL0     C28432   2.374   6.878   2.133  1.2868  0.6210 -0.4081
  952MOL0     O28433   2.292   6.591   2.021 -0.5587  0.6755  0.0846
  952MOL0     C28434   2.175   6.486   2.332 -1.0247  0.0260  0.1084
  952MOL0     C28435   2.107   6.399   2.415  0.6034 -0.1831 -0.1013
  952MOL0     N28436   1.469   5.877   2.675 -0.1186 -0.2030 -0.5447
  952MOL0     N28437   1.352   5.846   2.629 -0.4800  0.5157  0.5559
  952MOL0     C28438   1.969   5.185   2.202  0.3569  0.3463  1.6716
  952MOL0     C28439   2.097   5.144   2.207  0.5721  0.7085 -1.3906
  952MOL0     C28440   2.549   5.162   2.310  0.9457  0.9922  0.6414
  952MOL0     C28441   2.632   5.163   2.422  0.4447  0.5852 -0.4225
  952MOL0     C28442   2.765   5.122   2.410  0.2800  1.0665  0.8419
  952MOL0     C28443   2.815   5.096   2.281 -0.8245 -0.3719  0.9117
  952MOL0     O28444   2.950   5.074   2.273 -0.1211  0.1281  0.0773
  952MOL0     C28445   3.035   5.182   2.241  0.7179 -0.0059 -0.4885
  952MOL0     C28446   3.169   5.188   2.321  0.7908 -0.1234 -0.0942
  952MOL0     C28447   3.132   5.214   2.474 -0.3782  0.8470  0.4202
  952MOL0     C28448   3.061   5.352   2.505  0.1700  0.2344  0.3943
  952MOL0     C28449   3.154   5.469   2.511  0.1488  0.8554 -0.3712
  952MOL0     C28450   3.229   5.561   2.525  0.0080 -0.6624 -0.0046
  952MOL0     C28451   2.730   5.093   2.163 -0.5511 -1.0887  0.3614
  952MOL0     C28452   2.598   5.116   2.188  0.4598  0.3381 -0.4349
  952MOL0     H28453   2.249   5.440   2.248 -0.0350  0.6492  0.5337
  952MOL0     H28454   2.017   5.517   2.198  1.8192  0.2718  1.8771
  952MOL0     H28455   1.764   5.537   2.261 -2.2048  1.1068  0.9544
  952MOL0     H28456   1.814   5.541   2.089 -1.8834 -0.8636 -1.5965
  952MOL0     H28457   1.628   5.426   2.020  0.0966  0.8346 -0.3292
  952MOL0     H28458   1.567   5.401   2.183  0.9348  0.6134  1.7790
  952MOL0     H28459   1.569   5.678   2.188  2.4131  1.8418 -0.3799
  952MOL0     H28460   1.606   5.654   2.018 -0.9168 -0.5180 -0.2244
  952MOL0     H28461   1.365   5.677   2.031 -1.4006 -0.7722 -0.7327
  952MOL0     H28462   1.417   5.515   1.969 -0.3985  0.1325 -0.1008
  952MOL0     H28463   1.229   5.511   2.112  0.3781 -0.2943 -2.8433
  952MOL0     H28464   1.363   5.416   2.183  0.4749  0.0361  3.7085
  952MOL0     H28465   1.255   5.542   2.364  0.0578  0.9944  0.4213
  952MOL0     H28466   1.420   5.589   2.339 -1.6163  2.0780  1.5872
  952MOL0     H28467   1.360   5.788   2.208  0.0528  0.5265 -1.3184
  952MOL0     H28468   1.188   5.744   2.218  0.8302  0.3619 -1.4050
  952MOL0     H28469   1.195   5.757   2.461  2.9893 -1.7644  1.8577
  952MOL0     H28470   1.224   5.904   2.380 -1.5325 -0.6507  2.4313
  952MOL0     H28471   1.576   5.784   2.384  2.1000 -1.6645  1.8443
  952MOL0     H28472   1.733   5.900   2.708  2.6708 -1.7501 -1.2232
  952MOL0     H28473   1.774   5.836   2.553  1.4521  4.1173 -3.3670
  952MOL0     H28474   1.675   6.119   2.610 -1.9148 -1.5989  0.3079
  952MOL0     H28475   1.732   6.062   2.452  0.2920  0.2892  0.2297
  952MOL0     H28476   1.950   5.996   2.552  0.0084 -0.7205 -0.6629
  952MOL0     H28477   1.891   6.073   2.715 -1.8417  2.0364 -0.1623
  952MOL0     H28478   2.043   6.218   2.628 -0.4196  0.8320 -0.2454
  952MOL0     H28479   1.881   6.285   2.599  0.6005  0.9896  1.0608
  952MOL0     H28480   1.973   6.209   2.178 -0.8509  0.6491 -0.7975
  952MOL0     H28481   2.063   6.463   1.939 -0.9478  0.1634 -0.6968
  952MOL0     H28482   2.191   6.341   1.958  0.9127  3.3712 -0.7031
  952MOL0     H28483   2.017   6.287   1.963 -0.7358  2.4370 -1.6082
  952MOL0     H28484   2.087   6.851   1.965  0.9233 -1.0868 -1.6784
  952MOL0     H28485   2.186   7.049   1.850 -1.1515  0.5474  0.8338
  952MOL0     H28486   2.607   7.117   1.898 -0.5944  0.3401  1.9211
  952MOL0     H28487   2.511   7.138   1.751  2.0906  0.9568 -1.3286
  952MOL0     H28488   2.524   7.406   1.787 -0.0879 -2.2002 -3.5539
  952MOL0     H28489   2.642   7.360   1.916  0.9712 -0.4269 -0.5436
  952MOL0     H28490   2.633   7.308   1.622 -1.8618 -1.6676  1.2378
  952MOL0     H28491   2.744   7.227   1.739  1.5033  2.3241 -1.3116
  952MOL0     H28492   2.716   7.516   1.642 -2.1286 -1.8495  0.8206
  952MOL0     H28493   2.833   7.470   1.766 -0.1520 -0.2367 -0.1425
  952MOL0     H28494   2.811   7.387   1.484 -0.6594  1.3658  0.5188
  952MOL0     H28495   2.935   7.315   1.591 -1.1807 -0.7100 -0.3415
  952MOL0     H28496   2.910   7.608   1.501  3.0362  2.8595  0.8664
  952MOL0     H28497   3.035   7.552   1.616 -4.2660  1.9679  1.7437
  952MOL0     H28498   3.015   7.448   1.328 -0.9186  0.7991  1.3915
  952MOL0     H28499   3.153   7.451   1.445  0.7969  1.5570  1.7483
  952MOL0     H28500   3.136   7.711   1.437  2.3648  2.3380 -2.7286
  952MOL0     H28501   3.043   7.689   1.288 -1.2435 -3.3341 -1.3189
  952MOL0     H28502   2.525   7.024   2.088 -0.5057  1.8604 -0.9245
  952MOL0     H28503   2.435   6.838   2.213  3.0981  2.8139 -0.5715
  952MOL0     H28504   2.232   6.560   2.389  0.9384 -2.2411  1.2738
  952MOL0     H28505   2.112   6.412   2.522 -0.1306 -0.8397  0.0280
  952MOL0     H28506   1.896   5.105   2.197 -0.1955  0.9143 -0.1303
  952MOL0     H28507   2.130   5.040   2.208  0.0789  0.4405  2.1681
  952MOL0     H28508   2.586   5.185   2.518 -1.6387 -2.1044 -0.6846
  952MOL0     H28509   2.840   5.123   2.488  1.3783 -1.4660 -0.0916
  952MOL0     H28510   3.079   5.156   2.144 -0.4853 -0.2721 -0.9773
  952MOL0     H28511   2.989   5.280   2.228  1.1320  0.3129  0.4149
  952MOL0     H28512   3.237   5.268   2.291  1.9573  0.4281  3.5361
  952MOL0     H28513   3.231   5.098   2.314  0.3705 -0.3725 -0.6370
  952MOL0     H28514   3.219   5.211   2.540 -0.0845  1.0906  0.0466
  952MOL0     H28515   3.076   5.128   2.513 -1.7738  1.6617  0.3090
  952MOL0     H28516   3.014   5.348   2.603 -1.0834  1.9989 -0.1041
  952MOL0     H28517   2.981   5.376   2.434  1.1697  1.1832 -0.4441
  952MOL0     H28518   3.308   5.629   2.551 -2.3231  1.0343  3.4464
  952MOL0     H28519   2.756   5.072   2.060 -1.8316  1.5752 -0.6061
  952MOL0     H28520   2.528   5.113   2.105 -0.9211  0.6230  0.6793
  953MOL0     O28521   6.894   7.485   0.111 -0.7029  0.4270 -0.5224
  953MOL0     C28522   6.850   7.517   0.001 -0.0785  0.0419  0.7244
  953MOL0     O28523   6.718   7.541  -0.030  0.5703 -0.1007 -0.7752
  953MOL0     C28524   6.629   7.526   0.074 -0.4728  0.5750 -0.5073
  953MOL0     C28525   6.618   7.414   0.167 -0.7348  0.2544 -0.2776
  953MOL0     C28526   6.522   7.405   0.268 -0.4114 -1.3017 -0.3395
  953MOL0     C28527   6.449   7.516   0.300 -0.1971 -0.0828 -0.5014
  953MOL0     O28528   6.365   7.534   0.414 -0.6151  0.0808 -0.3631
  953MOL0     C28529   6.382   7.445   0.528  0.4266 -0.4629  1.1463
  953MOL0     C28530   6.303   7.493   0.652 -0.3006  1.0359  0.4952
  953MOL0     C28531   6.160   7.544   0.625 -0.2586  0.0793 -0.4614
  953MOL0     C28532   6.066   7.429   0.591  0.2453  0.5914 -0.8572
  953MOL0     C28533   5.919   7.472   0.556 -0.9959  0.9020  0.1051
  953MOL0     C28534   5.905   7.560   0.432  0.8354  0.1204  0.3006
  953MOL0     C28535   5.957   7.503   0.299  0.9741 -0.4920  1.0832
  953MOL0     C28536   6.081   7.570   0.247 -0.3483  0.3890  0.4298
  953MOL0     N28537   6.080   7.562   0.098 -0.4593 -0.4601 -0.0715
  953MOL0     C28538   6.105   7.661   0.007  0.4179 -0.5413  0.5170
  953MOL0     C28539   6.099   7.600  -0.117 -0.0041 -0.2146 -1.2907
  953MOL0     C28540   6.117   7.648  -0.251  0.6731 -0.4419  0.4391
  953MOL0     C28541   6.256   7.676  -0.284 -0.1531 -0.3831  0.1732
  953MOL0     C28542   6.356   7.559  -0.269 -0.7124  0.3313 -0.1936
  953MOL0     C28543   6.501   7.601  -0.298  0.1893  0.1844  0.2954
  953MOL0     O28544   6.588   7.487  -0.325  0.1234  0.2155 -0.3162
  953MOL0     C28545   6.661   7.494  -0.443  1.1304  0.6722 -0.5347
  953MOL0     C28546   6.746   7.598  -0.465 -0.3054 -0.1617 -0.1465
  953MOL0     C28547   6.809   7.622  -0.582 -0.5611  0.2399 -0.1709
  953MOL0     C28548   6.896   7.745  -0.586  0.7070 -0.2674  0.5408
  953MOL0     C28549   6.799   7.523  -0.685  0.1677 -0.2512 -0.5994
  953MOL0     C28550   6.858   7.523  -0.815  0.7384  0.7038  0.5664
  953MOL0     O28551   6.807   7.435  -0.918 -0.0771 -0.1575  0.3680
  953MOL0     C28552   6.878   7.401  -1.033  0.1362  0.5922  0.1941
  953MOL0     C28553   6.799   7.321  -1.118 -1.1505  0.8440 -0.1346
  953MOL0     C28554   6.858   7.274  -1.242 -0.3038  0.3155 -0.4382
  953MOL0     C28555   6.987   7.313  -1.280 -1.2550  0.1899 -0.3427
  953MOL0     O28556   7.039   7.263  -1.398  0.1511  0.2934 -0.0689
  953MOL0     C28557   7.114   7.348  -1.494  0.2435  0.0414 -0.4539
  953MOL0     C28558   7.026   7.420  -1.593  0.5437 -0.4858  0.4243
  953MOL0     C28559   6.947   7.545  -1.539 -0.4123  0.3371 -0.1521
  953MOL0     C28560   6.917   7.643  -1.651 -0.1607  0.4926 -0.3623
  953MOL0     C28561   6.837   7.767  -1.608 -0.8351 -0.3319  0.5295
  953MOL0     C28562   6.832   7.856  -1.738 -0.0693 -0.5016 -0.0900
  953MOL0     C28563   6.761   7.992  -1.742 -0.2226 -0.1253  0.1084
  953MOL0     C28564   6.852   8.112  -1.722  1.0492 -0.6545 -0.2963
  953MOL0    Cl28565   6.764   8.269  -1.719  0.1073  0.1953  0.3856
  953MOL0     C28566   7.058   7.400  -1.198  0.2460  0.2566 -0.6591
  953MOL0     C28567   7.000   7.438  -1.079  0.2909 -0.0324 -0.2727
  953MOL0     O28568   6.953   7.602  -0.827  0.6380  0.0048  0.0936
  953MOL0     C28569   6.716   7.410  -0.661 -1.1361 -0.6526 -0.7073
  953MOL0     C28570   6.658   7.386  -0.538 -0.2327 -0.4211 -0.3979
  953MOL0     N28571   6.068   7.468  -0.100  0.4243 -0.4207 -0.0688
  953MOL0     N28572   6.065   7.442   0.027  0.2189 -0.7465  0.3356
  953MOL0     C28573   6.456   7.619   0.213 -0.9525  0.0466 -0.0089
  953MOL0     C28574   6.540   7.627   0.098 -0.5938  0.4652  0.2511
  953MOL0     C28575   6.954   7.512  -0.108  0.3895 -0.1945 -0.1722
  953MOL0     C28576   6.912   7.434  -0.222  0.9883  0.4032 -0.4566
  953MOL0     C28577   6.999   7.413  -0.331 -0.1268  0.5575  0.4087
  953MOL0     C28578   7.128   7.471  -0.331  0.0267  0.0011 -0.3859
  953MOL0     O28579   7.217   7.444  -0.434 -0.3092  0.9167 -0.6291
  953MOL0     C28580   7.198   7.504  -0.562  0.2589  0.4411 -0.7322
  953MOL0     C28581   7.309   7.442  -0.651 -0.5147 -0.2301  1.5491
  953MOL0     C28582   7.329   7.496  -0.796 -0.0905  0.5927 -0.1040
  953MOL0     C28583   7.469   7.462  -0.839 -0.4900  0.8768  0.4149
  953MOL0     C28584   7.476   7.316  -0.879  0.0383  0.0107 -1.2642
  953MOL0     C28585   7.494   7.198  -0.917  0.5913 -0.7288 -0.0489
  953MOL0     C28586   7.163   7.555  -0.223  0.4820  0.1055  0.2413
  953MOL0     C28587   7.080   7.564  -0.114 -1.0001 -0.4671 -0.3854
  953MOL0     H28588   6.686   7.331   0.158 -0.4334  0.4634  0.0639
  953MOL0     H28589   6.524   7.319   0.333  0.9936 -1.1121 -0.0966
  953MOL0     H28590   6.339   7.352   0.492 -4.5021  1.6751  0.6524
  953MOL0     H28591   6.489   7.448   0.549  0.7768  2.7217 -0.4918
  953MOL0     H28592   6.307   7.409   0.721 -0.1757  1.6682  1.2736
  953MOL0     H28593   6.351   7.574   0.707  4.6829 -1.3997  0.3110
  953MOL0     H28594   6.120   7.605   0.706 -1.3199 -1.4695  0.2334
  953MOL0     H28595   6.175   7.607   0.537  0.0632 -1.7928 -1.7944
  953MOL0     H28596   6.110   7.374   0.507  1.7243  0.5184 -0.0673
  953MOL0     H28597   6.065   7.355   0.672  3.9697  1.8684  0.6013
  953MOL0     H28598   5.861   7.379   0.553 -0.8000  0.7465  0.8529
  953MOL0     H28599   5.881   7.519   0.647 -0.6256  0.7335  0.3544
  953MOL0     H28600   5.798   7.582   0.423  0.8691  1.4326  2.4670
  953MOL0     H28601   5.956   7.655   0.450  3.5712 -1.4445  1.4330
  953MOL0     H28602   5.965   7.395   0.291  4.2856 -0.2551 -0.0227
  953MOL0     H28603   5.880   7.533   0.228  1.6271  1.6237  1.1995
  953MOL0     H28604   6.169   7.512   0.277 -0.4755 -1.7988 -2.8943
  953MOL0     H28605   6.091   7.672   0.284 -0.2552  1.2499 -1.7849
  953MOL0     H28606   6.130   7.766   0.018 -0.1299 -0.1600 -1.5108
  953MOL0     H28607   6.074   7.574  -0.318 -0.7650 -0.1280  0.9711
  953MOL0     H28608   6.061   7.740  -0.271 -0.6609 -1.5501 -1.2071
  953MOL0     H28609   6.293   7.748  -0.210 -0.2823 -0.4249  0.2785
  953MOL0     H28610   6.267   7.715  -0.386 -1.7402 -1.8878 -0.6335
  953MOL0     H28611   6.323   7.483  -0.341  2.0341 -1.8181  0.6360
  953MOL0     H28612   6.355   7.505  -0.173  1.8944  2.1337  0.9668
  953MOL0     H28613   6.518   7.661  -0.209 -2.3576 -1.0146  1.6960
  953MOL0     H28614   6.496   7.665  -0.386 -2.5610 -1.8552 -1.1878
  953MOL0     H28615   6.768   7.666  -0.384  3.3326 -0.3277 -0.8398
  953MOL0     H28616   6.891   7.794  -0.488 -1.3034 -0.3245  0.4974
  953MOL0     H28617   7.003   7.724  -0.592  0.7804  0.2018  0.1260
  953MOL0     H28618   6.863   7.813  -0.665  2.0857 -1.4034 -1.0773
  953MOL0     H28619   6.701   7.281  -1.092  0.3385 -1.5566  2.2910
  953MOL0     H28620   6.792   7.209  -1.300 -2.1715  0.2097  1.6456
  953MOL0     H28621   7.171   7.427  -1.444 -3.0172  1.4049  1.4301
  953MOL0     H28622   7.185   7.287  -1.550  0.3142  0.3988 -0.7604
  953MOL0     H28623   7.097   7.453  -1.669  0.2231 -0.1709  0.2597
  953MOL0     H28624   6.962   7.346  -1.642 -0.3159  0.4294  0.1292
  953MOL0     H28625   7.000   7.599  -1.460 -1.9702 -1.0652  1.9566
  953MOL0     H28626   6.857   7.512  -1.487  0.6391  1.6410  2.7213
  953MOL0     H28627   7.006   7.660  -1.711 -1.1900 -1.0522 -2.4591
  953MOL0     H28628   6.845   7.602  -1.723 -1.7592  2.0722  0.2558
  953MOL0     H28629   6.893   7.824  -1.534  0.0116  1.3405 -1.2950
  953MOL0     H28630   6.743   7.740  -1.560 -0.8373  0.9301  1.2780
  953MOL0     H28631   6.927   7.868  -1.790  0.8028  3.1062  1.9735
  953MOL0     H28632   6.767   7.793  -1.799 -1.5085 -0.2363  1.1111
  953MOL0     H28633   6.685   7.984  -1.663 -0.7497 -1.8304 -0.5176
  953MOL0     H28634   6.703   8.008  -1.833  0.1986  1.1801  0.0590
  953MOL0     H28635   6.924   8.123  -1.804 -1.0985 -0.8020 -2.3336
  953MOL0     H28636   6.913   8.099  -1.633  2.0360  1.3039 -0.6357
  953MOL0     H28637   7.157   7.431  -1.231  1.3940 -1.6528  0.7750
  953MOL0     H28638   7.057   7.512  -1.025  1.5834 -0.8563 -0.4654
  953MOL0     H28639   6.706   7.329  -0.733  2.1699 -0.2806 -1.7574
  953MOL0     H28640   6.595   7.298  -0.529 -0.7357  0.0043  0.3367
  953MOL0     H28641   6.414   7.714   0.244 -0.2581  0.8680 -1.4290
  953MOL0     H28642   6.536   7.710   0.028 -1.3448 -0.1302 -0.4239
  953MOL0     H28643   6.815   7.386  -0.233  1.8269 -1.2023 -1.1549
  953MOL0     H28644   6.975   7.366  -0.426  5.6781 -1.7951 -0.3542
  953MOL0     H28645   7.100   7.485  -0.607  0.2227  0.1014 -0.5104
  953MOL0     H28646   7.215   7.612  -0.562  0.5759  0.4423 -3.2040
  953MOL0     H28647   7.285   7.336  -0.658 -1.0702 -0.0903  1.2390
  953MOL0     H28648   7.399   7.457  -0.591  1.3264 -3.0039 -0.2971
  953MOL0     H28649   7.319   7.604  -0.800  0.4443  0.6120 -1.2602
  953MOL0     H28650   7.256   7.454  -0.865  0.1678 -0.8789  0.4716
  953MOL0     H28651   7.544   7.492  -0.765  0.2258  0.2101 -0.0332
  953MOL0     H28652   7.467   7.522  -0.931  0.4856  0.6139  0.2211
  953MOL0     H28653   7.527   7.096  -0.927 -3.2385 -2.0138 -1.5150
  953MOL0     H28654   7.260   7.601  -0.210 -0.4507  1.9812  0.7929
  953MOL0     H28655   7.128   7.613  -0.029  1.5736 -0.8152 -1.5305
  954MOL0     O28656   8.005   6.286   9.093  0.5035  0.3767  0.2891
  954MOL0     C28657   8.070   6.388   9.097  0.1168 -0.4321 -0.3200
  954MOL0     O28658   8.045   6.499   9.019  0.5260  0.2344 -0.3632
  954MOL0     C28659   7.938   6.491   8.940  0.6525 -0.5799  0.2300
  954MOL0     C28660   7.938   6.410   8.823  0.6077  0.9930  0.3117
  954MOL0     C28661   7.836   6.419   8.728 -0.0897  0.2990 -0.5149
  954MOL0     C28662   7.743   6.531   8.743  1.1175  0.8575 -0.2259
  954MOL0     O28663   7.638   6.556   8.659 -1.0003  0.0498 -0.9201
  954MOL0     C28664   7.595   6.438   8.592  0.6541 -0.3272 -0.2141
  954MOL0     C28665   7.455   6.470   8.557  0.1887  0.3455 -0.0975
  954MOL0     C28666   7.395   6.375   8.452  0.3339 -0.8606  0.5744
  954MOL0     C28667   7.293   6.444   8.366  0.9583 -0.2393 -0.2365
  954MOL0     C28668   7.205   6.360   8.282  0.8260  0.7564 -0.0670
  954MOL0     C28669   7.079   6.301   8.347 -0.0619  0.4260 -0.4526
  954MOL0     C28670   6.992   6.200   8.271 -0.2377  0.1882  0.5223
  954MOL0     C28671   6.882   6.144   8.363  0.6297 -0.4407  0.1525
  954MOL0     N28672   6.783   6.058   8.290 -0.5260 -0.6655 -0.4892
  954MOL0     C28673   6.685   6.102   8.211  0.0006 -0.3505 -1.0428
  954MOL0     C28674   6.611   5.988   8.174 -0.1800 -0.4666 -0.4108
  954MOL0     C28675   6.492   5.990   8.090  0.8539  0.2053  0.3040
  954MOL0     C28676   6.479   5.842   8.027  0.1560 -0.7966  0.0081
  954MOL0     C28677   6.365   5.844   7.922  0.7198 -0.9767 -0.4201
  954MOL0     C28678   6.284   5.710   7.919 -0.7353 -0.2629 -0.6284
  954MOL0     O28679   6.163   5.726   7.837  0.5694 -0.0009 -0.0677
  954MOL0     C28680   6.070   5.620   7.838 -0.2598 -0.2713  0.5363
  954MOL0     C28681   5.949   5.648   7.774 -0.1487 -0.3296 -0.4428
  954MOL0     C28682   5.843   5.559   7.774  0.2475  0.7722 -0.2519
  954MOL0     C28683   5.711   5.607   7.724  1.0419  0.3420 -0.6870
  954MOL0     C28684   5.865   5.430   7.831 -0.5816 -0.3979 -0.4003
  954MOL0     C28685   5.766   5.323   7.834 -0.7358  0.5411 -0.7755
  954MOL0     O28686   5.826   5.205   7.870  0.7403 -0.0673 -0.0679
  954MOL0     C28687   5.765   5.085   7.908 -0.2252 -0.5223  0.5048
  954MOL0     C28688   5.637   5.047   7.881  0.1532 -0.5693  0.4964
  954MOL0     C28689   5.597   4.915   7.905  0.4811  0.2954  0.0893
  954MOL0     C28690   5.691   4.825   7.951  0.4792  0.5335 -0.6037
  954MOL0     O28691   5.649   4.690   7.968  0.1243  0.1914 -0.1286
  954MOL0     C28692   5.708   4.600   8.053  0.4998  0.7256 -0.4214
  954MOL0     C28693   5.638   4.467   8.032  0.0041 -0.0819  0.0777
  954MOL0     C28694   5.481   4.462   8.029 -0.2956  0.3503  0.4432
  954MOL0     C28695   5.422   4.327   8.053  0.1377 -0.2848  0.7637
  954MOL0     C28696   5.263   4.332   8.042 -1.0202 -0.1760  0.0301
  954MOL0     C28697   5.218   4.197   8.086  0.7130 -0.2080  1.9314
  954MOL0     C28698   5.061   4.181   8.081 -0.7624 -0.0775 -1.0006
  954MOL0     C28699   5.007   4.057   8.144  0.2568 -0.6795  0.1556
  954MOL0    Cl28700   4.831   4.066   8.155  0.2543 -0.2541 -0.2430
  954MOL0     C28701   5.818   4.859   7.987  0.1128 -0.3373 -1.3067
  954MOL0     C28702   5.851   4.992   7.958 -1.1481 -0.1807  0.4380
  954MOL0     O28703   5.647   5.346   7.831 -0.8821  0.2273 -0.3544
  954MOL0     C28704   5.994   5.404   7.887  0.5800 -0.0909  0.7304
  954MOL0     C28705   6.097   5.497   7.898  0.3536 -0.2547  0.0370
  954MOL0     N28706   6.670   5.879   8.242 -0.0577 -0.2289 -1.3329
  954MOL0     N28707   6.773   5.929   8.309  0.1850 -0.3694  0.1429
  954MOL0     C28708   7.756   6.618   8.857  0.5973 -0.4739 -0.5781
  954MOL0     C28709   7.850   6.594   8.956  0.5304  0.8566 -0.6665
  954MOL0     C28710   8.178   6.406   9.198 -0.4085  0.4989  0.1718
  954MOL0     C28711   8.225   6.523   9.247 -0.4425 -0.5763 -0.4892
  954MOL0     C28712   8.332   6.536   9.335 -0.6340  0.0795  0.5395
  954MOL0     C28713   8.398   6.422   9.383 -0.2875 -0.1592  0.4391
  954MOL0     O28714   8.516   6.417   9.448  0.3126  0.2098 -0.4264
  954MOL0     C28715   8.617   6.523   9.422 -0.8193  0.2641 -0.4695
  954MOL0     C28716   8.742   6.509   9.509 -1.4496  0.2535  0.1481
  954MOL0     C28717   8.853   6.613   9.505  0.5516 -0.6302 -0.2756
  954MOL0     C28718   8.977   6.572   9.589 -0.9474  0.6043  0.3507
  954MOL0     C28719   8.969   6.621   9.733  0.9310  0.5797  1.3177
  954MOL0     C28720   8.952   6.664   9.840 -0.2862 -0.4457  0.0523
  954MOL0     C28721   8.345   6.294   9.345  1.0139  0.1900 -0.5618
  954MOL0     C28722   8.239   6.289   9.257  1.3315 -0.1425  0.0124
  954MOL0     H28723   8.026   6.352   8.799  0.7942  1.5637 -0.4193
  954MOL0     H28724   7.839   6.353   8.643 -1.3319  0.2410 -0.5248
  954MOL0     H28725   7.652   6.426   8.499 -0.1182  0.8875 -0.8605
  954MOL0     H28726   7.595   6.343   8.647 -1.4029 -0.8959 -1.1264
  954MOL0     H28727   7.405   6.454   8.653  0.3588  2.3880  0.3747
  954MOL0     H28728   7.444   6.575   8.528  1.5238  0.2743 -0.9134
  954MOL0     H28729   7.472   6.339   8.382 -0.3657 -1.6402  0.1747
  954MOL0     H28730   7.344   6.293   8.504 -4.1761  1.3615  0.1100
  954MOL0     H28731   7.219   6.492   8.431  0.8350 -2.1868  1.1670
  954MOL0     H28732   7.352   6.507   8.299  0.2601  1.1374  0.4254
  954MOL0     H28733   7.182   6.402   8.184  2.0316 -0.9741 -1.1598
  954MOL0     H28734   7.259   6.268   8.254  0.0670  0.6394 -1.1993
  954MOL0     H28735   7.117   6.251   8.436 -0.2844  1.8739  0.4954
  954MOL0     H28736   7.016   6.387   8.371  2.6193  1.5144  3.9751
  954MOL0     H28737   6.938   6.247   8.189 -0.9605 -0.6963  0.4741
  954MOL0     H28738   7.050   6.117   8.230  2.0867  0.5120  2.8439
  954MOL0     H28739   6.844   6.236   8.408  4.0399  1.1590  0.0022
  954MOL0     H28740   6.928   6.083   8.442  2.0067  2.4947  1.7762
  954MOL0     H28741   6.668   6.209   8.200 -1.2145 -0.2455  1.3488
  954MOL0     H28742   6.411   6.013   8.159  0.8099  0.8695  0.0440
  954MOL0     H28743   6.501   6.068   8.013  1.5998 -0.3040 -0.1484
  954MOL0     H28744   6.451   5.783   8.114 -1.0457  1.7873  1.5074
  954MOL0     H28745   6.576   5.808   7.991  0.2661 -1.6468  1.0585
  954MOL0     H28746   6.407   5.868   7.823 -3.0508  0.5635 -1.8688
  954MOL0     H28747   6.304   5.927   7.961  2.5842 -0.0594  0.6971
  954MOL0     H28748   6.263   5.681   8.022  0.3929 -0.0102 -0.3133
  954MOL0     H28749   6.353   5.633   7.884  0.0437 -0.6900  1.6981
  954MOL0     H28750   5.948   5.747   7.730  3.2806  0.2230  0.4097
  954MOL0     H28751   5.726   5.712   7.696  0.1259  0.5357 -0.4811
  954MOL0     H28752   5.683   5.538   7.643  2.9603 -0.3532 -0.7995
  954MOL0     H28753   5.635   5.599   7.802  0.1635  1.7763 -1.3483
  954MOL0     H28754   5.561   5.111   7.839 -1.0386 -1.9072  0.5175
  954MOL0     H28755   5.493   4.888   7.891  0.3490  0.1984  1.1562
  954MOL0     H28756   5.813   4.586   8.026  0.2418 -1.6718 -0.3441
  954MOL0     H28757   5.697   4.630   8.158 -0.6096 -0.9947 -0.0058
  954MOL0     H28758   5.666   4.421   7.938  1.5159 -1.0305  0.9528
  954MOL0     H28759   5.675   4.396   8.107 -3.1655 -1.8207  0.1648
  954MOL0     H28760   5.450   4.498   7.931  0.0809 -0.2742  0.0928
  954MOL0     H28761   5.457   4.541   8.102 -1.2049  2.5874 -2.1060
  954MOL0     H28762   5.465   4.263   7.976 -1.1056 -0.3370  0.0806
  954MOL0     H28763   5.466   4.284   8.143  2.5167 -0.4655 -0.4188
  954MOL0     H28764   5.235   4.345   7.937 -0.1691 -0.9628 -0.3098
  954MOL0     H28765   5.216   4.418   8.091  1.7875  1.6763 -0.2560
  954MOL0     H28766   5.271   4.138   8.011 -0.7877  1.8210 -0.8923
  954MOL0     H28767   5.259   4.167   8.183 -0.2286 -1.0371  2.0992
  954MOL0     H28768   5.035   4.172   7.975  2.5252  2.3152 -2.1905
  954MOL0     H28769   5.011   4.271   8.120 -0.8487 -1.1410  1.5177
  954MOL0     H28770   5.046   4.049   8.246  1.4113 -1.1165 -0.3046
  954MOL0     H28771   5.042   3.964   8.097  0.9571 -0.4076  0.1275
  954MOL0     H28772   5.883   4.791   8.041 -2.9294 -1.9155  0.6292
  954MOL0     H28773   5.956   5.021   7.961 -0.7939 -1.1961 -0.9073
  954MOL0     H28774   6.019   5.304   7.922 -1.0093 -2.4147 -3.9220
  954MOL0     H28775   6.189   5.472   7.950 -0.5694  0.8810  2.3334
  954MOL0     H28776   7.697   6.709   8.867  1.7843  0.5363 -2.2448
  954MOL0     H28777   7.851   6.665   9.039 -1.2589 -1.1629  1.2162
  954MOL0     H28778   8.170   6.600   9.193 -2.4059 -1.4830  0.1288
  954MOL0     H28779   8.377   6.634   9.340  2.4034 -1.1299 -0.4999
  954MOL0     H28780   8.660   6.526   9.322  1.8447  4.6029  0.5175
  954MOL0     H28781   8.571   6.621   9.440 -1.9366 -0.3497  0.1236
  954MOL0     H28782   8.783   6.415   9.469 -0.9541 -0.6081  2.5488
  954MOL0     H28783   8.718   6.483   9.612  1.5857  0.0678  0.9037
  954MOL0     H28784   8.802   6.701   9.545 -4.4328 -2.6790 -1.3533
  954MOL0     H28785   8.887   6.638   9.405  0.3770  0.9517  0.0305
  954MOL0     H28786   9.072   6.611   9.551 -0.8737  0.0914 -0.0011
  954MOL0     H28787   8.988   6.464   9.585 -0.9508  0.5464  1.6687
  954MOL0     H28788   8.932   6.710   9.935 -0.3086 -0.2673 -0.0390
  954MOL0     H28789   8.383   6.203   9.390  0.9038  0.9621  1.1701
  954MOL0     H28790   8.204   6.190   9.231  2.1983  0.1708 -2.6215
  955MOL0     O28791   9.441   4.495   6.578 -0.2648 -0.0657 -0.3767
  955MOL0     C28792   9.404   4.389   6.510  1.3472 -0.2464  0.3837
  955MOL0     O28793   9.276   4.354   6.492  0.4551  0.4220  0.5101
  955MOL0     C28794   9.169   4.439   6.509  0.1080 -0.6482 -0.4796
  955MOL0     C28795   9.049   4.384   6.549  1.1212 -0.0266  0.1892
  955MOL0     C28796   8.930   4.463   6.564  0.6508 -0.6317  0.0900
  955MOL0     C28797   8.939   4.600   6.563 -0.0686  0.0401  0.4578
  955MOL0     O28798   8.824   4.669   6.593  0.3277 -0.9521 -0.1026
  955MOL0     C28799   8.751   4.725   6.483 -0.5201  0.5017 -0.2054
  955MOL0     C28800   8.601   4.710   6.514  0.0233 -0.0547 -0.1636
  955MOL0     C28801   8.511   4.749   6.391  0.3616 -0.1655 -1.0364
  955MOL0     C28802   8.533   4.890   6.331 -0.5558 -0.8041 -0.9392
  955MOL0     C28803   8.465   4.900   6.195 -0.2019 -0.9134 -0.8241
  955MOL0     C28804   8.481   5.038   6.125  0.4124  0.1116  0.3435
  955MOL0     C28805   8.610   5.048   6.053  0.5600  0.2377 -0.6553
  955MOL0     C28806   8.625   4.950   5.940  0.3340 -0.6079 -0.4284
  955MOL0     N28807   8.748   4.938   5.861 -0.6867 -0.5405 -0.6961
  955MOL0     C28808   8.861   4.930   5.940  0.4379 -0.6235  0.9707
  955MOL0     C28809   8.963   4.960   5.852  0.1553 -0.5295  0.1532
  955MOL0     C28810   9.098   4.989   5.906  0.2248  0.6476  0.2378
  955MOL0     C28811   9.199   4.931   5.808 -0.0529  0.0769  0.4608
  955MOL0     C28812   9.198   4.772   5.798 -0.4862  0.5090  0.9228
  955MOL0     C28813   9.307   4.732   5.689  0.3759  0.0934  0.4645
  955MOL0     O28814   9.422   4.701   5.757 -0.1371 -0.0758  0.0898
  955MOL0     C28815   9.546   4.697   5.693  1.2436 -0.9839  0.7141
  955MOL0     C28816   9.671   4.719   5.758  0.0219  0.6984 -0.2459
  955MOL0     C28817   9.796   4.704   5.699  0.3794 -0.1120  0.5718
  955MOL0     C28818   9.913   4.723   5.787  1.2584 -0.1554 -0.3931
  955MOL0     C28819   9.798   4.672   5.560  0.0801  0.7561  0.6142
  955MOL0     C28820   9.929   4.648   5.479  0.1929 -0.1191  0.4955
  955MOL0     O28821  10.045   4.617   5.551 -0.2335 -0.8481  0.4847
  955MOL0     C28822  10.171   4.596   5.483  0.4996  0.8225 -0.1589
  955MOL0     C28823  10.215   4.659   5.365 -0.0797  0.3918 -0.0771
  955MOL0     C28824  10.339   4.615   5.325  0.3661 -0.5087 -0.1284
  955MOL0     C28825  10.416   4.518   5.394 -0.3871  1.0361  0.5490
  955MOL0     O28826  10.536   4.482   5.330  0.2421 -0.8602  0.3940
  955MOL0     C28827  10.629   4.395   5.389 -0.6932 -0.1291 -0.2251
  955MOL0     C28828  10.719   4.355   5.278  0.1424 -0.4297 -0.5049
  955MOL0     C28829  10.825   4.265   5.339 -0.3015 -0.2212 -0.2449
  955MOL0     C28830  10.900   4.188   5.234  0.4967  0.1559 -0.6790
  955MOL0     C28831  10.961   4.274   5.128  0.1251  0.7115  0.4003
  955MOL0     C28832  11.064   4.372   5.185 -0.8785  0.6253  0.7500
  955MOL0     C28833  11.150   4.430   5.077 -0.4998 -0.2334  0.0754
  955MOL0     C28834  11.226   4.547   5.119 -0.4287 -0.1414  0.5264
  955MOL0    Cl28835  11.342   4.602   4.984  0.2610 -0.1310 -0.1213
  955MOL0     C28836  10.373   4.472   5.512  0.3895  0.6260 -0.5187
  955MOL0     C28837  10.247   4.518   5.559 -0.5424  0.4042 -0.0608
  955MOL0     O28838   9.923   4.648   5.361  0.3944 -0.2921  0.4697
  955MOL0     C28839   9.680   4.647   5.492  0.9379 -0.4993 -0.3822
  955MOL0     C28840   9.555   4.659   5.560  0.5116  0.3812  0.3515
  955MOL0     N28841   8.916   4.996   5.730  0.8367 -0.2371  0.6804
  955MOL0     N28842   8.787   4.979   5.736  0.1673  0.4673 -0.4988
  955MOL0     C28843   9.065   4.661   6.536 -0.3476 -0.6366  0.2765
  955MOL0     C28844   9.172   4.580   6.498  0.8568  0.5357  0.5496
  955MOL0     C28845   9.500   4.312   6.435  0.1215 -0.3718 -0.8252
  955MOL0     C28846   9.469   4.180   6.393 -0.1865 -0.8125 -0.0271
  955MOL0     C28847   9.560   4.107   6.315 -0.0599 -0.0576 -0.0399
  955MOL0     C28848   9.691   4.154   6.287 -0.6417  0.4237  0.7640
  955MOL0     O28849   9.765   4.061   6.213 -0.0898 -0.4073 -0.1905
  955MOL0     C28850   9.888   4.101   6.163  1.0401  0.7118 -0.7080
  955MOL0     C28851   9.987   3.997   6.211 -0.3417  0.5455  0.0994
  955MOL0     C28852   9.988   3.867   6.122 -0.3387  0.1275  1.3457
  955MOL0     C28853  10.076   3.759   6.187  0.2922  0.0909 -0.0621
  955MOL0     C28854  10.098   3.657   6.084  0.4866 -0.1505 -0.5603
  955MOL0     C28855  10.118   3.574   6.006 -0.7594  0.2559  0.3161
  955MOL0     C28856   9.724   4.284   6.333  0.2497 -0.3829  0.0347
  955MOL0     C28857   9.620   4.365   6.398 -0.6137 -0.3452  0.3520
  955MOL0     H28858   9.043   4.280   6.579  0.8397 -1.2591 -3.6539
  955MOL0     H28859   8.839   4.413   6.596 -0.1162  0.5108 -0.2365
  955MOL0     H28860   8.778   4.831   6.480 -0.1773  0.4079 -0.4136
  955MOL0     H28861   8.777   4.688   6.384  1.1438  0.7816  0.0900
  955MOL0     H28862   8.581   4.604   6.533 -1.8620  0.6501  2.3434
  955MOL0     H28863   8.576   4.771   6.602  0.5175 -2.1746  1.5428
  955MOL0     H28864   8.539   4.681   6.310 -3.2094 -0.4272 -2.2045
  955MOL0     H28865   8.405   4.731   6.411  0.8357 -0.9760  0.9675
  955MOL0     H28866   8.494   4.970   6.395  2.1748 -0.0250 -0.1115
  955MOL0     H28867   8.639   4.912   6.314 -0.7717  1.8568  0.6135
  955MOL0     H28868   8.511   4.823   6.132  3.0347  0.0164  0.1738
  955MOL0     H28869   8.359   4.886   6.215 -0.8814  1.7076 -2.2417
  955MOL0     H28870   8.397   5.042   6.055 -2.4658 -1.4341  3.4046
  955MOL0     H28871   8.461   5.115   6.200 -0.5991 -1.0273  1.3044
  955MOL0     H28872   8.619   5.152   6.020 -4.7426  1.7854  1.7085
  955MOL0     H28873   8.672   5.021   6.139  1.5935  1.5188 -0.9714
  955MOL0     H28874   8.546   4.974   5.867 -0.8128 -1.7689  0.4019
  955MOL0     H28875   8.618   4.843   5.958 -1.8356 -0.7165 -1.5580
  955MOL0     H28876   8.861   4.926   6.049 -2.9694  3.4584  1.3861
  955MOL0     H28877   9.123   5.095   5.918  2.4607  0.1687  0.2764
  955MOL0     H28878   9.123   4.943   6.002 -0.6439 -0.8714 -0.2330
  955MOL0     H28879   9.300   4.955   5.844 -0.1087  0.8178  0.1444
  955MOL0     H28880   9.188   4.974   5.708  1.5655  1.8344  0.9698
  955MOL0     H28881   9.098   4.728   5.793  0.5958 -2.0448  0.5902
  955MOL0     H28882   9.227   4.715   5.887  0.9928 -1.2602 -0.6128
  955MOL0     H28883   9.317   4.808   5.611  1.7856 -0.8603 -0.3465
  955MOL0     H28884   9.267   4.644   5.637 -2.6421  0.7991  1.3767
  955MOL0     H28885   9.650   4.744   5.861 -4.3258 -0.3797 -0.6790
  955MOL0     H28886   9.925   4.621   5.826 -0.6546  0.1963  1.2510
  955MOL0     H28887  10.007   4.741   5.735  2.5274 -1.3380  1.3836
  955MOL0     H28888   9.895   4.797   5.865  0.2019  0.3629 -1.0981
  955MOL0     H28889  10.159   4.717   5.293 -0.9422  0.6264  0.7513
  955MOL0     H28890  10.372   4.656   5.230  2.1244 -0.4181  0.4874
  955MOL0     H28891  10.689   4.438   5.469  1.4125  0.0226 -1.7856
  955MOL0     H28892  10.579   4.305   5.425  1.0906  0.1617  3.3903
  955MOL0     H28893  10.654   4.302   5.208  1.7137 -3.0094 -0.1272
  955MOL0     H28894  10.757   4.441   5.222 -2.2763  1.2411  0.2162
  955MOL0     H28895  10.782   4.188   5.404 -0.9044  0.5110  0.2421
  955MOL0     H28896  10.893   4.322   5.403 -1.0040 -2.2352  2.4578
  955MOL0     H28897  10.976   4.129   5.285  1.3243  0.9470 -0.9814
  955MOL0     H28898  10.835   4.116   5.183  1.4372  0.2456 -2.0751
  955MOL0     H28899  10.888   4.335   5.072  0.2928 -1.8011 -2.8259
  955MOL0     H28900  11.020   4.221   5.053  2.1448  0.9731  1.7477
  955MOL0     H28901  11.012   4.451   5.240  1.3402  0.7950  2.8064
  955MOL0     H28902  11.137   4.318   5.246  1.0688 -0.3404 -2.2308
  955MOL0     H28903  11.091   4.445   4.986 -1.0733 -3.2680 -0.1798
  955MOL0     H28904  11.231   4.364   5.044  2.4626  3.0173  0.2515
  955MOL0     H28905  11.288   4.527   5.207 -0.0663  1.1106  0.5861
  955MOL0     H28906  11.163   4.635   5.131  0.0640  0.2296  0.4448
  955MOL0     H28907  10.444   4.413   5.569 -1.3769  0.6525  1.8727
  955MOL0     H28908  10.205   4.475   5.649 -0.5920 -1.6979 -1.0371
  955MOL0     H28909   9.670   4.613   5.389 -0.7801 -1.9146  0.2109
  955MOL0     H28910   9.466   4.621   5.512  0.7320 -0.3613  0.5255
  955MOL0     H28911   9.091   4.766   6.537 -1.7657 -0.2171 -1.6741
  955MOL0     H28912   9.260   4.633   6.463  1.3786 -1.5383 -1.5748
  955MOL0     H28913   9.370   4.141   6.412 -0.0137 -1.9134 -1.2278
  955MOL0     H28914   9.533   4.006   6.286 -0.3288  0.1023 -0.3542
  955MOL0     H28915   9.882   4.114   6.054 -0.0769  2.0754 -0.5247
  955MOL0     H28916   9.912   4.197   6.209 -3.1809  0.7282  2.0324
  955MOL0     H28917   9.982   3.972   6.317  0.2940  0.2629  0.0645
  955MOL0     H28918  10.086   4.041   6.197 -1.6851  2.8042 -4.5396
  955MOL0     H28919  10.026   3.910   6.029 -2.0216 -0.1187  0.4938
  955MOL0     H28920   9.883   3.838   6.112  0.3135 -1.6708 -1.0441
  955MOL0     H28921  10.016   3.714   6.266 -2.2039 -4.1179 -3.8840
  955MOL0     H28922  10.171   3.808   6.212  0.4475 -0.2916  0.1001
  955MOL0     H28923  10.144   3.512   5.924  1.2855  2.1711 -0.5935
  955MOL0     H28924   9.818   4.334   6.315 -0.2573  0.4854 -0.2737
  955MOL0     H28925   9.624   4.468   6.429 -2.1995  0.1745 -1.0369
  956MOL0     O28926   1.181  10.347   1.685  0.2454 -0.3551 -0.0250
  956MOL0     C28927   1.167  10.427   1.777 -0.4376 -1.0080  0.2929
  956MOL0     O28928   1.265  10.494   1.841  0.2411 -0.4137  0.0851
  956MOL0     C28929   1.395  10.515   1.788  0.2430 -0.0189  0.6833
  956MOL0     C28930   1.498  10.547   1.877  0.2814  0.6055  0.5104
  956MOL0     C28931   1.630  10.559   1.844 -0.2272  0.4581  0.1733
  956MOL0     C28932   1.670  10.529   1.709  0.3985  1.1813  0.7962
  956MOL0     O28933   1.797  10.508   1.660  0.1265 -0.1733 -0.5468
  956MOL0     C28934   1.912  10.573   1.727  0.4513  0.8683  0.6016
  956MOL0     C28935   1.931  10.715   1.667  1.0715  0.2478 -0.4436
  956MOL0     C28936   1.941  10.715   1.512 -0.0771  0.4021 -0.5113
  956MOL0     C28937   2.080  10.684   1.456  0.0895  1.0592 -0.0863
  956MOL0     C28938   2.195  10.785   1.492 -0.1637  0.5267 -0.2778
  956MOL0     C28939   2.320  10.782   1.395  0.3266 -0.7214  0.3447
  956MOL0     C28940   2.392  10.656   1.441  0.4043  1.1755 -0.6809
  956MOL0     C28941   2.484  10.606   1.328 -0.3607  0.7434  0.7309
  956MOL0     N28942   2.616  10.678   1.353 -0.1772  0.5409  0.3076
  956MOL0     C28943   2.677  10.753   1.247 -0.5680 -0.2570 -0.3071
  956MOL0     C28944   2.793  10.805   1.305  0.1134  0.6605 -0.2689
  956MOL0     C28945   2.896  10.876   1.227 -0.5739 -0.5143  0.2588
  956MOL0     C28946   2.971  10.795   1.118 -0.8026  0.5565  0.4907
  956MOL0     C28947   3.064  10.870   1.021 -0.6597  0.0342  0.4941
  956MOL0     C28948   3.168  10.954   1.097  0.0443  0.1293 -0.0226
  956MOL0     O28949   3.248  11.056   1.029  0.4703 -0.0007 -0.7597
  956MOL0     C28950   3.340  11.017   0.936  1.0755  0.3716 -0.0064
  956MOL0     C28951   3.370  10.888   0.898  0.2823  0.8911 -0.6431
  956MOL0     C28952   3.460  10.865   0.794  0.2692  0.4878  0.1695
  956MOL0     C28953   3.494  10.724   0.760 -0.3886 -0.1869  0.5833
  956MOL0     C28954   3.530  10.978   0.727  0.8210  0.9239  0.0313
  956MOL0     C28955   3.639  10.954   0.627  0.2990  0.3089 -0.5270
  956MOL0     O28956   3.644  11.052   0.535 -0.1220 -0.3890 -0.1066
  956MOL0     C28957   3.759  11.078   0.464  0.6562  0.1490 -0.0006
  956MOL0     C28958   3.856  11.163   0.507  0.0419  0.0386  0.5539
  956MOL0     C28959   3.974  11.179   0.429  1.0259 -1.0813 -0.8172
  956MOL0     C28960   3.977  11.129   0.301  0.3881  0.1228  0.7713
  956MOL0     O28961   4.075  11.180   0.222 -0.9487 -0.3139 -0.0188
  956MOL0     C28962   4.080  11.132   0.088 -0.5319  0.3707 -0.2694
  956MOL0     C28963   4.156  11.232   0.008  0.1625 -0.7204 -0.2986
  956MOL0     C28964   4.308  11.221   0.005 -0.6402 -0.3660  0.3572
  956MOL0     C28965   4.362  11.314  -0.103 -0.5726  0.3030 -0.5901
  956MOL0     C28966   4.517  11.324  -0.103 -0.0527  0.2204 -0.1249
  956MOL0     C28967   4.572  11.188  -0.151 -0.3661  0.7381  0.3928
  956MOL0     C28968   4.723  11.192  -0.185 -0.4304 -1.4216  0.6560
  956MOL0     C28969   4.796  11.063  -0.188  0.5297  0.6355  0.5187
  956MOL0    Cl28970   4.976  11.069  -0.173  0.0397 -0.0131 -0.1719
  956MOL0     C28971   3.873  11.052   0.256  0.0620  0.0794 -0.2950
  956MOL0     C28972   3.763  11.026   0.331 -0.8479 -0.7425  0.2400
  956MOL0     O28973   3.729  10.871   0.652  0.1716  0.2204 -0.2271
  956MOL0     C28974   3.491  11.106   0.768 -0.8359 -0.2693 -0.9825
  956MOL0     C28975   3.408  11.123   0.868 -0.7371 -0.2789  0.3247
  956MOL0     N28976   2.795  10.780   1.438  0.3411 -0.3659  0.3492
  956MOL0     N28977   2.690  10.704   1.469  0.2621  0.0074  0.3271
  956MOL0     C28978   1.567  10.503   1.613  0.4222  0.1644 -0.0690
  956MOL0     C28979   1.431  10.492   1.653 -0.0334  0.9159  0.1542
  956MOL0     C28980   1.027  10.436   1.826 -1.0820  0.8943 -0.1053
  956MOL0     C28981   0.920  10.458   1.734 -0.3298  0.9110 -0.3482
  956MOL0     C28982   0.791  10.465   1.782  0.3551 -0.0308  0.2976
  956MOL0     C28983   0.763  10.456   1.918 -1.0095 -1.0979 -0.8556
  956MOL0     O28984   0.641  10.480   1.973  0.9125 -0.0281 -0.0986
  956MOL0     C28985   0.517  10.500   1.888 -0.2167  0.1122 -0.5422
  956MOL0     C28986   0.406  10.393   1.937  0.3457 -0.4116 -0.7594
  956MOL0     C28987   0.437  10.243   1.917  0.2076 -0.4945  1.0423
  956MOL0     C28988   0.342  10.143   1.991 -0.2195 -0.4797  0.3002
  956MOL0     C28989   0.206  10.157   1.934 -0.3365  0.8349  0.6981
  956MOL0     C28990   0.096  10.173   1.878 -0.9828 -0.3828  0.0608
  956MOL0     C28991   0.872  10.435   2.010 -0.8582  0.8427  0.5392
  956MOL0     C28992   1.002  10.431   1.959 -0.6426  0.3243 -0.7431
  956MOL0     H28993   1.464  10.554   1.980 -0.8411 -0.0045  0.1971
  956MOL0     H28994   1.690  10.565   1.934 -0.2970 -3.0326  0.5999
  956MOL0     H28995   1.885  10.580   1.833 -0.1690  0.5396  0.4688
  956MOL0     H28996   2.001  10.511   1.715 -0.3994 -0.6446  1.7149
  956MOL0     H28997   1.854  10.779   1.710  0.8476 -1.0356  1.1647
  956MOL0     H28998   2.025  10.749   1.711  1.5645 -2.3792  0.7168
  956MOL0     H28999   1.864  10.653   1.465  0.2048  0.7270 -1.4166
  956MOL0     H29000   1.926  10.819   1.481  2.4452  0.8984 -0.3211
  956MOL0     H29001   2.112  10.585   1.488  0.7175  1.7249  1.4676
  956MOL0     H29002   2.065  10.678   1.348 -2.1924  2.1210  0.1078
  956MOL0     H29003   2.153  10.886   1.492  0.7720  0.9462 -1.3929
  956MOL0     H29004   2.230  10.763   1.593  2.8221  1.7789 -0.9385
  956MOL0     H29005   2.297  10.798   1.289  1.2495 -1.6559 -0.0117
  956MOL0     H29006   2.380  10.871   1.416 -0.9280  0.7767 -1.8819
  956MOL0     H29007   2.439  10.671   1.538  0.5194 -0.9988 -0.3632
  956MOL0     H29008   2.319  10.580   1.468  1.8017 -0.1524 -0.5218
  956MOL0     H29009   2.447  10.625   1.226  0.6269  1.8535  0.5572
  956MOL0     H29010   2.508  10.499   1.324  0.9356  1.0361 -0.3997
  956MOL0     H29011   2.641  10.757   1.145  1.6723 -0.8668 -1.1941
  956MOL0     H29012   2.840  10.960   1.185 -0.7312 -0.0876  1.2972
  956MOL0     H29013   2.974  10.926   1.285 -0.3583 -1.9118  1.2279
  956MOL0     H29014   2.885  10.760   1.060 -1.6389  0.6389  1.6443
  956MOL0     H29015   3.027  10.715   1.167 -2.0933 -1.4830 -1.1650
  956MOL0     H29016   2.994  10.930   0.962  0.8229  0.2237 -1.1764
  956MOL0     H29017   3.115  10.804   0.951  0.0701 -0.3266  1.3473
  956MOL0     H29018   3.232  10.899   1.167  1.5305 -0.9454 -2.1222
  956MOL0     H29019   3.109  11.021   1.162  1.1668  1.4598 -0.3205
  956MOL0     H29020   3.338  10.804   0.959 -1.5818  0.4216 -2.1372
  956MOL0     H29021   3.594  10.696   0.797  0.2111  1.5953  0.4040
  956MOL0     H29022   3.421  10.653   0.800  0.9885 -1.5999  0.7002
  956MOL0     H29023   3.503  10.710   0.652 -0.9737  1.2372  0.3333
  956MOL0     H29024   3.843  11.219   0.599 -0.0109 -2.2323  2.0227
  956MOL0     H29025   4.055  11.246   0.460  0.8658 -1.8432  1.3828
  956MOL0     H29026   4.134  11.038   0.090  1.7939  1.4968  4.4688
  956MOL0     H29027   3.977  11.114   0.057  0.4194 -3.2135 -1.7971
  956MOL0     H29028   4.126  11.221  -0.097  0.2196 -0.0924 -0.3838
  956MOL0     H29029   4.130  11.333   0.039  0.1283  0.2567 -3.2400
  956MOL0     H29030   4.337  11.117  -0.017  0.8013 -0.9031  4.0145
  956MOL0     H29031   4.353  11.253   0.100  1.9465 -0.9154 -0.5856
  956MOL0     H29032   4.323  11.274  -0.197 -2.3981  1.8799 -0.5663
  956MOL0     H29033   4.315  11.412  -0.090 -3.9010 -1.1273 -0.7347
  956MOL0     H29034   4.562  11.349  -0.006 -0.6558  0.8203  0.0082
  956MOL0     H29035   4.551  11.404  -0.171  3.9377 -1.4418 -0.3571
  956MOL0     H29036   4.555  11.107  -0.079  0.4061 -1.5544 -1.8816
  956MOL0     H29037   4.520  11.160  -0.243 -1.4070 -3.4544  2.0196
  956MOL0     H29038   4.771  11.253  -0.107  0.0493 -3.7742  2.3233
  956MOL0     H29039   4.730  11.240  -0.283  3.0777 -1.6791  0.6480
  956MOL0     H29040   4.767  11.009  -0.279  0.0961  1.2827  0.2650
  956MOL0     H29041   4.758  11.005  -0.103 -0.2123  1.9062  1.0773
  956MOL0     H29042   3.860  11.001   0.161 -0.9524 -0.7251  0.2554
  956MOL0     H29043   3.684  10.960   0.296  1.1878 -2.4350 -1.4832
  956MOL0     H29044   3.532  11.188   0.710 -1.7899  0.6290 -0.4226
  956MOL0     H29045   3.378  11.220   0.908 -0.0603  0.4127 -0.8010
  956MOL0     H29046   1.592  10.505   1.507 -0.4230 -1.3994 -0.3367
  956MOL0     H29047   1.358  10.487   1.574  0.2751 -0.8470 -0.0583
  956MOL0     H29048   0.940  10.460   1.628  0.9605  0.0891 -0.1504
  956MOL0     H29049   0.711  10.484   1.710  1.0168  0.8126 -0.2301
  956MOL0     H29050   0.491  10.602   1.916  1.9661  0.1772  1.6896
  956MOL0     H29051   0.533  10.486   1.781  2.0598  1.7763 -0.5077
  956MOL0     H29052   0.313  10.430   1.892  0.5178  3.1892  1.4844
  956MOL0     H29053   0.395  10.402   2.045  1.5983 -0.2647 -0.6258
  956MOL0     H29054   0.533  10.208   1.955  1.5010  1.4566 -0.2274
  956MOL0     H29055   0.453  10.224   1.810  2.6077 -1.2353  1.4897
  956MOL0     H29056   0.340  10.172   2.096 -0.1778  0.6285  0.0137
  956MOL0     H29057   0.382  10.042   1.984  1.3953  0.1354  0.1688
  956MOL0     H29058   0.002  10.192   1.830 -1.1106  1.4054  0.9164
  956MOL0     H29059   0.856  10.427   2.117 -2.8633 -2.1521  0.1620
  956MOL0     H29060   1.071  10.423   2.042 -2.0714 -0.8528  0.3957
  957MOL0     O29061   4.395   7.826   1.038  0.1118  0.2810 -0.2511
  957MOL0     C29062   4.286   7.870   1.047  0.5172  0.0863  0.1289
  957MOL0     O29063   4.248   8.000   1.022 -0.5848  0.2560  0.5614
  957MOL0     C29064   4.335   8.104   0.975  0.0940 -0.1202  0.8276
  957MOL0     C29065   4.462   8.118   1.005  0.4442  0.8913  0.1089
  957MOL0     C29066   4.541   8.216   0.954 -0.3805 -1.0452  0.0847
  957MOL0     C29067   4.482   8.319   0.877  0.0402 -0.1881  0.7233
  957MOL0     O29068   4.575   8.417   0.833  0.1734  0.2930 -0.0151
  957MOL0     C29069   4.524   8.540   0.780  0.1547 -0.1317  0.5458
  957MOL0     C29070   4.475   8.524   0.631 -0.0801 -0.6080 -0.9480
  957MOL0     C29071   4.591   8.541   0.528 -0.1253 -0.3141  0.2723
  957MOL0     C29072   4.528   8.565   0.391  1.1788  0.5334  0.9300
  957MOL0     C29073   4.628   8.577   0.272  0.1285 -0.8254 -0.3385
  957MOL0     C29074   4.709   8.465   0.221  0.0277  1.0290 -0.4500
  957MOL0     C29075   4.640   8.358   0.138 -0.0615 -0.9177  0.7716
  957MOL0     C29076   4.614   8.408   0.001  0.1579  0.8375  0.0238
  957MOL0     N29077   4.548   8.313  -0.093  0.0116 -0.2960 -0.8603
  957MOL0     C29078   4.507   8.183  -0.067  0.7813  1.0801  0.4565
  957MOL0     C29079   4.431   8.155  -0.175 -0.3872  0.3513  0.3597
  957MOL0     C29080   4.365   8.026  -0.197 -0.1783  0.0846  0.4971
  957MOL0     C29081   4.303   8.010  -0.337 -0.4745 -0.5056  0.2678
  957MOL0     C29082   4.241   7.860  -0.351  0.0566 -0.1428 -0.3003
  957MOL0     C29083   4.190   7.807  -0.488  0.8389  0.3608 -0.9092
  957MOL0     O29084   4.065   7.867  -0.539  0.0209  0.3631 -0.5677
  957MOL0     C29085   4.061   7.892  -0.671 -0.0423 -0.5980  0.1849
  957MOL0     C29086   3.970   7.817  -0.757 -0.4634 -0.5583 -0.2772
  957MOL0     C29087   3.945   7.836  -0.897  0.3364 -0.1520  0.5561
  957MOL0     C29088   3.860   7.731  -0.961 -0.2342  0.6580  0.1167
  957MOL0     C29089   4.038   7.924  -0.960 -0.4249  0.0556  0.1600
  957MOL0     C29090   4.049   7.933  -1.101  0.2833 -0.6200 -1.0525
  957MOL0     O29091   4.132   7.850  -1.161 -0.3868 -0.6872 -0.6292
  957MOL0     C29092   4.141   7.860  -1.297  0.0358  0.0866  0.6251
  957MOL0     C29093   4.265   7.880  -1.350  0.3702 -0.3286  0.2442
  957MOL0     C29094   4.275   7.907  -1.494  0.6650  0.0309 -0.2068
  957MOL0     C29095   4.161   7.882  -1.577  0.9463 -0.4762  0.7144
  957MOL0     O29096   4.150   7.901  -1.714  0.2843  0.0054 -0.1859
  957MOL0     C29097   4.261   7.948  -1.783 -0.6274  0.1878 -0.4301
  957MOL0     C29098   4.231   7.929  -1.928 -0.3195  0.7741 -0.3610
  957MOL0     C29099   4.200   7.786  -1.967 -0.3478 -0.5480  0.0762
  957MOL0     C29100   4.047   7.751  -1.970  0.5665 -1.0656 -0.8938
  957MOL0     C29101   4.016   7.617  -2.043 -0.6421 -0.6672  0.7401
  957MOL0     C29102   3.867   7.595  -2.075 -0.8052 -0.0526  0.1463
  957MOL0     C29103   3.836   7.449  -2.109 -0.3716 -0.5317 -0.6695
  957MOL0     C29104   3.906   7.412  -2.240  0.0935  0.4945  0.1440
  957MOL0    Cl29105   3.836   7.496  -2.383  0.3486 -0.0158  0.1854
  957MOL0     C29106   4.044   7.832  -1.526 -0.4598 -1.4000  0.0548
  957MOL0     C29107   4.030   7.833  -1.385  0.4756  0.0784  0.2856
  957MOL0     O29108   3.968   8.016  -1.151  0.1427  0.6829  0.0835
  957MOL0     C29109   4.127   8.000  -0.883  0.0709  0.3670 -1.4724
  957MOL0     C29110   4.134   7.989  -0.742  0.7602  0.0298  0.1155
  957MOL0     N29111   4.402   8.278  -0.235  0.5011 -0.1552  0.7684
  957MOL0     N29112   4.479   8.366  -0.194  0.0398 -0.2009  0.3281
  957MOL0     C29113   4.346   8.314   0.864 -0.2939 -0.5110 -0.4293
  957MOL0     C29114   4.269   8.205   0.905 -0.3839 -0.4853  0.2318
  957MOL0     C29115   4.184   7.784   1.101  0.0335 -0.1584  0.6168
  957MOL0     C29116   4.072   7.852   1.157 -1.0408  0.8150  0.2039
  957MOL0     C29117   3.970   7.768   1.216  0.9617 -0.1858 -0.9290
  957MOL0     C29118   3.975   7.627   1.216 -0.8693  0.5085  0.0793
  957MOL0     O29119   3.876   7.544   1.254 -0.3435 -0.1601 -0.2517
  957MOL0     C29120   3.738   7.596   1.264  0.4982  0.3440  0.3119
  957MOL0     C29121   3.624   7.489   1.270  0.2677  0.4930  0.5332
  957MOL0     C29122   3.610   7.409   1.409  0.0137 -0.1518  0.0356
  957MOL0     C29123   3.602   7.497   1.532 -0.8194  0.1075 -0.2921
  957MOL0     C29124   3.520   7.440   1.641  0.5849 -1.3242 -0.0932
  957MOL0     C29125   3.439   7.385   1.707 -0.4697 -0.0276 -0.2016
  957MOL0     C29126   4.091   7.569   1.155 -0.2603 -0.4551  0.7012
  957MOL0     C29127   4.192   7.646   1.093 -0.6769  0.2721 -0.6982
  957MOL0     H29128   4.500   8.046   1.076 -1.6327 -0.3478  0.0426
  957MOL0     H29129   4.641   8.238   0.990 -0.9385 -0.1856  1.1636
  957MOL0     H29130   4.442   8.574   0.844 -0.6044  0.3678 -0.6566
  957MOL0     H29131   4.609   8.608   0.785  2.4039 -2.8759  3.4121
  957MOL0     H29132   4.430   8.425   0.630 -2.3107  0.2665  1.2784
  957MOL0     H29133   4.400   8.602   0.613  0.4493 -0.5850 -3.2917
  957MOL0     H29134   4.654   8.624   0.562 -0.6275  1.1816 -2.1963
  957MOL0     H29135   4.645   8.446   0.531 -0.5943 -0.7735 -2.9043
  957MOL0     H29136   4.466   8.479   0.365 -0.1768  0.6375  3.5097
  957MOL0     H29137   4.466   8.655   0.385  1.2954  0.5509 -0.4760
  957MOL0     H29138   4.590   8.625   0.181 -0.3824  1.3527  0.9337
  957MOL0     H29139   4.699   8.651   0.312 -0.7963 -0.4264  0.6163
  957MOL0     H29140   4.796   8.506   0.169 -1.2798  3.7407 -0.6744
  957MOL0     H29141   4.753   8.425   0.313  2.2919  2.4524 -0.8427
  957MOL0     H29142   4.703   8.269   0.146 -0.4656 -1.2912 -0.1274
  957MOL0     H29143   4.544   8.326   0.181  0.5116  0.4288  3.2495
  957MOL0     H29144   4.703   8.446  -0.051  0.4173 -1.0803 -1.0254
  957MOL0     H29145   4.554   8.499   0.006 -0.4229  0.5576 -1.4007
  957MOL0     H29146   4.533   8.108   0.007  0.3772 -1.0816 -1.4494
  957MOL0     H29147   4.438   7.948  -0.178 -0.5495  0.2793  3.2084
  957MOL0     H29148   4.281   8.017  -0.127 -0.0630  0.8398  0.7413
  957MOL0     H29149   4.380   8.026  -0.413  1.3489 -3.2602  1.3582
  957MOL0     H29150   4.223   8.080  -0.362  0.7487  1.9173  2.6100
  957MOL0     H29151   4.162   7.841  -0.277  1.0534 -0.5517  0.6930
  957MOL0     H29152   4.329   7.799  -0.327 -0.6820 -1.6211 -1.2042
  957MOL0     H29153   4.175   7.699  -0.489 -0.4122  0.5004 -3.1839
  957MOL0     H29154   4.272   7.812  -0.561  0.3226 -0.1000 -1.5351
  957MOL0     H29155   3.921   7.735  -0.706  3.4932 -1.3946  2.6627
  957MOL0     H29156   3.864   7.635  -0.908 -4.5293  0.0543 -0.3360
  957MOL0     H29157   3.756   7.760  -0.977 -1.4582 -2.5702  1.4572
  957MOL0     H29158   3.908   7.718  -1.058 -1.0698 -0.9736 -0.1085
  957MOL0     H29159   4.350   7.897  -1.284 -0.2402 -0.8042  1.1611
  957MOL0     H29160   4.367   7.921  -1.550  0.7201  0.7977  0.0681
  957MOL0     H29161   4.273   8.055  -1.763 -0.1578 -0.1310  1.0918
  957MOL0     H29162   4.349   7.891  -1.753  0.1525  1.0791 -0.9544
  957MOL0     H29163   4.145   7.993  -1.951  0.1486  2.2393  1.6672
  957MOL0     H29164   4.312   7.967  -1.990 -2.4238  1.4312 -2.9128
  957MOL0     H29165   4.241   7.715  -1.894 -0.6688 -2.0153 -1.1109
  957MOL0     H29166   4.243   7.766  -2.066  0.8327  1.1019  0.2235
  957MOL0     H29167   4.026   7.735  -1.864 -0.5831 -1.3413 -1.1599
  957MOL0     H29168   3.983   7.829  -2.012  2.2043 -0.2362 -1.9970
  957MOL0     H29169   4.056   7.538  -1.980  0.2385 -0.7765  0.0630
  957MOL0     H29170   4.064   7.631  -2.140  0.2297  1.5667  1.4238
  957MOL0     H29171   3.810   7.625  -1.987  0.8202  2.5180  0.4092
  957MOL0     H29172   3.835   7.669  -2.148  0.3888  1.0900  0.7317
  957MOL0     H29173   3.728   7.436  -2.116 -0.9181  2.3005  0.9771
  957MOL0     H29174   3.868   7.385  -2.026  4.1906  0.6214 -1.2490
  957MOL0     H29175   3.888   7.304  -2.250 -0.0834  0.4697  0.7188
  957MOL0     H29176   4.014   7.429  -2.241  0.5132 -1.7586 -0.3808
  957MOL0     H29177   3.962   7.806  -1.591  1.0605  0.6453 -2.9060
  957MOL0     H29178   3.935   7.803  -1.342  0.6248  1.2054  1.4589
  957MOL0     H29179   4.201   8.067  -0.926  0.0580  1.1271 -0.3568
  957MOL0     H29180   4.196   8.046  -0.674  1.5604  0.2763 -0.7842
  957MOL0     H29181   4.304   8.394   0.803 -2.4874  1.5315  3.3786
  957MOL0     H29182   4.164   8.196   0.880 -0.5986  0.8745  0.5677
  957MOL0     H29183   4.062   7.960   1.153  1.5739  1.2753  2.6205
  957MOL0     H29184   3.885   7.820   1.260  1.2998  0.8056 -1.4144
  957MOL0     H29185   3.741   7.648   1.360  1.0967 -1.1770  1.1508
  957MOL0     H29186   3.714   7.672   1.188 -1.2206 -2.7634 -2.5324
  957MOL0     H29187   3.650   7.414   1.195  0.7658 -0.4027  1.5769
  957MOL0     H29188   3.529   7.528   1.232 -0.1496 -0.3443  0.6934
  957MOL0     H29189   3.702   7.350   1.412 -0.4320 -0.8969 -0.4814
  957MOL0     H29190   3.538   7.327   1.403 -0.1404 -0.1016  1.0590
  957MOL0     H29191   3.562   7.596   1.510 -0.8053 -0.0994 -1.2958
  957MOL0     H29192   3.701   7.513   1.575 -1.0162  0.6557 -0.0318
  957MOL0     H29193   3.358   7.344   1.764 -0.3102 -2.5627 -1.6652
  957MOL0     H29194   4.097   7.461   1.161 -0.2422 -0.4856  0.2416
  957MOL0     H29195   4.282   7.611   1.043  0.1647  1.4668 -0.0621
  958MOL0     O29196   4.978   7.211  10.373  0.1977 -0.1051 -0.4023
  958MOL0     C29197   5.073   7.276  10.417  0.0196  0.1483  0.2715
  958MOL0     O29198   5.158   7.243  10.519  0.1929  0.0726 -0.5240
  958MOL0     C29199   5.146   7.111  10.562 -0.9719  0.6122 -0.0950
  958MOL0     C29200   5.232   7.010  10.518  0.1540  0.0232 -0.0870
  958MOL0     C29201   5.217   6.876  10.566  0.4623 -1.1133  0.3827
  958MOL0     C29202   5.103   6.838  10.632  0.6368 -0.3151 -0.3127
  958MOL0     O29203   5.068   6.709  10.674  0.0928 -0.5542  0.3686
  958MOL0     C29204   5.122   6.597  10.613  0.0782 -0.5697 -0.1520
  958MOL0     C29205   5.054   6.474  10.654  0.1067 -0.1778 -0.4181
  958MOL0     C29206   4.900   6.487  10.655  0.2336 -0.3362 -0.0288
  958MOL0     C29207   4.828   6.356  10.713 -0.4968 -0.2859 -0.5500
  958MOL0     C29208   4.697   6.382  10.788  0.5086  0.3682 -0.2454
  958MOL0     C29209   4.582   6.435  10.697  0.2225 -0.1297  0.2186
  958MOL0     C29210   4.539   6.342  10.587  0.4790  0.8007 -0.7772
  958MOL0     C29211   4.443   6.413  10.488 -0.3542  0.1049  0.3937
  958MOL0     N29212   4.495   6.528  10.427 -0.2400 -0.5315 -0.5928
  958MOL0     C29213   4.621   6.531  10.376 -0.4370  0.0396  0.8572
  958MOL0     C29214   4.623   6.650  10.311 -1.1887 -0.1752 -0.6121
  958MOL0     C29215   4.741   6.711  10.246  1.1414 -0.5942 -0.1065
  958MOL0     C29216   4.844   6.767  10.347 -0.4853  0.0388 -0.6744
  958MOL0     C29217   4.969   6.841  10.291 -0.0611 -0.6278  0.0632
  958MOL0     C29218   4.938   6.960  10.195 -0.3860  0.5272 -0.9180
  958MOL0     O29219   4.917   6.914  10.065  0.3978 -0.4129  0.1396
  958MOL0     C29220   5.021   6.902   9.980  0.0680 -0.8698  0.4105
  958MOL0     C29221   4.997   6.892   9.843  0.2587 -1.3001  0.6811
  958MOL0     C29222   5.093   6.900   9.743 -0.7750  0.2741 -0.1780
  958MOL0     C29223   5.035   6.878   9.612 -0.3198  0.0633  0.6055
  958MOL0     C29224   5.233   6.913   9.781  0.6261 -0.3970 -0.7063
  958MOL0     C29225   5.346   6.912   9.686 -1.0935 -0.0565 -0.2947
  958MOL0     O29226   5.362   7.029   9.617 -0.0123  0.0836  0.6781
  958MOL0     C29227   5.461   7.061   9.529 -0.2805  1.0306 -0.2668
  958MOL0     C29228   5.537   7.179   9.560 -0.7367 -0.0754 -0.5411
  958MOL0     C29229   5.636   7.216   9.473 -0.4166 -0.0601 -0.8329
  958MOL0     C29230   5.686   7.136   9.367 -0.3459 -0.8434  0.5221
  958MOL0     O29231   5.780   7.176   9.276 -0.3465 -0.1502  0.3912
  958MOL0     C29232   5.833   7.304   9.289  0.2975  0.7540  0.6036
  958MOL0     C29233   5.918   7.314   9.166  0.3408  0.3243  0.3592
  958MOL0     C29234   6.012   7.184   9.158 -1.0555  0.5459  0.7892
  958MOL0     C29235   6.132   7.201   9.069  0.6538 -0.5452 -0.0209
  958MOL0     C29236   6.210   7.071   9.063 -0.0740 -0.6249  0.1838
  958MOL0     C29237   6.331   7.059   9.155 -1.3117  0.5935  0.4660
  958MOL0     C29238   6.420   6.934   9.140  0.2597  0.2882 -0.3382
  958MOL0     C29239   6.553   6.926   9.209 -0.7848  0.6475  0.4395
  958MOL0    Cl29240   6.511   6.916   9.388  0.3052 -0.2031 -0.0234
  958MOL0     C29241   5.619   7.013   9.352  0.2101 -0.9238 -0.3843
  958MOL0     C29242   5.516   6.971   9.432  0.8258  0.2445 -0.1246
  958MOL0     O29243   5.398   6.800   9.666  0.0826 -0.0746 -0.1539
  958MOL0     C29244   5.261   6.924   9.923  1.1430 -0.4231  0.0352
  958MOL0     C29245   5.153   6.919  10.019 -0.5465 -0.2459  0.6043
  958MOL0     N29246   4.504   6.709  10.316 -0.4343 -0.2985 -0.3832
  958MOL0     N29247   4.424   6.629  10.372 -0.4247  0.5066 -1.2295
  958MOL0     C29248   5.007   6.937  10.669 -0.2311  1.2194  0.1063
  958MOL0     C29249   5.030   7.075  10.632 -1.0910 -0.6103  0.3113
  958MOL0     C29250   5.111   7.407  10.343 -0.0222 -0.4318 -0.1224
  958MOL0     C29251   5.212   7.487  10.397 -0.8564  0.3319 -0.9713
  958MOL0     C29252   5.236   7.616  10.346 -0.8487 -0.7775 -0.1154
  958MOL0     C29253   5.152   7.664  10.244  0.1555  0.0223 -0.2688
  958MOL0     O29254   5.156   7.801  10.226 -0.0106 -0.3116 -0.9925
  958MOL0     C29255   5.068   7.852  10.132  0.3357 -0.2671 -0.8209
  958MOL0     C29256   5.089   8.008  10.120  0.5042  0.0076  1.0287
  958MOL0     C29257   5.227   8.060  10.116  0.7231  0.5859  0.3288
  958MOL0     C29258   5.236   8.216  10.130 -0.3312 -0.0261  0.5699
  958MOL0     C29259   5.199   8.257  10.267  0.3111  0.9404  0.6294
  958MOL0     C29260   5.177   8.284  10.380 -0.4930  0.2673 -0.1922
  958MOL0     C29261   5.061   7.577  10.186  0.0497 -1.3438 -0.5637
  958MOL0     C29262   5.035   7.453  10.236 -0.7823 -0.1895 -0.3859
  958MOL0     H29263   5.311   7.020  10.444 -0.0200 -0.1254 -0.2947
  958MOL0     H29264   5.289   6.798  10.541  0.1648 -0.5435 -2.6266
  958MOL0     H29265   5.119   6.610  10.505 -0.9426 -1.9423 -0.3111
  958MOL0     H29266   5.225   6.599  10.649 -0.4171  2.1338  1.3826
  958MOL0     H29267   5.084   6.391  10.590 -0.4099 -0.7126  0.0166
  958MOL0     H29268   5.074   6.439  10.756 -1.5719  0.4890  0.1800
  958MOL0     H29269   4.860   6.577  10.702 -3.8218 -1.5504 -0.7488
  958MOL0     H29270   4.882   6.494  10.548  0.6381  1.8120 -0.0043
  958MOL0     H29271   4.803   6.273  10.646 -1.5148 -1.1426  0.8378
  958MOL0     H29272   4.897   6.321  10.791 -0.8478 -0.2346 -0.2116
  958MOL0     H29273   4.672   6.291  10.844  2.0763  0.2385  0.3168
  958MOL0     H29274   4.720   6.465  10.856  1.6976  1.9799 -2.4718
  958MOL0     H29275   4.494   6.467  10.753 -2.7719 -0.0144 -4.1061
  958MOL0     H29276   4.613   6.530  10.653  0.8279  1.1694  3.1872
  958MOL0     H29277   4.629   6.312  10.533  0.6702 -0.8451  0.3743
  958MOL0     H29278   4.486   6.251  10.619 -0.8357  1.6941 -0.3316
  958MOL0     H29279   4.344   6.426  10.533 -1.0722 -3.3434  0.1157
  958MOL0     H29280   4.426   6.351  10.400 -2.2614  1.9531 -0.6138
  958MOL0     H29281   4.706   6.468  10.401  0.6421  0.7149 -0.9942
  958MOL0     H29282   4.781   6.652  10.163  0.0342  0.4937 -1.4686
  958MOL0     H29283   4.700   6.793  10.186  2.7587 -0.1280 -0.6297
  958MOL0     H29284   4.874   6.682  10.409  2.8884  2.0291  0.7025
  958MOL0     H29285   4.799   6.850  10.402 -1.2777 -0.9323  0.1750
  958MOL0     H29286   5.028   6.762  10.241  0.4415  0.4554 -1.1127
  958MOL0     H29287   5.027   6.884  10.373 -0.5990  1.5410 -0.6219
  958MOL0     H29288   5.010   7.042  10.199 -1.0816  1.1042 -0.0799
  958MOL0     H29289   4.851   7.010  10.239 -0.0674 -0.6993  1.2837
  958MOL0     H29290   4.892   6.888   9.814  0.2715  2.0585 -0.2658
  958MOL0     H29291   4.941   6.932   9.596  0.7069  2.1887  1.4614
  958MOL0     H29292   5.112   6.902   9.538  1.1148  2.4684  2.7289
  958MOL0     H29293   5.017   6.770   9.608  0.4390 -0.1593  2.2998
  958MOL0     H29294   5.518   7.234   9.651 -1.0458  1.9192 -1.7567
  958MOL0     H29295   5.679   7.313   9.497 -0.2173 -0.6959  1.6659
  958MOL0     H29296   5.757   7.382   9.285  1.1738  1.5871 -0.2283
  958MOL0     H29297   5.880   7.311   9.388 -3.4264 -0.1766  2.6183
  958MOL0     H29298   5.863   7.325   9.072  2.7419  3.5103 -0.8678
  958MOL0     H29299   5.986   7.400   9.170  0.7676  0.2721 -3.1017
  958MOL0     H29300   5.942   7.110   9.118 -2.1236  1.2570  1.2952
  958MOL0     H29301   6.037   7.162   9.262 -2.4674  0.7952  1.2026
  958MOL0     H29302   6.104   7.233   8.968  0.2922  0.8564  0.5113
  958MOL0     H29303   6.195   7.283   9.104 -2.3798  0.8479  2.6585
  958MOL0     H29304   6.245   7.062   8.959  2.2654 -1.0463  0.9498
  958MOL0     H29305   6.149   6.982   9.083 -0.4096 -1.0575 -2.3944
  958MOL0     H29306   6.398   7.137   9.119 -1.5092 -0.6130 -2.7902
  958MOL0     H29307   6.303   7.077   9.260  1.4313  0.6991  1.2573
  958MOL0     H29308   6.438   6.937   9.032  0.1869 -0.2116 -0.3661
  958MOL0     H29309   6.361   6.844   9.161  0.9353 -0.1848 -0.4351
  958MOL0     H29310   6.618   7.005   9.169 -2.2887  0.5644 -2.4941
  958MOL0     H29311   6.607   6.839   9.173 -2.4084  1.6432 -5.5416
  958MOL0     H29312   5.670   6.960   9.273 -3.1408 -1.6651 -2.2451
  958MOL0     H29313   5.480   6.868   9.425  1.5391  0.0571 -1.5228
  958MOL0     H29314   5.361   6.929   9.964  1.5139 -2.4027 -0.5323
  958MOL0     H29315   5.181   6.932  10.123 -1.7685 -0.0548  0.9282
  958MOL0     H29316   4.914   6.922  10.723  0.4463 -1.5194  0.6347
  958MOL0     H29317   4.962   7.155  10.660  2.6703  1.9967  2.8877
  958MOL0     H29318   5.271   7.451  10.480 -2.5133  2.1487  1.1165
  958MOL0     H29319   5.303   7.687  10.393  0.2861 -1.0372 -1.2982
  958MOL0     H29320   5.090   7.804  10.036  0.9478  1.0418 -1.3622
  958MOL0     H29321   4.965   7.839  10.165  0.3187  0.6489 -0.5009
  958MOL0     H29322   5.045   8.039  10.216  0.2152  0.2423  0.8217
  958MOL0     H29323   5.032   8.051  10.037  3.0177  0.4599 -0.5722
  958MOL0     H29324   5.263   8.045  10.014 -0.0989 -1.2659  0.2699
  958MOL0     H29325   5.295   8.010  10.186  2.6984  1.7287 -0.6869
  958MOL0     H29326   5.179   8.270  10.053 -0.3767  0.5307  0.9853
  958MOL0     H29327   5.344   8.229  10.117 -0.4910  0.7060 -0.0977
  958MOL0     H29328   5.160   8.300  10.484  0.4504 -0.9155  0.1702
  958MOL0     H29329   5.002   7.614  10.102 -0.5617  4.8837  2.0140
  958MOL0     H29330   4.951   7.398  10.194 -2.9374  3.1972 -0.8566
  959MOL0     O29331   4.435   6.684   7.814 -0.4261  0.2186  0.3584
  959MOL0     C29332   4.406   6.727   7.924  0.6470 -0.0280 -0.2364
  959MOL0     O29333   4.497   6.756   8.018  0.4073 -0.4728  0.2699
  959MOL0     C29334   4.632   6.722   8.009 -0.4045  0.8186 -0.0427
  959MOL0     C29335   4.704   6.789   8.105 -0.0794  0.5022  0.1339
  959MOL0     C29336   4.844   6.787   8.108 -0.2583  0.9049  0.1930
  959MOL0     C29337   4.908   6.714   8.005  0.4240 -0.2813  0.1272
  959MOL0     O29338   5.041   6.714   8.000  0.0884 -0.4818 -0.3322
  959MOL0     C29339   5.102   6.591   8.019  0.3225 -0.8957  0.5457
  959MOL0     C29340   5.127   6.577   8.168  0.5737  0.9777 -0.1379
  959MOL0     C29341   5.247   6.494   8.194  0.7807 -0.5949  0.2599
  959MOL0     C29342   5.384   6.555   8.161 -0.5528 -0.3049 -0.4245
  959MOL0     C29343   5.493   6.447   8.200  0.0739  0.1197  0.0737
  959MOL0     C29344   5.552   6.461   8.338  0.4981 -0.2589  0.8657
  959MOL0     C29345   5.643   6.338   8.376  0.4169 -0.8139 -1.0141
  959MOL0     C29346   5.616   6.208   8.320  0.8822  0.5826  0.3599
  959MOL0     N29347   5.486   6.154   8.359  0.7014  0.2380 -0.1093
  959MOL0     C29348   5.438   6.149   8.485 -0.0366  0.1653  0.1272
  959MOL0     C29349   5.320   6.078   8.484  0.3413 -0.6050 -0.8211
  959MOL0     C29350   5.208   6.047   8.568  0.3284  0.1962  0.0438
  959MOL0     C29351   5.235   6.096   8.708  0.2707  0.0998 -1.0401
  959MOL0     C29352   5.138   6.042   8.822  1.6022 -0.1490 -0.1287
  959MOL0     C29353   4.989   6.089   8.799  0.3922 -0.2493 -0.4858
  959MOL0     O29354   4.923   6.019   8.689 -0.1161 -0.2716  0.6861
  959MOL0     C29355   4.823   6.098   8.636 -0.3469  0.2916  0.0385
  959MOL0     C29356   4.847   6.191   8.537  0.1761 -0.9266 -0.0246
  959MOL0     C29357   4.738   6.271   8.489 -0.0560  0.2160 -0.3646
  959MOL0     C29358   4.781   6.386   8.400 -1.0834 -0.0204  0.0205
  959MOL0     C29359   4.605   6.257   8.541  0.4258 -0.0001 -1.1363
  959MOL0     C29360   4.488   6.343   8.504  1.1290 -1.1186 -0.6810
  959MOL0     O29361   4.382   6.332   8.590 -0.3399 -0.2053 -0.0687
  959MOL0     C29362   4.259   6.401   8.559  0.3381  0.1820  0.0251
  959MOL0     C29363   4.250   6.533   8.586  0.9346 -0.3563  0.2099
  959MOL0     C29364   4.128   6.601   8.565 -0.6930  0.2663  0.1004
  959MOL0     C29365   4.018   6.525   8.525  0.7455 -0.0252 -0.0125
  959MOL0     O29366   3.899   6.581   8.484  0.6848  0.0060  0.3784
  959MOL0     C29367   3.879   6.726   8.496  0.4009  0.0079  0.0994
  959MOL0     C29368   3.750   6.783   8.438  0.4033  0.4769 -0.1606
  959MOL0     C29369   3.743   6.932   8.420  0.4159  1.1372 -0.3048
  959MOL0     C29370   3.598   6.985   8.406  0.4019 -0.1331  0.0802
  959MOL0     C29371   3.602   7.136   8.401 -0.1213 -0.3302  0.7161
  959MOL0     C29372   3.465   7.192   8.419 -0.3995  0.8217  1.0930
  959MOL0     C29373   3.474   7.344   8.458  0.5972 -0.0957 -0.3774
  959MOL0     C29374   3.517   7.427   8.336 -0.7679  0.1659  0.3900
  959MOL0    Cl29375   3.401   7.422   8.209 -0.2519  0.1889 -0.0270
  959MOL0     C29376   4.026   6.388   8.508 -0.5046  0.3223  0.6669
  959MOL0     C29377   4.149   6.324   8.520 -0.0434 -0.0801 -0.3137
  959MOL0     O29378   4.485   6.417   8.399 -0.4972  0.5263 -0.0341
  959MOL0     C29379   4.594   6.153   8.635  0.0405  0.1560  0.4046
  959MOL0     C29380   4.701   6.090   8.693 -0.0918 -0.0365 -0.2753
  959MOL0     N29381   5.295   6.052   8.346 -0.3758 -0.4399  0.4007
  959MOL0     N29382   5.403   6.084   8.278 -0.3365  0.3017  0.4009
  959MOL0     C29383   4.837   6.636   7.920 -0.3785 -0.1041  0.5125
  959MOL0     C29384   4.699   6.635   7.919 -0.2762 -0.2673 -0.2876
  959MOL0     C29385   4.266   6.752   7.950 -0.1612 -0.3204  0.0305
  959MOL0     C29386   4.176   6.776   7.847 -0.2520 -0.2399 -0.6536
  959MOL0     C29387   4.037   6.795   7.871  0.4740  1.0696  0.2021
  959MOL0     C29388   3.986   6.788   8.006 -1.2274  0.2545  0.2411
  959MOL0     O29389   3.853   6.793   8.038 -0.0279 -0.6168  0.2589
  959MOL0     C29390   3.749   6.797   7.935  0.5888  0.2004  0.7967
  959MOL0     C29391   3.619   6.839   7.998 -0.8233  0.8795  0.0502
  959MOL0     C29392   3.501   6.854   7.906 -1.0372  0.0363  0.2389
  959MOL0     C29393   3.365   6.867   7.976  0.6125 -0.6107 -0.2445
  959MOL0     C29394   3.319   7.011   7.967  0.2879 -0.2612 -0.5319
  959MOL0     C29395   3.290   7.129   7.958  0.3659 -0.7266  0.1273
  959MOL0     C29396   4.078   6.771   8.109 -0.8591 -0.4286 -1.1990
  959MOL0     C29397   4.213   6.751   8.078 -0.8380  0.3502  0.5371
  959MOL0     H29398   4.649   6.854   8.173 -0.5416 -0.8425  1.0927
  959MOL0     H29399   4.904   6.845   8.177  1.7694  1.0322 -1.5654
  959MOL0     H29400   5.063   6.497   7.980  1.4823  0.0162 -3.2316
  959MOL0     H29401   5.200   6.584   7.970  0.6316 -1.2147  1.1965
  959MOL0     H29402   5.130   6.676   8.215  1.7881  0.0105  1.9647
  959MOL0     H29403   5.050   6.515   8.216  3.2229 -3.1673 -0.8013
  959MOL0     H29404   5.242   6.475   8.302 -2.8232 -2.1547 -0.0595
  959MOL0     H29405   5.242   6.402   8.134 -2.8210  2.1700 -4.4007
  959MOL0     H29406   5.396   6.572   8.054  1.2872  0.4195 -0.1540
  959MOL0     H29407   5.418   6.649   8.207  5.2454 -1.1889 -2.0857
  959MOL0     H29408   5.448   6.350   8.181  0.8372  0.3054 -3.1788
  959MOL0     H29409   5.570   6.466   8.124 -0.6953 -0.7169 -0.9427
  959MOL0     H29410   5.602   6.558   8.348 -0.7196  0.7118 -1.5240
  959MOL0     H29411   5.482   6.477   8.420 -0.1219  2.1845 -0.0388
  959MOL0     H29412   5.744   6.372   8.354 -0.0916  1.0832 -0.6001
  959MOL0     H29413   5.635   6.332   8.484 -2.1962  1.7027 -0.9391
  959MOL0     H29414   5.688   6.135   8.359 -0.9800 -0.4268  2.1023
  959MOL0     H29415   5.623   6.199   8.211 -2.8338  0.1565  0.0282
  959MOL0     H29416   5.482   6.197   8.572  0.5421  1.6362 -0.9428
  959MOL0     H29417   5.121   6.088   8.515  1.2502 -0.5743 -2.1403
  959MOL0     H29418   5.182   5.941   8.571 -1.6041  0.5114 -2.2243
  959MOL0     H29419   5.240   6.205   8.721  1.2672 -0.1162  0.7442
  959MOL0     H29420   5.337   6.074   8.740 -0.5999 -0.6803  1.4293
  959MOL0     H29421   5.178   6.071   8.919 -0.3039  0.1033  0.6251
  959MOL0     H29422   5.149   5.934   8.806 -0.3791 -0.2711 -1.0247
  959MOL0     H29423   4.977   6.198   8.798 -1.3807 -0.3345  2.2251
  959MOL0     H29424   4.939   6.061   8.892  0.2012  0.9208 -0.2200
  959MOL0     H29425   4.945   6.208   8.495 -0.0343  0.5657  0.0372
  959MOL0     H29426   4.773   6.360   8.294  0.6379  1.5479 -0.5525
  959MOL0     H29427   4.707   6.465   8.418 -0.2654  0.2719  2.5644
  959MOL0     H29428   4.879   6.434   8.409 -0.0144 -1.3805 -3.1643
  959MOL0     H29429   4.345   6.570   8.624  1.1990  0.3997 -1.1400
  959MOL0     H29430   4.127   6.709   8.576  0.4159  0.4299 -1.1090
  959MOL0     H29431   3.883   6.745   8.604  0.3125  1.2860 -0.1061
  959MOL0     H29432   3.952   6.781   8.436  1.2540  0.7538  1.7542
  959MOL0     H29433   3.738   6.739   8.339 -0.7420 -0.5577  0.4127
  959MOL0     H29434   3.668   6.740   8.497 -0.9102 -2.1175 -3.5035
  959MOL0     H29435   3.807   6.948   8.333  2.9737 -1.7703  0.8612
  959MOL0     H29436   3.784   6.961   8.517  0.6230 -0.4440  0.1002
  959MOL0     H29437   3.551   6.947   8.315 -1.8776  1.3130  0.5474
  959MOL0     H29438   3.542   6.949   8.493  0.9344  1.1222  0.9762
  959MOL0     H29439   3.661   7.164   8.313  3.3275 -2.0486  2.2550
  959MOL0     H29440   3.667   7.162   8.485  1.7775  0.7744 -0.9892
  959MOL0     H29441   3.407   7.175   8.328  0.4876  0.7934  0.5218
  959MOL0     H29442   3.424   7.144   8.509 -1.4944 -0.7008 -0.1657
  959MOL0     H29443   3.548   7.357   8.538  0.1638  2.0788 -0.2487
  959MOL0     H29444   3.379   7.369   8.505  2.0506 -1.4650  3.8349
  959MOL0     H29445   3.611   7.383   8.301 -1.6127 -1.4995  0.0808
  959MOL0     H29446   3.534   7.531   8.363  2.9817  0.2424 -1.4643
  959MOL0     H29447   3.933   6.351   8.466 -0.9985  2.8745 -0.6562
  959MOL0     H29448   4.163   6.220   8.492 -2.1081 -0.6368  0.5636
  959MOL0     H29449   4.490   6.140   8.664 -0.8176  1.1969 -1.9525
  959MOL0     H29450   4.683   6.011   8.765 -3.3039  1.7512  1.1330
  959MOL0     H29451   4.879   6.576   7.840  0.6215 -0.1713  1.0714
  959MOL0     H29452   4.647   6.555   7.867 -0.1703  0.4475 -1.5421
  959MOL0     H29453   4.215   6.782   7.747  1.7660  0.7447  0.1368
  959MOL0     H29454   3.963   6.804   7.792  1.3331  1.1887 -0.6057
  959MOL0     H29455   3.780   6.858   7.850  0.2000 -2.1107 -1.1130
  959MOL0     H29456   3.743   6.700   7.883 -1.4427  1.6589 -1.9635
  959MOL0     H29457   3.634   6.932   8.053 -0.0736  1.3865 -0.9885
  959MOL0     H29458   3.591   6.769   8.078 -1.5911  3.1061  1.8258
  959MOL0     H29459   3.496   6.763   7.845  1.8738  0.9848 -1.6088
  959MOL0     H29460   3.521   6.937   7.838 -0.4078 -0.3483 -0.0542
  959MOL0     H29461   3.371   6.830   8.079  0.7824  0.4757  0.1569
  959MOL0     H29462   3.286   6.816   7.920  0.5386 -2.1025  1.1577
  959MOL0     H29463   3.264   7.232   7.950  0.6110 -0.6141  0.7073
  959MOL0     H29464   4.034   6.755   8.208  0.2984 -0.9145 -0.7455
  959MOL0     H29465   4.277   6.740   8.165  2.0508  4.2960 -0.7897
  960MOL0     O29466   8.119   0.740   2.678  0.2928 -0.1061  0.7365
  960MOL0     C29467   8.229   0.785   2.648 -0.6491 -0.7348  0.7686
  960MOL0     O29468   8.249   0.904   2.587 -0.0403  0.2378 -0.2814
  960MOL0     C29469   8.129   0.974   2.567  0.4282  0.2896 -0.3802
  960MOL0     C29470   8.051   0.930   2.464  0.2101  0.0172 -0.4403
  960MOL0     C29471   7.931   0.996   2.439 -0.2244 -0.7199 -0.2733
  960MOL0     C29472   7.902   1.113   2.499  0.0734 -0.8862  0.7740
  960MOL0     O29473   7.797   1.198   2.466  0.3961 -0.0097  0.5591
  960MOL0     C29474   7.733   1.185   2.339  0.2151 -0.0198 -0.1791
  960MOL0     C29475   7.629   1.309   2.316 -0.8967 -0.0020  0.0834
  960MOL0     C29476   7.531   1.342   2.426 -0.8366 -0.4133 -0.5428
  960MOL0     C29477   7.455   1.472   2.386 -0.4817  0.4669 -0.6740
  960MOL0     C29478   7.351   1.520   2.483 -0.1083  1.0404 -0.7172
  960MOL0     C29479   7.225   1.426   2.491 -0.8905 -0.2900  0.6485
  960MOL0     C29480   7.107   1.501   2.557 -1.4849 -1.0799 -0.4589
  960MOL0     C29481   7.142   1.601   2.677  0.6379 -0.6274 -0.5561
  960MOL0     N29482   7.018   1.671   2.707  0.6106 -0.0708  0.6066
  960MOL0     C29483   6.934   1.617   2.807  0.8971 -0.8418 -0.2234
  960MOL0     C29484   6.840   1.717   2.821  0.6467  0.5794 -1.2997
  960MOL0     C29485   6.708   1.719   2.907  0.1215  0.2002 -0.1480
  960MOL0     C29486   6.613   1.613   2.832 -0.2638 -0.0837 -0.2866
  960MOL0     C29487   6.559   1.675   2.706 -0.2056  0.2397  0.9827
  960MOL0     C29488   6.480   1.802   2.722 -0.3570 -0.3126 -0.3230
  960MOL0     O29489   6.357   1.780   2.798 -0.5804  0.0114 -0.1295
  960MOL0     C29490   6.258   1.874   2.784 -0.1789  0.2092 -0.2434
  960MOL0     C29491   6.203   1.888   2.665  0.0296 -0.3481  0.3302
  960MOL0     C29492   6.111   1.987   2.633 -0.4484  0.3140  0.7221
  960MOL0     C29493   6.068   2.002   2.495 -0.2587  0.5000 -0.8697
  960MOL0     C29494   6.061   2.059   2.741  0.0912 -0.1262  0.0205
  960MOL0     C29495   5.945   2.142   2.741  0.8879 -0.2174  0.5922
  960MOL0     O29496   5.936   2.234   2.845  1.2031 -0.4417  0.0836
  960MOL0     C29497   5.830   2.318   2.872  1.2548 -0.3523 -0.1765
  960MOL0     C29498   5.698   2.280   2.845  0.0140 -0.7512 -0.4532
  960MOL0     C29499   5.590   2.360   2.895 -0.1991  0.3177  0.2538
  960MOL0     C29500   5.606   2.486   2.941  0.1866 -0.6435  1.3207
  960MOL0     O29501   5.491   2.548   2.977 -0.3069 -1.0112 -1.1129
  960MOL0     C29502   5.499   2.696   2.976  0.1456  0.6121  0.2279
  960MOL0     C29503   5.356   2.744   2.959 -0.0544  0.4045 -0.7815
  960MOL0     C29504   5.273   2.718   3.087 -0.1566  0.2260  0.2927
  960MOL0     C29505   5.129   2.718   3.047  0.1656 -0.5479 -0.2712
  960MOL0     C29506   5.040   2.733   3.161  1.0076 -1.1810 -0.8331
  960MOL0     C29507   4.882   2.750   3.112 -0.8511  0.5983 -0.3557
  960MOL0     C29508   4.844   2.893   3.067 -0.9898  0.1213 -0.5847
  960MOL0     C29509   4.698   2.893   3.054  0.0902  0.3581  0.1210
  960MOL0    Cl29510   4.616   2.963   3.197 -0.5188  0.1170  0.1381
  960MOL0     C29511   5.740   2.525   2.967 -0.0084  0.7519  0.0253
  960MOL0     C29512   5.854   2.439   2.943  0.3168  0.2340 -0.4135
  960MOL0     O29513   5.847   2.107   2.677 -0.3778  0.3261 -0.2415
  960MOL0     C29514   6.098   2.029   2.878  0.5007  0.1497  1.1065
  960MOL0     C29515   6.195   1.933   2.892 -0.5322 -0.0188 -0.1872
  960MOL0     N29516   6.860   1.826   2.742 -0.6371  0.2094  0.1582
  960MOL0     N29517   6.971   1.796   2.671 -0.0182  0.6179  0.5718
  960MOL0     C29518   7.980   1.156   2.607  0.1604  0.3083 -0.1148
  960MOL0     C29519   8.094   1.082   2.641  0.4026  0.0084  0.0553
  960MOL0     C29520   8.354   0.726   2.702 -0.8185 -0.5368 -0.0859
  960MOL0     C29521   8.491   0.780   2.681  1.0411 -0.6827 -0.2882
  960MOL0     C29522   8.598   0.703   2.734  0.2940 -0.3145  0.7152
  960MOL0     C29523   8.577   0.582   2.797  0.4326 -0.0054 -0.0100
  960MOL0     O29524   8.677   0.499   2.838 -0.4168 -0.3943 -0.2245
  960MOL0     C29525   8.815   0.521   2.805  0.0298 -0.5691  0.3773
  960MOL0     C29526   8.862   0.523   2.655 -0.0308 -0.2996  0.1837
  960MOL0     C29527   9.014   0.561   2.648 -0.1850 -0.1518  0.4757
  960MOL0     C29528   9.043   0.596   2.499  0.7628 -0.6310 -0.9874
  960MOL0     C29529   9.175   0.647   2.468  0.0823 -0.3198 -0.0953
  960MOL0     C29530   9.283   0.703   2.471 -0.1034  0.0572  0.7334
  960MOL0     C29531   8.451   0.541   2.831  0.5271  0.2616  1.2875
  960MOL0     C29532   8.342   0.615   2.782 -0.6398  0.0142  0.2995
  960MOL0     H29533   8.072   0.839   2.409 -1.7764 -0.6940 -0.0977
  960MOL0     H29534   7.873   0.958   2.356 -1.6029  0.2530  0.2053
  960MOL0     H29535   7.813   1.167   2.266 -0.1998 -1.9275 -0.2281
  960MOL0     H29536   7.697   1.081   2.330  1.8545 -0.5961 -0.3134
  960MOL0     H29537   7.688   1.400   2.307 -2.5483  1.0330 -0.8020
  960MOL0     H29538   7.573   1.287   2.225 -0.5939  0.7475 -0.2836
  960MOL0     H29539   7.455   1.264   2.425 -4.2852  2.6314  1.1357
  960MOL0     H29540   7.580   1.343   2.524 -0.6679 -5.4110 -0.2988
  960MOL0     H29541   7.530   1.551   2.380  0.2342  0.0794  1.9799
  960MOL0     H29542   7.411   1.454   2.287 -0.1599  0.2553 -0.7801
  960MOL0     H29543   7.398   1.536   2.580  3.3409  0.4683 -2.1389
  960MOL0     H29544   7.315   1.619   2.454  1.5066  1.6989 -0.5659
  960MOL0     H29545   7.205   1.387   2.391  0.1694  1.0283 -0.1182
  960MOL0     H29546   7.238   1.339   2.556 -1.7379  0.0288  1.2734
  960MOL0     H29547   7.060   1.570   2.486 -1.5247  0.9004  1.3680
  960MOL0     H29548   7.044   1.423   2.601  2.5975 -2.8515  2.8855
  960MOL0     H29549   7.215   1.679   2.653 -0.0157 -0.4831 -2.2375
  960MOL0     H29550   7.182   1.542   2.759  2.4020 -0.7205 -1.4505
  960MOL0     H29551   6.942   1.522   2.859 -0.5553 -0.7081  0.2913
  960MOL0     H29552   6.727   1.678   3.006 -3.4872 -3.8762 -0.8307
  960MOL0     H29553   6.663   1.818   2.915 -1.4670 -0.2072 -2.7147
  960MOL0     H29554   6.532   1.580   2.896 -2.3906  0.4284 -2.5540
  960MOL0     H29555   6.667   1.520   2.811  0.2938  0.1423  0.1174
  960MOL0     H29556   6.495   1.603   2.653 -1.4426  0.7363  1.7597
  960MOL0     H29557   6.638   1.698   2.635 -2.8376  1.9510 -1.6322
  960MOL0     H29558   6.472   1.855   2.626 -1.4871 -2.4430 -1.4912
  960MOL0     H29559   6.530   1.870   2.791  0.9025 -3.8261  2.5064
  960MOL0     H29560   6.242   1.825   2.586  2.2713  0.7331  0.4877
  960MOL0     H29561   5.973   1.952   2.475 -0.4567  0.0164  1.0725
  960MOL0     H29562   6.068   2.105   2.459 -0.3542  0.9304  0.3330
  960MOL0     H29563   6.128   1.938   2.429 -0.0305 -0.2756  0.0627
  960MOL0     H29564   5.674   2.183   2.803 -0.0829 -0.8309 -0.2160
  960MOL0     H29565   5.491   2.318   2.881  0.6543 -1.5409 -0.6007
  960MOL0     H29566   5.538   2.733   3.071  1.9275  0.5310 -0.4327
  960MOL0     H29567   5.557   2.740   2.894 -0.5899 -0.5900 -0.9843
  960MOL0     H29568   5.351   2.852   2.945  0.6670  0.7268  1.1218
  960MOL0     H29569   5.309   2.687   2.879 -2.1227  0.0804  0.5914
  960MOL0     H29570   5.291   2.796   3.162 -2.7307  1.4265 -0.2126
  960MOL0     H29571   5.289   2.616   3.123 -2.1337 -1.1996 -2.4630
  960MOL0     H29572   5.113   2.805   2.983 -0.0217 -0.4683 -0.1166
  960MOL0     H29573   5.100   2.630   2.989 -0.7838  1.0088 -2.2427
  960MOL0     H29574   5.062   2.827   3.213 -2.0600  0.3656 -2.1273
  960MOL0     H29575   5.054   2.646   3.227  1.3347 -1.3164 -1.0760
  960MOL0     H29576   4.871   2.678   3.031 -1.3623 -1.4148  1.4177
  960MOL0     H29577   4.817   2.728   3.197 -3.0720  1.5033 -1.7500
  960MOL0     H29578   4.892   2.914   2.971  0.3433 -3.3216 -0.8392
  960MOL0     H29579   4.878   2.969   3.138  1.0875 -2.8533  1.8624
  960MOL0     H29580   4.662   2.791   3.038 -0.7626 -0.1681  4.1516
  960MOL0     H29581   4.671   2.950   2.965  0.6558  4.2307  2.2049
  960MOL0     H29582   5.762   2.621   3.013  2.8847  0.8739 -1.3864
  960MOL0     H29583   5.957   2.468   2.962  0.3417 -0.6981  1.0785
  960MOL0     H29584   6.041   2.071   2.960 -1.7804  2.0695 -1.2982
  960MOL0     H29585   6.225   1.897   2.990  0.8857 -1.2133 -1.0262
  960MOL0     H29586   7.977   1.253   2.656  0.2464 -0.7124  2.0406
  960MOL0     H29587   8.160   1.107   2.724  1.3950 -0.8783 -0.4398
  960MOL0     H29588   8.511   0.873   2.628 -0.9168  0.5545  1.0376
  960MOL0     H29589   8.697   0.744   2.719  0.4593 -0.9820 -0.0954
  960MOL0     H29590   8.831   0.622   2.845 -0.4993 -0.4228  0.2312
  960MOL0     H29591   8.876   0.443   2.851  0.5859  0.1376  0.8772
  960MOL0     H29592   8.808   0.595   2.592 -1.3811 -2.5853 -1.4245
  960MOL0     H29593   8.846   0.419   2.627  1.3624 -1.3685  3.0357
  960MOL0     H29594   9.083   0.481   2.674 -0.2698 -1.2644 -2.3419
  960MOL0     H29595   9.047   0.652   2.699 -0.4084 -2.0890  4.4842
  960MOL0     H29596   8.979   0.682   2.479  1.0001 -0.2437 -0.1530
  960MOL0     H29597   9.028   0.505   2.440 -0.8264 -1.0306 -0.0508
  960MOL0     H29598   9.380   0.741   2.493 -0.0159 -0.9763  2.2413
  960MOL0     H29599   8.433   0.447   2.882 -0.3096  1.3933  3.1993
  960MOL0     H29600   8.244   0.586   2.818 -0.9145  0.2664 -0.2305
  961MOL0     O29601   7.347   9.033   7.615 -0.8135 -0.0518 -0.3086
  961MOL0     C29602   7.241   8.974   7.571 -0.7435 -0.4589 -0.4539
  961MOL0     O29603   7.249   8.877   7.484  0.5127  0.1693 -0.1214
  961MOL0     C29604   7.360   8.826   7.429 -0.5545 -0.4790 -0.4438
  961MOL0     C29605   7.469   8.908   7.386  0.0681  0.7892  0.2527
  961MOL0     C29606   7.582   8.851   7.337 -0.3240  0.4052  0.2595
  961MOL0     C29607   7.588   8.707   7.320 -0.2987  0.0865  0.9492
  961MOL0     O29608   7.694   8.635   7.253  0.9027  0.0323 -0.4570
  961MOL0     C29609   7.794   8.714   7.193 -0.2438 -0.8503 -0.2138
  961MOL0     C29610   7.898   8.615   7.156 -0.5822 -0.7948  0.1040
  961MOL0     C29611   8.010   8.682   7.087 -1.6545  0.1261 -0.6900
  961MOL0     C29612   8.109   8.708   7.209 -0.3415 -0.5433  0.4627
  961MOL0     C29613   8.232   8.799   7.173  0.3557 -0.6786  0.3317
  961MOL0     C29614   8.215   8.938   7.236  0.1464  0.1972 -0.4903
  961MOL0     C29615   8.316   9.031   7.186  0.2924  0.4163  0.5612
  961MOL0     C29616   8.367   9.146   7.285 -0.3374 -0.3675 -0.5454
  961MOL0     N29617   8.454   9.255   7.222 -0.2158  0.4818 -0.1559
  961MOL0     C29618   8.585   9.242   7.183  0.1534  0.0255  0.7090
  961MOL0     C29619   8.622   9.357   7.129  0.0785 -0.3243  0.2747
  961MOL0     C29620   8.761   9.398   7.081  0.2883  0.0932 -0.2083
  961MOL0     C29621   8.808   9.363   6.939  0.3780 -0.2679 -0.4703
  961MOL0     C29622   8.933   9.427   6.890 -0.4362 -0.3724  0.4050
  961MOL0     C29623   8.949   9.414   6.742  0.0500 -0.3104 -0.1027
  961MOL0     O29624   8.914   9.285   6.694 -0.0398  0.2067 -0.1587
  961MOL0     C29625   8.856   9.275   6.567 -0.6340 -1.2627 -0.1833
  961MOL0     C29626   8.753   9.197   6.544 -0.1624 -0.2055  0.0153
  961MOL0     C29627   8.687   9.195   6.417  0.4546  1.0791 -0.7219
  961MOL0     C29628   8.562   9.118   6.416  0.0450 -0.4019 -0.8079
  961MOL0     C29629   8.733   9.273   6.308  0.3322  0.3157  0.2634
  961MOL0     C29630   8.667   9.281   6.175 -0.7918  0.3084  0.6286
  961MOL0     O29631   8.736   9.348   6.077 -0.9095 -0.8948  0.5962
  961MOL0     C29632   8.672   9.361   5.959  0.9441 -0.9341  0.0100
  961MOL0     C29633   8.580   9.473   5.939 -1.0736 -0.6617  0.6653
  961MOL0     C29634   8.529   9.497   5.807  0.3602 -0.4914 -0.0027
  961MOL0     C29635   8.551   9.394   5.707  0.5331 -0.6189 -0.4189
  961MOL0     O29636   8.496   9.407   5.582 -0.3008 -0.2477  0.6783
  961MOL0     C29637   8.388   9.494   5.540 -0.1018  0.1691  0.4426
  961MOL0     C29638   8.427   9.633   5.509 -0.2742 -1.3385  0.0954
  961MOL0     C29639   8.436   9.655   5.359 -0.1700  0.5521  0.3859
  961MOL0     C29640   8.477   9.800   5.332  0.4223 -0.1049 -0.0639
  961MOL0     C29641   8.448   9.829   5.181 -0.0407  0.4281 -0.5653
  961MOL0     C29642   8.510   9.970   5.149  0.2802 -0.7852  1.0603
  961MOL0     C29643   8.448  10.042   5.015 -0.3358  0.3891  0.1082
  961MOL0     C29644   8.492   9.965   4.888  0.1460 -0.7363  0.7150
  961MOL0    Cl29645   8.668   9.963   4.865 -0.4272  0.1250 -0.2240
  961MOL0     C29646   8.629   9.286   5.734  0.1205 -0.3699  0.2071
  961MOL0     C29647   8.684   9.266   5.863  0.2559  0.8552  0.3852
  961MOL0     O29648   8.547   9.250   6.163  0.4498 -0.0382  0.1566
  961MOL0     C29649   8.852   9.340   6.332 -0.8424  0.6903  0.1640
  961MOL0     C29650   8.910   9.357   6.462 -0.2476 -0.0579  0.0954
  961MOL0     N29651   8.523   9.449   7.131 -0.6708 -0.3292  0.2009
  961MOL0     N29652   8.421   9.377   7.169  0.2224  0.5838  0.7030
  961MOL0     C29653   7.471   8.638   7.340  0.1286 -1.0085 -1.5576
  961MOL0     C29654   7.365   8.694   7.399 -0.4193 -0.4353 -0.2165
  961MOL0     C29655   7.127   9.052   7.601  0.5316  0.5491 -0.5253
  961MOL0     C29656   7.105   9.114   7.723 -0.8808  0.1198  0.9536
  961MOL0     C29657   6.987   9.181   7.750  0.0718  0.1598 -0.1273
  961MOL0     C29658   6.877   9.181   7.665  0.0117  1.1512 -0.5379
  961MOL0     O29659   6.754   9.231   7.714  0.3561  0.1483  0.2365
  961MOL0     C29660   6.651   9.257   7.622  0.5026 -0.0423  0.2671
  961MOL0     C29661   6.551   9.347   7.697 -0.5699 -0.2511  0.0724
  961MOL0     C29662   6.612   9.482   7.731 -0.2662 -0.7577  0.1825
  961MOL0     C29663   6.626   9.589   7.621  0.7848 -0.3163  0.1664
  961MOL0     C29664   6.545   9.706   7.632  0.2156 -0.4787  1.1324
  961MOL0     C29665   6.491   9.808   7.667  0.1780  0.2670  0.4898
  961MOL0     C29666   6.896   9.116   7.545  0.3691 -0.0805 -0.4138
  961MOL0     C29667   7.025   9.055   7.514  0.1130 -0.1464 -0.0404
  961MOL0     H29668   7.441   9.013   7.387 -2.0367  0.2567  0.7565
  961MOL0     H29669   7.661   8.917   7.302 -0.0172 -0.8072 -1.4698
  961MOL0     H29670   7.759   8.775   7.109  1.2800 -2.1406 -1.8635
  961MOL0     H29671   7.831   8.780   7.272 -1.3422 -1.8784  1.2144
  961MOL0     H29672   7.918   8.551   7.243  1.2591  1.0365  1.1069
  961MOL0     H29673   7.851   8.551   7.080 -1.1222  1.3371 -1.4572
  961MOL0     H29674   8.053   8.617   7.010 -1.1903  0.7079 -0.9330
  961MOL0     H29675   7.975   8.775   7.040  0.4157  0.6136 -1.3791
  961MOL0     H29676   8.059   8.738   7.302 -0.0326 -0.2867  0.5493
  961MOL0     H29677   8.147   8.609   7.233 -1.6847 -1.0913  0.3898
  961MOL0     H29678   8.328   8.754   7.201  1.5264  1.1995 -0.4868
  961MOL0     H29679   8.228   8.818   7.065 -0.8896 -0.0039  0.4812
  961MOL0     H29680   8.119   8.987   7.223 -0.0374 -0.0759 -0.1768
  961MOL0     H29681   8.237   8.925   7.342  0.4801  2.5721 -0.2203
  961MOL0     H29682   8.400   8.968   7.156 -2.5380 -1.7853 -3.7718
  961MOL0     H29683   8.281   9.072   7.091 -0.1827 -0.4149  0.3586
  961MOL0     H29684   8.411   9.108   7.377 -0.9353  2.0049  0.8072
  961MOL0     H29685   8.287   9.208   7.326  2.0220  2.5653 -0.0242
  961MOL0     H29686   8.653   9.159   7.198  1.6020  1.2955  1.4513
  961MOL0     H29687   8.768   9.507   7.092  2.8705 -0.1718  1.5775
  961MOL0     H29688   8.831   9.350   7.150 -0.3272 -0.8294 -0.2119
  961MOL0     H29689   8.721   9.377   6.876  1.6239 -0.9799 -2.4386
  961MOL0     H29690   8.822   9.256   6.925  0.0039 -0.1382 -2.0016
  961MOL0     H29691   9.022   9.370   6.918 -0.9019 -1.9545 -1.1615
  961MOL0     H29692   8.944   9.529   6.930  0.3349 -0.9011  1.5953
  961MOL0     H29693   9.052   9.432   6.709  0.2664 -0.0300  0.6857
  961MOL0     H29694   8.881   9.491   6.703 -1.1712  0.3132  2.9757
  961MOL0     H29695   8.708   9.141   6.625  0.2250 -0.2395  0.2061
  961MOL0     H29696   8.539   9.060   6.325 -5.3202  3.2821 -2.3114
  961MOL0     H29697   8.571   9.051   6.501  0.4278  1.9465  1.1089
  961MOL0     H29698   8.475   9.182   6.435 -1.5095 -2.1664 -1.6303
  961MOL0     H29699   8.569   9.550   6.015 -1.5811  2.2542 -2.1420
  961MOL0     H29700   8.458   9.575   5.783 -1.8862 -2.4248 -0.0503
  961MOL0     H29701   8.346   9.439   5.456 -2.0729 -0.3374  1.6870
  961MOL0     H29702   8.306   9.492   5.613  1.2573  0.7506  2.0446
  961MOL0     H29703   8.358   9.696   5.565  1.4025  0.8615 -0.1671
  961MOL0     H29704   8.527   9.658   5.543 -1.6383  1.5746  2.4073
  961MOL0     H29705   8.344   9.615   5.315  1.3349  0.1786 -2.6554
  961MOL0     H29706   8.513   9.583   5.329 -0.5456 -1.2203  3.2908
  961MOL0     H29707   8.434   9.875   5.399  2.6586  1.2223  0.0056
  961MOL0     H29708   8.578   9.831   5.362 -0.2327  2.6293 -0.4349
  961MOL0     H29709   8.341   9.828   5.159  0.1713 -0.5282 -1.6667
  961MOL0     H29710   8.504   9.750   5.129  0.5101  2.5763 -3.5248
  961MOL0     H29711   8.484  10.045   5.224 -0.5299 -0.4642  0.4846
  961MOL0     H29712   8.618   9.965   5.138  0.5584  1.9728  1.9334
  961MOL0     H29713   8.482  10.143   4.990  1.7953  0.3215  2.3199
  961MOL0     H29714   8.340  10.040   5.030 -0.8068 -1.2386 -2.8023
  961MOL0     H29715   8.451  10.023   4.805 -1.0757 -1.4629  0.7822
  961MOL0     H29716   8.453   9.863   4.879 -2.9938  0.2920  1.3838
  961MOL0     H29717   8.633   9.201   5.667  0.8595 -2.3727  2.6367
  961MOL0     H29718   8.741   9.175   5.879 -0.7119 -0.2636 -1.9812
  961MOL0     H29719   8.887   9.396   6.246 -1.7022  2.1616  0.7379
  961MOL0     H29720   8.992   9.426   6.476 -2.0395  1.9851  1.0914
  961MOL0     H29721   7.468   8.533   7.310  0.6147 -2.2557  2.2383
  961MOL0     H29722   7.278   8.630   7.410 -0.3270 -0.2329  2.1188
  961MOL0     H29723   7.190   9.097   7.789 -1.1683 -4.0282  0.5275
  961MOL0     H29724   6.976   9.228   7.847  5.2075 -2.0484  1.8511
  961MOL0     H29725   6.680   9.315   7.535 -0.8954 -0.4042 -0.4734
  961MOL0     H29726   6.605   9.163   7.589  1.8294  0.0909 -2.1071
  961MOL0     H29727   6.508   9.302   7.787 -6.0125  1.5514 -1.2720
  961MOL0     H29728   6.466   9.375   7.635 -0.0154  3.9224  0.9078
  961MOL0     H29729   6.711   9.459   7.771  0.5076 -0.3232 -1.3716
  961MOL0     H29730   6.550   9.512   7.816  0.0232 -0.8107  0.4126
  961MOL0     H29731   6.606   9.547   7.522 -0.4974 -0.6672  0.5553
  961MOL0     H29732   6.728   9.630   7.628  0.5252  0.1963  1.0326
  961MOL0     H29733   6.456   9.905   7.696  0.8598  1.3439 -1.9666
  961MOL0     H29734   6.815   9.114   7.472 -1.3312 -0.8720  1.4050
  961MOL0     H29735   7.038   8.997   7.423 -1.5315  1.2559 -1.2408
  962MOL0     O29736   7.995   1.458   6.896 -0.0196 -0.4158 -0.6703
  962MOL0     C29737   8.061   1.483   6.995  0.4165 -0.0004  0.6250
  962MOL0     O29738   8.092   1.395   7.102 -0.0901  0.3765 -0.1392
  962MOL0     C29739   8.203   1.318   7.090 -0.5072  0.1701 -0.0144
  962MOL0     C29740   8.271   1.287   7.205  0.1579 -0.3622  0.0504
  962MOL0     C29741   8.391   1.220   7.208 -0.0644 -0.4684  0.1029
  962MOL0     C29742   8.459   1.190   7.090 -1.2925  0.5059 -0.4772
  962MOL0     O29743   8.584   1.143   7.106 -0.3280 -0.1703 -0.5129
  962MOL0     C29744   8.664   1.108   6.991 -0.2562  0.0538  1.0993
  962MOL0     C29745   8.763   0.991   7.013  0.4742  0.3420  0.4982
  962MOL0     C29746   8.851   0.975   6.893  0.1317 -0.5682 -0.2147
  962MOL0     C29747   8.951   0.859   6.897  0.2314 -0.3475 -0.6001
  962MOL0     C29748   9.073   0.883   6.989  0.0720 -0.3917  0.1582
  962MOL0     C29749   9.181   0.781   6.969 -1.3404  0.0100  0.2284
  962MOL0     C29750   9.315   0.806   7.043 -0.9261 -0.0092  0.5451
  962MOL0     C29751   9.422   0.691   7.031  0.1255 -0.2563 -0.5407
  962MOL0     N29752   9.432   0.623   6.898  0.5088 -0.9052 -0.5633
  962MOL0     C29753   9.357   0.532   6.847 -0.1985  0.5696  0.2572
  962MOL0     C29754   9.411   0.497   6.726  0.3983 -0.1323  0.1529
  962MOL0     C29755   9.376   0.380   6.636  0.5723 -0.0824 -1.1347
  962MOL0     C29756   9.241   0.422   6.577  0.3097 -0.1329  0.0546
  962MOL0     C29757   9.177   0.314   6.482  0.2788  0.2353 -1.2028
  962MOL0     C29758   9.041   0.343   6.431 -0.0723 -0.0616 -0.1722
  962MOL0     O29759   9.034   0.487   6.398  0.8388 -0.1389  0.2295
  962MOL0     C29760   8.934   0.532   6.318 -0.8255 -0.2500  0.8101
  962MOL0     C29761   8.841   0.457   6.245  0.0139 -0.0680 -0.6126
  962MOL0     C29762   8.755   0.517   6.154  0.2142  0.0160 -1.5405
  962MOL0     C29763   8.673   0.442   6.063  0.4048  0.6373 -0.6093
  962MOL0     C29764   8.754   0.653   6.145 -0.2473 -0.1208 -0.7932
  962MOL0     C29765   8.672   0.725   6.039 -0.0620 -0.1607 -0.2984
  962MOL0     O29766   8.541   0.721   6.049 -0.9065  0.4013  0.0079
  962MOL0     C29767   8.465   0.735   5.938  1.5072 -0.1371 -0.8377
  962MOL0     C29768   8.484   0.664   5.822 -0.4598 -0.0149 -0.6080
  962MOL0     C29769   8.389   0.668   5.713 -0.1236 -0.2235 -0.1535
  962MOL0     C29770   8.268   0.740   5.743  0.3514  0.2133  0.4856
  962MOL0     O29771   8.174   0.750   5.644  1.1043 -0.4174  0.0054
  962MOL0     C29772   8.091   0.627   5.638 -0.5383 -0.1144  0.2418
  962MOL0     C29773   7.946   0.650   5.629  0.3133 -0.0231  0.8626
  962MOL0     C29774   7.899   0.748   5.739 -0.1678  0.2870  0.8669
  962MOL0     C29775   7.756   0.772   5.768 -0.0894 -0.3648  0.1202
  962MOL0     C29776   7.685   0.850   5.658  0.5335  0.3611 -0.1507
  962MOL0     C29777   7.535   0.835   5.651 -0.4489 -0.4760 -0.1187
  962MOL0     C29778   7.463   0.925   5.539 -0.3993 -0.1299 -0.3152
  962MOL0     C29779   7.468   0.867   5.400 -0.2438 -0.0650  0.9656
  962MOL0    Cl29780   7.364   0.714   5.398  0.1425  0.0495 -0.0630
  962MOL0     C29781   8.249   0.804   5.858  0.0638  0.0820 -0.0376
  962MOL0     C29782   8.349   0.811   5.950  0.7891 -0.0102 -0.3573
  962MOL0     O29783   8.734   0.777   5.951  0.3366 -0.7455 -0.0701
  962MOL0     C29784   8.837   0.738   6.227 -0.1669 -0.2041 -0.1539
  962MOL0     C29785   8.932   0.672   6.307  0.2943 -0.4571  0.5049
  962MOL0     N29786   9.517   0.586   6.710 -1.0481  0.4238 -0.0834
  962MOL0     N29787   9.522   0.664   6.806 -0.4777 -1.3923 -0.4575
  962MOL0     C29788   8.389   1.207   6.973 -0.1922  0.8471  0.2493
  962MOL0     C29789   8.263   1.268   6.972  0.0897 -0.6263 -0.9465
  962MOL0     C29790   8.088   1.614   7.016 -0.2240 -0.7299 -0.5168
  962MOL0     C29791   8.031   1.723   6.941  0.5867  0.6686  0.2254
  962MOL0     C29792   8.077   1.849   6.956 -0.3322 -0.3992  0.8897
  962MOL0     C29793   8.177   1.882   7.041  0.5288 -0.3399 -1.1158
  962MOL0     O29794   8.202   2.023   7.043 -0.0129 -0.2648 -0.9357
  962MOL0     C29795   8.317   2.075   7.114  0.2424  0.4572 -0.0905
  962MOL0     C29796   8.431   2.090   7.025 -0.8974 -0.0375 -0.4762
  962MOL0     C29797   8.407   2.207   6.923  0.5512 -0.0276 -0.8366
  962MOL0     C29798   8.527   2.231   6.831  0.1234  0.7266 -0.1933
  962MOL0     C29799   8.654   2.243   6.899  0.8248  0.0890  0.9772
  962MOL0     C29800   8.759   2.255   6.967 -0.3530  0.1433 -0.0086
  962MOL0     C29801   8.238   1.788   7.112  0.0193 -0.2090  0.0477
  962MOL0     C29802   8.193   1.654   7.113 -0.0351  0.0112 -0.0663
  962MOL0     H29803   8.240   1.313   7.306  1.8646  1.7810  0.1075
  962MOL0     H29804   8.432   1.198   7.306  0.0125  0.8447  0.3794
  962MOL0     H29805   8.607   1.086   6.900 -1.7931  0.5322  1.9238
  962MOL0     H29806   8.716   1.200   6.964 -0.0832 -0.5351 -0.7595
  962MOL0     H29807   8.825   1.011   7.101  0.1615  3.3260  0.1464
  962MOL0     H29808   8.701   0.902   7.021  1.8753 -0.7953 -0.6329
  962MOL0     H29809   8.776   0.956   6.817 -0.5669  1.6465 -0.1372
  962MOL0     H29810   8.906   1.064   6.862  0.2563 -0.8864 -0.9299
  962MOL0     H29811   8.901   0.770   6.935  0.6833 -1.9006 -3.3400
  962MOL0     H29812   8.987   0.835   6.796  2.2053  2.2950 -0.6624
  962MOL0     H29813   9.113   0.978   6.953 -1.7338  0.7016  0.8995
  962MOL0     H29814   9.039   0.897   7.092 -0.5299 -0.5241 -0.0150
  962MOL0     H29815   9.143   0.692   7.020 -3.8131  1.7962  1.7416
  962MOL0     H29816   9.205   0.768   6.863 -2.8691  1.7868 -0.3884
  962MOL0     H29817   9.367   0.893   7.003  1.5552 -1.6826 -0.1235
  962MOL0     H29818   9.303   0.819   7.151 -0.1928 -0.9388  0.7586
  962MOL0     H29819   9.412   0.616   7.111 -0.5913  0.9561  0.5518
  962MOL0     H29820   9.517   0.741   7.050  1.6225 -2.3854 -2.0277
  962MOL0     H29821   9.268   0.488   6.893 -0.0442 -0.1639 -0.1254
  962MOL0     H29822   9.451   0.362   6.558  1.0378  2.1729 -1.2808
  962MOL0     H29823   9.372   0.287   6.694  2.9061 -0.9041 -2.1770
  962MOL0     H29824   9.245   0.523   6.535 -0.9512 -0.4890 -0.9898
  962MOL0     H29825   9.172   0.431   6.662 -1.3967 -0.6445 -1.2165
  962MOL0     H29826   9.166   0.215   6.527  1.3959  0.3949 -0.5317
  962MOL0     H29827   9.248   0.292   6.402  2.2750  2.1574 -0.0981
  962MOL0     H29828   8.969   0.321   6.510  1.7270 -1.1168  1.2508
  962MOL0     H29829   9.020   0.274   6.349 -0.8892  2.3738 -2.1394
  962MOL0     H29830   8.823   0.351   6.259 -0.6920  0.0770 -0.4178
  962MOL0     H29831   8.574   0.488   6.051 -0.3186 -0.4370  0.8812
  962MOL0     H29832   8.720   0.438   5.964  1.1872  0.1189 -0.2219
  962MOL0     H29833   8.647   0.344   6.105 -0.3227  0.7346 -0.8110
  962MOL0     H29834   8.570   0.600   5.813 -0.2907 -0.4420  2.7233
  962MOL0     H29835   8.415   0.621   5.618  0.4885  1.0822 -0.6592
  962MOL0     H29836   8.118   0.583   5.542  3.1436  0.4194  0.8835
  962MOL0     H29837   8.120   0.554   5.714 -0.0145  0.1910  0.3377
  962MOL0     H29838   7.922   0.688   5.529  0.5593 -2.5878 -0.2789
  962MOL0     H29839   7.898   0.552   5.639 -0.3324  0.1929  0.0203
  962MOL0     H29840   7.951   0.842   5.717  0.5951  0.4853  3.2204
  962MOL0     H29841   7.949   0.711   5.829  0.8072 -2.1195 -0.5397
  962MOL0     H29842   7.710   0.676   5.794 -1.0270  0.0001 -0.1711
  962MOL0     H29843   7.755   0.835   5.857 -3.7612 -0.9374  0.6374
  962MOL0     H29844   7.733   0.830   5.562 -0.2466 -2.2909 -0.0732
  962MOL0     H29845   7.706   0.952   5.691 -3.8556  0.1291  4.6272
  962MOL0     H29846   7.509   0.730   5.635  0.8583 -0.7241 -0.7759
  962MOL0     H29847   7.502   0.876   5.747  1.1039 -0.3757  0.3927
  962MOL0     H29848   7.518   1.018   5.523  0.7437 -0.8494 -0.7034
  962MOL0     H29849   7.360   0.948   5.569 -0.0980  0.1980  0.4927
  962MOL0     H29850   7.567   0.847   5.360 -0.6922 -0.1387 -0.1568
  962MOL0     H29851   7.428   0.937   5.326  0.8498 -1.2308 -0.8012
  962MOL0     H29852   8.169   0.875   5.878 -0.4203  0.1114 -1.8472
  962MOL0     H29853   8.336   0.871   6.039 -4.1303  3.7233 -3.0908
  962MOL0     H29854   8.822   0.845   6.228 -2.6331 -0.4768  1.6042
  962MOL0     H29855   9.007   0.738   6.348  0.2970  2.6014 -3.7426
  962MOL0     H29856   8.421   1.170   6.876 -0.9747 -0.2423  0.3766
  962MOL0     H29857   8.203   1.284   6.884 -2.2568 -0.8415  0.5127
  962MOL0     H29858   7.945   1.709   6.877  1.6833  4.4053 -2.3979
  962MOL0     H29859   8.035   1.933   6.901  0.1356 -1.1207 -0.6255
  962MOL0     H29860   8.291   2.178   7.141  1.8043  1.0422 -0.7195
  962MOL0     H29861   8.350   2.020   7.203  1.5347  0.3326 -0.6192
  962MOL0     H29862   8.446   1.993   6.977  2.4103  0.2278 -0.1970
  962MOL0     H29863   8.523   2.118   7.077 -1.3112 -0.3042  0.4302
  962MOL0     H29864   8.391   2.305   6.970  1.1828 -0.3823  0.1433
  962MOL0     H29865   8.324   2.176   6.859 -0.7783 -0.6160  1.0714
  962MOL0     H29866   8.503   2.327   6.784 -0.4062 -1.1108 -4.1157
  962MOL0     H29867   8.544   2.156   6.753 -0.9790 -0.6865  0.8927
  962MOL0     H29868   8.854   2.266   7.015  0.6966 -2.6389 -1.2258
  962MOL0     H29869   8.312   1.815   7.186 -0.3381 -0.6365  0.5740
  962MOL0     H29870   8.245   1.588   7.182  1.6358  3.0160  1.7157
  963MOL0     O29871   4.413   1.053   2.576 -0.4268 -0.5880  0.0775
  963MOL0     C29872   4.455   1.159   2.621  0.0005  0.6825 -0.4743
  963MOL0     O29873   4.586   1.195   2.605  0.0499 -0.2743  0.1204
  963MOL0     C29874   4.666   1.116   2.536 -0.7789 -0.2608 -0.2903
  963MOL0     C29875   4.689   0.975   2.560  0.0693 -0.6965  0.0822
  963MOL0     C29876   4.801   0.908   2.513 -1.1618 -0.2899  1.1851
  963MOL0     C29877   4.894   0.982   2.434  0.1058  0.2460  1.1354
  963MOL0     O29878   5.003   0.924   2.372 -0.0664 -0.3907 -0.4784
  963MOL0     C29879   5.099   0.875   2.461  0.4491 -0.7582 -0.2204
  963MOL0     C29880   5.146   0.978   2.565 -0.2590  0.7519  0.5282
  963MOL0     C29881   5.232   1.083   2.493  0.1980  0.8160 -0.4978
  963MOL0     C29882   5.341   1.141   2.589 -0.3001 -1.3036  0.4676
  963MOL0     C29883   5.423   1.240   2.508  0.4045 -0.3597 -0.2349
  963MOL0     C29884   5.514   1.341   2.585 -0.3328 -0.0978 -0.8969
  963MOL0     C29885   5.639   1.268   2.634 -0.1735 -0.1009  0.3857
  963MOL0     C29886   5.752   1.275   2.520  0.0231 -0.5397 -0.5187
  963MOL0     N29887   5.822   1.148   2.511  0.3538 -0.4967  0.5954
  963MOL0     C29888   5.941   1.119   2.565  0.9655  0.3123  0.7733
  963MOL0     C29889   5.993   1.016   2.495  0.0717 -0.7558 -0.3715
  963MOL0     C29890   6.127   0.948   2.513 -0.5847 -0.3124 -0.5572
  963MOL0     C29891   6.199   0.929   2.378 -0.3602  0.3426 -0.7647
  963MOL0     C29892   6.332   0.852   2.394  0.2533 -0.6464  0.6274
  963MOL0     C29893   6.310   0.719   2.465  0.1676  0.0740  1.0259
  963MOL0     O29894   6.425   0.645   2.450 -0.4036  0.0244 -0.5065
  963MOL0     C29895   6.445   0.591   2.326 -0.3676  0.2155  0.3176
  963MOL0     C29896   6.349   0.494   2.271  0.2625 -1.4912  0.1448
  963MOL0     C29897   6.374   0.431   2.150 -0.7943  0.0185  0.4432
  963MOL0     C29898   6.265   0.330   2.107 -0.7930 -0.0515 -0.0622
  963MOL0     C29899   6.494   0.444   2.078 -0.8928 -0.5230  0.1173
  963MOL0     C29900   6.535   0.388   1.945 -1.4718  0.0716 -0.1766
  963MOL0     O29901   6.652   0.442   1.894 -0.6024  0.1151  0.7569
  963MOL0     C29902   6.690   0.406   1.762  1.0639 -0.4422 -1.1979
  963MOL0     C29903   6.631   0.454   1.646 -0.7547 -0.8677  0.8973
  963MOL0     C29904   6.675   0.395   1.522  0.1241 -0.2196 -0.4499
  963MOL0     C29905   6.785   0.308   1.514 -0.5973 -0.6270  0.5489
  963MOL0     O29906   6.844   0.253   1.402 -0.6796 -0.3446 -0.3378
  963MOL0     C29907   6.868   0.364   1.303  0.4326 -0.0155 -0.4982
  963MOL0     C29908   6.937   0.294   1.185  0.7543  0.6752  0.0434
  963MOL0     C29909   7.081   0.251   1.218 -0.1818 -0.7926  0.3792
  963MOL0     C29910   7.168   0.211   1.091  0.4568 -0.1230 -0.9512
  963MOL0     C29911   7.230   0.325   1.016  0.9657 -0.8865  0.8127
  963MOL0     C29912   7.294   0.278   0.888 -0.7924  0.1826 -0.2921
  963MOL0     C29913   7.439   0.209   0.904  0.1000  0.5946  0.1531
  963MOL0     C29914   7.491   0.142   0.775  0.7909 -0.2260 -0.1016
  963MOL0    Cl29915   7.658   0.082   0.790 -0.4236 -0.8976 -0.0359
  963MOL0     C29916   6.849   0.284   1.632 -0.1613  0.7825  0.5553
  963MOL0     C29917   6.799   0.327   1.755 -0.4842 -0.1196  0.0529
  963MOL0     O29918   6.457   0.306   1.886 -0.4017 -0.9642 -1.0544
  963MOL0     C29919   6.580   0.540   2.138 -0.6545 -0.0669  0.2490
  963MOL0     C29920   6.561   0.609   2.260  0.6563  0.1968  0.4031
  963MOL0     N29921   5.892   0.971   2.412  0.4577 -0.7772  0.5331
  963MOL0     N29922   5.789   1.049   2.429  0.8622 -0.3874 -0.6567
  963MOL0     C29923   4.879   1.115   2.417  0.2053  0.1959 -0.1818
  963MOL0     C29924   4.770   1.183   2.467 -0.0540  0.4272  1.0910
  963MOL0     C29925   4.356   1.261   2.665  0.0264 -0.1606 -0.0156
  963MOL0     C29926   4.384   1.343   2.775 -0.6892  0.0160 -0.0489
  963MOL0     C29927   4.289   1.440   2.819  0.1138 -0.1817  0.1894
  963MOL0     C29928   4.160   1.456   2.760  0.3546 -0.0347 -0.5648
  963MOL0     O29929   4.057   1.534   2.804 -0.2752  0.3970 -0.2042
  963MOL0     C29930   4.069   1.609   2.929  0.0052 -0.6114  0.9341
  963MOL0     C29931   4.052   1.514   3.049 -0.6418 -0.0161  0.7318
  963MOL0     C29932   4.052   1.589   3.185  0.3405 -1.8818  0.2749
  963MOL0     C29933   4.196   1.645   3.209 -0.0344  0.6147 -0.6543
  963MOL0     C29934   4.216   1.727   3.329 -0.8500 -0.6823  0.8654
  963MOL0     C29935   4.247   1.803   3.420  0.6167  0.5931  0.6206
  963MOL0     C29936   4.132   1.365   2.656  0.9030 -0.0897  0.9580
  963MOL0     C29937   4.226   1.273   2.609 -1.0000 -0.3445  0.0661
  963MOL0     H29938   4.638   0.919   2.638 -0.3866  1.0341  1.0721
  963MOL0     H29939   4.820   0.803   2.536 -1.8820 -2.3038 -5.3677
  963MOL0     H29940   5.056   0.794   2.521  0.5793 -0.1245  0.7465
  963MOL0     H29941   5.184   0.838   2.404  0.9317 -1.4690  0.9342
  963MOL0     H29942   5.056   1.028   2.602 -2.6514 -1.7672 -1.4639
  963MOL0     H29943   5.199   0.919   2.640  1.6699  0.7684 -0.7649
  963MOL0     H29944   5.290   1.028   2.419  2.5731 -1.3128  2.6571
  963MOL0     H29945   5.166   1.157   2.446  1.1674  1.6912 -0.5165
  963MOL0     H29946   5.282   1.187   2.669  1.4683  1.0557  0.5511
  963MOL0     H29947   5.409   1.066   2.631  1.2266 -0.2624 -0.0464
  963MOL0     H29948   5.490   1.191   2.436  2.3543 -1.2970  2.0929
  963MOL0     H29949   5.348   1.307   2.464 -0.9554 -0.8975  1.1542
  963MOL0     H29950   5.548   1.423   2.521  1.6647  0.2658  0.5743
  963MOL0     H29951   5.463   1.383   2.672  1.0146  0.0124 -0.1338
  963MOL0     H29952   5.668   1.313   2.730  0.4046  0.6438 -0.1247
  963MOL0     H29953   5.619   1.164   2.663 -0.7836 -0.8640 -2.4943
  963MOL0     H29954   5.808   1.361   2.558 -1.9969  0.8865 -0.6134
  963MOL0     H29955   5.719   1.299   2.419  5.0583 -0.2290 -2.3609
  963MOL0     H29956   5.988   1.172   2.647  2.0971 -0.3356  0.5631
  963MOL0     H29957   6.178   1.014   2.584 -2.3216 -1.2552  1.6694
  963MOL0     H29958   6.103   0.858   2.570 -2.3375  0.8379  0.6273
  963MOL0     H29959   6.213   1.018   2.316 -0.5291  1.2705  0.4790
  963MOL0     H29960   6.134   0.866   2.317  0.3565 -1.1054 -0.0738
  963MOL0     H29961   6.415   0.907   2.440  2.6047 -2.2951 -1.3691
  963MOL0     H29962   6.365   0.844   2.290 -0.7945 -1.6108  0.3618
  963MOL0     H29963   6.222   0.674   2.418  1.2982 -1.1808  0.0364
  963MOL0     H29964   6.282   0.748   2.567 -0.0678 -1.1338  1.3246
  963MOL0     H29965   6.252   0.488   2.319 -0.3854  0.7071 -0.7680
  963MOL0     H29966   6.183   0.315   2.177  1.5920 -1.7917  2.5624
  963MOL0     H29967   6.223   0.376   2.017  1.0513  0.3325 -0.7767
  963MOL0     H29968   6.316   0.234   2.090 -1.9528 -0.8876  1.0019
  963MOL0     H29969   6.548   0.523   1.655  0.3057  0.5111  0.3569
  963MOL0     H29970   6.631   0.438   1.433 -0.2660  0.4621  0.0610
  963MOL0     H29971   6.776   0.407   1.263  0.9122  0.5301 -1.0168
  963MOL0     H29972   6.930   0.445   1.342  0.2996  1.8771 -3.8437
  963MOL0     H29973   6.874   0.215   1.144  0.9991  2.7405 -5.0779
  963MOL0     H29974   6.933   0.372   1.108  1.0316  0.7391  0.0905
  963MOL0     H29975   7.085   0.161   1.280 -2.7287 -0.2247  1.4752
  963MOL0     H29976   7.121   0.326   1.286 -2.2806  0.1318  0.6829
  963MOL0     H29977   7.232   0.129   1.127  0.6127 -0.5387 -2.1396
  963MOL0     H29978   7.093   0.168   1.024  1.0277 -1.7847 -0.5680
  963MOL0     H29979   7.303   0.377   1.079  0.0756  0.2427  0.9465
  963MOL0     H29980   7.146   0.385   0.981 -0.6627 -1.5518  3.3540
  963MOL0     H29981   7.223   0.210   0.840  0.2571 -1.3064  0.1749
  963MOL0     H29982   7.300   0.370   0.830 -1.8271  0.0606 -0.6162
  963MOL0     H29983   7.445   0.138   0.987  3.2728  0.1752 -0.2949
  963MOL0     H29984   7.517   0.277   0.938 -0.6265  1.7414 -0.4205
  963MOL0     H29985   7.476   0.222   0.702  0.4420 -0.4591 -0.2918
  963MOL0     H29986   7.423   0.060   0.750 -0.0374  0.6884 -0.9615
  963MOL0     H29987   6.932   0.216   1.618 -0.6841  0.5222 -1.4910
  963MOL0     H29988   6.872   0.303   1.831  2.1193  0.7442 -2.0189
  963MOL0     H29989   6.672   0.556   2.083 -0.9941 -0.5115 -0.4631
  963MOL0     H29990   6.644   0.667   2.299  3.5028 -3.7825  0.9094
  963MOL0     H29991   4.941   1.178   2.354 -0.5907 -1.4408 -2.7449
  963MOL0     H29992   4.772   1.289   2.444 -2.8443  0.0327 -1.5313
  963MOL0     H29993   4.480   1.332   2.825  0.5873 -0.4295 -2.4365
  963MOL0     H29994   4.312   1.515   2.893 -2.8779  3.2310 -1.9842
  963MOL0     H29995   4.164   1.663   2.935 -0.8933  1.0346  0.7764
  963MOL0     H29996   3.996   1.689   2.920  0.2518 -0.5353 -0.6809
  963MOL0     H29997   4.136   1.443   3.056  3.4979  4.4698  1.8059
  963MOL0     H29998   3.960   1.455   3.042  1.0387 -3.1249  2.2640
  963MOL0     H29999   4.019   1.525   3.267 -0.2173 -3.4159 -1.0907
  963MOL0     H30000   3.983   1.674   3.176 -0.6371 -2.7467 -0.8495
  963MOL0     H30001   4.227   1.702   3.122  0.7711  2.8150  0.9827
  963MOL0     H30002   4.260   1.558   3.227 -0.5123  0.7345  2.0710
  963MOL0     H30003   4.274   1.875   3.495  0.4151 -0.0913  1.3567
  963MOL0     H30004   4.041   1.392   2.604  0.7331 -0.5633  1.0076
  963MOL0     H30005   4.206   1.215   2.519  0.7159  1.2638 -1.4204
  964MOL0     O30006   8.531   0.614   3.933  0.0731  0.0378  0.3797
  964MOL0     C30007   8.412   0.642   3.947 -0.0120 -1.4976  0.7578
  964MOL0     O30008   8.317   0.661   3.848 -0.1273  0.7565  0.9849
  964MOL0     C30009   8.344   0.644   3.707 -0.4439  0.5977 -0.1239
  964MOL0     C30010   8.229   0.615   3.640  0.2049  0.3697  1.2744
  964MOL0     C30011   8.238   0.603   3.501  0.7898  0.3779  0.3752
  964MOL0     C30012   8.363   0.623   3.434  0.2967 -0.5995 -0.6318
  964MOL0     O30013   8.395   0.618   3.301  0.0159 -0.0290 -0.5525
  964MOL0     C30014   8.304   0.668   3.204 -0.3227 -0.2182 -0.5310
  964MOL0     C30015   8.390   0.765   3.113  0.8589  0.4085  0.0239
  964MOL0     C30016   8.458   0.887   3.182  0.0252 -0.4552  0.3468
  964MOL0     C30017   8.567   0.947   3.087  0.7639 -0.0769 -0.4184
  964MOL0     C30018   8.674   1.044   3.144  0.8439 -0.4567 -0.0727
  964MOL0     C30019   8.755   0.991   3.266  0.1034  0.1162 -0.3141
  964MOL0     C30020   8.822   0.845   3.258 -0.3465 -1.1151  0.4947
  964MOL0     C30021   8.964   0.844   3.207 -0.5200  0.1092 -0.4109
  964MOL0     N30022   8.998   0.705   3.181  0.0077  0.7672  0.5696
  964MOL0     C30023   9.037   0.615   3.277 -1.2004 -0.2235  0.5940
  964MOL0     C30024   9.076   0.511   3.206  0.5573 -0.1933 -0.7666
  964MOL0     C30025   9.109   0.376   3.267 -0.4156  0.4660  0.5713
  964MOL0     C30026   9.261   0.359   3.263  0.1178  0.5967  0.1979
  964MOL0     C30027   9.348   0.420   3.379  0.8255 -0.4418  0.0428
  964MOL0     C30028   9.321   0.372   3.522  0.0694  1.9790  0.1882
  964MOL0     O30029   9.372   0.234   3.530  0.0844  0.1443  0.1579
  964MOL0     C30030   9.514   0.220   3.546  0.4972 -0.4858  0.0059
  964MOL0     C30031   9.589   0.108   3.509  0.6102  0.1539  0.5426
  964MOL0     C30032   9.720   0.090   3.548  0.2319 -1.2910 -0.4637
  964MOL0     C30033   9.773  -0.046   3.521  0.1924 -1.0104  0.4883
  964MOL0     C30034   9.786   0.193   3.609  0.2284 -0.6430 -0.4988
  964MOL0     C30035   9.926   0.196   3.640 -0.4053  0.7158  0.6408
  964MOL0     O30036  10.001   0.102   3.573  0.1013 -0.0915  0.2839
  964MOL0     C30037  10.119   0.065   3.635 -0.3641 -0.1046 -0.5711
  964MOL0     C30038  10.112  -0.074   3.679 -0.2698  0.1143 -0.1676
  964MOL0     C30039  10.228  -0.130   3.725  0.4552  0.2308 -0.3490
  964MOL0     C30040  10.350  -0.056   3.738  0.3257  0.7752 -0.2075
  964MOL0     O30041  10.463  -0.113   3.803  0.8086  0.1720  0.2865
  964MOL0     C30042  10.444  -0.162   3.938  0.2050  0.5083  0.4181
  964MOL0     C30043  10.574  -0.234   3.969 -0.2538  0.7028 -0.1777
  964MOL0     C30044  10.586  -0.360   3.882 -0.3069 -0.0410  0.0002
  964MOL0     C30045  10.714  -0.351   3.785  0.1736  0.1652  0.0125
  964MOL0     C30046  10.722  -0.461   3.679  0.7318 -0.3202 -0.5489
  964MOL0     C30047  10.847  -0.448   3.598  0.5893 -0.1352 -0.7545
  964MOL0     C30048  10.844  -0.319   3.504  0.2361  0.0889  0.0331
  964MOL0     C30049  10.977  -0.299   3.447 -0.4079 -0.3525 -0.9294
  964MOL0    Cl30050  10.967  -0.186   3.307 -0.2380 -0.6050 -0.4834
  964MOL0     C30051  10.353   0.070   3.688 -0.0234 -0.7810  0.5333
  964MOL0     C30052  10.234   0.136   3.644 -0.9280  0.9583 -0.6946
  964MOL0     O30053   9.969   0.269   3.727 -0.1320  0.2545 -0.1594
  964MOL0     C30054   9.725   0.314   3.628  0.5692  0.5451 -0.1265
  964MOL0     C30055   9.588   0.325   3.606 -0.7921  0.0128 -0.8933
  964MOL0     N30056   9.044   0.529   3.072  0.3058  1.6792  0.5007
  964MOL0     N30057   9.010   0.647   3.059 -0.0753  0.7301  0.1026
  964MOL0     C30058   8.481   0.652   3.510  0.0619 -1.2000  0.5776
  964MOL0     C30059   8.467   0.671   3.647 -0.0421  0.2354 -0.4173
  964MOL0     C30060   8.359   0.657   4.090 -0.1264 -0.5731 -0.5769
  964MOL0     C30061   8.449   0.703   4.198  0.0673 -0.1031 -0.1258
  964MOL0     C30062   8.392   0.730   4.325 -0.5545 -0.7127 -0.0303
  964MOL0     C30063   8.260   0.715   4.353  0.7449 -0.2034  0.5618
  964MOL0     O30064   8.216   0.740   4.479  0.4368  0.4176 -0.3126
  964MOL0     C30065   8.079   0.759   4.510 -1.4772  0.2849  0.1090
  964MOL0     C30066   8.066   0.765   4.663 -0.0437  0.2134  0.2001
  964MOL0     C30067   8.138   0.641   4.740  0.0927  0.0375  0.1367
  964MOL0     C30068   8.087   0.640   4.892  0.7205 -0.5537 -0.0671
  964MOL0     C30069   8.168   0.565   4.977 -0.4129 -0.0103 -0.6208
  964MOL0     C30070   8.246   0.488   5.026 -0.4705  0.1428  0.2814
  964MOL0     C30071   8.168   0.675   4.243 -0.2664 -1.7136 -0.2554
  964MOL0     C30072   8.223   0.646   4.118 -0.0493 -0.0997  0.3131
  964MOL0     H30073   8.130   0.599   3.680 -0.3708  1.9171  0.5456
  964MOL0     H30074   8.148   0.581   3.443  2.6047 -1.7495 -1.8177
  964MOL0     H30075   8.277   0.594   3.128 -1.4710 -0.6071  0.2361
  964MOL0     H30076   8.215   0.709   3.251 -1.1289 -1.7234 -0.6835
  964MOL0     H30077   8.457   0.699   3.058 -0.5853 -0.7770 -0.3736
  964MOL0     H30078   8.318   0.800   3.038  1.8964  1.6147 -0.4483
  964MOL0     H30079   8.381   0.957   3.216 -1.5007 -1.7554 -0.2807
  964MOL0     H30080   8.507   0.854   3.274  0.9382 -0.0584  0.0120
  964MOL0     H30081   8.621   0.861   3.045 -0.4429 -1.1937  0.2342
  964MOL0     H30082   8.516   0.995   3.002  0.4403  0.9959  0.3689
  964MOL0     H30083   8.749   1.049   3.064 -0.4213 -1.6997 -1.4108
  964MOL0     H30084   8.634   1.145   3.155  0.7981 -0.4245 -0.4912
  964MOL0     H30085   8.833   1.064   3.288 -0.4990  0.4909  0.6079
  964MOL0     H30086   8.688   0.989   3.352  1.5167 -1.2909  0.7968
  964MOL0     H30087   8.817   0.800   3.357 -1.4474  1.3592  1.6494
  964MOL0     H30088   8.761   0.783   3.193 -0.6142 -1.9394  1.5044
  964MOL0     H30089   9.033   0.888   3.279  0.0197 -0.2186 -0.7256
  964MOL0     H30090   8.970   0.904   3.115 -4.0433 -1.1821 -1.6910
  964MOL0     H30091   9.027   0.622   3.385 -0.8947  1.1339  0.5572
  964MOL0     H30092   9.065   0.366   3.366 -0.8376  2.0921  0.5696
  964MOL0     H30093   9.068   0.302   3.197  1.3692  0.1699 -0.2130
  964MOL0     H30094   9.295   0.407   3.170  2.3036 -2.4580 -0.7294
  964MOL0     H30095   9.283   0.252   3.260 -1.6698  0.1751  0.7984
  964MOL0     H30096   9.327   0.527   3.365 -0.9361 -0.7857 -0.1909
  964MOL0     H30097   9.449   0.390   3.352  0.2300 -4.4823  1.6386
  964MOL0     H30098   9.215   0.349   3.536  0.3504 -1.2550 -1.9107
  964MOL0     H30099   9.352   0.439   3.603  0.7092  1.2247  0.5716
  964MOL0     H30100   9.535   0.033   3.452  2.0631 -0.9264  0.5355
  964MOL0     H30101   9.692  -0.115   3.495 -1.7649  2.0009 -2.1686
  964MOL0     H30102   9.837  -0.052   3.433 -0.2562  0.4543  0.0318
  964MOL0     H30103   9.828  -0.089   3.605  1.0424  1.7674  1.4557
  964MOL0     H30104  10.014  -0.118   3.666  0.0853 -0.2433 -1.9333
  964MOL0     H30105  10.216  -0.226   3.774 -3.2065  0.0299 -1.3209
  964MOL0     H30106  10.431  -0.077   4.006  0.9158  1.4178 -0.5470
  964MOL0     H30107  10.363  -0.234   3.952 -0.4050  0.9790 -0.5950
  964MOL0     H30108  10.658  -0.168   3.946 -0.5469  1.0560 -0.2415
  964MOL0     H30109  10.585  -0.265   4.073 -0.4931 -0.7591 -0.5543
  964MOL0     H30110  10.499  -0.386   3.821  0.0032 -0.0727 -0.4379
  964MOL0     H30111  10.610  -0.448   3.942  2.2287 -0.5626 -1.6481
  964MOL0     H30112  10.699  -0.255   3.735  2.6016  1.4173  1.4863
  964MOL0     H30113  10.808  -0.347   3.840 -1.8624  2.2048  3.7250
  964MOL0     H30114  10.633  -0.475   3.618  1.9896 -1.1660 -2.2741
  964MOL0     H30115  10.726  -0.551   3.741  2.0265  1.3616  2.0126
  964MOL0     H30116  10.935  -0.440   3.663  2.5264  2.0055 -3.4314
  964MOL0     H30117  10.861  -0.537   3.535 -0.1555 -0.3533 -0.6262
  964MOL0     H30118  10.810  -0.227   3.553 -1.1706 -0.4581  0.1476
  964MOL0     H30119  10.770  -0.334   3.424 -1.0163  3.5259  0.3817
  964MOL0     H30120  11.025  -0.390   3.408 -0.0207 -0.5650  0.0286
  964MOL0     H30121  11.058  -0.262   3.509 -0.5782 -1.5119  0.0115
  964MOL0     H30122  10.452   0.112   3.674  0.0099 -1.8580 -4.5368
  964MOL0     H30123  10.246   0.238   3.609  2.0406  1.1151  0.5228
  964MOL0     H30124   9.786   0.396   3.663  3.1867  0.1194 -3.3025
  964MOL0     H30125   9.546   0.424   3.625 -1.8039 -0.8707  2.0519
  964MOL0     H30126   8.580   0.670   3.470  1.3253  1.9123  4.4884
  964MOL0     H30127   8.562   0.683   3.699  2.6770 -0.7023 -4.6537
  964MOL0     H30128   8.555   0.724   4.190 -0.2560  1.8483  0.0884
  964MOL0     H30129   8.459   0.753   4.408 -0.3083 -0.8662 -0.1857
  964MOL0     H30130   8.049   0.849   4.455  2.2967  0.9402 -1.1841
  964MOL0     H30131   8.016   0.676   4.479  0.7133 -1.5344  0.2578
  964MOL0     H30132   7.960   0.770   4.692 -1.0937 -2.7808 -2.4464
  964MOL0     H30133   8.116   0.850   4.710 -1.0654  0.0619  1.6279
  964MOL0     H30134   8.246   0.642   4.723  0.1543 -0.8728  0.4427
  964MOL0     H30135   8.098   0.550   4.696  0.0720  0.2688 -0.3315
  964MOL0     H30136   7.986   0.600   4.901 -0.7293  2.8298  0.0895
  964MOL0     H30137   8.088   0.741   4.933  0.6691 -1.2938  1.8677
  964MOL0     H30138   8.311   0.410   5.058 -1.2147 -1.1440 -1.2262
  964MOL0     H30139   8.061   0.678   4.259 -0.2682 -1.1171 -0.3863
  964MOL0     H30140   8.157   0.623   4.034 -0.2671  0.9361  0.1864
  965MOL0     O30141  10.017   1.914   6.958  0.0800 -0.0842  0.4846
  965MOL0     C30142  10.083   1.819   6.920 -0.4403  0.5251  0.7004
  965MOL0     O30143  10.222   1.808   6.928  0.0761  0.9550  0.6883
  965MOL0     C30144  10.298   1.920   6.957  0.0435 -0.5327 -1.2839
  965MOL0     C30145  10.312   2.025   6.873  0.0108 -0.0459 -0.3176
  965MOL0     C30146  10.386   2.137   6.911 -0.2295  0.0116  0.3317
  965MOL0     C30147  10.443   2.145   7.037 -0.4091 -0.2343  0.3827
  965MOL0     O30148  10.511   2.264   7.060  0.2332 -0.1689 -0.1308
  965MOL0     C30149  10.614   2.277   7.155  0.0586 -0.1473 -0.2713
  965MOL0     C30150  10.730   2.358   7.103  0.2374 -0.5760  0.4276
  965MOL0     C30151  10.840   2.393   7.201  0.3615  0.3786 -0.7781
  965MOL0     C30152  10.961   2.450   7.131  0.0915  0.4860 -0.3708
  965MOL0     C30153  11.091   2.462   7.211  0.8164 -0.8389  0.7220
  965MOL0     C30154  11.192   2.547   7.128  0.7685 -0.0810  0.7640
  965MOL0     C30155  11.250   2.479   7.009 -0.7940  0.6224 -0.3340
  965MOL0     C30156  11.252   2.559   6.880  0.4761  0.1994  0.9334
  965MOL0     N30157  11.164   2.491   6.783  0.5601  0.9320 -0.2542
  965MOL0     C30158  11.032   2.506   6.772  0.3874  0.0043  0.0984
  965MOL0     C30159  11.007   2.437   6.659 -0.6945  0.2314  0.0005
  965MOL0     C30160  10.871   2.428   6.599  0.6811  0.1599  0.1072
  965MOL0     C30161  10.791   2.321   6.675  0.0742 -0.6067 -1.0450
  965MOL0     C30162  10.853   2.183   6.641  0.2857 -1.4947  0.3091
  965MOL0     C30163  10.808   2.086   6.743  0.2409  0.4127 -0.5501
  965MOL0     O30164  10.892   2.118   6.853 -0.1563  0.2972 -0.9007
  965MOL0     C30165  10.868   2.038   6.967 -0.2117 -0.2439 -0.1453
  965MOL0     C30166  10.957   2.058   7.073 -0.4179  0.2394 -0.2469
  965MOL0     C30167  10.937   2.008   7.206  0.1716  0.1654  0.2048
  965MOL0     C30168  11.031   2.032   7.310 -0.1976 -0.6599 -0.8232
  965MOL0     C30169  10.834   1.914   7.227  0.3037 -0.1795  0.2917
  965MOL0     C30170  10.796   1.856   7.362 -0.1733 -0.3412 -0.3550
  965MOL0     O30171  10.886   1.764   7.417  0.0199 -0.0872  0.1155
  965MOL0     C30172  10.868   1.723   7.549  0.4435 -0.2257 -0.1094
  965MOL0     C30173  10.793   1.604   7.562 -0.1883 -0.3534 -0.1873
  965MOL0     C30174  10.768   1.547   7.682 -0.0727 -0.3683  0.3470
  965MOL0     C30175  10.802   1.605   7.800  0.1805 -0.9400 -0.7927
  965MOL0     O30176  10.755   1.548   7.919  0.2315  0.2276 -0.1548
  965MOL0     C30177  10.726   1.630   8.029 -0.3637  0.5505  0.1127
  965MOL0     C30178  10.644   1.550   8.129 -0.2398  0.6440  0.1696
  965MOL0     C30179  10.495   1.539   8.074  0.5418 -0.7114 -0.4251
  965MOL0     C30180  10.409   1.490   8.181 -0.4472  0.4339 -0.1942
  965MOL0     C30181  10.278   1.439   8.128 -0.3540 -0.2682 -0.9352
  965MOL0     C30182  10.181   1.415   8.241  0.4227 -1.5247  0.3505
  965MOL0     C30183  10.080   1.542   8.242  1.1528  0.1262  0.1116
  965MOL0     C30184   9.981   1.563   8.364  0.0428  0.1913  0.5563
  965MOL0    Cl30185  10.072   1.548   8.516 -0.4229  0.1407  0.2280
  965MOL0     C30186  10.870   1.727   7.788 -0.4792 -0.6156  0.2999
  965MOL0     C30187  10.905   1.793   7.668 -0.0185  0.1278  0.0120
  965MOL0     O30188  10.693   1.896   7.415  0.7682  0.5829  0.2856
  965MOL0     C30189  10.739   1.911   7.122 -0.7118  0.4950 -0.4409
  965MOL0     C30190  10.758   1.955   6.989 -0.1141 -0.0163 -0.1418
  965MOL0     N30191  11.125   2.367   6.614  0.1341 -0.3596 -0.0302
  965MOL0     N30192  11.214   2.412   6.688  0.4032 -0.5293  0.6422
  965MOL0     C30193  10.422   2.040   7.121 -0.1190  0.8338 -0.5423
  965MOL0     C30194  10.360   1.926   7.081  0.2597 -0.1330  0.5840
  965MOL0     C30195  10.011   1.693   6.888 -0.3843 -0.3363  0.9866
  965MOL0     C30196   9.874   1.676   6.910 -0.0477  0.9021 -0.3165
  965MOL0     C30197   9.814   1.556   6.876 -1.2876 -0.5077  0.0420
  965MOL0     C30198   9.879   1.457   6.821  0.9227 -0.4207 -0.2484
  965MOL0     O30199   9.807   1.340   6.796 -0.2382  0.6681  0.2738
  965MOL0     C30200   9.875   1.217   6.832  0.1065  0.4424  0.1429
  965MOL0     C30201   9.788   1.126   6.922 -0.4351 -0.0495  0.6413
  965MOL0     C30202   9.850   0.992   6.935  0.7674  0.8431  0.1184
  965MOL0     C30203   9.751   0.879   6.970  0.1870 -0.8930 -1.2175
  965MOL0     C30204   9.708   0.910   7.112  0.7590 -0.3295 -1.2442
  965MOL0     C30205   9.696   0.929   7.238  0.4658 -0.0278  1.2498
  965MOL0     C30206  10.012   1.468   6.788 -0.4215 -0.0605  0.2534
  965MOL0     C30207  10.081   1.579   6.831  0.1025 -0.0899 -1.3993
  965MOL0     H30208  10.272   2.016   6.773 -1.0906 -0.4317  0.1321
  965MOL0     H30209  10.394   2.222   6.845 -2.9427  1.2871  1.4736
  965MOL0     H30210  10.591   2.330   7.248  0.5124 -2.7229  1.4118
  965MOL0     H30211  10.636   2.174   7.184 -2.0391  0.1850  3.0531
  965MOL0     H30212  10.769   2.303   7.017 -1.9505 -1.8018  0.1374
  965MOL0     H30213  10.693   2.454   7.066  2.9261  0.5594  0.4780
  965MOL0     H30214  10.812   2.467   7.276  1.4473 -2.5564  2.7649
  965MOL0     H30215  10.855   2.307   7.266  1.1405  0.0938 -1.3136
  965MOL0     H30216  10.994   2.389   7.046 -1.5133  1.9693 -2.1429
  965MOL0     H30217  10.928   2.549   7.098  1.1146  1.0286  0.1791
  965MOL0     H30218  11.078   2.533   7.294 -1.5101  0.9183 -0.9927
  965MOL0     H30219  11.131   2.364   7.239 -0.8905 -2.4018 -1.8589
  965MOL0     H30220  11.155   2.646   7.099  1.0385 -0.3022 -0.4026
  965MOL0     H30221  11.272   2.565   7.201  1.9309 -0.9759 -0.2444
  965MOL0     H30222  11.356   2.467   7.031 -0.5302  0.6666 -1.5086
  965MOL0     H30223  11.211   2.379   6.987 -2.0120  0.6171  1.6110
  965MOL0     H30224  11.353   2.555   6.838  0.0397  0.5859 -0.1670
  965MOL0     H30225  11.222   2.664   6.887 -0.4914 -0.0341  0.4575
  965MOL0     H30226  10.962   2.563   6.832 -0.7139 -2.8976  1.7914
  965MOL0     H30227  10.816   2.522   6.596 -1.7559 -1.2081 -1.6256
  965MOL0     H30228  10.865   2.389   6.497  5.0028 -2.2865  0.5334
  965MOL0     H30229  10.685   2.316   6.648 -0.5672 -0.6116  1.3008
  965MOL0     H30230  10.799   2.337   6.783  0.0827 -0.5475 -1.0546
  965MOL0     H30231  10.960   2.188   6.621  0.0210 -1.2955 -1.1815
  965MOL0     H30232  10.813   2.146   6.546  0.5677 -1.5759  0.2202
  965MOL0     H30233  10.821   1.983   6.708 -2.6997  0.2255 -1.3162
  965MOL0     H30234  10.705   2.111   6.768  1.3477  1.4802  3.8919
  965MOL0     H30235  11.036   2.131   7.057 -2.6390  2.7866 -0.3566
  965MOL0     H30236  11.098   2.111   7.275 -1.4784  0.8767  0.0788
  965MOL0     H30237  10.989   2.070   7.403  0.3839 -0.5453 -0.6052
  965MOL0     H30238  11.087   1.940   7.329 -0.4292 -0.4349  1.1303
  965MOL0     H30239  10.757   1.560   7.469  1.3547 -2.3608  0.0923
  965MOL0     H30240  10.710   1.455   7.678  0.0481 -0.4121 -2.1244
  965MOL0     H30241  10.811   1.679   8.076 -2.1795  1.2142  2.9798
  965MOL0     H30242  10.663   1.713   7.996 -0.1763  0.9879  0.8356
  965MOL0     H30243  10.696   1.456   8.145  0.7446  1.0035 -0.7591
  965MOL0     H30244  10.651   1.614   8.217  3.6081  0.2627  0.3106
  965MOL0     H30245  10.499   1.463   7.995 -3.7722 -0.5043 -1.0897
  965MOL0     H30246  10.462   1.639   8.045 -1.7540 -0.2407  3.2506
  965MOL0     H30247  10.464   1.416   8.241 -0.2907  1.3611  0.8240
  965MOL0     H30248  10.397   1.576   8.247  1.7900  0.3656  0.4108
  965MOL0     H30249  10.301   1.348   8.072  0.7753 -2.3334  2.5237
  965MOL0     H30250  10.241   1.518   8.062  1.2417  1.6202  0.2836
  965MOL0     H30251  10.112   1.331   8.228 -2.6972  0.7451  0.9444
  965MOL0     H30252  10.225   1.405   8.340  0.6071 -0.6748  0.3626
  965MOL0     H30253  10.014   1.542   8.155  0.0428 -0.4245  0.9149
  965MOL0     H30254  10.135   1.635   8.227 -0.7138  1.2120 -0.3215
  965MOL0     H30255   9.895   1.495   8.373  1.2386 -1.2473  1.9711
  965MOL0     H30256   9.948   1.667   8.361 -1.7327 -0.1575  3.3316
  965MOL0     H30257  10.897   1.793   7.870  1.1719  3.6659 -3.2130
  965MOL0     H30258  10.958   1.887   7.665  0.5695 -0.2346 -1.8385
  965MOL0     H30259  10.648   1.859   7.151 -2.1095  0.9523 -3.5266
  965MOL0     H30260  10.685   1.940   6.910  0.1996 -1.0036 -0.2590
  965MOL0     H30261  10.457   2.043   7.223  0.6214  3.5285 -0.8170
  965MOL0     H30262  10.329   1.863   7.163 -1.3788  0.9823  0.8577
  965MOL0     H30263   9.818   1.754   6.960  4.0301  1.9924  3.1639
  965MOL0     H30264   9.707   1.542   6.891 -1.5441  0.1958 -0.9765
  965MOL0     H30265   9.900   1.157   6.744 -2.0035 -2.1274  1.1717
  965MOL0     H30266   9.970   1.241   6.881  0.8194  3.0443 -2.2505
  965MOL0     H30267   9.685   1.120   6.886  0.8129 -0.4212 -3.3945
  965MOL0     H30268   9.784   1.173   7.021 -4.8513  0.9730  0.1619
  965MOL0     H30269   9.939   0.978   6.996  0.6734 -1.9688 -0.2735
  965MOL0     H30270   9.879   0.960   6.834  0.3970  0.6340  0.0766
  965MOL0     H30271   9.803   0.783   6.971 -0.5527 -1.3035 -1.1571
  965MOL0     H30272   9.668   0.882   6.899 -0.0187 -1.0368 -0.9843
  965MOL0     H30273   9.670   0.956   7.338 -1.2501 -1.0575  1.1361
  965MOL0     H30274  10.073   1.392   6.740  1.3506  1.3958  0.0932
  965MOL0     H30275  10.186   1.600   6.819  0.0288  1.4340  0.1498
  966MOL0     O30276   6.938   0.998  10.940 -0.5509  0.1971 -1.3329
  966MOL0     C30277   7.027   0.919  10.905  1.8076 -0.4393  0.4160
  966MOL0     O30278   7.013   0.781  10.897 -0.0594  1.1001 -0.0572
  966MOL0     C30279   6.892   0.711  10.893  0.8615  0.2634  0.0354
  966MOL0     C30280   6.887   0.594  10.818 -0.0160  0.0062 -0.1011
  966MOL0     C30281   6.770   0.517  10.814  0.1226  0.2210 -1.3127
  966MOL0     C30282   6.655   0.545  10.891  0.0096  0.7840  0.4140
  966MOL0     O30283   6.560   0.450  10.894 -0.1734  1.1427 -0.0507
  966MOL0     C30284   6.467   0.467  11.006 -0.0792  0.2602 -1.0116
  966MOL0     C30285   6.404   0.340  11.052 -0.9401  0.3412 -0.3775
  966MOL0     C30286   6.290   0.370  11.162 -0.8882  0.1000 -1.3574
  966MOL0     C30287   6.222   0.243  11.201  0.8742  0.1145 -0.1067
  966MOL0     C30288   6.094   0.274  11.270 -0.9477 -0.1084 -0.3922
  966MOL0     C30289   6.011   0.155  11.319  0.5075 -0.7901  0.1737
  966MOL0     C30290   5.880   0.201  11.391 -0.7011 -0.6258 -0.2427
  966MOL0     C30291   5.901   0.250  11.532  0.3044  0.5980  0.0129
  966MOL0     N30292   5.975   0.148  11.614 -0.9141  0.2016  0.4134
  966MOL0     C30293   6.046   0.191  11.717  0.1691 -0.3252  0.0115
  966MOL0     C30294   6.044   0.086  11.805 -0.1659  0.1515  0.0529
  966MOL0     C30295   6.121   0.080  11.935 -0.0435  0.2994 -0.2090
  966MOL0     C30296   6.041   0.121  12.065 -0.2111 -0.3645 -0.4546
  966MOL0     C30297   6.133   0.101  12.186 -0.0160 -0.1975  0.2760
  966MOL0     C30298   6.079   0.200  12.291  0.3977  1.2603  0.2397
  966MOL0     O30299   6.091   0.336  12.264  0.0681 -0.0230  0.3889
  966MOL0     C30300   6.164   0.417  12.343  0.2811 -0.0084 -0.7222
  966MOL0     C30301   6.211   0.390  12.475 -0.1637  0.6401 -0.5992
  966MOL0     C30302   6.278   0.492  12.549 -0.1391  0.4959 -0.7217
  966MOL0     C30303   6.315   0.463  12.687 -0.5960 -0.8876 -0.1552
  966MOL0     C30304   6.311   0.616  12.484  0.3043  0.4016  0.3268
  966MOL0     C30305   6.390   0.725  12.555 -0.6339 -0.6315 -0.5945
  966MOL0     O30306   6.485   0.698  12.655  0.5766  0.5289 -0.0034
  966MOL0     C30307   6.512   0.789  12.757  0.8141 -0.8007  0.0965
  966MOL0     C30308   6.635   0.781  12.813  0.3293 -0.0846  0.7725
  966MOL0     C30309   6.685   0.875  12.899  0.5388 -0.2401 -0.1580
  966MOL0     C30310   6.601   0.992  12.932  0.4518 -0.0550 -0.8218
  966MOL0     O30311   6.635   1.087  13.021 -0.0879 -0.2795 -0.4075
  966MOL0     C30312   6.771   1.116  13.011  0.1808 -0.5996 -0.0769
  966MOL0     C30313   6.806   1.246  13.085 -0.0394 -1.2967 -0.8307
  966MOL0     C30314   6.704   1.351  13.062 -0.0583 -0.1808  1.3227
  966MOL0     C30315   6.705   1.400  12.917 -0.6759 -0.2116  0.1913
  966MOL0     C30316   6.582   1.366  12.833 -0.0284 -0.4338 -0.4343
  966MOL0     C30317   6.439   1.396  12.884 -0.9499  0.1189 -0.7916
  966MOL0     C30318   6.400   1.538  12.882  0.3112  0.5915 -0.0944
  966MOL0     C30319   6.369   1.594  12.739  0.8637 -0.1158  0.0980
  966MOL0    Cl30320   6.235   1.496  12.683  0.2423 -0.1888 -0.5136
  966MOL0     C30321   6.472   0.998  12.879  0.3220 -0.2408  0.5023
  966MOL0     C30322   6.433   0.893  12.789  0.1809 -0.2921  0.0277
  966MOL0     O30323   6.376   0.836  12.505  0.3142  0.6064  1.0168
  966MOL0     C30324   6.262   0.646  12.353 -0.4948  0.1126  0.0647
  966MOL0     C30325   6.189   0.546  12.288  0.0987  0.1740 -0.5708
  966MOL0     N30326   5.979  -0.023  11.743 -0.3164 -0.1446  0.2020
  966MOL0     N30327   5.944   0.015  11.623 -0.4113 -0.5999 -0.3772
  966MOL0     C30328   6.663   0.661  10.964  0.1663 -0.5927 -0.3956
  966MOL0     C30329   6.779   0.747  10.967 -0.6667 -0.4009 -1.4582
  966MOL0     C30330   7.164   0.958  10.871 -0.3347 -1.5023  0.5746
  966MOL0     C30331   7.211   1.089  10.910 -0.5634 -0.1253 -0.3340
  966MOL0     C30332   7.345   1.130  10.882  1.1090  0.4731  0.1781
  966MOL0     C30333   7.436   1.046  10.808  0.7222 -1.1432 -0.2168
  966MOL0     O30334   7.563   1.083  10.783 -0.5926  0.1046  0.2423
  966MOL0     C30335   7.608   1.218  10.780 -0.5180  0.1943  0.7267
  966MOL0     C30336   7.749   1.236  10.712  0.8747  0.1583 -0.1973
  966MOL0     C30337   7.729   1.364  10.626  1.3981 -0.4824  0.0527
  966MOL0     C30338   7.867   1.407  10.580  0.1718 -0.0620  0.1722
  966MOL0     C30339   7.871   1.546  10.521 -1.0597  1.3948 -1.1231
  966MOL0     C30340   7.875   1.661  10.485 -0.3365  0.5021  0.0994
  966MOL0     C30341   7.387   0.921  10.779 -0.3274  0.5336  0.1724
  966MOL0     C30342   7.258   0.880  10.806  0.8653  0.0536  0.4193
  966MOL0     H30343   6.973   0.567  10.757  0.1839 -1.8593  0.9596
  966MOL0     H30344   6.765   0.434  10.743  2.9427 -0.0768 -1.2735
  966MOL0     H30345   6.506   0.515  11.096  2.4864  0.4629 -2.1392
  966MOL0     H30346   6.388   0.534  10.972  2.2616  5.2411  2.0561
  966MOL0     H30347   6.361   0.278  10.973  1.3366 -1.4894 -0.2831
  966MOL0     H30348   6.478   0.282  11.108  1.3414  0.2653 -3.2053
  966MOL0     H30349   6.343   0.411  11.248  1.3482 -1.3880 -1.9258
  966MOL0     H30350   6.221   0.439  11.112 -1.1545  0.1299 -0.9444
  966MOL0     H30351   6.200   0.170  11.123  0.9558 -1.7097  1.4957
  966MOL0     H30352   6.281   0.183  11.271 -3.4746  1.5942  5.5945
  966MOL0     H30353   6.126   0.330  11.358 -0.5156 -0.7901 -0.1077
  966MOL0     H30354   6.033   0.344  11.212  0.1216  1.1458 -0.0510
  966MOL0     H30355   5.977   0.097  11.233 -1.1878  2.1060 -1.2362
  966MOL0     H30356   6.073   0.086  11.378 -0.4665 -2.2130 -0.4163
  966MOL0     H30357   5.835   0.281  11.331  1.3043 -0.7668 -2.0778
  966MOL0     H30358   5.811   0.116  11.396 -1.1190 -0.3618 -1.2970
  966MOL0     H30359   5.802   0.262  11.579  0.1120  1.2147 -0.5380
  966MOL0     H30360   5.951   0.346  11.548 -0.8504  1.1816  0.2816
  966MOL0     H30361   6.077   0.293  11.736  1.4704 -1.0671  2.2818
  966MOL0     H30362   6.176  -0.014  11.942  2.0574  1.3247 -1.6434
  966MOL0     H30363   6.197   0.157  11.916  0.3412  0.2806  1.1339
  966MOL0     H30364   5.955   0.054  12.070  1.0414 -2.0930 -0.9010
  966MOL0     H30365   6.017   0.225  12.040  1.2041 -0.2703 -1.5691
  966MOL0     H30366   6.235   0.141  12.174  0.1704  0.3549  3.1689
  966MOL0     H30367   6.133   0.003  12.233 -0.8801  0.0351  0.7770
  966MOL0     H30368   6.124   0.166  12.385 -0.2585 -0.8057 -0.1421
  966MOL0     H30369   5.972   0.181  12.299  1.0560 -4.2812  0.3952
  966MOL0     H30370   6.212   0.292  12.522  0.1561 -1.3524 -4.3635
  966MOL0     H30371   6.297   0.548  12.752  2.1434  0.0365 -0.4569
  966MOL0     H30372   6.258   0.377  12.724 -3.6630 -0.1817 -2.7565
  966MOL0     H30373   6.420   0.433  12.695 -0.3727  0.0606  0.6051
  966MOL0     H30374   6.696   0.699  12.777  0.9223  1.8914 -3.2100
  966MOL0     H30375   6.787   0.873  12.936  0.3370 -1.2044  0.3609
  966MOL0     H30376   6.822   1.033  13.061  1.0518  0.3164  0.5931
  966MOL0     H30377   6.793   1.118  12.904  0.0108 -2.4993 -0.1867
  966MOL0     H30378   6.809   1.222  13.192  0.2379 -2.0010 -0.9936
  966MOL0     H30379   6.901   1.291  13.054 -0.4757 -0.6536 -1.2705
  966MOL0     H30380   6.738   1.432  13.126  2.9787  0.5324 -0.9884
  966MOL0     H30381   6.610   1.310  13.101  0.5093 -1.8989  0.9962
  966MOL0     H30382   6.705   1.510  12.921  1.7287  0.0663 -2.9970
  966MOL0     H30383   6.796   1.371  12.865 -1.8604 -2.1587 -0.9493
  966MOL0     H30384   6.591   1.258  12.813 -0.3071 -1.1923  2.9983
  966MOL0     H30385   6.593   1.419  12.738 -0.8657  2.1279  0.8132
  966MOL0     H30386   6.368   1.325  12.841  1.6266 -2.4174 -1.1616
  966MOL0     H30387   6.442   1.353  12.985  2.0511 -0.6210 -1.1224
  966MOL0     H30388   6.481   1.604  12.916  1.9793 -1.9765  1.2069
  966MOL0     H30389   6.313   1.552  12.947  0.6896 -1.7155  1.0095
  966MOL0     H30390   6.459   1.577  12.679  2.0969 -0.2071  1.8936
  966MOL0     H30391   6.336   1.698  12.736 -1.4171 -0.7954 -0.2189
  966MOL0     H30392   6.405   1.083  12.893 -0.6520 -0.8836 -0.0982
  966MOL0     H30393   6.333   0.889  12.747  0.3705  0.1878 -0.4679
  966MOL0     H30394   6.285   0.739  12.304 -0.2091 -0.0353 -0.0861
  966MOL0     H30395   6.157   0.578  12.189 -1.4908  0.6227  0.0509
  966MOL0     H30396   6.585   0.697  11.030  1.7885  0.8052  0.8455
  966MOL0     H30397   6.761   0.829  11.036 -0.4475 -2.9867  1.9303
  966MOL0     H30398   7.137   1.157  10.952 -0.5683  0.9525 -2.0209
  966MOL0     H30399   7.372   1.230  10.913  1.9740 -0.3930  2.3879
  966MOL0     H30400   7.535   1.292  10.746  0.9376  0.6751 -1.5916
  966MOL0     H30401   7.633   1.238  10.885 -1.2777  2.3476  0.5595
  966MOL0     H30402   7.771   1.157  10.640  2.1753  1.3911 -1.2263
  966MOL0     H30403   7.827   1.256  10.786  1.1763  2.6058 -1.0652
  966MOL0     H30404   7.688   1.439  10.694 -0.0393 -3.6927  3.0000
  966MOL0     H30405   7.665   1.349  10.538  0.7321 -1.5673  0.7083
  966MOL0     H30406   7.901   1.331  10.509  1.4802  2.6945 -2.3987
  966MOL0     H30407   7.925   1.399  10.673 -0.3138 -0.7427  0.4240
  966MOL0     H30408   7.890   1.762  10.452  1.1618 -0.4828 -2.4555
  966MOL0     H30409   7.454   0.854  10.726 -1.1697 -1.2256  1.2540
  966MOL0     H30410   7.224   0.778  10.793 -0.7354  0.8012 -1.6601
  967MOL0     O30411   8.909   7.462   7.701  0.1988 -0.0807  1.2247
  967MOL0     C30412   8.949   7.458   7.821 -0.2744  0.2766  0.3768
  967MOL0     O30413   8.869   7.426   7.929 -0.2936  0.0293  0.0445
  967MOL0     C30414   8.736   7.427   7.918 -0.3204 -0.1923  0.5516
  967MOL0     C30415   8.666   7.543   7.890  1.5018  0.3332 -0.9685
  967MOL0     C30416   8.523   7.527   7.869 -0.4622  0.3652 -0.0038
  967MOL0     C30417   8.458   7.412   7.917  1.0359  0.1499  0.7110
  967MOL0     O30418   8.321   7.409   7.907 -0.4869  1.4073 -0.5888
  967MOL0     C30419   8.257   7.373   8.024 -0.3507  0.0408 -1.0584
  967MOL0     C30420   8.107   7.374   7.977 -0.2553 -0.6108  0.0554
  967MOL0     C30421   8.023   7.446   8.071  0.3093  0.3357  0.0631
  967MOL0     C30422   7.869   7.454   8.034 -0.1438 -0.7371 -0.0769
  967MOL0     C30423   7.785   7.499   8.149  0.2584  0.1814 -0.6759
  967MOL0     C30424   7.740   7.380   8.245  0.0628  0.1235 -0.5264
  967MOL0     C30425   7.705   7.421   8.387 -0.0727  0.2212  0.4024
  967MOL0     C30426   7.569   7.486   8.403  0.0424  0.3982 -0.0116
  967MOL0     N30427   7.537   7.513   8.548  0.0550 -1.1876 -0.6449
  967MOL0     C30428   7.461   7.619   8.592  0.0757 -0.4956  1.2550
  967MOL0     C30429   7.429   7.578   8.711 -1.0049 -0.5233 -0.5959
  967MOL0     C30430   7.348   7.664   8.810  0.1283 -1.0696 -0.5988
  967MOL0     C30431   7.213   7.602   8.858 -0.0554  0.5392  0.1539
  967MOL0     C30432   7.100   7.627   8.759  0.4600  0.1493 -0.3984
  967MOL0     C30433   6.972   7.558   8.799  0.3900 -0.3174 -0.4722
  967MOL0     O30434   6.841   7.589   8.743  0.3860 -0.3578 -0.5572
  967MOL0     C30435   6.728   7.593   8.832 -0.3627  0.5258  0.3261
  967MOL0     C30436   6.694   7.506   8.930  0.4336  0.0857 -0.1220
  967MOL0     C30437   6.570   7.520   8.999  0.8292  0.0013 -0.1382
  967MOL0     C30438   6.542   7.417   9.101  0.5209 -0.9730  0.0296
  967MOL0     C30439   6.480   7.628   8.978 -0.2202  1.2489 -0.1751
  967MOL0     C30440   6.357   7.651   9.042  0.3412 -0.3794  0.0370
  967MOL0     O30441   6.272   7.734   8.981  0.0227 -0.2714  0.4953
  967MOL0     C30442   6.139   7.731   9.003  0.4574 -0.6121  0.0206
  967MOL0     C30443   6.072   7.754   9.128 -0.0583  0.3467 -0.4569
  967MOL0     C30444   5.938   7.724   9.144  0.7821 -0.2337 -0.0601
  967MOL0     C30445   5.853   7.718   9.024 -0.2143 -0.1309 -0.5338
  967MOL0     O30446   5.722   7.712   9.068  0.0985 -0.4744 -0.1873
  967MOL0     C30447   5.628   7.708   8.962 -0.0209 -0.1902  0.3367
  967MOL0     C30448   5.492   7.656   9.007  0.1557  0.1150 -0.4100
  967MOL0     C30449   5.495   7.503   9.041 -0.6923  0.0361  0.7153
  967MOL0     C30450   5.370   7.457   9.109 -1.0210 -0.7958 -0.2979
  967MOL0     C30451   5.339   7.303   9.088  0.6802 -0.2885  0.4424
  967MOL0     C30452   5.240   7.236   9.168  0.9125  0.4437 -0.0660
  967MOL0     C30453   5.109   7.316   9.163  1.0387  0.4106 -0.1939
  967MOL0     C30454   4.985   7.223   9.198 -0.1010 -0.6315  1.0037
  967MOL0    Cl30455   4.845   7.328   9.148  0.2748 -0.2529 -0.0894
  967MOL0     C30456   5.911   7.713   8.895  0.7352 -0.3498 -0.4395
  967MOL0     C30457   6.056   7.716   8.890 -0.4543  0.1820  0.3322
  967MOL0     O30458   6.335   7.593   9.150  0.4615 -0.0314 -0.5608
  967MOL0     C30459   6.523   7.720   8.881 -0.5056 -0.7709 -0.9021
  967MOL0     C30460   6.646   7.700   8.812  0.2156 -0.9389 -0.6577
  967MOL0     N30461   7.479   7.450   8.752 -0.6485 -0.7889  0.0232
  967MOL0     N30462   7.545   7.417   8.648  0.4490  0.4741  0.7575
  967MOL0     C30463   8.534   7.303   7.956 -0.0443 -0.6050  1.3081
  967MOL0     C30464   8.670   7.312   7.960 -0.2881  0.3019  0.0429
  967MOL0     C30465   9.091   7.480   7.855 -0.1039  0.5376  0.4742
  967MOL0     C30466   9.127   7.420   7.973  0.1768 -0.2178  0.4944
  967MOL0     C30467   9.255   7.448   8.033 -0.4289 -0.7055  0.1670
  967MOL0     C30468   9.351   7.519   7.949  0.4033  0.4741  0.1396
  967MOL0     O30469   9.478   7.545   7.979  0.3224 -0.0948  0.5532
  967MOL0     C30470   9.549   7.431   8.037 -0.1192 -0.9364 -0.1858
  967MOL0     C30471   9.701   7.452   8.048  1.0802 -1.1228 -0.4775
  967MOL0     C30472   9.779   7.464   7.915 -0.6877 -0.0164  0.4873
  967MOL0     C30473   9.756   7.601   7.836 -0.2403  0.9145 -0.4090
  967MOL0     C30474   9.876   7.637   7.760 -0.8086 -0.4715 -0.8322
  967MOL0     C30475   9.981   7.656   7.692 -0.9263 -0.2099  0.4130
  967MOL0     C30476   9.312   7.556   7.817  0.0841  0.3447 -0.0463
  967MOL0     C30477   9.185   7.534   7.766 -0.8355  0.2206 -0.0571
  967MOL0     H30478   8.704   7.642   7.867  0.3137  0.4082 -2.8874
  967MOL0     H30479   8.463   7.611   7.834 -0.1928 -0.0674 -1.6175
  967MOL0     H30480   8.289   7.272   8.052  1.3437  1.1542  1.3358
  967MOL0     H30481   8.281   7.447   8.101 -1.0390  0.5038 -1.2728
  967MOL0     H30482   8.091   7.414   7.876 -3.3769 -0.1243  0.6370
  967MOL0     H30483   8.075   7.270   7.964 -1.0726 -0.2803 -0.6610
  967MOL0     H30484   8.016   7.403   8.172 -1.2877  1.9342  0.6823
  967MOL0     H30485   8.069   7.545   8.076  1.8669 -0.3629  0.3808
  967MOL0     H30486   7.854   7.526   7.953  1.8343  0.1625  0.3041
  967MOL0     H30487   7.827   7.357   8.006 -1.3510 -1.5418  3.9900
  967MOL0     H30488   7.848   7.568   8.206  1.1359 -1.1978  0.0533
  967MOL0     H30489   7.692   7.552   8.127 -0.3385  1.3094  3.6035
  967MOL0     H30490   7.660   7.326   8.193  2.5689 -1.0014 -3.5427
  967MOL0     H30491   7.821   7.306   8.251  0.9297  1.1703  1.9500
  967MOL0     H30492   7.718   7.338   8.457  1.3877  0.2100  0.1530
  967MOL0     H30493   7.786   7.491   8.409  0.8781 -0.1156 -1.6692
  967MOL0     H30494   7.488   7.429   8.358 -1.1030  2.7737 -1.1786
  967MOL0     H30495   7.573   7.583   8.352 -2.1978  1.4321  1.6532
  967MOL0     H30496   7.422   7.707   8.542 -1.6607 -1.2777  1.1372
  967MOL0     H30497   7.406   7.668   8.902 -2.1027  3.1490  0.8938
  967MOL0     H30498   7.340   7.766   8.773 -2.3850 -1.3180 -0.9121
  967MOL0     H30499   7.198   7.643   8.959 -1.4796  1.5047 -0.4234
  967MOL0     H30500   7.233   7.495   8.868 -1.6106  0.1236 -0.8600
  967MOL0     H30501   7.128   7.583   8.663  1.8662 -1.4091  0.6671
  967MOL0     H30502   7.083   7.734   8.749  1.7577  0.3388 -0.8241
  967MOL0     H30503   6.966   7.577   8.907  0.2249  0.3871 -0.6012
  967MOL0     H30504   6.987   7.450   8.797 -1.1647 -0.5820  0.2723
  967MOL0     H30505   6.760   7.423   8.951  1.2568  0.9233  0.6720
  967MOL0     H30506   6.443   7.372   9.094  0.5999 -0.8604 -2.6996
  967MOL0     H30507   6.619   7.339   9.093  0.9243 -0.7080  1.1093
  967MOL0     H30508   6.560   7.468   9.196  1.2991 -1.7662  0.3230
  967MOL0     H30509   6.122   7.787   9.219 -3.2793 -0.8785  1.9391
  967MOL0     H30510   5.901   7.729   9.245 -0.4904 -0.9077 -0.4789
  967MOL0     H30511   5.619   7.809   8.920  0.2649 -1.1015 -2.0816
  967MOL0     H30512   5.651   7.645   8.876  2.1753 -1.2857  1.6450
  967MOL0     H30513   5.458   7.714   9.093  0.0499  0.1302 -0.4621
  967MOL0     H30514   5.427   7.675   8.921  0.8772  2.2106 -0.5451
  967MOL0     H30515   5.578   7.494   9.112 -0.4235  4.7381  1.2938
  967MOL0     H30516   5.505   7.440   8.952  1.5515  0.6594  0.4669
  967MOL0     H30517   5.382   7.477   9.216 -0.8617  0.8237 -0.5870
  967MOL0     H30518   5.284   7.520   9.083  0.0057  0.8821  0.2119
  967MOL0     H30519   5.433   7.249   9.098 -0.4729 -2.8324 -1.3356
  967MOL0     H30520   5.313   7.292   8.983  3.0976  1.3562 -0.4020
  967MOL0     H30521   5.232   7.138   9.121  2.2680  0.1390  0.3202
  967MOL0     H30522   5.265   7.219   9.272 -1.6841  0.5390  0.6536
  967MOL0     H30523   5.102   7.358   9.062  2.1675 -1.4244 -1.0953
  967MOL0     H30524   5.119   7.396   9.237  0.5829  1.6721 -1.4458
  967MOL0     H30525   4.977   7.195   9.303  1.1398 -1.9971  0.7656
  967MOL0     H30526   4.989   7.132   9.138 -1.4681  0.4633 -0.8478
  967MOL0     H30527   5.843   7.708   8.810 -2.5373 -0.2139  1.9958
  967MOL0     H30528   6.117   7.720   8.800  1.5869 -0.6846  1.5818
  967MOL0     H30529   6.473   7.817   8.878  0.0020 -0.5013 -0.8167
  967MOL0     H30530   6.663   7.769   8.730  0.5285 -1.2414 -0.8498
  967MOL0     H30531   8.482   7.211   7.982  2.0723 -1.0628  4.5684
  967MOL0     H30532   8.728   7.224   7.986 -1.0834 -0.6000 -1.1337
  967MOL0     H30533   9.066   7.343   8.019 -0.4127  0.1194  0.2884
  967MOL0     H30534   9.276   7.401   8.129  2.7451  0.1687  0.0015
  967MOL0     H30535   9.509   7.416   8.138 -0.4865 -2.1200 -0.4906
  967MOL0     H30536   9.534   7.340   7.978  0.2120 -1.3798  0.4036
  967MOL0     H30537   9.755   7.368   8.094 -0.9027 -2.0548  0.2488
  967MOL0     H30538   9.723   7.535   8.116  0.0464 -1.5279  0.3687
  967MOL0     H30539   9.742   7.382   7.853 -1.5941 -0.2577  1.3404
  967MOL0     H30540   9.887   7.455   7.932 -0.5224  1.9907  0.8162
  967MOL0     H30541   9.736   7.689   7.898 -0.4702  0.0202  0.8166
  967MOL0     H30542   9.674   7.577   7.768 -1.9927 -1.5444  2.3627
  967MOL0     H30543  10.076   7.677   7.647 -1.1702 -0.8962 -0.4549
  967MOL0     H30544   9.383   7.612   7.757 -1.4765  2.6863  0.1895
  967MOL0     H30545   9.138   7.563   7.672 -0.8169 -0.0466 -0.1510
  968MOL0     O30546   9.215   5.334   9.225  0.1779 -0.1963  0.2165
  968MOL0     C30547   9.151   5.397   9.141 -0.5350  0.8468  0.6209
  968MOL0     O30548   9.028   5.460   9.150  0.0162  0.1722 -0.5307
  968MOL0     C30549   8.949   5.462   9.268  0.0665  0.5307 -0.4983
  968MOL0     C30550   8.947   5.357   9.358  0.0046  0.3169  0.3574
  968MOL0     C30551   8.843   5.342   9.457  0.3285 -0.4835 -0.4279
  968MOL0     C30552   8.746   5.448   9.468  0.3038  0.3581 -1.6732
  968MOL0     O30553   8.644   5.448   9.564 -0.1637 -0.0106  0.1494
  968MOL0     C30554   8.611   5.322   9.624  0.1514 -0.4350  0.6605
  968MOL0     C30555   8.482   5.334   9.704  1.4220  0.5802 -0.5406
  968MOL0     C30556   8.450   5.215   9.793 -0.0316  1.0662  0.3828
  968MOL0     C30557   8.341   5.250   9.905 -0.4086  0.1168  0.4246
  968MOL0     C30558   8.272   5.109   9.942 -0.9328 -0.0810  0.1217
  968MOL0     C30559   8.197   5.130  10.076 -0.2857  0.2424  0.8438
  968MOL0     C30560   8.063   5.216  10.060  0.3374 -0.8787 -0.4194
  968MOL0     C30561   7.958   5.201  10.180  0.0455  0.9451  0.4836
  968MOL0     N30562   7.840   5.290  10.167 -1.0109  0.8334 -0.2525
  968MOL0     C30563   7.794   5.373  10.259  0.2606 -0.1925  0.0645
  968MOL0     C30564   7.680   5.428  10.206 -1.4218 -0.2635  0.4242
  968MOL0     C30565   7.583   5.532  10.253 -0.2610  0.6290  0.6240
  968MOL0     C30566   7.477   5.467  10.347  0.1223  0.1803  0.2419
  968MOL0     C30567   7.412   5.545  10.456 -0.6688 -0.6799 -0.2705
  968MOL0     C30568   7.375   5.685  10.421 -0.2669 -0.5971 -0.8438
  968MOL0     O30569   7.294   5.698  10.305 -0.2777 -0.1217 -0.1843
  968MOL0     C30570   7.240   5.817  10.274 -0.3896 -0.2362 -0.1891
  968MOL0     C30571   7.265   5.938  10.341 -1.8172  0.7224 -0.8865
  968MOL0     C30572   7.209   6.059  10.303 -0.5547  0.5544 -0.3546
  968MOL0     C30573   7.246   6.188  10.388  1.4124  1.0950  0.4366
  968MOL0     C30574   7.114   6.064  10.201 -0.4709  0.5775  0.5004
  968MOL0     C30575   7.051   6.178  10.141  0.1863  0.0526  0.6806
  968MOL0     O30576   6.933   6.152  10.071 -0.0329 -0.2042  0.1904
  968MOL0     C30577   6.895   6.224   9.960 -0.8757  0.2469  0.1555
  968MOL0     C30578   6.990   6.292   9.872  0.0788 -0.3574 -0.8859
  968MOL0     C30579   6.948   6.363   9.757 -0.1546 -0.2308  1.2978
  968MOL0     C30580   6.811   6.374   9.727  0.6035  0.3355  0.1988
  968MOL0     O30581   6.760   6.458   9.635  0.3711  0.4871 -0.5003
  968MOL0     C30582   6.697   6.576   9.686 -0.2775  0.1291 -0.2318
  968MOL0     C30583   6.711   6.688   9.588 -0.3158  0.1982  0.2855
  968MOL0     C30584   6.852   6.746   9.581  0.4105 -0.2554 -0.1768
  968MOL0     C30585   6.839   6.872   9.502 -0.4241  0.4514 -0.2362
  968MOL0     C30586   6.957   6.964   9.529  0.4463 -0.7947 -0.1438
  968MOL0     C30587   6.928   7.120   9.498  0.5053  0.4433  0.5784
  968MOL0     C30588   7.060   7.194   9.502 -0.0987 -0.0126 -0.6684
  968MOL0     C30589   7.031   7.341   9.470 -0.2787 -0.2086 -0.9347
  968MOL0    Cl30590   7.168   7.425   9.537  0.0242 -0.4325 -0.3110
  968MOL0     C30591   6.721   6.294   9.801 -0.2012  0.6219 -0.8166
  968MOL0     C30592   6.763   6.229   9.912 -0.2584 -0.4064  0.5852
  968MOL0     O30593   7.110   6.288  10.148 -0.0381  0.1383 -0.7176
  968MOL0     C30594   7.080   5.942  10.138  0.7407 -0.2877 -0.8551
  968MOL0     C30595   7.146   5.822  10.170  0.0866 -0.7415 -0.4789
  968MOL0     N30596   7.663   5.373  10.084  0.0262  0.1403  0.0991
  968MOL0     N30597   7.748   5.280  10.071 -0.5576 -0.2164 -0.0866
  968MOL0     C30598   8.755   5.561   9.392  0.0981 -0.3252  0.3065
  968MOL0     C30599   8.851   5.562   9.288  1.0352 -0.4768  0.2920
  968MOL0     C30600   9.204   5.390   9.005 -0.1281  0.1660  0.3195
  968MOL0     C30601   9.155   5.479   8.908 -0.2272 -0.6262  0.6179
  968MOL0     C30602   9.218   5.478   8.779 -0.2417  0.0935 -0.2925
  968MOL0     C30603   9.316   5.376   8.741  0.2863  0.3069 -0.0267
  968MOL0     O30604   9.374   5.357   8.623 -0.1816 -0.8019 -0.3935
  968MOL0     C30605   9.348   5.434   8.507 -0.1240  0.2002 -0.3593
  968MOL0     C30606   9.430   5.566   8.518  0.1805 -0.1400 -0.3371
  968MOL0     C30607   9.562   5.565   8.435 -0.0489 -0.7767 -0.2637
  968MOL0     C30608   9.600   5.716   8.419  0.2066 -0.3061  0.3236
  968MOL0     C30609   9.503   5.800   8.332  0.3573 -0.0580 -0.5255
  968MOL0     C30610   9.441   5.890   8.276  0.6546  0.4275  0.9246
  968MOL0     C30611   9.352   5.294   8.841 -0.2625  0.5095  0.3823
  968MOL0     C30612   9.318   5.312   8.971 -0.4498  0.3312 -0.0014
  968MOL0     H30613   9.015   5.274   9.343  3.6945  2.6357  2.7802
  968MOL0     H30614   8.854   5.254   9.520 -1.9893  1.5297  3.0631
  968MOL0     H30615   8.608   5.244   9.548 -0.4827 -0.3580  0.5961
  968MOL0     H30616   8.690   5.292   9.693  0.0570 -0.1685  0.8878
  968MOL0     H30617   8.490   5.423   9.767  2.0798  0.2169 -0.0910
  968MOL0     H30618   8.399   5.350   9.635  2.1635 -0.3757 -1.6818
  968MOL0     H30619   8.417   5.123   9.744 -0.8394 -0.0661  2.8860
  968MOL0     H30620   8.544   5.190   9.841  0.4463 -0.4724 -1.2253
  968MOL0     H30621   8.387   5.300   9.991  0.4901 -0.9211  0.5729
  968MOL0     H30622   8.265   5.314   9.859  0.1731  0.3536 -0.2285
  968MOL0     H30623   8.214   5.079   9.854 -0.4902  0.2714 -0.2955
  968MOL0     H30624   8.351   5.034   9.949 -1.4314 -0.8284 -1.6606
  968MOL0     H30625   8.159   5.031  10.104 -1.3438  0.1624 -0.7109
  968MOL0     H30626   8.263   5.170  10.154  0.2008 -0.8021  0.9863
  968MOL0     H30627   8.094   5.321  10.060  2.3016 -1.3460  2.5279
  968MOL0     H30628   8.010   5.200   9.966  2.2036 -1.8148 -1.3716
  968MOL0     H30629   8.009   5.190  10.276  0.1648 -2.7441  0.1420
  968MOL0     H30630   7.928   5.097  10.164  0.2214  1.1303 -1.1811
  968MOL0     H30631   7.846   5.398  10.351 -1.7297 -2.3747  1.9064
  968MOL0     H30632   7.638   5.608  10.308 -1.0839  0.4401  1.7515
  968MOL0     H30633   7.530   5.580  10.170  0.5953  0.3557 -0.1000
  968MOL0     H30634   7.525   5.381  10.392 -0.2659 -0.5168 -0.6457
  968MOL0     H30635   7.405   5.416  10.282 -1.9810  2.1646  0.8712
  968MOL0     H30636   7.482   5.558  10.539  1.5671 -1.1026 -1.9961
  968MOL0     H30637   7.325   5.489  10.492  1.9944 -3.6200  2.2040
  968MOL0     H30638   7.469   5.734  10.396 -1.1319  0.6310 -1.8420
  968MOL0     H30639   7.330   5.738  10.505 -1.6766 -2.8361 -0.0941
  968MOL0     H30640   7.343   5.933  10.416  0.2169 -3.4742 -2.9277
  968MOL0     H30641   7.263   6.277  10.327 -0.4242  0.8634 -0.5055
  968MOL0     H30642   7.168   6.219  10.458  1.7006  0.9251  0.8307
  968MOL0     H30643   7.335   6.165  10.446 -0.1311 -2.1224  1.8041
  968MOL0     H30644   7.091   6.285   9.913 -1.5425 -3.2575  3.3525
  968MOL0     H30645   7.021   6.420   9.699 -0.1878 -2.0108 -0.6344
  968MOL0     H30646   6.592   6.548   9.690 -0.2447 -0.2038 -1.4991
  968MOL0     H30647   6.739   6.602   9.784  0.5184  0.9143 -0.7586
  968MOL0     H30648   6.688   6.643   9.491 -1.3672  2.0446 -0.3784
  968MOL0     H30649   6.636   6.767   9.599 -0.4426  0.3514 -1.3640
  968MOL0     H30650   6.927   6.685   9.530  3.6534  1.7895  1.8025
  968MOL0     H30651   6.890   6.764   9.682 -0.5744  0.9058  0.0100
  968MOL0     H30652   6.819   6.850   9.396 -0.0256 -1.1981  0.0153
  968MOL0     H30653   6.751   6.922   9.544  1.2891  0.1869  4.0811
  968MOL0     H30654   7.038   6.939   9.459 -0.0569  1.0981 -1.5069
  968MOL0     H30655   6.986   6.962   9.634 -1.5109  0.1723  0.4676
  968MOL0     H30656   6.877   7.133   9.402 -1.2186  0.6627  1.4900
  968MOL0     H30657   6.860   7.161   9.573  2.0235  2.9137  0.6908
  968MOL0     H30658   7.135   7.151   9.434  1.8815 -1.9886  2.5018
  968MOL0     H30659   7.101   7.185   9.603 -1.1814  0.5863 -0.1578
  968MOL0     H30660   6.943   7.372   9.527  0.3438 -0.2854  0.1050
  968MOL0     H30661   7.022   7.362   9.363  0.7253  4.2618 -0.3431
  968MOL0     H30662   6.614   6.294   9.790 -0.5760  0.9017  2.0871
  968MOL0     H30663   6.685   6.171   9.960 -0.7624 -0.2603 -0.0442
  968MOL0     H30664   7.014   5.950  10.053  0.2439  0.7461 -0.3979
  968MOL0     H30665   7.133   5.734  10.108 -3.3700 -0.8270  0.1775
  968MOL0     H30666   8.681   5.639   9.401  0.9343  1.0849 -3.2198
  968MOL0     H30667   8.839   5.636   9.210 -0.9402 -1.0048  0.0479
  968MOL0     H30668   9.070   5.544   8.927  1.2294  2.0047 -1.2283
  968MOL0     H30669   9.177   5.550   8.709  2.1249 -2.5674 -4.8604
  968MOL0     H30670   9.364   5.379   8.414 -1.4630 -0.3309 -0.3118
  968MOL0     H30671   9.241   5.456   8.502  0.1116  1.4366 -0.0768
  968MOL0     H30672   9.470   5.584   8.618  2.0230 -1.7205 -0.7292
  968MOL0     H30673   9.358   5.642   8.485 -1.8882 -1.6722  0.4232
  968MOL0     H30674   9.542   5.525   8.336  0.0323 -1.1007 -0.1479
  968MOL0     H30675   9.640   5.514   8.492  0.3775  1.1287  0.9761
  968MOL0     H30676   9.701   5.732   8.382  0.0521  1.8006  0.6828
  968MOL0     H30677   9.596   5.770   8.514 -1.1313  1.4761 -0.6813
  968MOL0     H30678   9.387   5.971   8.231  4.0835  2.8914  0.8947
  968MOL0     H30679   9.431   5.227   8.810  2.1207  3.9575 -1.6940
  968MOL0     H30680   9.355   5.249   9.051  1.3848  0.3159 -0.7973
  969MOL0     O30681   9.401   7.753  10.933  0.9496  0.1914  0.3250
  969MOL0     C30682   9.470   7.763  10.835  1.3775  0.1115 -0.2412
  969MOL0     O30683   9.422   7.764  10.709  0.2318  0.2029  0.1566
  969MOL0     C30684   9.288   7.754  10.683 -0.0473 -0.7222  0.4584
  969MOL0     C30685   9.196   7.841  10.746  0.3264  0.0775 -0.1704
  969MOL0     C30686   9.061   7.845  10.695 -0.0033  0.7974  0.0452
  969MOL0     C30687   9.027   7.774  10.585 -0.1341  0.0128 -0.2461
  969MOL0     O30688   8.903   7.783  10.531  0.2634 -0.0806 -0.5376
  969MOL0     C30689   8.804   7.678  10.564  1.0235 -0.1282  0.9903
  969MOL0     C30690   8.656   7.727  10.534  0.9515  0.1929  0.6446
  969MOL0     C30691   8.613   7.862  10.596  0.2826  0.6850  0.7797
  969MOL0     C30692   8.470   7.916  10.535  0.5732 -0.0416  0.0597
  969MOL0     C30693   8.363   7.817  10.489 -0.6972  0.3179  0.4091
  969MOL0     C30694   8.235   7.882  10.440  0.2752 -0.9655 -0.2624
  969MOL0     C30695   8.143   7.773  10.399 -0.8027  0.4916  0.3076
  969MOL0     C30696   8.022   7.818  10.324 -0.4968  0.3368  0.1788
  969MOL0     N30697   8.051   7.900  10.201 -0.1284 -0.0881  0.6367
  969MOL0     C30698   8.085   7.840  10.076  0.8778  0.6333 -0.0334
  969MOL0     C30699   8.097   7.948  10.001  0.3653 -0.0683  1.3248
  969MOL0     C30700   8.123   7.944   9.849 -0.1509  0.4435  0.1428
  969MOL0     C30701   8.272   7.993   9.839  0.3446  0.8588  1.0043
  969MOL0     C30702   8.356   7.962   9.962 -0.5202  0.5606  0.5568
  969MOL0     C30703   8.506   7.990   9.932  0.6216  0.0291 -0.6008
  969MOL0     O30704   8.578   7.966  10.058  0.5476 -0.3068 -0.3863
  969MOL0     C30705   8.714   7.944  10.049  0.5254 -0.7093 -0.1875
  969MOL0     C30706   8.790   7.996   9.948 -0.7648  0.2665  0.0813
  969MOL0     C30707   8.935   7.980   9.953  0.5283 -0.4710  0.0681
  969MOL0     C30708   9.018   8.061   9.847 -1.5068 -0.1614  0.0265
  969MOL0     C30709   8.985   7.896  10.058 -0.4038  0.9050  0.1752
  969MOL0     C30710   9.131   7.862  10.063 -0.3667  0.4578  0.1771
  969MOL0     O30711   9.175   7.841  10.188 -0.2564  0.2124  0.6252
  969MOL0     C30712   9.299   7.782  10.197 -0.0725 -0.5163 -1.0432
  969MOL0     C30713   9.395   7.835  10.290  0.7574  0.4417  1.2194
  969MOL0     C30714   9.516   7.768  10.305  0.4309  0.3064  0.0899
  969MOL0     C30715   9.529   7.639  10.247 -0.2390 -0.2094  0.7503
  969MOL0     O30716   9.642   7.562  10.266  0.6274  0.9208 -0.1454
  969MOL0     C30717   9.765   7.619  10.304  0.2927 -0.5414  0.3543
  969MOL0     C30718   9.854   7.503  10.341  0.6666  0.6464 -0.8352
  969MOL0     C30719   9.814   7.463  10.483  0.2704 -0.8948  0.3549
  969MOL0     C30720   9.811   7.307  10.504  0.4770 -0.0570 -0.5925
  969MOL0     C30721   9.806   7.284  10.656  0.5098  0.3275  0.1258
  969MOL0     C30722   9.726   7.167  10.709 -0.2286  1.0544  0.9012
  969MOL0     C30723   9.742   7.152  10.858 -0.4657 -0.1910  0.1658
  969MOL0     C30724   9.639   7.049  10.906 -0.2826  0.5904  0.2830
  969MOL0    Cl30725   9.466   7.088  10.852  0.3409 -0.0797  0.1499
  969MOL0     C30726   9.434   7.583  10.160 -0.2493  0.0889 -0.0835
  969MOL0     C30727   9.320   7.652  10.137  0.1936 -0.1173 -0.6724
  969MOL0     O30728   9.191   7.849   9.961 -0.9356  0.0361 -0.5636
  969MOL0     C30729   8.900   7.829  10.152 -0.2320 -0.2002 -0.8066
  969MOL0     C30730   8.764   7.866  10.154 -0.5301 -0.1212 -0.0617
  969MOL0     N30731   8.082   8.064  10.068  0.9165 -0.7404  0.7177
  969MOL0     N30732   8.044   8.028  10.190 -1.0656  0.5848  0.4924
  969MOL0     C30733   9.116   7.697  10.524 -0.4693 -0.6509 -0.0204
  969MOL0     C30734   9.251   7.692  10.560  0.4613  0.4533  0.3936
  969MOL0     C30735   9.615   7.755  10.849 -0.2620 -0.4480  0.0899
  969MOL0     C30736   9.681   7.807  10.972  0.1251  0.0090  0.9572
  969MOL0     C30737   9.821   7.818  10.983  0.3396 -0.1418 -0.0125
  969MOL0     C30738   9.901   7.755  10.880 -0.8272  0.2591 -1.3888
  969MOL0     O30739  10.037   7.731  10.874  0.4617  0.0874 -0.5402
  969MOL0     C30740  10.116   7.815  10.956 -0.3276 -0.0903  0.3936
  969MOL0     C30741  10.268   7.810  10.907 -0.3371  0.6022 -0.1393
  969MOL0     C30742  10.306   7.907  10.795 -0.7126 -0.7452  0.4437
  969MOL0     C30743  10.270   7.852  10.659  0.0358  0.2436 -0.7627
  969MOL0     C30744  10.382   7.777  10.589 -0.1605  0.2589 -0.6950
  969MOL0     C30745  10.477   7.725  10.531 -0.0061 -0.4829 -0.6551
  969MOL0     C30746   9.834   7.709  10.762 -0.5844 -0.7215 -0.7109
  969MOL0     C30747   9.699   7.712  10.747  0.3437  0.2822  0.0899
  969MOL0     H30748   9.221   7.892  10.838 -1.3881 -0.2475  0.5101
  969MOL0     H30749   8.985   7.902  10.748 -0.3154 -0.5059  1.0449
  969MOL0     H30750   8.826   7.590  10.503 -0.2265  2.0773 -2.9775
  969MOL0     H30751   8.811   7.660  10.672 -0.0765  1.1823  1.3194
  969MOL0     H30752   8.645   7.727  10.425  2.1042 -1.5487  0.4879
  969MOL0     H30753   8.582   7.652  10.562 -1.0130  2.2078  1.2172
  969MOL0     H30754   8.595   7.853  10.704  1.3751 -0.1550  0.9085
  969MOL0     H30755   8.688   7.939  10.576 -0.8207  1.5280 -0.2915
  969MOL0     H30756   8.419   7.986  10.601 -1.9162 -1.9658  0.3151
  969MOL0     H30757   8.490   7.972  10.443  0.4639 -0.4675 -0.2303
  969MOL0     H30758   8.405   7.755  10.409  0.2845  0.8312  0.5108
  969MOL0     H30759   8.345   7.738  10.562  3.1857 -0.9433  0.2393
  969MOL0     H30760   8.187   7.944  10.516 -3.5648 -1.0177 -2.3883
  969MOL0     H30761   8.253   7.946  10.353  1.9371  0.6190  1.1572
  969MOL0     H30762   8.195   7.697  10.340  0.2336 -0.6305  2.5702
  969MOL0     H30763   8.113   7.720  10.490  0.0683 -1.2307 -0.3599
  969MOL0     H30764   7.958   7.871  10.394 -1.3053 -0.9277  0.4324
  969MOL0     H30765   7.970   7.726  10.294  1.3509 -1.0061  0.8921
  969MOL0     H30766   8.096   7.734  10.056 -3.6953 -0.6306  2.7514
  969MOL0     H30767   8.115   7.840   9.816  0.9614  0.1632  0.7110
  969MOL0     H30768   8.054   8.010   9.795  2.1074  2.5798 -0.2732
  969MOL0     H30769   8.269   8.101   9.825  1.9970  0.7209 -1.0237
  969MOL0     H30770   8.316   7.948   9.749 -0.9667  1.1053  0.2247
  969MOL0     H30771   8.339   7.860   9.996  0.3246 -0.1967 -1.2089
  969MOL0     H30772   8.328   8.028  10.045 -3.2449  0.4834 -0.1999
  969MOL0     H30773   8.519   8.090   9.890  1.6731 -1.6892 -4.8518
  969MOL0     H30774   8.539   7.910   9.865  0.8979 -3.4785  3.3006
  969MOL0     H30775   8.738   8.055   9.874 -3.2941  0.2560  1.7110
  969MOL0     H30776   9.096   8.124   9.890 -1.0394 -0.5456 -0.2426
  969MOL0     H30777   9.071   7.999   9.774  1.1542  0.2766  1.4817
  969MOL0     H30778   8.956   8.135   9.795 -1.9041 -1.2179 -1.0638
  969MOL0     H30779   9.388   7.938  10.326  2.4721  0.6031  1.1857
  969MOL0     H30780   9.578   7.816  10.380 -1.9701  3.9278  0.0462
  969MOL0     H30781   9.815   7.680  10.228 -0.0965  1.4470  1.6156
  969MOL0     H30782   9.757   7.689  10.387  0.4442 -4.0556  3.6179
  969MOL0     H30783   9.843   7.418  10.273  0.0139 -0.1455  0.2401
  969MOL0     H30784   9.959   7.529  10.357 -0.1973  2.5597  3.0187
  969MOL0     H30785   9.709   7.482  10.505  0.7823  1.2410  1.2612
  969MOL0     H30786   9.869   7.516  10.561  1.9266 -0.9942 -0.6999
  969MOL0     H30787   9.728   7.262  10.450  0.3515  0.5712 -0.9375
  969MOL0     H30788   9.900   7.269  10.453 -1.0834  1.5407 -4.9607
  969MOL0     H30789   9.758   7.377  10.687  0.3504  1.9250 -4.2343
  969MOL0     H30790   9.907   7.286  10.698  2.5824  0.8827 -4.2554
  969MOL0     H30791   9.623   7.184  10.675 -0.0865  1.4232  0.6357
  969MOL0     H30792   9.763   7.074  10.666  1.0573  0.6487  2.8028
  969MOL0     H30793   9.733   7.245  10.914  3.2555 -0.1592  1.0142
  969MOL0     H30794   9.839   7.117  10.897 -1.7324 -3.7850  0.5245
  969MOL0     H30795   9.634   7.032  11.014  0.2447 -2.5244 -0.0859
  969MOL0     H30796   9.664   6.953  10.861  0.4917 -0.6860  3.1831
  969MOL0     H30797   9.457   7.487  10.116  2.9105 -0.3153  2.1346
  969MOL0     H30798   9.245   7.609  10.071  1.1622  0.0444 -1.9049
  969MOL0     H30799   8.948   7.754  10.214  0.3301  0.8211  0.0367
  969MOL0     H30800   8.704   7.829  10.236  0.7011 -0.1001  0.8856
  969MOL0     H30801   9.087   7.626  10.448 -1.1388  0.6439 -1.0236
  969MOL0     H30802   9.329   7.636  10.508 -2.7505 -2.1672 -2.1122
  969MOL0     H30803   9.618   7.835  11.056  0.8345  1.7098  0.9699
  969MOL0     H30804   9.870   7.872  11.064  0.0226 -1.3513  1.0227
  969MOL0     H30805  10.075   7.917  10.957  2.9104  1.3879 -0.7157
  969MOL0     H30806  10.104   7.788  11.062  0.4877  0.0097  0.5201
  969MOL0     H30807  10.294   7.710  10.873 -0.0415  0.1915  1.2127
  969MOL0     H30808  10.330   7.821  10.997  0.3339  0.8438 -0.6223
  969MOL0     H30809  10.411   7.935  10.791 -0.2688 -2.2275  1.0649
  969MOL0     H30810  10.242   7.994  10.810 -1.6437 -1.0515 -1.3571
  969MOL0     H30811  10.238   7.936  10.596  1.6949  0.3163 -1.5731
  969MOL0     H30812  10.191   7.778  10.672  0.1887  0.6086  3.2263
  969MOL0     H30813  10.553   7.668  10.482 -0.5164 -2.2487  0.4939
  969MOL0     H30814   9.902   7.657  10.695 -0.1250 -0.2312 -0.6274
  969MOL0     H30815   9.659   7.690  10.648 -5.0741 -2.3059  2.4329
  970MOL0     O30816   9.823   8.739   3.228  0.2802 -0.8774  0.2674
  970MOL0     C30817   9.805   8.678   3.118  0.5481 -0.0373  0.1260
  970MOL0     O30818   9.787   8.545   3.106  0.1729  0.0301 -0.2998
  970MOL0     C30819   9.746   8.474   3.216 -0.3597  0.1122 -0.3277
  970MOL0     C30820   9.618   8.464   3.247 -0.0317  0.9881  0.4982
  970MOL0     C30821   9.573   8.373   3.357  0.8713 -0.6270  2.0277
  970MOL0     C30822   9.669   8.304   3.433  0.1757 -0.7622  0.3654
  970MOL0     O30823   9.626   8.246   3.546 -0.2332  0.6580 -0.0346
  970MOL0     C30824   9.710   8.246   3.661  0.0658  0.7347 -0.4225
  970MOL0     C30825   9.765   8.103   3.680 -0.0680 -0.2144 -0.4319
  970MOL0     C30826   9.655   8.006   3.714  0.3645 -0.6874 -0.3603
  970MOL0     C30827   9.717   7.874   3.774 -0.1763 -1.1072 -0.6374
  970MOL0     C30828   9.620   7.774   3.835 -0.1449 -0.0935 -0.2048
  970MOL0     C30829   9.504   7.728   3.733  0.6036 -0.8102 -0.5987
  970MOL0     C30830   9.444   7.604   3.791  0.2061 -0.2191  0.5218
  970MOL0     C30831   9.304   7.636   3.851  1.1477 -0.0434  0.2545
  970MOL0     N30832   9.320   7.690   3.987 -1.1760  0.4510  0.8936
  970MOL0     C30833   9.331   7.822   4.017  0.0920  0.0106 -0.7567
  970MOL0     C30834   9.349   7.824   4.148  0.6051 -0.4473  0.0119
  970MOL0     C30835   9.362   7.950   4.234 -0.1407 -0.2527 -0.2874
  970MOL0     C30836   9.479   8.031   4.188 -0.8551  0.0127  0.0981
  970MOL0     C30837   9.608   7.957   4.189  0.4250  0.2278  0.0338
  970MOL0     C30838   9.727   8.024   4.140 -0.7705  0.0123  0.4981
  970MOL0     O30839   9.835   7.939   4.149 -0.5943 -0.2264 -0.2399
  970MOL0     C30840   9.960   7.991   4.134  0.0139 -1.1739 -0.0524
  970MOL0     C30841   9.988   8.102   4.045  0.2460  0.3594 -0.0958
  970MOL0     C30842  10.118   8.158   4.042 -0.0758  1.0146  0.3589
  970MOL0     C30843  10.142   8.273   3.950  0.0632 -0.4681  0.3820
  970MOL0     C30844  10.224   8.094   4.118  0.1946  0.3802  1.1391
  970MOL0     C30845  10.367   8.149   4.113  0.6714 -0.8837 -1.0322
  970MOL0     O30846  10.455   8.068   4.182 -0.0496  0.9035 -0.6516
  970MOL0     C30847  10.588   8.094   4.216  0.1957 -0.0459  0.1803
  970MOL0     C30848  10.652   8.005   4.293  0.1834 -0.0440  0.3806
  970MOL0     C30849  10.787   8.023   4.346 -0.1774  0.0065 -0.9134
  970MOL0     C30850  10.850   8.147   4.333 -0.6475 -0.4910 -0.3028
  970MOL0     O30851  10.978   8.161   4.393  0.0563 -0.5679 -1.2929
  970MOL0     C30852  11.035   8.287   4.388 -0.8910  0.1976 -0.8313
  970MOL0     C30853  11.159   8.263   4.479 -0.0321  0.0519  0.1367
  970MOL0     C30854  11.227   8.405   4.483  0.3438 -0.2790  0.0819
  970MOL0     C30855  11.385   8.403   4.510  0.2324 -0.0362  0.0533
  970MOL0     C30856  11.450   8.533   4.542 -0.8630  0.0586  0.1991
  970MOL0     C30857  11.518   8.600   4.428  0.8235 -0.1030  0.6058
  970MOL0     C30858  11.651   8.539   4.388 -0.2060 -0.4606  0.6343
  970MOL0     C30859  11.712   8.625   4.267  0.0418 -0.0076 -0.2746
  970MOL0    Cl30860  11.795   8.772   4.337  0.2923  0.0671  0.3330
  970MOL0     C30861  10.773   8.254   4.281 -0.7538  0.7299  1.0659
  970MOL0     C30862  10.660   8.222   4.203  0.8760 -0.4620  0.7798
  970MOL0     O30863  10.390   8.259   4.070 -0.4822  0.3818  0.7250
  970MOL0     C30864  10.187   7.991   4.209  1.1177 -0.0163 -0.7479
  970MOL0     C30865  10.059   7.938   4.217 -0.2921 -0.3763 -0.5041
  970MOL0     N30866   9.366   7.696   4.196 -0.9038 -0.6015  0.2929
  970MOL0     N30867   9.346   7.613   4.097  0.9005 -0.0289 -0.3228
  970MOL0     C30868   9.803   8.313   3.385  0.4869 -0.1389 -0.3633
  970MOL0     C30869   9.840   8.391   3.274 -0.5266  0.6844  0.5668
  970MOL0     C30870   9.762   8.753   3.001  0.8082  0.1342  0.2927
  970MOL0     C30871   9.704   8.689   2.882  0.5792  0.1024 -0.3685
  970MOL0     C30872   9.681   8.770   2.767  0.5812 -0.5840  0.0359
  970MOL0     C30873   9.709   8.909   2.767  0.3124  0.1671  0.5428
  970MOL0     O30874   9.664   8.991   2.664 -1.0217  0.4460 -0.2955
  970MOL0     C30875   9.583   8.935   2.562  0.0550 -0.2360 -0.3816
  970MOL0     C30876   9.558   9.061   2.473  0.8905 -0.8695 -0.1773
  970MOL0     C30877   9.463   9.041   2.358 -0.5885 -0.5088 -0.5770
  970MOL0     C30878   9.316   9.076   2.393 -0.4700  0.0335 -0.5104
  970MOL0     C30879   9.245   9.062   2.272 -0.7718 -0.2991  0.5806
  970MOL0     C30880   9.182   9.071   2.169  0.0851 -0.3717  0.5930
  970MOL0     C30881   9.769   8.962   2.883  0.0079  0.2227  0.3149
  970MOL0     C30882   9.796   8.884   2.997 -0.1915  0.6807 -0.7609
  970MOL0     H30883   9.552   8.536   3.200 -3.0634 -0.8778  1.6298
  970MOL0     H30884   9.470   8.383   3.389 -0.3481 -2.5058 -0.9317
  970MOL0     H30885   9.787   8.323   3.653  2.8455 -1.8997 -0.8195
  970MOL0     H30886   9.657   8.272   3.753  0.6048  0.3075  0.0153
  970MOL0     H30887   9.817   8.065   3.591  0.0745 -1.3602  0.1241
  970MOL0     H30888   9.842   8.118   3.756  1.5589  3.0274 -2.4861
  970MOL0     H30889   9.579   8.037   3.786 -1.1141 -1.3624 -1.5393
  970MOL0     H30890   9.595   7.980   3.626 -1.4237 -1.1385  0.9334
  970MOL0     H30891   9.776   7.822   3.698 -1.7298 -1.5628 -1.5810
  970MOL0     H30892   9.791   7.899   3.850  2.6357 -5.9738 -1.3274
  970MOL0     H30893   9.673   7.687   3.876  0.3098 -1.5039 -3.4361
  970MOL0     H30894   9.576   7.829   3.918  0.7367  0.0689  0.1593
  970MOL0     H30895   9.441   7.815   3.713  2.4913  1.0319  0.9039
  970MOL0     H30896   9.560   7.717   3.640 -0.9588 -2.7399 -1.3785
  970MOL0     H30897   9.428   7.536   3.707  0.1326  1.1904 -0.6441
  970MOL0     H30898   9.504   7.551   3.865  1.0289 -0.1325 -0.0705
  970MOL0     H30899   9.244   7.545   3.842 -1.0848  1.4147 -0.4781
  970MOL0     H30900   9.249   7.704   3.784 -0.9616 -1.1946  0.7478
  970MOL0     H30901   9.327   7.906   3.947 -0.3269 -1.6821 -2.8735
  970MOL0     H30902   9.274   8.015   4.231  1.7124  2.4685  0.3651
  970MOL0     H30903   9.376   7.920   4.338 -2.1241  1.4624  0.5471
  970MOL0     H30904   9.478   8.122   4.250  0.4362  0.4997 -0.5748
  970MOL0     H30905   9.465   8.045   4.080  1.8360 -0.6467 -0.3932
  970MOL0     H30906   9.599   7.858   4.143 -0.5239 -0.5995  1.9314
  970MOL0     H30907   9.634   7.933   4.292  0.0649 -0.7749 -0.0957
  970MOL0     H30908   9.734   8.121   4.191 -0.5229  2.5828 -3.8966
  970MOL0     H30909   9.696   8.040   4.036 -2.0322 -2.6603  0.3778
  970MOL0     H30910   9.913   8.158   3.990  0.3044  0.2628 -0.2731
  970MOL0     H30911  10.235   8.259   3.894 -0.7969  3.1463 -2.3112
  970MOL0     H30912  10.064   8.298   3.877 -1.0932  2.1406  2.3468
  970MOL0     H30913  10.150   8.371   3.998  0.3396  0.2938 -1.1689
  970MOL0     H30914  10.588   7.920   4.313 -2.0987  1.6601  0.7341
  970MOL0     H30915  10.837   7.940   4.397 -2.8945  0.2495  2.4607
  970MOL0     H30916  11.056   8.321   4.287 -1.7584 -0.4470 -1.2415
  970MOL0     H30917  10.968   8.358   4.437  0.8641  1.3300  0.0296
  970MOL0     H30918  11.121   8.231   4.577 -1.5513 -0.4591 -0.5869
  970MOL0     H30919  11.228   8.190   4.436 -0.3556  1.9658 -4.0839
  970MOL0     H30920  11.169   8.467   4.553 -1.2258 -4.1031  2.5184
  970MOL0     H30921  11.211   8.448   4.384 -3.2753  2.7440  1.7085
  970MOL0     H30922  11.396   8.331   4.592  2.7091  0.2462  0.0519
  970MOL0     H30923  11.431   8.349   4.426  3.1356 -0.1904  1.6139
  970MOL0     H30924  11.534   8.517   4.609  0.0924  1.8356 -0.5139
  970MOL0     H30925  11.379   8.597   4.595 -2.6848 -2.6680  1.2650
  970MOL0     H30926  11.454   8.607   4.339  2.0450 -1.5676 -0.4419
  970MOL0     H30927  11.532   8.701   4.466 -0.8732  1.8613 -3.3461
  970MOL0     H30928  11.627   8.439   4.350  1.4004 -1.1916  1.4595
  970MOL0     H30929  11.729   8.535   4.464  2.6758  2.4711 -1.8788
  970MOL0     H30930  11.624   8.653   4.209  0.4890 -0.4271 -1.1599
  970MOL0     H30931  11.783   8.566   4.210 -2.7011 -2.6843 -1.2160
  970MOL0     H30932  10.815   8.354   4.278  1.0433 -0.0043 -0.4304
  970MOL0     H30933  10.622   8.316   4.166  2.7982 -0.1729 -0.6050
  970MOL0     H30934  10.252   7.962   4.290 -1.1886  0.2328  1.3072
  970MOL0     H30935  10.031   7.871   4.298 -0.0407  1.3718  1.0954
  970MOL0     H30936   9.880   8.261   3.441  3.0353  2.3791 -1.2798
  970MOL0     H30937   9.940   8.391   3.233 -1.7924  0.8750 -2.9007
  970MOL0     H30938   9.667   8.587   2.877  1.3513 -0.1882 -0.3084
  970MOL0     H30939   9.638   8.726   2.678  0.4614  0.0610 -0.2262
  970MOL0     H30940   9.640   8.868   2.497 -1.0653 -1.7462  0.1440
  970MOL0     H30941   9.492   8.887   2.600 -1.0458  2.6681  0.9811
  970MOL0     H30942   9.659   9.096   2.447  1.1410 -2.2692 -1.2203
  970MOL0     H30943   9.513   9.137   2.537  0.8765 -0.2943 -0.8584
  970MOL0     H30944   9.477   8.937   2.327 -4.8459 -1.1139 -1.1517
  970MOL0     H30945   9.513   9.109   2.289  3.0072 -0.2681  2.0243
  970MOL0     H30946   9.296   9.175   2.437  1.3636 -0.2927  1.1509
  970MOL0     H30947   9.275   9.006   2.466  0.1955 -0.1045 -0.2693
  970MOL0     H30948   9.148   9.068   2.067 -0.5997  0.8590  0.7705
  970MOL0     H30949   9.795   9.065   2.904 -0.9744  0.5605 -0.0423
  970MOL0     H30950   9.834   8.944   3.079  0.0368  1.9705 -1.7704
  971MOL0     O30951   7.805   5.876   4.887 -0.8601 -1.1832 -0.9835
  971MOL0     C30952   7.821   5.965   4.974 -0.7675  0.5161 -0.6751
  971MOL0     O30953   7.940   6.004   5.032  0.4392  0.8182 -0.0278
  971MOL0     C30954   8.045   5.919   5.039  0.3798  0.1938 -0.5415
  971MOL0     C30955   8.068   5.788   4.985  0.5452  0.1978 -0.4467
  971MOL0     C30956   8.179   5.714   5.016 -0.9137 -0.8075  0.0881
  971MOL0     C30957   8.288   5.770   5.092  0.2770  0.0418  0.3935
  971MOL0     O30958   8.401   5.679   5.103 -0.8659 -0.1018  0.5064
  971MOL0     C30959   8.538   5.732   5.120 -0.1060  0.7186  0.1621
  971MOL0     C30960   8.629   5.636   5.050 -0.3810 -0.4168  0.7815
  971MOL0     C30961   8.775   5.663   5.087 -0.5654  0.0927 -0.2460
  971MOL0     C30962   8.873   5.624   4.981  0.8652 -0.6327 -0.0207
  971MOL0     C30963   9.016   5.678   5.010  0.2383 -0.1824 -0.5843
  971MOL0     C30964   9.100   5.692   4.888 -0.3496  0.4777  0.2289
  971MOL0     C30965   9.090   5.583   4.789 -0.8689  0.0561  0.0945
  971MOL0     C30966   9.200   5.593   4.692  0.1138 -0.4124  0.0339
  971MOL0     N30967   9.181   5.513   4.569  0.2139  0.0077 -0.6634
  971MOL0     C30968   9.234   5.391   4.550 -0.6633 -0.8881  0.2515
  971MOL0     C30969   9.184   5.356   4.425 -0.7902  0.3796  0.0045
  971MOL0     C30970   9.201   5.216   4.366  0.2495 -0.5963  0.3234
  971MOL0     C30971   9.077   5.119   4.345 -0.1789 -0.4434 -0.9509
  971MOL0     C30972   9.123   5.007   4.242  0.2202 -0.1101 -0.5562
  971MOL0     C30973   8.986   4.936   4.200 -0.6399  0.0825 -0.6743
  971MOL0     O30974   8.927   4.864   4.314  0.8949  1.1207 -0.0002
  971MOL0     C30975   8.789   4.878   4.327 -0.5015  0.4883 -0.6233
  971MOL0     C30976   8.706   4.766   4.304  0.1146 -0.5245  0.0643
  971MOL0     C30977   8.573   4.754   4.331 -0.7327  0.3360  0.2507
  971MOL0     C30978   8.516   4.612   4.317 -0.1768  0.3887  1.1963
  971MOL0     C30979   8.514   4.864   4.399  0.3400 -0.6277  0.5229
  971MOL0     C30980   8.369   4.868   4.440 -0.3666  0.2955  0.3296
  971MOL0     O30981   8.334   4.963   4.533  0.6870  0.7808  0.2777
  971MOL0     C30982   8.203   4.974   4.565 -0.0997 -0.3065 -0.0988
  971MOL0     C30983   8.147   5.101   4.544  0.5420  0.8417  0.2565
  971MOL0     C30984   8.006   5.120   4.563 -0.3164  0.3700 -0.0821
  971MOL0     C30985   7.929   5.015   4.618  0.5939 -0.9422  0.5295
  971MOL0     O30986   7.792   5.021   4.618  0.0229  0.6458  0.2730
  971MOL0     C30987   7.737   5.146   4.603  0.1775 -0.1539  0.4116
  971MOL0     C30988   7.587   5.151   4.643  0.1314 -0.7333  0.6764
  971MOL0     C30989   7.536   5.292   4.616 -0.7419 -0.3937  0.5295
  971MOL0     C30990   7.386   5.310   4.638  0.6705 -0.5762 -0.3340
  971MOL0     C30991   7.328   5.444   4.590 -0.1380  0.6410  0.1608
  971MOL0     C30992   7.173   5.437   4.572  0.2191  0.0772  0.3191
  971MOL0     C30993   7.123   5.342   4.462 -0.5946  0.0801 -0.4169
  971MOL0     C30994   6.979   5.374   4.430 -1.1938 -1.2131  0.2106
  971MOL0    Cl30995   6.909   5.241   4.332  0.4899 -0.0561 -0.3220
  971MOL0     C30996   7.988   4.897   4.669 -0.6059 -0.4017  0.4628
  971MOL0     C30997   8.125   4.870   4.630  0.1584 -0.9051  0.6181
  971MOL0     O30998   8.291   4.793   4.382 -0.5159  0.1376  0.1333
  971MOL0     C30999   8.591   4.978   4.418 -1.0601 -0.2188 -0.2897
  971MOL0     C31000   8.727   4.985   4.392 -0.9493 -0.0550  0.5098
  971MOL0     N31001   9.104   5.460   4.381  0.6447  0.0058  1.3953
  971MOL0     N31002   9.111   5.556   4.458 -1.2010 -0.4113 -0.1371
  971MOL0     C31003   8.271   5.905   5.147 -0.0068 -0.0009 -0.1630
  971MOL0     C31004   8.145   5.969   5.124 -0.3543 -0.5444  0.0961
  971MOL0     C31005   7.715   6.059   5.006 -1.0197  0.2851 -0.2698
  971MOL0     C31006   7.735   6.186   5.061 -0.0453 -0.2877  0.1832
  971MOL0     C31007   7.621   6.278   5.080 -0.7840  0.3252  0.0449
  971MOL0     C31008   7.494   6.230   5.066 -0.7300  0.2013 -0.2817
  971MOL0     O31009   7.388   6.314   5.074 -1.3043  0.4316  0.5978
  971MOL0     C31010   7.373   6.392   4.954 -0.4966  0.0815 -0.7884
  971MOL0     C31011   7.224   6.394   4.916 -0.2146  0.6735  0.0691
  971MOL0     C31012   7.131   6.447   5.024 -0.4702 -0.8554 -0.6351
  971MOL0     C31013   7.172   6.591   5.064  0.9442  0.1139 -0.5778
  971MOL0     C31014   7.073   6.648   5.156  0.7040  1.2201 -0.0278
  971MOL0     C31015   6.999   6.710   5.228 -0.4467  0.3514  0.1848
  971MOL0     C31016   7.475   6.098   5.026 -0.3972  0.1648  0.2219
  971MOL0     C31017   7.584   6.012   4.991  0.5953 -0.1208 -0.7976
  971MOL0     H31018   7.984   5.747   4.930  0.3047 -2.1152  1.4654
  971MOL0     H31019   8.187   5.615   4.973 -0.6962 -0.2550 -1.1716
  971MOL0     H31020   8.559   5.826   5.068 -0.3293 -0.7268 -2.7674
  971MOL0     H31021   8.561   5.740   5.226 -0.7172 -3.6329  0.8181
  971MOL0     H31022   8.605   5.533   5.077 -1.6883 -0.1884  0.5830
  971MOL0     H31023   8.609   5.645   4.942 -1.6354 -4.7100  0.4876
  971MOL0     H31024   8.785   5.769   5.111  0.9647 -0.4720  1.8860
  971MOL0     H31025   8.797   5.612   5.182 -2.7888 -0.6446 -0.0646
  971MOL0     H31026   8.863   5.516   4.976  3.5331 -0.8808 -3.6450
  971MOL0     H31027   8.831   5.663   4.888  0.1220 -1.8018 -0.1887
  971MOL0     H31028   9.017   5.775   5.060 -3.0669 -0.8987  1.1950
  971MOL0     H31029   9.064   5.613   5.084 -0.9095  0.6106  0.9136
  971MOL0     H31030   9.072   5.785   4.838 -0.5628 -0.9247 -2.4344
  971MOL0     H31031   9.200   5.695   4.932 -0.8101 -1.1198  1.4696
  971MOL0     H31032   9.096   5.488   4.844  0.4828  0.2542  0.3228
  971MOL0     H31033   8.990   5.580   4.746  0.2252 -0.1797 -2.6233
  971MOL0     H31034   9.299   5.566   4.731  1.5399  1.9241 -1.6783
  971MOL0     H31035   9.203   5.698   4.664 -2.3017  0.3233  2.2180
  971MOL0     H31036   9.306   5.339   4.611  1.5553 -0.4274 -1.8423
  971MOL0     H31037   9.232   5.251   4.267 -2.2104  0.1033 -0.2834
  971MOL0     H31038   9.284   5.161   4.410  0.3817 -0.9329 -0.3408
  971MOL0     H31039   8.994   5.173   4.299  0.3326  1.2847  0.0725
  971MOL0     H31040   9.041   5.075   4.439  2.8020 -0.9926  0.0492
  971MOL0     H31041   9.188   4.934   4.290 -1.1859 -0.9112  0.2069
  971MOL0     H31042   9.165   5.051   4.151 -0.8207  0.7877 -0.6233
  971MOL0     H31043   9.006   4.861   4.123  0.1595 -0.1155 -0.2896
  971MOL0     H31044   8.922   5.007   4.148 -0.2648 -0.4536 -1.9134
  971MOL0     H31045   8.754   4.678   4.262 -0.5988 -2.8527  3.7117
  971MOL0     H31046   8.543   4.547   4.400 -4.2658 -0.4516  2.1132
  971MOL0     H31047   8.407   4.610   4.326 -0.4740 -0.1168 -1.5386
  971MOL0     H31048   8.545   4.559   4.226  0.0516 -0.6099  1.8340
  971MOL0     H31049   8.205   5.176   4.492  1.3301  0.0950  0.0270
  971MOL0     H31050   7.970   5.212   4.519  1.3992  0.7137 -0.8512
  971MOL0     H31051   7.795   5.209   4.671  2.8562 -1.2781 -0.6829
  971MOL0     H31052   7.742   5.180   4.500 -2.1481 -2.2825 -0.5146
  971MOL0     H31053   7.524   5.084   4.583 -0.9891  0.4588  0.4740
  971MOL0     H31054   7.581   5.112   4.745 -0.8415 -2.6303 -0.0450
  971MOL0     H31055   7.565   5.314   4.513  0.2245 -1.0150  0.6606
  971MOL0     H31056   7.590   5.362   4.680  0.0148 -1.0723  0.6464
  971MOL0     H31057   7.340   5.228   4.583 -2.4782 -0.7938  2.2941
  971MOL0     H31058   7.366   5.297   4.745  2.4932  0.5992  0.2106
  971MOL0     H31059   7.378   5.475   4.497 -0.9631  0.1198 -0.4693
  971MOL0     H31060   7.354   5.522   4.662 -0.9745 -1.2103  2.6320
  971MOL0     H31061   7.124   5.411   4.667 -2.3882  0.0592 -0.9666
  971MOL0     H31062   7.145   5.540   4.549  0.9714 -0.1588 -1.9076
  971MOL0     H31063   7.121   5.240   4.501 -3.5242 -0.2254 -1.1674
  971MOL0     H31064   7.193   5.355   4.378  1.0241 -0.4216  0.8106
  971MOL0     H31065   6.973   5.466   4.372 -2.8030 -2.0461 -1.0399
  971MOL0     H31066   6.931   5.385   4.527  0.2372 -1.3314  0.9605
  971MOL0     H31067   7.933   4.818   4.717  1.0215 -2.7944 -1.3624
  971MOL0     H31068   8.179   4.778   4.648  1.0534 -0.2461  1.3739
  971MOL0     H31069   8.553   5.072   4.455  0.9236  0.7277 -0.5038
  971MOL0     H31070   8.783   5.076   4.412 -3.3644  2.3168 -2.6080
  971MOL0     H31071   8.354   5.954   5.197 -0.2827 -1.2419  1.6048
  971MOL0     H31072   8.131   6.070   5.163 -0.7766  1.0509 -3.6943
  971MOL0     H31073   7.835   6.225   5.082 -0.7323  0.6389  1.9285
  971MOL0     H31074   7.643   6.375   5.123 -0.0196  0.3160 -0.2992
  971MOL0     H31075   7.420   6.488   4.976  0.9412 -0.1670 -2.5213
  971MOL0     H31076   7.426   6.363   4.863 -0.1143  2.4953 -1.3916
  971MOL0     H31077   7.204   6.287   4.906 -0.7705  0.8175 -0.4432
  971MOL0     H31078   7.212   6.440   4.817  0.0871  0.3159 -0.1349
  971MOL0     H31079   7.139   6.373   5.104 -0.5122 -0.0411  0.1290
  971MOL0     H31080   7.030   6.451   4.982  0.2407 -1.8085 -2.5929
  971MOL0     H31081   7.167   6.654   4.974 -1.3138 -0.7057 -1.1099
  971MOL0     H31082   7.277   6.588   5.093  0.6332  0.9111  0.7386
  971MOL0     H31083   6.934   6.779   5.279  0.8000  0.8424  1.1494
  971MOL0     H31084   7.376   6.059   5.005  0.1728  0.5958 -4.0242
  971MOL0     H31085   7.556   5.924   4.934 -2.5806  1.5482 -2.0602
  972MOL0     O31086   6.435   8.991   7.740 -0.3675  0.2432  0.0949
  972MOL0     C31087   6.453   9.017   7.860  0.0106 -1.4960 -0.8269
  972MOL0     O31088   6.554   8.981   7.941 -0.3726 -0.2442  0.1298
  972MOL0     C31089   6.670   8.926   7.885  0.0017  0.1036  0.1324
  972MOL0     C31090   6.713   8.903   7.753 -0.0869  0.6426  0.6735
  972MOL0     C31091   6.841   8.854   7.726 -0.3741  0.6360 -0.2204
  972MOL0     C31092   6.927   8.818   7.825  0.2177  0.7704 -0.5193
  972MOL0     O31093   7.050   8.766   7.786  0.0519  0.5992  0.4251
  972MOL0     C31094   7.154   8.751   7.883  0.0679  0.4640 -0.0372
  972MOL0     C31095   7.271   8.681   7.809 -0.1044 -0.1484  0.2975
  972MOL0     C31096   7.413   8.681   7.874  0.2526  0.1004 -0.3819
  972MOL0     C31097   7.464   8.825   7.861 -0.1502  0.5140 -0.5450
  972MOL0     C31098   7.598   8.851   7.940 -0.5073  0.5422  0.6618
  972MOL0     C31099   7.714   8.759   7.894 -0.2793  0.6159 -0.1199
  972MOL0     C31100   7.855   8.789   7.951  0.1299  0.1238  0.1596
  972MOL0     C31101   7.859   8.820   8.102  0.5989 -0.0955  0.7138
  972MOL0     N31102   7.996   8.824   8.151 -0.7550 -0.2206  0.4238
  972MOL0     C31103   8.077   8.934   8.168 -1.2107 -0.2582  0.0068
  972MOL0     C31104   8.195   8.891   8.232  1.1428  0.4897  1.5447
  972MOL0     C31105   8.322   8.962   8.278  0.0072  0.1670  0.6344
  972MOL0     C31106   8.305   9.046   8.407  0.1351 -0.1109  0.8413
  972MOL0     C31107   8.436   9.110   8.440 -0.2627  0.1118  0.2987
  972MOL0     C31108   8.425   9.217   8.549 -0.0903 -0.5072 -0.1119
  972MOL0     O31109   8.330   9.325   8.544  0.5090  0.4374  0.0801
  972MOL0     C31110   8.310   9.420   8.652 -0.8700  0.9269  0.0628
  972MOL0     C31111   8.396   9.417   8.758 -0.0950  0.2612 -0.6128
  972MOL0     C31112   8.388   9.508   8.869  0.1173 -0.5405 -0.6065
  972MOL0     C31113   8.495   9.489   8.973 -0.5422 -0.5797 -0.0502
  972MOL0     C31114   8.292   9.605   8.868 -0.0819  0.6941  0.2120
  972MOL0     C31115   8.284   9.714   8.965  0.0558  0.5614  0.3967
  972MOL0     O31116   8.241   9.838   8.911  0.5947  1.6004  0.1487
  972MOL0     C31117   8.212   9.939   8.999 -0.4196  0.2733 -0.1345
  972MOL0     C31118   8.087   9.999   8.983 -0.3670 -1.0054  0.3755
  972MOL0     C31119   8.068  10.113   9.055  0.5169 -0.3262  0.6917
  972MOL0     C31120   8.165  10.185   9.137  0.5013 -0.7959 -0.3859
  972MOL0     O31121   8.121  10.297   9.191 -0.2173  0.1530 -0.0884
  972MOL0     C31122   8.201  10.373   9.290 -0.1395  0.2638  0.7290
  972MOL0     C31123   8.171  10.526   9.283  0.4905  0.1767  0.9079
  972MOL0     C31124   8.251  10.617   9.373  1.0359  0.1692 -0.0105
  972MOL0     C31125   8.275  10.581   9.511 -0.0433  0.5361  0.0062
  972MOL0     C31126   8.374  10.676   9.577  0.2795  0.1955 -0.1780
  972MOL0     C31127   8.524  10.638   9.582  0.0759 -0.3956  0.3903
  972MOL0     C31128   8.544  10.514   9.668  0.4964  0.2706 -0.2088
  972MOL0     C31129   8.695  10.464   9.666 -0.3284  0.6303 -0.2104
  972MOL0    Cl31130   8.798  10.594   9.748 -0.2113 -0.4850  0.1994
  972MOL0     C31131   8.290  10.118   9.151  0.5369  0.2748 -0.0411
  972MOL0     C31132   8.319   9.991   9.080 -0.4991 -0.0291 -0.1747
  972MOL0     O31133   8.301   9.698   9.088 -0.6648 -0.4396 -0.3049
  972MOL0     C31134   8.204   9.617   8.757 -0.5030 -0.1927 -0.3705
  972MOL0     C31135   8.217   9.524   8.650 -1.1763 -0.4864 -0.0127
  972MOL0     N31136   8.177   8.756   8.257  0.2737 -0.2510  0.0909
  972MOL0     N31137   8.058   8.720   8.205 -0.4894 -0.0357 -0.4235
  972MOL0     C31138   6.888   8.841   7.953  0.0447  0.0119 -0.8588
  972MOL0     C31139   6.761   8.888   7.986 -0.0852 -0.6413 -0.6369
  972MOL0     C31140   6.364   9.120   7.912 -0.0383  1.0210 -0.1110
  972MOL0     C31141   6.259   9.173   7.841 -0.7409 -0.0712  0.5159
  972MOL0     C31142   6.151   9.246   7.898 -0.3664 -0.9942 -0.0009
  972MOL0     C31143   6.163   9.296   8.025 -0.4089 -0.5253 -0.1625
  972MOL0     O31144   6.062   9.376   8.076 -0.0635 -0.1739  0.4605
  972MOL0     C31145   6.056   9.422   8.217 -0.8847 -0.6847  0.7997
  972MOL0     C31146   5.964   9.337   8.298 -0.5034 -0.2713 -0.2300
  972MOL0     C31147   6.010   9.193   8.310 -0.3283  0.3993 -0.0964
  972MOL0     C31148   5.912   9.098   8.381 -0.8057 -0.3531  0.5292
  972MOL0     C31149   5.934   9.117   8.521 -1.0955 -0.5336  0.3061
  972MOL0     C31150   5.963   9.128   8.635 -0.6426  0.2602 -0.8847
  972MOL0     C31151   6.283   9.259   8.096  0.3283  1.1385 -0.1897
  972MOL0     C31152   6.378   9.173   8.038  0.6500  0.3092  0.2492
  972MOL0     H31153   6.645   8.901   7.669 -1.2295 -0.0234  1.5805
  972MOL0     H31154   6.874   8.841   7.623 -0.2641  1.2635 -0.2680
  972MOL0     H31155   7.197   8.843   7.926  0.0245 -0.2564  1.6443
  972MOL0     H31156   7.128   8.700   7.977  1.2287 -0.8607 -0.4063
  972MOL0     H31157   7.244   8.576   7.793 -0.5133 -0.8444  4.3459
  972MOL0     H31158   7.280   8.732   7.713  0.1406 -1.4861 -0.4078
  972MOL0     H31159   7.396   8.648   7.977  1.7368 -4.5897 -1.3917
  972MOL0     H31160   7.487   8.615   7.827  1.7159 -0.0360  1.9618
  972MOL0     H31161   7.486   8.841   7.755  0.4086 -3.4770 -1.1982
  972MOL0     H31162   7.388   8.896   7.896  0.8500  0.8952  0.9285
  972MOL0     H31163   7.621   8.956   7.922 -6.9253  2.4275  1.1393
  972MOL0     H31164   7.586   8.823   8.045  2.5886  0.6561  1.1604
  972MOL0     H31165   7.687   8.656   7.920  1.9730  0.1645  0.6569
  972MOL0     H31166   7.716   8.772   7.786 -0.9096 -0.2795 -0.2466
  972MOL0     H31167   7.903   8.692   7.938 -3.2326 -1.5326 -1.0918
  972MOL0     H31168   7.915   8.867   7.902 -0.0629  0.2598  0.1369
  972MOL0     H31169   7.789   8.751   8.150 -2.1658  2.3551  0.4744
  972MOL0     H31170   7.821   8.919   8.127 -1.0699 -0.6813  0.6233
  972MOL0     H31171   8.055   9.035   8.133  0.2777 -0.4006 -1.5061
  972MOL0     H31172   8.388   8.881   8.309 -1.0494 -0.5411  1.0930
  972MOL0     H31173   8.366   9.012   8.191 -0.7345  1.5662  1.0342
  972MOL0     H31174   8.258   8.997   8.492 -0.6689 -0.4272  0.2360
  972MOL0     H31175   8.236   9.127   8.378  0.0486 -0.3664  0.3206
  972MOL0     H31176   8.475   9.163   8.352  1.3806 -0.0291  0.9109
  972MOL0     H31177   8.501   9.024   8.456 -3.0520 -3.3347 -4.1368
  972MOL0     H31178   8.520   9.270   8.542 -0.4093 -0.1616 -4.7743
  972MOL0     H31179   8.418   9.183   8.653  2.8545  1.7203  0.9678
  972MOL0     H31180   8.478   9.348   8.778  0.0933  1.0320  1.6539
  972MOL0     H31181   8.516   9.590   9.008 -1.7770  1.6575 -4.8746
  972MOL0     H31182   8.459   9.426   9.054 -0.9801 -0.6914 -0.3258
  972MOL0     H31183   8.590   9.444   8.941 -0.4006 -0.2147 -0.1487
  972MOL0     H31184   8.016   9.953   8.914 -2.3159 -5.0011  4.5110
  972MOL0     H31185   7.978  10.170   9.039  1.0546  0.4736  0.4440
  972MOL0     H31186   8.185  10.341   9.394  0.7253 -1.5374  0.3473
  972MOL0     H31187   8.309  10.367   9.280  0.2861 -0.1584  4.1932
  972MOL0     H31188   8.174  10.562   9.180 -0.4399  4.2328  2.1211
  972MOL0     H31189   8.066  10.532   9.313  0.4901  2.2554  0.6551
  972MOL0     H31190   8.210  10.718   9.365  2.4696  0.8112  0.3917
  972MOL0     H31191   8.348  10.622   9.322  0.5636  2.4434 -0.8052
  972MOL0     H31192   8.184  10.580   9.572  1.1109  1.5501  1.8038
  972MOL0     H31193   8.320  10.482   9.517  2.9672  1.9124  2.6675
  972MOL0     H31194   8.341  10.678   9.682  0.1301  1.9950 -0.2429
  972MOL0     H31195   8.348  10.775   9.539 -2.0662 -1.2928 -2.8929
  972MOL0     H31196   8.552  10.618   9.479 -0.3171  0.6062  0.0778
  972MOL0     H31197   8.581  10.727   9.613  0.5703  0.6762 -3.2061
  972MOL0     H31198   8.471  10.433   9.653  1.5408 -0.5811 -0.8851
  972MOL0     H31199   8.526  10.542   9.772  0.0798 -4.3758  1.2268
  972MOL0     H31200   8.729  10.447   9.564 -3.8736 -0.2495 -1.4176
  972MOL0     H31201   8.701  10.371   9.724 -1.5610  0.6952  0.0498
  972MOL0     H31202   8.363  10.175   9.207  0.5027 -0.4842  0.8111
  972MOL0     H31203   8.415   9.943   9.090 -0.5314 -0.2290 -0.8033
  972MOL0     H31204   8.138   9.702   8.743  1.8779  1.8278  0.0189
  972MOL0     H31205   8.154   9.540   8.563 -0.3866  0.1074 -0.4778
  972MOL0     H31206   6.948   8.826   8.043 -2.0325 -0.1088  0.5800
  972MOL0     H31207   6.733   8.915   8.088 -3.5568 -0.6973 -1.4310
  972MOL0     H31208   6.254   9.146   7.736 -0.2574  0.0040  0.4703
  972MOL0     H31209   6.068   9.271   7.834 -0.3955  3.3453  1.4065
  972MOL0     H31210   6.157   9.427   8.259  0.2103  1.0229 -1.7736
  972MOL0     H31211   6.021   9.526   8.221 -1.7414 -0.8925 -0.4123
  972MOL0     H31212   5.867   9.337   8.249 -1.2960 -0.3649  1.2809
  972MOL0     H31213   5.948   9.381   8.397 -0.3237  2.0109 -1.1496
  972MOL0     H31214   6.110   9.181   8.352  0.3565 -1.2654 -2.0724
  972MOL0     H31215   6.019   9.149   8.210 -0.4329  2.9954 -1.3434
  972MOL0     H31216   5.928   8.993   8.354  0.1573 -0.5532  1.7632
  972MOL0     H31217   5.813   9.128   8.346 -0.0153  1.3025 -0.3949
  972MOL0     H31218   5.997   9.136   8.736  0.1502  2.2769 -1.2548
  972MOL0     H31219   6.307   9.287   8.199  4.0920 -2.5722  0.2067
  972MOL0     H31220   6.462   9.136   8.097  1.2192 -3.1150 -2.3678
  973MOL0     O31221   7.797   3.769   3.388 -0.6272 -0.4107  0.9754
  973MOL0     C31222   7.806   3.690   3.475 -0.7206  0.2092 -0.2882
  973MOL0     O31223   7.750   3.565   3.484 -0.0305 -0.1853 -0.4543
  973MOL0     C31224   7.647   3.521   3.403 -0.1046 -0.2709 -0.4979
  973MOL0     C31225   7.562   3.587   3.315 -0.3633 -0.0843  0.1727
  973MOL0     C31226   7.460   3.520   3.250  0.6255  1.0794  0.0122
  973MOL0     C31227   7.445   3.381   3.256 -0.2454  0.8075 -0.4497
  973MOL0     O31228   7.362   3.300   3.184  0.4294 -0.2019 -0.3582
  973MOL0     C31229   7.243   3.355   3.133  1.0067 -0.6212  0.3628
  973MOL0     C31230   7.115   3.292   3.203  1.1267  0.6370  0.0898
  973MOL0     C31231   7.099   3.332   3.346  0.6835  1.1720 -0.5342
  973MOL0     C31232   7.099   3.484   3.380 -0.2231  1.0093  0.2312
  973MOL0     C31233   7.048   3.520   3.519 -0.0308  0.1125  0.2639
  973MOL0     C31234   6.898   3.497   3.522 -0.7393  0.6001 -0.6023
  973MOL0     C31235   6.816   3.598   3.454  0.5654 -0.0373  0.0238
  973MOL0     C31236   6.689   3.623   3.540  1.2242 -0.2419 -0.3074
  973MOL0     N31237   6.601   3.716   3.484  0.3075 -0.9593  0.6534
  973MOL0     C31238   6.602   3.852   3.510 -0.4055 -0.0166  0.0343
  973MOL0     C31239   6.497   3.903   3.441  0.1250  0.0152 -0.1026
  973MOL0     C31240   6.444   4.043   3.468  0.6801 -0.0744  1.0658
  973MOL0     C31241   6.344   4.078   3.358 -0.6065  0.5641  0.0923
  973MOL0     C31242   6.199   4.025   3.381 -0.0497 -0.2541  0.0048
  973MOL0     C31243   6.107   4.075   3.272 -0.2378 -0.2080  0.8980
  973MOL0     O31244   5.984   3.993   3.263  0.4725  0.3963  0.0928
  973MOL0     C31245   5.874   4.040   3.192 -0.5280  0.4933 -0.4953
  973MOL0     C31246   5.875   4.151   3.109 -0.3815  0.2102  1.0991
  973MOL0     C31247   5.754   4.185   3.043 -0.3662 -0.0616  0.6152
  973MOL0     C31248   5.772   4.294   2.948 -0.3040 -0.0213  0.6794
  973MOL0     C31249   5.634   4.104   3.059 -0.2901 -1.1349  0.0392
  973MOL0     C31250   5.502   4.152   3.013  0.5750  0.1335 -0.6341
  973MOL0     O31251   5.401   4.057   3.013 -0.1420  0.2389 -0.7324
  973MOL0     C31252   5.269   4.099   2.988 -1.2512  0.1166 -0.3833
  973MOL0     C31253   5.239   4.165   2.864 -0.7477  0.2994  0.6203
  973MOL0     C31254   5.110   4.216   2.846  0.0060 -0.2382 -0.6523
  973MOL0     C31255   5.016   4.188   2.934  0.5363  0.3372 -0.2135
  973MOL0     O31256   4.886   4.229   2.934  0.3054  0.7815  0.0703
  973MOL0     C31257   4.848   4.344   2.867 -0.3408 -0.0198 -0.2333
  973MOL0     C31258   4.882   4.455   2.967  0.4602 -0.6370 -0.0749
  973MOL0     C31259   4.817   4.594   2.937 -0.2310 -0.1832  0.0266
  973MOL0     C31260   4.669   4.583   2.983 -0.1326  0.0944  0.1985
  973MOL0     C31261   4.598   4.715   2.930 -0.5903 -0.4672 -0.5605
  973MOL0     C31262   4.628   4.824   3.034 -0.5088  0.1189  0.3010
  973MOL0     C31263   4.595   4.962   2.976 -0.2608 -0.3103 -0.0816
  973MOL0     C31264   4.652   5.075   3.067  0.4208 -0.5818 -0.3687
  973MOL0    Cl31265   4.545   5.206   3.050 -0.6472 -0.0171 -0.2947
  973MOL0     C31266   5.039   4.116   3.049 -0.2111  0.0087  0.7615
  973MOL0     C31267   5.165   4.070   3.080 -1.0703 -0.0612 -0.0354
  973MOL0     O31268   5.482   4.269   2.995 -0.1212 -0.1679 -0.1837
  973MOL0     C31269   5.636   3.993   3.137  0.6185 -0.3481 -0.7650
  973MOL0     C31270   5.755   3.967   3.207 -0.5280 -0.1565  0.0704
  973MOL0     N31271   6.440   3.800   3.356 -0.3101 -0.7151 -0.4290
  973MOL0     N31272   6.507   3.695   3.384 -0.7453  0.5070 -0.9570
  973MOL0     C31273   7.536   3.312   3.341 -0.0099 -0.6379 -0.1844
  973MOL0     C31274   7.626   3.379   3.424  0.0475  0.5722  0.4204
  973MOL0     C31275   7.889   3.728   3.593 -0.4234  0.0299 -0.4379
  973MOL0     C31276   7.913   3.862   3.620  0.3950 -0.1892  0.8434
  973MOL0     C31277   7.980   3.920   3.732  0.2009 -0.2440 -0.5076
  973MOL0     C31278   8.025   3.836   3.824  0.4534  0.3872 -0.5746
  973MOL0     O31279   8.072   3.872   3.942 -0.1360  0.3284 -0.2603
  973MOL0     C31280   8.214   3.895   3.948  0.4202 -0.8102 -0.0040
  973MOL0     C31281   8.238   4.008   4.046  0.1389 -0.0633  0.3035
  973MOL0     C31282   8.388   4.026   4.075  0.1026 -0.2211  0.3190
  973MOL0     C31283   8.422   4.141   4.163 -0.5096  0.0211 -1.0325
  973MOL0     C31284   8.567   4.179   4.140 -0.1034 -0.7557 -0.7067
  973MOL0     C31285   8.677   4.221   4.120 -0.4922  0.5260  0.0728
  973MOL0     C31286   8.009   3.702   3.818  0.2507 -0.1023  0.6686
  973MOL0     C31287   7.934   3.644   3.704  0.4584  0.0732 -0.3287
  973MOL0     H31288   7.574   3.695   3.309  1.9696 -0.2695  0.3596
  973MOL0     H31289   7.401   3.584   3.185 -1.5518  0.9491  1.7426
  973MOL0     H31290   7.241   3.464   3.125  0.5847 -0.7141 -0.9592
  973MOL0     H31291   7.217   3.324   3.032 -2.1976  3.0430 -0.1802
  973MOL0     H31292   7.026   3.311   3.144 -0.1844  1.7532  2.2938
  973MOL0     H31293   7.134   3.185   3.201 -0.1243  0.3905  0.8292
  973MOL0     H31294   7.010   3.282   3.384  0.8903 -1.4580 -3.1466
  973MOL0     H31295   7.190   3.301   3.398 -1.4189 -1.3394  1.9481
  973MOL0     H31296   7.202   3.518   3.366 -0.6119  3.3085  2.3251
  973MOL0     H31297   7.047   3.513   3.289  1.1805 -0.6715 -1.1854
  973MOL0     H31298   7.106   3.467   3.595  0.3416  0.6510  0.3559
  973MOL0     H31299   7.083   3.623   3.529  1.5169  0.1012 -3.3469
  973MOL0     H31300   6.872   3.398   3.483  1.6388  0.6157 -2.4945
  973MOL0     H31301   6.903   3.496   3.631  0.4442  1.2097 -0.6394
  973MOL0     H31302   6.886   3.682   3.458  1.8840 -0.9585 -1.7385
  973MOL0     H31303   6.785   3.580   3.351  0.2445 -0.8651  0.2553
  973MOL0     H31304   6.733   3.674   3.626  0.0920 -1.6611  1.1729
  973MOL0     H31305   6.639   3.532   3.575  1.9337  0.3676  2.4942
  973MOL0     H31306   6.655   3.895   3.594  1.4355 -1.5278 -0.2949
  973MOL0     H31307   6.398   4.057   3.566 -2.7178 -0.3929 -0.3437
  973MOL0     H31308   6.515   4.125   3.450  0.4691  0.4727  2.6130
  973MOL0     H31309   6.366   4.031   3.261 -0.1969  1.2362 -0.1462
  973MOL0     H31310   6.334   4.187   3.352  2.9301  0.9424 -0.8633
  973MOL0     H31311   6.179   4.067   3.480 -1.2310 -0.1821 -0.2493
  973MOL0     H31312   6.202   3.916   3.383  1.0922 -0.3151 -2.1401
  973MOL0     H31313   6.151   4.067   3.173 -0.5812  1.9376  0.5278
  973MOL0     H31314   6.085   4.179   3.298  0.5447  0.6553 -1.5704
  973MOL0     H31315   5.952   4.226   3.118 -0.7286  0.6672  0.3197
  973MOL0     H31316   5.724   4.382   2.992 -0.4905  0.0271  0.3819
  973MOL0     H31317   5.874   4.326   2.926 -0.8812  0.3048 -1.8404
  973MOL0     H31318   5.719   4.278   2.853 -2.8880 -0.9586  2.1721
  973MOL0     H31319   5.324   4.178   2.798 -1.2263 -2.2505 -0.6391
  973MOL0     H31320   5.085   4.264   2.752  0.7075  0.2164 -0.6190
  973MOL0     H31321   4.895   4.355   2.769  2.3066  1.3485  1.0740
  973MOL0     H31322   4.740   4.341   2.847 -0.0390  0.9659 -2.2199
  973MOL0     H31323   4.847   4.426   3.066 -2.3717  0.4735 -0.6358
  973MOL0     H31324   4.991   4.455   2.979  0.3453 -2.9713  1.6458
  973MOL0     H31325   4.819   4.595   2.827 -0.2530 -0.7390  0.0189
  973MOL0     H31326   4.860   4.684   2.983  0.0004  0.2588 -1.0180
  973MOL0     H31327   4.626   4.497   2.931  1.6969  1.9315 -4.9985
  973MOL0     H31328   4.655   4.558   3.089  1.6290 -0.1602  0.3938
  973MOL0     H31329   4.489   4.709   2.920 -0.9350  0.5329  1.9312
  973MOL0     H31330   4.631   4.727   2.827 -1.3109 -0.7448 -0.8289
  973MOL0     H31331   4.565   4.805   3.121  1.1499 -2.4060  1.0715
  973MOL0     H31332   4.728   4.815   3.079 -1.1702 -2.6910  1.4160
  973MOL0     H31333   4.486   4.965   2.985 -0.1550  1.9503  1.4793
  973MOL0     H31334   4.631   4.979   2.874 -1.3052  2.0983 -0.1222
  973MOL0     H31335   4.753   5.109   3.042 -0.4289  2.0500 -0.5389
  973MOL0     H31336   4.661   5.044   3.172  0.2259 -0.4684 -0.3169
  973MOL0     H31337   4.945   4.100   3.100 -0.6318  0.1474  0.0400
  973MOL0     H31338   5.188   4.020   3.174  0.5007  0.5903 -0.0449
  973MOL0     H31339   5.547   3.931   3.146 -0.3033  1.1250  1.2506
  973MOL0     H31340   5.759   3.893   3.287  0.9637  0.5168  0.6632
  973MOL0     H31341   7.526   3.204   3.349  1.4457 -0.7974 -0.2824
  973MOL0     H31342   7.672   3.331   3.510  1.9982 -1.2237 -1.5015
  973MOL0     H31343   7.876   3.931   3.546 -0.1280 -1.7394 -0.4086
  973MOL0     H31344   7.986   4.026   3.756 -0.6596 -0.8000  2.6462
  973MOL0     H31345   8.270   3.804   3.972 -1.4839 -1.9549  0.3101
  973MOL0     H31346   8.251   3.932   3.852  3.2405  1.4291  1.7845
  973MOL0     H31347   8.173   4.000   4.133  2.2200  1.0607  2.0823
  973MOL0     H31348   8.204   4.096   3.991 -1.9527 -0.7970  0.3306
  973MOL0     H31349   8.439   4.034   3.979 -0.9078 -1.5111 -0.3549
  973MOL0     H31350   8.435   3.940   4.126  0.3177  0.2891  1.0007
  973MOL0     H31351   8.402   4.101   4.263  2.1794  0.1839 -0.3703
  973MOL0     H31352   8.371   4.234   4.133 -1.6907 -1.1386 -2.8663
  973MOL0     H31353   8.771   4.269   4.102 -0.4844 -0.5228 -3.2862
  973MOL0     H31354   8.045   3.642   3.901  2.1312  4.6237  3.7096
  973MOL0     H31355   7.916   3.537   3.704  0.3044  0.0965  0.0346
  974MOL0     O31356   6.124   4.056   9.582 -0.4496 -0.6652  0.1701
  974MOL0     C31357   6.099   4.169   9.551 -0.3974 -0.5678 -0.3824
  974MOL0     O31358   6.122   4.228   9.433 -0.4674 -0.5187  0.1369
  974MOL0     C31359   6.176   4.161   9.327  0.9196  0.5075 -0.4403
  974MOL0     C31360   6.111   4.136   9.206  0.0246  0.5534 -0.5892
  974MOL0     C31361   6.180   4.053   9.110  0.6087 -0.8707  0.2621
  974MOL0     C31362   6.309   4.008   9.133  1.1875 -0.7905 -0.8638
  974MOL0     O31363   6.362   3.913   9.051  0.3513 -0.1555  0.5706
  974MOL0     C31364   6.295   3.859   8.933 -0.0210 -0.4521 -0.9211
  974MOL0     C31365   6.389   3.775   8.848 -0.3101  0.2208  0.9663
  974MOL0     C31366   6.453   3.665   8.928  0.2580  0.1750  0.4678
  974MOL0     C31367   6.556   3.580   8.857 -0.1436  0.2937 -0.5392
  974MOL0     C31368   6.624   3.468   8.948  0.0434 -0.0007  0.2903
  974MOL0     C31369   6.687   3.508   9.085 -0.5978 -0.0852  0.4909
  974MOL0     C31370   6.769   3.391   9.153  1.4876  0.6517 -0.7184
  974MOL0     C31371   6.863   3.431   9.278  0.6449  0.3459  0.8038
  974MOL0     N31372   6.961   3.526   9.246 -0.1814 -0.6889 -0.4085
  974MOL0     C31373   7.034   3.533   9.133  0.1539 -0.0714  0.7054
  974MOL0     C31374   7.143   3.606   9.165  0.4141 -0.0012 -0.1709
  974MOL0     C31375   7.259   3.636   9.073 -0.0646  1.0324  0.7477
  974MOL0     C31376   7.245   3.764   8.992  0.0598  0.5133 -0.8052
  974MOL0     C31377   7.256   3.883   9.084  0.6846 -0.4024 -0.6932
  974MOL0     C31378   7.219   4.006   9.001 -0.4858 -0.0957 -0.7042
  974MOL0     O31379   7.080   4.002   8.959  0.5377 -0.5824 -0.1584
  974MOL0     C31380   6.985   3.993   9.047 -0.6875  0.3024 -0.6330
  974MOL0     C31381   6.992   4.069   9.166 -0.8719  0.3409 -0.5454
  974MOL0     C31382   6.893   4.049   9.265  1.1304  0.5997 -0.0110
  974MOL0     C31383   6.909   4.141   9.387 -0.5138 -0.6687 -0.0213
  974MOL0     C31384   6.800   3.934   9.246 -0.3184  0.8137 -0.1273
  974MOL0     C31385   6.698   3.897   9.353 -0.0420  0.2385  1.1086
  974MOL0     O31386   6.649   3.772   9.335 -0.3960 -0.6983  0.5835
  974MOL0     C31387   6.544   3.738   9.406 -0.3089  0.2240  0.1725
  974MOL0     C31388   6.570   3.681   9.531 -0.0243  0.2764 -0.1025
  974MOL0     C31389   6.466   3.638   9.614  0.7417 -0.9927 -0.6316
  974MOL0     C31390   6.333   3.683   9.596 -0.1190  0.1346 -0.3737
  974MOL0     O31391   6.246   3.648   9.697  0.4949  0.4308 -0.9037
  974MOL0     C31392   6.110   3.697   9.698  0.0617  0.1026 -0.2201
  974MOL0     C31393   6.095   3.814   9.806 -0.8465  0.2911  0.0097
  974MOL0     C31394   6.176   3.802   9.934 -0.6992 -0.1497 -0.1042
  974MOL0     C31395   6.099   3.854  10.051  0.0505 -0.4648  0.2286
  974MOL0     C31396   6.196   3.939  10.141  0.0514 -0.6507 -0.7491
  974MOL0     C31397   6.105   4.033  10.230 -0.2496  0.1194 -0.6721
  974MOL0     C31398   6.169   4.132  10.326 -0.5453 -0.3992  0.3585
  974MOL0     C31399   6.289   4.069  10.395  0.1823 -0.5245  0.9046
  974MOL0    Cl31400   6.245   3.923  10.499  0.4003 -0.1117 -0.3810
  974MOL0     C31401   6.306   3.736   9.467 -0.4338  0.0519 -1.2645
  974MOL0     C31402   6.409   3.753   9.376  0.3316 -0.2687 -0.4277
  974MOL0     O31403   6.668   3.983   9.440  0.3697 -0.2497 -0.3975
  974MOL0     C31404   6.803   3.862   9.127 -0.0492 -0.5460  0.6121
  974MOL0     C31405   6.889   3.895   9.020  0.0679  0.3780 -0.3032
  974MOL0     N31406   7.129   3.654   9.295  0.3805 -0.3943  0.1487
  974MOL0     N31407   7.021   3.605   9.341  0.5041 -0.0446  0.3308
  974MOL0     C31408   6.372   4.061   9.248 -0.5115  0.4260  0.8680
  974MOL0     C31409   6.309   4.139   9.343  0.4056  1.2221  0.1256
  974MOL0     C31410   6.031   4.262   9.649 -0.5887  0.3969 -0.0406
  974MOL0     C31411   6.030   4.224   9.784 -0.2575 -0.2328 -0.1876
  974MOL0     C31412   5.950   4.288   9.880  0.7720  0.0035  0.4312
  974MOL0     C31413   5.875   4.402   9.837  0.4187 -0.5397 -0.4105
  974MOL0     O31414   5.789   4.478   9.924  0.1860  0.0568 -0.9337
  974MOL0     C31415   5.736   4.605   9.886  0.3619  0.2511 -0.0205
  974MOL0     C31416   5.845   4.720   9.872  0.8520  0.0791  0.5387
  974MOL0     C31417   5.812   4.835   9.770  0.3118  0.7805 -0.0137
  974MOL0     C31418   5.829   4.972   9.841  0.1746 -0.2458 -0.0034
  974MOL0     C31419   5.972   5.009   9.863  0.9061  0.2790 -0.2764
  974MOL0     C31420   6.087   5.034   9.877  0.1017 -0.0724 -0.7958
  974MOL0     C31421   5.884   4.435   9.696 -1.6031  0.4723  0.4111
  974MOL0     C31422   5.964   4.372   9.600 -0.0925  0.4504 -0.2197
  974MOL0     H31423   6.006   4.165   9.205  0.4103  2.1175  0.7530
  974MOL0     H31424   6.121   4.027   9.023 -0.7889  0.7518  0.6773
  974MOL0     H31425   6.202   3.807   8.955  1.2126 -2.5670 -0.3452
  974MOL0     H31426   6.270   3.948   8.875 -1.7246 -1.0236 -1.1199
  974MOL0     H31427   6.329   3.732   8.767  1.0243 -0.0647  0.0941
  974MOL0     H31428   6.471   3.831   8.802 -1.6914  2.3436  0.9608
  974MOL0     H31429   6.512   3.710   9.009  1.5713 -3.1689  1.5046
  974MOL0     H31430   6.370   3.602   8.961  2.0274 -1.5450  1.8185
  974MOL0     H31431   6.513   3.519   8.777 -1.7829 -0.3681  0.7895
  974MOL0     H31432   6.632   3.646   8.814 -0.3564  0.1028 -1.2262
  974MOL0     H31433   6.543   3.399   8.972  0.6754 -1.9988 -2.7780
  974MOL0     H31434   6.703   3.415   8.894  1.0193  1.1641  0.5464
  974MOL0     H31435   6.756   3.592   9.075  1.9871 -1.8122  2.3921
  974MOL0     H31436   6.601   3.541   9.144 -1.3601 -0.9233 -0.1166
  974MOL0     H31437   6.692   3.321   9.186  0.3008 -0.0417 -4.5535
  974MOL0     H31438   6.827   3.339   9.076 -0.3085 -2.3884 -0.1763
  974MOL0     H31439   6.914   3.338   9.305 -1.1064 -0.5368  1.2764
  974MOL0     H31440   6.808   3.471   9.364  0.9040  2.6775 -0.0461
  974MOL0     H31441   7.011   3.479   9.042 -3.0455  0.7094  0.9398
  974MOL0     H31442   7.358   3.633   9.121 -0.0762  0.2105  0.7268
  974MOL0     H31443   7.251   3.554   9.001  0.0106  0.7053  1.1053
  974MOL0     H31444   7.150   3.759   8.938 -0.0615  2.8733 -0.9569
  974MOL0     H31445   7.323   3.762   8.915 -0.6564  2.1381 -1.6361
  974MOL0     H31446   7.352   3.902   9.134 -1.4185  2.1998  2.8718
  974MOL0     H31447   7.183   3.888   9.166  1.6137  2.4257  0.0553
  974MOL0     H31448   7.292   4.005   8.919 -0.8013  0.5413 -1.0010
  974MOL0     H31449   7.238   4.088   9.071 -0.7312  0.8310 -1.6769
  974MOL0     H31450   7.075   4.135   9.189 -1.7334  0.5142  2.5769
  974MOL0     H31451   6.912   4.089   9.483 -2.3874  0.2145  0.5715
  974MOL0     H31452   6.996   4.206   9.374 -0.1251 -1.4634 -1.5976
  974MOL0     H31453   6.817   4.201   9.377 -1.3011 -2.1684 -3.0668
  974MOL0     H31454   6.676   3.674   9.550 -0.5968  0.1146  3.8569
  974MOL0     H31455   6.497   3.582   9.702  0.5366  1.0787  0.8265
  974MOL0     H31456   6.075   3.732   9.601 -0.4559  1.2553  0.3526
  974MOL0     H31457   6.051   3.614   9.737 -0.3466  1.3653  2.0772
  974MOL0     H31458   6.132   3.902   9.752  1.0254 -0.4245  0.0395
  974MOL0     H31459   5.989   3.834   9.825 -0.9296  2.3965 -2.1586
  974MOL0     H31460   6.270   3.855   9.917 -0.1714 -1.4529 -1.4079
  974MOL0     H31461   6.197   3.697   9.959 -1.4865  0.3633  3.1287
  974MOL0     H31462   6.018   3.917  10.013 -1.6181 -2.0454  1.0078
  974MOL0     H31463   6.046   3.777  10.109  0.7748  0.9815  2.9910
  974MOL0     H31464   6.256   4.005  10.078 -1.9684  2.3615  0.2576
  974MOL0     H31465   6.253   3.885  10.217 -3.0416 -2.0794  0.7304
  974MOL0     H31466   6.029   4.082  10.169 -0.7925 -0.1993 -0.2567
  974MOL0     H31467   6.050   3.973  10.303  0.7048  1.0141  0.8386
  974MOL0     H31468   6.105   4.179  10.401  1.4697  4.2519 -0.4600
  974MOL0     H31469   6.214   4.209  10.262 -3.0111  1.1728  0.3982
  974MOL0     H31470   6.338   4.148  10.453  0.6058 -0.7593  0.8673
  974MOL0     H31471   6.371   4.032  10.333  0.8500 -0.5259  1.7661
  974MOL0     H31472   6.209   3.762   9.428  0.2384  0.0611 -2.9926
  974MOL0     H31473   6.382   3.769   9.272  0.8471 -0.0641 -0.5314
  974MOL0     H31474   6.730   3.786   9.101  1.7656 -2.1582 -0.0075
  974MOL0     H31475   6.911   3.836   8.932  4.0145 -1.2055  1.4803
  974MOL0     H31476   6.477   4.035   9.252 -0.6438 -0.1112  0.8991
  974MOL0     H31477   6.362   4.172   9.432  1.3859  0.6014 -0.2207
  974MOL0     H31478   6.088   4.138   9.816 -1.0266  0.0796  2.2541
  974MOL0     H31479   5.948   4.241   9.978 -0.4357  0.6441  0.7391
  974MOL0     H31480   5.677   4.596   9.794 -0.4518 -4.2066  0.7248
  974MOL0     H31481   5.671   4.630   9.970  1.0109 -2.4751  1.4106
  974MOL0     H31482   5.928   4.667   9.823 -1.0225 -2.2016 -0.3841
  974MOL0     H31483   5.891   4.749   9.967  3.6849 -0.4633 -0.5432
  974MOL0     H31484   5.708   4.825   9.737  0.2771 -0.1618  0.3550
  974MOL0     H31485   5.876   4.829   9.682 -1.4670  1.6370 -1.4360
  974MOL0     H31486   5.776   4.974   9.936  2.1729  4.1809  1.2581
  974MOL0     H31487   5.784   5.042   9.770  0.7159 -0.5967 -0.7125
  974MOL0     H31488   6.184   5.066   9.910  0.8724 -1.3814 -1.6789
  974MOL0     H31489   5.825   4.516   9.653 -0.8317  1.2095  0.6997
  974MOL0     H31490   5.957   4.404   9.496 -0.5860 -2.4190 -1.1436
  975MOL0     O31491   2.119   4.082   6.341  0.2151  0.1712  0.9886
  975MOL0     C31492   2.024   4.138   6.392 -0.0687 -0.4037 -0.6871
  975MOL0     O31493   2.024   4.204   6.512 -0.2605  0.1679 -0.1743
  975MOL0     C31494   2.136   4.230   6.588 -0.0211 -0.2951 -0.4456
  975MOL0     C31495   2.117   4.327   6.681 -0.1615  0.3001  0.0436
  975MOL0     C31496   2.216   4.373   6.767  0.6266  0.1390  0.3192
  975MOL0     C31497   2.345   4.320   6.761  0.5253  0.0906 -0.4644
  975MOL0     O31498   2.466   4.354   6.836  0.4347  0.0988  0.2409
  975MOL0     C31499   2.463   4.487   6.885  0.3507  0.4510  0.4553
  975MOL0     C31500   2.601   4.508   6.957  0.3815 -0.2569 -0.5624
  975MOL0     C31501   2.639   4.653   7.001 -0.1372  0.2863  0.3707
  975MOL0     C31502   2.750   4.653   7.107  0.6979  0.0485  0.6910
  975MOL0     C31503   2.758   4.794   7.169 -0.3727 -0.2562 -0.8582
  975MOL0     C31504   2.851   4.808   7.287  0.7328 -0.3878 -0.3809
  975MOL0     C31505   2.877   4.953   7.328  0.3893 -0.5149 -0.0498
  975MOL0     C31506   2.945   4.970   7.474 -0.1888  0.3860 -0.0403
  975MOL0     N31507   2.927   5.100   7.531  0.1816 -0.1478 -0.5801
  975MOL0     C31508   3.010   5.211   7.531  0.4751  0.7270  0.5628
  975MOL0     C31509   2.942   5.310   7.585 -0.2294 -0.5201 -0.0477
  975MOL0     C31510   2.996   5.445   7.610 -1.2951 -0.2218 -1.1153
  975MOL0     C31511   3.113   5.443   7.712  0.4934 -1.0308 -0.6892
  975MOL0     C31512   3.253   5.399   7.659 -0.8094 -0.2577  0.1456
  975MOL0     C31513   3.360   5.440   7.755 -0.6026  0.1470 -0.2038
  975MOL0     O31514   3.488   5.462   7.684  0.4666 -0.3569  0.4478
  975MOL0     C31515   3.606   5.490   7.760  2.3441  0.0656  0.6226
  975MOL0     C31516   3.615   5.486   7.903 -0.0618 -0.1864  0.4857
  975MOL0     C31517   3.741   5.477   7.957 -0.1012  0.3452 -0.7733
  975MOL0     C31518   3.744   5.472   8.109 -0.2834 -0.5972  0.4324
  975MOL0     C31519   3.857   5.475   7.871  0.5335 -0.7366 -0.4838
  975MOL0     C31520   3.990   5.461   7.925 -0.3555  0.3537  0.5512
  975MOL0     O31521   4.010   5.350   8.011 -0.3941 -0.2675  0.1042
  975MOL0     C31522   4.125   5.332   8.082 -0.0349 -0.6525  0.5491
  975MOL0     C31523   4.202   5.429   8.156 -0.1592  0.2292  0.3660
  975MOL0     C31524   4.341   5.404   8.189  0.0696  0.3403 -0.3441
  975MOL0     C31525   4.397   5.283   8.153  0.1701  1.0253  0.0099
  975MOL0     O31526   4.539   5.262   8.158  1.3397 -0.3010  0.6461
  975MOL0     C31527   4.631   5.360   8.103 -0.5840 -0.3647  0.0451
  975MOL0     C31528   4.764   5.292   8.070  0.4065 -0.4949  0.0239
  975MOL0     C31529   4.747   5.178   7.967  0.0159 -0.8578  0.0756
  975MOL0     C31530   4.709   5.040   8.023 -0.1511 -0.9957 -0.2748
  975MOL0     C31531   4.729   4.941   7.908  0.5466  0.9458 -0.1444
  975MOL0     C31532   4.609   4.847   7.916 -0.6689  0.2558  0.1347
  975MOL0     C31533   4.592   4.769   7.791  0.3447  0.1527  0.1063
  975MOL0     C31534   4.723   4.694   7.757  0.9585  0.5119  0.1397
  975MOL0    Cl31535   4.740   4.589   7.901 -0.5379  0.3999  0.1970
  975MOL0     C31536   4.317   5.186   8.085 -0.8710 -0.5670  0.5878
  975MOL0     C31537   4.188   5.210   8.041 -0.0843 -0.2553 -0.8360
  975MOL0     O31538   4.068   5.551   7.901 -0.2132  0.4177  0.1714
  975MOL0     C31539   3.844   5.487   7.738  0.2791 -0.4319  0.0592
  975MOL0     C31540   3.715   5.490   7.677 -0.2261  0.1242 -0.3407
  975MOL0     N31541   2.826   5.252   7.643  0.0333 -0.2104  1.1145
  975MOL0     N31542   2.826   5.130   7.618 -0.3798  0.3729 -0.8763
  975MOL0     C31543   2.364   4.211   6.673  0.5079 -0.8992  0.0688
  975MOL0     C31544   2.264   4.170   6.577 -0.2050 -0.1284 -0.1320
  975MOL0     C31545   1.890   4.132   6.329 -0.5432  0.3141 -0.2318
  975MOL0     C31546   1.777   4.194   6.381 -0.3211 -0.3443  1.0879
  975MOL0     C31547   1.659   4.185   6.308 -1.0547  0.2469 -0.1419
  975MOL0     C31548   1.642   4.125   6.191 -0.9314  0.1076 -0.2699
  975MOL0     O31549   1.520   4.135   6.129  0.2206  0.3480 -0.1976
  975MOL0     C31550   1.500   4.057   6.007  0.2344 -0.0041  0.9579
  975MOL0     C31551   1.347   4.061   5.987  0.0052  1.1577  0.1382
  975MOL0     C31552   1.281   3.914   6.003 -0.9491 -1.0242  0.7497
  975MOL0     C31553   1.128   3.927   6.016 -0.5315 -1.0030  0.3654
  975MOL0     C31554   1.060   3.981   5.895  0.0667  0.0525  0.4143
  975MOL0     C31555   1.002   4.024   5.798 -0.0959 -0.1439 -0.6314
  975MOL0     C31556   1.751   4.060   6.137  0.2031  0.0890 -0.4929
  975MOL0     C31557   1.870   4.058   6.209 -0.1115 -0.1500 -0.3994
  975MOL0     H31558   2.023   4.379   6.693 -0.0451  0.3503  0.7790
  975MOL0     H31559   2.196   4.441   6.850  1.0733 -0.1799  0.6990
  975MOL0     H31560   2.451   4.564   6.808  2.0848  2.2851  1.9296
  975MOL0     H31561   2.392   4.501   6.966  1.0676  0.3420  1.1098
  975MOL0     H31562   2.586   4.448   7.048 -2.8924  2.1903  0.7055
  975MOL0     H31563   2.676   4.464   6.891 -1.5701 -2.3903 -1.5251
  975MOL0     H31564   2.676   4.706   6.912  0.2505  1.5480  1.2537
  975MOL0     H31565   2.551   4.709   7.033 -0.8282  0.3741 -1.5130
  975MOL0     H31566   2.721   4.573   7.175  0.0540 -1.0856 -0.8499
  975MOL0     H31567   2.845   4.625   7.060 -0.0118 -1.9761  0.3788
  975MOL0     H31568   2.774   4.874   7.096  0.5632  0.3045 -0.0621
  975MOL0     H31569   2.656   4.801   7.209 -1.6397 -3.7925 -3.0259
  975MOL0     H31570   2.800   4.763   7.373 -0.2180 -0.8184 -1.1459
  975MOL0     H31571   2.941   4.748   7.270 -0.0284 -1.3345 -1.2886
  975MOL0     H31572   2.933   5.001   7.247 -1.4459 -0.9072 -1.6026
  975MOL0     H31573   2.782   5.003   7.348  1.1073 -0.1516  3.0352
  975MOL0     H31574   3.052   4.948   7.462 -0.6700 -1.8172 -0.7180
  975MOL0     H31575   2.905   4.892   7.539  0.0965  0.0351 -0.2768
  975MOL0     H31576   3.110   5.209   7.489  0.7857 -2.8642  1.0786
  975MOL0     H31577   3.027   5.500   7.521  0.0583 -0.2760 -0.6939
  975MOL0     H31578   2.911   5.503   7.648 -0.4597  0.3420 -0.0503
  975MOL0     H31579   3.088   5.370   7.789  1.6738  1.3883  2.1488
  975MOL0     H31580   3.124   5.544   7.752  2.3297 -1.1088 -0.9461
  975MOL0     H31581   3.281   5.454   7.568 -3.5322  2.7674  0.9643
  975MOL0     H31582   3.255   5.291   7.641 -1.4677 -0.4875  1.3897
  975MOL0     H31583   3.375   5.361   7.828  1.1160  1.1210  0.5573
  975MOL0     H31584   3.324   5.530   7.805 -3.5706 -1.9141  1.6943
  975MOL0     H31585   3.527   5.478   7.966  0.7246 -1.1060  1.5143
  975MOL0     H31586   3.654   5.523   8.146  0.3727  0.4887  0.5859
  975MOL0     H31587   3.747   5.366   8.136  0.7312 -0.6288  0.2257
  975MOL0     H31588   3.825   5.528   8.157 -0.5842  1.0820 -0.9329
  975MOL0     H31589   4.156   5.519   8.196 -1.6752 -1.6721  3.3214
  975MOL0     H31590   4.400   5.478   8.243 -0.6509  0.0163  0.9329
  975MOL0     H31591   4.586   5.386   8.007  0.5923 -2.0722 -1.0189
  975MOL0     H31592   4.645   5.441   8.176  2.3915  0.0708 -0.8646
  975MOL0     H31593   4.828   5.374   8.035 -1.0464  0.8992  0.5645
  975MOL0     H31594   4.800   5.249   8.164 -1.0507 -0.2036  0.7424
  975MOL0     H31595   4.846   5.161   7.925 -0.5636 -1.0754 -1.2561
  975MOL0     H31596   4.675   5.204   7.888  1.2931  0.2586 -0.7497
  975MOL0     H31597   4.783   5.020   8.101  1.8010  0.5659 -1.5930
  975MOL0     H31598   4.607   5.045   8.063  1.0390 -0.5458  3.0170
  975MOL0     H31599   4.826   4.891   7.921  0.3452  0.9634  1.6008
  975MOL0     H31600   4.742   4.980   7.807  0.4431 -3.0859 -1.9289
  975MOL0     H31601   4.609   4.794   8.011  1.7849 -1.8194 -0.9042
  975MOL0     H31602   4.518   4.908   7.906 -0.0168  0.8754 -3.7045
  975MOL0     H31603   4.578   4.840   7.708  0.3821  1.9702  1.5736
  975MOL0     H31604   4.508   4.700   7.799  2.9734 -3.3503 -0.4649
  975MOL0     H31605   4.806   4.765   7.752  1.1216  0.4446  1.6080
  975MOL0     H31606   4.710   4.638   7.663  0.5978  2.0987 -0.7959
  975MOL0     H31607   4.369   5.107   8.032  0.6375  2.3847 -2.7584
  975MOL0     H31608   4.139   5.146   7.968 -0.0197  0.2065 -1.2894
  975MOL0     H31609   3.934   5.492   7.678  0.7989 -0.1289  0.8623
  975MOL0     H31610   3.701   5.504   7.570  0.3599  1.6332 -0.2526
  975MOL0     H31611   2.462   4.165   6.667 -0.1299 -2.5234  1.4889
  975MOL0     H31612   2.284   4.094   6.503  0.8746 -0.7526  0.7812
  975MOL0     H31613   1.772   4.250   6.474 -2.9801 -1.9816  2.0778
  975MOL0     H31614   1.570   4.234   6.346  1.2812  3.5001  1.5474
  975MOL0     H31615   1.549   4.107   5.923 -1.1752 -0.0176  0.0762
  975MOL0     H31616   1.537   3.954   6.004  2.6946  0.7865 -3.2697
  975MOL0     H31617   1.334   4.075   5.879 -3.1316 -0.9183  0.1370
  975MOL0     H31618   1.304   4.145   6.042  1.0837  2.6291 -1.1661
  975MOL0     H31619   1.331   3.873   6.092  0.5928 -0.2345  0.2763
  975MOL0     H31620   1.309   3.848   5.921  5.6099  0.4901  1.1541
  975MOL0     H31621   1.112   3.983   6.109 -0.6155 -4.0381  2.3257
  975MOL0     H31622   1.071   3.834   6.025 -2.4617 -0.3730 -3.3615
  975MOL0     H31623   0.944   4.062   5.717 -1.6897 -1.7631 -0.3142
  975MOL0     H31624   1.735   4.009   6.042  0.9501 -0.3975 -0.3629
  975MOL0     H31625   1.959   4.010   6.169  1.6409  2.8887 -0.4978
  976MOL0     O31626   6.158   9.423   7.066  0.1190  0.1267  0.0393
  976MOL0     C31627   6.082   9.363   7.134 -0.2114  0.2891  0.1855
  976MOL0     O31628   6.111   9.267   7.233  0.0319 -0.2579 -0.6312
  976MOL0     C31629   6.236   9.212   7.243  0.3558 -0.4035 -0.2510
  976MOL0     C31630   6.274   9.154   7.365 -0.3120  0.0458  0.1157
  976MOL0     C31631   6.404   9.108   7.377 -0.0200 -0.6832  0.0584
  976MOL0     C31632   6.489   9.085   7.263 -0.6160  0.0332 -0.4788
  976MOL0     O31633   6.612   9.023   7.272  0.0628  0.1420  0.0130
  976MOL0     C31634   6.597   8.882   7.291 -0.8680 -0.1052  0.0131
  976MOL0     C31635   6.742   8.824   7.272  0.0210 -0.3439 -0.0043
  976MOL0     C31636   6.755   8.678   7.290  0.1429  0.2067 -0.0576
  976MOL0     C31637   6.898   8.632   7.283 -0.0358  0.0989 -0.1579
  976MOL0     C31638   6.964   8.627   7.140  0.6101  0.9334 -0.2257
  976MOL0     C31639   6.887   8.531   7.039  0.4331  1.0238 -1.4425
  976MOL0     C31640   6.866   8.388   7.086 -0.2707  0.4818  0.2168
  976MOL0     C31641   6.994   8.327   7.145 -0.0305 -0.0765 -0.4194
  976MOL0     N31642   6.987   8.183   7.114 -0.1268 -0.2897 -0.9816
  976MOL0     C31643   6.962   8.086   7.209  0.4640  0.9546 -0.4186
  976MOL0     C31644   6.989   7.967   7.158  0.6176  0.1999  0.3751
  976MOL0     C31645   6.993   7.835   7.234  0.8853  1.0400 -0.4432
  976MOL0     C31646   7.125   7.812   7.310 -0.3657 -0.0801  0.8791
  976MOL0     C31647   7.241   7.795   7.210  0.8400  0.3595  0.1106
  976MOL0     C31648   7.363   7.735   7.278 -0.0484  0.1418 -1.1584
  976MOL0     O31649   7.401   7.799   7.406  0.2358  0.4636 -0.2914
  976MOL0     C31650   7.527   7.783   7.449 -0.4953 -0.2359 -0.1778
  976MOL0     C31651   7.547   7.836   7.573 -0.5322  0.3366  0.8476
  976MOL0     C31652   7.668   7.821   7.638 -0.7608 -0.1878 -0.4113
  976MOL0     C31653   7.675   7.895   7.770  0.5760  0.2198  0.3328
  976MOL0     C31654   7.780   7.765   7.573 -0.0851  0.8829  0.5445
  976MOL0     C31655   7.917   7.768   7.621 -0.2667  0.1113  0.2397
  976MOL0     O31656   8.009   7.699   7.548  0.5354 -0.0583 -0.4293
  976MOL0     C31657   8.134   7.769   7.549 -0.2484 -0.3511 -0.6150
  976MOL0     C31658   8.155   7.880   7.469  1.1150  0.5944 -0.0661
  976MOL0     C31659   8.273   7.951   7.470 -0.6146  0.0384  0.5371
  976MOL0     C31660   8.384   7.905   7.550  0.4056 -0.3417 -0.5447
  976MOL0     O31661   8.485   7.995   7.566 -0.2310  0.2987 -0.0481
  976MOL0     C31662   8.606   7.931   7.585 -0.4736 -0.0143 -0.2790
  976MOL0     C31663   8.719   8.001   7.515 -0.6772  0.1062 -0.0456
  976MOL0     C31664   8.756   8.147   7.570 -0.4414  0.2478 -0.7502
  976MOL0     C31665   8.887   8.192   7.506 -0.2484 -0.0998 -0.3785
  976MOL0     C31666   8.924   8.323   7.587  0.3383 -0.0831  0.7441
  976MOL0     C31667   9.063   8.375   7.529  0.2748  0.2657 -0.0617
  976MOL0     C31668   9.169   8.302   7.595  1.1223  0.0245  0.0753
  976MOL0     C31669   9.308   8.349   7.584  0.0826 -0.1135 -0.1648
  976MOL0    Cl31670   9.338   8.497   7.686 -0.3068 -0.1924  0.1100
  976MOL0     C31671   8.361   7.789   7.626  0.7763 -0.0892  0.4526
  976MOL0     C31672   8.237   7.728   7.628 -1.1347 -0.0810 -0.7282
  976MOL0     O31673   7.941   7.826   7.729  0.0859  0.1657  0.4997
  976MOL0     C31674   7.763   7.724   7.440  0.8543 -0.5336  0.5589
  976MOL0     C31675   7.636   7.726   7.380 -0.0617 -0.0439 -0.0782
  976MOL0     N31676   7.032   7.995   7.025  0.3604 -0.2525 -0.5447
  976MOL0     N31677   7.042   8.123   7.003 -0.0471  0.3284 -0.2893
  976MOL0     C31678   6.436   9.126   7.139 -0.1604  0.2662  0.1557
  976MOL0     C31679   6.317   9.188   7.129  1.3069  0.4370 -0.4592
  976MOL0     C31680   5.937   9.379   7.091  0.1782  1.1035 -1.8047
  976MOL0     C31681   5.838   9.305   7.171 -0.3195 -0.5877  0.5441
  976MOL0     C31682   5.702   9.326   7.159 -0.1117  0.4646 -0.7356
  976MOL0     C31683   5.660   9.424   7.078  0.4703  0.6737  0.0079
  976MOL0     O31684   5.527   9.445   7.088  0.2460  0.0927 -0.1349
  976MOL0     C31685   5.463   9.538   6.994  0.1424 -0.1134 -0.3299
  976MOL0     C31686   5.322   9.575   7.048 -0.1546 -0.6985 -0.6598
  976MOL0     C31687   5.215   9.467   7.032 -0.0394 -0.4422  0.2769
  976MOL0     C31688   5.090   9.488   7.123 -0.4534 -0.7067  0.3562
  976MOL0     C31689   4.989   9.393   7.097 -0.4024 -0.2914  0.5417
  976MOL0     C31690   4.887   9.333   7.082  0.1644 -1.4409 -0.7494
  976MOL0     C31691   5.749   9.499   6.994  0.0903 -0.1008  0.8832
  976MOL0     C31692   5.884   9.469   6.996  0.8928 -0.8799 -0.5291
  976MOL0     H31693   6.206   9.148   7.449 -1.0808  0.0721 -0.4909
  976MOL0     H31694   6.444   9.079   7.473 -2.1336  0.0776  1.2349
  976MOL0     H31695   6.552   8.856   7.388 -1.1976 -2.4827 -0.7234
  976MOL0     H31696   6.523   8.844   7.220  1.5750 -1.3787 -1.9792
  976MOL0     H31697   6.766   8.846   7.167  0.6503  0.5569  0.3118
  976MOL0     H31698   6.823   8.873   7.326  1.1946  1.0975 -2.8213
  976MOL0     H31699   6.714   8.655   7.389 -0.1780  1.7457  0.1899
  976MOL0     H31700   6.702   8.626   7.210  0.2246  2.5172 -1.7148
  976MOL0     H31701   6.961   8.700   7.342 -0.1268  0.0273  0.0206
  976MOL0     H31702   6.899   8.533   7.328  2.4886 -0.0231 -0.3218
  976MOL0     H31703   6.975   8.730   7.107 -3.4482  1.2414 -1.0863
  976MOL0     H31704   7.067   8.592   7.152  0.5604  0.6437 -0.6456
  976MOL0     H31705   6.785   8.567   7.030 -0.0983  0.8673  2.3225
  976MOL0     H31706   6.933   8.536   6.940  2.2228  1.0334 -0.6568
  976MOL0     H31707   6.787   8.387   7.162 -0.0680  0.8005  0.4340
  976MOL0     H31708   6.830   8.335   6.998 -2.0940  1.2380  0.4521
  976MOL0     H31709   6.999   8.339   7.253 -2.0055 -1.7352 -0.0811
  976MOL0     H31710   7.090   8.358   7.102  1.3196 -1.1594  1.6814
  976MOL0     H31711   6.923   8.101   7.309 -2.4217  4.3966 -1.8591
  976MOL0     H31712   6.904   7.841   7.297 -1.2330  1.7423 -3.3130
  976MOL0     H31713   6.975   7.755   7.162 -0.2796  3.4174 -2.9521
  976MOL0     H31714   7.118   7.720   7.369 -1.2647  1.2170  2.9164
  976MOL0     H31715   7.156   7.893   7.376 -0.9150 -1.1667  2.5376
  976MOL0     H31716   7.280   7.877   7.149  2.6749 -1.1413 -0.8267
  976MOL0     H31717   7.215   7.714   7.141  1.1904 -2.8113  3.3955
  976MOL0     H31718   7.444   7.766   7.210  3.2573  1.0269  2.7471
  976MOL0     H31719   7.357   7.627   7.294 -0.1675  0.4787  1.5635
  976MOL0     H31720   7.457   7.881   7.613 -0.9373 -1.8542  2.5448
  976MOL0     H31721   7.574   7.912   7.809  0.6067 -0.1883  0.5949
  976MOL0     H31722   7.726   7.837   7.848  0.1365  0.5197  0.8561
  976MOL0     H31723   7.719   7.995   7.769  3.8206 -1.0222  2.4399
  976MOL0     H31724   8.073   7.920   7.410  1.3021 -1.0479 -1.5134
  976MOL0     H31725   8.289   8.041   7.412  1.2144 -0.8758 -0.4764
  976MOL0     H31726   8.624   7.927   7.693 -1.7122  0.9230 -0.0208
  976MOL0     H31727   8.609   7.826   7.552  0.8910  0.7610 -2.9125
  976MOL0     H31728   8.803   7.931   7.520 -1.5028 -0.8188  2.4018
  976MOL0     H31729   8.703   8.020   7.408  1.8062 -0.6086 -0.6037
  976MOL0     H31730   8.760   8.139   7.679 -7.1118  0.3015 -0.0867
  976MOL0     H31731   8.676   8.214   7.539 -0.0871 -0.9401 -4.7021
  976MOL0     H31732   8.966   8.118   7.521 -0.1536 -0.1641 -1.1337
  976MOL0     H31733   8.880   8.215   7.399 -2.0862  1.3450  0.0188
  976MOL0     H31734   8.931   8.307   7.695 -0.2696 -1.8758  0.5477
  976MOL0     H31735   8.844   8.396   7.571  1.2860  0.9535  0.5614
  976MOL0     H31736   9.090   8.363   7.423 -0.7032  2.5632 -0.6331
  976MOL0     H31737   9.071   8.482   7.552 -1.1075  0.4425 -0.3329
  976MOL0     H31738   9.169   8.197   7.565 -2.2009 -0.1741  0.3832
  976MOL0     H31739   9.142   8.299   7.701 -1.8784  0.7915 -0.5762
  976MOL0     H31740   9.312   8.353   7.475  1.8226 -1.4280 -0.1975
  976MOL0     H31741   9.371   8.265   7.615  0.6187  0.7426  1.1884
  976MOL0     H31742   8.444   7.751   7.685  3.5861  3.4873 -0.7462
  976MOL0     H31743   8.218   7.655   7.706 -0.5119  1.4723  0.9274
  976MOL0     H31744   7.837   7.672   7.380  0.1528  0.5592 -1.3609
  976MOL0     H31745   7.644   7.697   7.276 -0.2125  0.1117 -0.1354
  976MOL0     H31746   6.486   9.114   7.043 -0.5422 -1.0111  0.0969
  976MOL0     H31747   6.292   9.222   7.029  0.7774 -3.2108 -1.7264
  976MOL0     H31748   5.868   9.229   7.242 -3.5995 -2.3449  0.2883
  976MOL0     H31749   5.638   9.263   7.220  1.5082 -0.9313 -0.3955
  976MOL0     H31750   5.508   9.635   6.970 -1.7654  0.6125 -1.1192
  976MOL0     H31751   5.446   9.492   6.896 -0.1690  0.0410 -0.3474
  976MOL0     H31752   5.277   9.661   6.996 -1.1948 -0.1867  1.0007
  976MOL0     H31753   5.328   9.596   7.155  1.3663 -0.3645 -0.7985
  976MOL0     H31754   5.253   9.364   7.039  0.6278 -0.3418 -1.4797
  976MOL0     H31755   5.170   9.480   6.933  0.7056 -2.0214 -0.3070
  976MOL0     H31756   5.043   9.587   7.129 -0.1982 -0.2853 -2.9252
  976MOL0     H31757   5.126   9.472   7.226  3.4889  0.8071 -0.5975
  976MOL0     H31758   4.789   9.293   7.067 -0.7392  0.8654 -1.3282
  976MOL0     H31759   5.720   9.581   6.929  0.2987 -0.8680 -0.2173
  976MOL0     H31760   5.958   9.538   6.958  1.3522 -1.0238  0.0872
  977MOL0     O31761   3.736   1.130   2.882  0.4555  0.3252 -0.5998
  977MOL0     C31762   3.643   1.115   2.970  0.5400 -0.3697  0.3128
  977MOL0     O31763   3.509   1.092   2.942  0.0512 -0.3756  0.2914
  977MOL0     C31764   3.478   1.070   2.810 -0.0369 -0.0918  0.5978
  977MOL0     C31765   3.431   1.181   2.738 -0.5016 -0.0195  0.5520
  977MOL0     C31766   3.384   1.157   2.607  0.3477 -0.2760 -0.1473
  977MOL0     C31767   3.399   1.040   2.536 -0.5231  0.1309 -0.2141
  977MOL0     O31768   3.353   1.033   2.408  0.2883  0.6401 -0.2154
  977MOL0     C31769   3.410   0.927   2.328  0.6898 -0.8451 -0.3948
  977MOL0     C31770   3.410   0.973   2.177 -0.1795 -0.3669 -0.9224
  977MOL0     C31771   3.268   1.021   2.135  0.6920  0.0961 -0.3478
  977MOL0     C31772   3.273   1.049   1.982  0.2851 -0.3770 -1.2717
  977MOL0     C31773   3.127   1.076   1.933 -0.2582  0.7772 -1.0996
  977MOL0     C31774   3.091   1.224   1.943 -0.2888 -0.3868  0.0507
  977MOL0     C31775   2.949   1.238   1.878 -0.1187 -1.0328  0.4184
  977MOL0     C31776   2.910   1.190   1.735 -0.0113 -0.1861  0.9995
  977MOL0     N31777   2.766   1.178   1.725  0.5676 -0.0103  0.6071
  977MOL0     C31778   2.680   1.280   1.718  0.3952 -0.0419 -0.4516
  977MOL0     C31779   2.553   1.226   1.743 -0.3488  0.4865 -0.5105
  977MOL0     C31780   2.426   1.292   1.755  0.1721 -0.1696 -0.0092
  977MOL0     C31781   2.430   1.441   1.791  0.0669 -0.1658  0.6353
  977MOL0     C31782   2.482   1.458   1.937  0.5301 -0.7038 -0.0298
  977MOL0     C31783   2.456   1.601   2.006 -0.2931  0.4010  0.3760
  977MOL0     O31784   2.542   1.702   1.960 -0.7865 -0.7437  0.5405
  977MOL0     C31785   2.680   1.679   1.962  0.2451  0.3588 -0.2268
  977MOL0     C31786   2.755   1.659   1.847 -0.9471  0.3019  0.0318
  977MOL0     C31787   2.891   1.633   1.845 -0.3477 -0.2304  0.0550
  977MOL0     C31788   2.961   1.604   1.722  0.4357 -0.9678 -0.3323
  977MOL0     C31789   2.966   1.630   1.970 -0.2737 -0.1850 -0.7218
  977MOL0     C31790   3.110   1.590   1.978 -0.0091 -0.1465  0.9597
  977MOL0     O31791   3.174   1.635   2.092  0.3455  0.0519  0.3688
  977MOL0     C31792   3.298   1.580   2.121  0.1459 -0.0834  0.6237
  977MOL0     C31793   3.417   1.661   2.149  0.0186  0.6688  0.3816
  977MOL0     C31794   3.528   1.598   2.214 -0.0825 -0.1840  0.1728
  977MOL0     C31795   3.534   1.465   2.238  0.0040  0.1786  0.3831
  977MOL0     O31796   3.652   1.416   2.301 -0.0385 -0.7153 -0.6101
  977MOL0     C31797   3.662   1.273   2.319  0.3250  0.2609  0.8823
  977MOL0     C31798   3.769   1.245   2.414 -0.2477  0.2170 -0.1876
  977MOL0     C31799   3.789   1.096   2.437 -0.4767 -0.1473  0.1407
  977MOL0     C31800   3.917   1.080   2.528  0.5844  1.1687  0.1440
  977MOL0     C31801   3.902   0.944   2.610 -0.1061 -0.0141  0.4548
  977MOL0     C31802   4.025   0.935   2.690  0.1563  0.2911  0.6656
  977MOL0     C31803   4.032   1.026   2.811  0.1383 -0.7039  0.3957
  977MOL0     C31804   4.166   1.014   2.885  1.3089 -0.0868  0.8559
  977MOL0    Cl31805   4.179   1.131   3.021 -0.1738  0.3705  0.1706
  977MOL0     C31806   3.436   1.384   2.188  0.2056 -0.3690  0.5072
  977MOL0     C31807   3.320   1.438   2.132  0.2781 -0.1448 -0.0196
  977MOL0     O31808   3.168   1.531   1.883  0.5107 -0.4730 -0.2304
  977MOL0     C31809   2.888   1.651   2.084  0.7375  0.4347  0.6115
  977MOL0     C31810   2.748   1.678   2.080  0.1299  1.4312  0.2224
  977MOL0     N31811   2.573   1.083   1.742 -0.1434 -0.3837 -0.6471
  977MOL0     N31812   2.697   1.057   1.734 -0.3741  0.3420  0.8030
  977MOL0     C31813   3.462   0.933   2.605  0.6100 -0.1243 -0.3911
  977MOL0     C31814   3.495   0.946   2.744  0.1161  0.1395 -0.1867
  977MOL0     C31815   3.684   1.151   3.104  0.4841  0.4091 -1.0530
  977MOL0     C31816   3.817   1.174   3.135 -1.0563 -0.6191 -0.2089
  977MOL0     C31817   3.853   1.240   3.254  0.4591  0.1115 -0.1198
  977MOL0     C31818   3.757   1.278   3.348 -1.1163 -0.3938  0.3571
  977MOL0     O31819   3.800   1.340   3.466  0.4160  0.1182 -0.3240
  977MOL0     C31820   3.867   1.264   3.560 -1.4167  1.0469 -0.7749
  977MOL0     C31821   3.893   1.351   3.683  0.0219  0.1952  0.6860
  977MOL0     C31822   3.993   1.462   3.640  0.4444 -0.3098  0.3863
  977MOL0     C31823   4.049   1.549   3.756  0.1185  0.6499 -0.5981
  977MOL0     C31824   4.120   1.473   3.863 -0.1558  0.9913  1.4018
  977MOL0     C31825   4.173   1.410   3.952  0.1011 -0.3100  0.6327
  977MOL0     C31826   3.624   1.240   3.324 -0.8421 -0.3277 -1.1571
  977MOL0     C31827   3.587   1.177   3.200 -0.5963 -0.1481  0.1937
  977MOL0     H31828   3.411   1.276   2.787  2.8085  0.5770  0.9384
  977MOL0     H31829   3.353   1.239   2.544  1.6550  0.5497  0.2339
  977MOL0     H31830   3.515   0.909   2.354  2.1934  0.4209 -4.7672
  977MOL0     H31831   3.349   0.837   2.339 -0.9798 -0.0294 -2.4163
  977MOL0     H31832   3.486   1.050   2.160 -0.7279  1.1361  2.4481
  977MOL0     H31833   3.434   0.878   2.129  1.2385 -1.2734  1.3835
  977MOL0     H31834   3.192   0.943   2.149  1.2979 -1.1343 -3.1594
  977MOL0     H31835   3.230   1.109   2.189 -0.0699 -0.4432  0.0101
  977MOL0     H31836   3.339   1.136   1.973  0.2387 -0.0821  0.7457
  977MOL0     H31837   3.312   0.967   1.921  0.2493  0.0761 -1.9118
  977MOL0     H31838   3.124   1.049   1.827  2.3401 -1.9394 -0.6324
  977MOL0     H31839   3.044   1.014   1.969 -1.2626  1.6875 -1.8003
  977MOL0     H31840   3.075   1.263   2.044 -3.0910  3.6967 -1.7112
  977MOL0     H31841   3.172   1.277   1.892  1.8746 -0.2029  3.3413
  977MOL0     H31842   2.863   1.203   1.935  0.1751 -2.3021  0.1087
  977MOL0     H31843   2.933   1.346   1.884 -4.9225 -1.5433  0.6778
  977MOL0     H31844   2.950   1.089   1.718  0.6188  0.4492 -1.8174
  977MOL0     H31845   2.955   1.260   1.665  1.1347  0.1426  2.0214
  977MOL0     H31846   2.705   1.386   1.711  4.1713 -0.7585 -0.3352
  977MOL0     H31847   2.378   1.266   1.660  2.2248  1.0150 -1.4695
  977MOL0     H31848   2.362   1.242   1.828 -1.4278 -0.5755 -1.6110
  977MOL0     H31849   2.328   1.481   1.789 -0.3967 -1.3122  0.0956
  977MOL0     H31850   2.500   1.487   1.721 -0.1668 -1.5174 -0.5467
  977MOL0     H31851   2.587   1.427   1.938  1.2914  1.6417 -0.8915
  977MOL0     H31852   2.418   1.383   1.984 -2.5108  0.5053 -1.9219
  977MOL0     H31853   2.469   1.598   2.115  0.7732  0.9285  0.2835
  977MOL0     H31854   2.353   1.633   1.994  0.0638  1.2785 -0.4621
  977MOL0     H31855   2.700   1.661   1.753 -1.6299  2.6276  0.4114
  977MOL0     H31856   2.890   1.626   1.642 -0.0730  1.5494  0.7300
  977MOL0     H31857   3.045   1.673   1.705  1.1673 -1.2799  1.7767
  977MOL0     H31858   2.999   1.502   1.715  1.4593 -0.5997 -0.3398
  977MOL0     H31859   3.418   1.769   2.149  1.8864  0.6959 -0.9784
  977MOL0     H31860   3.601   1.664   2.260 -1.2339  0.8861  0.5391
  977MOL0     H31861   3.567   1.227   2.348 -1.9772  0.1068 -5.3342
  977MOL0     H31862   3.703   1.234   2.225 -0.6806  1.9701 -0.3280
  977MOL0     H31863   3.862   1.288   2.377 -0.9528 -0.2775 -2.7389
  977MOL0     H31864   3.738   1.297   2.505 -0.4245  0.9763 -0.6743
  977MOL0     H31865   3.799   1.046   2.341 -0.9111  1.7522 -0.9467
  977MOL0     H31866   3.700   1.045   2.476  0.0262 -0.7927  0.4562
  977MOL0     H31867   3.999   1.078   2.455 -0.0147  0.2569 -0.5304
  977MOL0     H31868   3.916   1.162   2.599 -1.7141  2.5680 -1.3877
  977MOL0     H31869   3.891   0.855   2.548 -2.0791 -0.7906  1.8330
  977MOL0     H31870   3.812   0.948   2.671  0.0997  0.0182  0.7569
  977MOL0     H31871   4.011   0.833   2.728 -1.8254 -0.5682 -2.0729
  977MOL0     H31872   4.106   0.947   2.617 -2.1237  3.4388 -1.5983
  977MOL0     H31873   3.950   1.002   2.879 -0.6263  0.7426  0.0373
  977MOL0     H31874   4.024   1.130   2.777  3.1272 -0.5893 -0.2211
  977MOL0     H31875   4.238   1.043   2.808 -0.9900  2.3137 -0.5622
  977MOL0     H31876   4.192   0.911   2.909 -0.4876 -1.2691 -1.7584
  977MOL0     H31877   3.432   1.277   2.206 -1.7230  0.1525  3.9156
  977MOL0     H31878   3.234   1.377   2.108  1.6860 -1.1071 -3.0411
  977MOL0     H31879   2.937   1.643   2.180 -1.3524 -2.1114  1.5817
  977MOL0     H31880   2.703   1.728   2.165 -2.5529  0.9731 -0.8331
  977MOL0     H31881   3.495   0.843   2.554 -1.5097 -1.0436 -0.2406
  977MOL0     H31882   3.529   0.857   2.797  1.1292 -0.8110 -2.3220
  977MOL0     H31883   3.897   1.152   3.065  2.2777  2.5040  2.1900
  977MOL0     H31884   3.955   1.261   3.282  0.7852  0.4084 -1.4565
  977MOL0     H31885   3.792   1.189   3.587 -0.7920  0.9005  0.6727
  977MOL0     H31886   3.958   1.218   3.521 -2.4449 -0.4785 -1.4931
  977MOL0     H31887   3.948   1.302   3.765 -0.6625  1.5671  2.0264
  977MOL0     H31888   3.802   1.401   3.719 -0.6720 -0.8236  0.3781
  977MOL0     H31889   3.951   1.532   3.567 -0.6633  2.5426  3.5281
  977MOL0     H31890   4.081   1.422   3.588  3.0519  3.5460  1.4123
  977MOL0     H31891   3.965   1.592   3.811  0.3687 -2.6286  2.6701
  977MOL0     H31892   4.110   1.627   3.708 -0.0575  0.1244 -1.6968
  977MOL0     H31893   4.210   1.347   4.030  1.3269 -0.6371 -0.1791
  977MOL0     H31894   3.554   1.264   3.403  1.7318  1.6205  0.6916
  977MOL0     H31895   3.482   1.160   3.178 -0.2621 -0.8157 -0.9698
  978MOL0     O31896  11.220   3.921  10.481 -0.6665  0.4003 -0.0545
  978MOL0     C31897  11.208   3.816  10.538  0.1055  0.2444 -0.7536
  978MOL0     O31898  11.091   3.748  10.567 -0.1282 -0.1473 -0.3478
  978MOL0     C31899  10.978   3.816  10.547  0.5364 -0.6127 -0.5551
  978MOL0     C31900  10.965   3.946  10.605 -0.0432 -0.7750  0.5734
  978MOL0     C31901  10.846   4.014  10.577  0.3264  0.8241  0.0794
  978MOL0     C31902  10.741   3.954  10.502  1.0239  1.0390  0.1029
  978MOL0     O31903  10.626   4.023  10.464 -0.0132  0.4208 -0.2859
  978MOL0     C31904  10.552   4.070  10.576  0.3083 -0.5664  0.2500
  978MOL0     C31905  10.420   4.108  10.514 -0.6972  1.3118 -0.0851
  978MOL0     C31906  10.320   3.992  10.495  0.9879 -0.3452  0.8952
  978MOL0     C31907  10.194   4.030  10.401 -0.3172 -0.6994 -1.0168
  978MOL0     C31908  10.104   3.923  10.344 -0.5003 -0.5605  0.6529
  978MOL0     C31909  10.022   3.854  10.456  0.6466  0.5751 -0.4997
  978MOL0     C31910   9.901   3.770  10.399 -0.0092 -0.0236  0.1531
  978MOL0     C31911   9.841   3.672  10.507 -0.0905 -0.3031  0.3530
  978MOL0     N31912   9.727   3.599  10.446  0.5576  0.2273  0.3367
  978MOL0     C31913   9.735   3.476  10.385  0.4627  0.3536  0.7720
  978MOL0     C31914   9.610   3.457  10.335 -0.5956 -0.1916  1.3264
  978MOL0     C31915   9.555   3.349  10.251  0.0731  0.6070 -0.2396
  978MOL0     C31916   9.397   3.336  10.279 -0.2160 -0.4303 -0.3772
  978MOL0     C31917   9.336   3.223  10.203 -0.9994 -0.4139 -0.4421
  978MOL0     C31918   9.195   3.241  10.191 -0.3961  0.7157  0.0859
  978MOL0     O31919   9.152   3.109  10.171  0.1214 -0.3104 -0.5279
  978MOL0     C31920   9.025   3.086  10.212 -0.0902 -1.2010  0.4681
  978MOL0     C31921   8.932   3.066  10.112 -0.0292 -0.1906 -0.4486
  978MOL0     C31922   8.792   3.038  10.129  0.0469  0.6336 -0.7896
  978MOL0     C31923   8.720   2.973  10.012  0.3119  0.5885  0.0388
  978MOL0     C31924   8.733   3.059  10.255  0.4240  1.0127 -0.3446
  978MOL0     C31925   8.586   3.029  10.294  0.2063 -0.1518  0.5761
  978MOL0     O31926   8.565   3.002  10.424 -0.4170  0.7400  0.4299
  978MOL0     C31927   8.442   3.027  10.473 -0.2609  0.2094 -0.5234
  978MOL0     C31928   8.391   3.153  10.512 -0.1176 -0.3215 -0.0886
  978MOL0     C31929   8.257   3.154  10.558 -0.5140  0.6319 -0.9303
  978MOL0     C31930   8.176   3.046  10.576  0.5684 -0.3942 -0.0644
  978MOL0     O31931   8.042   3.043  10.611  0.3105  0.4563  0.0692
  978MOL0     C31932   8.010   3.136  10.712  0.1696  1.0611  0.8626
  978MOL0     C31933   7.920   3.064  10.808  0.7702  0.3334  0.2577
  978MOL0     C31934   7.774   3.027  10.763  1.0234  1.0963  0.3314
  978MOL0     C31935   7.703   2.950  10.869  0.7767  0.5059  1.4049
  978MOL0     C31936   7.736   2.805  10.884 -0.6897  0.5984 -1.0461
  978MOL0     C31937   7.652   2.740  10.998 -0.4438 -0.1888 -0.1412
  978MOL0     C31938   7.714   2.780  11.129  0.6202  1.1135  0.1345
  978MOL0     C31939   7.622   2.764  11.247  0.3638  1.4863 -0.8099
  978MOL0    Cl31940   7.488   2.887  11.227 -0.0460  0.2915  0.5779
  978MOL0     C31941   8.237   2.923  10.556  0.4903  0.0326 -1.0504
  978MOL0     C31942   8.359   2.909  10.491  0.1717 -0.7882  0.1541
  978MOL0     O31943   8.501   3.047  10.210  0.3700  0.2417 -0.1192
  978MOL0     C31944   8.827   3.089  10.364  0.8092  0.6011  0.0445
  978MOL0     C31945   8.966   3.109  10.341 -0.5136  0.8665 -0.0482
  978MOL0     N31946   9.526   3.567  10.366  0.0674  0.1432 -0.9441
  978MOL0     N31947   9.597   3.648  10.435 -0.0203  0.6731 -0.0803
  978MOL0     C31948  10.756   3.825  10.444  0.5026 -0.7456  0.0095
  978MOL0     C31949  10.880   3.754  10.471 -0.6584 -0.2420  0.2392
  978MOL0     C31950  11.330   3.735  10.541  0.5562 -0.2685  0.3027
  978MOL0     C31951  11.341   3.602  10.583 -0.3755 -0.8789 -0.4258
  978MOL0     C31952  11.458   3.526  10.576 -0.5090 -1.1340  0.1632
  978MOL0     C31953  11.570   3.579  10.518  0.7188 -0.4843  0.4222
  978MOL0     O31954  11.683   3.498  10.513  0.7927 -1.0273  0.4451
  978MOL0     C31955  11.757   3.488  10.392  0.2971 -0.0404 -0.6214
  978MOL0     C31956  11.814   3.344  10.365  0.6177  0.0969 -0.5014
  978MOL0     C31957  11.943   3.320  10.455 -0.5530 -0.5848 -0.2772
  978MOL0     C31958  12.002   3.178  10.463  0.0238  0.0961  0.5163
  978MOL0     C31959  12.139   3.180  10.501 -0.5412  0.2385 -0.4930
  978MOL0     C31960  12.251   3.169  10.549 -0.1802 -0.0898  0.3623
  978MOL0     C31961  11.572   3.719  10.485  1.5273  0.5113  0.0726
  978MOL0     C31962  11.453   3.795  10.503  0.2043  0.1074  0.0598
  978MOL0     H31963  11.043   3.995  10.662 -0.4871  0.8851 -0.1695
  978MOL0     H31964  10.824   4.119  10.591  3.7824  2.2630 -3.2989
  978MOL0     H31965  10.535   3.992  10.651  1.5569  2.1070  3.6062
  978MOL0     H31966  10.607   4.154  10.621 -0.2862 -0.6284  1.1132
  978MOL0     H31967  10.365   4.164  10.590 -2.2621 -0.6157  0.2925
  978MOL0     H31968  10.442   4.153  10.416  0.6346 -1.0123 -0.9439
  978MOL0     H31969  10.366   3.898  10.462 -0.7186 -0.7365 -0.5258
  978MOL0     H31970  10.280   3.977  10.595  1.4887 -1.3537  0.9643
  978MOL0     H31971  10.128   4.092  10.463 -0.3197 -1.1995 -0.5159
  978MOL0     H31972  10.234   4.097  10.324  2.4425  0.1839  1.0242
  978MOL0     H31973  10.037   3.979  10.279  0.7026  1.0650  0.7643
  978MOL0     H31974  10.169   3.856  10.287  0.4123  1.9482 -1.4516
  978MOL0     H31975  10.095   3.793  10.511  0.9209  0.5189 -0.9183
  978MOL0     H31976   9.981   3.925  10.528 -0.0019 -0.4271  0.1535
  978MOL0     H31977   9.828   3.837  10.352  1.7282  0.9879 -1.2634
  978MOL0     H31978   9.940   3.705  10.320 -1.6799  0.1293 -0.8494
  978MOL0     H31979   9.796   3.729  10.589 -1.1318  3.3474 -2.4574
  978MOL0     H31980   9.922   3.617  10.555  1.6658  1.8966  0.0544
  978MOL0     H31981   9.825   3.415  10.378  1.4482  1.9422 -1.6145
  978MOL0     H31982   9.576   3.374  10.147  3.2516  0.6434  0.3146
  978MOL0     H31983   9.618   3.260  10.262  0.9593  1.2713  0.1603
  978MOL0     H31984   9.347   3.426  10.242  1.1383  0.3506 -0.3846
  978MOL0     H31985   9.380   3.320  10.386 -1.7262  1.0388 -0.3711
  978MOL0     H31986   9.337   3.134  10.265  0.4899  0.9030  1.5516
  978MOL0     H31987   9.382   3.204  10.105  1.5281  4.0835 -0.4200
  978MOL0     H31988   9.164   3.303  10.106 -0.9206  0.3955  0.0388
  978MOL0     H31989   9.156   3.293  10.280 -1.5253  1.4592 -0.8141
  978MOL0     H31990   8.989   3.041  10.023  0.9657 -2.6082  0.7649
  978MOL0     H31991   8.677   3.040   9.936 -0.3900 -1.2058 -1.2269
  978MOL0     H31992   8.796   2.914   9.960  0.7757 -0.7541  2.1224
  978MOL0     H31993   8.642   2.901  10.039  0.3983  1.0641  1.6145
  978MOL0     H31994   8.437   3.250  10.497 -3.7119  1.5480 -0.3042
  978MOL0     H31995   8.216   3.255  10.567 -0.5039  0.5188  0.5725
  978MOL0     H31996   8.093   3.176  10.772  0.5287  1.2900  0.2255
  978MOL0     H31997   7.968   3.222  10.659  4.2359  2.6337 -0.2571
  978MOL0     H31998   7.969   2.969  10.830 -1.3615 -1.3431 -1.7290
  978MOL0     H31999   7.908   3.122  10.899 -1.3506  0.1703  0.1402
  978MOL0     H32000   7.773   2.969  10.671 -1.8805 -1.3676  1.7392
  978MOL0     H32001   7.717   3.118  10.741 -0.1244  0.3358  0.0628
  978MOL0     H32002   7.740   3.001  10.958  1.3180 -0.2034  1.6014
  978MOL0     H32003   7.598   2.961  10.842  0.8506 -2.0696 -0.2794
  978MOL0     H32004   7.842   2.788  10.902 -0.4995  0.1507 -2.4475
  978MOL0     H32005   7.714   2.747  10.794  0.3908 -1.7620  0.1052
  978MOL0     H32006   7.548   2.771  10.992  0.2575  2.2779 -1.0411
  978MOL0     H32007   7.653   2.631  10.989 -2.2338 -0.3273  1.0140
  978MOL0     H32008   7.756   2.881  11.131 -0.1084  1.4056  1.9225
  978MOL0     H32009   7.802   2.716  11.141  1.0828  1.3697 -1.5705
  978MOL0     H32010   7.664   2.799  11.342 -0.9787  1.9194 -0.3624
  978MOL0     H32011   7.584   2.664  11.266  2.0403  0.7776 -1.0002
  978MOL0     H32012   8.178   2.834  10.577 -3.2380  1.8610 -2.7025
  978MOL0     H32013   8.400   2.809  10.475  1.5507 -0.0552 -1.1890
  978MOL0     H32014   8.789   3.098  10.465  0.5652 -2.1014  0.2886
  978MOL0     H32015   9.028   3.148  10.421 -2.1937  3.0896  0.2562
  978MOL0     H32016  10.671   3.788  10.386  2.0028  0.3501 -3.1168
  978MOL0     H32017  10.891   3.650  10.444  0.0145  0.1506 -1.1413
  978MOL0     H32018  11.247   3.557  10.615 -1.1925 -0.5998 -2.2770
  978MOL0     H32019  11.476   3.425  10.612  1.7655 -1.0982 -0.6829
  978MOL0     H32020  11.681   3.509  10.316 -0.8513  0.1170  0.5255
  978MOL0     H32021  11.832   3.567  10.393  1.0527 -0.7409  0.1141
  978MOL0     H32022  11.840   3.327  10.260 -0.0084  1.0267 -0.8266
  978MOL0     H32023  11.735   3.271  10.383  0.3513  0.8465  1.6703
  978MOL0     H32024  11.931   3.350  10.560  0.9805 -2.2919  0.4420
  978MOL0     H32025  12.026   3.382  10.421  0.3322  0.1488  2.8807
  978MOL0     H32026  11.984   3.145  10.360  0.8523  1.4083 -0.0695
  978MOL0     H32027  11.945   3.110  10.527 -2.2621 -0.1747 -1.6412
  978MOL0     H32028  12.350   3.161  10.587 -0.4430  0.6413  1.2450
  978MOL0     H32029  11.660   3.773  10.452  0.2113  1.5645 -1.9252
  978MOL0     H32030  11.464   3.902  10.491  0.6211  0.0129 -0.4379
  979MOL0     O32031   0.204   7.737  10.523 -0.7589 -0.0875 -0.4137
  979MOL0     C32032   0.221   7.701  10.409  0.2240  0.9681  0.5358
  979MOL0     O32033   0.281   7.766  10.303  0.0811  0.0690  0.1776
  979MOL0     C32034   0.338   7.892  10.319 -0.5204  0.7973  0.4269
  979MOL0     C32035   0.458   7.900  10.387 -0.2878  0.1701 -0.1490
  979MOL0     C32036   0.529   8.019  10.391 -0.2887  0.1418 -0.5618
  979MOL0     C32037   0.482   8.135  10.326 -1.4947 -0.6260  0.0828
  979MOL0     O32038   0.562   8.247  10.317  0.1233  0.7592  0.1244
  979MOL0     C32039   0.506   8.356  10.251 -0.7952  0.4402  0.9356
  979MOL0     C32040   0.603   8.472  10.232 -0.2096  0.2264  0.8301
  979MOL0     C32041   0.740   8.433  10.183 -1.1830  0.3447  0.2152
  979MOL0     C32042   0.753   8.411  10.039 -0.2631 -0.4621 -1.3747
  979MOL0     C32043   0.890   8.352  10.002  0.4717 -0.3882  0.7598
  979MOL0     C32044   0.876   8.349   9.848  0.4677  0.2552 -0.4912
  979MOL0     C32045   0.998   8.282   9.792 -0.0494  0.4975 -0.6710
  979MOL0     C32046   0.992   8.277   9.636 -0.8304  0.4996 -0.2766
  979MOL0     N32047   0.907   8.174   9.590  0.4242 -0.3275  0.0283
  979MOL0     C32048   0.957   8.056   9.547 -0.6314 -0.5125  0.2952
  979MOL0     C32049   0.845   7.997   9.503  0.1616 -0.1603  0.8757
  979MOL0     C32050   0.841   7.865   9.437 -0.5606  0.0033  0.6402
  979MOL0     C32051   0.920   7.866   9.306  0.3586 -0.4492  0.4598
  979MOL0     C32052   0.842   7.945   9.205 -0.3387 -0.2636  0.7358
  979MOL0     C32053   0.689   7.918   9.188  0.2101 -0.4374  0.1450
  979MOL0     O32054   0.644   7.776   9.209  0.0170  0.0268  0.0672
  979MOL0     C32055   0.519   7.739   9.160  0.1127  0.2254 -0.0569
  979MOL0     C32056   0.408   7.817   9.165 -0.0873 -0.1528  0.1005
  979MOL0     C32057   0.274   7.779   9.130 -0.2778 -1.3867  0.3309
  979MOL0     C32058   0.175   7.890   9.120  0.5785 -0.4538  0.5788
  979MOL0     C32059   0.247   7.643   9.100  1.1577 -0.4204  0.6541
  979MOL0     C32060   0.110   7.603   9.063 -1.0241  0.2889 -0.2599
  979MOL0     O32061   0.056   7.497   9.140 -1.2363  0.0575  0.0255
  979MOL0     C32062  -0.065   7.449   9.101  0.0891 -0.6861  0.0701
  979MOL0     C32063  -0.086   7.355   8.995 -0.7656 -0.3526  0.0371
  979MOL0     C32064  -0.215   7.328   8.955 -1.1540  0.0713  1.0959
  979MOL0     C32065  -0.326   7.387   9.013 -0.7741 -0.5568  0.4924
  979MOL0     O32066  -0.445   7.353   8.958 -1.0404  0.6911  0.4865
  979MOL0     C32067  -0.563   7.372   9.032 -0.6485  1.0854  0.0277
  979MOL0     C32068  -0.675   7.337   8.943 -0.6852  0.2835 -0.0878
  979MOL0     C32069  -0.817   7.347   9.006  0.3909 -0.4513  0.0014
  979MOL0     C32070  -0.827   7.496   9.064 -0.5154  0.7796 -0.1041
  979MOL0     C32071  -0.971   7.538   9.077  0.3789  0.3500 -0.0700
  979MOL0     C32072  -0.979   7.665   9.169 -0.8803  0.2845 -0.4395
  979MOL0     C32073  -1.103   7.744   9.174  0.9416  0.2644 -0.9502
  979MOL0     C32074  -1.128   7.816   9.038  0.4087 -0.1596 -0.5215
  979MOL0    Cl32075  -1.258   7.936   9.048 -0.2667 -0.2659  0.2961
  979MOL0     C32076  -0.314   7.469   9.125  0.5412 -0.7132 -0.3800
  979MOL0     C32077  -0.183   7.504   9.168 -0.7101  0.4738 -0.2599
  979MOL0     O32078   0.060   7.663   8.971 -0.0675  1.0056  0.1251
  979MOL0     C32079   0.354   7.554   9.103 -0.2850  0.0371  0.4248
  979MOL0     C32080   0.488   7.610   9.126  0.5992 -0.2732 -0.0571
  979MOL0     N32081   0.733   8.079   9.518 -0.5062 -0.4855  1.0323
  979MOL0     N32082   0.775   8.188   9.570 -0.3377 -0.0359  1.1078
  979MOL0     C32083   0.352   8.124  10.259  0.1333 -0.5727 -0.0511
  979MOL0     C32084   0.275   8.008  10.269  0.1868 -0.1183  0.8705
  979MOL0     C32085   0.178   7.555  10.396 -0.3473  0.3719 -0.0497
  979MOL0     C32086   0.203   7.492  10.267  1.5132 -0.3235 -0.2296
  979MOL0     C32087   0.175   7.356  10.248 -0.5762 -0.0101 -0.0474
  979MOL0     C32088   0.108   7.287  10.353 -0.9319  0.2181 -0.8365
  979MOL0     O32089   0.090   7.149  10.332 -0.2388  0.2523  0.0944
  979MOL0     C32090  -0.001   7.073  10.416  0.0851 -0.2306  0.3757
  979MOL0     C32091  -0.144   7.132  10.417 -0.2580 -0.4303 -0.9453
  979MOL0     C32092  -0.258   7.037  10.421  0.1093  0.0291 -0.6255
  979MOL0     C32093  -0.392   7.110  10.408 -0.4284 -0.0079  0.0561
  979MOL0     C32094  -0.513   7.028  10.424  0.2642  0.6137 -0.2744
  979MOL0     C32095  -0.607   6.949  10.433 -0.0457 -0.6873  0.1447
  979MOL0     C32096   0.102   7.341  10.483 -0.0760 -0.7731 -0.6377
  979MOL0     C32097   0.138   7.476  10.503 -0.5833  0.0443 -1.4345
  979MOL0     H32098   0.499   7.811  10.433  2.2277  1.0881 -0.4612
  979MOL0     H32099   0.614   8.018  10.460  0.3958 -2.5130 -1.3323
  979MOL0     H32100   0.474   8.321  10.153 -2.4582  3.4201  0.3023
  979MOL0     H32101   0.419   8.389  10.309 -3.5000 -0.4719 -2.2870
  979MOL0     H32102   0.571   8.551  10.162  1.4772 -0.8354 -1.2512
  979MOL0     H32103   0.607   8.528  10.326  3.9504  1.9242 -0.1604
  979MOL0     H32104   0.811   8.509  10.216  1.6716 -1.4965 -1.2904
  979MOL0     H32105   0.780   8.342  10.230 -0.3775 -1.8315 -4.1077
  979MOL0     H32106   0.673   8.341  10.014 -2.3017 -0.0586  3.0595
  979MOL0     H32107   0.740   8.508   9.991 -1.0031 -0.2571 -0.7613
  979MOL0     H32108   0.971   8.419  10.032  1.7754 -0.2727 -2.6297
  979MOL0     H32109   0.891   8.254  10.051 -2.2950 -0.9855 -0.2434
  979MOL0     H32110   0.785   8.293   9.821 -1.3274  2.6649  0.1644
  979MOL0     H32111   0.871   8.452   9.813  3.3078  1.0318  1.1360
  979MOL0     H32112   1.089   8.310   9.847 -0.0404  0.2137 -0.5413
  979MOL0     H32113   0.989   8.177   9.824  1.5051  0.4255 -0.3887
  979MOL0     H32114   1.095   8.260   9.603  0.1100 -1.9196  3.3136
  979MOL0     H32115   0.971   8.381   9.610 -0.2756  0.4411 -0.9906
  979MOL0     H32116   1.062   8.030   9.536 -1.0331 -2.2035  0.1173
  979MOL0     H32117   0.891   7.785   9.493  4.7906  3.1673  1.0765
  979MOL0     H32118   0.738   7.830   9.425 -0.3662 -0.2882 -0.2443
  979MOL0     H32119   0.920   7.767   9.260 -0.4072 -1.1385  1.8691
  979MOL0     H32120   1.023   7.898   9.321  0.1674  1.0342 -1.0751
  979MOL0     H32121   0.888   7.939   9.105 -0.3432 -0.4470  0.7446
  979MOL0     H32122   0.867   8.048   9.231  0.4157 -0.3926  0.5675
  979MOL0     H32123   0.663   7.954   9.088  0.7164  3.9920  1.3845
  979MOL0     H32124   0.630   7.976   9.259 -2.4320 -1.0445 -1.4108
  979MOL0     H32125   0.420   7.918   9.204  1.1650 -0.9613  1.9931
  979MOL0     H32126   0.119   7.863   9.030  5.9989 -3.5160 -2.4485
  979MOL0     H32127   0.123   7.913   9.213  0.5742 -0.2791  0.5333
  979MOL0     H32128   0.228   7.977   9.080  1.1898 -2.0862 -2.4957
  979MOL0     H32129  -0.001   7.311   8.942 -2.1025 -2.7624 -0.2756
  979MOL0     H32130  -0.240   7.271   8.866 -3.5152  1.9570  0.4522
  979MOL0     H32131  -0.582   7.308   9.119 -1.4352  0.1399 -0.8185
  979MOL0     H32132  -0.575   7.470   9.080 -1.3135  0.2191  1.7556
  979MOL0     H32133  -0.677   7.389   8.847 -0.3172 -0.2981 -0.4230
  979MOL0     H32134  -0.651   7.235   8.911 -0.1376  0.3632  0.0614
  979MOL0     H32135  -0.830   7.279   9.090 -0.8938  1.3080  1.2909
  979MOL0     H32136  -0.901   7.323   8.940 -1.2277  1.4833  1.2364
  979MOL0     H32137  -0.784   7.502   9.164  0.1310  0.5087 -0.3555
  979MOL0     H32138  -0.764   7.556   8.998 -0.7466  0.8721 -0.2423
  979MOL0     H32139  -1.028   7.457   9.122 -0.8871 -0.4537 -2.8699
  979MOL0     H32140  -1.029   7.564   8.988 -1.7807  1.5383  1.5898
  979MOL0     H32141  -0.957   7.637   9.272  4.9936 -0.3020 -1.5207
  979MOL0     H32142  -0.904   7.736   9.132  0.0349 -0.0273  0.7711
  979MOL0     H32143  -1.101   7.815   9.257 -3.2531  2.6229 -2.5900
  979MOL0     H32144  -1.185   7.676   9.197  1.1903 -1.1699 -3.8859
  979MOL0     H32145  -1.151   7.746   8.957  2.2944 -2.2442  0.6356
  979MOL0     H32146  -1.040   7.864   8.993  1.2789 -2.3055 -1.2636
  979MOL0     H32147  -0.388   7.505   9.195  2.6759  1.2729  0.9953
  979MOL0     H32148  -0.179   7.557   9.262  0.7575  1.5461 -0.8967
  979MOL0     H32149   0.358   7.446   9.093  2.1001  0.1535 -0.6026
  979MOL0     H32150   0.565   7.534   9.137  0.9734  0.0428 -0.4446
  979MOL0     H32151   0.308   8.197  10.191  1.0052  1.1296  1.1514
  979MOL0     H32152   0.177   7.987  10.228  0.3628  3.7296 -2.1264
  979MOL0     H32153   0.235   7.549  10.181 -3.0525  0.7566 -1.5230
  979MOL0     H32154   0.186   7.309  10.151  0.0680  0.4091 -0.1785
  979MOL0     H32155  -0.009   6.969  10.383  2.9124 -1.1617  2.2934
  979MOL0     H32156   0.052   7.073  10.511  0.1517  0.3463  0.3384
  979MOL0     H32157  -0.151   7.189  10.324 -1.4222 -2.1963 -1.9807
  979MOL0     H32158  -0.157   7.206  10.497 -0.6273 -4.3151  2.9949
  979MOL0     H32159  -0.255   6.982  10.516 -1.1022 -0.4321 -0.8363
  979MOL0     H32160  -0.248   6.956  10.348  0.9318 -0.0471 -0.4446
  979MOL0     H32161  -0.393   7.169  10.316  0.5730 -1.9759 -1.2972
  979MOL0     H32162  -0.396   7.181  10.491  1.0529  0.4534 -0.2347
  979MOL0     H32163  -0.677   6.871  10.457 -1.7246  0.2387 -1.5076
  979MOL0     H32164   0.071   7.277  10.564  3.1137 -0.4293  1.0430
  979MOL0     H32165   0.132   7.513  10.605 -1.5590 -3.1858 -0.1992
  980MOL0     O32166   1.311   8.357  11.435 -0.2100  0.1573  0.0132
  980MOL0     C32167   1.210   8.432  11.412 -0.0483 -0.5264  1.0529
  980MOL0     O32168   1.091   8.435  11.479 -0.3101  0.2649  0.9499
  980MOL0     C32169   1.069   8.333  11.566 -0.7269 -1.0624 -0.0630
  980MOL0     C32170   1.043   8.205  11.526 -0.4769 -0.8010 -0.4878
  980MOL0     C32171   1.018   8.106  11.622 -0.3338  0.0195  1.0501
  980MOL0     C32172   1.004   8.135  11.750  0.2666 -0.3201  0.7548
  980MOL0     O32173   0.968   8.040  11.833 -0.4143 -0.2062  0.5877
  980MOL0     C32174   0.938   8.072  11.968  0.0082 -0.7788  0.3285
  980MOL0     C32175   0.879   7.935  12.040 -1.0798 -0.8409 -0.1597
  980MOL0     C32176   0.736   7.900  12.016 -0.3439 -0.0275  0.2016
  980MOL0     C32177   0.719   7.850  11.871 -0.8143  0.5870 -0.0350
  980MOL0     C32178   0.588   7.791  11.832  0.1544  0.0671 -1.4973
  980MOL0     C32179   0.462   7.886  11.854  0.5433 -0.1391 -1.1508
  980MOL0     C32180   0.356   7.842  11.764 -0.1209 -1.5199 -0.3837
  980MOL0     C32181   0.231   7.933  11.776 -0.3451  0.3519  0.1644
  980MOL0     N32182   0.163   7.904  11.902 -0.1354 -0.1997  0.4062
  980MOL0     C32183   0.153   7.983  12.017  0.3248 -0.7939 -1.0630
  980MOL0     C32184   0.100   7.897  12.112 -0.6695 -0.1295  0.7081
  980MOL0     C32185   0.059   7.950  12.248  0.1676  0.1381  0.2080
  980MOL0     C32186  -0.044   8.064  12.226 -0.4445 -0.4520 -0.0913
  980MOL0     C32187  -0.188   8.018  12.247  0.6598 -0.5326 -0.3640
  980MOL0     C32188  -0.246   7.946  12.130 -0.2084  0.9914 -0.0078
  980MOL0     O32189  -0.383   7.896  12.160  0.5244 -0.5862 -0.1785
  980MOL0     C32190  -0.482   7.978  12.208 -0.8792  0.0464 -0.7853
  980MOL0     C32191  -0.573   7.927  12.297  0.4599 -0.7331  0.8332
  980MOL0     C32192  -0.673   8.007  12.348 -0.8458  0.4469  0.6297
  980MOL0     C32193  -0.764   7.934  12.442  0.5029 -0.3480 -0.1329
  980MOL0     C32194  -0.682   8.139  12.323  0.6567 -0.3621  0.2939
  980MOL0     C32195  -0.792   8.230  12.369  1.3597  0.1173 -0.0722
  980MOL0     O32196  -0.817   8.347  12.305  0.1484 -0.4480  0.0905
  980MOL0     C32197  -0.945   8.406  12.314 -0.6350  1.2320 -0.1172
  980MOL0     C32198  -0.950   8.541  12.339  1.9244  0.1547 -1.0398
  980MOL0     C32199  -1.071   8.612  12.341 -0.2218  0.7140 -0.6272
  980MOL0     C32200  -1.184   8.552  12.295  0.2561  0.0130  0.4659
  980MOL0     O32201  -1.305   8.617  12.280 -0.0357  0.7607  0.9274
  980MOL0     C32202  -1.308   8.748  12.228  0.5076  0.1139  1.1557
  980MOL0     C32203  -1.420   8.823  12.312 -0.2666 -0.3549 -0.5983
  980MOL0     C32204  -1.385   8.814  12.464 -0.3510  0.5553 -0.5595
  980MOL0     C32205  -1.478   8.916  12.541  0.1356  0.0635 -0.2983
  980MOL0     C32206  -1.625   8.871  12.541  0.5696  0.1375  0.0670
  980MOL0     C32207  -1.701   8.958  12.633  0.0373  0.0969  0.1728
  980MOL0     C32208  -1.849   8.920  12.639  0.7459 -0.3567  0.1428
  980MOL0     C32209  -1.916   8.971  12.767 -1.1039  0.3412 -0.0392
  980MOL0    Cl32210  -1.887   9.155  12.776  0.2213  0.0542 -0.4597
  980MOL0     C32211  -1.178   8.416  12.253  1.3757 -0.0895  0.1486
  980MOL0     C32212  -1.059   8.346  12.265  0.1321 -0.8607  0.3864
  980MOL0     O32213  -0.869   8.182  12.451  0.1499 -0.1466 -0.9462
  980MOL0     C32214  -0.582   8.199  12.252 -0.1235 -1.6410  0.0550
  980MOL0     C32215  -0.486   8.117  12.186 -0.5862 -0.5830  0.0483
  980MOL0     N32216   0.076   7.775  12.049  0.2140  0.0192  0.0175
  980MOL0     N32217   0.116   7.775  11.928  0.4598 -0.1871 -0.1486
  980MOL0     C32218   1.016   8.269  11.788 -0.5214 -0.0816  0.9924
  980MOL0     C32219   1.053   8.369  11.700 -0.0940  0.2470  0.1984
  980MOL0     C32220   1.220   8.539  11.311 -0.3180 -0.6153 -0.3177
  980MOL0     C32221   1.337   8.545  11.222 -0.3536  0.5399 -0.7974
  980MOL0     C32222   1.348   8.636  11.123  0.2138  0.0054  1.1205
  980MOL0     C32223   1.245   8.732  11.107 -0.0193 -0.1016 -0.4882
  980MOL0     O32224   1.240   8.834  11.018 -0.0885 -0.1190  0.4333
  980MOL0     C32225   1.352   8.825  10.930  0.8958  0.0341  0.0371
  980MOL0     C32226   1.343   8.928  10.815  0.0571  0.1225  0.3932
  980MOL0     C32227   1.345   9.073  10.870 -0.3966 -0.1197  0.3383
  980MOL0     C32228   1.363   9.178  10.756  0.6608 -0.2281  0.4473
  980MOL0     C32229   1.490   9.153  10.690 -0.8448  0.7438  1.4344
  980MOL0     C32230   1.604   9.128  10.646  0.0743  0.0428  0.2491
  980MOL0     C32231   1.147   8.747  11.201  0.2002  0.5037  0.4129
  980MOL0     C32232   1.138   8.653  11.308 -0.0185  0.7196  0.1671
  980MOL0     H32233   1.043   8.189  11.419  0.9049 -1.6677 -0.3682
  980MOL0     H32234   0.991   8.004  11.593 -0.9962 -0.0386  1.8368
  980MOL0     H32235   1.034   8.099  12.011 -0.1131  0.4975 -0.1743
  980MOL0     H32236   0.867   8.152  11.989  0.9766 -0.3207  1.9860
  980MOL0     H32237   0.943   7.850  12.012  1.0247 -1.2317  4.7735
  980MOL0     H32238   0.881   7.954  12.148  0.4738 -0.8843 -0.1627
  980MOL0     H32239   0.705   7.819  12.084 -2.9602  0.0598 -0.7473
  980MOL0     H32240   0.682   7.995  12.024  1.8293  1.2337  0.6214
  980MOL0     H32241   0.746   7.941  11.817 -2.1538  1.9760  1.5016
  980MOL0     H32242   0.798   7.776  11.857 -1.1901 -0.6835  3.4458
  980MOL0     H32243   0.612   7.773  11.727  0.2008  0.4644 -1.5578
  980MOL0     H32244   0.575   7.697  11.887 -3.7387  1.0840 -0.3229
  980MOL0     H32245   0.432   7.883  11.959  1.3289 -1.8602 -0.9326
  980MOL0     H32246   0.492   7.988  11.827 -3.7064  2.1855  1.6518
  980MOL0     H32247   0.385   7.856  11.660  0.3445 -1.8732 -0.3038
  980MOL0     H32248   0.323   7.742  11.794  1.2522 -1.5701  1.1633
  980MOL0     H32249   0.164   7.903  11.695  0.9585 -1.0542 -0.4370
  980MOL0     H32250   0.246   8.041  11.773 -3.0410  0.7793 -2.1747
  980MOL0     H32251   0.168   8.090  12.027  2.0469 -1.0742 -0.1880
  980MOL0     H32252   0.005   7.873  12.304 -2.1797  1.7528  0.3254
  980MOL0     H32253   0.140   7.990  12.309  1.2145  0.3207 -1.2463
  980MOL0     H32254  -0.019   8.119  12.135  2.0771 -0.8995  0.2674
  980MOL0     H32255  -0.030   8.131  12.312 -1.8988 -1.5624  1.0710
  980MOL0     H32256  -0.253   8.099  12.283 -1.4049 -3.3393  2.8446
  980MOL0     H32257  -0.199   7.950  12.331 -3.0982 -0.4745 -0.6489
  980MOL0     H32258  -0.190   7.856  12.104  2.3174  1.6075  2.8254
  980MOL0     H32259  -0.252   8.018  12.047  1.8339  2.2097  0.8339
  980MOL0     H32260  -0.573   7.820  12.316 -0.8005 -0.9067 -0.0178
  980MOL0     H32261  -0.768   7.986  12.539 -2.0410  2.2460 -1.4739
  980MOL0     H32262  -0.866   7.929  12.404 -0.0160  3.4366  0.3682
  980MOL0     H32263  -0.733   7.830  12.459  3.1049  0.5619  1.3028
  980MOL0     H32264  -0.862   8.589  12.379  1.2341  0.7713 -0.2298
  980MOL0     H32265  -1.069   8.717  12.369  0.7603  0.5673 -0.0983
  980MOL0     H32266  -1.213   8.802  12.233  0.7175  0.3188 -2.5982
  980MOL0     H32267  -1.340   8.737  12.124  2.7622 -1.2088  0.5510
  980MOL0     H32268  -1.421   8.930  12.290  1.9901  0.0892  1.1256
  980MOL0     H32269  -1.517   8.785  12.278  1.1759 -1.0585 -4.4160
  980MOL0     H32270  -1.280   8.842  12.471 -0.2282 -0.0897  0.2454
  980MOL0     H32271  -1.395   8.715  12.508  1.4731  1.1735  1.3988
  980MOL0     H32272  -1.446   8.930  12.645  0.1703  1.0895 -0.4349
  980MOL0     H32273  -1.474   9.014  12.493 -1.2113  1.3157  1.9684
  980MOL0     H32274  -1.639   8.765  12.568  2.6560  0.3070  2.1372
  980MOL0     H32275  -1.666   8.879  12.440  0.1592 -0.3310  0.1874
  980MOL0     H32276  -1.668   8.956  12.737 -1.1439 -0.8130  0.5639
  980MOL0     H32277  -1.690   9.062  12.600 -0.4738 -0.0192 -0.3991
  980MOL0     H32278  -1.854   8.811  12.648  0.2747 -0.2021  2.3134
  980MOL0     H32279  -1.909   8.964  12.559 -1.7434  1.5263  2.8347
  980MOL0     H32280  -1.875   8.923  12.856 -0.9230  0.1431 -0.2272
  980MOL0     H32281  -2.023   8.954  12.777 -1.2598  1.9049  1.3606
  980MOL0     H32282  -1.259   8.360  12.208  0.9174  0.7746 -0.1271
  980MOL0     H32283  -1.053   8.253  12.209  3.1345 -2.7138  3.3746
  980MOL0     H32284  -0.591   8.302  12.221  2.5690 -1.3729 -0.0668
  980MOL0     H32285  -0.424   8.160  12.107 -3.5707  1.8450 -1.2135
  980MOL0     H32286   1.011   8.313  11.887  1.5281  3.4440 -0.2582
  980MOL0     H32287   1.079   8.468  11.738 -0.8729  0.9910 -1.1323
  980MOL0     H32288   1.425   8.481  11.220 -0.1351  0.6968  1.2566
  980MOL0     H32289   1.437   8.652  11.064 -0.2940  3.4204  1.0791
  980MOL0     H32290   1.444   8.833  10.989  0.6110  2.0097  0.2801
  980MOL0     H32291   1.357   8.724  10.889 -0.0683 -0.1567  0.3682
  980MOL0     H32292   1.248   8.910  10.764  0.6825 -1.5027 -0.2806
  980MOL0     H32293   1.430   8.921  10.749 -1.0194  1.5037 -1.2697
  980MOL0     H32294   1.424   9.095  10.943  0.1500 -0.7749 -0.0416
  980MOL0     H32295   1.258   9.089  10.933  0.8907  1.6972  1.7654
  980MOL0     H32296   1.349   9.280  10.794  0.1049  0.5870 -1.8124
  980MOL0     H32297   1.273   9.153  10.700 -1.0380 -0.9962  3.2944
  980MOL0     H32298   1.698   9.095  10.608  1.1510  1.7110  1.3471
  980MOL0     H32299   1.065   8.811  11.170 -1.2515 -2.4083 -2.2261
  980MOL0     H32300   1.052   8.643  11.374  0.8194 -3.0171  0.9099
  981MOL0     O32301   7.655   8.435   5.215 -0.1593  0.5303  0.3487
  981MOL0     C32302   7.762   8.375   5.237 -0.1038 -0.3317  0.6135
  981MOL0     O32303   7.871   8.371   5.148  0.0229  0.4020 -0.8857
  981MOL0     C32304   7.835   8.425   5.028  0.4069 -0.5561 -0.0154
  981MOL0     C32305   7.760   8.339   4.945 -0.2173  0.3005  0.2709
  981MOL0     C32306   7.713   8.374   4.815  0.1235 -0.3814 -0.0008
  981MOL0     C32307   7.742   8.509   4.764 -1.1650  0.5222 -0.2729
  981MOL0     O32308   7.692   8.551   4.640 -0.7711  0.3521  0.9959
  981MOL0     C32309   7.745   8.488   4.518  0.3661  0.1240 -0.2807
  981MOL0     C32310   7.893   8.508   4.503  1.4885  0.2485 -0.2284
  981MOL0     C32311   7.935   8.657   4.493  0.0072 -0.0295  0.5952
  981MOL0     C32312   8.084   8.667   4.524 -0.4094  0.6947  0.3270
  981MOL0     C32313   8.149   8.787   4.453  0.0023  0.0564 -0.2771
  981MOL0     C32314   8.125   8.919   4.518  0.7051  0.0482  0.2064
  981MOL0     C32315   8.201   8.947   4.643 -0.3663  0.9990 -0.3646
  981MOL0     C32316   8.185   9.090   4.701  0.4836  0.4426  0.6589
  981MOL0     N32317   8.272   9.186   4.635 -0.0285  0.5237  0.5947
  981MOL0     C32318   8.362   9.275   4.696  0.2587  0.4401 -0.4571
  981MOL0     C32319   8.435   9.344   4.596  0.8265 -0.6840  0.5338
  981MOL0     C32320   8.549   9.435   4.610 -0.6855 -0.0288  0.0989
  981MOL0     C32321   8.664   9.398   4.511 -0.5172 -0.1611  0.9453
  981MOL0     C32322   8.797   9.460   4.568  0.0405 -0.4129  0.2602
  981MOL0     C32323   8.903   9.460   4.462  0.7301 -0.1655 -0.5010
  981MOL0     O32324   8.950   9.324   4.440  0.5191 -0.3061 -0.1777
  981MOL0     C32325   9.080   9.323   4.395  0.2079  0.2889  0.3378
  981MOL0     C32326   9.176   9.285   4.489  0.3943 -0.3431  0.7401
  981MOL0     C32327   9.309   9.280   4.461 -0.0162 -0.9946  0.3827
  981MOL0     C32328   9.391   9.219   4.567  0.0406  0.2909 -0.7167
  981MOL0     C32329   9.351   9.326   4.332 -0.5655 -0.1379  0.2283
  981MOL0     C32330   9.499   9.336   4.277  0.7658  0.4385 -0.8446
  981MOL0     O32331   9.520   9.348   4.149  0.4459  0.2122 -0.2467
  981MOL0     C32332   9.650   9.353   4.106  0.4291  0.3894  0.7529
  981MOL0     C32333   9.749   9.262   4.142 -0.5956  0.0393 -0.0145
  981MOL0     C32334   9.870   9.256   4.075 -0.1179  0.4205 -0.7180
  981MOL0     C32335   9.903   9.359   3.981 -0.5670  0.4631 -0.0345
  981MOL0     O32336  10.018   9.361   3.914  0.5662 -0.3297 -0.1512
  981MOL0     C32337  10.032   9.261   3.815 -0.2738 -0.5603 -0.2540
  981MOL0     C32338  10.176   9.270   3.775 -0.1628 -0.0734  0.3592
  981MOL0     C32339  10.267   9.212   3.884 -0.1072  0.1541 -0.5922
  981MOL0     C32340  10.411   9.185   3.829  0.3813  0.1086 -0.3241
  981MOL0     C32341  10.513   9.120   3.919  0.5530  0.1706  0.0156
  981MOL0     C32342  10.657   9.128   3.859  0.2150  0.2758  0.2852
  981MOL0     C32343  10.742   9.036   3.948 -0.4978 -0.3388  0.3876
  981MOL0     C32344  10.887   9.085   3.955  0.0015  1.0422  0.3897
  981MOL0    Cl32345  10.971   9.002   4.097  0.1857 -0.1211 -0.2061
  981MOL0     C32346   9.804   9.445   3.935  0.7906 -0.7035  0.5126
  981MOL0     C32347   9.675   9.442   3.995  0.3859 -0.1046  0.3784
  981MOL0     O32348   9.587   9.328   4.361  0.0219 -0.4329 -0.1561
  981MOL0     C32349   9.256   9.359   4.234  0.4426  0.3073  0.4947
  981MOL0     C32350   9.116   9.357   4.258 -0.0252  0.2267  0.1826
  981MOL0     N32351   8.392   9.283   4.486 -0.3287 -0.0558  0.0309
  981MOL0     N32352   8.298   9.197   4.499 -0.1232  0.4115  0.3708
  981MOL0     C32353   7.811   8.599   4.853 -0.5964  0.6354  0.5366
  981MOL0     C32354   7.861   8.553   4.982  0.7625  0.6954  0.6019
  981MOL0     C32355   7.765   8.309   5.364  0.0014 -0.0525  0.5200
  981MOL0     C32356   7.888   8.289   5.429  0.1984  0.5995 -0.5469
  981MOL0     C32357   7.892   8.226   5.557 -0.3357 -0.4089 -1.2395
  981MOL0     C32358   7.783   8.178   5.624  0.7862  0.1575  0.0605
  981MOL0     O32359   7.785   8.105   5.741  0.5611 -0.3778 -0.5299
  981MOL0     C32360   7.882   7.994   5.728  0.3642 -0.5391 -0.1540
  981MOL0     C32361   7.827   7.861   5.772 -0.5718  0.1155  0.8464
  981MOL0     C32362   7.768   7.854   5.910  0.6163  0.4449 -1.1176
  981MOL0     C32363   7.715   7.714   5.934 -0.7852 -0.4087 -0.0965
  981MOL0     C32364   7.658   7.714   6.068 -0.3741 -0.3171 -0.4037
  981MOL0     C32365   7.611   7.707   6.172  0.1667 -0.2071  0.0329
  981MOL0     C32366   7.657   8.200   5.560 -0.2150  0.3566 -0.2165
  981MOL0     C32367   7.655   8.247   5.425 -0.2989 -1.2131  0.1132
  981MOL0     H32368   7.738   8.236   4.974 -0.9438  0.0577 -1.0506
  981MOL0     H32369   7.663   8.297   4.759  1.7999 -1.5081 -0.0097
  981MOL0     H32370   7.718   8.382   4.520 -1.0238  0.4506  1.1044
  981MOL0     H32371   7.688   8.523   4.431 -0.0118 -1.0021 -0.5022
  981MOL0     H32372   7.938   8.460   4.590 -2.9020 -2.3520  0.9291
  981MOL0     H32373   7.921   8.455   4.411 -0.8293 -0.2874 -0.6761
  981MOL0     H32374   7.922   8.699   4.393 -1.6052  0.8891  1.1689
  981MOL0     H32375   7.881   8.725   4.559  1.5671 -0.9395  2.9688
  981MOL0     H32376   8.108   8.660   4.630 -0.6510 -0.3793  0.3234
  981MOL0     H32377   8.131   8.584   4.470 -0.6739  2.5474 -3.0134
  981MOL0     H32378   8.258   8.772   4.448 -0.3780 -2.7007 -2.6013
  981MOL0     H32379   8.114   8.797   4.350  0.0351  1.3927 -0.1834
  981MOL0     H32380   8.141   9.000   4.447 -2.3254 -0.2190 -0.9051
  981MOL0     H32381   8.019   8.929   4.541  0.1131  0.4933 -2.4647
  981MOL0     H32382   8.179   8.868   4.715 -0.3413 -0.3041 -1.7306
  981MOL0     H32383   8.304   8.937   4.608 -0.2851  0.5529  0.0112
  981MOL0     H32384   8.192   9.077   4.809 -1.0102 -0.3972  0.6784
  981MOL0     H32385   8.083   9.127   4.694  0.7222  1.2609  1.3086
  981MOL0     H32386   8.366   9.277   4.805 -2.7243 -2.1115 -0.1383
  981MOL0     H32387   8.518   9.536   4.583  0.4598  0.4876  0.6482
  981MOL0     H32388   8.583   9.438   4.714  2.6384 -0.0581 -0.8694
  981MOL0     H32389   8.640   9.443   4.414  3.4540  1.7933  0.6855
  981MOL0     H32390   8.666   9.290   4.491 -2.6013 -0.2101  0.8168
  981MOL0     H32391   8.825   9.396   4.652  2.6778 -2.9612 -2.3140
  981MOL0     H32392   8.798   9.559   4.615  2.0117  0.3811 -1.2888
  981MOL0     H32393   8.983   9.521   4.505 -0.9080  0.3792  1.9708
  981MOL0     H32394   8.869   9.502   4.367 -1.7062 -1.8867 -0.4814
  981MOL0     H32395   9.132   9.247   4.580 -0.7637  0.0339  0.3591
  981MOL0     H32396   9.476   9.286   4.583 -0.7428  0.6188  3.3226
  981MOL0     H32397   9.333   9.220   4.660  1.2859  0.3196  0.0847
  981MOL0     H32398   9.421   9.120   4.532 -0.6060  0.4710 -1.8318
  981MOL0     H32399   9.724   9.196   4.224 -1.9603 -0.6442 -0.9364
  981MOL0     H32400   9.946   9.192   4.119 -1.8503  0.5591  2.8879
  981MOL0     H32401  10.013   9.165   3.862  2.8891 -0.7807  0.7501
  981MOL0     H32402   9.977   9.281   3.722  1.8992  2.3373 -1.0834
  981MOL0     H32403  10.195   9.202   3.691  0.8781 -0.1739  0.6723
  981MOL0     H32404  10.203   9.368   3.735 -0.1133 -1.6293 -4.0238
  981MOL0     H32405  10.230   9.119   3.928  2.5169 -0.1712  1.1593
  981MOL0     H32406  10.280   9.286   3.964  2.0360  3.9077 -4.0218
  981MOL0     H32407  10.393   9.121   3.742 -0.1103  0.1009 -0.2168
  981MOL0     H32408  10.452   9.280   3.793 -0.4013  1.5482  2.3276
  981MOL0     H32409  10.479   9.017   3.932  2.4476 -0.4901 -0.0033
  981MOL0     H32410  10.522   9.167   4.017  0.2312  0.2211  0.0232
  981MOL0     H32411  10.659   9.101   3.753 -1.0048  0.9403  0.0735
  981MOL0     H32412  10.691   9.230   3.880  3.9208 -0.9202  0.7779
  981MOL0     H32413  10.744   8.929   3.924  1.7429  0.2880 -2.7335
  981MOL0     H32414  10.711   9.046   4.053 -0.8614  0.1723  0.2337
  981MOL0     H32415  10.904   9.192   3.964  2.6838  0.5894  2.0347
  981MOL0     H32416  10.935   9.061   3.859 -0.3892  1.6634  0.0364
  981MOL0     H32417   9.819   9.521   3.859 -0.3277  2.5994  3.3137
  981MOL0     H32418   9.586   9.500   3.973 -1.2886 -1.3562  3.2271
  981MOL0     H32419   9.296   9.373   4.134  1.1258 -0.0573  0.7073
  981MOL0     H32420   9.051   9.385   4.175  2.5069  3.8483 -0.8185
  981MOL0     H32421   7.838   8.697   4.816 -3.2054  1.4904  0.6489
  981MOL0     H32422   7.917   8.622   5.043  1.3747  0.3588  0.4252
  981MOL0     H32423   7.969   8.327   5.368 -1.1312  1.5073 -1.8385
  981MOL0     H32424   7.991   8.214   5.600 -0.4386 -2.0104 -1.3866
  981MOL0     H32425   7.917   7.989   5.624  2.3395 -0.4701  0.4774
  981MOL0     H32426   7.972   8.018   5.784  0.9563 -2.7573 -0.0523
  981MOL0     H32427   7.901   7.782   5.752 -0.8758  0.4547 -1.9609
  981MOL0     H32428   7.747   7.838   5.702  0.9492 -0.7277 -0.7006
  981MOL0     H32429   7.687   7.926   5.905 -2.6792 -2.9817 -1.5242
  981MOL0     H32430   7.842   7.876   5.988 -0.7668  0.8524  0.1131
  981MOL0     H32431   7.801   7.646   5.927 -0.1535  0.5035 -3.8864
  981MOL0     H32432   7.646   7.685   5.854  0.2818  2.4573 -2.2618
  981MOL0     H32433   7.551   7.709   6.260 -0.2130 -0.4491 -0.2195
  981MOL0     H32434   7.563   8.166   5.601 -0.6420 -1.0450 -2.2066
  981MOL0     H32435   7.555   8.242   5.383 -0.2183 -0.4797 -0.1771
  982MOL0     O32436   7.537   5.636   7.072 -0.2813  1.1653  0.8813
  982MOL0     C32437   7.630   5.688   7.118  1.2130 -0.4811  0.0703
  982MOL0     O32438   7.635   5.748   7.242 -0.5312  0.2032 -0.2119
  982MOL0     C32439   7.522   5.770   7.324 -0.3980  0.4904  0.3407
  982MOL0     C32440   7.555   5.811   7.456 -0.5897  1.3017  0.5263
  982MOL0     C32441   7.463   5.828   7.559 -1.0166  0.1517 -0.4824
  982MOL0     C32442   7.326   5.813   7.530  0.1296  0.5625 -0.0600
  982MOL0     O32443   7.232   5.835   7.626 -0.2683  0.1617  0.0982
  982MOL0     C32444   7.215   5.720   7.714 -0.0670 -0.0760  0.3737
  982MOL0     C32445   7.088   5.638   7.668  0.1987 -0.6528  0.5343
  982MOL0     C32446   6.965   5.728   7.650 -0.0821 -0.0954  0.1110
  982MOL0     C32447   6.846   5.638   7.638 -0.4255  0.8460  0.1643
  982MOL0     C32448   6.724   5.726   7.589 -0.8541  0.8982  0.3551
  982MOL0     C32449   6.597   5.639   7.590  0.0818  0.5158  0.0265
  982MOL0     C32450   6.483   5.724   7.528 -0.9001  0.0069 -0.2870
  982MOL0     C32451   6.345   5.654   7.539 -0.9650  0.2835  0.2666
  982MOL0     N32452   6.336   5.537   7.447 -0.2318 -0.6605 -0.2796
  982MOL0     C32453   6.371   5.544   7.313  0.2704  0.7895  0.5931
  982MOL0     C32454   6.332   5.420   7.263  0.0470  1.2735  0.8437
  982MOL0     C32455   6.347   5.375   7.119  0.1925  0.5158 -0.7076
  982MOL0     C32456   6.220   5.391   7.031 -0.8523  0.1234 -1.0831
  982MOL0     C32457   6.228   5.542   6.995 -0.5799  0.7813 -0.3703
  982MOL0     C32458   6.092   5.594   6.948 -0.6362 -0.4117  0.3665
  982MOL0     O32459   6.067   5.512   6.831 -0.4925  0.2708 -1.3605
  982MOL0     C32460   5.992   5.563   6.727 -0.4196 -0.3006  0.3438
  982MOL0     C32461   5.911   5.675   6.733 -0.4264  0.1588  0.7388
  982MOL0     C32462   5.854   5.725   6.618 -0.1465 -0.6466 -0.9736
  982MOL0     C32463   5.776   5.849   6.648  0.7154 -0.5816  0.2580
  982MOL0     C32464   5.863   5.659   6.488 -0.9054 -0.6487  0.1069
  982MOL0     C32465   5.794   5.693   6.360 -0.0075 -0.2967  0.0157
  982MOL0     O32466   5.754   5.590   6.288  0.5156  0.0456 -0.7094
  982MOL0     C32467   5.709   5.627   6.164  0.3792 -0.0585  0.2629
  982MOL0     C32468   5.800   5.652   6.062  0.0221  0.5219  0.3333
  982MOL0     C32469   5.751   5.677   5.932 -0.1916  0.4589  0.6684
  982MOL0     C32470   5.611   5.693   5.910 -2.1640 -0.3548  0.0270
  982MOL0     O32471   5.545   5.750   5.801 -0.5595 -0.2218  0.0610
  982MOL0     C32472   5.616   5.746   5.674  0.3664 -0.7808  0.5087
  982MOL0     C32473   5.531   5.720   5.546 -0.6154  1.3455 -1.0272
  982MOL0     C32474   5.394   5.782   5.554  0.2438  0.0563  0.1458
  982MOL0     C32475   5.303   5.733   5.430  0.3741  1.0608  0.3763
  982MOL0     C32476   5.161   5.779   5.464 -0.0425 -0.6762 -0.9758
  982MOL0     C32477   5.059   5.740   5.353  0.7207  0.0659  0.6763
  982MOL0     C32478   4.924   5.810   5.369 -0.6117 -0.4180  0.2506
  982MOL0     C32479   4.917   5.955   5.298  0.3522  1.1401 -0.1676
  982MOL0    Cl32480   4.751   6.003   5.318 -0.0701 -0.4392  0.1296
  982MOL0     C32481   5.527   5.676   6.015 -0.1875  0.0554 -0.3236
  982MOL0     C32482   5.570   5.633   6.140 -0.2182 -0.7167  0.1550
  982MOL0     O32483   5.766   5.811   6.339 -0.1598  0.3569 -0.8828
  982MOL0     C32484   5.944   5.548   6.489  0.3006 -0.0328  0.3270
  982MOL0     C32485   6.007   5.506   6.604  0.6794  0.2300  0.7608
  982MOL0     N32486   6.282   5.341   7.366 -0.5364 -0.2783 -0.6346
  982MOL0     N32487   6.290   5.410   7.468 -0.5952 -0.3493  0.4945
  982MOL0     C32488   7.293   5.779   7.397  1.2980  0.2702 -0.2064
  982MOL0     C32489   7.386   5.751   7.300 -0.3004 -0.3920  0.9968
  982MOL0     C32490   7.760   5.707   7.044 -0.0443 -0.1267  0.6396
  982MOL0     C32491   7.769   5.667   6.914 -0.5101 -0.1333  0.5503
  982MOL0     C32492   7.882   5.690   6.842 -0.2011  0.9077  0.8337
  982MOL0     C32493   8.002   5.742   6.903  0.9030  0.0176 -0.0711
  982MOL0     O32494   8.116   5.767   6.832 -0.1483  0.0569  0.0467
  982MOL0     C32495   8.125   5.749   6.690 -0.2030  0.5727 -0.0613
  982MOL0     C32496   8.163   5.605   6.647 -0.9770 -0.5033  0.6357
  982MOL0     C32497   8.189   5.587   6.493  0.4703 -0.3267  0.6972
  982MOL0     C32498   8.278   5.472   6.460  1.2229  0.1841 -0.8904
  982MOL0     C32499   8.187   5.350   6.480  0.0582  0.3169 -0.8437
  982MOL0     C32500   8.116   5.251   6.483  0.0969  1.0265  0.4252
  982MOL0     C32501   7.995   5.776   7.040 -0.1506 -0.4583  0.4478
  982MOL0     C32502   7.873   5.766   7.106  0.2317  0.6161  0.2235
  982MOL0     H32503   7.662   5.819   7.472 -0.2576 -1.5818  0.2101
  982MOL0     H32504   7.492   5.846   7.662 -0.9337  0.6259 -0.5851
  982MOL0     H32505   7.299   5.650   7.706  0.4630  0.6816 -0.9066
  982MOL0     H32506   7.186   5.746   7.816  1.1397 -1.7630  1.1914
  982MOL0     H32507   7.109   5.585   7.575 -0.9587  2.4777 -1.7029
  982MOL0     H32508   7.066   5.563   7.745 -1.5515 -1.8952 -1.0667
  982MOL0     H32509   6.946   5.791   7.737 -0.2927 -1.9160  1.4437
  982MOL0     H32510   6.984   5.777   7.554 -1.2150  0.8101  0.3253
  982MOL0     H32511   6.864   5.558   7.566  0.3659  1.2452 -0.0894
  982MOL0     H32512   6.820   5.590   7.733 -1.3736 -1.7897 -1.3088
  982MOL0     H32513   6.713   5.807   7.661 -2.1708 -0.1907  1.4330
  982MOL0     H32514   6.740   5.762   7.487 -0.8397 -1.4033 -0.5172
  982MOL0     H32515   6.614   5.553   7.525  2.3639  1.2228 -0.3794
  982MOL0     H32516   6.572   5.608   7.692 -3.2990 -1.2236 -1.1614
  982MOL0     H32517   6.483   5.815   7.587  0.6978  0.0207 -0.2777
  982MOL0     H32518   6.511   5.756   7.428 -1.5296  3.4228  0.5268
  982MOL0     H32519   6.264   5.724   7.518 -1.0755 -0.1936 -0.9775
  982MOL0     H32520   6.329   5.614   7.640  1.1385 -2.7145 -0.4586
  982MOL0     H32521   6.408   5.635   7.268  0.2513  0.9757  0.9527
  982MOL0     H32522   6.433   5.427   7.077  0.9718 -0.8324 -0.8437
  982MOL0     H32523   6.390   5.275   7.131 -1.6652 -0.1711  0.8887
  982MOL0     H32524   6.145   5.364   7.107  1.3753 -2.1483  0.4889
  982MOL0     H32525   6.216   5.325   6.944 -4.3069 -0.8868 -0.3231
  982MOL0     H32526   6.303   5.556   6.917 -1.5941  2.4982 -1.0914
  982MOL0     H32527   6.239   5.611   7.079  1.1678 -2.8287  2.6448
  982MOL0     H32528   6.098   5.700   6.920  0.8337 -1.0361 -1.9300
  982MOL0     H32529   6.017   5.563   7.020 -1.0942 -1.9397 -0.7212
  982MOL0     H32530   5.904   5.730   6.826 -0.4918  0.7058  0.4154
  982MOL0     H32531   5.765   5.867   6.755  1.7776 -1.8757  0.6110
  982MOL0     H32532   5.811   5.938   6.594  1.6361  1.2575  3.5795
  982MOL0     H32533   5.672   5.841   6.617 -0.0792  3.0519  1.4750
  982MOL0     H32534   5.904   5.633   6.084 -0.3342 -2.0329  0.0749
  982MOL0     H32535   5.822   5.695   5.852  3.2939 -0.3642  3.3312
  982MOL0     H32536   5.665   5.843   5.662 -1.6945  0.4192  1.3395
  982MOL0     H32537   5.695   5.671   5.684 -0.0824 -1.4960 -0.9579
  982MOL0     H32538   5.581   5.756   5.456  2.7684 -3.1231 -1.2950
  982MOL0     H32539   5.521   5.612   5.529  3.5503  0.8751 -1.5179
  982MOL0     H32540   5.402   5.891   5.553 -0.2224  0.1108 -1.8341
  982MOL0     H32541   5.346   5.754   5.649  1.6145  0.6197  1.0345
  982MOL0     H32542   5.328   5.765   5.329  2.0624 -0.1278  0.3752
  982MOL0     H32543   5.315   5.624   5.430  2.8778  1.2500 -1.7367
  982MOL0     H32544   5.168   5.888   5.466 -0.7074 -0.6372  0.2957
  982MOL0     H32545   5.118   5.746   5.560  0.4270  1.5640  0.0737
  982MOL0     H32546   5.092   5.766   5.252 -0.0829 -1.8425 -0.1333
  982MOL0     H32547   5.035   5.634   5.341 -0.7086  0.1816  2.1245
  982MOL0     H32548   4.894   5.818   5.474 -0.2755  0.7550  0.2726
  982MOL0     H32549   4.845   5.751   5.321 -0.9381  0.8584 -0.8152
  982MOL0     H32550   4.938   5.947   5.191  1.1472  0.7928  0.0087
  982MOL0     H32551   4.990   6.025   5.339 -0.5350  2.0717 -0.1518
  982MOL0     H32552   5.420   5.684   6.002 -0.4375 -1.9013  0.2145
  982MOL0     H32553   5.503   5.633   6.225  3.3173  0.8701  3.2126
  982MOL0     H32554   5.937   5.485   6.400 -1.0163 -3.0296  2.3903
  982MOL0     H32555   6.070   5.419   6.591  2.8467  1.7032  0.7386
  982MOL0     H32556   7.191   5.783   7.362  1.1365  2.7124  0.3604
  982MOL0     H32557   7.348   5.725   7.202 -0.2883 -0.5450  1.0339
  982MOL0     H32558   7.684   5.620   6.867  0.2982 -3.4270  2.1106
  982MOL0     H32559   7.869   5.657   6.739 -4.0725  1.5853  0.9375
  982MOL0     H32560   8.033   5.776   6.639 -0.1914  2.4647  0.8459
  982MOL0     H32561   8.207   5.803   6.643  1.9243 -1.8501  0.6249
  982MOL0     H32562   8.073   5.544   6.661 -1.4777 -1.5360 -4.7184
  982MOL0     H32563   8.242   5.561   6.708 -0.3846 -0.5648 -0.1586
  982MOL0     H32564   8.239   5.676   6.454  0.2910 -0.4137  0.2607
  982MOL0     H32565   8.102   5.562   6.433  0.8022  2.1376 -0.9666
  982MOL0     H32566   8.368   5.479   6.523  1.2854  1.0975 -1.0768
  982MOL0     H32567   8.316   5.476   6.358 -0.1755 -0.1188 -1.4412
  982MOL0     H32568   8.059   5.161   6.481 -2.7405  2.7147  0.3476
  982MOL0     H32569   8.084   5.822   7.082  1.5315 -1.4486 -1.8113
  982MOL0     H32570   7.868   5.804   7.208  2.5873  1.4805  0.0739
  983MOL0     O32571   8.103   6.515   4.463 -0.7357  0.3950  0.5116
  983MOL0     C32572   8.052   6.542   4.354 -1.0153 -0.2137  0.3358
  983MOL0     O32573   8.093   6.634   4.274 -0.2283 -0.2203 -0.5838
  983MOL0     C32574   8.223   6.676   4.288 -0.7068  0.8591  0.3224
  983MOL0     C32575   8.259   6.804   4.341  0.0812 -0.9761  0.2103
  983MOL0     C32576   8.389   6.837   4.356 -0.3697 -0.5670 -0.3453
  983MOL0     C32577   8.491   6.759   4.303  0.7284 -0.2447 -0.0387
  983MOL0     O32578   8.619   6.815   4.298 -0.2661  0.3195  0.8150
  983MOL0     C32579   8.727   6.731   4.267  0.0220  0.8384  1.2963
  983MOL0     C32580   8.857   6.802   4.209  0.7679 -0.9636 -0.5340
  983MOL0     C32581   8.979   6.715   4.178  0.8706  0.1067  0.6582
  983MOL0     C32582   9.103   6.803   4.137 -0.1152 -0.0812 -0.6029
  983MOL0     C32583   9.217   6.708   4.088 -0.3312  0.2138  0.5043
  983MOL0     C32584   9.339   6.779   4.030  0.1085  0.4828  2.1940
  983MOL0     C32585   9.456   6.694   3.971 -0.6448  0.1245 -0.0860
  983MOL0     C32586   9.501   6.739   3.842 -0.3217  0.3646 -0.0068
  983MOL0     N32587   9.575   6.866   3.853 -0.4440 -0.4106  0.1990
  983MOL0     C32588   9.560   6.973   3.768  0.4742 -0.3470 -0.9273
  983MOL0     C32589   9.615   7.077   3.836 -0.0528 -0.5996  0.6576
  983MOL0     C32590   9.608   7.219   3.775  0.4730 -0.3961 -0.2623
  983MOL0     C32591   9.746   7.267   3.764  0.5087  0.4186  0.0033
  983MOL0     C32592   9.726   7.411   3.708 -0.8768 -0.5486  0.7357
  983MOL0     C32593   9.860   7.473   3.671  0.2767 -0.9481 -0.6068
  983MOL0     O32594   9.921   7.423   3.552  0.4196  0.1818 -1.0498
  983MOL0     C32595  10.038   7.491   3.515  0.9163  0.1138 -0.1786
  983MOL0     C32596  10.081   7.473   3.389  0.3450  1.0325 -0.1263
  983MOL0     C32597  10.208   7.528   3.348  1.0335  0.6454 -0.0810
  983MOL0     C32598  10.238   7.499   3.198 -0.1922 -0.0791 -0.2575
  983MOL0     C32599  10.272   7.622   3.432 -0.3232 -0.6539  0.0803
  983MOL0     C32600  10.401   7.701   3.397 -0.5030  0.4867  0.0775
  983MOL0     O32601  10.450   7.784   3.492 -0.0118  0.9897  0.2430
  983MOL0     C32602  10.580   7.806   3.484 -0.0266 -1.0036 -0.0014
  983MOL0     C32603  10.672   7.701   3.508  1.3715 -0.8176  0.1214
  983MOL0     C32604  10.806   7.713   3.492 -0.4857 -0.9338  0.0043
  983MOL0     C32605  10.858   7.834   3.449 -0.7315 -0.0588 -0.0006
  983MOL0     O32606  10.996   7.852   3.438 -0.1296 -0.3979 -0.2351
  983MOL0     C32607  11.085   7.794   3.539 -0.3258 -0.9142  0.5201
  983MOL0     C32608  11.222   7.844   3.487  0.7629 -1.9850  1.1047
  983MOL0     C32609  11.347   7.823   3.590  0.8133  0.3460  0.0788
  983MOL0     C32610  11.347   7.883   3.726 -0.0750 -0.6206  0.3641
  983MOL0     C32611  11.317   8.033   3.719  0.2122 -0.5194  0.2989
  983MOL0     C32612  11.342   8.100   3.848 -0.2121 -0.4287 -0.4260
  983MOL0     C32613  11.311   8.248   3.849  1.1294 -1.1901 -0.0664
  983MOL0     C32614  11.331   8.320   3.987 -0.6326 -0.2029  0.4122
  983MOL0    Cl32615  11.241   8.230   4.115 -0.6180  0.1614  0.2985
  983MOL0     C32616  10.778   7.947   3.430 -0.7368 -0.2770  0.1402
  983MOL0     C32617  10.640   7.936   3.453  0.5032 -0.2186  0.3258
  983MOL0     O32618  10.457   7.677   3.289  0.1570  0.6955  0.4927
  983MOL0     C32619  10.223   7.637   3.562 -0.4739 -0.3572  0.5626
  983MOL0     C32620  10.107   7.573   3.605  0.6886 -0.5513  0.0531
  983MOL0     N32621   9.677   7.024   3.950 -0.1354  0.1962 -0.2723
  983MOL0     N32622   9.660   6.899   3.954 -0.6172  0.4263 -0.2958
  983MOL0     C32623   8.460   6.633   4.257  0.8182 -0.4974  0.1641
  983MOL0     C32624   8.327   6.594   4.243 -0.3306  0.4283 -0.5561
  983MOL0     C32625   7.923   6.479   4.336 -0.1003  0.3931 -0.0165
  983MOL0     C32626   7.909   6.340   4.375 -0.2215 -1.0629  0.5175
  983MOL0     C32627   7.791   6.272   4.347  0.3159 -0.1749 -0.6401
  983MOL0     C32628   7.690   6.337   4.271  0.1085  0.1090  0.3531
  983MOL0     O32629   7.587   6.277   4.210  0.3283  0.7247  0.3419
  983MOL0     C32630   7.575   6.134   4.220 -0.4244  0.7937 -0.1234
  983MOL0     C32631   7.438   6.086   4.162 -0.0198 -0.2719  0.5505
  983MOL0     C32632   7.391   6.152   4.036  0.8627 -0.2739 -0.0314
  983MOL0     C32633   7.261   6.102   3.963  1.3365  0.2657  0.2299
  983MOL0     C32634   7.146   6.120   4.055 -0.1705 -0.1419 -0.1348
  983MOL0     C32635   7.065   6.133   4.148  0.2865  0.4286 -0.4303
  983MOL0     C32636   7.698   6.472   4.237 -0.0744  0.3728 -0.4493
  983MOL0     C32637   7.813   6.534   4.271 -0.8797 -0.5921 -0.2726
  983MOL0     H32638   8.182   6.867   4.383  0.4070 -0.6178  0.2740
  983MOL0     H32639   8.416   6.930   4.405 -0.0711 -2.5317  3.6770
  983MOL0     H32640   8.743   6.672   4.357 -1.2263 -1.5650  0.0384
  983MOL0     H32641   8.692   6.669   4.184 -4.0161  3.2462  0.9081
  983MOL0     H32642   8.820   6.848   4.117 -2.1391 -1.2130  0.4108
  983MOL0     H32643   8.893   6.872   4.285  2.0734 -1.0962 -1.0043
  983MOL0     H32644   9.011   6.666   4.271  0.5388 -1.7957 -0.1839
  983MOL0     H32645   8.971   6.642   4.097  1.2565  3.4593 -2.6977
  983MOL0     H32646   9.058   6.875   4.068  1.6546  0.8378 -0.8578
  983MOL0     H32647   9.144   6.858   4.222 -0.7787  0.9419 -0.9169
  983MOL0     H32648   9.254   6.637   4.162 -1.7027 -0.7330  0.3060
  983MOL0     H32649   9.177   6.631   4.021  0.9630 -1.9165  2.0592
  983MOL0     H32650   9.303   6.829   3.940  1.4623 -1.1121  0.6951
  983MOL0     H32651   9.368   6.854   4.104 -0.0793  1.8975  0.8647
  983MOL0     H32652   9.544   6.682   4.035 -1.0473  1.8801  0.8866
  983MOL0     H32653   9.420   6.592   3.955  0.8363  0.0983 -4.2438
  983MOL0     H32654   9.415   6.751   3.776 -0.6735  2.9415  0.8216
  983MOL0     H32655   9.565   6.664   3.793 -0.0539  1.5000 -1.4702
  983MOL0     H32656   9.525   6.987   3.666  1.0336  1.8612 -0.8765
  983MOL0     H32657   9.560   7.225   3.677  0.7130  0.3932 -0.3414
  983MOL0     H32658   9.555   7.273   3.854  2.0070 -0.4364  0.8426
  983MOL0     H32659   9.802   7.214   3.687 -1.4249 -0.7548 -0.6675
  983MOL0     H32660   9.802   7.259   3.858  1.4571  0.3529 -0.5601
  983MOL0     H32661   9.682   7.467   3.791 -1.5813 -1.3652  0.9260
  983MOL0     H32662   9.664   7.413   3.618  1.5171 -0.5540 -1.0305
  983MOL0     H32663   9.930   7.434   3.746 -1.0390 -1.6509  0.2908
  983MOL0     H32664   9.845   7.580   3.655  0.4347 -0.8232  0.0488
  983MOL0     H32665  10.037   7.395   3.327 -0.1299  0.4191  0.9633
  983MOL0     H32666  10.152   7.460   3.142 -2.3202  2.7557  0.8303
  983MOL0     H32667  10.275   7.587   3.145  0.8836 -1.7036 -2.4072
  983MOL0     H32668  10.326   7.433   3.200  1.0958  1.4758 -2.0876
  983MOL0     H32669  10.636   7.608   3.549  1.0299 -0.7738 -0.0741
  983MOL0     H32670  10.867   7.628   3.524 -2.0398 -2.5377 -1.0831
  983MOL0     H32671  11.059   7.836   3.636 -0.6343  2.1430 -0.7767
  983MOL0     H32672  11.095   7.685   3.550  0.0932 -1.0157 -0.7001
  983MOL0     H32673  11.241   7.790   3.394 -0.5961  1.8245 -1.6771
  983MOL0     H32674  11.217   7.947   3.450  0.7112 -2.6042 -0.7136
  983MOL0     H32675  11.436   7.854   3.536  0.6399  1.1609  0.2513
  983MOL0     H32676  11.357   7.720   3.624  3.2380  0.2722 -0.6822
  983MOL0     H32677  11.269   7.849   3.795  2.0652 -0.9424  2.7844
  983MOL0     H32678  11.448   7.872   3.766  1.3401 -0.3646 -2.8105
  983MOL0     H32679  11.217   8.052   3.679  0.8883  1.2897 -0.6235
  983MOL0     H32680  11.379   8.079   3.642  2.3720  0.3611  2.4403
  983MOL0     H32681  11.277   8.061   3.927  1.5823  1.7367  2.3108
  983MOL0     H32682  11.449   8.091   3.865  0.1609  1.6819 -1.3372
  983MOL0     H32683  11.206   8.251   3.818  1.5902  1.4593 -1.7218
  983MOL0     H32684  11.360   8.306   3.770  0.8355 -0.8998 -0.0373
  983MOL0     H32685  11.301   8.425   3.978  0.1469  0.0033  0.1799
  983MOL0     H32686  11.437   8.307   4.012 -0.4432 -3.1655 -1.4072
  983MOL0     H32687  10.825   8.043   3.413 -3.8175  1.0859 -1.5261
  983MOL0     H32688  10.587   8.029   3.436  0.7307  0.5374  3.2503
  983MOL0     H32689  10.271   7.700   3.636 -2.2167  0.8846  0.6957
  983MOL0     H32690  10.079   7.582   3.710  1.0674 -1.2411  0.2243
  983MOL0     H32691   8.529   6.551   4.239  0.5820 -0.9008  1.0276
  983MOL0     H32692   8.308   6.498   4.198 -1.4283 -0.6372  1.9705
  983MOL0     H32693   7.992   6.295   4.428  2.2532  1.2363 -1.1389
  983MOL0     H32694   7.777   6.170   4.379 -0.1775 -0.7742 -2.5953
  983MOL0     H32695   7.652   6.082   4.162 -0.2834 -2.7928  2.8832
  983MOL0     H32696   7.588   6.093   4.321 -0.3696  1.9188  0.3530
  983MOL0     H32697   7.360   6.101   4.237 -0.9212  0.3978 -0.4953
  983MOL0     H32698   7.443   5.979   4.138  0.5712  0.0707 -0.9306
  983MOL0     H32699   7.481   6.149   3.974  0.8424  2.2953 -0.2921
  983MOL0     H32700   7.360   6.255   4.057  3.1120  0.6329 -0.8534
  983MOL0     H32701   7.261   5.997   3.934 -0.6118  0.9922 -2.7750
  983MOL0     H32702   7.251   6.156   3.869  0.9284  0.7622  0.5542
  983MOL0     H32703   7.004   6.145   4.235  1.8323 -1.4617  1.0116
  983MOL0     H32704   7.617   6.509   4.175  0.4636  0.8354 -0.8936
  983MOL0     H32705   7.818   6.637   4.239  0.3094 -0.6702 -0.3559
  984MOL0     O32706   3.408   6.137   4.080 -0.0672 -0.3035 -0.3989
  984MOL0     C32707   3.395   6.256   4.103  0.4229 -0.1008  0.3783
  984MOL0     O32708   3.289   6.298   4.179 -0.0144 -0.3266 -0.2837
  984MOL0     C32709   3.204   6.222   4.251  0.2538 -0.5493  0.1316
  984MOL0     C32710   3.255   6.117   4.321 -0.0050 -0.3962  0.0212
  984MOL0     C32711   3.171   6.045   4.408  0.7212 -0.6600  0.3103
  984MOL0     C32712   3.028   6.083   4.424 -1.1125  0.8286  0.9452
  984MOL0     O32713   2.940   6.009   4.498 -0.8106  0.1954 -0.1165
  984MOL0     C32714   2.989   5.966   4.624  0.2645  0.1734  0.8522
  984MOL0     C32715   2.887   5.894   4.696 -0.2256  0.0339 -0.4666
  984MOL0     C32716   2.860   5.754   4.646  1.1561  0.2702  1.0859
  984MOL0     C32717   2.769   5.686   4.750  0.7821 -0.1343 -0.7604
  984MOL0     C32718   2.706   5.566   4.674 -0.1316 -0.1058  0.0943
  984MOL0     C32719   2.571   5.535   4.740  0.1027  0.0873 -0.4134
  984MOL0     C32720   2.590   5.492   4.886  0.0079  0.3747 -0.3492
  984MOL0     C32721   2.445   5.468   4.951 -0.4411 -0.4469 -0.7933
  984MOL0     N32722   2.366   5.584   4.954 -0.7758 -1.6818 -0.9925
  984MOL0     C32723   2.407   5.706   5.013  0.3848 -0.5354 -0.7030
  984MOL0     C32724   2.308   5.793   4.978 -0.6888 -0.2837 -0.2424
  984MOL0     C32725   2.294   5.941   4.994  0.7916  0.4282 -0.2234
  984MOL0     C32726   2.382   6.008   4.886  0.5191  1.0537 -0.1614
  984MOL0     C32727   2.341   5.979   4.742 -0.4396 -0.2614  0.3585
  984MOL0     C32728   2.420   6.061   4.647 -0.7325  0.3995 -0.1262
  984MOL0     O32729   2.544   5.993   4.622  0.4868 -0.4358  0.2614
  984MOL0     C32730   2.561   5.916   4.507  0.2060  0.0338 -0.2801
  984MOL0     C32731   2.669   5.936   4.419  0.5741  0.1502  0.3998
  984MOL0     C32732   2.685   5.866   4.298  0.5394 -0.7816  0.3224
  984MOL0     C32733   2.790   5.927   4.211 -0.8167 -0.7065 -0.0163
  984MOL0     C32734   2.597   5.763   4.265 -0.2413 -0.1182 -0.1525
  984MOL0     C32735   2.605   5.693   4.136 -0.1391  0.2651 -0.0568
  984MOL0     O32736   2.724   5.681   4.083 -0.0093  0.3541 -0.1386
  984MOL0     C32737   2.737   5.606   3.962 -0.6886 -0.5049 -0.1666
  984MOL0     C32738   2.729   5.466   3.954 -0.1908 -0.9186 -0.1765
  984MOL0     C32739   2.733   5.405   3.832  0.2957  0.6232 -0.7418
  984MOL0     C32740   2.758   5.475   3.714  0.4680 -0.3327  0.3978
  984MOL0     O32741   2.766   5.395   3.597 -0.2191  0.0508  0.1801
  984MOL0     C32742   2.830   5.454   3.482 -0.0120  0.6065  0.7640
  984MOL0     C32743   2.983   5.473   3.494 -0.2034 -0.1094 -0.2103
  984MOL0     C32744   3.056   5.515   3.362 -0.4078 -0.6732 -0.0533
  984MOL0     C32745   3.028   5.415   3.253  0.4278  0.2734 -0.8233
  984MOL0     C32746   3.128   5.422   3.136 -0.7363 -0.7523  0.3270
  984MOL0     C32747   3.090   5.339   3.019 -0.4298 -0.1909  0.0481
  984MOL0     C32748   3.146   5.388   2.885 -0.1948  0.8599  0.2114
  984MOL0     C32749   3.291   5.410   2.877 -0.3256 -0.6791  0.6427
  984MOL0    Cl32750   3.389   5.266   2.899 -0.6673 -0.0332 -0.0885
  984MOL0     C32751   2.765   5.620   3.710  0.1723  0.0459  0.0553
  984MOL0     C32752   2.750   5.677   3.832 -0.4216 -0.7098 -0.6386
  984MOL0     O32753   2.498   5.648   4.091 -0.9283  0.1787  0.2169
  984MOL0     C32754   2.499   5.739   4.358  0.4199  0.4727 -0.8431
  984MOL0     C32755   2.484   5.804   4.483  0.6912  0.2324  0.3033
  984MOL0     N32756   2.210   5.723   4.919 -0.0246  0.0040  0.2203
  984MOL0     N32757   2.237   5.600   4.896 -0.6554  0.0399  1.1968
  984MOL0     C32758   2.983   6.202   4.362 -0.4991  1.0032  0.9169
  984MOL0     C32759   3.075   6.263   4.276 -0.3759  0.5183  0.3643
  984MOL0     C32760   3.489   6.361   4.053 -0.1078  0.4033  0.4627
  984MOL0     C32761   3.585   6.318   3.962  0.6732 -0.0129  0.1692
  984MOL0     C32762   3.667   6.413   3.902  0.2755 -0.5958 -0.4967
  984MOL0     C32763   3.646   6.548   3.935 -1.5817 -0.6675 -0.3774
  984MOL0     O32764   3.715   6.639   3.862  0.0470  0.1988 -0.3174
  984MOL0     C32765   3.840   6.680   3.915 -0.8446  0.0341 -0.6780
  984MOL0     C32766   3.949   6.689   3.803  0.5017 -0.0187 -0.2435
  984MOL0     C32767   3.905   6.779   3.681  0.3345  0.0309 -0.1414
  984MOL0     C32768   3.999   6.743   3.565 -0.1654  0.5385  0.4419
  984MOL0     C32769   3.956   6.777   3.430  1.0904  0.3293 -0.1499
  984MOL0     C32770   3.895   6.811   3.328 -0.9179 -0.3085 -0.0067
  984MOL0     C32771   3.551   6.584   4.031 -0.5720  0.7740  0.2403
  984MOL0     C32772   3.473   6.494   4.096  0.8481  0.1055  1.3481
  984MOL0     H32773   3.361   6.096   4.331 -0.0236 -1.7241 -1.8888
  984MOL0     H32774   3.208   5.970   4.477 -2.4481 -0.3570  2.5017
  984MOL0     H32775   3.078   5.902   4.627  0.0995 -0.1545 -0.4598
  984MOL0     H32776   3.010   6.055   4.685  0.7288  1.0535 -0.5422
  984MOL0     H32777   2.915   5.889   4.802  2.5601  4.1044 -0.7437
  984MOL0     H32778   2.796   5.952   4.675  2.0061  2.7105 -3.9360
  984MOL0     H32779   2.807   5.767   4.551 -1.4470  1.2925  2.5687
  984MOL0     H32780   2.953   5.697   4.637  1.0796  0.2327  0.5353
  984MOL0     H32781   2.818   5.661   4.845 -1.6644  0.1411  0.6498
  984MOL0     H32782   2.688   5.755   4.776  1.0945 -0.8925  2.6186
  984MOL0     H32783   2.685   5.595   4.570 -0.2456  2.3074  0.7139
  984MOL0     H32784   2.773   5.480   4.663 -0.8010 -0.4222 -1.9940
  984MOL0     H32785   2.503   5.620   4.735 -0.0974 -0.0849 -0.6439
  984MOL0     H32786   2.525   5.457   4.679 -0.9406  0.3380  0.0466
  984MOL0     H32787   2.646   5.399   4.898  0.2809  0.3497 -1.7212
  984MOL0     H32788   2.646   5.571   4.938  1.5268 -0.2195 -1.0527
  984MOL0     H32789   2.453   5.443   5.057  0.1189 -1.1995 -1.0095
  984MOL0     H32790   2.388   5.395   4.894  2.3529 -0.3432 -4.0060
  984MOL0     H32791   2.504   5.733   5.055  0.6394  4.8627 -3.8611
  984MOL0     H32792   2.190   5.970   4.974  0.4557 -0.1573  0.6555
  984MOL0     H32793   2.314   5.978   5.095  2.8417  1.9134 -1.1018
  984MOL0     H32794   2.485   5.974   4.899 -1.1890 -5.0122  0.6891
  984MOL0     H32795   2.369   6.114   4.908 -0.4482  0.3709  3.2305
  984MOL0     H32796   2.235   5.997   4.723 -0.0365 -1.0526 -3.2850
  984MOL0     H32797   2.350   5.872   4.723 -0.7587 -0.1203 -0.5952
  984MOL0     H32798   2.429   6.167   4.672  1.6187  0.3880 -0.6900
  984MOL0     H32799   2.356   6.048   4.559 -3.0042  2.9417  1.0008
  984MOL0     H32800   2.731   6.023   4.437 -0.3377  1.0349 -0.6072
  984MOL0     H32801   2.799   6.035   4.226 -0.5900 -0.2382 -2.9224
  984MOL0     H32802   2.890   5.885   4.229  3.1542  5.8631 -2.7135
  984MOL0     H32803   2.749   5.927   4.110 -1.9066  2.2358  0.3159
  984MOL0     H32804   2.721   5.405   4.043 -2.2367  0.3421  0.5711
  984MOL0     H32805   2.714   5.298   3.825  1.8601  0.2882 -0.2585
  984MOL0     H32806   2.797   5.388   3.401  1.7620  1.0433 -0.3613
  984MOL0     H32807   2.783   5.551   3.466  0.4078  0.6297 -0.4332
  984MOL0     H32808   2.990   5.546   3.576 -3.6543  0.0550  0.1088
  984MOL0     H32809   3.038   5.382   3.520  1.1122 -0.0429 -2.5624
  984MOL0     H32810   3.161   5.523   3.391 -0.8744  0.5075  1.4296
  984MOL0     H32811   3.025   5.610   3.319  1.5199 -1.0661 -2.5012
  984MOL0     H32812   3.035   5.323   3.311 -0.1702  0.5646 -0.2744
  984MOL0     H32813   2.923   5.428   3.223 -0.4323  0.6025  2.0389
  984MOL0     H32814   3.228   5.387   3.164  0.4047  0.8223 -1.4766
  984MOL0     H32815   3.141   5.523   3.095 -1.5167 -0.4922  0.7059
  984MOL0     H32816   3.109   5.232   3.031  0.3557 -0.6471 -4.0177
  984MOL0     H32817   2.982   5.341   3.001 -0.1162  0.4346 -1.9470
  984MOL0     H32818   3.086   5.473   2.850 -0.1522 -0.0322 -2.1650
  984MOL0     H32819   3.133   5.312   2.808  2.1073  0.4685  0.1229
  984MOL0     H32820   3.330   5.473   2.957  2.3466 -1.2247 -0.0971
  984MOL0     H32821   3.319   5.466   2.787  0.0428 -2.3131 -0.2933
  984MOL0     H32822   2.771   5.685   3.624  0.4586  0.7654  0.6065
  984MOL0     H32823   2.744   5.785   3.838  1.0947 -0.6873  3.4268
  984MOL0     H32824   2.422   5.663   4.346  2.6272 -2.5438  2.1591
  984MOL0     H32825   2.398   5.766   4.538 -2.2992 -2.0921 -5.1788
  984MOL0     H32826   2.877   6.223   4.367 -0.7623 -0.0538  0.1517
  984MOL0     H32827   3.047   6.334   4.199  1.3046  0.5856 -0.2181
  984MOL0     H32828   3.592   6.214   3.935  1.5120  0.5577 -2.0776
  984MOL0     H32829   3.742   6.379   3.831 -1.2528 -1.8111 -1.5973
  984MOL0     H32830   3.834   6.772   3.973 -1.5314 -0.4361  0.0078
  984MOL0     H32831   3.885   6.605   3.980  3.0120  0.5830 -2.4084
  984MOL0     H32832   3.976   6.589   3.768  0.5928  0.9616 -3.2905
  984MOL0     H32833   4.038   6.735   3.846  0.4926  0.4938 -0.7517
  984MOL0     H32834   3.899   6.885   3.708 -1.3378  0.5019 -2.1415
  984MOL0     H32835   3.805   6.740   3.661  1.1856 -1.0301 -2.6764
  984MOL0     H32836   4.030   6.639   3.572  0.5232  0.6750 -0.3740
  984MOL0     H32837   4.089   6.805   3.572  1.4442 -0.9686 -3.8709
  984MOL0     H32838   3.839   6.851   3.246 -1.8014  0.7721  1.0889
  984MOL0     H32839   3.533   6.690   4.050 -2.7546  0.4924  0.0325
  984MOL0     H32840   3.396   6.527   4.165 -1.2418 -3.1549  0.8013
  985MOL0     O32841   4.430  10.359   5.426 -0.5814 -0.2035 -0.2232
  985MOL0     C32842   4.384  10.242   5.412 -0.3315 -0.5036 -1.1368
  985MOL0     O32843   4.399  10.164   5.303  0.0529  0.1177  0.0231
  985MOL0     C32844   4.490  10.205   5.212  1.0023 -0.9647  0.1499
  985MOL0     C32845   4.621  10.202   5.227  0.5170 -0.2536  0.4835
  985MOL0     C32846   4.712  10.231   5.123 -0.1671 -0.4747  0.3080
  985MOL0     C32847   4.655  10.266   4.999  0.0611 -0.0724  0.0304
  985MOL0     O32848   4.747  10.292   4.896  0.0895 -0.1475  0.0239
  985MOL0     C32849   4.713  10.236   4.766  0.5589 -0.3307 -0.0608
  985MOL0     C32850   4.804  10.304   4.670  0.4120 -0.1266  0.2511
  985MOL0     C32851   4.768  10.449   4.647 -0.0130 -0.5239  0.3489
  985MOL0     C32852   4.864  10.507   4.547 -0.4439 -0.0117  0.5344
  985MOL0     C32853   4.816  10.652   4.508 -0.2737 -0.7588  0.1057
  985MOL0     C32854   4.907  10.732   4.404  0.3896 -0.0321  0.8470
  985MOL0     C32855   4.858  10.881   4.393 -0.1440 -0.6620  0.0122
  985MOL0     C32856   4.921  10.954   4.281 -1.1319  0.8852  0.1101
  985MOL0     N32857   4.880  11.096   4.262 -0.3150 -0.0910  0.0577
  985MOL0     C32858   4.753  11.142   4.238  0.3974 -0.2851  0.2304
  985MOL0     C32859   4.758  11.279   4.230 -0.0535  0.1012  0.3025
  985MOL0     C32860   4.662  11.385   4.197  0.9486 -0.4418 -0.4311
  985MOL0     C32861   4.530  11.375   4.277  0.6071 -0.4256  0.1759
  985MOL0     C32862   4.531  11.488   4.383 -0.7868  1.6715  0.3795
  985MOL0     C32863   4.616  11.453   4.510  0.1396  0.2289  0.1177
  985MOL0     O32864   4.579  11.326   4.574 -0.8446 -0.1058  1.3380
  985MOL0     C32865   4.660  11.237   4.638 -0.5444 -0.9071 -0.2212
  985MOL0     C32866   4.801  11.232   4.612 -0.0767  0.0567  0.0995
  985MOL0     C32867   4.881  11.137   4.679  0.3956  0.1574 -1.3412
  985MOL0     C32868   5.022  11.141   4.625  0.3686  0.0778 -0.0215
  985MOL0     C32869   4.823  11.045   4.774 -0.4425  0.1211 -0.2122
  985MOL0     C32870   4.900  10.939   4.847  0.5099  0.3216  0.2546
  985MOL0     O32871   4.835  10.825   4.902 -0.6269 -0.0727  0.9014
  985MOL0     C32872   4.907  10.745   4.989  0.5000 -0.0733 -0.1188
  985MOL0     C32873   4.837  10.692   5.093 -0.6043 -0.1961 -0.9898
  985MOL0     C32874   4.901  10.610   5.182  0.4004 -0.2340 -0.6838
  985MOL0     C32875   5.025  10.568   5.165 -0.3848 -0.2523  1.4092
  985MOL0     O32876   5.073  10.488   5.262  0.5646  0.3070 -0.2920
  985MOL0     C32877   5.193  10.411   5.238  0.1007  0.2259  0.0249
  985MOL0     C32878   5.216  10.305   5.340 -1.0724  0.3562  0.3251
  985MOL0     C32879   5.110  10.193   5.341  0.3688  0.9813  0.3368
  985MOL0     C32880   5.146  10.079   5.440  0.6880 -0.6688  0.0419
  985MOL0     C32881   5.025   9.991   5.476 -0.3317  0.3372 -0.0028
  985MOL0     C32882   4.940  10.031   5.596  0.2422 -0.2117 -0.1997
  985MOL0     C32883   4.794   9.966   5.600 -1.3452 -0.8075  0.5715
  985MOL0     C32884   4.708  10.054   5.697 -0.6846  0.4616 -0.2791
  985MOL0    Cl32885   4.692  10.224   5.638 -0.2553 -0.1068  0.4143
  985MOL0     C32886   5.094  10.616   5.056 -0.0754  1.0723 -0.2177
  985MOL0     C32887   5.040  10.701   4.967  1.2596 -0.2657 -0.0339
  985MOL0     O32888   5.017  10.966   4.840 -0.3189  0.8631  0.7789
  985MOL0     C32889   4.681  11.059   4.802 -0.0166 -0.2856  0.1128
  985MOL0     C32890   4.601  11.159   4.747 -1.0165  0.1154 -0.1652
  985MOL0     N32891   4.894  11.306   4.258  0.1708 -0.0612  0.6041
  985MOL0     N32892   4.963  11.198   4.269 -0.0235 -1.0704 -0.1180
  985MOL0     C32893   4.517  10.275   4.985 -0.5787  1.1275  0.5644
  985MOL0     C32894   4.429  10.242   5.091 -1.3705 -0.5569  0.9247
  985MOL0     C32895   4.304  10.193   5.523  0.8287  0.4501  0.5543
  985MOL0     C32896   4.333  10.242   5.647 -0.3163 -0.0664 -0.2116
  985MOL0     C32897   4.245  10.196   5.748 -1.1509  0.5545  0.7620
  985MOL0     C32898   4.149  10.100   5.730  0.2744  0.4164 -0.1943
  985MOL0     O32899   4.071  10.043   5.829  0.0156  1.0922 -0.5353
  985MOL0     C32900   4.028  10.126   5.933  0.1354 -0.3941  0.1925
  985MOL0     C32901   3.896  10.183   5.888  0.7105 -0.1238  0.0046
  985MOL0     C32902   3.784  10.084   5.878  0.2311 -0.3314  0.5179
  985MOL0     C32903   3.646  10.145   5.840 -0.2924 -0.5321 -0.7224
  985MOL0     C32904   3.563  10.027   5.806 -0.7063  0.1318  0.6439
  985MOL0     C32905   3.517   9.911   5.811  0.9071  0.5288 -0.7903
  985MOL0     C32906   4.148  10.039   5.606 -0.2149 -0.1558  0.3207
  985MOL0     C32907   4.217  10.085   5.503 -0.2849 -0.2846 -0.0248
  985MOL0     H32908   4.657  10.179   5.327 -3.0135  1.0225  2.2117
  985MOL0     H32909   4.819  10.233   5.135  0.1691 -0.1115 -2.1983
  985MOL0     H32910   4.722  10.127   4.755 -1.6005 -0.4804 -0.9923
  985MOL0     H32911   4.609  10.258   4.739  1.5942  1.4260 -3.1518
  985MOL0     H32912   4.908  10.301   4.703  0.2384  0.4795  0.8780
  985MOL0     H32913   4.794  10.251   4.575  0.4241 -1.9877  1.2422
  985MOL0     H32914   4.665  10.448   4.611  0.3529 -4.6148 -1.0598
  985MOL0     H32915   4.778  10.504   4.742  3.1075  0.3039 -0.3299
  985MOL0     H32916   4.957  10.506   4.605 -0.4607  0.4494  0.5708
  985MOL0     H32917   4.876  10.447   4.456 -1.3224 -2.3694  1.8707
  985MOL0     H32918   4.717  10.630   4.467  0.6630 -3.5816 -0.9447
  985MOL0     H32919   4.806  10.715   4.596 -1.5423  1.1240 -1.3279
  985MOL0     H32920   5.008  10.721   4.443  0.5887 -4.3540 -0.3913
  985MOL0     H32921   4.897  10.700   4.300 -1.2463  0.6822  0.7440
  985MOL0     H32922   4.752  10.890   4.366 -0.0231  1.4829  0.1057
  985MOL0     H32923   4.873  10.937   4.486 -2.6709  2.4072 -1.2329
  985MOL0     H32924   4.890  10.898   4.192 -0.4091 -0.0899  0.4586
  985MOL0     H32925   5.028  10.933   4.291 -1.5109 -0.6335  1.3104
  985MOL0     H32926   4.660  11.087   4.248  0.8161 -0.9147  0.7140
  985MOL0     H32927   4.702  11.486   4.190 -0.4670  0.1368 -0.2795
  985MOL0     H32928   4.630  11.362   4.095  0.5872 -3.7089  0.2877
  985MOL0     H32929   4.509  11.277   4.323 -1.9686 -0.6644 -1.3096
  985MOL0     H32930   4.442  11.394   4.215  2.3539  3.9942 -1.3480
  985MOL0     H32931   4.429  11.510   4.416 -0.1302 -0.1222  4.2357
  985MOL0     H32932   4.567  11.580   4.337  0.8828  1.2303  0.7176
  985MOL0     H32933   4.601  11.531   4.585 -5.3451 -0.6030  0.2475
  985MOL0     H32934   4.722  11.445   4.482  1.9748  5.7864  3.7225
  985MOL0     H32935   4.846  11.297   4.539 -0.5661  2.3599  1.7373
  985MOL0     H32936   5.027  11.204   4.536  0.1567  0.7659  0.4510
  985MOL0     H32937   5.085  11.175   4.708  1.8295  0.0558 -1.0972
  985MOL0     H32938   5.041  11.040   4.588 -0.0496 -0.9961  2.4727
  985MOL0     H32939   4.734  10.719   5.110 -0.1470  0.1600  1.5575
  985MOL0     H32940   4.845  10.587   5.272 -1.0665 -1.5723 -1.8896
  985MOL0     H32941   5.200  10.366   5.138 -1.3987  1.3457 -0.6276
  985MOL0     H32942   5.269  10.489   5.226 -0.5287  1.3039  2.4703
  985MOL0     H32943   5.311  10.261   5.310 -2.6384 -1.6293 -2.1145
  985MOL0     H32944   5.221  10.358   5.436 -0.6387 -1.2559  1.2301
  985MOL0     H32945   5.094  10.150   5.242 -0.8689  1.4746  0.3046
  985MOL0     H32946   5.011  10.234   5.364 -1.5587 -0.9364 -3.5568
  985MOL0     H32947   5.222  10.019   5.390  0.3857 -0.7668 -0.3041
  985MOL0     H32948   5.190  10.128   5.528  0.2651  1.4870 -0.8780
  985MOL0     H32949   5.052   9.885   5.479  1.3569  0.6855 -1.3173
  985MOL0     H32950   4.957   9.999   5.391 -0.0425 -1.2873 -0.4168
  985MOL0     H32951   4.976  10.006   5.697  1.6241  2.1067 -0.0304
  985MOL0     H32952   4.931  10.139   5.580 -2.1617 -0.1712  1.0691
  985MOL0     H32953   4.802   9.862   5.631  2.5555 -1.0990 -0.8948
  985MOL0     H32954   4.752   9.972   5.499 -0.7995 -3.8506  0.0891
  985MOL0     H32955   4.739  10.040   5.801 -0.6508 -2.9267 -0.6588
  985MOL0     H32956   4.607  10.011   5.694  1.0030 -4.4453  2.4861
  985MOL0     H32957   5.197  10.585   5.046 -1.4188 -3.7189 -1.9770
  985MOL0     H32958   5.111  10.749   4.900  0.1350  0.9119 -0.4288
  985MOL0     H32959   4.631  10.995   4.873  2.5784 -2.3916  0.2060
  985MOL0     H32960   4.495  11.160   4.767 -0.7276  0.4970  1.4803
  985MOL0     H32961   4.492  10.327   4.893  1.5720  0.7331 -0.3048
  985MOL0     H32962   4.321  10.256   5.086 -1.0572  3.0308  1.5116
  985MOL0     H32963   4.412  10.315   5.659  2.2694 -2.4030 -1.6933
  985MOL0     H32964   4.264  10.229   5.850 -1.9360 -1.8184  1.7544
  985MOL0     H32965   4.019  10.051   6.011 -3.4160  0.3410  0.7026
  985MOL0     H32966   4.102  10.195   5.975 -0.9580  1.3740 -0.6577
  985MOL0     H32967   3.922  10.224   5.790  2.6533 -1.1596  0.0362
  985MOL0     H32968   3.863  10.264   5.953  1.0378  0.3161 -0.3649
  985MOL0     H32969   3.765  10.045   5.979  0.0154 -1.3699  0.0922
  985MOL0     H32970   3.804  10.013   5.797 -0.2308 -0.4224  0.4829
  985MOL0     H32971   3.653  10.220   5.760  0.8833 -0.3809 -0.4928
  985MOL0     H32972   3.596  10.183   5.929  1.5673  0.3412  0.0053
  985MOL0     H32973   3.474   9.813   5.816 -1.4771  1.5755  0.7492
  985MOL0     H32974   4.092   9.949   5.582  1.1412 -0.6110 -1.3322
  985MOL0     H32975   4.205  10.031   5.409 -1.2277  0.5446 -0.4007
  986MOL0     O32976   9.939   6.926   5.269 -0.4928  0.6804 -0.3341
  986MOL0     C32977  10.039   6.930   5.346 -0.3448  0.0582  0.3722
  986MOL0     O32978  10.052   7.027   5.445 -1.0285  0.6146  0.6599
  986MOL0     C32979   9.952   7.087   5.514  0.3817  0.0300 -0.1048
  986MOL0     C32980   9.820   7.041   5.512 -0.2929  0.3616  0.2780
  986MOL0     C32981   9.721   7.098   5.589  0.1166 -0.2668 -0.5646
  986MOL0     C32982   9.750   7.215   5.664  0.0945  1.1230  0.1149
  986MOL0     O32983   9.659   7.282   5.745  0.0168 -0.5065  0.4223
  986MOL0     C32984   9.514   7.264   5.724 -0.1876 -1.1337 -0.0739
  986MOL0     C32985   9.458   7.321   5.587  0.2818 -0.1487 -1.0605
  986MOL0     C32986   9.318   7.260   5.567 -0.6433  0.0621 -0.0485
  986MOL0     C32987   9.234   7.302   5.438  0.1796  0.2124  0.3522
  986MOL0     C32988   9.140   7.426   5.470  0.2580 -0.9895 -0.4801
  986MOL0     C32989   9.072   7.492   5.348  0.2447  0.3729 -1.4048
  986MOL0     C32990   8.991   7.397   5.256  0.4140 -0.8454  0.2027
  986MOL0     C32991   8.922   7.477   5.144 -0.2248  0.6942  0.4379
  986MOL0     N32992   8.949   7.422   5.012 -0.4026  0.3271 -0.2838
  986MOL0     C32993   9.074   7.437   4.945 -0.2447 -0.1801  0.1451
  986MOL0     C32994   9.044   7.417   4.811  0.0979 -0.2031 -0.2581
  986MOL0     C32995   9.146   7.398   4.710 -0.0950 -1.2285  0.2658
  986MOL0     C32996   9.239   7.518   4.698 -0.4791 -0.6692  0.7005
  986MOL0     C32997   9.343   7.497   4.576 -0.6196 -0.0978  0.2908
  986MOL0     C32998   9.420   7.625   4.538 -0.0711 -0.3142  0.7839
  986MOL0     O32999   9.499   7.671   4.654 -1.1624  0.3374  0.2364
  986MOL0     C33000   9.514   7.802   4.685  0.1713 -0.4076  0.7463
  986MOL0     C33001   9.618   7.827   4.771 -0.1030  0.1249 -0.3825
  986MOL0     C33002   9.657   7.954   4.813  0.7633  0.1140  0.2040
  986MOL0     C33003   9.774   7.960   4.911  0.4826 -0.5617  0.6446
  986MOL0     C33004   9.586   8.072   4.764  0.1422 -1.1577 -0.5877
  986MOL0     C33005   9.610   8.213   4.790  0.0401 -0.4583 -0.1816
  986MOL0     O33006   9.664   8.252   4.912  0.0308 -0.1347  0.7072
  986MOL0     C33007   9.677   8.384   4.947 -0.3919 -0.2423 -0.2888
  986MOL0     C33008   9.697   8.495   4.864 -0.0140  0.5714  0.5590
  986MOL0     C33009   9.730   8.620   4.918  0.6672  0.2842 -0.1942
  986MOL0     C33010   9.754   8.640   5.057  0.1808  0.6378  0.8690
  986MOL0     O33011   9.793   8.758   5.105  0.7613 -0.7482 -0.1556
  986MOL0     C33012   9.881   8.835   5.026  0.0463 -0.8177  0.3941
  986MOL0     C33013  10.020   8.867   5.084  0.4114 -0.6959 -1.4069
  986MOL0     C33014   9.996   8.955   5.208  0.2965  0.4887 -0.0282
  986MOL0     C33015  10.132   8.973   5.282 -0.3598  0.0736  0.1296
  986MOL0     C33016  10.140   9.092   5.374  0.0973  0.1474  0.5957
  986MOL0     C33017  10.275   9.109   5.440 -1.0721  0.9604 -0.0924
  986MOL0     C33018  10.322   8.986   5.521  0.1572  0.2298 -0.0497
  986MOL0     C33019  10.428   9.019   5.616  0.0649 -0.0514  0.1493
  986MOL0    Cl33020  10.568   9.073   5.525  0.3449 -0.5052  0.0180
  986MOL0     C33021   9.731   8.524   5.139  0.0342 -0.0751 -0.1152
  986MOL0     C33022   9.700   8.402   5.084  0.3737 -1.0326  0.8999
  986MOL0     O33023   9.579   8.292   4.698  0.8622  0.0680  0.8850
  986MOL0     C33024   9.475   8.046   4.679 -0.1114  0.4610  0.5751
  986MOL0     C33025   9.437   7.912   4.642  0.1340 -0.3393 -0.4168
  986MOL0     N33026   8.906   7.387   4.797 -0.9535  0.1296  0.2647
  986MOL0     N33027   8.865   7.386   4.922 -0.1616 -0.4023  0.2279
  986MOL0     C33028   9.881   7.268   5.678 -0.3683 -0.4568  0.4237
  986MOL0     C33029   9.982   7.191   5.614  0.0902 -0.0729  0.1684
  986MOL0     C33030  10.159   6.848   5.312 -0.3751 -0.6939  0.6310
  986MOL0     C33031  10.281   6.861   5.376 -1.1361 -0.4564 -0.5433
  986MOL0     C33032  10.388   6.783   5.335 -0.3956  0.8951  0.1825
  986MOL0     C33033  10.388   6.697   5.223  0.5183  0.4080 -0.3359
  986MOL0     O33034  10.500   6.642   5.183 -0.1315 -0.6379  0.0003
  986MOL0     C33035  10.586   6.724   5.105 -0.3529  0.2519  0.1880
  986MOL0     C33036  10.559   6.698   4.954  0.0826  0.1351 -0.0774
  986MOL0     C33037  10.687   6.733   4.860 -1.0966  0.1919 -0.3205
  986MOL0     C33038  10.677   6.714   4.707 -0.3455  0.6441 -1.0832
  986MOL0     C33039  10.540   6.742   4.651  0.3883  0.0896 -0.3761
  986MOL0     C33040  10.428   6.786   4.599 -0.7060  1.0184 -0.1154
  986MOL0     C33041  10.268   6.690   5.161 -0.1345  0.4346  0.1602
  986MOL0     C33042  10.160   6.763   5.199  0.2416 -0.5822  0.6707
  986MOL0     H33043   9.800   6.945   5.465 -1.3496  1.2120 -1.0781
  986MOL0     H33044   9.629   7.045   5.611  2.2195 -2.9545  2.6896
  986MOL0     H33045   9.478   7.163   5.747 -2.7515  0.3554  3.3281
  986MOL0     H33046   9.465   7.319   5.805 -0.6885 -1.7633  0.0636
  986MOL0     H33047   9.458   7.429   5.575 -0.4556 -0.1794 -1.3937
  986MOL0     H33048   9.527   7.274   5.517  2.5004  0.3229  0.6873
  986MOL0     H33049   9.326   7.152   5.558 -1.5406 -0.1408  1.2670
  986MOL0     H33050   9.253   7.274   5.654 -3.9999 -0.0453 -2.3524
  986MOL0     H33051   9.304   7.327   5.358 -0.4976 -0.2268 -0.3866
  986MOL0     H33052   9.157   7.229   5.413 -0.9520  0.8196  1.8392
  986MOL0     H33053   9.067   7.388   5.542  2.1115 -3.6953  0.1398
  986MOL0     H33054   9.206   7.500   5.516  0.5078 -1.6906  0.3069
  986MOL0     H33055   9.012   7.572   5.392  0.0903  0.8138 -2.3915
  986MOL0     H33056   9.146   7.544   5.286  1.9849  3.1735  2.5814
  986MOL0     H33057   9.061   7.327   5.211  1.7153 -0.3596  1.4057
  986MOL0     H33058   8.916   7.343   5.314  0.0536 -1.8727 -1.1727
  986MOL0     H33059   8.948   7.583   5.147  2.4579  0.0880  1.6700
  986MOL0     H33060   8.815   7.473   5.166 -0.3690 -0.8658 -0.4061
  986MOL0     H33061   9.166   7.464   4.997 -1.3758  0.7650  1.7766
  986MOL0     H33062   9.214   7.312   4.714  0.6874 -0.5850  1.2956
  986MOL0     H33063   9.087   7.376   4.620 -1.3604 -0.3924  0.8649
  986MOL0     H33064   9.286   7.523   4.796 -2.0605 -0.2031  1.4594
  986MOL0     H33065   9.189   7.613   4.682 -0.4974 -0.7442  0.2914
  986MOL0     H33066   9.289   7.461   4.488 -0.6640  1.7197 -0.4725
  986MOL0     H33067   9.415   7.419   4.605  1.0681  1.8319  1.6525
  986MOL0     H33068   9.350   7.703   4.504  1.8792  0.2223 -2.3010
  986MOL0     H33069   9.493   7.597   4.462  0.0063 -1.0222  1.1109
  986MOL0     H33070   9.673   7.742   4.810 -0.3071  1.2336  2.5444
  986MOL0     H33071   9.732   7.948   5.011 -0.7897 -0.7213  0.1236
  986MOL0     H33072   9.851   7.882   4.915  2.2025  0.9908 -0.4523
  986MOL0     H33073   9.815   8.061   4.899 -3.1087  1.2674  2.1979
  986MOL0     H33074   9.686   8.490   4.756 -1.0464 -1.7571  0.7150
  986MOL0     H33075   9.727   8.709   4.855 -0.6983  1.5410  1.5427
  986MOL0     H33076   9.899   8.795   4.926  0.0812  1.4175 -0.5444
  986MOL0     H33077   9.832   8.931   5.007 -2.6274 -2.0311  0.7419
  986MOL0     H33078  10.069   8.772   5.107  1.5661  0.2802  0.3667
  986MOL0     H33079  10.080   8.919   5.009  0.2125  1.1010 -0.3799
  986MOL0     H33080   9.930   8.900   5.276  1.1737  1.3952  1.6174
  986MOL0     H33081   9.951   9.054   5.198 -2.5826 -0.2772  3.1200
  986MOL0     H33082  10.160   8.878   5.329 -0.7287  0.4456  1.1118
  986MOL0     H33083  10.205   8.991   5.202  0.9680  1.5768  1.6077
  986MOL0     H33084  10.058   9.091   5.446 -3.1933 -0.5171 -2.8568
  986MOL0     H33085  10.108   9.179   5.317 -0.4670 -1.0240 -0.9270
  986MOL0     H33086  10.349   9.133   5.362 -0.0831 -1.7779 -0.0906
  986MOL0     H33087  10.268   9.200   5.499  2.1505  2.5990 -1.9305
  986MOL0     H33088  10.343   8.894   5.465 -2.5297  0.3046 -1.3555
  986MOL0     H33089  10.235   8.961   5.583 -0.5252  1.5406 -0.4433
  986MOL0     H33090  10.446   8.931   5.678 -1.3544 -1.2803 -1.0922
  986MOL0     H33091  10.390   9.100   5.678 -0.0396  0.9284 -1.1415
  986MOL0     H33092   9.747   8.544   5.245  1.4415 -1.5803 -0.0047
  986MOL0     H33093   9.686   8.313   5.144  1.1131 -1.0121  1.1176
  986MOL0     H33094   9.414   8.125   4.636 -2.7623 -1.2964  0.8500
  986MOL0     H33095   9.355   7.893   4.574 -0.2906 -3.8225  0.8645
  986MOL0     H33096   9.893   7.362   5.730  0.3499 -0.2190 -0.1491
  986MOL0     H33097  10.085   7.223   5.625 -0.2887  1.7052 -0.9742
  986MOL0     H33098  10.298   6.921   5.465  0.6076  0.0945 -1.2031
  986MOL0     H33099  10.484   6.795   5.384 -0.0470 -1.9091  0.3342
  986MOL0     H33100  10.586   6.831   5.130  3.2568  0.8839 -1.8942
  986MOL0     H33101  10.685   6.685   5.129 -0.8875 -1.5665 -0.4327
  986MOL0     H33102  10.464   6.747   4.932  0.1419  0.7068  0.8899
  986MOL0     H33103  10.542   6.590   4.941 -2.6471  0.7943 -3.4357
  986MOL0     H33104  10.770   6.677   4.902 -0.5372  0.0531 -1.5643
  986MOL0     H33105  10.709   6.836   4.886  0.6953 -0.5400  1.2737
  986MOL0     H33106  10.699   6.612   4.673 -2.1053 -0.6561  1.3371
  986MOL0     H33107  10.746   6.787   4.663  0.5561  1.5943  1.6723
  986MOL0     H33108  10.349   6.813   4.532  0.0647  1.4417 -0.8748
  986MOL0     H33109  10.266   6.626   5.073  2.6813  3.9797 -2.8129
  986MOL0     H33110  10.071   6.752   5.137 -0.7673 -1.5096  2.2064
  987MOL0     O33111   9.239   0.503   0.552  0.2518 -0.0269  0.6625
  987MOL0     C33112   9.125   0.460   0.542  1.1509  0.5583 -0.5816
  987MOL0     O33113   9.057   0.389   0.629  0.5673 -0.2161 -0.2365
  987MOL0     C33114   9.124   0.334   0.741  0.3124 -0.0170  0.7547
  987MOL0     C33115   9.061   0.332   0.868 -0.4498  0.3527  0.0027
  987MOL0     C33116   9.130   0.273   0.977 -0.1700 -0.2426 -0.3732
  987MOL0     C33117   9.262   0.214   0.966  0.0249 -0.3518  0.5889
  987MOL0     O33118   9.326   0.134   1.060 -0.0588 -0.7009  0.0479
  987MOL0     C33119   9.256   0.073   1.167 -0.0331  0.8886  0.1499
  987MOL0     C33120   9.314  -0.062   1.224  0.0500 -0.4198 -0.5404
  987MOL0     C33121   9.459  -0.046   1.278 -0.1045 -0.1658  0.5677
  987MOL0     C33122   9.487  -0.153   1.387  0.2806  1.0345  0.4438
  987MOL0     C33123   9.643  -0.140   1.404  0.0768 -0.2721 -0.1978
  987MOL0     C33124   9.675  -0.219   1.531  0.0137  0.1124 -0.5757
  987MOL0     C33125   9.830  -0.233   1.554  0.6403 -0.2893  0.1401
  987MOL0     C33126   9.917  -0.313   1.453 -0.1738  0.0458  0.8083
  987MOL0     N33127   9.837  -0.434   1.412  0.1635 -0.5277  0.2353
  987MOL0     C33128   9.816  -0.541   1.500  0.2066 -0.6972 -0.0613
  987MOL0     C33129   9.745  -0.632   1.433 -0.5108  0.0460 -0.1944
  987MOL0     C33130   9.698  -0.765   1.486 -0.1927 -0.1265  0.2514
  987MOL0     C33131   9.691  -0.883   1.382 -0.1091 -0.2832 -0.4671
  987MOL0     C33132   9.828  -0.908   1.318  0.2228 -0.1089  0.6372
  987MOL0     C33133   9.849  -1.045   1.255 -0.9023  0.7477  0.4817
  987MOL0     O33134   9.767  -1.074   1.148  0.0424 -0.2242  0.4559
  987MOL0     C33135   9.770  -1.013   1.021 -0.0136  0.2186 -0.4946
  987MOL0     C33136   9.665  -1.038   0.928 -0.7380  0.5623 -0.3987
  987MOL0     C33137   9.653  -0.968   0.804 -0.1036 -0.3891  1.4915
  987MOL0     C33138   9.545  -1.018   0.709  0.4044 -0.3001 -0.0817
  987MOL0     C33139   9.756  -0.864   0.783 -0.3688 -0.5278 -0.4238
  987MOL0     C33140   9.759  -0.789   0.661 -0.6801 -0.6192  0.4640
  987MOL0     O33141   9.822  -0.665   0.677  0.4322 -0.0336 -0.1421
  987MOL0     C33142   9.770  -0.562   0.605  0.2236  0.2780 -0.9125
  987MOL0     C33143   9.640  -0.561   0.547  0.4546  0.3433  0.0266
  987MOL0     C33144   9.588  -0.444   0.485  0.4652 -0.3137 -0.9920
  987MOL0     C33145   9.660  -0.327   0.476  0.1489 -0.1493  0.5420
  987MOL0     O33146   9.608  -0.218   0.418 -0.7591 -0.1790  0.0255
  987MOL0     C33147   9.554  -0.240   0.288 -1.1632 -0.2895 -0.0566
  987MOL0     C33148   9.406  -0.199   0.290 -0.1472 -0.0582 -0.1332
  987MOL0     C33149   9.377  -0.063   0.336  0.2363  1.3826 -0.8211
  987MOL0     C33150   9.378   0.050   0.224  0.7636  0.3426 -0.9514
  987MOL0     C33151   9.510   0.123   0.227 -0.6258  0.4434  0.0073
  987MOL0     C33152   9.554   0.215   0.334 -0.1333  0.4444 -0.7524
  987MOL0     C33153   9.478   0.349   0.361 -0.1000  0.1166 -0.6910
  987MOL0     C33154   9.522   0.417   0.495 -0.2736 -0.0100  0.4700
  987MOL0    Cl33155   9.688   0.463   0.463  0.1183  0.3378  0.0047
  987MOL0     C33156   9.784  -0.327   0.530 -0.4190 -0.6367  0.1543
  987MOL0     C33157   9.841  -0.446   0.588  0.2490  0.1711 -0.1783
  987MOL0     O33158   9.719  -0.833   0.557 -0.3583 -0.2738 -0.4971
  987MOL0     C33159   9.868  -0.850   0.872 -0.5240  0.6225 -0.8253
  987MOL0     C33160   9.873  -0.918   0.994 -0.4128  0.8436 -0.5144
  987MOL0     N33161   9.708  -0.565   1.312  0.1969  0.5982 -0.4889
  987MOL0     N33162   9.766  -0.459   1.298  0.2182 -0.0040  0.5141
  987MOL0     C33163   9.326   0.221   0.844  0.8966  0.3849  0.2274
  987MOL0     C33164   9.251   0.275   0.730  0.2863 -0.1313 -0.4393
  987MOL0     C33165   9.049   0.519   0.427  0.2606  0.3829 -0.3485
  987MOL0     C33166   8.921   0.471   0.398  0.0865 -0.5998 -0.1759
  987MOL0     C33167   8.838   0.530   0.301  0.3642  0.3699 -0.5527
  987MOL0     C33168   8.889   0.630   0.225  0.5950  0.6487  0.4941
  987MOL0     O33169   8.827   0.700   0.120 -0.1479  0.0494  0.1886
  987MOL0     C33170   8.709   0.643   0.056 -0.5991 -0.6644  0.8044
  987MOL0     C33171   8.661   0.736  -0.053  0.9256  0.0427  0.4482
  987MOL0     C33172   8.782   0.794  -0.132  0.4172 -0.0809  0.6819
  987MOL0     C33173   8.843   0.689  -0.228 -0.4281  0.1818 -0.9015
  987MOL0     C33174   8.980   0.736  -0.260  0.5717 -0.6144 -0.9940
  987MOL0     C33175   9.086   0.782  -0.301 -0.0860  0.5855  0.5136
  987MOL0     C33176   9.017   0.676   0.246 -0.5904  0.1016 -0.5639
  987MOL0     C33177   9.091   0.631   0.351  0.2408  0.0894 -0.6910
  987MOL0     H33178   8.960   0.370   0.879 -1.1947 -1.7926  1.2833
  987MOL0     H33179   9.085   0.258   1.074 -1.0833  0.5942 -0.6389
  987MOL0     H33180   9.257   0.143   1.252  3.2408  1.4254 -0.1938
  987MOL0     H33181   9.159   0.051   1.124 -0.8550  3.4700  0.5068
  987MOL0     H33182   9.253  -0.096   1.309 -0.0520 -2.2696 -1.2978
  987MOL0     H33183   9.315  -0.136   1.143 -1.1195  3.1022 -4.0581
  987MOL0     H33184   9.531  -0.069   1.199 -0.4067 -1.2948  0.5988
  987MOL0     H33185   9.493   0.053   1.309  1.3619 -1.3932  3.1787
  987MOL0     H33186   9.438  -0.115   1.477 -1.3390 -0.4466  0.2454
  987MOL0     H33187   9.447  -0.249   1.354  0.8485  0.3322  1.7316
  987MOL0     H33188   9.690  -0.202   1.327 -1.0815 -1.3649 -0.0615
  987MOL0     H33189   9.687  -0.040   1.398 -0.4786 -0.0265 -0.2380
  987MOL0     H33190   9.626  -0.179   1.620 -1.3249  0.1689 -1.3177
  987MOL0     H33191   9.629  -0.318   1.525  1.7697 -0.7415 -0.6070
  987MOL0     H33192   9.870  -0.131   1.556 -1.7369  0.7521 -1.4570
  987MOL0     H33193   9.832  -0.276   1.655  2.0582  0.8589  0.6333
  987MOL0     H33194  10.017  -0.342   1.487  0.5949 -0.3253 -1.5752
  987MOL0     H33195   9.921  -0.253   1.362 -2.5428  2.4586  2.1464
  987MOL0     H33196   9.854  -0.550   1.601  0.8873 -0.2915 -0.2757
  987MOL0     H33197   9.761  -0.783   1.573 -1.7130  0.2095  1.4715
  987MOL0     H33198   9.602  -0.747   1.535  0.0640 -0.0179  0.7167
  987MOL0     H33199   9.617  -0.846   1.310 -0.7541  0.7603  0.7023
  987MOL0     H33200   9.663  -0.980   1.425  2.3038 -2.2959 -3.0128
  987MOL0     H33201   9.911  -0.911   1.389  2.9042 -1.3536 -2.2875
  987MOL0     H33202   9.836  -0.822   1.250 -0.1141 -1.5009 -1.2614
  987MOL0     H33203   9.840  -1.121   1.333  1.4246 -0.4483 -0.3143
  987MOL0     H33204   9.952  -1.063   1.221 -0.8900  0.9443  0.4151
  987MOL0     H33205   9.585  -1.104   0.962  0.5165 -0.0214  1.6152
  987MOL0     H33206   9.576  -1.075   0.621  1.1522  0.9965 -0.6820
  987MOL0     H33207   9.470  -1.083   0.756 -0.7595  1.1152  0.0830
  987MOL0     H33208   9.495  -0.932   0.664  1.5718  1.0768  1.1812
  987MOL0     H33209   9.577  -0.648   0.558  1.8583 -0.6041  0.8330
  987MOL0     H33210   9.484  -0.457   0.456  0.6965  3.1559 -4.2170
  987MOL0     H33211   9.607  -0.180   0.213 -1.5854  0.5971  0.3351
  987MOL0     H33212   9.564  -0.341   0.247 -0.5464  0.3298 -1.5157
  987MOL0     H33213   9.361  -0.230   0.196  0.4324 -1.4322  0.0154
  987MOL0     H33214   9.375  -0.264   0.373 -0.7093  2.0028  1.3670
  987MOL0     H33215   9.439  -0.026   0.418 -0.5577  4.1028 -1.3383
  987MOL0     H33216   9.279  -0.061   0.386 -0.3002  2.6885 -1.8536
  987MOL0     H33217   9.347  -0.005   0.135  0.6591  0.5668 -1.0550
  987MOL0     H33218   9.297   0.123   0.231 -0.4787 -1.1269  3.3743
  987MOL0     H33219   9.510   0.179   0.133  2.6558 -0.0308 -0.3722
  987MOL0     H33220   9.595   0.054   0.228 -0.7912  0.1966  2.6452
  987MOL0     H33221   9.556   0.159   0.428  2.4896  1.2973 -0.2172
  987MOL0     H33222   9.659   0.238   0.313  2.0663 -2.1632  5.1519
  987MOL0     H33223   9.374   0.317   0.372 -0.4070  0.5409 -2.1469
  987MOL0     H33224   9.474   0.413   0.272 -4.8832  0.3693 -0.5566
  987MOL0     H33225   9.514   0.340   0.572 -0.4134  0.7407  1.2127
  987MOL0     H33226   9.461   0.500   0.532  0.3106  0.0825  1.2620
  987MOL0     H33227   9.836  -0.232   0.517 -0.9782 -0.0799  1.7112
  987MOL0     H33228   9.940  -0.434   0.630  0.0181 -1.0604  0.7773
  987MOL0     H33229   9.946  -0.777   0.853  0.5714  0.2714  1.9104
  987MOL0     H33230   9.947  -0.899   1.071  0.2989 -0.7463 -0.7523
  987MOL0     H33231   9.426   0.189   0.818  2.1274  4.3059 -0.4390
  987MOL0     H33232   9.294   0.261   0.631  0.3346 -0.0402 -0.4310
  987MOL0     H33233   8.887   0.393   0.465  1.9671 -3.1479 -1.9685
  987MOL0     H33234   8.731   0.509   0.299 -0.1197  2.2953  1.5354
  987MOL0     H33235   8.747   0.550   0.012 -0.3613  0.3949 -1.3446
  987MOL0     H33236   8.621   0.624   0.119 -1.9192  0.2138 -0.6946
  987MOL0     H33237   8.595   0.810  -0.007 -1.3736  0.3215 -2.9771
  987MOL0     H33238   8.596   0.675  -0.116  0.4589 -0.0379  0.9999
  987MOL0     H33239   8.859   0.839  -0.068  2.0794  0.2891 -1.4308
  987MOL0     H33240   8.752   0.873  -0.201  2.3452 -1.0761 -1.4450
  987MOL0     H33241   8.771   0.693  -0.310 -1.5510  2.9946  0.0891
  987MOL0     H33242   8.841   0.594  -0.173 -3.7360  0.6722  0.1140
  987MOL0     H33243   9.183   0.818  -0.329  0.7985 -2.4517 -0.6655
  987MOL0     H33244   9.046   0.771   0.202 -2.4048  1.8082  1.6745
  987MOL0     H33245   9.185   0.676   0.382  0.5154 -2.2765  2.4172
  988MOL0     O33246   5.044   3.887   6.583  0.1136  0.8145  0.0638
  988MOL0     C33247   5.092   3.982   6.522  0.4799 -0.0193 -0.4302
  988MOL0     O33248   5.205   3.980   6.435 -0.2992 -0.7219  1.1818
  988MOL0     C33249   5.273   3.865   6.436 -0.0601  0.5410  0.1591
  988MOL0     C33250   5.355   3.820   6.543  0.1002 -0.1012  0.7041
  988MOL0     C33251   5.439   3.714   6.529  0.4982  0.7955  1.2503
  988MOL0     C33252   5.449   3.649   6.406  0.4578 -0.4851  0.5001
  988MOL0     O33253   5.551   3.557   6.401 -0.0533  0.2545  0.2911
  988MOL0     C33254   5.552   3.459   6.294  0.1613 -0.6325 -0.4069
  988MOL0     C33255   5.677   3.376   6.315  0.0820 -0.7230  0.0878
  988MOL0     C33256   5.679   3.248   6.231  0.6780  0.6594  0.2671
  988MOL0     C33257   5.774   3.254   6.105  0.4304  0.5914  0.1683
  988MOL0     C33258   5.821   3.108   6.052 -0.3808  0.0022  0.2414
  988MOL0     C33259   5.889   3.125   5.918  0.3898 -0.9460  0.3662
  988MOL0     C33260   5.796   3.151   5.802 -0.3130  0.1371 -0.0187
  988MOL0     C33261   5.866   3.142   5.670  0.3494  0.5020 -1.4503
  988MOL0     N33262   6.012   3.177   5.670  0.5065 -0.2791  0.0949
  988MOL0     C33263   6.115   3.090   5.695  0.7664  0.1352  0.4826
  988MOL0     C33264   6.225   3.157   5.674 -0.5724 -0.2519 -0.7457
  988MOL0     C33265   6.360   3.099   5.697  0.5711 -0.4013  0.3670
  988MOL0     C33266   6.403   3.006   5.578  0.7945  0.2096  0.1468
  988MOL0     C33267   6.414   3.098   5.456  0.1485 -0.5463 -0.5749
  988MOL0     C33268   6.518   3.030   5.365 -0.1123  0.0679 -0.2315
  988MOL0     O33269   6.642   3.046   5.428  0.7402  0.3525 -0.1684
  988MOL0     C33270   6.743   2.956   5.405  0.1076 -1.3063 -0.0320
  988MOL0     C33271   6.758   2.866   5.294  0.7758 -0.0089  0.5903
  988MOL0     C33272   6.877   2.797   5.264  0.4033 -0.6905 -0.1532
  988MOL0     C33273   6.885   2.713   5.140  0.4913  0.8158 -0.6743
  988MOL0     C33274   6.991   2.825   5.344  0.7636  0.6346 -0.9373
  988MOL0     C33275   7.131   2.780   5.315  0.0696  1.5214  0.1990
  988MOL0     O33276   7.242   2.838   5.370  1.3794 -0.4803  0.1825
  988MOL0     C33277   7.362   2.775   5.352 -0.0019  0.9619 -0.2793
  988MOL0     C33278   7.455   2.809   5.249  0.4240  0.0809  0.1351
  988MOL0     C33279   7.579   2.734   5.234  0.0451 -0.2483 -0.3420
  988MOL0     C33280   7.613   2.634   5.325 -0.6743  0.4879 -0.1997
  988MOL0     O33281   7.736   2.560   5.326  0.2264 -0.5111  0.9159
  988MOL0     C33282   7.780   2.531   5.188 -0.8728  0.2674 -0.5848
  988MOL0     C33283   7.701   2.424   5.128 -0.2055 -0.1890 -1.3369
  988MOL0     C33284   7.738   2.402   4.977  0.0041 -0.6707 -0.7806
  988MOL0     C33285   7.720   2.258   4.932  0.2067 -0.3793 -0.0234
  988MOL0     C33286   7.584   2.201   4.942  0.1166 -0.7068 -0.5835
  988MOL0     C33287   7.470   2.274   4.861 -0.3775  0.0567  0.4195
  988MOL0     C33288   7.337   2.206   4.882  0.1761 -0.0406  1.0399
  988MOL0     C33289   7.212   2.297   4.871  0.2561  0.2728  0.8696
  988MOL0    Cl33290   7.198   2.360   4.708 -0.0886  0.2043 -0.1598
  988MOL0     C33291   7.516   2.598   5.421  0.4038  0.0169 -0.0674
  988MOL0     C33292   7.398   2.665   5.437 -0.3655  1.3822  0.1029
  988MOL0     O33293   7.143   2.682   5.243 -0.6318  0.1684 -0.2801
  988MOL0     C33294   6.974   2.908   5.457 -0.0144  0.1086 -0.4434
  988MOL0     C33295   6.852   2.969   5.483 -0.6953  0.0571  0.2240
  988MOL0     N33296   6.181   3.280   5.617 -0.5038 -0.6833 -0.9507
  988MOL0     N33297   6.058   3.287   5.610  0.6006 -0.5094  0.3325
  988MOL0     C33298   5.362   3.680   6.300  0.5215 -0.2176  0.5064
  988MOL0     C33299   5.276   3.788   6.323  0.0073 -0.7880 -0.3164
  988MOL0     C33300   5.043   4.125   6.543 -0.4199 -0.6248  1.8713
  988MOL0     C33301   5.093   4.237   6.476 -0.3383  0.3193 -0.7182
  988MOL0     C33302   5.053   4.362   6.512 -0.4550  0.2184 -1.0881
  988MOL0     C33303   4.965   4.394   6.623 -0.1654  0.5190  0.1636
  988MOL0     O33304   4.942   4.528   6.656 -0.4984  0.5033 -0.5111
  988MOL0     C33305   4.866   4.556   6.772  0.7681 -0.5056  0.1061
  988MOL0     C33306   4.722   4.541   6.750 -0.3995 -0.0608  0.7920
  988MOL0     C33307   4.668   4.631   6.632 -0.4888  0.0075 -0.0717
  988MOL0     C33308   4.513   4.657   6.639 -0.9556 -0.4645 -0.2603
  988MOL0     C33309   4.433   4.629   6.514 -0.2691 -0.3349  0.2009
  988MOL0     C33310   4.370   4.598   6.414  0.7440  0.6949 -0.0886
  988MOL0     C33311   4.922   4.286   6.693  0.0108 -0.5411 -0.5546
  988MOL0     C33312   4.954   4.153   6.653 -0.2911 -0.4257 -0.6111
  988MOL0     H33313   5.346   3.881   6.632 -0.8923  1.6774 -0.5692
  988MOL0     H33314   5.494   3.676   6.614  0.5708 -2.5146 -0.1588
  988MOL0     H33315   5.466   3.393   6.307 -0.3018  0.2147  1.1301
  988MOL0     H33316   5.538   3.493   6.191 -3.0098  1.9593  0.6780
  988MOL0     H33317   5.768   3.433   6.296 -0.1196  0.8733  3.2570
  988MOL0     H33318   5.677   3.349   6.421 -1.5797 -1.3034 -0.0296
  988MOL0     H33319   5.719   3.174   6.301  2.2233 -0.1137 -1.3516
  988MOL0     H33320   5.576   3.226   6.202  0.6828  1.6976 -0.5963
  988MOL0     H33321   5.730   3.308   6.020  0.5206  1.4421  0.6473
  988MOL0     H33322   5.865   3.309   6.131  1.8699 -1.6455  0.1525
  988MOL0     H33323   5.882   3.064   6.132  0.6022  2.7132  1.0753
  988MOL0     H33324   5.735   3.041   6.043  2.2150 -3.5777 -0.0067
  988MOL0     H33325   5.956   3.210   5.933 -0.4963 -0.0155 -0.7555
  988MOL0     H33326   5.946   3.034   5.896 -1.3384 -2.0772  0.3863
  988MOL0     H33327   5.708   3.086   5.800  0.2327 -0.6077 -1.3083
  988MOL0     H33328   5.771   3.257   5.799 -1.3144 -0.0112  1.8898
  988MOL0     H33329   5.834   3.207   5.588  0.3296  0.1564 -1.7152
  988MOL0     H33330   5.861   3.040   5.630  1.1082  0.8538 -2.5110
  988MOL0     H33331   6.096   2.984   5.710 -0.9656 -0.0595 -2.3389
  988MOL0     H33332   6.433   3.180   5.694 -0.3451  0.3965 -2.0033
  988MOL0     H33333   6.367   3.052   5.796 -2.4814 -0.5194  0.5929
  988MOL0     H33334   6.326   2.932   5.554  0.1314  1.6213 -2.4827
  988MOL0     H33335   6.492   2.947   5.600  0.2658 -0.5617  0.2436
  988MOL0     H33336   6.453   3.197   5.479 -2.0550  0.6383 -1.5611
  988MOL0     H33337   6.324   3.110   5.395  2.0684 -1.8448 -3.9131
  988MOL0     H33338   6.519   3.071   5.264 -0.3172 -1.1997 -0.7664
  988MOL0     H33339   6.490   2.925   5.352  0.2098 -0.3274  1.8423
  988MOL0     H33340   6.669   2.843   5.237  0.1841  0.3892  1.3367
  988MOL0     H33341   6.909   2.606   5.144  2.3984  0.9733 -4.1346
  988MOL0     H33342   6.794   2.716   5.080 -0.0492  2.5570  0.1665
  988MOL0     H33343   6.957   2.738   5.062 -1.0632 -4.2923 -4.2637
  988MOL0     H33344   7.442   2.882   5.170  1.1011  2.5627  2.1720
  988MOL0     H33345   7.640   2.771   5.152 -1.9567  5.1913  0.1853
  988MOL0     H33346   7.792   2.622   5.128  0.8225 -0.3236 -1.1889
  988MOL0     H33347   7.881   2.488   5.185 -0.6220  0.8579 -0.7100
  988MOL0     H33348   7.716   2.336   5.191  1.3076  0.4038 -0.8280
  988MOL0     H33349   7.596   2.453   5.138  0.1052  0.2509  0.9732
  988MOL0     H33350   7.840   2.428   4.948  0.5445 -3.1299 -1.3072
  988MOL0     H33351   7.674   2.473   4.923 -2.3809  0.5016  3.1940
  988MOL0     H33352   7.752   2.260   4.827 -1.5674 -0.4087 -0.6093
  988MOL0     H33353   7.787   2.188   4.982  0.6609 -0.6845 -1.0389
  988MOL0     H33354   7.551   2.198   5.046  2.0002 -1.2008  0.0388
  988MOL0     H33355   7.593   2.096   4.910 -0.9139 -0.9147 -0.2181
  988MOL0     H33356   7.470   2.375   4.904  3.1102  0.7830 -0.9629
  988MOL0     H33357   7.489   2.278   4.754 -2.3335 -2.5510 -0.1239
  988MOL0     H33358   7.344   2.163   4.983 -2.6009  2.2177  2.3238
  988MOL0     H33359   7.340   2.112   4.825  1.3693  0.6078 -0.0240
  988MOL0     H33360   7.225   2.379   4.943 -1.6123  1.8693 -0.4709
  988MOL0     H33361   7.122   2.237   4.888 -0.0625  0.9733  1.8221
  988MOL0     H33362   7.524   2.514   5.489 -0.9523  0.4455  0.6666
  988MOL0     H33363   7.327   2.633   5.513 -1.9683  0.0963 -1.8166
  988MOL0     H33364   7.058   2.944   5.516 -1.0357 -0.6004  1.5277
  988MOL0     H33365   6.846   3.042   5.563  0.2251 -0.0149  0.3655
  988MOL0     H33366   5.364   3.632   6.203  4.1780  3.4729 -1.5396
  988MOL0     H33367   5.212   3.828   6.245  0.5893  0.0118 -0.3918
  988MOL0     H33368   5.169   4.208   6.405  2.0094 -0.8543  2.0465
  988MOL0     H33369   5.090   4.448   6.457  1.9579 -1.0081 -1.5105
  988MOL0     H33370   4.887   4.491   6.858 -0.6536  1.3504  1.9530
  988MOL0     H33371   4.888   4.659   6.800  0.7331 -0.4480 -0.0752
  988MOL0     H33372   4.677   4.562   6.848  1.3091  3.6515  0.9097
  988MOL0     H33373   4.688   4.441   6.720 -2.6697  1.2520 -1.4168
  988MOL0     H33374   4.702   4.590   6.537  0.8109 -0.5872  0.6299
  988MOL0     H33375   4.714   4.730   6.646 -0.3246  0.1081 -1.2189
  988MOL0     H33376   4.502   4.765   6.653  1.1998  0.2455 -2.9978
  988MOL0     H33377   4.470   4.601   6.722  0.6502 -1.4727 -0.0616
  988MOL0     H33378   4.311   4.566   6.330  1.5143 -5.7002  1.2944
  988MOL0     H33379   4.845   4.304   6.767  1.6259  0.8790  0.8742
  988MOL0     H33380   4.922   4.067   6.710 -0.2262 -0.3297 -0.4304
  989MOL0     O33381   0.933   6.187   5.475 -0.8317 -0.3855  0.4749
  989MOL0     C33382   1.036   6.125   5.502  0.9939 -0.5123  0.1307
  989MOL0     O33383   1.037   6.027   5.595 -0.3509  0.7732  0.2043
  989MOL0     C33384   0.927   5.980   5.649  0.5124  0.6185 -0.6026
  989MOL0     C33385   0.850   5.882   5.581 -0.0123  0.5210 -0.2926
  989MOL0     C33386   0.730   5.830   5.633 -1.1350  0.0450  0.3718
  989MOL0     C33387   0.673   5.886   5.740 -0.6084 -0.0798 -0.2510
  989MOL0     O33388   0.552   5.834   5.778  0.6909  0.2860  0.6530
  989MOL0     C33389   0.506   5.881   5.908  0.6602 -0.4925 -0.6839
  989MOL0     C33390   0.364   5.817   5.939 -0.1737 -0.4926 -0.1740
  989MOL0     C33391   0.364   5.664   5.924  0.1529  0.4322 -0.2558
  989MOL0     C33392   0.230   5.612   5.975 -1.4680  0.9278  0.5909
  989MOL0     C33393   0.228   5.461   5.984  0.3986 -0.3371  0.3193
  989MOL0     C33394   0.242   5.406   5.843  0.2916 -0.4936 -0.2511
  989MOL0     C33395   0.170   5.270   5.834  0.4596 -0.1085  0.2615
  989MOL0     C33396   0.228   5.156   5.920 -0.4210 -0.6293 -1.1174
  989MOL0     N33397   0.175   5.015   5.893 -0.0373 -1.2457 -0.1561
  989MOL0     C33398   0.259   4.899   5.900  0.0198 -0.4458 -0.5270
  989MOL0     C33399   0.181   4.797   5.873  0.1246 -0.2806 -0.3260
  989MOL0     C33400   0.227   4.657   5.846  0.0136  0.5973 -0.5753
  989MOL0     C33401   0.362   4.625   5.906  0.2180  0.6958  0.2575
  989MOL0     C33402   0.382   4.469   5.892 -0.0305 -0.2890 -0.1667
  989MOL0     C33403   0.506   4.403   5.944  0.4923 -0.4279  0.9105
  989MOL0     O33404   0.503   4.417   6.083  0.3741  0.2013 -0.6835
  989MOL0     C33405   0.603   4.368   6.162 -0.7335  0.2935  0.0776
  989MOL0     C33406   0.713   4.302   6.107  0.4004  0.7500 -1.2319
  989MOL0     C33407   0.801   4.230   6.184  0.0869 -0.2086 -0.6460
  989MOL0     C33408   0.910   4.162   6.100 -0.3028 -0.1629  0.5015
  989MOL0     C33409   0.769   4.203   6.318 -0.5903  0.4166  0.7802
  989MOL0     C33410   0.855   4.119   6.406  0.0887 -0.5546  1.3213
  989MOL0     O33411   0.932   4.038   6.340  0.2528  0.1451  0.9230
  989MOL0     C33412   1.058   4.020   6.388  0.6150 -1.0733 -0.0325
  989MOL0     C33413   1.149   4.132   6.394 -0.0050 -0.0225 -0.2638
  989MOL0     C33414   1.278   4.102   6.432 -0.2370 -0.8539  0.5044
  989MOL0     C33415   1.318   3.978   6.486  0.0803 -0.4831  0.7564
  989MOL0     O33416   1.446   3.974   6.546  1.1474 -0.2998  0.5736
  989MOL0     C33417   1.519   3.849   6.559 -0.7786 -0.8303  0.3865
  989MOL0     C33418   1.655   3.897   6.606 -0.9774  0.5300  0.0333
  989MOL0     C33419   1.765   3.775   6.590  0.7342 -1.0036 -0.4377
  989MOL0     C33420   1.909   3.824   6.627  0.5715  0.2406 -0.2225
  989MOL0     C33421   1.911   3.895   6.770  0.9520 -0.1339  0.6631
  989MOL0     C33422   2.045   3.948   6.808  0.0791  1.0670  0.2388
  989MOL0     C33423   2.040   3.948   6.963  0.0197 -0.0979  0.3546
  989MOL0     C33424   2.138   4.047   7.011  0.3063  0.3880  0.1309
  989MOL0    Cl33425   2.299   3.975   7.036 -0.5886 -0.0023 -0.0741
  989MOL0     C33426   1.235   3.869   6.475  0.0583  0.2087  0.1570
  989MOL0     C33427   1.108   3.894   6.425 -0.3356 -0.0231  0.5110
  989MOL0     O33428   0.856   4.136   6.525 -0.1831  0.3873 -0.3566
  989MOL0     C33429   0.673   4.282   6.375 -0.1386  0.1494 -0.9967
  989MOL0     C33430   0.579   4.354   6.296  0.1301 -0.3147 -0.1657
  989MOL0     N33431   0.057   4.842   5.843  0.2917 -0.4769  1.0650
  989MOL0     N33432   0.047   4.975   5.860  1.0067 -0.5460  0.2953
  989MOL0     C33433   0.744   5.989   5.812 -0.0589  0.1464  0.1981
  989MOL0     C33434   0.872   6.026   5.774  0.0334 -0.0783  0.1042
  989MOL0     C33435   1.142   6.125   5.403 -0.4893 -0.3736  0.6472
  989MOL0     C33436   1.273   6.073   5.439  0.5796 -0.9929  0.4924
  989MOL0     C33437   1.376   6.084   5.338 -0.6691 -0.2004 -0.2994
  989MOL0     C33438   1.349   6.131   5.209 -0.6300  0.7618  0.6043
  989MOL0     O33439   1.439   6.119   5.107 -0.2616 -0.3950  0.0513
  989MOL0     C33440   1.524   5.995   5.105 -0.4459 -1.4159  0.0094
  989MOL0     C33441   1.440   5.875   5.105 -0.6838 -0.5464  0.0499
  989MOL0     C33442   1.358   5.843   4.977  0.0057 -0.8222 -0.2113
  989MOL0     C33443   1.286   5.713   5.010  0.0148 -0.1259  0.5985
  989MOL0     C33444   1.217   5.645   4.900  1.0624  0.2937  0.2165
  989MOL0     C33445   1.164   5.592   4.802 -0.7154  1.0423 -0.3219
  989MOL0     C33446   1.221   6.188   5.188  0.3773  0.5334  1.2495
  989MOL0     C33447   1.118   6.184   5.278  0.2127 -0.3587  0.0385
  989MOL0     H33448   0.888   5.864   5.481  2.3877 -1.1059  0.8158
  989MOL0     H33449   0.676   5.754   5.577  1.7854 -0.5506 -1.9141
  989MOL0     H33450   0.574   5.836   5.981  1.0142 -0.5771 -1.0630
  989MOL0     H33451   0.490   5.989   5.911 -1.2363 -0.7479 -0.3192
  989MOL0     H33452   0.340   5.837   6.044  1.4632  0.8665 -0.0163
  989MOL0     H33453   0.291   5.861   5.871 -1.2683 -2.4004 -0.2828
  989MOL0     H33454   0.374   5.649   5.816  1.0676 -1.0613  0.0046
  989MOL0     H33455   0.443   5.611   5.978 -0.6032 -2.5514 -1.8846
  989MOL0     H33456   0.219   5.652   6.076  3.1440  1.6391  1.0049
  989MOL0     H33457   0.155   5.657   5.909  0.7115  1.7436 -1.4743
  989MOL0     H33458   0.319   5.431   6.036  0.0588  1.5975  2.1944
  989MOL0     H33459   0.137   5.429   6.036  1.1191 -1.8075  0.7454
  989MOL0     H33460   0.206   5.479   5.770 -1.8493 -1.3272 -0.1213
  989MOL0     H33461   0.348   5.385   5.828  0.7287  0.4433  1.3443
  989MOL0     H33462   0.064   5.287   5.853  0.6850  2.7212 -0.6289
  989MOL0     H33463   0.170   5.228   5.733 -0.2126 -3.0386  1.3704
  989MOL0     H33464   0.223   5.160   6.029 -1.0762  2.6667 -1.1645
  989MOL0     H33465   0.335   5.153   5.897 -0.2328 -2.7424 -0.1800
  989MOL0     H33466   0.367   4.901   5.912  0.5609  0.5238 -4.1657
  989MOL0     H33467   0.147   4.598   5.891  0.0699  1.9210  1.3823
  989MOL0     H33468   0.220   4.630   5.740 -0.7671  0.6725 -0.5491
  989MOL0     H33469   0.354   4.644   6.013 -0.2462 -1.6077  0.6904
  989MOL0     H33470   0.443   4.684   5.863  2.1266 -0.0069  2.6222
  989MOL0     H33471   0.373   4.448   5.785 -2.0454 -0.2334 -0.0442
  989MOL0     H33472   0.296   4.425   5.944 -0.0229  1.2125  1.1998
  989MOL0     H33473   0.590   4.461   5.905  1.0210  0.0347  2.6477
  989MOL0     H33474   0.521   4.297   5.923  3.4456  0.3950 -1.9004
  989MOL0     H33475   0.733   4.324   6.002  1.1606  4.9158 -0.3971
  989MOL0     H33476   0.888   4.055   6.091 -0.5974 -0.1491  1.0232
  989MOL0     H33477   0.917   4.216   6.005  0.8369 -1.3536 -0.1340
  989MOL0     H33478   1.002   4.187   6.153 -1.8813  3.2970  1.9315
  989MOL0     H33479   1.136   4.236   6.365 -2.8288 -0.0163  0.6737
  989MOL0     H33480   1.358   4.175   6.445 -1.1221 -0.2395  2.8143
  989MOL0     H33481   1.470   3.791   6.638  0.0267 -1.5530  0.3634
  989MOL0     H33482   1.522   3.800   6.461  0.6942  2.4003 -1.3209
  989MOL0     H33483   1.684   3.983   6.546 -1.7915 -0.5545 -2.0094
  989MOL0     H33484   1.657   3.928   6.711  2.7031  2.3944 -0.4359
  989MOL0     H33485   1.768   3.739   6.487  2.0036 -0.7594 -0.4950
  989MOL0     H33486   1.736   3.690   6.652 -0.2188  1.2693  2.4552
  989MOL0     H33487   1.983   3.744   6.622 -0.6978 -1.0443  0.6542
  989MOL0     H33488   1.941   3.894   6.550  1.0617 -0.8188 -1.0063
  989MOL0     H33489   1.874   3.815   6.835 -1.1871  3.1197  3.7856
  989MOL0     H33490   1.846   3.983   6.771  2.2977  0.9374 -0.7399
  989MOL0     H33491   2.118   3.874   6.774  0.1858  0.4531  1.7177
  989MOL0     H33492   2.061   4.041   6.752  0.1643  1.4725  0.9303
  989MOL0     H33493   2.062   3.845   6.995  1.3114  0.7225  2.3445
  989MOL0     H33494   1.940   3.968   7.004  0.1433 -1.1342  1.2127
  989MOL0     H33495   2.100   4.083   7.107 -0.0263  4.3177 -1.2955
  989MOL0     H33496   2.141   4.134   6.945  0.8788 -0.7693 -1.4385
  989MOL0     H33497   1.268   3.775   6.517 -2.2964 -0.3736  0.8506
  989MOL0     H33498   1.034   3.815   6.434  0.5799 -1.0988 -0.9164
  989MOL0     H33499   0.653   4.277   6.482  1.2528 -0.7188 -0.7470
  989MOL0     H33500   0.487   4.397   6.336 -0.2233  0.1206 -1.3938
  989MOL0     H33501   0.694   6.052   5.886  0.7121  2.9328 -1.5178
  989MOL0     H33502   0.914   6.112   5.826  2.0949 -1.1022  0.2437
  989MOL0     H33503   1.292   6.037   5.540 -3.5501  0.3873  1.9777
  989MOL0     H33504   1.478   6.050   5.353 -0.9441 -1.0233 -0.2812
  989MOL0     H33505   1.569   6.003   5.005 -0.9212  0.3782 -0.1002
  989MOL0     H33506   1.602   5.992   5.182 -2.2919 -0.0420  2.0445
  989MOL0     H33507   1.373   5.865   5.190  0.9797  0.3366  1.5308
  989MOL0     H33508   1.507   5.791   5.128  1.5394  0.9005 -0.8177
  989MOL0     H33509   1.433   5.825   4.898 -0.8758 -3.5557 -0.4983
  989MOL0     H33510   1.295   5.928   4.950  1.2759  0.0716 -0.4965
  989MOL0     H33511   1.213   5.736   5.088  0.1443 -1.6353  1.2112
  989MOL0     H33512   1.348   5.630   5.044 -1.1806 -3.1778 -3.7124
  989MOL0     H33513   1.130   5.528   4.723  1.6424 -0.6600 -0.0519
  989MOL0     H33514   1.185   6.226   5.094  2.2197 -0.6701 -0.0149
  989MOL0     H33515   1.026   6.233   5.247 -0.4234 -1.3818  0.2687
  990MOL0     O33516   1.319   2.476   8.347 -0.1905 -0.0327 -0.3008
  990MOL0     C33517   1.340   2.375   8.273 -0.7164 -0.4511  0.6315
  990MOL0     O33518   1.463   2.304   8.271  1.0752 -1.2508 -0.9179
  990MOL0     C33519   1.565   2.330   8.351  0.4238  0.2651  0.2299
  990MOL0     C33520   1.607   2.464   8.392 -0.0020  0.7053  0.5497
  990MOL0     C33521   1.699   2.476   8.485 -0.5011  0.1631 -0.1073
  990MOL0     C33522   1.777   2.364   8.520  0.9850  0.3992 -0.2595
  990MOL0     O33523   1.893   2.390   8.587 -0.2346 -0.2472 -0.8309
  990MOL0     C33524   2.019   2.333   8.551 -0.3137  0.0561  0.5060
  990MOL0     C33525   2.131   2.397   8.637  0.3803 -0.6688  1.1965
  990MOL0     C33526   2.154   2.326   8.770  0.0873  0.5890  0.3884
  990MOL0     C33527   2.278   2.395   8.839 -0.1461 -0.9108 -0.3544
  990MOL0     C33528   2.257   2.538   8.884 -0.2772  0.4881 -0.6541
  990MOL0     C33529   2.132   2.556   8.968  0.3007  1.2112  0.6151
  990MOL0     C33530   2.120   2.472   9.092 -0.9459 -0.3651  0.1199
  990MOL0     C33531   2.246   2.488   9.181 -0.9408 -0.2791 -0.8737
  990MOL0     N33532   2.238   2.464   9.325  0.1317 -0.8825  0.4682
  990MOL0     C33533   2.299   2.363   9.393  0.2854 -0.0315  0.9023
  990MOL0     C33534   2.276   2.384   9.523  0.4198  0.1026 -0.0301
  990MOL0     C33535   2.324   2.299   9.633 -0.8086 -0.1374 -0.1599
  990MOL0     C33536   2.475   2.291   9.643  0.3578 -0.7548 -0.2398
  990MOL0     C33537   2.526   2.155   9.654  0.7548 -0.3666  0.1720
  990MOL0     C33538   2.672   2.160   9.696  0.2068  0.3568  0.7097
  990MOL0     O33539   2.723   2.023   9.700  0.1465  0.2668 -0.5176
  990MOL0     C33540   2.856   2.002   9.706 -0.2680 -0.2394 -0.2148
  990MOL0     C33541   2.899   1.873   9.664  0.2209 -0.9187 -0.0668
  990MOL0     C33542   3.036   1.836   9.666  0.6167  0.0874  0.1852
  990MOL0     C33543   3.057   1.690   9.619 -0.7769 -0.4342 -0.0211
  990MOL0     C33544   3.132   1.920   9.723 -0.4801 -0.8579  0.4402
  990MOL0     C33545   3.270   1.875   9.743  0.5803  0.2691 -0.2827
  990MOL0     O33546   3.329   1.889   9.867  0.3956 -0.2500 -0.6018
  990MOL0     C33547   3.442   1.819   9.903  0.6045 -0.2974 -0.6507
  990MOL0     C33548   3.560   1.883   9.947  0.1050 -0.0437  0.2981
  990MOL0     C33549   3.664   1.806  10.001 -0.6814  0.7864 -0.1585
  990MOL0     C33550   3.674   1.664   9.992 -0.2882 -0.0531 -0.0714
  990MOL0     O33551   3.768   1.578  10.057 -0.2782 -0.4608 -0.2734
  990MOL0     C33552   3.877   1.629  10.132 -0.8728 -1.3788  0.0282
  990MOL0     C33553   3.942   1.538  10.235  0.7647 -0.0134 -0.4166
  990MOL0     C33554   4.093   1.540  10.225  0.0139 -1.3045  1.1740
  990MOL0     C33555   4.155   1.468  10.349 -0.7475 -0.1813  0.9369
  990MOL0     C33556   4.309   1.452  10.354  0.0657  0.8322  1.2155
  990MOL0     C33557   4.338   1.416  10.503  0.6478  0.2926  0.2432
  990MOL0     C33558   4.493   1.387  10.519  0.3569 -0.2820  0.0767
  990MOL0     C33559   4.538   1.397  10.668  0.4953 -0.1603  0.2255
  990MOL0    Cl33560   4.503   1.254  10.767 -0.2632 -0.1820 -0.2969
  990MOL0     C33561   3.563   1.602   9.939  0.4918 -0.0919  0.1184
  990MOL0     C33562   3.446   1.676   9.892  0.3084  0.0582 -0.1685
  990MOL0     O33563   3.315   1.814   9.648  0.0654 -0.3200  0.3577
  990MOL0     C33564   3.084   2.047   9.777 -0.4475 -0.2370  0.6618
  990MOL0     C33565   2.952   2.089   9.754 -0.4270 -0.8016 -0.1897
  990MOL0     N33566   2.196   2.501   9.535  0.2490 -0.1250  0.6417
  990MOL0     N33567   2.176   2.545   9.418 -0.0478  0.0235 -0.4975
  990MOL0     C33568   1.750   2.235   8.475 -0.1505 -0.1237 -0.3886
  990MOL0     C33569   1.646   2.222   8.387  0.1377  0.1748 -0.4322
  990MOL0     C33570   1.242   2.347   8.169 -0.2654  0.2426  0.3822
  990MOL0     C33571   1.120   2.417   8.172 -0.3399 -0.5755  0.9117
  990MOL0     C33572   1.022   2.419   8.069 -0.1186 -0.3907 -0.4877
  990MOL0     C33573   1.042   2.327   7.971  0.2186  0.6564  0.5124
  990MOL0     O33574   0.939   2.323   7.872 -0.2651 -0.4834 -0.5137
  990MOL0     C33575   0.970   2.290   7.736  0.1120  0.5789  0.3222
  990MOL0     C33576   1.044   2.386   7.641  0.6083 -0.3169 -0.0561
  990MOL0     C33577   1.076   2.339   7.500  0.0257  0.5663 -0.0191
  990MOL0     C33578   1.172   2.428   7.426 -0.6393 -0.4896  0.2571
  990MOL0     C33579   1.107   2.448   7.301  0.8055 -0.3115  0.8908
  990MOL0     C33580   1.042   2.445   7.198 -0.4880  0.4056  0.3964
  990MOL0     C33581   1.156   2.247   7.964  0.1955 -0.1902 -0.2666
  990MOL0     C33582   1.255   2.257   8.061 -0.7137 -0.1309  0.1536
  990MOL0     H33583   1.551   2.552   8.362  1.3897  1.1165 -1.0047
  990MOL0     H33584   1.719   2.581   8.500  2.7023 -0.1742 -1.2489
  990MOL0     H33585   2.022   2.224   8.568 -3.1327 -0.1086  0.3731
  990MOL0     H33586   2.037   2.348   8.444  0.1623  0.9136  0.6976
  990MOL0     H33587   2.221   2.400   8.574 -0.1807  1.2015  0.3871
  990MOL0     H33588   2.106   2.503   8.653  1.7430 -0.3057  1.1170
  990MOL0     H33589   2.069   2.316   8.838 -0.5706  0.2140 -0.4687
  990MOL0     H33590   2.190   2.228   8.736 -1.4935  0.4464 -1.0031
  990MOL0     H33591   2.315   2.336   8.923  2.6469 -0.0084 -0.8364
  990MOL0     H33592   2.362   2.397   8.769 -0.0225  0.9931 -0.2078
  990MOL0     H33593   2.342   2.557   8.951  0.8791 -1.2646 -1.5463
  990MOL0     H33594   2.261   2.607   8.799  3.2052  1.5699  0.1921
  990MOL0     H33595   2.117   2.659   9.001 -2.8259  0.9829  0.1570
  990MOL0     H33596   2.042   2.542   8.908 -0.8623 -1.3930  2.7544
  990MOL0     H33597   2.031   2.510   9.142 -1.5977  1.1369 -2.0159
  990MOL0     H33598   2.105   2.369   9.059  0.1252 -0.0759 -1.3541
  990MOL0     H33599   2.281   2.591   9.170  2.3308 -0.8617  2.3396
  990MOL0     H33600   2.326   2.425   9.142  1.0076  1.9372 -0.6718
  990MOL0     H33601   2.351   2.282   9.344 -0.5595 -0.4752  0.7243
  990MOL0     H33602   2.285   2.339   9.727 -0.4294  2.1864 -0.9263
  990MOL0     H33603   2.280   2.203   9.602  1.8057 -0.4408 -3.5114
  990MOL0     H33604   2.510   2.352   9.727  1.8143 -0.8581 -0.7414
  990MOL0     H33605   2.517   2.341   9.555  3.7913 -0.8304  1.1900
  990MOL0     H33606   2.508   2.093   9.566  1.5760  0.6979 -0.7577
  990MOL0     H33607   2.469   2.106   9.734  0.1892 -1.0850 -0.6544
  990MOL0     H33608   2.680   2.205   9.795  1.0519  0.1270  0.7496
  990MOL0     H33609   2.716   2.222   9.617  0.0811  0.2118  0.5251
  990MOL0     H33610   2.831   1.796   9.628  0.0402  0.5166 -3.0569
  990MOL0     H33611   3.137   1.693   9.544 -0.2415 -4.5172  0.1318
  990MOL0     H33612   3.107   1.627   9.692 -0.5390 -1.6209 -1.1689
  990MOL0     H33613   2.963   1.648   9.582 -1.1916 -0.2509  0.8140
  990MOL0     H33614   3.554   1.992   9.939  1.5290  0.1187  1.1284
  990MOL0     H33615   3.748   1.857  10.048  0.0766 -2.1600  2.0164
  990MOL0     H33616   3.949   1.663  10.057 -1.2737  0.7878  0.5749
  990MOL0     H33617   3.856   1.721  10.186  2.9554 -0.5466  0.3638
  990MOL0     H33618   3.911   1.571  10.334  0.0620  0.0602 -0.6531
  990MOL0     H33619   3.910   1.436  10.209 -1.0134  0.7536 -1.4700
  990MOL0     H33620   4.119   1.642  10.195 -1.6570 -1.9099 -3.0373
  990MOL0     H33621   4.116   1.489  10.130  3.9198 -1.5896  2.1185
  990MOL0     H33622   4.124   1.511  10.445 -0.0922 -1.2396  1.6446
  990MOL0     H33623   4.103   1.372  10.355 -4.4389  1.6759  1.6476
  990MOL0     H33624   4.354   1.544  10.317  0.3962 -0.1607 -0.9953
  990MOL0     H33625   4.335   1.380  10.276 -3.4509  1.3667 -0.6559
  990MOL0     H33626   4.306   1.505  10.556  3.6577  2.7491 -1.7144
  990MOL0     H33627   4.275   1.331  10.530 -1.9168  1.6243 -1.1763
  990MOL0     H33628   4.540   1.464  10.458 -1.7294  1.9081  1.0726
  990MOL0     H33629   4.529   1.291  10.481  0.4350  0.0026 -0.5808
  990MOL0     H33630   4.493   1.487  10.711  0.7724 -1.0027  2.4224
  990MOL0     H33631   4.644   1.424  10.667  0.7671 -0.8992 -3.5893
  990MOL0     H33632   3.575   1.495   9.934 -0.3281 -0.1256 -2.2664
  990MOL0     H33633   3.367   1.622   9.841  0.4039 -2.4201  2.1373
  990MOL0     H33634   3.147   2.120   9.826  0.5653  0.4928 -1.5842
  990MOL0     H33635   2.923   2.188   9.787  0.5576  0.2387 -2.2784
  990MOL0     H33636   1.821   2.156   8.495  0.3166 -0.0616 -1.6577
  990MOL0     H33637   1.622   2.123   8.350 -0.6145  0.0594  0.3394
  990MOL0     H33638   1.100   2.484   8.255 -3.3702 -0.7520  0.4433
  990MOL0     H33639   0.929   2.475   8.077 -0.1811 -0.3197 -1.5909
  990MOL0     H33640   1.031   2.199   7.731  2.5713  2.2002 -2.4741
  990MOL0     H33641   0.878   2.276   7.678  0.0546  2.9475 -0.2209
  990MOL0     H33642   1.132   2.400   7.704  1.1514  0.0398 -0.8781
  990MOL0     H33643   0.990   2.481   7.632  0.6480  0.3180  4.1962
  990MOL0     H33644   0.975   2.326   7.459 -0.0065  2.3659 -0.5603
  990MOL0     H33645   1.112   2.236   7.494  1.8956  0.9604  2.6391
  990MOL0     H33646   1.267   2.386   7.394 -0.8309 -2.0162  1.5889
  990MOL0     H33647   1.178   2.523   7.481  0.8336 -2.1468  3.1734
  990MOL0     H33648   0.992   2.439   7.104 -0.6115  1.4398  0.3781
  990MOL0     H33649   1.175   2.176   7.883 -1.2481 -0.3273 -0.5244
  990MOL0     H33650   1.347   2.200   8.054  1.4436  3.2730 -1.5928
  991MOL0     O33651   4.649   4.247   6.953 -0.3784  0.4017  0.0156
  991MOL0     C33652   4.676   4.166   7.045 -0.2040  0.1531  0.4517
  991MOL0     O33653   4.698   4.033   7.028  0.0125 -0.3304 -0.7816
  991MOL0     C33654   4.631   3.969   6.930  0.0955  0.2878 -0.7824
  991MOL0     C33655   4.684   3.851   6.876  0.5190 -0.4372 -0.6182
  991MOL0     C33656   4.597   3.765   6.808 -1.1585 -0.1147 -0.2457
  991MOL0     C33657   4.472   3.794   6.764 -0.9859  0.0335  0.0183
  991MOL0     O33658   4.399   3.706   6.692  0.3136 -0.0733 -0.3413
  991MOL0     C33659   4.320   3.770   6.588  0.1946 -0.9856  1.5685
  991MOL0     C33660   4.308   3.679   6.461 -0.1564  1.2471  0.3312
  991MOL0     C33661   4.267   3.753   6.332  1.0172 -1.3269  1.0515
  991MOL0     C33662   4.128   3.818   6.326 -0.4336 -0.5407  0.0094
  991MOL0     C33663   4.019   3.725   6.378 -0.2336  0.0697 -0.8613
  991MOL0     C33664   3.892   3.742   6.293  0.2464 -1.0050 -0.7284
  991MOL0     C33665   3.770   3.684   6.365 -0.0728  0.3834 -0.6289
  991MOL0     C33666   3.636   3.734   6.315  0.2837 -0.4343 -1.1631
  991MOL0     N33667   3.606   3.702   6.173  0.1195 -0.7964  0.4197
  991MOL0     C33668   3.491   3.640   6.140  0.0634 -0.2920  0.1574
  991MOL0     C33669   3.517   3.602   6.013 -0.4744 -0.4452 -0.3933
  991MOL0     C33670   3.413   3.522   5.944  0.1294 -0.4830  0.5337
  991MOL0     C33671   3.477   3.411   5.860  0.1146 -0.3941  0.0192
  991MOL0     C33672   3.562   3.312   5.930 -0.7938 -0.3811 -0.2978
  991MOL0     C33673   3.705   3.353   5.971  0.4578  0.2200  0.6748
  991MOL0     O33674   3.798   3.245   5.983 -0.0025  0.2749 -0.3344
  991MOL0     C33675   3.895   3.261   6.073 -0.4229  0.2663  0.5056
  991MOL0     C33676   3.877   3.291   6.212  0.0229  0.3267 -0.7279
  991MOL0     C33677   3.975   3.309   6.307 -0.4929 -0.1299 -0.2215
  991MOL0     C33678   3.931   3.341   6.453 -0.4819  0.5499 -0.2842
  991MOL0     C33679   4.111   3.308   6.263 -0.1335 -0.8859 -0.1306
  991MOL0     C33680   4.227   3.311   6.355 -0.6633  0.1664 -0.1320
  991MOL0     O33681   4.358   3.311   6.299  0.9257 -0.2121  0.2990
  991MOL0     C33682   4.469   3.351   6.370 -0.0897  0.3490  0.2467
  991MOL0     C33683   4.495   3.310   6.499 -0.0743  0.4617  0.7061
  991MOL0     C33684   4.612   3.341   6.563  0.5275 -0.5008 -0.4838
  991MOL0     C33685   4.703   3.429   6.508 -0.1245 -0.1124  0.5682
  991MOL0     O33686   4.810   3.447   6.585 -0.4046 -0.6365 -0.8264
  991MOL0     C33687   4.899   3.562   6.560  0.1984 -0.3876 -0.5507
  991MOL0     C33688   5.037   3.514   6.518  0.3689 -0.3986 -0.5003
  991MOL0     C33689   5.019   3.434   6.386  1.0888  0.6076  0.6867
  991MOL0     C33690   5.154   3.365   6.355  0.0676 -0.0137 -0.0914
  991MOL0     C33691   5.138   3.269   6.233 -0.5481 -0.1334 -0.2614
  991MOL0     C33692   5.280   3.243   6.168  0.0868  0.0919  0.9077
  991MOL0     C33693   5.263   3.180   6.024  0.3723  0.6771 -0.8147
  991MOL0     C33694   5.392   3.158   5.956  0.0618  0.0494  0.3989
  991MOL0    Cl33695   5.453   3.324   5.911  0.3332 -0.3790  0.4526
  991MOL0     C33696   4.680   3.474   6.382 -0.7086  0.0428  1.3406
  991MOL0     C33697   4.567   3.438   6.310  1.0575  0.1689  0.4358
  991MOL0     O33698   4.200   3.324   6.477 -0.2602  0.6297  0.2702
  991MOL0     C33699   4.132   3.271   6.128 -0.1848 -0.3191  0.2724
  991MOL0     C33700   4.034   3.233   6.038 -0.4477 -0.7030 -0.4961
  991MOL0     N33701   3.648   3.651   5.965  0.5753 -0.0351 -0.2198
  991MOL0     N33702   3.694   3.702   6.070  0.1940  0.5543  0.7311
  991MOL0     C33703   4.427   3.919   6.807 -1.0715 -0.6381  0.5639
  991MOL0     C33704   4.506   4.001   6.885 -0.3691  0.1389  0.0735
  991MOL0     C33705   4.695   4.220   7.179  0.3166  0.1043 -0.6126
  991MOL0     C33706   4.624   4.334   7.233  0.5153  0.2896  0.0349
  991MOL0     C33707   4.642   4.373   7.362  0.0402  0.9831 -0.4695
  991MOL0     C33708   4.721   4.296   7.453 -0.0640  0.2468 -0.1900
  991MOL0     O33709   4.716   4.342   7.577  0.2870  0.1245 -0.3593
  991MOL0     C33710   4.803   4.290   7.684  0.6960  0.2428 -0.0078
  991MOL0     C33711   4.950   4.312   7.660 -0.1932 -0.5059 -0.0361
  991MOL0     C33712   4.980   4.466   7.664 -0.3408  0.1252 -0.6833
  991MOL0     C33713   5.124   4.500   7.637 -0.7024  0.4815  1.0415
  991MOL0     C33714   5.151   4.637   7.604 -0.4086  0.1777  0.0016
  991MOL0     C33715   5.186   4.744   7.572 -0.9528 -0.1461 -0.5764
  991MOL0     C33716   4.782   4.184   7.402  0.0315  0.1484  1.4691
  991MOL0     C33717   4.771   4.142   7.267 -0.5332  0.1653  1.0836
  991MOL0     H33718   4.783   3.815   6.901  0.6332 -0.1687 -0.6825
  991MOL0     H33719   4.641   3.671   6.777 -1.4251 -0.1281 -0.5842
  991MOL0     H33720   4.221   3.795   6.627 -1.7062 -4.0949 -0.7362
  991MOL0     H33721   4.376   3.854   6.546 -1.0779  0.1271  2.0156
  991MOL0     H33722   4.407   3.636   6.440 -1.8688 -2.6653 -0.4859
  991MOL0     H33723   4.243   3.594   6.482  0.9597 -0.2312 -1.7866
  991MOL0     H33724   4.337   3.827   6.293 -0.8954 -0.5110 -1.0364
  991MOL0     H33725   4.260   3.671   6.259  0.3706  0.3034 -0.7881
  991MOL0     H33726   4.118   3.910   6.385 -3.3986 -1.5579  1.2989
  991MOL0     H33727   4.102   3.846   6.223 -2.7342 -3.8800 -0.4603
  991MOL0     H33728   4.051   3.621   6.380  1.3408  0.5266 -0.0853
  991MOL0     H33729   3.999   3.763   6.479  0.0824 -0.4310 -0.6068
  991MOL0     H33730   3.868   3.849   6.287  2.7746 -0.4131 -1.2578
  991MOL0     H33731   3.906   3.700   6.194  3.3217 -1.8041 -0.0538
  991MOL0     H33732   3.773   3.575   6.359 -0.2403  0.4222 -1.7390
  991MOL0     H33733   3.788   3.716   6.468  2.1173 -0.7867 -0.5848
  991MOL0     H33734   3.650   3.842   6.314 -2.3474 -0.0180 -2.4856
  991MOL0     H33735   3.554   3.708   6.382 -0.0848  1.5178 -0.7995
  991MOL0     H33736   3.398   3.630   6.195 -1.6162  3.6429 -1.5878
  991MOL0     H33737   3.341   3.474   6.010 -0.7708 -0.6587 -0.5443
  991MOL0     H33738   3.365   3.587   5.870 -0.1767 -0.2101  0.9709
  991MOL0     H33739   3.536   3.466   5.785  0.6882  1.6461  1.8629
  991MOL0     H33740   3.391   3.365   5.810 -1.1638  4.0852 -2.5071
  991MOL0     H33741   3.573   3.222   5.869  1.1501 -1.5155  1.5729
  991MOL0     H33742   3.504   3.282   6.018  0.2456  0.5375  0.7336
  991MOL0     H33743   3.699   3.409   6.064  1.4700  0.5019  0.5831
  991MOL0     H33744   3.750   3.422   5.900  0.1740 -1.2757 -1.0500
  991MOL0     H33745   3.779   3.269   6.254  1.2183 -2.2778  0.9140
  991MOL0     H33746   3.826   3.371   6.462 -0.6711 -0.1497 -0.0581
  991MOL0     H33747   3.938   3.253   6.518  3.8155 -2.2006 -3.8703
  991MOL0     H33748   3.984   3.431   6.486 -0.9981  1.0886 -0.8805
  991MOL0     H33749   4.427   3.248   6.556  1.3872  0.7490  2.8976
  991MOL0     H33750   4.628   3.275   6.647 -1.8456 -1.7264 -0.9080
  991MOL0     H33751   4.859   3.633   6.487 -3.1336 -0.3143  1.1467
  991MOL0     H33752   4.911   3.616   6.655 -1.8561 -0.5403 -0.1593
  991MOL0     H33753   5.100   3.602   6.499  3.1969 -1.4212  3.1263
  991MOL0     H33754   5.074   3.466   6.608 -1.7605  0.3663  0.8530
  991MOL0     H33755   5.002   3.498   6.299  5.7997 -1.1040 -1.8638
  991MOL0     H33756   4.934   3.365   6.395 -0.1003  1.9033 -0.1682
  991MOL0     H33757   5.231   3.439   6.331  0.2227 -0.5892 -1.4783
  991MOL0     H33758   5.194   3.318   6.445  1.8989  0.1549 -0.7828
  991MOL0     H33759   5.073   3.320   6.162 -0.6447  0.0762 -0.0247
  991MOL0     H33760   5.094   3.170   6.251 -2.5417  0.4161 -1.7639
  991MOL0     H33761   5.342   3.332   6.159 -0.1473  0.6074  3.5392
  991MOL0     H33762   5.336   3.172   6.229 -0.4631 -1.9765 -0.8865
  991MOL0     H33763   5.205   3.249   5.963  2.0244  0.2397 -3.0628
  991MOL0     H33764   5.210   3.085   6.025  1.0047  0.3129 -0.9358
  991MOL0     H33765   5.384   3.110   5.858  1.2464 -0.5106  0.5560
  991MOL0     H33766   5.460   3.113   6.029  2.2861  0.7624 -1.1018
  991MOL0     H33767   4.749   3.539   6.330  1.0347 -2.2052  0.6634
  991MOL0     H33768   4.553   3.479   6.210 -1.5137  0.5565  0.8843
  991MOL0     H33769   4.234   3.269   6.092 -0.3613 -0.9365 -0.2059
  991MOL0     H33770   4.068   3.202   5.939 -1.2179 -2.0131 -0.3634
  991MOL0     H33771   4.329   3.966   6.807 -0.9936 -0.4793  0.4154
  991MOL0     H33772   4.462   4.093   6.920  0.2739  1.0578 -1.4257
  991MOL0     H33773   4.576   4.382   7.149  0.9210  0.2820 -0.2059
  991MOL0     H33774   4.589   4.461   7.394  0.0798  0.4972  1.0363
  991MOL0     H33775   4.777   4.330   7.782 -0.2072 -0.0572 -0.1194
  991MOL0     H33776   4.767   4.187   7.692 -1.6846  1.1705  2.4661
  991MOL0     H33777   4.978   4.269   7.564 -2.3537 -0.6231 -0.6522
  991MOL0     H33778   5.014   4.255   7.729 -0.5286 -1.7681 -0.7440
  991MOL0     H33779   4.961   4.515   7.759  2.2221  0.9774 -0.5530
  991MOL0     H33780   4.917   4.514   7.588 -1.4192 -2.1107 -1.3001
  991MOL0     H33781   5.171   4.452   7.551 -2.7837  2.0037 -1.0646
  991MOL0     H33782   5.184   4.495   7.729  0.8789  2.4000  0.1933
  991MOL0     H33783   5.190   4.850   7.553  3.4704 -0.4268 -2.4911
  991MOL0     H33784   4.851   4.122   7.458  0.2748 -0.6516  0.3122
  991MOL0     H33785   4.825   4.055   7.232 -0.4522  0.4414  0.4915
  992MOL0     O33786  10.023   4.024   7.213 -0.3456  0.0398 -0.1591
  992MOL0     C33787   9.977   4.013   7.103 -1.0160 -0.0831 -0.0207
  992MOL0     O33788   9.861   3.970   7.058 -0.0950  0.5125  0.1023
  992MOL0     C33789   9.761   3.924   7.141 -0.5267 -0.0925  0.3121
  992MOL0     C33790   9.666   3.857   7.072 -0.5344 -0.3948  0.3122
  992MOL0     C33791   9.548   3.822   7.138 -0.0141  0.5024 -0.4097
  992MOL0     C33792   9.523   3.849   7.274 -0.5580 -0.0756 -0.7029
  992MOL0     O33793   9.404   3.809   7.331  0.4862  0.5303 -0.1826
  992MOL0     C33794   9.321   3.910   7.391 -0.0972  0.1422  0.7956
  992MOL0     C33795   9.183   3.842   7.429 -0.4072  0.0347 -0.3291
  992MOL0     C33796   9.096   3.820   7.310  0.0620  0.1524  0.1118
  992MOL0     C33797   8.965   3.758   7.342 -0.1364  0.3938 -0.2733
  992MOL0     C33798   8.873   3.740   7.217 -1.2024 -0.0361  0.3697
  992MOL0     C33799   8.782   3.865   7.197  0.0494  0.4483  0.9759
  992MOL0     C33800   8.696   3.847   7.067 -0.2909 -0.0460  0.5326
  992MOL0     C33801   8.568   3.931   7.058 -0.6150  0.1862  0.6881
  992MOL0     N33802   8.465   3.904   7.149 -1.2513 -0.5879  0.0879
  992MOL0     C33803   8.394   3.788   7.161  0.2587 -0.6769  0.0006
  992MOL0     C33804   8.294   3.823   7.246  0.3407  0.7458 -0.3577
  992MOL0     C33805   8.176   3.738   7.275  0.1938  0.1992  0.6824
  992MOL0     C33806   8.055   3.738   7.189  0.9632  0.6011  0.7815
  992MOL0     C33807   8.001   3.885   7.187 -0.2483  0.2358  0.0175
  992MOL0     C33808   7.874   3.899   7.109  0.1297  0.2722 -0.0596
  992MOL0     O33809   7.759   3.850   7.180 -0.0180 -0.5301  0.1802
  992MOL0     C33810   7.631   3.852   7.125 -0.2228  0.5310 -0.2275
  992MOL0     C33811   7.608   3.897   6.993  0.8126  0.5176 -0.6859
  992MOL0     C33812   7.475   3.888   6.933  0.6655 -0.5162 -0.1041
  992MOL0     C33813   7.466   3.893   6.782 -0.6706 -0.4481 -1.0990
  992MOL0     C33814   7.370   3.836   7.010  0.7392  0.7369  0.0227
  992MOL0     C33815   7.223   3.835   6.973  0.6799  0.3644 -0.3617
  992MOL0     O33816   7.198   3.792   6.847 -0.0326  0.1104 -0.1116
  992MOL0     C33817   7.086   3.840   6.779  0.4431 -0.0962 -0.8588
  992MOL0     C33818   6.952   3.781   6.771 -1.7563 -0.1310 -0.1824
  992MOL0     C33819   6.849   3.822   6.688  0.5098 -0.2094 -0.0655
  992MOL0     C33820   6.859   3.950   6.634 -0.0079  0.2722 -0.4053
  992MOL0     O33821   6.751   3.991   6.557 -1.4489 -0.5475  0.2162
  992MOL0     C33822   6.700   4.116   6.590  0.4830 -0.7125  0.6068
  992MOL0     C33823   6.648   4.153   6.731  0.2582  0.1926 -0.3215
  992MOL0     C33824   6.534   4.049   6.775 -0.0024  0.4086 -0.2456
  992MOL0     C33825   6.444   4.117   6.883 -0.3874 -0.1781  0.2164
  992MOL0     C33826   6.516   4.127   7.018 -0.5514 -0.0262  0.3431
  992MOL0     C33827   6.416   4.149   7.129 -0.5319  0.3392  0.0926
  992MOL0     C33828   6.480   4.109   7.273  0.2174 -0.0666  0.1389
  992MOL0     C33829   6.409   4.182   7.389  0.1802  0.4226 -0.0788
  992MOL0    Cl33830   6.454   4.352   7.394 -0.2093  0.0259  0.0131
  992MOL0     C33831   6.979   4.026   6.656  0.8892  0.0150  0.2128
  992MOL0     C33832   7.094   3.968   6.716  0.5233  0.2125 -0.3501
  992MOL0     O33833   7.132   3.853   7.057 -0.5189  0.3571 -0.0085
  992MOL0     C33834   7.397   3.801   7.147  0.0517 -1.1054  0.0683
  992MOL0     C33835   7.523   3.814   7.199  0.6271 -0.0115  0.4796
  992MOL0     N33836   8.307   3.959   7.285  0.4785  0.4461  0.0193
  992MOL0     N33837   8.415   4.003   7.226  0.4008 -0.0242 -0.3257
  992MOL0     C33838   9.617   3.929   7.343  0.5362 -0.9654 -0.4546
  992MOL0     C33839   9.740   3.961   7.277  0.3666  0.5558 -0.1414
  992MOL0     C33840  10.077   4.060   7.001 -0.5950 -0.5790  0.6201
  992MOL0     C33841  10.030   4.087   6.876  0.2835 -0.6499  0.8995
  992MOL0     C33842  10.114   4.129   6.766 -0.3093  0.1006  0.4503
  992MOL0     C33843  10.253   4.134   6.781 -0.4002 -0.1339  0.2548
  992MOL0     O33844  10.332   4.159   6.663 -0.2434  0.2081 -0.6539
  992MOL0     C33845  10.475   4.176   6.673  0.6131  0.9243 -0.3571
  992MOL0     C33846  10.515   4.199   6.525 -0.4492 -0.2056 -0.4510
  992MOL0     C33847  10.471   4.084   6.436 -0.1125 -0.4289 -0.2259
  992MOL0     C33848  10.549   3.965   6.486 -0.1626  0.2321  0.8453
  992MOL0     C33849  10.695   3.949   6.480 -0.1045  0.3180  0.4811
  992MOL0     C33850  10.812   3.937   6.495 -0.1672  0.2486 -0.8517
  992MOL0     C33851  10.304   4.102   6.914 -1.6150 -0.4547 -0.0279
  992MOL0     C33852  10.215   4.068   7.018 -1.0215 -0.2405  0.0188
  992MOL0     H33853   9.684   3.820   6.972  1.0723 -1.2251  0.8714
  992MOL0     H33854   9.469   3.784   7.074  0.7167  4.9093 -4.5160
  992MOL0     H33855   9.381   3.958   7.469  1.4634 -0.9434  0.3110
  992MOL0     H33856   9.309   3.993   7.321  0.6841 -0.0701  0.3932
  992MOL0     H33857   9.196   3.748   7.483 -0.2440  0.5802  0.6098
  992MOL0     H33858   9.136   3.919   7.491  1.5605  0.2151  1.0258
  992MOL0     H33859   9.065   3.911   7.258  0.5358  0.4793  0.3874
  992MOL0     H33860   9.164   3.752   7.257 -1.5936 -3.5789  2.3609
  992MOL0     H33861   8.983   3.666   7.397 -4.6641 -1.1325 -0.8922
  992MOL0     H33862   8.920   3.831   7.410 -0.2553 -1.1011  1.2901
  992MOL0     H33863   8.936   3.705   7.134  2.6124  0.2320  2.9022
  992MOL0     H33864   8.808   3.658   7.249 -0.6489 -1.0590 -1.0307
  992MOL0     H33865   8.724   3.885   7.288 -1.4220 -0.1432  0.2002
  992MOL0     H33866   8.841   3.957   7.183 -2.6908  1.9527 -1.9111
  992MOL0     H33867   8.753   3.885   6.982 -0.5944  2.2914  1.3033
  992MOL0     H33868   8.670   3.742   7.047  0.2403  0.2072 -1.7981
  992MOL0     H33869   8.530   3.918   6.957 -2.1947 -1.1045  1.4106
  992MOL0     H33870   8.603   4.034   7.069  1.4193 -0.1418 -1.7854
  992MOL0     H33871   8.412   3.686   7.128 -2.6801 -2.4630  3.2167
  992MOL0     H33872   8.214   3.636   7.281  0.4661 -0.0229 -2.7702
  992MOL0     H33873   8.141   3.768   7.374  0.9287  0.7527  0.7829
  992MOL0     H33874   7.976   3.678   7.234 -2.7659  3.8871 -0.7363
  992MOL0     H33875   8.085   3.704   7.089 -0.3087  2.2563 -0.2261
  992MOL0     H33876   8.070   3.947   7.129  0.9755 -0.8601  0.2369
  992MOL0     H33877   7.988   3.940   7.280  1.9525  0.9470 -0.0425
  992MOL0     H33878   7.897   3.845   7.017  3.8740  1.7710 -0.1785
  992MOL0     H33879   7.859   4.004   7.083 -0.7705  0.6678  1.8960
  992MOL0     H33880   7.695   3.933   6.938  0.4355  1.8889 -0.4227
  992MOL0     H33881   7.496   3.802   6.730 -0.4116 -0.4840 -0.8835
  992MOL0     H33882   7.372   3.941   6.751 -0.8507 -0.1868 -0.1817
  992MOL0     H33883   7.543   3.966   6.756 -0.1538 -1.2795 -1.9668
  992MOL0     H33884   6.932   3.686   6.819 -1.2113 -0.9450 -1.4853
  992MOL0     H33885   6.755   3.769   6.682  0.8690 -1.0551  1.2577
  992MOL0     H33886   6.767   4.197   6.559 -1.9126 -0.4375 -4.8270
  992MOL0     H33887   6.620   4.129   6.517  1.3922  0.7904 -0.1867
  992MOL0     H33888   6.721   4.169   6.810 -0.5112  0.3558  0.3693
  992MOL0     H33889   6.605   4.253   6.718 -2.6392 -0.8462  0.3463
  992MOL0     H33890   6.576   3.960   6.822 -1.4478  0.7051  1.7631
  992MOL0     H33891   6.477   4.008   6.691  4.7558 -6.1363 -1.0461
  992MOL0     H33892   6.405   4.213   6.847  3.0572  0.8176 -1.3513
  992MOL0     H33893   6.362   4.045   6.890  0.5774 -1.7471 -2.8050
  992MOL0     H33894   6.594   4.203   7.031 -1.2181  0.2293  3.7118
  992MOL0     H33895   6.563   4.031   7.043 -0.0229 -0.4020 -1.8216
  992MOL0     H33896   6.390   4.254   7.116  0.9538  0.7099 -0.0551
  992MOL0     H33897   6.333   4.078   7.118 -1.4282  1.4651 -0.6134
  992MOL0     H33898   6.589   4.123   7.273  0.5168 -2.0545 -1.2545
  992MOL0     H33899   6.470   4.003   7.296 -1.3928  0.5550  2.7939
  992MOL0     H33900   6.435   4.124   7.478  0.0738  0.5098  0.0101
  992MOL0     H33901   6.299   4.184   7.387  0.0764 -2.3153 -1.6047
  992MOL0     H33902   6.982   4.118   6.600  3.2369 -2.4342 -4.2554
  992MOL0     H33903   7.191   4.017   6.713  1.1945 -1.0461  0.1593
  992MOL0     H33904   7.312   3.759   7.199  0.1502  0.2966  1.4326
  992MOL0     H33905   7.535   3.774   7.299  0.0503 -3.7198 -0.7606
  992MOL0     H33906   9.619   3.960   7.447  2.1988 -0.6952 -0.5406
  992MOL0     H33907   9.807   4.024   7.334  2.5857 -0.4493 -1.5230
  992MOL0     H33908   9.927   4.067   6.847  0.6787  2.1924 -3.4248
  992MOL0     H33909  10.080   4.160   6.668 -0.7198  0.9500  0.8531
  992MOL0     H33910  10.493   4.266   6.731 -0.5873  0.0996  1.3620
  992MOL0     H33911  10.538   4.090   6.698 -0.9022 -1.0534 -2.7376
  992MOL0     H33912  10.621   4.224   6.515  0.2473 -2.3842  1.0137
  992MOL0     H33913  10.467   4.296   6.504 -0.0676  0.1998  0.4973
  992MOL0     H33914  10.496   4.114   6.334  2.3289 -0.6731  0.2418
  992MOL0     H33915  10.363   4.066   6.443 -0.2109  0.3249  0.3660
  992MOL0     H33916  10.515   3.890   6.413  1.9462  0.6821 -0.6896
  992MOL0     H33917  10.513   3.936   6.585  0.5367 -2.2702  0.4418
  992MOL0     H33918  10.918   3.923   6.506 -0.0346  1.4984 -0.3727
  992MOL0     H33919  10.410   4.083   6.928 -1.7938 -1.6682 -0.2449
  992MOL0     H33920  10.254   4.061   7.119  2.4535  2.9457 -0.8643
  993MOL0     O33921   3.907   7.984   0.921  0.3702  0.0200 -0.4739
  993MOL0     C33922   3.892   7.868   0.882  0.4231  0.5096 -0.2791
  993MOL0     O33923   3.783   7.789   0.911  0.4149 -0.6673 -0.1521
  993MOL0     C33924   3.679   7.847   0.969 -1.0015  0.3592 -0.1562
  993MOL0     C33925   3.555   7.802   0.917  0.1319  0.0688 -0.3291
  993MOL0     C33926   3.438   7.841   0.983  1.1264  0.0076 -0.2251
  993MOL0     C33927   3.442   7.917   1.103  0.3793  0.8322 -0.0066
  993MOL0     O33928   3.330   7.942   1.179  0.8253 -0.0836  0.6393
  993MOL0     C33929   3.325   7.961   1.323 -0.0900  0.2059 -0.1404
  993MOL0     C33930   3.200   8.032   1.375 -0.4305  0.2454  0.6475
  993MOL0     C33931   3.057   8.002   1.318  0.1419 -0.7010  0.6138
  993MOL0     C33932   2.940   8.024   1.416 -0.7661 -1.1314  0.4296
  993MOL0     C33933   2.807   7.971   1.346  0.5535 -0.2464 -0.1583
  993MOL0     C33934   2.679   8.043   1.401  0.5087 -0.6422 -0.2725
  993MOL0     C33935   2.629   7.979   1.536  0.6827  0.7433 -0.5170
  993MOL0     C33936   2.573   7.831   1.524  0.3429 -0.7954 -0.2116
  993MOL0     N33937   2.467   7.801   1.627 -0.1791 -0.7532 -0.0106
  993MOL0     C33938   2.332   7.803   1.604  0.2958  0.6403 -0.9387
  993MOL0     C33939   2.275   7.772   1.731 -0.6967 -0.6322  0.6690
  993MOL0     C33940   2.128   7.762   1.765  0.0404  0.2133 -0.7152
  993MOL0     C33941   2.064   7.622   1.754 -0.3106  0.0861 -0.1868
  993MOL0     C33942   2.137   7.517   1.844  0.1423 -0.0801 -0.4431
  993MOL0     C33943   2.124   7.557   1.991 -0.6982  0.8035 -0.1681
  993MOL0     O33944   2.153   7.443   2.078 -0.3431  0.2072  0.0749
  993MOL0     C33945   2.064   7.337   2.092 -1.3554  0.3129  0.3911
  993MOL0     C33946   1.931   7.330   2.056 -0.5359 -0.0082 -0.5420
  993MOL0     C33947   1.845   7.217   2.085  0.0371  0.0455  0.4754
  993MOL0     C33948   1.704   7.216   2.028 -0.0944 -0.3946  0.0466
  993MOL0     C33949   1.901   7.115   2.177 -0.2799 -0.0829  0.4730
  993MOL0     C33950   1.820   7.007   2.241  0.5124 -0.3375 -0.0150
  993MOL0     O33951   1.867   6.924   2.328  0.2770 -0.3803 -0.6529
  993MOL0     C33952   1.794   6.818   2.375  0.1635 -0.2048 -0.7457
  993MOL0     C33953   1.700   6.836   2.478  0.0077  0.4767 -0.3202
  993MOL0     C33954   1.626   6.728   2.529 -1.0663 -0.0995 -0.8245
  993MOL0     C33955   1.638   6.604   2.478 -0.0613  1.1758  0.8418
  993MOL0     O33956   1.556   6.505   2.533 -0.0750  0.0106  0.1967
  993MOL0     C33957   1.530   6.386   2.457 -0.8180 -0.0444 -0.4973
  993MOL0     C33958   1.419   6.308   2.526 -0.4207 -1.0389  0.1863
  993MOL0     C33959   1.281   6.362   2.483 -0.1685 -0.4335 -0.2355
  993MOL0     C33960   1.169   6.300   2.559  0.4965 -0.0329 -0.0078
  993MOL0     C33961   1.126   6.162   2.520 -0.5040  1.0020 -0.2174
  993MOL0     C33962   1.002   6.115   2.584  0.4483  0.4922 -0.1537
  993MOL0     C33963   0.976   5.962   2.583  0.1710 -0.7764 -0.5354
  993MOL0     C33964   0.841   5.929   2.648  0.6016  0.5495 -0.5318
  993MOL0    Cl33965   0.794   6.021   2.802 -0.3662  0.6353 -0.0166
  993MOL0     C33966   1.718   6.592   2.364  0.2652  0.8899  0.2102
  993MOL0     C33967   1.806   6.697   2.320  0.6880 -0.2684  0.1888
  993MOL0     O33968   1.699   6.999   2.203 -0.2258 -0.0917 -0.1038
  993MOL0     C33969   2.042   7.111   2.203  0.6489 -1.0806 -0.0546
  993MOL0     C33970   2.113   7.218   2.155 -0.4282 -0.1373  0.0201
  993MOL0     N33971   2.377   7.774   1.828 -0.1123  0.0949  0.6722
  993MOL0     N33972   2.489   7.799   1.770 -1.1758  0.0396 -0.9935
  993MOL0     C33973   3.570   7.958   1.158 -0.3975  0.2403  0.7169
  993MOL0     C33974   3.684   7.924   1.085  0.0562 -0.0000  0.1896
  993MOL0     C33975   4.002   7.810   0.805  1.1737  0.0229  1.1146
  993MOL0     C33976   4.082   7.892   0.728 -0.8757  0.1275 -0.2733
  993MOL0     C33977   4.185   7.835   0.645  0.0604 -0.1106  0.4791
  993MOL0     C33978   4.211   7.700   0.641  0.1495  1.0321 -0.2663
  993MOL0     O33979   4.320   7.654   0.573  0.5020  0.1476 -0.1364
  993MOL0     C33980   4.407   7.565   0.641 -0.4798 -0.6798 -0.2083
  993MOL0     C33981   4.473   7.622   0.765 -0.2941  0.1472  0.4359
  993MOL0     C33982   4.559   7.741   0.724  0.3454  0.7152 -0.4327
  993MOL0     C33983   4.671   7.764   0.819  0.4556 -0.9538 -0.5892
  993MOL0     C33984   4.804   7.745   0.767  0.4009  0.3312  0.2391
  993MOL0     C33985   4.914   7.718   0.742  0.3661  0.0381  0.7815
  993MOL0     C33986   4.124   7.616   0.724 -0.2785 -1.2186  0.0970
  993MOL0     C33987   4.017   7.674   0.796 -0.2674  0.2291 -0.2511
  993MOL0     H33988   3.561   7.736   0.830 -0.5140 -3.3951  2.0451
  993MOL0     H33989   3.342   7.795   0.961  2.4898 -3.8873  1.0164
  993MOL0     H33990   3.326   7.858   1.362 -0.2205  0.2321 -0.0689
  993MOL0     H33991   3.410   8.016   1.364  1.7989 -1.2121 -1.9065
  993MOL0     H33992   3.188   8.024   1.483  0.0115  2.6515  0.9384
  993MOL0     H33993   3.224   8.135   1.346  0.9231  0.2304  1.6557
  993MOL0     H33994   3.050   8.052   1.221 -0.2290  2.0146  1.9435
  993MOL0     H33995   3.055   7.896   1.292  0.2434 -0.8954  1.3800
  993MOL0     H33996   2.979   7.966   1.501 -0.6365 -0.6724  0.6921
  993MOL0     H33997   2.942   8.127   1.454  0.7014 -1.5607  1.6148
  993MOL0     H33998   2.825   7.977   1.238  1.8008 -0.8601 -0.0018
  993MOL0     H33999   2.794   7.864   1.364 -1.6355  0.4191  2.8922
  993MOL0     H34000   2.711   8.147   1.408  1.0349 -0.6861 -1.7576
  993MOL0     H34001   2.597   8.036   1.329 -2.9949  1.7533  3.0767
  993MOL0     H34002   2.710   7.973   1.609  1.8289 -2.5014 -1.8481
  993MOL0     H34003   2.549   8.038   1.581 -1.0535 -1.6779 -0.1916
  993MOL0     H34004   2.649   7.756   1.547 -0.8198 -1.9461 -0.0207
  993MOL0     H34005   2.525   7.816   1.426 -2.1228 -0.0077  0.7852
  993MOL0     H34006   2.267   7.808   1.518 -1.1446  1.6713  0.1672
  993MOL0     H34007   2.120   7.794   1.870 -0.7130  0.6308 -0.8962
  993MOL0     H34008   2.071   7.832   1.704  0.9850  0.0094 -1.8456
  993MOL0     H34009   2.058   7.594   1.649  1.2276  0.4624 -0.3957
  993MOL0     H34010   1.962   7.619   1.795 -0.5435 -0.8817 -0.8038
  993MOL0     H34011   2.239   7.501   1.808  0.0997  1.5329 -1.4169
  993MOL0     H34012   2.087   7.420   1.843 -0.5816  0.2831 -0.9653
  993MOL0     H34013   2.023   7.593   2.011 -1.4964 -0.5752 -1.4295
  993MOL0     H34014   2.201   7.634   2.003  1.0780 -0.6623 -1.5335
  993MOL0     H34015   1.897   7.418   2.002  1.2882  2.7744  2.4718
  993MOL0     H34016   1.700   7.145   1.945  2.5164  0.0452 -0.5539
  993MOL0     H34017   1.628   7.204   2.106 -1.8658 -2.0786 -1.8411
  993MOL0     H34018   1.689   7.316   1.987  2.7134  0.5919  1.1786
  993MOL0     H34019   1.687   6.936   2.517 -0.9854 -0.1073  0.9438
  993MOL0     H34020   1.560   6.753   2.612  0.3495 -0.7887  0.5577
  993MOL0     H34021   1.505   6.408   2.353 -1.3958  0.9947 -0.1485
  993MOL0     H34022   1.624   6.330   2.451 -1.0714 -0.6322  0.7389
  993MOL0     H34023   1.441   6.202   2.508  3.8435 -0.2975 -0.0367
  993MOL0     H34024   1.437   6.318   2.634  0.1437 -0.5636  0.0565
  993MOL0     H34025   1.273   6.354   2.375  0.5539  0.9221 -0.4168
  993MOL0     H34026   1.287   6.467   2.512  1.5057 -0.1036 -1.5889
  993MOL0     H34027   1.184   6.306   2.667 -1.7225 -3.1497  0.6292
  993MOL0     H34028   1.077   6.356   2.538 -0.7856 -2.0182  0.0126
  993MOL0     H34029   1.211   6.095   2.533  0.7672  2.7048  0.6997
  993MOL0     H34030   1.109   6.158   2.412 -1.1235 -2.3326 -0.0965
  993MOL0     H34031   1.016   6.135   2.691  0.2588  0.5650 -0.1416
  993MOL0     H34032   0.918   6.178   2.553 -0.5517 -0.1854  1.0613
  993MOL0     H34033   1.059   5.916   2.637 -1.2352 -2.3090  0.4334
  993MOL0     H34034   0.981   5.924   2.481  0.8878 -1.0383 -0.4030
  993MOL0     H34035   0.838   5.822   2.670 -0.2154  0.1758 -2.2039
  993MOL0     H34036   0.763   5.951   2.574  1.5808 -1.8731 -2.4141
  993MOL0     H34037   1.724   6.493   2.322  0.9619  0.9693  0.1107
  993MOL0     H34038   1.873   6.667   2.240 -0.7393 -0.2433 -1.0621
  993MOL0     H34039   2.094   7.029   2.252 -0.3240 -3.5852 -2.8607
  993MOL0     H34040   2.217   7.204   2.183 -0.5533 -3.3633 -0.6918
  993MOL0     H34041   3.577   8.030   1.240  0.8593  1.9651 -0.7963
  993MOL0     H34042   3.782   7.952   1.121 -0.3063  1.6149 -0.0101
  993MOL0     H34043   4.070   7.999   0.743  1.2636  0.1925  1.4281
  993MOL0     H34044   4.249   7.899   0.585  1.1455 -0.6084  1.0804
  993MOL0     H34045   4.354   7.474   0.670 -0.2419 -0.8999 -0.4613
  993MOL0     H34046   4.487   7.540   0.571  2.8888 -0.0431  3.0816
  993MOL0     H34047   4.536   7.546   0.811 -0.0718  0.7448  1.1375
  993MOL0     H34048   4.407   7.651   0.847  1.7158  1.0082  1.8359
  993MOL0     H34049   4.488   7.824   0.729 -1.5283 -0.8784  0.3846
  993MOL0     H34050   4.605   7.736   0.624  1.3980  1.9891 -0.0470
  993MOL0     H34051   4.666   7.708   0.913  0.5300  3.4780  2.3847
  993MOL0     H34052   4.668   7.868   0.852 -2.1023 -0.1687 -2.9926
  993MOL0     H34053   5.012   7.676   0.727 -0.6134 -2.9206  1.8910
  993MOL0     H34054   4.145   7.510   0.732  1.5197 -0.8331  1.0504
  993MOL0     H34055   3.958   7.614   0.865  2.7720 -0.1753  2.2209
  994MOL0     O34056  10.875   3.804   1.532  0.7447  0.0034 -0.1051
  994MOL0     C34057  10.861   3.715   1.451 -0.1673 -0.5732  1.0695
  994MOL0     O34058  10.788   3.597   1.470 -0.5738 -0.1974  0.3335
  994MOL0     C34059  10.729   3.559   1.593 -0.4636  1.0830 -0.7269
  994MOL0     C34060  10.690   3.428   1.602  0.4558  1.1089 -0.0621
  994MOL0     C34061  10.637   3.386   1.723 -0.1103  0.1052  1.0007
  994MOL0     C34062  10.606   3.465   1.833  0.3019  0.8169  0.1513
  994MOL0     O34063  10.561   3.396   1.949 -0.2972  0.6920  0.2974
  994MOL0     C34064  10.569   3.467   2.072  1.0319 -0.3529  1.6706
  994MOL0     C34065  10.509   3.378   2.180  0.3343 -0.0904  0.2289
  994MOL0     C34066  10.591   3.260   2.232 -0.6326 -0.2829  0.2443
  994MOL0     C34067  10.537   3.190   2.355 -0.0248 -0.5809  0.4597
  994MOL0     C34068  10.621   3.068   2.380 -0.6448 -0.0558  0.8950
  994MOL0     C34069  10.597   3.000   2.510  0.0269  0.1206  0.0384
  994MOL0     C34070  10.490   2.884   2.487 -0.3884  0.1481 -0.0771
  994MOL0     C34071  10.454   2.798   2.613  0.0880 -0.0555 -0.1900
  994MOL0     N34072  10.538   2.675   2.619  0.2808 -0.1380 -0.1954
  994MOL0     C34073  10.490   2.546   2.617 -0.0283 -0.6952  0.4945
  994MOL0     C34074  10.602   2.464   2.627  0.1889 -0.5358  0.6292
  994MOL0     C34075  10.606   2.314   2.631 -0.0061 -0.4858  0.5344
  994MOL0     C34076  10.529   2.237   2.513  0.3948  0.6019  0.0908
  994MOL0     C34077  10.428   2.121   2.561  0.4021  0.1542 -0.6329
  994MOL0     C34078  10.280   2.151   2.562  1.2119 -0.0255 -0.2651
  994MOL0     O34079  10.246   2.268   2.487  0.0576 -0.3201 -0.0718
  994MOL0     C34080  10.232   2.263   2.351  0.9453  0.1567  0.0215
  994MOL0     C34081  10.271   2.163   2.259 -0.2780  0.8840  1.3456
  994MOL0     C34082  10.233   2.169   2.120 -0.6096 -0.1305 -0.0892
  994MOL0     C34083  10.274   2.054   2.030  0.1846 -0.4567  0.9311
  994MOL0     C34084  10.167   2.286   2.071 -0.5066 -0.5572  0.0619
  994MOL0     C34085  10.149   2.304   1.930 -0.4921  0.1370 -0.1524
  994MOL0     O34086  10.018   2.330   1.899  0.8104 -0.0058  0.1808
  994MOL0     C34087  10.007   2.405   1.785 -0.0561  0.4552 -0.0606
  994MOL0     C34088   9.973   2.350   1.662  0.1684 -0.4154 -0.4088
  994MOL0     C34089   9.954   2.431   1.547 -0.6213  0.1931  0.7720
  994MOL0     C34090   9.966   2.570   1.551 -0.1480 -0.1927  0.1110
  994MOL0     O34091   9.934   2.648   1.448 -0.0382 -1.0790  0.2170
  994MOL0     C34092   9.836   2.595   1.355 -0.1612 -0.6592  0.4824
  994MOL0     C34093   9.804   2.719   1.261  0.1517 -0.6134  0.9514
  994MOL0     C34094   9.677   2.674   1.187  0.0237 -0.2594 -0.1077
  994MOL0     C34095   9.654   2.763   1.062 -0.3436  0.1437  0.4763
  994MOL0     C34096   9.591   2.896   1.103  0.0638 -0.3506 -0.4615
  994MOL0     C34097   9.546   3.003   1.000 -0.6367  0.3383  0.8641
  994MOL0     C34098   9.659   3.060   0.914 -0.0393  0.5432  0.6600
  994MOL0     C34099   9.764   3.127   1.006 -0.0281  0.2277  0.5027
  994MOL0    Cl34100   9.729   3.289   1.055  0.2465 -0.1438 -0.5486
  994MOL0     C34101  10.002   2.622   1.670  0.2529 -0.3916 -0.1771
  994MOL0     C34102  10.028   2.542   1.783  0.9425 -0.3649 -0.2893
  994MOL0     O34103  10.242   2.298   1.850  0.1597 -0.3145 -0.5393
  994MOL0     C34104  10.126   2.389   2.160  0.8687 -0.1890 -0.3814
  994MOL0     C34105  10.165   2.372   2.299 -0.7361 -0.5971 -0.3842
  994MOL0     N34106  10.711   2.546   2.628  0.4109  0.9718 -0.2512
  994MOL0     N34107  10.668   2.669   2.639 -0.0820  0.1216  1.0766
  994MOL0     C34108  10.650   3.596   1.821  0.5191 -0.3112  0.3373
  994MOL0     C34109  10.705   3.640   1.702  0.3445 -0.6079 -0.1198
  994MOL0     C34110  10.952   3.719   1.339 -0.8957  0.9752 -0.4637
  994MOL0     C34111  10.948   3.622   1.232 -0.1881  0.7374 -0.2266
  994MOL0     C34112  11.022   3.639   1.120  0.0340  0.0131  0.4645
  994MOL0     C34113  11.119   3.749   1.107 -0.2848 -1.1012 -0.0845
  994MOL0     O34114  11.197   3.766   0.999 -0.1560  0.1720  0.3422
  994MOL0     C34115  11.228   3.643   0.921  0.5899 -0.6700 -0.0264
  994MOL0     C34116  11.367   3.658   0.857  0.2138 -0.1074 -0.6577
  994MOL0     C34117  11.378   3.782   0.766 -0.3303  0.2779 -0.7408
  994MOL0     C34118  11.310   3.768   0.625  0.1883  0.1281  0.1402
  994MOL0     C34119  11.388   3.679   0.537  0.4183 -0.2633  0.1967
  994MOL0     C34120  11.438   3.602   0.460  0.4224 -0.1794  0.4331
  994MOL0     C34121  11.125   3.834   1.224 -0.0159 -0.4064  0.3928
  994MOL0     C34122  11.041   3.824   1.330  0.3396 -0.1722  0.1806
  994MOL0     H34123  10.690   3.357   1.520 -0.9349 -0.1942  1.0156
  994MOL0     H34124  10.616   3.280   1.731  0.0277 -0.0044  0.0773
  994MOL0     H34125  10.671   3.500   2.096  0.8635  1.7606 -0.2184
  994MOL0     H34126  10.504   3.555   2.072 -1.2344 -1.9599  0.9609
  994MOL0     H34127  10.482   3.432   2.271 -1.6633 -0.9417  0.1807
  994MOL0     H34128  10.420   3.334   2.135  0.4347 -2.0920  1.8546
  994MOL0     H34129  10.593   3.190   2.148 -1.4164 -0.0958  0.0638
  994MOL0     H34130  10.689   3.306   2.247 -0.5388 -0.5925  0.5963
  994MOL0     H34131  10.533   3.254   2.444  0.5355  2.2496 -1.3919
  994MOL0     H34132  10.434   3.158   2.338  0.0013 -1.6274  2.1334
  994MOL0     H34133  10.607   2.997   2.298  0.1839  0.9103 -0.1142
  994MOL0     H34134  10.722   3.111   2.382 -0.3399 -0.5929 -1.0305
  994MOL0     H34135  10.688   2.965   2.560  2.0055  2.6773 -1.5724
  994MOL0     H34136  10.552   3.074   2.577  1.5681  0.8224  0.3246
  994MOL0     H34137  10.401   2.926   2.440  0.8642  0.5025 -2.2569
  994MOL0     H34138  10.535   2.816   2.414  0.9755  2.3008 -1.3292
  994MOL0     H34139  10.349   2.768   2.607 -0.4415  1.9879 -2.4396
  994MOL0     H34140  10.466   2.858   2.704  3.7917 -2.1476  0.9391
  994MOL0     H34141  10.387   2.514   2.604 -0.4274  0.8103 -0.2360
  994MOL0     H34142  10.713   2.294   2.621  0.7831  3.0528  0.6545
  994MOL0     H34143  10.580   2.279   2.731  3.0329 -1.4499  1.0832
  994MOL0     H34144  10.608   2.185   2.459  2.0143  0.5007  2.3768
  994MOL0     H34145  10.475   2.310   2.452 -1.1536 -1.2343 -0.8261
  994MOL0     H34146  10.467   2.087   2.657  2.0058  0.3708 -1.1640
  994MOL0     H34147  10.450   2.043   2.488  0.2643 -0.5731  0.0978
  994MOL0     H34148  10.251   2.170   2.665 -0.0542 -0.9484 -0.4233
  994MOL0     H34149  10.227   2.060   2.530  0.0619  0.2179  0.8679
  994MOL0     H34150  10.322   2.082   2.311 -2.2686  0.6091  3.0094
  994MOL0     H34151  10.192   2.030   1.962  1.2701 -3.1099  0.4554
  994MOL0     H34152  10.354   2.083   1.961 -1.0944 -0.7561 -0.7401
  994MOL0     H34153  10.311   1.963   2.077 -0.6346 -2.8284 -2.6089
  994MOL0     H34154   9.943   2.246   1.663 -3.2134  0.4440 -0.9732
  994MOL0     H34155   9.925   2.378   1.457 -0.4420  0.9807  0.2385
  994MOL0     H34156   9.892   2.529   1.288  2.0217  3.7150 -2.4762
  994MOL0     H34157   9.743   2.567   1.405  0.7345 -1.7592  1.6061
  994MOL0     H34158   9.783   2.804   1.327  2.2360 -0.5436  1.6000
  994MOL0     H34159   9.886   2.755   1.199  0.8258  1.6390  3.0187
  994MOL0     H34160   9.593   2.676   1.257 -0.8003 -4.4304 -0.7135
  994MOL0     H34161   9.682   2.571   1.153 -0.2979 -0.9359  1.7770
  994MOL0     H34162   9.746   2.778   1.005 -1.2369 -1.9044 -1.6428
  994MOL0     H34163   9.590   2.715   0.988 -0.6776  1.4130 -0.0966
  994MOL0     H34164   9.671   2.943   1.162 -0.3493  0.3967 -0.4898
  994MOL0     H34165   9.504   2.879   1.168 -0.6026 -0.3388 -1.3433
  994MOL0     H34166   9.461   2.965   0.942  1.3080 -1.3450 -1.0788
  994MOL0     H34167   9.498   3.090   1.046  1.4621  3.1441 -1.8459
  994MOL0     H34168   9.619   3.133   0.843  1.1018  0.7651  0.2166
  994MOL0     H34169   9.704   2.984   0.850 -1.2407  1.7806 -1.8187
  994MOL0     H34170   9.853   3.150   0.947  0.9235 -0.7459  1.5002
  994MOL0     H34171   9.809   3.068   1.088  1.5148 -1.0305 -1.1560
  994MOL0     H34172  10.017   2.729   1.674  2.5083 -0.7116  1.2671
  994MOL0     H34173  10.048   2.595   1.875  1.4938 -0.8359 -0.1351
  994MOL0     H34174  10.064   2.469   2.120  1.5679  1.5105  1.7203
  994MOL0     H34175  10.134   2.455   2.362 -0.9899 -0.7875 -0.2559
  994MOL0     H34176  10.643   3.668   1.901  1.6595 -0.4717  0.6055
  994MOL0     H34177  10.739   3.743   1.700  2.0024 -1.0060  2.5146
  994MOL0     H34178  10.876   3.541   1.222 -0.6430  1.4281 -4.4833
  994MOL0     H34179  11.018   3.580   1.029  1.5252 -1.3710  1.2463
  994MOL0     H34180  11.240   3.557   0.987 -1.8015 -0.9867  0.1021
  994MOL0     H34181  11.149   3.625   0.847 -0.1124 -1.2576  0.8513
  994MOL0     H34182  11.414   3.574   0.807  1.4548  2.1225 -3.5273
  994MOL0     H34183  11.425   3.693   0.943 -0.4735 -0.4208 -0.0532
  994MOL0     H34184  11.485   3.793   0.747 -0.4351 -1.5741 -2.7605
  994MOL0     H34185  11.331   3.868   0.815  0.8729  1.7131 -2.0032
  994MOL0     H34186  11.309   3.863   0.571  1.9773  0.3868  0.4903
  994MOL0     H34187  11.205   3.742   0.641  0.5662 -0.9403  1.0625
  994MOL0     H34188  11.491   3.556   0.379  0.6072  2.8827 -1.3260
  994MOL0     H34189  11.196   3.916   1.223  2.7968 -2.6833  0.8082
  994MOL0     H34190  11.051   3.894   1.412  1.6218 -1.4359  1.1551
  995MOL0     O34191   0.530   0.854   6.512 -0.2379 -0.2895  0.7391
  995MOL0     C34192   0.512   0.949   6.593 -0.6458  0.6069 -0.4025
  995MOL0     O34193   0.506   1.081   6.561  0.3843  0.2168  1.0068
  995MOL0     C34194   0.517   1.111   6.424 -0.0611 -0.2525  0.0745
  995MOL0     C34195   0.420   1.195   6.364  0.1263 -0.3950 -0.1415
  995MOL0     C34196   0.422   1.232   6.231 -0.7059 -1.0704  0.1435
  995MOL0     C34197   0.532   1.192   6.151 -0.0986 -0.4318  0.2802
  995MOL0     O34198   0.550   1.229   6.017 -1.1279  0.0216  0.0305
  995MOL0     C34199   0.480   1.351   5.972  0.4390  1.0204  0.2021
  995MOL0     C34200   0.502   1.368   5.815 -0.0688  0.6047  0.1468
  995MOL0     C34201   0.483   1.248   5.729  0.2524 -0.4719 -0.1776
  995MOL0     C34202   0.327   1.217   5.712 -0.1210  0.0338  0.1719
  995MOL0     C34203   0.253   1.314   5.620 -0.1095 -0.7379  0.1065
  995MOL0     C34204   0.314   1.346   5.486  1.0700  0.4766  0.2890
  995MOL0     C34205   0.212   1.416   5.384  0.0782  0.1221 -0.4018
  995MOL0     C34206   0.143   1.548   5.427 -0.4048 -0.5160 -0.3882
  995MOL0     N34207   0.043   1.606   5.336  0.2357  0.8080  0.9539
  995MOL0     C34208   0.075   1.672   5.219 -0.8120 -0.3756  0.2217
  995MOL0     C34209  -0.047   1.733   5.189 -1.0815  0.5604  0.4327
  995MOL0     C34210  -0.077   1.826   5.075  0.1174 -0.3724  0.4851
  995MOL0     C34211  -0.102   1.970   5.117 -0.3219 -0.5221 -0.1718
  995MOL0     C34212   0.026   2.057   5.108  0.1033  0.2119 -0.0260
  995MOL0     C34213   0.125   2.026   5.214  0.1147 -0.3221 -0.5569
  995MOL0     O34214   0.071   2.057   5.344 -0.7756 -0.0551 -0.0802
  995MOL0     C34215   0.102   1.967   5.443  0.5016 -0.4277 -1.0206
  995MOL0     C34216   0.237   1.924   5.468 -0.1214  0.1517 -0.2323
  995MOL0     C34217   0.259   1.839   5.586  0.6186  0.8884  0.1598
  995MOL0     C34218   0.404   1.801   5.602  0.7147 -0.1045  0.5801
  995MOL0     C34219   0.154   1.798   5.675  0.8435  0.6337 -0.2927
  995MOL0     C34220   0.168   1.714   5.795 -1.6210 -0.4160  0.0120
  995MOL0     O34221   0.076   1.717   5.896  0.6005 -0.4387 -0.5164
  995MOL0     C34222   0.089   1.639   6.004 -0.0550  0.3731  0.1710
  995MOL0     C34223   0.024   1.676   6.127 -0.0115  0.2472  0.2131
  995MOL0     C34224   0.018   1.591   6.240  0.1465 -0.3280 -0.0580
  995MOL0     C34225   0.069   1.462   6.228  0.3100 -0.1627  0.2578
  995MOL0     O34226   0.065   1.369   6.331 -0.0512  0.4118 -0.3838
  995MOL0     C34227   0.024   1.419   6.461  0.3492 -0.9414 -0.2751
  995MOL0     C34228   0.023   1.295   6.558 -0.1001  0.2680  0.2272
  995MOL0     C34229  -0.026   1.337   6.704 -0.4919  0.5512 -0.3821
  995MOL0     C34230  -0.016   1.216   6.797  1.1217  0.4298  0.8861
  995MOL0     C34231  -0.067   1.240   6.946  0.4185  0.5197 -1.0963
  995MOL0     C34232  -0.094   1.101   7.028  0.5129 -1.1395 -0.0052
  995MOL0     C34233  -0.114   1.136   7.182 -0.1013 -0.6811  0.8335
  995MOL0     C34234  -0.110   1.009   7.269  0.9080  0.4121  1.2221
  995MOL0    Cl34235   0.068   0.958   7.273 -0.1388  0.0014 -0.3669
  995MOL0     C34236   0.122   1.426   6.103  0.8368 -0.2314  0.1222
  995MOL0     C34237   0.122   1.502   5.990 -0.3363  0.3911 -0.6921
  995MOL0     O34238   0.277   1.653   5.805  0.8233  0.3412  0.0716
  995MOL0     C34239   0.024   1.838   5.640 -0.3661  0.0498  0.6723
  995MOL0     C34240   0.001   1.927   5.536  0.0481  0.7863  0.4321
  995MOL0     N34241  -0.144   1.694   5.286  1.5572 -0.0893 -0.4301
  995MOL0     N34242  -0.089   1.620   5.371 -0.7733 -0.7766  0.1137
  995MOL0     C34243   0.631   1.112   6.204 -0.7158 -0.0422 -0.8685
  995MOL0     C34244   0.622   1.064   6.338 -0.1036  0.3622  0.0295
  995MOL0     C34245   0.492   0.900   6.733 -0.1875 -0.6661  0.6922
  995MOL0     C34246   0.442   0.772   6.769 -0.9871  0.9760  0.1090
  995MOL0     C34247   0.411   0.739   6.893 -0.0928  0.2296  0.7507
  995MOL0     C34248   0.441   0.830   7.001 -0.0934 -0.3784  0.3729
  995MOL0     O34249   0.416   0.810   7.136  1.1142  0.9529  0.3411
  995MOL0     C34250   0.510   0.720   7.198 -0.1564 -0.6442 -0.9041
  995MOL0     C34251   0.566   0.782   7.329  0.0708  0.2109 -0.8565
  995MOL0     C34252   0.523   0.924   7.369  0.1285 -0.0191  0.4699
  995MOL0     C34253   0.562   0.953   7.507  0.4649 -0.4274  0.5471
  995MOL0     C34254   0.706   0.933   7.537 -0.3504  0.1131  0.4383
  995MOL0     C34255   0.818   0.913   7.573  0.4890  0.1153  0.9515
  995MOL0     C34256   0.479   0.959   6.964 -0.9194 -0.5480  0.6634
  995MOL0     C34257   0.505   0.996   6.836  0.8329  0.7903 -0.4385
  995MOL0     H34258   0.337   1.230   6.424  1.0259  0.8870  0.3875
  995MOL0     H34259   0.339   1.295   6.199 -0.0758  0.4223  1.2750
  995MOL0     H34260   0.374   1.350   6.000 -0.6301  2.1048 -3.3037
  995MOL0     H34261   0.519   1.439   6.024 -0.1347  0.6312  1.3136
  995MOL0     H34262   0.435   1.447   5.779  0.4061  0.7778 -0.3657
  995MOL0     H34263   0.601   1.405   5.787 -0.3186  1.1965  0.0327
  995MOL0     H34264   0.523   1.256   5.628  2.3283  1.7550  0.7286
  995MOL0     H34265   0.545   1.174   5.781  3.0602  2.3965  0.8715
  995MOL0     H34266   0.334   1.120   5.661  2.1629 -0.0728  0.6212
  995MOL0     H34267   0.273   1.212   5.808 -4.1333  0.9099 -1.8002
  995MOL0     H34268   0.153   1.277   5.597 -1.4951  3.3867 -1.3791
  995MOL0     H34269   0.239   1.407   5.675  0.7801 -0.8836  0.6108
  995MOL0     H34270   0.398   1.413   5.507  0.8500  0.4724  1.2201
  995MOL0     H34271   0.345   1.252   5.439 -0.0096 -1.6744  3.5375
  995MOL0     H34272   0.277   1.431   5.298 -0.0924  0.3389 -0.4937
  995MOL0     H34273   0.134   1.345   5.355  1.0952 -0.7001 -1.1987
  995MOL0     H34274   0.215   1.630   5.441 -2.3737  1.8242 -2.9374
  995MOL0     H34275   0.092   1.531   5.522 -1.7428 -1.4382 -1.2425
  995MOL0     H34276   0.169   1.671   5.165 -0.3972 -1.4482  0.9179
  995MOL0     H34277   0.008   1.830   5.006 -0.8261 -1.2451 -0.7463
  995MOL0     H34278  -0.166   1.800   5.017 -0.5378  3.1135 -0.3212
  995MOL0     H34279  -0.135   1.975   5.221  1.6529 -0.2222  0.4762
  995MOL0     H34280  -0.183   2.007   5.053  0.0749 -0.0828 -0.4214
  995MOL0     H34281  -0.009   2.159   5.130  1.1427  0.1304  2.2764
  995MOL0     H34282   0.070   2.037   5.010 -1.6723 -0.3985 -0.7363
  995MOL0     H34283   0.218   2.084   5.220  0.1092 -0.3216 -0.4818
  995MOL0     H34284   0.162   1.923   5.209 -0.0256 -0.5791  2.2419
  995MOL0     H34285   0.315   1.971   5.409  0.4153  1.9900  1.8171
  995MOL0     H34286   0.430   1.807   5.708 -2.6876  0.7032  1.5193
  995MOL0     H34287   0.418   1.699   5.564  0.6796  0.3471 -0.7066
  995MOL0     H34288   0.475   1.867   5.551  1.3459 -0.7251  0.6541
  995MOL0     H34289   0.000   1.781   6.142  1.8957  0.4359  2.7047
  995MOL0     H34290  -0.029   1.619   6.334 -2.4700 -0.0871 -1.3442
  995MOL0     H34291   0.105   1.481   6.499 -0.3353  0.3649 -0.9056
  995MOL0     H34292  -0.068   1.479   6.462  3.5657  4.7101 -1.3171
  995MOL0     H34293  -0.052   1.220   6.532 -0.5617  0.7803  0.0496
  995MOL0     H34294   0.120   1.245   6.560 -0.5168 -0.5720 -0.0175
  995MOL0     H34295  -0.124   1.385   6.700  0.8336  3.3823 -1.4657
  995MOL0     H34296   0.045   1.415   6.731  0.2487 -0.3373  0.3016
  995MOL0     H34297  -0.056   1.126   6.751  6.1639 -0.8339 -1.7330
  995MOL0     H34298   0.092   1.199   6.805  1.7182  2.8589 -0.9915
  995MOL0     H34299  -0.163   1.291   6.950  0.9744  1.5835  3.0722
  995MOL0     H34300   0.006   1.300   7.001 -0.8302 -0.5136  1.9125
  995MOL0     H34301  -0.189   1.057   6.996  0.9726 -1.7701 -0.5295
  995MOL0     H34302  -0.016   1.026   7.012  1.1555 -0.6295  0.6656
  995MOL0     H34303  -0.203   1.196   7.204  0.5095  0.6915 -0.2956
  995MOL0     H34304  -0.027   1.201   7.199  1.8846 -3.8215  4.1600
  995MOL0     H34305  -0.154   0.929   7.208  2.7264  0.3362 -0.1010
  995MOL0     H34306  -0.158   1.019   7.366  0.6584 -3.6242  1.6956
  995MOL0     H34307   0.175   1.332   6.091 -1.5209 -1.5793 -0.3113
  995MOL0     H34308   0.145   1.448   5.899  0.0779  2.5214 -1.9284
  995MOL0     H34309  -0.054   1.805   5.708  0.3966 -0.3220  1.3821
  995MOL0     H34310  -0.100   1.958   5.511 -0.8649 -1.3584  1.1846
  995MOL0     H34311   0.714   1.074   6.146 -0.0841  1.0284 -0.6950
  995MOL0     H34312   0.701   1.005   6.383 -0.1551 -0.7932 -1.3517
  995MOL0     H34313   0.438   0.705   6.684 -0.7406  2.0289 -0.7564
  995MOL0     H34314   0.367   0.643   6.917 -3.5315  1.1227 -1.2397
  995MOL0     H34315   0.457   0.633   7.238 -2.1900  1.0887  0.4001
  995MOL0     H34316   0.586   0.685   7.128  1.2215 -0.7687  0.6054
  995MOL0     H34317   0.672   0.757   7.345 -1.0478 -4.2975  1.0030
  995MOL0     H34318   0.525   0.719   7.407 -0.3966 -0.0770 -1.3283
  995MOL0     H34319   0.415   0.939   7.355  0.2740  2.3762  1.3951
  995MOL0     H34320   0.563   0.997   7.298 -2.6344  2.3727  1.1360
  995MOL0     H34321   0.513   0.883   7.575 -2.1666  0.3858 -0.4072
  995MOL0     H34322   0.538   1.055   7.537  2.3036  0.0867  0.4388
  995MOL0     H34323   0.916   0.908   7.616  0.6210  0.2361  0.6695
  995MOL0     H34324   0.493   1.028   7.047 -0.9918 -1.4389  1.4303
  995MOL0     H34325   0.541   1.098   6.825  2.5513  0.0093 -2.7376
  996MOL0     O34326   2.614   7.882   7.156  0.4926  0.0945  0.4808
  996MOL0     C34327   2.501   7.831   7.137  0.0598  0.5447 -0.4902
  996MOL0     O34328   2.478   7.693   7.151  0.0246  0.1611 -0.5490
  996MOL0     C34329   2.579   7.609   7.199 -0.4481  0.2806 -0.1311
  996MOL0     C34330   2.551   7.523   7.305 -0.9839  0.0382 -0.0946
  996MOL0     C34331   2.646   7.439   7.363 -0.2422  0.7683 -1.1879
  996MOL0     C34332   2.775   7.427   7.318  0.1630  0.3573  0.4368
  996MOL0     O34333   2.847   7.332   7.387  0.3025 -0.1145  0.1248
  996MOL0     C34334   2.984   7.323   7.362 -0.8272  0.1215 -0.6835
  996MOL0     C34335   3.051   7.252   7.480  0.3949 -0.1661 -0.2090
  996MOL0     C34336   3.034   7.340   7.602  0.4535  0.2439  0.6512
  996MOL0     C34337   3.106   7.286   7.717  0.4288 -0.7666 -0.3041
  996MOL0     C34338   3.102   7.390   7.827 -1.1429  0.3051 -0.0336
  996MOL0     C34339   3.226   7.482   7.826 -0.9460  0.3703  0.3724
  996MOL0     C34340   3.190   7.609   7.904  0.2173  0.9752 -0.5423
  996MOL0     C34341   3.282   7.729   7.867 -0.6301 -0.4466  0.7333
  996MOL0     N34342   3.293   7.748   7.719  0.1143 -0.5729  0.3576
  996MOL0     C34343   3.198   7.818   7.656 -0.0202  0.1173  0.1984
  996MOL0     C34344   3.253   7.845   7.533 -1.3211 -1.6443  0.3599
  996MOL0     C34345   3.196   7.913   7.405  0.5778  0.6327  0.8172
  996MOL0     C34346   3.063   7.843   7.366 -0.0128  0.3180 -0.5623
  996MOL0     C34347   3.000   7.874   7.229  0.4046 -0.7116 -0.4565
  996MOL0     C34348   2.965   8.018   7.195  0.2003 -0.4336 -0.3640
  996MOL0     O34349   2.929   8.011   7.052 -0.7574  0.2852 -0.4758
  996MOL0     C34350   2.929   8.132   6.983 -0.7109  0.2510  0.3012
  996MOL0     C34351   2.984   8.259   7.030 -0.1688  0.0902  0.2556
  996MOL0     C34352   2.983   8.371   6.943 -0.0190  1.2158  0.1714
  996MOL0     C34353   3.025   8.498   7.003  0.7996 -0.6062 -0.9090
  996MOL0     C34354   2.931   8.356   6.807 -1.0239 -0.4819  0.1653
  996MOL0     C34355   2.928   8.454   6.700 -0.4670 -0.9280  0.9905
  996MOL0     O34356   2.893   8.419   6.571 -0.2848  0.1805 -0.1262
  996MOL0     C34357   2.930   8.513   6.478 -0.6184 -0.2583 -0.3156
  996MOL0     C34358   2.837   8.578   6.393 -0.2399 -0.3190 -0.2399
  996MOL0     C34359   2.881   8.675   6.307 -0.3895  0.0250 -0.1432
  996MOL0     C34360   3.014   8.721   6.300 -0.1208 -0.1596 -0.7876
  996MOL0     O34361   3.047   8.811   6.201  0.2750  0.8652 -0.1853
  996MOL0     C34362   3.136   8.920   6.242 -0.5569  0.3191 -0.3319
  996MOL0     C34363   3.208   8.990   6.124  0.0096  0.9557 -0.2868
  996MOL0     C34364   3.282   8.898   6.016 -0.5877  0.1998 -0.0772
  996MOL0     C34365   3.422   8.850   6.078 -0.6054  0.6960 -0.3257
  996MOL0     C34366   3.534   8.810   5.977  0.5851 -0.3767  1.1978
  996MOL0     C34367   3.629   8.927   5.951 -0.2461 -0.2995  0.8733
  996MOL0     C34368   3.738   8.916   5.830  0.1078  0.9671 -0.7830
  996MOL0     C34369   3.808   9.044   5.802 -1.0405  0.0116 -0.4082
  996MOL0    Cl34370   3.970   9.013   5.714 -0.2896 -0.3077 -0.0925
  996MOL0     C34371   3.105   8.648   6.380 -0.7206 -0.0643  0.5121
  996MOL0     C34372   3.065   8.548   6.463  0.1908  0.0118  0.0633
  996MOL0     O34373   2.960   8.574   6.733 -0.0866  0.6213  0.0364
  996MOL0     C34374   2.875   8.224   6.774 -0.2424 -0.2318  0.1889
  996MOL0     C34375   2.884   8.118   6.856  0.3199 -0.7549 -0.1731
  996MOL0     N34376   3.379   7.782   7.534 -1.0117  0.8463 -0.0197
  996MOL0     N34377   3.399   7.718   7.641  0.0427  0.6786  0.5143
  996MOL0     C34378   2.800   7.491   7.193 -0.0767  0.3784 -0.0091
  996MOL0     C34379   2.704   7.584   7.135  0.0545 -0.1200 -1.2580
  996MOL0     C34380   2.385   7.918   7.104 -0.0335 -0.5539 -0.4484
  996MOL0     C34381   2.264   7.859   7.068  0.0080 -0.4794  0.0259
  996MOL0     C34382   2.155   7.938   7.048 -0.1194 -0.3975  0.1441
  996MOL0     C34383   2.155   8.074   7.066 -0.2591 -0.3922  0.0766
  996MOL0     O34384   2.035   8.134   7.047 -0.3940 -0.1627 -0.1637
  996MOL0     C34385   2.036   8.228   6.935 -0.3960 -0.3997 -0.2287
  996MOL0     C34386   1.892   8.264   6.879 -0.4797 -0.1805  1.1951
  996MOL0     C34387   1.809   8.316   6.999  0.5280  0.1026 -0.1675
  996MOL0     C34388   1.887   8.413   7.095  0.2311 -0.5423 -0.0826
  996MOL0     C34389   1.799   8.503   7.167 -0.0692 -0.1504 -0.8030
  996MOL0     C34390   1.727   8.592   7.218  0.2398 -0.9982  0.3106
  996MOL0     C34391   2.274   8.134   7.099 -0.9623  0.0731 -0.4850
  996MOL0     C34392   2.392   8.063   7.103 -0.3038  0.2193 -1.0752
  996MOL0     H34393   2.464   7.537   7.369 -1.5002 -0.8391 -0.5747
  996MOL0     H34394   2.635   7.405   7.465  3.3974 -1.5291 -1.3803
  996MOL0     H34395   2.997   7.259   7.275  1.7667 -0.4484  0.0307
  996MOL0     H34396   3.033   7.418   7.337 -0.8339  0.0857 -0.8356
  996MOL0     H34397   3.016   7.149   7.490 -2.0117  0.7806  2.2697
  996MOL0     H34398   3.154   7.249   7.442  0.4786  1.9948 -0.2450
  996MOL0     H34399   3.076   7.436   7.570 -1.4465  1.0265  0.3238
  996MOL0     H34400   2.927   7.349   7.626  0.7347 -1.2000  2.6508
  996MOL0     H34401   3.057   7.196   7.755 -0.8319  1.2501  3.3945
  996MOL0     H34402   3.208   7.263   7.685  0.4295  0.5661 -1.3369
  996MOL0     H34403   3.008   7.444   7.811 -2.7269 -1.6390  2.0462
  996MOL0     H34404   3.097   7.340   7.924 -0.6476 -2.1849 -1.1909
  996MOL0     H34405   3.312   7.432   7.871  1.8257  1.0336 -3.6393
  996MOL0     H34406   3.251   7.503   7.721 -0.3712  0.9433  0.6170
  996MOL0     H34407   3.087   7.637   7.880  0.0135  0.8587  0.1588
  996MOL0     H34408   3.194   7.597   8.013  1.3661  1.1474 -0.5511
  996MOL0     H34409   3.381   7.705   7.907 -0.3296 -1.7314 -0.6845
  996MOL0     H34410   3.253   7.823   7.916 -0.8746  2.0988 -3.7840
  996MOL0     H34411   3.100   7.846   7.692 -1.5588  0.6505 -3.8128
  996MOL0     H34412   3.174   8.020   7.410 -1.3615  0.3391 -0.6045
  996MOL0     H34413   3.280   7.891   7.338  1.0337  0.4694  1.4318
  996MOL0     H34414   2.995   7.853   7.451  0.6730 -1.7167  0.2816
  996MOL0     H34415   3.080   7.737   7.347  0.9905  0.5314 -0.9072
  996MOL0     H34416   2.911   7.812   7.211  0.5560 -0.6180 -1.5918
  996MOL0     H34417   3.076   7.836   7.161  2.9433 -0.2614  1.9526
  996MOL0     H34418   3.060   8.072   7.205  0.0339 -0.1352 -0.3902
  996MOL0     H34419   2.892   8.057   7.267  1.5982  0.2647  0.7259
  996MOL0     H34420   3.026   8.261   7.129 -0.2874  0.4603  0.3032
  996MOL0     H34421   3.052   8.494   7.109 -0.4781  3.0642 -0.2932
  996MOL0     H34422   3.112   8.540   6.952  2.5267 -1.7853  0.9255
  996MOL0     H34423   2.937   8.564   6.998 -1.1126 -2.9275  0.1490
  996MOL0     H34424   2.730   8.560   6.396 -0.2100 -0.3742  0.8252
  996MOL0     H34425   2.808   8.720   6.241  1.3274 -0.7252 -2.7038
  996MOL0     H34426   3.083   8.999   6.296  0.2247  2.5557 -2.6334
  996MOL0     H34427   3.221   8.882   6.300 -0.1549  0.9506 -0.5015
  996MOL0     H34428   3.131   9.032   6.059  0.5951  1.4663 -0.6624
  996MOL0     H34429   3.275   9.062   6.173  0.7931  1.1410 -1.6028
  996MOL0     H34430   3.313   8.962   5.933  2.1843 -1.7650 -0.6934
  996MOL0     H34431   3.228   8.809   5.983  1.8620 -0.5993 -2.2175
  996MOL0     H34432   3.469   8.928   6.139  1.2944  1.1797 -2.3082
  996MOL0     H34433   3.396   8.762   6.138 -0.1326  0.9370  0.2481
  996MOL0     H34434   3.483   8.790   5.883  0.5746 -0.7624  1.2867
  996MOL0     H34435   3.598   8.726   6.006  1.2197 -0.4448 -0.3201
  996MOL0     H34436   3.561   9.010   5.930 -0.0119 -0.8150 -2.3767
  996MOL0     H34437   3.685   8.942   6.044  0.3880 -1.4686  0.7015
  996MOL0     H34438   3.702   8.869   5.737  0.6288 -1.9361  0.3603
  996MOL0     H34439   3.812   8.846   5.868 -0.4741 -0.8256 -2.7230
  996MOL0     H34440   3.834   9.091   5.897  2.9853 -3.2929  0.4053
  996MOL0     H34441   3.742   9.115   5.751  0.1840  2.8996  1.7596
  996MOL0     H34442   3.211   8.668   6.365 -0.6226 -1.1663 -0.4058
  996MOL0     H34443   3.137   8.499   6.527 -0.9846 -0.6234  0.9512
  996MOL0     H34444   2.831   8.206   6.677  1.5673  0.5134 -0.8071
  996MOL0     H34445   2.836   8.025   6.830 -0.3783 -1.0394  1.8969
  996MOL0     H34446   2.889   7.466   7.135 -1.7832 -1.4120 -2.0293
  996MOL0     H34447   2.746   7.637   7.050  0.6042 -0.2831 -1.0954
  996MOL0     H34448   2.258   7.753   7.047 -1.4052  0.1160 -3.1350
  996MOL0     H34449   2.062   7.899   7.006 -2.0914  1.5478  2.4277
  996MOL0     H34450   2.096   8.312   6.971  2.8233 -2.9636  0.8429
  996MOL0     H34451   2.091   8.185   6.851 -1.3961 -3.4692  0.5454
  996MOL0     H34452   1.839   8.180   6.834  1.7876 -3.4287  4.0803
  996MOL0     H34453   1.897   8.344   6.805 -0.4423  1.3972  2.8249
  996MOL0     H34454   1.782   8.231   7.062 -1.1636  1.9011  1.7093
  996MOL0     H34455   1.720   8.371   6.964  0.2603 -0.3733 -0.2394
  996MOL0     H34456   1.957   8.475   7.039  0.3539 -1.2871 -0.7622
  996MOL0     H34457   1.945   8.356   7.169 -2.7725 -3.6930  0.1344
  996MOL0     H34458   1.660   8.657   7.269 -2.2195 -1.8865 -1.6046
  996MOL0     H34459   2.259   8.241   7.107 -3.6268 -0.3202  1.3604
  996MOL0     H34460   2.486   8.106   7.138 -0.9008 -0.7475  1.9579
  997MOL0     O34461   5.561  10.536   4.768  0.0927  0.2081 -0.1340
  997MOL0     C34462   5.443  10.545   4.778 -0.2009 -0.5394  0.3062
  997MOL0     O34463   5.367  10.659   4.749  0.7802  0.2335 -0.4594
  997MOL0     C34464   5.422  10.762   4.672 -0.0112 -0.3035  1.0172
  997MOL0     C34465   5.552  10.813   4.670 -0.5829  0.1279  0.5774
  997MOL0     C34466   5.586  10.929   4.611 -0.4342  0.5732  0.6236
  997MOL0     C34467   5.492  10.999   4.537  0.7007 -0.0197  0.1663
  997MOL0     O34468   5.528  11.116   4.470  0.2749 -0.1451  0.5664
  997MOL0     C34469   5.613  11.213   4.533  0.0294  0.1091  0.0892
  997MOL0     C34470   5.631  11.345   4.445 -0.2653 -1.2475  0.4240
  997MOL0     C34471   5.534  11.462   4.489  0.6808 -0.2096  0.0642
  997MOL0     C34472   5.534  11.568   4.375 -0.2070  0.1032 -0.3657
  997MOL0     C34473   5.435  11.684   4.390 -0.1669 -0.0662 -0.1927
  997MOL0     C34474   5.458  11.792   4.295  0.0728 -0.3420 -0.6844
  997MOL0     C34475   5.348  11.906   4.290  0.3699  0.4881 -0.4276
  997MOL0     C34476   5.399  12.027   4.214 -0.6874 -0.1756 -0.5979
  997MOL0     N34477   5.497  12.089   4.312  0.7113  0.3624 -0.5883
  997MOL0     C34478   5.628  12.077   4.286  0.1107  1.0033  0.1605
  997MOL0     C34479   5.688  12.097   4.398 -0.0698  0.7186 -0.5685
  997MOL0     C34480   5.833  12.076   4.421 -0.1443  0.9878 -0.2569
  997MOL0     C34481   5.881  11.932   4.422 -0.4036 -0.1146 -0.7685
  997MOL0     C34482   5.847  11.848   4.541  0.5800 -0.0262  0.5140
  997MOL0     C34483   5.892  11.703   4.518  0.5967 -0.5068 -0.3131
  997MOL0     O34484   5.844  11.630   4.632  0.1235  0.5867 -0.2856
  997MOL0     C34485   5.895  11.502   4.640 -0.4555 -0.0685  0.5851
  997MOL0     C34486   5.826  11.415   4.725  1.2380  0.1466 -0.0947
  997MOL0     C34487   5.864  11.282   4.748 -0.2709 -0.4978 -0.7330
  997MOL0     C34488   5.769  11.199   4.842 -1.4775  0.0351 -0.3901
  997MOL0     C34489   5.975  11.232   4.684  0.4270  0.2634  0.5488
  997MOL0     C34490   6.020  11.092   4.693  1.2295  0.0526  0.8424
  997MOL0     O34491   5.934  11.002   4.734 -0.1073  0.5990 -0.5864
  997MOL0     C34492   5.987  10.879   4.764  0.3815 -0.0401  0.7897
  997MOL0     C34493   5.946  10.768   4.690  0.3695 -0.5170  0.2973
  997MOL0     C34494   5.990  10.638   4.723 -1.0931 -0.1051  0.9333
  997MOL0     C34495   6.081  10.613   4.827 -0.6576  0.2509  0.4626
  997MOL0     O34496   6.137  10.488   4.843  0.2697  0.7505  0.3168
  997MOL0     C34497   6.275  10.474   4.869  0.2871 -0.0790 -0.3056
  997MOL0     C34498   6.298  10.349   4.955  0.6918  0.1850 -0.4342
  997MOL0     C34499   6.226  10.360   5.093 -0.2844  0.4046 -0.1162
  997MOL0     C34500   6.272  10.241   5.178  0.4069  0.1856  0.4775
  997MOL0     C34501   6.190  10.198   5.299  0.1487  0.4716  0.3299
  997MOL0     C34502   6.199  10.281   5.428 -0.7545  0.2856  1.0779
  997MOL0     C34503   6.127  10.220   5.543 -0.2107 -0.1275 -0.9571
  997MOL0     C34504   6.157  10.313   5.661  0.3188  0.2831 -0.4615
  997MOL0    Cl34505   6.021  10.309   5.785  0.2629  0.4320  0.5688
  997MOL0     C34506   6.114  10.728   4.895 -0.1139  0.5987  0.3448
  997MOL0     C34507   6.073  10.856   4.866 -0.1962 -0.8592 -0.6525
  997MOL0     O34508   6.137  11.064   4.659  0.0485  0.1312  0.2639
  997MOL0     C34509   6.051  11.324   4.610  0.1788  0.2018  0.3898
  997MOL0     C34510   6.011  11.454   4.586  0.6120 -0.3149 -0.8831
  997MOL0     N34511   5.596  12.122   4.495 -0.3587 -0.4801  0.2258
  997MOL0     N34512   5.475  12.131   4.438 -0.4083  0.0628  0.0637
  997MOL0     C34513   5.356  10.955   4.529 -0.4750 -0.6291 -0.3064
  997MOL0     C34514   5.325  10.839   4.601  0.0955  0.2083  0.6781
  997MOL0     C34515   5.364  10.425   4.826  0.3558 -1.3826  0.6392
  997MOL0     C34516   5.431  10.313   4.881  0.4983 -0.5661 -0.2712
  997MOL0     C34517   5.351  10.204   4.925 -0.2605 -0.3411  0.1912
  997MOL0     C34518   5.212  10.202   4.907 -0.6838  0.8635 -0.4757
  997MOL0     O34519   5.143  10.088   4.955 -0.0429 -0.2510 -0.0458
  997MOL0     C34520   5.004  10.061   4.900 -0.5573  0.0581 -1.2177
  997MOL0     C34521   4.967   9.924   4.957  0.5736  0.0759  0.1822
  997MOL0     C34522   5.044   9.808   4.884 -0.1016 -0.4691  1.0743
  997MOL0     C34523   5.062   9.692   4.989  0.1374  0.0566 -0.0069
  997MOL0     C34524   5.159   9.601   4.935  0.0308  0.2916 -0.3972
  997MOL0     C34525   5.262   9.541   4.895  0.5556 -0.6050 -0.4911
  997MOL0     C34526   5.148  10.322   4.866 -0.7536 -0.5231  0.5946
  997MOL0     C34527   5.227  10.430   4.817 -0.0575 -0.4038 -0.5504
  997MOL0     H34528   5.632  10.764   4.723  0.0052  1.5432  1.0569
  997MOL0     H34529   5.689  10.962   4.609  0.0439 -0.9007 -0.4476
  997MOL0     H34530   5.568  11.246   4.627 -0.4358  0.5738 -0.2898
  997MOL0     H34531   5.710  11.173   4.564 -0.0326  1.1694  1.7917
  997MOL0     H34532   5.731  11.381   4.469 -2.7854  4.0968  5.0614
  997MOL0     H34533   5.622  11.317   4.339 -0.6699  2.7535 -0.7426
  997MOL0     H34534   5.431  11.426   4.492  1.2365 -1.9025  0.1503
  997MOL0     H34535   5.554  11.497   4.590  2.1753  0.3248 -0.3797
  997MOL0     H34536   5.638  11.604   4.373  0.0978 -0.7434 -2.5815
  997MOL0     H34537   5.523  11.525   4.276  0.6530  1.8838 -1.2906
  997MOL0     H34538   5.331  11.650   4.383 -0.6418  1.6832 -3.8954
  997MOL0     H34539   5.451  11.728   4.489  0.8186 -1.2828  0.2166
  997MOL0     H34540   5.551  11.836   4.330 -1.1395  0.3130  1.9369
  997MOL0     H34541   5.476  11.751   4.195  1.0238  1.6496 -1.3651
  997MOL0     H34542   5.263  11.868   4.233  1.0082 -2.0373  0.1805
  997MOL0     H34543   5.329  11.932   4.394  1.3044  0.4534 -0.2417
  997MOL0     H34544   5.312  12.093   4.200 -3.3911 -2.7019  2.6883
  997MOL0     H34545   5.440  12.011   4.114 -1.0530  0.2276 -0.8191
  997MOL0     H34546   5.683  12.056   4.195  0.9320  0.8308  0.6867
  997MOL0     H34547   5.885  12.132   4.343 -2.2455  2.0014 -1.0012
  997MOL0     H34548   5.854  12.129   4.515 -0.8723 -0.3007  0.6650
  997MOL0     H34549   5.989  11.924   4.411 -0.3836 -0.8908 -0.0681
  997MOL0     H34550   5.841  11.875   4.338 -1.6101  1.0540 -1.0365
  997MOL0     H34551   5.742  11.868   4.565  1.1991  3.0248  1.0687
  997MOL0     H34552   5.902  11.883   4.629  0.8146 -1.1783  0.8426
  997MOL0     H34553   6.001  11.703   4.509  0.6304 -0.0506  0.0445
  997MOL0     H34554   5.854  11.664   4.424  3.9617 -1.1037 -1.5597
  997MOL0     H34555   5.731  11.451   4.764 -1.2904  0.0932 -5.3329
  997MOL0     H34556   5.707  11.272   4.894 -1.0829 -0.5567  0.9646
  997MOL0     H34557   5.707  11.129   4.785 -0.4694 -1.2990  0.0864
  997MOL0     H34558   5.824  11.140   4.916 -1.9265 -1.2837 -1.0626
  997MOL0     H34559   5.872  10.771   4.610  3.1918 -1.5612 -2.5715
  997MOL0     H34560   5.965  10.553   4.660 -0.6619 -0.0121  0.6381
  997MOL0     H34561   6.330  10.464   4.774  0.3546 -1.5110 -0.1404
  997MOL0     H34562   6.302  10.558   4.932 -1.3610 -0.4327  0.9105
  997MOL0     H34563   6.268  10.258   4.902  1.0549 -0.8042  0.9931
  997MOL0     H34564   6.405  10.346   4.973  0.9335 -1.2435 -1.9396
  997MOL0     H34565   6.118  10.348   5.080 -0.1959 -0.6094 -0.0092
  997MOL0     H34566   6.247  10.452   5.149 -1.2017 -1.3386  3.3834
  997MOL0     H34567   6.283  10.151   5.117  1.5524  1.7691 -1.8142
  997MOL0     H34568   6.372  10.263   5.219  1.2669 -0.0344 -1.3966
  997MOL0     H34569   6.214  10.094   5.322 -1.3879 -0.0803 -0.3902
  997MOL0     H34570   6.085  10.193   5.267  0.3248 -1.4210 -0.0356
  997MOL0     H34571   6.302  10.295   5.464  0.0099  2.1440 -1.5599
  997MOL0     H34572   6.149  10.376   5.407 -0.1935 -0.2317 -3.4712
  997MOL0     H34573   6.168  10.124   5.574 -2.2396 -0.3938  1.1397
  997MOL0     H34574   6.019  10.213   5.530 -0.3495 -0.8315  0.4601
  997MOL0     H34575   6.161  10.419   5.631 -2.1671  0.0453 -1.9509
  997MOL0     H34576   6.260  10.293   5.690  0.1402  0.2703  0.1666
  997MOL0     H34577   6.181  10.715   4.980  1.9471 -1.2673 -1.4201
  997MOL0     H34578   6.116  10.930   4.933 -1.4537 -1.1563  0.5311
  997MOL0     H34579   6.138  11.290   4.555 -1.5096  1.1625 -3.1735
  997MOL0     H34580   6.061  11.505   4.504 -1.5005  1.6120 -1.0864
  997MOL0     H34581   5.286  11.019   4.476  0.0130 -0.9304 -1.3472
  997MOL0     H34582   5.227  10.793   4.603  1.7220 -3.7144  0.1729
  997MOL0     H34583   5.539  10.314   4.891  0.4613 -2.8112  1.1185
  997MOL0     H34584   5.395  10.113   4.965 -0.1474 -1.4456 -2.2340
  997MOL0     H34585   4.945  10.136   4.954  1.6452  0.8268  0.2860
  997MOL0     H34586   5.011  10.069   4.792 -0.7588 -0.1970 -1.2502
  997MOL0     H34587   4.859   9.913   4.942  1.1775 -3.6553 -2.9928
  997MOL0     H34588   4.978   9.920   5.066 -1.4759 -1.1617  0.4080
  997MOL0     H34589   5.147   9.833   4.856  0.0720 -0.9937  1.2323
  997MOL0     H34590   4.999   9.783   4.788  0.7374 -0.0732  0.5711
  997MOL0     H34591   4.976   9.630   5.016  2.5498 -2.0412  3.7492
  997MOL0     H34592   5.093   9.738   5.083  0.2409 -0.7326  0.3435
  997MOL0     H34593   5.339   9.471   4.868  0.5994 -0.7829  0.0905
  997MOL0     H34594   5.040  10.328   4.865 -0.7475 -0.3133  1.1554
  997MOL0     H34595   5.172  10.520   4.793 -1.5473 -1.0205  0.4269
  998MOL0     O34596   9.059   5.072   3.895  0.4467  0.2148 -0.2265
  998MOL0     C34597   9.139   5.056   3.807  0.1566  0.7927  0.5787
  998MOL0     O34598   9.238   5.142   3.789 -0.2292 -0.1106  0.8062
  998MOL0     C34599   9.225   5.270   3.829  0.8149  0.0824  0.0562
  998MOL0     C34600   9.239   5.298   3.960 -0.5189 -1.0952 -0.8978
  998MOL0     C34601   9.230   5.432   4.010  0.1823 -0.7511 -0.7545
  998MOL0     C34602   9.198   5.538   3.932 -0.0217  0.7682  0.4797
  998MOL0     O34603   9.197   5.666   3.964  0.2757  0.1427 -0.2705
  998MOL0     C34604   9.282   5.723   4.072  0.0065  0.4889  0.5037
  998MOL0     C34605   9.196   5.747   4.193  0.3531  0.8391  0.3319
  998MOL0     C34606   9.109   5.869   4.172 -0.0909  0.2013  0.2098
  998MOL0     C34607   9.047   5.918   4.300  0.0568 -0.0386 -0.1169
  998MOL0     C34608   8.958   6.044   4.290 -0.7090  0.1646  0.6882
  998MOL0     C34609   8.832   6.041   4.204 -0.5984  0.5846  0.5329
  998MOL0     C34610   8.725   6.135   4.237  0.2323  0.4657 -0.4109
  998MOL0     C34611   8.735   6.287   4.232  0.3157  0.2473  0.3064
  998MOL0     N34612   8.762   6.337   4.094 -0.0472 -0.5974  0.3233
  998MOL0     C34613   8.672   6.348   3.998  0.5312 -0.5045  0.6146
  998MOL0     C34614   8.744   6.395   3.897  1.2839 -0.9220 -0.3261
  998MOL0     C34615   8.681   6.410   3.762 -0.5372  0.9772  0.3695
  998MOL0     C34616   8.649   6.274   3.696 -0.5628 -0.2190 -0.5541
  998MOL0     C34617   8.690   6.271   3.551  0.1052  0.0614 -0.8547
  998MOL0     C34618   8.587   6.340   3.461  0.1960  0.1280  0.0568
  998MOL0     O34619   8.497   6.241   3.404  0.3248  0.1400 -0.5905
  998MOL0     C34620   8.395   6.277   3.322 -0.8998 -0.9544 -0.9351
  998MOL0     C34621   8.367   6.411   3.276  0.2136  0.6438 -0.8834
  998MOL0     C34622   8.250   6.439   3.205  0.8032  0.2806  0.3693
  998MOL0     C34623   8.245   6.578   3.165 -0.9935  0.2620  0.5918
  998MOL0     C34624   8.157   6.333   3.184  0.0138  0.6088  0.2000
  998MOL0     C34625   8.029   6.354   3.115 -0.3107  0.6497  0.7008
  998MOL0     O34626   7.966   6.244   3.070  0.4424 -0.3383 -0.6725
  998MOL0     C34627   7.847   6.265   3.005  0.4271  0.1566  0.4131
  998MOL0     C34628   7.845   6.285   2.866 -0.3572  0.1924 -0.8053
  998MOL0     C34629   7.719   6.285   2.799 -0.3536  0.6876 -0.1992
  998MOL0     C34630   7.601   6.257   2.874 -0.1709 -0.6106  0.1563
  998MOL0     O34631   7.472   6.241   2.812  1.1032 -0.1968  0.2386
  998MOL0     C34632   7.452   6.110   2.750 -0.4057 -0.7643  0.7092
  998MOL0     C34633   7.395   6.107   2.617  0.1293 -0.8021  0.6823
  998MOL0     C34634   7.463   6.200   2.519  0.9092 -0.1168  0.1132
  998MOL0     C34635   7.365   6.234   2.417  0.5408 -0.2087  0.8601
  998MOL0     C34636   7.433   6.293   2.294  0.5623 -0.0709 -0.1225
  998MOL0     C34637   7.359   6.269   2.161 -0.9343  0.3135 -0.1408
  998MOL0     C34638   7.345   6.128   2.116 -1.0668 -0.1993 -0.5569
  998MOL0     C34639   7.285   6.114   1.972 -0.8111  0.8447 -0.0128
  998MOL0    Cl34640   7.389   6.175   1.839 -0.1325 -0.2345  0.3339
  998MOL0     C34641   7.602   6.239   3.015  0.0977  0.0637  0.7787
  998MOL0     C34642   7.727   6.251   3.078 -1.0020  0.7805 -0.1774
  998MOL0     O34643   7.996   6.469   3.089 -0.1461  0.9264 -0.4314
  998MOL0     C34644   8.186   6.210   3.228 -0.8484 -0.1326 -0.1082
  998MOL0     C34645   8.300   6.181   3.296 -0.3184 -0.2305 -0.3241
  998MOL0     N34646   8.873   6.420   3.927  0.8352 -0.0538  0.6085
  998MOL0     N34647   8.885   6.385   4.048 -0.6779 -0.6627  0.0490
  998MOL0     C34648   9.181   5.509   3.795  0.0366  0.3555 -0.2464
  998MOL0     C34649   9.197   5.379   3.741  0.2341  0.3212  0.1602
  998MOL0     C34650   9.137   4.930   3.730  0.3162 -0.6085 -0.7273
  998MOL0     C34651   9.013   4.871   3.711 -0.1330 -0.2351  0.0771
  998MOL0     C34652   9.007   4.758   3.624 -0.3250 -0.4144 -0.1496
  998MOL0     C34653   9.115   4.711   3.558 -0.6177  0.4601 -0.0271
  998MOL0     O34654   9.101   4.596   3.482 -0.5321  0.1239  0.2458
  998MOL0     C34655   9.023   4.628   3.362  0.5066  0.1250  0.6796
  998MOL0     C34656   9.046   4.534   3.251  0.0973 -0.2748 -0.0362
  998MOL0     C34657   8.958   4.415   3.281 -0.5651  0.8343  0.8734
  998MOL0     C34658   8.971   4.305   3.162  0.7007 -0.5298 -0.0395
  998MOL0     C34659   8.955   4.358   3.029  0.2777 -0.8776  0.2826
  998MOL0     C34660   8.940   4.406   2.919 -0.1177  0.6230  0.6167
  998MOL0     C34661   9.230   4.772   3.580 -0.2602  0.0572 -0.6875
  998MOL0     C34662   9.251   4.872   3.676 -0.6216  0.1809 -0.8714
  998MOL0     H34663   9.255   5.227   4.040 -0.7868  3.0753  3.2771
  998MOL0     H34664   9.239   5.453   4.116 -0.5508 -2.9867 -0.1894
  998MOL0     H34665   9.363   5.654   4.097  1.5927  2.4080  0.9484
  998MOL0     H34666   9.312   5.821   4.032  0.3209  1.3214  2.6321
  998MOL0     H34667   9.136   5.658   4.215  1.9488  0.3513  3.2285
  998MOL0     H34668   9.248   5.762   4.288  1.9304 -0.5515 -0.2586
  998MOL0     H34669   9.170   5.951   4.136 -0.9747 -0.6660 -3.6701
  998MOL0     H34670   9.036   5.838   4.097  0.8245 -1.5173 -0.0275
  998MOL0     H34671   8.986   5.832   4.331  0.6247 -0.8431 -1.1347
  998MOL0     H34672   9.126   5.945   4.371  1.6584  1.2851 -2.2677
  998MOL0     H34673   8.935   6.064   4.395 -0.8730 -0.3516  0.7540
  998MOL0     H34674   9.010   6.132   4.252 -1.8782  0.7136  0.3346
  998MOL0     H34675   8.856   6.060   4.098  0.2439  1.4747  0.8653
  998MOL0     H34676   8.783   5.943   4.210  1.2279 -0.5032 -1.0223
  998MOL0     H34677   8.651   6.108   4.160  0.7094  2.0394 -1.4590
  998MOL0     H34678   8.703   6.120   4.343  1.7771  1.1191  0.0163
  998MOL0     H34679   8.799   6.335   4.307  0.0631  3.5772 -1.4293
  998MOL0     H34680   8.640   6.336   4.257  0.7042  1.3844 -0.3522
  998MOL0     H34681   8.566   6.325   4.010  0.5875 -0.5110  1.1483
  998MOL0     H34682   8.582   6.455   3.766 -1.3271 -0.5814 -0.6586
  998MOL0     H34683   8.749   6.463   3.694  1.8639 -1.9002  0.3247
  998MOL0     H34684   8.542   6.253   3.702 -1.1795  2.8124  1.1048
  998MOL0     H34685   8.710   6.194   3.739 -1.6354 -1.1207 -0.6463
  998MOL0     H34686   8.685   6.165   3.521  2.6716 -0.1493 -0.7213
  998MOL0     H34687   8.794   6.301   3.536  0.5036 -1.5682 -1.6998
  998MOL0     H34688   8.655   6.387   3.389  0.5879 -0.0757  0.2875
  998MOL0     H34689   8.532   6.410   3.524 -0.3262  0.7404 -1.0549
  998MOL0     H34690   8.436   6.493   3.294  1.3574 -0.1999 -1.2979
  998MOL0     H34691   8.202   6.584   3.064  1.2540 -2.6268 -0.6945
  998MOL0     H34692   8.184   6.632   3.237 -1.5493  2.0031 -1.0895
  998MOL0     H34693   8.347   6.615   3.157 -1.2317  0.9129  0.5147
  998MOL0     H34694   7.944   6.303   2.825  0.3497 -3.5536 -1.0729
  998MOL0     H34695   7.713   6.313   2.694 -1.3362  2.4854  0.2930
  998MOL0     H34696   7.552   6.066   2.748  0.8109  1.8083  1.4857
  998MOL0     H34697   7.381   6.056   2.813  1.3180 -4.1623 -0.0153
  998MOL0     H34698   7.406   6.007   2.574  3.3041 -1.2935  2.2964
  998MOL0     H34699   7.292   6.140   2.632  0.9158  0.9548  2.6959
  998MOL0     H34700   7.548   6.144   2.478  1.9948 -0.7263  2.9911
  998MOL0     H34701   7.496   6.294   2.565  0.9742 -0.2110  0.2600
  998MOL0     H34702   7.321   6.141   2.379  0.7341  0.1469 -0.2751
  998MOL0     H34703   7.287   6.303   2.449 -0.5385  0.5191 -2.8459
  998MOL0     H34704   7.533   6.249   2.284  1.7782  2.3810  0.4085
  998MOL0     H34705   7.455   6.396   2.323  2.0117 -0.5108  0.4578
  998MOL0     H34706   7.262   6.320   2.169 -0.5435  0.9134  1.0523
  998MOL0     H34707   7.417   6.322   2.086  0.8908 -1.2519  0.1060
  998MOL0     H34708   7.279   6.081   2.190  0.5300 -0.5338  0.7266
  998MOL0     H34709   7.441   6.077   2.126 -1.5284 -0.9175  0.3503
  998MOL0     H34710   7.190   6.168   1.972 -0.3903  1.5911 -0.7124
  998MOL0     H34711   7.257   6.009   1.958 -1.1697  0.9104  0.1967
  998MOL0     H34712   7.516   6.214   3.077 -0.1880 -1.1011 -0.0455
  998MOL0     H34713   7.745   6.231   3.183  1.7662  1.3457 -0.4642
  998MOL0     H34714   8.121   6.125   3.209 -2.5273  0.9012  0.6606
  998MOL0     H34715   8.307   6.088   3.351 -1.7116 -0.5194 -0.6000
  998MOL0     H34716   9.148   5.585   3.725 -1.7239  2.0241  2.2003
  998MOL0     H34717   9.180   5.361   3.635  2.0003  1.4818 -0.3542
  998MOL0     H34718   8.920   4.911   3.750  0.0346  2.4524 -1.9851
  998MOL0     H34719   8.916   4.702   3.606 -0.4093 -0.1454 -0.5645
  998MOL0     H34720   8.915   4.631   3.379  0.6322  1.5418  1.3723
  998MOL0     H34721   9.057   4.729   3.335  0.1108  0.2650  0.7040
  998MOL0     H34722   9.152   4.504   3.248  0.7841  2.0115 -1.3249
  998MOL0     H34723   9.015   4.570   3.153 -0.7626 -0.8727  0.0036
  998MOL0     H34724   8.855   4.453   3.285 -1.1547 -0.6351  0.3676
  998MOL0     H34725   8.987   4.367   3.374 -1.0854 -0.8909  0.1914
  998MOL0     H34726   8.906   4.218   3.178  0.1656 -0.2294 -0.5340
  998MOL0     H34727   9.073   4.268   3.167  2.0503  2.6835 -1.2821
  998MOL0     H34728   8.913   4.454   2.827  2.4126  1.4088  0.1859
  998MOL0     H34729   9.313   4.719   3.535 -0.2765  1.5370 -2.5643
  998MOL0     H34730   9.350   4.913   3.692 -0.9915  0.9196 -0.4091
  999MOL0     O34731  10.117   1.216   5.212 -0.6963  0.4005  0.6775
  999MOL0     C34732  10.010   1.238   5.252  0.4898  0.4621 -0.1876
  999MOL0     O34733   9.979   1.258   5.386  0.4436  0.1225  0.1303
  999MOL0     C34734  10.066   1.213   5.480 -0.4833  0.2999 -0.0830
  999MOL0     C34735  10.189   1.263   5.513  0.0049  0.4250  0.0671
  999MOL0     C34736  10.256   1.216   5.629 -0.3186 -1.5168 -0.8545
  999MOL0     C34737  10.207   1.119   5.710 -0.6685  0.6261  0.7230
  999MOL0     O34738  10.269   1.060   5.818 -0.8586 -0.5235 -0.4438
  999MOL0     C34739  10.415   1.056   5.814 -0.0719 -0.0509 -0.5321
  999MOL0     C34740  10.462   0.922   5.751 -0.7464  0.1339 -0.8578
  999MOL0     C34741  10.615   0.933   5.737 -0.2180 -0.0032 -0.1142
  999MOL0     C34742  10.669   0.842   5.627  0.4066  0.3974  0.2333
  999MOL0     C34743  10.819   0.889   5.603  1.2041  0.1428 -0.2035
  999MOL0     C34744  10.880   0.796   5.494 -0.1790 -0.1192 -1.1085
  999MOL0     C34745  11.020   0.858   5.449 -0.1250 -0.4468 -0.6356
  999MOL0     C34746  11.100   0.774   5.355  0.0708  0.2800 -0.1235
  999MOL0     N34747  11.160   0.652   5.413 -0.3317 -0.1193  0.0158
  999MOL0     C34748  11.215   0.638   5.537 -1.2176  0.9064 -0.6470
  999MOL0     C34749  11.234   0.503   5.557  1.0211 -0.6432  0.4579
  999MOL0     C34750  11.305   0.434   5.669  0.1763 -0.0261 -0.1837
  999MOL0     C34751  11.207   0.384   5.772  0.2767 -0.0270 -0.2827
  999MOL0     C34752  11.133   0.254   5.718  0.6262  0.4302 -0.3133
  999MOL0     C34753  11.007   0.221   5.803  0.6284  0.5661  0.2913
  999MOL0     O34754  10.913   0.127   5.739  0.2504 -0.7611  0.8543
  999MOL0     C34755  10.791   0.180   5.704 -1.3907  0.6033 -0.7808
  999MOL0     C34756  10.685   0.103   5.738 -0.5287  0.5098  0.0423
  999MOL0     C34757  10.558   0.137   5.703  0.1370 -0.2529  0.0837
  999MOL0     C34758  10.457   0.022   5.745 -0.7168 -0.2235 -0.2250
  999MOL0     C34759  10.532   0.257   5.634 -0.6541 -0.5245  0.1724
  999MOL0     C34760  10.406   0.302   5.603  0.1173  0.2395  0.2313
  999MOL0     O34761  10.295   0.246   5.647 -0.1015  0.0739 -0.0669
  999MOL0     C34762  10.172   0.293   5.617  0.1414  0.7368  0.5721
  999MOL0     C34763  10.106   0.339   5.724  0.1576 -0.7686  0.0282
  999MOL0     C34764   9.968   0.370   5.718 -0.3697 -0.0769 -0.3636
  999MOL0     C34765   9.908   0.362   5.594  0.6422  0.4583 -0.2054
  999MOL0     O34766   9.782   0.407   5.567  0.4401  0.1220  0.8827
  999MOL0     C34767   9.675   0.320   5.614 -0.3678  0.4442 -1.0661
  999MOL0     C34768   9.574   0.284   5.499 -0.3062 -0.0788  0.2851
  999MOL0     C34769   9.473   0.404   5.481  0.3690  0.6552 -0.2604
  999MOL0     C34770   9.402   0.378   5.351  1.0244  0.3158 -0.2333
  999MOL0     C34771   9.296   0.491   5.310  0.5566  0.6089  0.7293
  999MOL0     C34772   9.229   0.467   5.165 -0.3410  0.8898 -0.5035
  999MOL0     C34773   9.167   0.591   5.110  0.0975 -0.4470 -0.5929
  999MOL0     C34774   9.141   0.571   4.963 -0.2471 -0.1121  0.1329
  999MOL0    Cl34775   9.296   0.551   4.879 -0.0931  0.2982  0.1984
  999MOL0     C34776   9.972   0.305   5.484 -0.2177  0.0829 -0.3464
  999MOL0     C34777  10.113   0.275   5.491 -0.2465  0.0897  0.2212
  999MOL0     O34778  10.403   0.399   5.527  0.9616 -1.1878 -0.0575
  999MOL0     C34779  10.644   0.339   5.598 -0.3180 -0.2926 -0.3193
  999MOL0     C34780  10.770   0.299   5.643 -0.1804 -0.7627  0.2948
  999MOL0     N34781  11.184   0.440   5.439 -0.6732  0.6404 -0.8032
  999MOL0     N34782  11.143   0.533   5.352  0.1762  0.7706 -0.1824
  999MOL0     C34783  10.085   1.063   5.669 -0.4057 -0.7615  0.2089
  999MOL0     C34784  10.016   1.113   5.563  1.1509  0.4917 -0.1564
  999MOL0     C34785   9.892   1.242   5.164 -0.1748  0.4626 -0.0639
  999MOL0     C34786   9.765   1.273   5.216 -0.0364  0.5020  0.2128
  999MOL0     C34787   9.655   1.261   5.139 -0.0729  0.5695 -0.9022
  999MOL0     C34788   9.667   1.223   5.003 -0.5735 -0.2398 -0.0326
  999MOL0     O34789   9.554   1.221   4.927  0.4964  0.9162  0.9496
  999MOL0     C34790   9.521   1.094   4.863 -0.4032 -0.4844 -0.9491
  999MOL0     C34791   9.491   1.106   4.720 -0.3750 -0.7443  0.7371
  999MOL0     C34792   9.609   1.072   4.633 -0.0171  0.3876  0.4535
  999MOL0     C34793   9.578   1.088   4.482 -0.0928  0.1527  0.0281
  999MOL0     C34794   9.514   0.965   4.436 -0.2368  0.9409  0.2931
  999MOL0     C34795   9.479   0.858   4.388  0.2127  0.7606  0.9153
  999MOL0     C34796   9.792   1.196   4.945 -0.7127  0.4540  0.3730
  999MOL0     C34797   9.906   1.200   5.028  0.7915  0.6730 -0.5909
  999MOL0     H34798  10.239   1.332   5.446  0.1052 -1.6057 -2.1175
  999MOL0     H34799  10.349   1.268   5.649 -0.8215 -1.6899  2.6041
  999MOL0     H34800  10.462   1.145   5.771 -2.0100  1.8613  1.0783
  999MOL0     H34801  10.434   1.061   5.922 -0.7315  1.2743 -0.4498
  999MOL0     H34802  10.442   0.839   5.819 -0.0202  0.8854  0.2892
  999MOL0     H34803  10.411   0.902   5.656  0.1406  0.4312 -1.4131
  999MOL0     H34804  10.658   1.031   5.713  1.3535 -0.3850  0.9782
  999MOL0     H34805  10.666   0.903   5.829  0.5536  0.6359 -0.3183
  999MOL0     H34806  10.656   0.739   5.660 -2.9254  0.6496  0.0431
  999MOL0     H34807  10.620   0.871   5.534  1.9031  1.7332 -0.2016
  999MOL0     H34808  10.808   0.994   5.574 -0.2134  0.4670  1.3412
  999MOL0     H34809  10.870   0.881   5.699 -3.4174  0.4989  2.5698
  999MOL0     H34810  10.888   0.692   5.528  0.7255  0.0778 -0.6694
  999MOL0     H34811  10.813   0.798   5.408  1.9785 -1.5042 -2.9310
  999MOL0     H34812  11.007   0.949   5.389 -0.2871 -1.2517 -1.8827
  999MOL0     H34813  11.085   0.895   5.528 -2.6262  4.7716 -0.6182
  999MOL0     H34814  11.191   0.826   5.323  0.5198  0.9249  2.0303
  999MOL0     H34815  11.029   0.741   5.279 -1.2578 -0.1065  1.2334
  999MOL0     H34816  11.244   0.716   5.607  4.0209 -2.0627  1.0694
  999MOL0     H34817  11.367   0.352   5.632  0.6103  0.9458 -1.6474
  999MOL0     H34818  11.371   0.508   5.715  1.6710 -1.8275  0.7275
  999MOL0     H34819  11.144   0.468   5.801 -2.2150 -0.4147 -3.8675
  999MOL0     H34820  11.259   0.348   5.861 -0.2159  1.8578  0.8175
  999MOL0     H34821  11.203   0.171   5.707  1.1720  0.7491  0.6417
  999MOL0     H34822  11.088   0.288   5.624  0.0844  0.0194 -0.2104
  999MOL0     H34823  10.960   0.318   5.822  2.8815  2.0737 -1.4077
  999MOL0     H34824  11.040   0.176   5.897 -2.8823  1.8491  2.3399
  999MOL0     H34825  10.704   0.006   5.782 -0.6224  1.6793  2.8403
  999MOL0     H34826  10.387  -0.005   5.666 -1.2715  1.3906 -0.3324
  999MOL0     H34827  10.501  -0.073   5.776 -0.7666 -0.3961 -0.6870
  999MOL0     H34828  10.408   0.048   5.840  1.2497 -0.9085  1.0584
  999MOL0     H34829  10.156   0.377   5.812 -0.5772 -0.6144  0.3860
  999MOL0     H34830   9.915   0.411   5.804  0.2227  2.1777 -0.9940
  999MOL0     H34831   9.709   0.226   5.660 -1.9239 -0.3235 -1.4075
  999MOL0     H34832   9.620   0.372   5.692  0.3012  1.9027 -1.5346
  999MOL0     H34833   9.636   0.264   5.412 -1.2897 -2.3106  0.0508
  999MOL0     H34834   9.520   0.192   5.520  0.6007 -0.9086 -0.8844
  999MOL0     H34835   9.532   0.497   5.477  2.2144  0.0190  4.9383
  999MOL0     H34836   9.399   0.403   5.561  1.7953  1.0010  1.0997
  999MOL0     H34837   9.482   0.388   5.277  1.1093  2.7690  0.1259
  999MOL0     H34838   9.351   0.282   5.342  0.6764  0.3650  1.0128
  999MOL0     H34839   9.346   0.589   5.319  0.6788  0.6265 -0.0475
  999MOL0     H34840   9.210   0.491   5.377  0.0675 -0.3405  0.1233
  999MOL0     H34841   9.303   0.429   5.094  0.8088 -1.1712  1.6289
  999MOL0     H34842   9.149   0.393   5.156  0.3876  0.1493 -1.0266
  999MOL0     H34843   9.228   0.679   5.131 -0.3348 -0.2426 -0.2019
  999MOL0     H34844   9.072   0.599   5.162  2.2407 -2.5621  4.2856
  999MOL0     H34845   9.094   0.667   4.938  2.7792  1.4074 -0.1225
  999MOL0     H34846   9.085   0.478   4.945 -0.5286  0.3095 -1.3105
  999MOL0     H34847   9.920   0.277   5.393  0.8322 -2.2068 -0.3082
  999MOL0     H34848  10.157   0.238   5.399 -2.9745  1.1563 -1.6641
  999MOL0     H34849  10.646   0.428   5.537  1.3167 -1.3462 -1.9018
  999MOL0     H34850  10.852   0.368   5.621 -4.0084  5.0673  2.0903
  999MOL0     H34851  10.024   0.989   5.719 -2.4180  1.3764  1.1371
  999MOL0     H34852   9.915   1.080   5.541  0.9506  1.0705 -0.1148
  999MOL0     H34853   9.756   1.312   5.317 -1.1692 -0.4749  0.5121
  999MOL0     H34854   9.560   1.277   5.188  0.6504  1.6661  0.2023
  999MOL0     H34855   9.594   1.013   4.874 -2.0416 -2.0213 -0.9721
  999MOL0     H34856   9.437   1.041   4.909 -1.8123  1.6681 -0.8899
  999MOL0     H34857   9.448   1.202   4.690 -1.3848 -1.9386 -1.9800
  999MOL0     H34858   9.406   1.043   4.689 -0.5570  1.8517 -5.4403
  999MOL0     H34859   9.659   0.976   4.646 -0.2805  0.0786 -0.6977
  999MOL0     H34860   9.689   1.143   4.658 -0.0595  0.3204  0.7759
  999MOL0     H34861   9.673   1.103   4.430  0.3607  1.2315  1.1127
  999MOL0     H34862   9.516   1.177   4.467  1.3179  1.1857  0.0820
  999MOL0     H34863   9.463   0.756   4.358  3.4093 -0.0550  1.5710
  999MOL0     H34864   9.799   1.159   4.843 -0.7607  1.0205  0.1569
  999MOL0     H34865  10.001   1.171   4.984  0.7598 -0.2375 -0.0750
 1000MOL0     O34866   0.713   3.235   0.189  0.5258  0.0821 -0.3708
 1000MOL0     C34867   0.601   3.202   0.157 -0.3897 -0.4929  0.2659
 1000MOL0     O34868   0.497   3.155   0.245  0.8237 -0.1242 -0.2184
 1000MOL0     C34869   0.522   3.122   0.377  0.5721  1.4154  0.1806
 1000MOL0     C34870   0.630   3.173   0.446 -0.4108 -0.0439 -0.1041
 1000MOL0     C34871   0.641   3.132   0.580  0.3377  0.0615 -0.0587
 1000MOL0     C34872   0.545   3.048   0.642 -0.2621  0.6111 -1.4723
 1000MOL0     O34873   0.541   3.026   0.776  0.0452 -0.0107  0.5496
 1000MOL0     C34874   0.652   3.059   0.865  0.5702  0.9597  0.8820
 1000MOL0     C34875   0.623   3.021   1.010 -0.2634 -0.0024  0.2718
 1000MOL0     C34876   0.720   3.048   1.126 -0.2984  0.3673  0.6577
 1000MOL0     C34877   0.648   3.071   1.263 -0.7153 -0.1212  0.4347
 1000MOL0     C34878   0.595   2.940   1.329 -0.7202  0.1024  0.1091
 1000MOL0     C34879   0.707   2.860   1.397  0.5058  0.2500 -0.1490
 1000MOL0     C34880   0.646   2.749   1.492  0.5432  0.3445  0.8662
 1000MOL0     C34881   0.562   2.642   1.410  0.1701 -1.0523 -0.9129
 1000MOL0     N34882   0.636   2.591   1.298 -0.4671 -0.4602  0.1326
 1000MOL0     C34883   0.636   2.634   1.158  0.2893 -0.5743  0.1374
 1000MOL0     C34884   0.719   2.550   1.095  0.3368 -0.4919 -0.0527
 1000MOL0     C34885   0.749   2.558   0.951  0.4756  0.2745  0.0976
 1000MOL0     C34886   0.839   2.672   0.918  0.7871 -0.1016 -0.1799
 1000MOL0     C34887   0.981   2.669   0.974 -0.0317  0.9756  0.8801
 1000MOL0     C34888   1.076   2.759   0.907 -0.4703 -0.5877  0.6376
 1000MOL0     O34889   1.031   2.901   0.920  0.3720 -0.1397 -0.7193
 1000MOL0     C34890   1.098   2.980   0.834  0.0352 -0.6027 -1.4698
 1000MOL0     C34891   1.042   3.023   0.710  0.0462 -0.1776 -0.5626
 1000MOL0     C34892   1.108   3.105   0.619  1.2186 -0.5197  1.5832
 1000MOL0     C34893   1.028   3.126   0.494  0.5511 -0.2793  0.4909
 1000MOL0     C34894   1.233   3.157   0.658  0.1181  0.1924 -0.4345
 1000MOL0     C34895   1.296   3.260   0.576 -0.2057  0.3295 -0.5545
 1000MOL0     O34896   1.274   3.257   0.445 -0.7534 -0.5540  0.8290
 1000MOL0     C34897   1.332   3.342   0.350  0.4137  0.2973 -0.0230
 1000MOL0     C34898   1.447   3.414   0.359  0.1039 -0.5681  0.6398
 1000MOL0     C34899   1.491   3.489   0.252 -0.2854  0.5374 -0.3330
 1000MOL0     C34900   1.419   3.498   0.135 -0.3227  0.1342  0.3038
 1000MOL0     O34901   1.479   3.541   0.016  0.1911 -0.2367 -0.2026
 1000MOL0     C34902   1.513   3.684   0.022 -0.6273 -0.6500 -0.2762
 1000MOL0     C34903   1.571   3.741  -0.111  0.5352  0.5471 -0.3823
 1000MOL0     C34904   1.605   3.638  -0.223  0.0440 -0.3798 -0.4895
 1000MOL0     C34905   1.493   3.651  -0.326 -0.6714 -0.7774  0.1931
 1000MOL0     C34906   1.363   3.588  -0.269 -0.3493 -0.5314  0.3445
 1000MOL0     C34907   1.257   3.556  -0.382  0.6346 -0.1938  0.0905
 1000MOL0     C34908   1.135   3.493  -0.316  0.4020  0.6116  0.9762
 1000MOL0     C34909   1.146   3.347  -0.303  0.0359  0.6232  0.7676
 1000MOL0    Cl34910   0.991   3.287  -0.236  0.2377 -0.0679  0.1106
 1000MOL0     C34911   1.301   3.425   0.117  0.2593  0.2696 -0.8477
 1000MOL0     C34912   1.259   3.345   0.227  0.3447 -0.8936  0.0960
 1000MOL0     O34913   1.383   3.326   0.629  0.2841  0.3477  0.2378
 1000MOL0     C34914   1.287   3.129   0.783 -0.0949 -0.1033 -1.4338
 1000MOL0     C34915   1.224   3.041   0.875  0.0234  0.5697  0.2419
 1000MOL0     N34916   0.776   2.462   1.184  0.0564 -0.5612 -0.9932
 1000MOL0     N34917   0.725   2.483   1.302 -0.4831  0.4672  0.7503
 1000MOL0     C34918   0.438   3.006   0.580 -0.4236 -0.0532  0.0375
 1000MOL0     C34919   0.420   3.040   0.437  0.5581 -0.5105 -1.1147
 1000MOL0     C34920   0.576   3.188   0.008  0.8094  0.4895 -1.2505
 1000MOL0     C34921   0.679   3.183  -0.089  0.6711  0.2874 -0.1027
 1000MOL0     C34922   0.640   3.163  -0.223  0.9548  0.1936 -0.8017
 1000MOL0     C34923   0.507   3.153  -0.261  0.8213 -0.2784  0.8376
 1000MOL0     O34924   0.492   3.145  -0.397  0.1939  0.3154 -0.0626
 1000MOL0     C34925   0.367   3.184  -0.452  0.0781 -0.8976 -0.1334
 1000MOL0     C34926   0.373   3.233  -0.593 -0.6126  0.5727 -0.0290
 1000MOL0     C34927   0.234   3.237  -0.655  0.5067 -0.0845 -0.1880
 1000MOL0     C34928   0.225   3.116  -0.738 -0.5720 -0.4700  0.4709
 1000MOL0     C34929   0.089   3.106  -0.796 -0.5815 -0.2664  0.4891
 1000MOL0     C34930  -0.016   3.102  -0.864  0.6627  0.5136 -0.7386
 1000MOL0     C34931   0.406   3.155  -0.169  0.7854  0.6691 -0.4565
 1000MOL0     C34932   0.441   3.166  -0.034 -0.4087 -0.2466  0.2433
 1000MOL0     H34933   0.699   3.253   0.420 -1.3970  1.8278  2.5702
 1000MOL0     H34934   0.718   3.186   0.634 -0.7843  2.1334 -0.4327
 1000MOL0     H34935   0.743   3.003   0.842 -2.1547 -2.8842 -1.7420
 1000MOL0     H34936   0.672   3.167   0.862 -3.7607  1.9384  0.7960
 1000MOL0     H34937   0.538   3.088   1.026  1.1378  2.0497 -0.4413
 1000MOL0     H34938   0.607   2.913   1.007  1.7528 -0.3234 -1.8729
 1000MOL0     H34939   0.790   2.965   1.141 -0.6296  0.3692  2.3978
 1000MOL0     H34940   0.770   3.142   1.101  0.6840 -0.5142 -0.8238
 1000MOL0     H34941   0.717   3.120   1.332  2.7881 -2.1044 -1.4101
 1000MOL0     H34942   0.565   3.142   1.251  0.3296  1.1656  0.6305
 1000MOL0     H34943   0.518   2.963   1.402  1.7491  0.5378  2.7716
 1000MOL0     H34944   0.556   2.883   1.244 -3.7480  1.8216  0.2020
 1000MOL0     H34945   0.789   2.829   1.332  2.3068  0.2849  1.9732
 1000MOL0     H34946   0.748   2.940   1.460  0.0069 -0.2655  0.8661
 1000MOL0     H34947   0.730   2.690   1.531 -1.8390 -3.0712  1.3222
 1000MOL0     H34948   0.592   2.793   1.576  2.6257  2.0826  1.3725
 1000MOL0     H34949   0.464   2.683   1.382  0.7233  2.3553  1.5272
 1000MOL0     H34950   0.548   2.549   1.465  2.2586 -0.8847 -0.0408
 1000MOL0     H34951   0.567   2.700   1.106 -0.6860 -2.7343 -1.4408
 1000MOL0     H34952   0.807   2.466   0.937 -0.4049 -0.9150  3.2796
 1000MOL0     H34953   0.655   2.563   0.895  1.8402 -1.7267 -2.6149
 1000MOL0     H34954   0.785   2.752   0.970 -0.3154 -0.9718  0.0601
 1000MOL0     H34955   0.837   2.669   0.809 -2.1008  3.4104 -0.3937
 1000MOL0     H34956   1.020   2.567   0.966  0.2267  1.2426 -3.3483
 1000MOL0     H34957   0.980   2.688   1.082 -0.6800  0.3645  0.9900
 1000MOL0     H34958   1.079   2.742   0.799 -1.6011  0.0133  0.4902
 1000MOL0     H34959   1.175   2.752   0.954  0.8301  0.0316 -1.8361
 1000MOL0     H34960   0.939   2.994   0.697 -0.0504  0.4092 -1.1570
 1000MOL0     H34961   1.069   3.075   0.406 -1.8703 -0.8973 -0.3572
 1000MOL0     H34962   0.933   3.073   0.502  1.0527 -1.2151  0.4184
 1000MOL0     H34963   1.000   3.227   0.461 -0.3352 -1.7521 -4.0094
 1000MOL0     H34964   1.503   3.407   0.452  0.2809 -0.8043  0.5140
 1000MOL0     H34965   1.585   3.541   0.268  0.9341 -1.7996  0.5997
 1000MOL0     H34966   1.423   3.740   0.052 -0.1053 -0.2259  0.5308
 1000MOL0     H34967   1.589   3.708   0.097 -1.1095  0.3101 -0.0801
 1000MOL0     H34968   1.491   3.810  -0.140 -0.7979 -0.3404  1.0819
 1000MOL0     H34969   1.659   3.798  -0.079  0.7532 -0.3918  0.7706
 1000MOL0     H34970   1.619   3.538  -0.182 -0.3765  0.0714  0.7856
 1000MOL0     H34971   1.699   3.677  -0.262 -0.0614 -1.9102 -2.4419
 1000MOL0     H34972   1.464   3.749  -0.365 -1.9300 -0.4446  1.8593
 1000MOL0     H34973   1.520   3.596  -0.417 -1.6608  0.7254 -1.0719
 1000MOL0     H34974   1.314   3.653  -0.197  0.4288  0.4321  0.0223
 1000MOL0     H34975   1.386   3.491  -0.223 -1.5564  0.0411  2.2753
 1000MOL0     H34976   1.223   3.640  -0.442 -1.3662  0.9365  2.5933
 1000MOL0     H34977   1.291   3.487  -0.460  1.4410 -0.5047  0.7044
 1000MOL0     H34978   1.049   3.511  -0.382 -0.4649 -2.7446  1.0490
 1000MOL0     H34979   1.108   3.528  -0.216 -0.6940  1.2889  0.4674
 1000MOL0     H34980   1.235   3.328  -0.243  0.4761  1.4887  0.4035
 1000MOL0     H34981   1.171   3.289  -0.393  1.7291 -3.5427  3.6103
 1000MOL0     H34982   1.229   3.444   0.038  0.9940  1.3135 -1.2926
 1000MOL0     H34983   1.166   3.293   0.212 -0.2743  0.6372 -1.8215
 1000MOL0     H34984   1.378   3.181   0.808  2.0602 -1.2343 -5.9286
 1000MOL0     H34985   1.265   3.041   0.975  3.0275  0.2045 -0.8907
 1000MOL0     H34986   0.366   2.949   0.639  0.4881  0.0437  1.2723
 1000MOL0     H34987   0.333   2.995   0.390  0.1570  1.3404 -2.2098
 1000MOL0     H34988   0.787   3.188  -0.073  0.9774  2.0052 -2.2744
 1000MOL0     H34989   0.710   3.152  -0.305 -0.5701  3.0076 -2.6344
 1000MOL0     H34990   0.285   3.114  -0.435 -2.9762  2.6176  1.0451
 1000MOL0     H34991   0.344   3.273  -0.393  0.5809  0.6971 -2.1979
 1000MOL0     H34992   0.443   3.170  -0.648 -0.0549 -1.3130  2.6538
 1000MOL0     H34993   0.422   3.331  -0.598  1.8572 -0.5801  0.0960
 1000MOL0     H34994   0.212   3.323  -0.720  1.3157  0.3227  0.0733
 1000MOL0     H34995   0.156   3.234  -0.578  1.5192  4.5045  1.3099
 1000MOL0     H34996   0.248   3.026  -0.681 -0.3955  0.0502  1.2361
 1000MOL0     H34997   0.279   3.115  -0.833 -2.8756  0.6476 -0.9253
 1000MOL0     H34998  -0.110   3.094  -0.915 -2.5292 -2.2496  4.6038
 1000MOL0     H34999   0.301   3.159  -0.194  0.7034  1.3800 -0.0175
 1000MOL0     H35000   0.356   3.168   0.034 -2.9533 -1.3074 -2.6649
 1001MOL0     O35001   0.799   0.613   1.651  0.2670 -0.7929 -0.0323
 1001MOL0     C35002   0.677   0.620   1.630  0.1135 -0.6763  0.6103
 1001MOL0     O35003   0.592   0.515   1.621 -0.0646  1.0317  0.0499
 1001MOL0     C35004   0.648   0.384   1.612  0.2778  0.0919  0.4676
 1001MOL0     C35005   0.661   0.300   1.727 -0.7415 -0.0652  0.3078
 1001MOL0     C35006   0.720   0.173   1.704 -0.0226  0.0874  0.0669
 1001MOL0     C35007   0.758   0.128   1.575 -0.2343  0.0887 -0.4518
 1001MOL0     O35008   0.805   0.008   1.550 -0.0459  0.2229 -0.0982
 1001MOL0     C35009   0.884  -0.049   1.653 -0.1626  0.2725 -0.2032
 1001MOL0     C35010   0.948  -0.170   1.589 -0.0003 -0.9397 -0.0472
 1001MOL0     C35011   1.035  -0.127   1.468 -1.0707  1.2184  0.4462
 1001MOL0     C35012   1.131  -0.237   1.414 -1.0036 -0.9274 -0.2370
 1001MOL0     C35013   1.170  -0.204   1.275 -0.2619  0.0668  0.3972
 1001MOL0     C35014   1.247  -0.069   1.245  0.2302 -0.1841  0.4036
 1001MOL0     C35015   1.247  -0.026   1.093 -0.0943  0.5889  0.6865
 1001MOL0     C35016   1.127   0.061   1.067 -0.2823 -0.7056 -0.5252
 1001MOL0     N35017   1.000  -0.020   1.051 -0.0789  0.9076  0.5155
 1001MOL0     C35018   0.871   0.009   1.099 -0.4905 -0.1685  0.0643
 1001MOL0     C35019   0.797  -0.089   1.064  0.3571  0.8970  0.7653
 1001MOL0     C35020   0.659  -0.092   1.111 -0.4013 -0.9488  0.1767
 1001MOL0     C35021   0.644  -0.165   1.239 -0.9062 -0.2036 -0.0723
 1001MOL0     C35022   0.693  -0.303   1.251  0.0173 -0.2860 -0.0547
 1001MOL0     C35023   0.630  -0.393   1.138 -0.3187  0.3137 -0.2420
 1001MOL0     O35024   0.486  -0.423   1.150  0.1661 -0.0138 -0.0552
 1001MOL0     C35025   0.452  -0.483   1.265  0.3843 -0.0358  0.4269
 1001MOL0     C35026   0.345  -0.425   1.332 -0.6370  0.3754  0.4644
 1001MOL0     C35027   0.294  -0.493   1.444  0.5023 -0.3159  0.5272
 1001MOL0     C35028   0.181  -0.423   1.503 -0.3595 -0.2866  0.9843
 1001MOL0     C35029   0.353  -0.617   1.490 -0.3215  0.8167 -0.6415
 1001MOL0     C35030   0.300  -0.686   1.617 -0.0671  0.0960  0.3743
 1001MOL0     O35031   0.215  -0.621   1.699 -0.2415  0.6288 -0.0355
 1001MOL0     C35032   0.167  -0.691   1.807 -0.2199 -0.5661 -0.4785
 1001MOL0     C35033   0.112  -0.821   1.800  0.4695  0.0569 -0.2081
 1001MOL0     C35034   0.054  -0.887   1.900  0.2690 -0.2162  0.0712
 1001MOL0     C35035   0.048  -0.818   2.021 -0.3115  0.0944  0.0116
 1001MOL0     O35036  -0.011  -0.890   2.121 -0.6632 -0.0881 -0.7071
 1001MOL0     C35037   0.068  -0.985   2.197  0.5290  0.7349  0.2777
 1001MOL0     C35038   0.019  -0.993   2.339  0.3382  0.6284 -0.5922
 1001MOL0     C35039   0.069  -1.122   2.410 -0.2555  0.1464 -0.7841
 1001MOL0     C35040   0.027  -1.123   2.561 -0.4671 -0.3923  1.0626
 1001MOL0     C35041   0.122  -1.203   2.646  0.0932 -0.2669  0.1161
 1001MOL0     C35042   0.076  -1.198   2.794 -0.2827  0.1776  0.4486
 1001MOL0     C35043   0.148  -1.312   2.867  0.8443 -0.7879 -1.2396
 1001MOL0     C35044   0.156  -1.278   3.017  0.6607 -0.3257  0.5725
 1001MOL0    Cl35045   0.264  -1.392   3.102  0.0272  0.0874  0.5207
 1001MOL0     C35046   0.110  -0.694   2.035 -0.0538 -0.2035 -0.5612
 1001MOL0     C35047   0.171  -0.623   1.936  0.7262  1.2826  0.7030
 1001MOL0     O35048   0.340  -0.799   1.634 -0.8988  0.5910  0.6233
 1001MOL0     C35049   0.463  -0.668   1.419  0.7281 -0.0298  0.3128
 1001MOL0     C35050   0.506  -0.603   1.305  0.4658  0.5897  1.0867
 1001MOL0     N35051   0.865  -0.180   0.978 -0.4709  0.0428  0.2271
 1001MOL0     N35052   0.991  -0.127   0.974  0.5893 -0.1027 -0.0126
 1001MOL0     C35053   0.724   0.210   1.462 -0.4206  0.0208 -0.4099
 1001MOL0     C35054   0.669   0.329   1.480  0.2845  0.2142  0.2484
 1001MOL0     C35055   0.616   0.755   1.619  0.3157  0.1571  1.3772
 1001MOL0     C35056   0.708   0.867   1.612  0.3450 -0.3726  0.2757
 1001MOL0     C35057   0.649   0.992   1.581 -1.0149  0.2130  0.2065
 1001MOL0     C35058   0.517   1.021   1.577 -0.5497  0.6642 -0.0491
 1001MOL0     O35059   0.477   1.150   1.539  0.1380 -0.0503 -0.1942
 1001MOL0     C35060   0.360   1.166   1.463  0.0279 -0.6159 -0.1558
 1001MOL0     C35061   0.241   1.194   1.561  0.0395  0.8038 -0.4754
 1001MOL0     C35062   0.129   1.220   1.463 -0.0911 -0.0069  0.2946
 1001MOL0     C35063   0.015   1.289   1.543 -0.2355 -0.0360 -0.2020
 1001MOL0     C35064  -0.082   1.353   1.454 -0.3156  0.9027 -0.4433
 1001MOL0     C35065  -0.164   1.406   1.384  0.0308  0.5506 -0.4452
 1001MOL0     C35066   0.433   0.905   1.591  0.7971 -0.5658 -0.1914
 1001MOL0     C35067   0.481   0.775   1.616  0.4354  0.3262 -0.2261
 1001MOL0     H35068   0.623   0.345   1.818 -1.0812  1.2436 -0.4507
 1001MOL0     H35069   0.751   0.111   1.787 -0.1638  0.2000  0.2029
 1001MOL0     H35070   0.964   0.019   1.686  0.8402  2.3254 -5.7189
 1001MOL0     H35071   0.814  -0.085   1.729 -3.4468  4.2091 -1.0091
 1001MOL0     H35072   1.015  -0.225   1.657  1.2513  0.7107  0.1284
 1001MOL0     H35073   0.873  -0.238   1.549  0.2529 -1.6361  0.6277
 1001MOL0     H35074   0.972  -0.097   1.383  0.1870 -1.5178 -1.6053
 1001MOL0     H35075   1.100  -0.050   1.511  0.6919 -0.7687  1.4912
 1001MOL0     H35076   1.228  -0.241   1.466  1.0487 -0.3718 -3.7047
 1001MOL0     H35077   1.083  -0.335   1.415  1.4767 -2.2228  0.0077
 1001MOL0     H35078   1.232  -0.284   1.234  2.2764  1.1680  1.8986
 1001MOL0     H35079   1.076  -0.207   1.218 -0.4456 -1.7948  0.7507
 1001MOL0     H35080   1.207   0.012   1.307 -1.8451  1.4476 -2.8030
 1001MOL0     H35081   1.350  -0.092   1.274  0.1595  0.3982  1.1439
 1001MOL0     H35082   1.346   0.020   1.082 -0.1848  0.8670  1.0034
 1001MOL0     H35083   1.244  -0.109   1.022 -0.5134  0.2849  1.0540
 1001MOL0     H35084   1.147   0.125   0.981 -0.8370 -0.9830 -0.8689
 1001MOL0     H35085   1.114   0.123   1.156  3.5186 -2.7929  1.7726
 1001MOL0     H35086   0.842   0.097   1.155 -1.3460  1.5545 -2.9058
 1001MOL0     H35087   0.642   0.016   1.121  3.0415 -0.4957  3.9194
 1001MOL0     H35088   0.591  -0.131   1.035  0.0128 -2.0897  0.3724
 1001MOL0     H35089   0.543  -0.149   1.278  0.2961  1.0509  2.8331
 1001MOL0     H35090   0.710  -0.116   1.311  1.4076 -3.8192  0.4910
 1001MOL0     H35091   0.659  -0.351   1.343 -0.6548  1.7206  0.7815
 1001MOL0     H35092   0.802  -0.314   1.257  0.2572  0.5909 -1.9936
 1001MOL0     H35093   0.690  -0.482   1.120 -0.1097  0.4607 -0.2741
 1001MOL0     H35094   0.642  -0.347   1.039 -1.5016 -1.3615 -1.2205
 1001MOL0     H35095   0.293  -0.338   1.296  0.4753  1.3945  1.2408
 1001MOL0     H35096   0.085  -0.473   1.515  0.3101 -1.2158  2.9095
 1001MOL0     H35097   0.199  -0.409   1.611 -1.8375  1.0705  1.0864
 1001MOL0     H35098   0.167  -0.322   1.464  0.4708 -0.6389 -0.2870
 1001MOL0     H35099   0.100  -0.876   1.708 -0.3975 -1.5226  0.7992
 1001MOL0     H35100   0.001  -0.976   1.870  0.7012 -0.0051 -1.4160
 1001MOL0     H35101   0.068  -1.086   2.154  3.1286  0.2334  1.3027
 1001MOL0     H35102   0.176  -0.971   2.196  1.2189 -2.9660  2.6243
 1001MOL0     H35103   0.058  -0.906   2.392 -0.3062  1.5076 -1.5459
 1001MOL0     H35104  -0.090  -0.991   2.339  0.3464  1.6575 -0.9295
 1001MOL0     H35105   0.178  -1.129   2.414 -0.3298 -0.6175  1.1601
 1001MOL0     H35106   0.025  -1.209   2.361 -2.3905  1.4823 -1.3800
 1001MOL0     H35107   0.034  -1.022   2.603 -0.7576 -0.7620  2.0455
 1001MOL0     H35108  -0.076  -1.159   2.571 -1.2429  1.6397  0.9365
 1001MOL0     H35109   0.225  -1.168   2.635  0.5604 -0.6575  2.6487
 1001MOL0     H35110   0.117  -1.305   2.607 -2.7778 -0.5819  1.1056
 1001MOL0     H35111   0.108  -1.100   2.830  1.1262  0.1356 -0.6254
 1001MOL0     H35112  -0.030  -1.218   2.815 -0.3348  0.0413  0.0561
 1001MOL0     H35113   0.249  -1.331   2.829  1.1069  1.2583 -1.6949
 1001MOL0     H35114   0.079  -1.395   2.849 -1.5968  0.5040  1.3860
 1001MOL0     H35115   0.055  -1.286   3.058  0.5835 -2.9533  0.0453
 1001MOL0     H35116   0.200  -1.179   3.028  0.9331 -0.1805 -1.5484
 1001MOL0     H35117   0.107  -0.646   2.133  3.0629  0.2889 -0.6097
 1001MOL0     H35118   0.215  -0.526   1.955 -0.4375  1.6981  1.4359
 1001MOL0     H35119   0.490  -0.772   1.439 -3.2047 -1.5050 -1.1452
 1001MOL0     H35120   0.581  -0.644   1.239  0.3711 -1.2386  2.0573
 1001MOL0     H35121   0.765   0.185   1.364  1.8574  3.0155 -0.3837
 1001MOL0     H35122   0.646   0.389   1.393 -1.5600 -2.7337 -1.4520
 1001MOL0     H35123   0.815   0.854   1.601  0.2403 -3.1110  1.6596
 1001MOL0     H35124   0.721   1.072   1.568  0.3842 -1.1556 -0.7692
 1001MOL0     H35125   0.385   1.251   1.398  0.3964 -1.6298 -1.3797
 1001MOL0     H35126   0.338   1.082   1.397  1.6142  1.0885 -3.0336
 1001MOL0     H35127   0.269   1.278   1.625  3.1391  0.6869 -1.4999
 1001MOL0     H35128   0.213   1.110   1.625 -0.6992  0.5347 -1.1216
 1001MOL0     H35129   0.087   1.134   1.411  3.0317 -0.0917 -2.3647
 1001MOL0     H35130   0.169   1.283   1.383  1.7118 -2.5771 -0.9699
 1001MOL0     H35131   0.057   1.365   1.610 -2.4077 -1.0421  2.4927
 1001MOL0     H35132  -0.035   1.216   1.608  1.5833 -0.0225  1.3212
 1001MOL0     H35133  -0.231   1.448   1.311 -0.2634  3.2874  1.2759
 1001MOL0     H35134   0.324   0.912   1.590  0.8944  1.9498 -1.2984
 1001MOL0     H35135   0.411   0.696   1.642  1.9721 -0.5451  1.4482
 1002MOL0     O35136   3.733  11.207   1.523  0.2650 -0.0281 -0.0150
 1002MOL0     C35137   3.805  11.295   1.483  0.5746  0.4968 -0.1940
 1002MOL0     O35138   3.800  11.424   1.523  0.4257  0.5607 -0.7992
 1002MOL0     C35139   3.706  11.471   1.610  0.4249 -0.5733 -0.5713
 1002MOL0     C35140   3.578  11.488   1.562 -0.2953  0.4046 -0.2300
 1002MOL0     C35141   3.485  11.510   1.659  0.1675 -0.6365  0.5111
 1002MOL0     C35142   3.509  11.539   1.794 -0.2116  0.1876  0.4034
 1002MOL0     O35143   3.406  11.565   1.885  0.8229  0.0040  0.4350
 1002MOL0     C35144   3.277  11.585   1.827  0.1302  0.4128  0.7160
 1002MOL0     C35145   3.185  11.653   1.934 -0.0524 -0.1090 -0.2062
 1002MOL0     C35146   3.048  11.667   1.883  0.0071  0.1925 -0.6116
 1002MOL0     C35147   2.958  11.726   1.994 -0.2528  0.8077 -0.6250
 1002MOL0     C35148   2.807  11.724   1.978 -0.5596 -0.2881  0.3265
 1002MOL0     C35149   2.753  11.611   1.889 -0.3251  0.2378  0.1407
 1002MOL0     C35150   2.599  11.600   1.882  0.4126  0.2046  0.3978
 1002MOL0     C35151   2.536  11.463   1.847  0.2884 -0.4115 -0.1141
 1002MOL0     N35152   2.614  11.406   1.731 -0.1115 -1.1549 -1.0215
 1002MOL0     C35153   2.707  11.307   1.747 -0.2495  0.1145  0.7806
 1002MOL0     C35154   2.745  11.274   1.621 -0.3585 -0.2272  0.1018
 1002MOL0     C35155   2.828  11.150   1.589  0.0676 -0.3532  0.0849
 1002MOL0     C35156   2.941  11.179   1.497  0.1690 -0.4072  0.0025
 1002MOL0     C35157   3.018  11.307   1.523  0.1986  0.0095  0.1248
 1002MOL0     C35158   3.160  11.302   1.464  0.2245  0.2457 -0.6709
 1002MOL0     O35159   3.131  11.297   1.322 -0.3014 -0.4064 -0.1469
 1002MOL0     C35160   3.227  11.341   1.237  0.4059  0.4167 -0.1903
 1002MOL0     C35161   3.351  11.270   1.233  0.3351  0.1642 -0.3962
 1002MOL0     C35162   3.467  11.320   1.175  0.2114 -1.2385 -0.3072
 1002MOL0     C35163   3.586  11.233   1.189  0.5664 -0.2416 -0.4450
 1002MOL0     C35164   3.461  11.439   1.100  0.7877  0.5119  0.5417
 1002MOL0     C35165   3.582  11.515   1.052  0.0037 -0.8849 -0.5138
 1002MOL0     O35166   3.573  11.589   0.935  0.2337  0.2819 -0.0613
 1002MOL0     C35167   3.678  11.651   0.870 -0.3058 -0.6167 -0.1226
 1002MOL0     C35168   3.819  11.614   0.870 -0.2576  0.5212 -0.6546
 1002MOL0     C35169   3.907  11.698   0.813 -0.5034 -0.7024  1.0793
 1002MOL0     C35170   3.869  11.820   0.742  0.4297  0.0997 -0.6398
 1002MOL0     O35171   3.961  11.879   0.664  0.1436  0.1923  0.5306
 1002MOL0     C35172   3.936  12.022   0.654  0.2083  0.7417 -0.2356
 1002MOL0     C35173   4.065  12.095   0.629  1.0299  0.2737 -0.3485
 1002MOL0     C35174   4.042  12.243   0.614  0.1921 -0.1533  0.9278
 1002MOL0     C35175   4.000  12.307   0.754 -0.1304  0.1743  0.4474
 1002MOL0     C35176   3.979  12.459   0.726 -0.3377  0.3909 -0.7482
 1002MOL0     C35177   3.968  12.538   0.856  0.1137  0.0933 -0.0737
 1002MOL0     C35178   3.996  12.694   0.829  0.0559 -0.3761 -0.0514
 1002MOL0     C35179   4.027  12.758   0.958  0.2791  0.2690 -0.8038
 1002MOL0    Cl35180   4.103  12.913   0.915 -0.1093  0.1010 -0.1129
 1002MOL0     C35181   3.731  11.844   0.730  0.5865 -0.1357 -0.1891
 1002MOL0     C35182   3.642  11.766   0.804  0.3525  0.1090 -0.7264
 1002MOL0     O35183   3.688  11.491   1.115  0.3264  0.0958 -0.1925
 1002MOL0     C35184   3.331  11.512   1.097 -0.4746 -0.5386 -0.2169
 1002MOL0     C35185   3.212  11.463   1.168 -0.0136 -0.3397  0.0698
 1002MOL0     N35186   2.674  11.352   1.537  0.5947  0.4439  0.1141
 1002MOL0     N35187   2.591  11.428   1.602  0.4991  0.3544 -0.1414
 1002MOL0     C35188   3.638  11.524   1.836  0.2786  0.0821  0.0115
 1002MOL0     C35189   3.736  11.484   1.744 -0.0137 -0.1090 -0.3428
 1002MOL0     C35190   3.904  11.276   1.378  0.3950  1.0923  0.9920
 1002MOL0     C35191   3.952  11.150   1.359  0.4893  0.4048  0.1088
 1002MOL0     C35192   4.031  11.124   1.240 -0.7003 -0.5743 -0.1612
 1002MOL0     C35193   4.057  11.235   1.151 -0.2625  0.0110  0.2962
 1002MOL0     O35194   4.125  11.212   1.029  0.3353 -0.4696 -0.5264
 1002MOL0     C35195   4.029  11.188   0.923  0.2057  0.0257 -0.1399
 1002MOL0     C35196   4.096  11.208   0.790  0.4466  0.2285  0.0428
 1002MOL0     C35197   4.114  11.354   0.772 -0.1070 -0.8722  0.4859
 1002MOL0     C35198   4.223  11.383   0.669  0.0929  0.4965  0.4891
 1002MOL0     C35199   4.240  11.533   0.681  0.0660  0.2921  0.8642
 1002MOL0     C35200   4.248  11.643   0.721 -0.2836 -0.3218  0.4249
 1002MOL0     C35201   4.019  11.365   1.186 -0.3378 -0.0810 -0.1696
 1002MOL0     C35202   3.934  11.382   1.296 -0.6651  0.1592  0.0959
 1002MOL0     H35203   3.546  11.474   1.459 -4.1202  1.1823  0.6867
 1002MOL0     H35204   3.386  11.498   1.616 -0.2955  0.3524  1.2633
 1002MOL0     H35205   3.287  11.653   1.742  2.0702 -0.2260  0.3770
 1002MOL0     H35206   3.231  11.493   1.791 -0.0865  1.8690 -3.2053
 1002MOL0     H35207   3.193  11.590   2.023  2.5041 -0.8788 -0.9052
 1002MOL0     H35208   3.227  11.749   1.965 -2.6249  0.6729  1.2512
 1002MOL0     H35209   3.039  11.726   1.792 -2.7637 -2.1921 -2.0753
 1002MOL0     H35210   3.005  11.572   1.850 -2.3900  0.4642  1.4291
 1002MOL0     H35211   2.989  11.685   2.091  1.5853  1.4287 -0.9073
 1002MOL0     H35212   2.981  11.832   2.008  1.4738  0.1526  2.9518
 1002MOL0     H35213   2.782  11.724   2.084 -0.2800  0.2780  0.3977
 1002MOL0     H35214   2.780  11.825   1.946 -0.6825 -0.7358 -1.0662
 1002MOL0     H35215   2.788  11.626   1.787  5.9155 -2.6337  1.3438
 1002MOL0     H35216   2.796  11.519   1.929 -0.4501  0.2675  0.3422
 1002MOL0     H35217   2.555  11.640   1.974  0.1965 -1.3545  1.0073
 1002MOL0     H35218   2.563  11.667   1.803 -1.6375 -0.3541  0.7907
 1002MOL0     H35219   2.429  11.476   1.827 -0.0226 -1.1191  1.0001
 1002MOL0     H35220   2.549  11.400   1.935  0.5076  0.2050  0.3014
 1002MOL0     H35221   2.730  11.252   1.838 -0.3102  4.3326  3.6295
 1002MOL0     H35222   2.874  11.104   1.677 -1.9941  1.1766  2.0839
 1002MOL0     H35223   2.758  11.074   1.554 -1.7828 -0.3420  3.3457
 1002MOL0     H35224   2.915  11.178   1.390 -0.0338  1.3412 -0.0042
 1002MOL0     H35225   3.010  11.097   1.517 -2.1188 -1.8391  2.6721
 1002MOL0     H35226   3.030  11.322   1.631  0.8963  2.8215 -0.2543
 1002MOL0     H35227   2.967  11.392   1.476 -0.9328 -0.3735  0.6151
 1002MOL0     H35228   3.216  11.210   1.483  0.2252 -0.4022 -3.4117
 1002MOL0     H35229   3.231  11.383   1.485  5.0265 -3.3387 -1.3747
 1002MOL0     H35230   3.350  11.177   1.287 -2.1517 -0.9239 -2.1607
 1002MOL0     H35231   3.645  11.257   1.278 -1.2457  0.6493  0.5747
 1002MOL0     H35232   3.554  11.129   1.188  2.0470 -0.7523 -2.6166
 1002MOL0     H35233   3.645  11.236   1.096  0.8199  1.6462 -0.2575
 1002MOL0     H35234   3.849  11.522   0.919 -2.4596 -1.2708 -2.4690
 1002MOL0     H35235   4.012  11.674   0.803 -0.3598  0.6020 -1.5862
 1002MOL0     H35236   3.856  12.038   0.581 -2.0565 -2.4987  1.2656
 1002MOL0     H35237   3.905  12.056   0.753 -3.8576 -0.6232 -0.8415
 1002MOL0     H35238   4.119  12.074   0.721 -0.2735 -1.1023  0.1504
 1002MOL0     H35239   4.120  12.048   0.547  2.4616  1.5325 -0.1538
 1002MOL0     H35240   3.967  12.262   0.536  2.5493  0.1634 -1.4093
 1002MOL0     H35241   4.136  12.290   0.581 -0.2895  0.9412  1.0696
 1002MOL0     H35242   3.907  12.260   0.788 -1.5154  0.4326 -2.6410
 1002MOL0     H35243   4.073  12.284   0.832 -1.6281 -0.3820  1.7252
 1002MOL0     H35244   3.889  12.471   0.666 -0.8891 -0.8913 -0.2232
 1002MOL0     H35245   4.065  12.500   0.671 -0.7001  2.3757  0.0719
 1002MOL0     H35246   3.875  12.521   0.913 -0.8285 -0.7936 -1.7990
 1002MOL0     H35247   4.043  12.499   0.925 -0.9625 -0.6627  0.7085
 1002MOL0     H35248   3.915  12.750   0.781  2.4952  3.0286 -0.5423
 1002MOL0     H35249   4.081  12.703   0.761  0.4554  2.7911  0.6638
 1002MOL0     H35250   4.106  12.700   1.006 -1.2716  1.1324  3.2029
 1002MOL0     H35251   3.933  12.769   1.013 -1.1056 -2.3584 -2.4231
 1002MOL0     H35252   3.695  11.925   0.667  1.6377  1.0658  0.6858
 1002MOL0     H35253   3.539  11.801   0.808 -0.0147 -1.0289  0.2930
 1002MOL0     H35254   3.309  11.609   1.055 -1.1107 -0.0883  1.0998
 1002MOL0     H35255   3.131  11.535   1.171  1.3476  1.2525  0.3672
 1002MOL0     H35256   3.660  11.538   1.941 -0.2325 -0.2714  0.1673
 1002MOL0     H35257   3.842  11.474   1.765  0.2364  1.1846 -0.8502
 1002MOL0     H35258   3.935  11.066   1.426  1.9301 -1.1264 -1.3485
 1002MOL0     H35259   4.066  11.023   1.227 -1.2957 -0.9585  1.0168
 1002MOL0     H35260   4.003  11.082   0.928  2.3661 -0.5127  1.0724
 1002MOL0     H35261   3.938  11.247   0.933 -0.2678 -1.0798  3.3950
 1002MOL0     H35262   4.036  11.156   0.714 -0.5537  0.4762  0.6355
 1002MOL0     H35263   4.195  11.162   0.785  0.3360  0.0694 -0.8277
 1002MOL0     H35264   4.161  11.401   0.858  1.9367  3.2313 -2.5237
 1002MOL0     H35265   4.026  11.407   0.734 -0.2171 -0.9262  0.6662
 1002MOL0     H35266   4.187  11.357   0.569 -0.4223 -0.7422  0.9775
 1002MOL0     H35267   4.321  11.339   0.688  0.1961  0.3854 -0.2447
 1002MOL0     H35268   4.260  11.745   0.748 -0.5407  0.0128 -0.6593
 1002MOL0     H35269   4.052  11.447   1.123 -0.7623  0.2608  0.0450
 1002MOL0     H35270   3.910  11.486   1.315  0.2175  0.3701  0.1338
 1003MOL0     O35271   8.844   8.173   4.252  0.0644  0.0378 -0.0464
 1003MOL0     C35272   8.904   8.282   4.265 -0.1356  0.5512 -0.1793
 1003MOL0     O35273   9.032   8.311   4.217 -0.2022  0.6435 -0.5601
 1003MOL0     C35274   9.079   8.261   4.102 -0.7334 -0.6987  0.7143
 1003MOL0     C35275   9.226   8.260   4.081  1.1908  0.1687 -0.1856
 1003MOL0     C35276   9.283   8.211   3.965  0.4126  0.4931  0.1777
 1003MOL0     C35277   9.203   8.137   3.874 -0.0290 -0.1390 -0.6120
 1003MOL0     O35278   9.270   8.092   3.764  0.5909 -0.7845  0.1804
 1003MOL0     C35279   9.276   8.181   3.651 -0.2472  1.1608 -0.7932
 1003MOL0     C35280   9.148   8.226   3.599  0.1733  0.3390  0.4227
 1003MOL0     C35281   9.167   8.328   3.482 -0.2815 -0.4249 -0.2007
 1003MOL0     C35282   9.041   8.399   3.424 -0.4007  0.3701  0.3473
 1003MOL0     C35283   9.057   8.462   3.280  0.3820 -0.2099  0.6581
 1003MOL0     C35284   8.920   8.524   3.252 -0.5142  0.4803  1.2359
 1003MOL0     C35285   8.926   8.657   3.179 -0.2608  0.0872 -0.7646
 1003MOL0     C35286   9.005   8.657   3.051 -0.6606  1.1974 -0.2608
 1003MOL0     N35287   8.934   8.571   2.951 -0.4256 -0.6846  0.4248
 1003MOL0     C35288   8.806   8.575   2.903 -0.6908 -0.0252 -0.1818
 1003MOL0     C35289   8.801   8.464   2.829  0.4220 -0.4554 -0.1731
 1003MOL0     C35290   8.676   8.415   2.766  0.1567 -0.4295 -0.8206
 1003MOL0     C35291   8.636   8.491   2.637 -0.0662 -0.3386 -0.3395
 1003MOL0     C35292   8.498   8.466   2.590 -0.5182 -0.0379 -0.2947
 1003MOL0     C35293   8.460   8.550   2.470  0.0044  0.4356 -0.1527
 1003MOL0     O35294   8.519   8.506   2.348  0.2350  0.0703 -0.5550
 1003MOL0     C35295   8.469   8.564   2.236 -0.7260  0.0713 -0.4071
 1003MOL0     C35296   8.373   8.663   2.217 -0.1153 -0.2107 -0.6928
 1003MOL0     C35297   8.331   8.706   2.095  0.6685  0.1468  0.0981
 1003MOL0     C35298   8.217   8.821   2.092  0.2201  0.2052  0.2854
 1003MOL0     C35299   8.387   8.645   1.976  0.3171  0.7481 -0.2744
 1003MOL0     C35300   8.357   8.688   1.831 -0.3815 -0.7035 -0.2189
 1003MOL0     O35301   8.394   8.593   1.742 -0.0152  0.3078 -0.0975
 1003MOL0     C35302   8.409   8.603   1.605  0.1802  0.0986 -0.3812
 1003MOL0     C35303   8.470   8.707   1.548 -0.3590 -0.2329 -0.0566
 1003MOL0     C35304   8.491   8.707   1.408 -0.0354  0.4632 -0.9110
 1003MOL0     C35305   8.452   8.606   1.329  0.4609  0.1099 -0.1286
 1003MOL0     O35306   8.456   8.610   1.186  0.7546  0.0509 -0.5994
 1003MOL0     C35307   8.464   8.731   1.116  0.4122  0.0025 -0.7389
 1003MOL0     C35308   8.370   8.751   1.000 -0.2486  0.6667 -0.1909
 1003MOL0     C35309   8.380   8.899   0.945 -0.0359 -0.7492 -0.3973
 1003MOL0     C35310   8.473   8.905   0.835  0.0256  1.0806  0.5285
 1003MOL0     C35311   8.523   9.047   0.801  1.0159  0.4480 -0.1031
 1003MOL0     C35312   8.423   9.141   0.731  0.9547 -0.3204 -0.0049
 1003MOL0     C35313   8.492   9.241   0.655 -0.2960  0.4890 -0.5810
 1003MOL0     C35314   8.529   9.186   0.516  0.3630  0.6658  0.8335
 1003MOL0    Cl35315   8.377   9.166   0.420 -0.0805  0.3545  0.1702
 1003MOL0     C35316   8.364   8.509   1.384 -0.2742 -0.2402 -0.2315
 1003MOL0     C35317   8.346   8.507   1.525  0.7672 -0.1715  1.1059
 1003MOL0     O35318   8.306   8.792   1.807 -0.1042  0.1851 -1.0846
 1003MOL0     C35319   8.477   8.539   1.993  0.2556 -0.1342  0.5187
 1003MOL0     C35320   8.521   8.501   2.120  0.6626  0.5581  1.0355
 1003MOL0     N35321   8.923   8.394   2.829 -0.2825 -0.2912 -0.3461
 1003MOL0     N35322   9.004   8.464   2.901 -0.3861 -0.2153  0.2227
 1003MOL0     C35323   9.061   8.119   3.891  0.2168  0.3747 -0.4603
 1003MOL0     C35324   9.006   8.190   4.006 -0.1649  0.3669  0.3463
 1003MOL0     C35325   8.835   8.383   4.343 -0.7337 -0.5748  0.3648
 1003MOL0     C35326   8.748   8.347   4.450  0.4545  0.1380  0.4681
 1003MOL0     C35327   8.677   8.446   4.523 -0.7119 -1.3510 -0.4622
 1003MOL0     C35328   8.703   8.589   4.508 -0.1315  1.6927  0.2732
 1003MOL0     O35329   8.627   8.679   4.575 -0.5005  0.1413 -0.5170
 1003MOL0     C35330   8.661   8.824   4.560  0.2139  0.6525  0.1713
 1003MOL0     C35331   8.579   8.913   4.652  0.1460 -1.3459 -0.7077
 1003MOL0     C35332   8.657   8.949   4.779 -0.2265 -0.5361 -0.5652
 1003MOL0     C35333   8.757   9.063   4.759 -0.4512  0.3039  0.4477
 1003MOL0     C35334   8.796   9.107   4.894  0.0324 -0.2866  0.4661
 1003MOL0     C35335   8.832   9.145   5.006  0.3550  0.6744  0.5242
 1003MOL0     C35336   8.793   8.620   4.407  0.9383  0.8837  0.5918
 1003MOL0     C35337   8.866   8.524   4.326  0.2966 -0.0711 -0.5836
 1003MOL0     H35338   9.272   8.308   4.167  0.4438  1.5043 -0.5008
 1003MOL0     H35339   9.386   8.239   3.945 -0.2743  3.0440 -0.2123
 1003MOL0     H35340   9.327   8.269   3.692  1.2755 -0.6756  1.5365
 1003MOL0     H35341   9.338   8.137   3.573  0.8320 -0.2572  0.7816
 1003MOL0     H35342   9.086   8.143   3.564  0.4830  1.6279 -3.7440
 1003MOL0     H35343   9.085   8.273   3.675  0.8275 -1.8659  2.4415
 1003MOL0     H35344   9.239   8.405   3.510  0.8840 -0.7886 -2.0408
 1003MOL0     H35345   9.206   8.269   3.399 -1.1231 -1.0869 -0.1441
 1003MOL0     H35346   8.980   8.310   3.407 -2.6228  2.0483 -1.0017
 1003MOL0     H35347   8.996   8.463   3.500 -0.1770 -1.3323  1.9868
 1003MOL0     H35348   9.139   8.535   3.276  2.3166 -2.3185  0.0423
 1003MOL0     H35349   9.084   8.382   3.211  0.1348  0.9478 -0.8489
 1003MOL0     H35350   8.862   8.450   3.196 -0.2409 -0.8199  2.6036
 1003MOL0     H35351   8.858   8.536   3.342  0.6838  2.0450  1.9111
 1003MOL0     H35352   8.829   8.698   3.149 -0.1974 -0.5322 -1.8720
 1003MOL0     H35353   8.969   8.725   3.253 -0.4404 -0.9728  0.3435
 1003MOL0     H35354   9.101   8.606   3.062 -1.9884 -0.9670  2.9518
 1003MOL0     H35355   9.019   8.753   3.000  1.1364  0.0923 -2.0116
 1003MOL0     H35356   8.717   8.637   2.905 -3.5643 -3.7964  1.3294
 1003MOL0     H35357   8.697   8.311   2.740 -0.4679 -1.1635  1.3668
 1003MOL0     H35358   8.598   8.411   2.842 -1.2837  0.3373 -2.1978
 1003MOL0     H35359   8.711   8.471   2.559 -0.3523  1.5662 -1.1685
 1003MOL0     H35360   8.634   8.597   2.667  0.1430 -0.3864 -0.1576
 1003MOL0     H35361   8.432   8.505   2.668  1.1638 -3.0723  2.9298
 1003MOL0     H35362   8.486   8.357   2.581  3.5839 -0.5780 -1.1869
 1003MOL0     H35363   8.479   8.657   2.489  0.3773  0.1935  0.9230
 1003MOL0     H35364   8.352   8.537   2.460  0.1666  0.4015 -2.1883
 1003MOL0     H35365   8.322   8.710   2.301  1.4469  3.2112 -1.4742
 1003MOL0     H35366   8.252   8.912   2.043 -2.2801  1.4428  0.6399
 1003MOL0     H35367   8.144   8.783   2.019  2.6479 -2.8894 -0.7821
 1003MOL0     H35368   8.173   8.842   2.190 -1.8457  0.8864 -0.7187
 1003MOL0     H35369   8.499   8.795   1.603  2.0462 -0.6639 -0.5100
 1003MOL0     H35370   8.546   8.785   1.356 -0.5927  1.2845 -0.2881
 1003MOL0     H35371   8.434   8.816   1.178 -2.4055 -0.6684 -1.0825
 1003MOL0     H35372   8.569   8.744   1.087  0.6143 -0.4832 -0.2447
 1003MOL0     H35373   8.399   8.672   0.930  0.9797 -0.1815  1.2227
 1003MOL0     H35374   8.272   8.724   1.041  0.4955 -1.7178  0.1433
 1003MOL0     H35375   8.412   8.963   1.027  0.6972  0.2281 -1.4065
 1003MOL0     H35376   8.278   8.929   0.922  0.9122  2.9300 -0.3622
 1003MOL0     H35377   8.558   8.836   0.844  0.8001  1.8958 -0.2244
 1003MOL0     H35378   8.422   8.868   0.746 -1.0981 -3.0487  2.6313
 1003MOL0     H35379   8.612   9.032   0.739  1.3656 -0.2723  0.5507
 1003MOL0     H35380   8.563   9.094   0.891  4.5308  0.0859 -1.3281
 1003MOL0     H35381   8.364   9.077   0.665  0.3432  1.1438 -0.9353
 1003MOL0     H35382   8.356   9.198   0.796 -0.8440 -1.4982 -0.7529
 1003MOL0     H35383   8.578   9.266   0.717 -0.7053 -1.2641  0.7614
 1003MOL0     H35384   8.427   9.327   0.637 -0.8304  0.1286 -0.3913
 1003MOL0     H35385   8.574   9.087   0.527 -0.2206 -0.0867 -2.3883
 1003MOL0     H35386   8.598   9.252   0.462 -1.5739 -0.0904 -2.9228
 1003MOL0     H35387   8.323   8.434   1.317  2.5522 -1.8981 -0.2594
 1003MOL0     H35388   8.288   8.428   1.572  0.5742  1.4514  3.8039
 1003MOL0     H35389   8.532   8.513   1.903 -1.8327  1.9308 -1.4790
 1003MOL0     H35390   8.587   8.419   2.147  0.9803 -0.7334 -3.0155
 1003MOL0     H35391   9.001   8.056   3.827  2.7049 -0.3562 -2.2522
 1003MOL0     H35392   8.898   8.186   4.013 -0.2861 -0.1247 -1.3786
 1003MOL0     H35393   8.733   8.243   4.476  1.1131 -0.1058 -0.0981
 1003MOL0     H35394   8.603   8.414   4.596 -0.1517 -0.4448  0.5246
 1003MOL0     H35395   8.770   8.839   4.565 -0.0702  2.5512  1.7398
 1003MOL0     H35396   8.641   8.851   4.456  1.0319 -1.1204 -0.5032
 1003MOL0     H35397   8.489   8.865   4.692 -1.2790  0.1865 -1.9253
 1003MOL0     H35398   8.545   9.000   4.597  0.6437 -0.4128  0.4140
 1003MOL0     H35399   8.715   8.859   4.802 -1.4523 -1.8933 -2.4414
 1003MOL0     H35400   8.585   8.960   4.860  0.4748  1.0054 -0.1171
 1003MOL0     H35401   8.719   9.129   4.681  0.4950 -2.1521 -2.3065
 1003MOL0     H35402   8.852   9.033   4.714  0.3173  0.1648  2.1060
 1003MOL0     H35403   8.866   9.169   5.105  2.4256  1.6947 -0.3777
 1003MOL0     H35404   8.824   8.721   4.382  4.4309 -0.1630  0.1472
 1003MOL0     H35405   8.952   8.562   4.271  0.7018 -0.4213 -0.1931
 1004MOL0     O35406   9.872   5.651   1.908 -0.5317 -0.2585  0.3380
 1004MOL0     C35407   9.913   5.566   1.826 -0.4371 -0.9053  0.7940
 1004MOL0     O35408  10.044   5.530   1.805  0.2761 -0.3672  0.3140
 1004MOL0     C35409  10.147   5.610   1.862 -0.8803  0.2658 -0.2051
 1004MOL0     C35410  10.137   5.748   1.859  0.0892  0.3065 -0.6291
 1004MOL0     C35411  10.242   5.825   1.905 -0.4069 -0.4621  0.2130
 1004MOL0     C35412  10.373   5.771   1.923 -0.0940 -0.3282 -1.2473
 1004MOL0     O35413  10.491   5.836   1.957  0.3692  0.7081  0.1906
 1004MOL0     C35414  10.479   5.945   2.052 -0.4339 -0.0372  0.6740
 1004MOL0     C35415  10.612   5.998   2.086 -0.6266  0.8572 -0.6831
 1004MOL0     C35416  10.678   5.892   2.188  0.2202  0.0486  0.5636
 1004MOL0     C35417  10.613   5.868   2.323 -0.3865  0.6164 -1.3722
 1004MOL0     C35418  10.707   5.793   2.428 -0.3474  1.1058 -0.2212
 1004MOL0     C35419  10.639   5.772   2.556  0.6428  0.5129 -0.0269
 1004MOL0     C35420  10.736   5.746   2.675  0.4719 -0.2721 -0.0953
 1004MOL0     C35421  10.834   5.862   2.705 -0.0304 -0.4672  0.8638
 1004MOL0     N35422  10.770   5.990   2.731  0.4024 -0.4564 -0.2175
 1004MOL0     C35423  10.777   6.096   2.653 -0.1571  0.4792 -0.0896
 1004MOL0     C35424  10.698   6.186   2.708 -1.0990  0.3472  0.5219
 1004MOL0     C35425  10.665   6.317   2.657 -0.2192  0.2168  0.4664
 1004MOL0     C35426  10.527   6.382   2.658  0.4043  0.3706  1.0353
 1004MOL0     C35427  10.424   6.272   2.635 -0.6363 -0.5934 -0.6901
 1004MOL0     C35428  10.444   6.178   2.510  0.0388 -0.4317 -0.0102
 1004MOL0     O35429  10.453   6.253   2.387  0.0769  0.0863  0.2094
 1004MOL0     C35430  10.336   6.293   2.329  0.0739  0.1994 -0.5560
 1004MOL0     C35431  10.361   6.364   2.213  0.7429  0.2643 -0.2158
 1004MOL0     C35432  10.255   6.422   2.139  0.8511  0.7267  0.2306
 1004MOL0     C35433  10.299   6.503   2.021 -0.5935  0.0660 -0.0539
 1004MOL0     C35434  10.120   6.402   2.171 -0.3140  0.0151  0.0204
 1004MOL0     C35435   9.992   6.449   2.092 -0.7759  0.1141  0.1199
 1004MOL0     O35436   9.874   6.384   2.098 -0.5451 -0.8989 -0.6601
 1004MOL0     C35437   9.766   6.438   2.036 -0.6139 -0.1595  0.0999
 1004MOL0     C35438   9.770   6.467   1.897 -0.6693  0.2341 -0.3377
 1004MOL0     C35439   9.649   6.496   1.839 -0.7464 -0.5806  1.2182
 1004MOL0     C35440   9.520   6.504   1.904  0.6750  1.3243  0.3526
 1004MOL0     O35441   9.408   6.515   1.824 -0.4159  0.5675  0.0298
 1004MOL0     C35442   9.280   6.524   1.889 -0.6865  1.0658  0.3770
 1004MOL0     C35443   9.264   6.659   1.953 -0.0083  0.0359 -0.1780
 1004MOL0     C35444   9.325   6.790   1.876 -0.0851  0.1636  1.2866
 1004MOL0     C35445   9.256   6.835   1.741  0.1527 -0.5179 -0.3837
 1004MOL0     C35446   9.107   6.875   1.756 -0.7940 -0.9140 -1.1103
 1004MOL0     C35447   9.048   6.939   1.628  0.8417  0.2172  0.7750
 1004MOL0     C35448   8.895   6.948   1.655 -0.3829  0.2813 -0.4605
 1004MOL0     C35449   8.817   6.915   1.527 -1.2383  0.5109  0.1550
 1004MOL0    Cl35450   8.643   6.924   1.557  0.0839 -0.0029 -0.2777
 1004MOL0     C35451   9.519   6.473   2.040  0.0035 -0.2885  0.0517
 1004MOL0     C35452   9.642   6.438   2.097  0.6446  0.5024  0.6561
 1004MOL0     O35453  10.008   6.555   2.038 -0.0521  0.1157 -0.7155
 1004MOL0     C35454  10.091   6.322   2.283  0.3330  0.7139  0.8386
 1004MOL0     C35455  10.203   6.282   2.366  1.1742 -0.0073  0.4545
 1004MOL0     N35456  10.659   6.138   2.832 -0.5992 -0.1005 -0.1083
 1004MOL0     N35457  10.698   6.021   2.843  0.6980  1.0978  0.0230
 1004MOL0     C35458  10.392   5.636   1.905  0.6486  0.2703 -1.0539
 1004MOL0     C35459  10.280   5.551   1.877  0.1225 -1.3280  0.7459
 1004MOL0     C35460   9.811   5.502   1.733 -0.2489 -0.4401  0.4559
 1004MOL0     C35461   9.845   5.446   1.617 -0.9898  0.5400 -0.4977
 1004MOL0     C35462   9.746   5.406   1.533  0.0522  1.1631  0.6066
 1004MOL0     C35463   9.611   5.412   1.571  0.0727 -0.2384 -0.0158
 1004MOL0     O35464   9.531   5.370   1.470  0.5669  0.0926  0.8107
 1004MOL0     C35465   9.390   5.370   1.484  0.2461  0.1021  0.2572
 1004MOL0     C35466   9.321   5.343   1.347 -0.3999  0.2646 -0.7618
 1004MOL0     C35467   9.176   5.288   1.363 -0.0119 -0.4762 -0.4703
 1004MOL0     C35468   9.120   5.239   1.235  0.3037  0.4005 -0.9986
 1004MOL0     C35469   9.036   5.119   1.258  0.7511  0.7855  0.4262
 1004MOL0     C35470   8.976   5.012   1.269 -0.3708 -0.5460  0.0542
 1004MOL0     C35471   9.574   5.455   1.698  0.8727  0.6008 -0.9879
 1004MOL0     C35472   9.680   5.504   1.779 -0.1892  0.8415 -0.3155
 1004MOL0     H35473  10.045   5.802   1.837 -1.1370 -2.0368 -1.6810
 1004MOL0     H35474  10.226   5.932   1.921 -0.3971 -0.5246  0.6618
 1004MOL0     H35475  10.422   6.026   2.003 -1.5456 -1.0651  0.2018
 1004MOL0     H35476  10.420   5.907   2.135 -0.5445 -1.7602 -0.1470
 1004MOL0     H35477  10.666   5.998   1.991  0.2239  1.8595 -0.2141
 1004MOL0     H35478  10.613   6.097   2.133  1.6123  0.4733  0.2269
 1004MOL0     H35479  10.688   5.797   2.134 -2.1070  0.5931 -0.9823
 1004MOL0     H35480  10.776   5.935   2.211 -0.4809  1.2172  1.4509
 1004MOL0     H35481  10.586   5.963   2.370  0.1895  0.2367 -0.2293
 1004MOL0     H35482  10.518   5.814   2.315 -0.7741  1.2427 -1.0771
 1004MOL0     H35483  10.741   5.698   2.386 -1.7297  1.5717 -2.5944
 1004MOL0     H35484  10.794   5.857   2.443  1.1252 -1.1091  1.1866
 1004MOL0     H35485  10.576   5.860   2.573 -0.7794 -0.1056 -1.7354
 1004MOL0     H35486  10.561   5.696   2.545 -0.8426  1.8209  0.9990
 1004MOL0     H35487  10.681   5.727   2.768 -0.0599  3.2915  0.4306
 1004MOL0     H35488  10.806   5.665   2.654  0.2748  0.0383 -2.1485
 1004MOL0     H35489  10.909   5.858   2.626 -0.7288  1.2929  0.0641
 1004MOL0     H35490  10.891   5.843   2.797 -0.4854  0.3844  1.3368
 1004MOL0     H35491  10.791   6.086   2.546  1.2266 -1.0427  0.1886
 1004MOL0     H35492  10.735   6.386   2.705  1.2792  0.6872 -2.1691
 1004MOL0     H35493  10.708   6.326   2.556  0.0966 -2.9017  0.2381
 1004MOL0     H35494  10.521   6.463   2.585 -1.5747 -1.8382 -1.4610
 1004MOL0     H35495  10.508   6.418   2.760  0.3552  1.4776  0.6473
 1004MOL0     H35496  10.326   6.321   2.643 -0.4251 -0.2660 -0.0011
 1004MOL0     H35497  10.420   6.209   2.724  3.0389  2.0803  1.6301
 1004MOL0     H35498  10.359   6.111   2.506 -0.1340 -0.2496 -4.6776
 1004MOL0     H35499  10.537   6.123   2.529 -0.2495 -1.2947 -0.9884
 1004MOL0     H35500  10.458   6.357   2.166  1.6458 -3.3206  1.8179
 1004MOL0     H35501  10.266   6.606   2.038 -0.1394 -0.0472  1.6545
 1004MOL0     H35502  10.407   6.502   2.004 -0.8573  0.9369 -2.2609
 1004MOL0     H35503  10.247   6.463   1.933  0.5319 -1.7671  0.0671
 1004MOL0     H35504   9.859   6.441   1.841 -1.3416 -1.4404 -0.6862
 1004MOL0     H35505   9.638   6.517   1.733 -1.5544 -2.3036  0.9268
 1004MOL0     H35506   9.209   6.506   1.807  2.5827 -0.7075 -2.3790
 1004MOL0     H35507   9.264   6.445   1.963  0.3844  2.1810  1.8502
 1004MOL0     H35508   9.159   6.676   1.977  0.0469  2.5583 -1.4207
 1004MOL0     H35509   9.318   6.646   2.048 -0.6565  0.2264  0.2199
 1004MOL0     H35510   9.431   6.776   1.851 -0.1641  0.7954  0.5436
 1004MOL0     H35511   9.312   6.876   1.942  1.1428  1.8719 -0.5647
 1004MOL0     H35512   9.319   6.913   1.698  0.1383  0.4528  1.2337
 1004MOL0     H35513   9.255   6.752   1.670 -1.7784 -1.5282  0.7381
 1004MOL0     H35514   9.099   6.946   1.839  1.2654 -1.0377 -0.7506
 1004MOL0     H35515   9.045   6.788   1.778 -0.7100 -0.9750 -1.1122
 1004MOL0     H35516   9.091   7.037   1.604 -1.0733  1.3678  1.7122
 1004MOL0     H35517   9.065   6.862   1.552  0.8866 -0.1223  1.1262
 1004MOL0     H35518   8.867   7.046   1.696 -1.9366 -0.0128 -0.7555
 1004MOL0     H35519   8.872   6.873   1.732 -2.4230  1.6330  0.3513
 1004MOL0     H35520   8.834   6.815   1.486  0.4082 -0.1262  2.2057
 1004MOL0     H35521   8.832   6.995   1.455 -1.1406 -1.0131 -1.5773
 1004MOL0     H35522   9.423   6.467   2.091 -1.7730  1.1750 -2.9051
 1004MOL0     H35523   9.632   6.416   2.203 -0.9255 -0.0458  0.4255
 1004MOL0     H35524   9.995   6.287   2.318  0.4627 -0.6003 -0.0480
 1004MOL0     H35525  10.170   6.216   2.446  0.3467  0.7110  0.7167
 1004MOL0     H35526  10.493   5.596   1.894  0.4823  0.5437 -4.5163
 1004MOL0     H35527  10.283   5.445   1.855 -1.0654 -1.5365  1.5170
 1004MOL0     H35528   9.948   5.451   1.581  0.1881  1.1727  2.6845
 1004MOL0     H35529   9.768   5.376   1.431 -3.0897 -0.4071  0.2443
 1004MOL0     H35530   9.358   5.299   1.561  0.5581  0.4727  0.7355
 1004MOL0     H35531   9.359   5.466   1.527 -0.1263 -1.0038  2.6518
 1004MOL0     H35532   9.394   5.285   1.289  2.2650  1.7900  0.8281
 1004MOL0     H35533   9.325   5.440   1.296  1.9482  0.3596 -0.5444
 1004MOL0     H35534   9.116   5.367   1.409  2.8711  0.7517  1.5143
 1004MOL0     H35535   9.171   5.207   1.437 -3.0924 -1.2561 -1.3944
 1004MOL0     H35536   9.193   5.210   1.159  2.7977  3.5673 -0.0020
 1004MOL0     H35537   9.055   5.315   1.191  0.7605  1.3342 -0.0907
 1004MOL0     H35538   8.912   4.929   1.291  0.0313 -0.3964  1.9758
 1004MOL0     H35539   9.472   5.448   1.734  1.0514  1.1144 -0.3723
 1004MOL0     H35540   9.649   5.553   1.871 -0.2843 -1.4682  0.9678
 1005MOL0     O35541   6.689   4.431   8.222 -0.0352  0.5104 -0.0500
 1005MOL0     C35542   6.652   4.541   8.255 -0.8831 -0.1929  0.2923
 1005MOL0     O35543   6.629   4.641   8.161  0.7520 -0.3247 -0.5515
 1005MOL0     C35544   6.715   4.656   8.055  0.9295 -0.0938 -0.1526
 1005MOL0     C35545   6.671   4.714   7.932 -0.2230  0.5744 -0.4493
 1005MOL0     C35546   6.754   4.742   7.825 -0.6037 -0.2482 -0.0262
 1005MOL0     C35547   6.884   4.715   7.833 -0.8104  1.2607  0.3830
 1005MOL0     O35548   6.959   4.731   7.716  0.8041  0.4771 -0.3513
 1005MOL0     C35549   7.064   4.633   7.696 -0.5369 -0.1814 -0.7208
 1005MOL0     C35550   7.068   4.624   7.544  0.6466 -0.7285  0.2195
 1005MOL0     C35551   7.162   4.520   7.507 -0.0896  0.2679 -0.0594
 1005MOL0     C35552   7.147   4.487   7.353  0.2322  0.3237 -0.2518
 1005MOL0     C35553   7.256   4.384   7.325 -0.6110  0.0823 -0.2397
 1005MOL0     C35554   7.271   4.334   7.178  0.5394 -0.6201  0.2639
 1005MOL0     C35555   7.352   4.205   7.176  0.3807 -0.9964  0.4296
 1005MOL0     C35556   7.492   4.230   7.219  0.1665 -0.3434  0.6463
 1005MOL0     N35557   7.568   4.315   7.125  0.9092 -0.3431  0.3133
 1005MOL0     C35558   7.613   4.266   7.010  0.0341 -0.0073 -0.0522
 1005MOL0     C35559   7.686   4.359   6.945  0.7697  0.9176 -0.2976
 1005MOL0     C35560   7.756   4.352   6.810 -0.9168 -0.3183 -0.5255
 1005MOL0     C35561   7.759   4.216   6.746 -0.1039  0.0248  1.0133
 1005MOL0     C35562   7.829   4.224   6.602  0.0453 -0.2944  0.5134
 1005MOL0     C35563   7.977   4.194   6.594  0.3130 -0.1974 -1.0360
 1005MOL0     O35564   7.982   4.057   6.647  0.0433 -0.1047 -0.6255
 1005MOL0     C35565   8.105   4.000   6.645 -0.3350  0.9162 -0.8535
 1005MOL0     C35566   8.118   3.893   6.732 -0.1277  0.0907 -0.3757
 1005MOL0     C35567   8.235   3.805   6.727  0.4157 -0.2052  0.4611
 1005MOL0     C35568   8.217   3.677   6.812 -0.0364 -0.1756  0.0813
 1005MOL0     C35569   8.347   3.847   6.651 -0.0018  0.2167  0.1390
 1005MOL0     C35570   8.476   3.764   6.633  0.3684  0.6002  1.4914
 1005MOL0     O35571   8.565   3.811   6.554 -0.2277 -0.5719  0.6539
 1005MOL0     C35572   8.673   3.731   6.535  0.0673 -0.2906 -0.3612
 1005MOL0     C35573   8.782   3.728   6.616 -0.5206  0.6591 -0.0718
 1005MOL0     C35574   8.893   3.648   6.579  0.1320 -0.2968 -0.7588
 1005MOL0     C35575   8.886   3.559   6.464 -0.3781 -0.8339  0.0720
 1005MOL0     O35576   8.984   3.472   6.430  0.1584 -0.0836  0.3272
 1005MOL0     C35577   9.051   3.411   6.537  0.0743 -0.0402 -0.6531
 1005MOL0     C35578   9.120   3.288   6.488 -0.3330 -0.7375 -0.2738
 1005MOL0     C35579   9.253   3.313   6.425 -0.3921 -0.8464 -0.1999
 1005MOL0     C35580   9.345   3.191   6.409  0.8738  0.3163  0.8475
 1005MOL0     C35581   9.377   3.098   6.519 -0.6792  0.5382  0.7314
 1005MOL0     C35582   9.452   3.165   6.636 -0.3143 -0.9842  0.5113
 1005MOL0     C35583   9.550   3.074   6.706 -0.4387  0.4707 -0.1591
 1005MOL0     C35584   9.589   3.112   6.847  0.4251  0.0585  0.3047
 1005MOL0    Cl35585   9.689   3.265   6.855  0.3481  0.2028 -0.2796
 1005MOL0     C35586   8.776   3.579   6.385  0.8591 -0.7595 -0.6167
 1005MOL0     C35587   8.665   3.659   6.419  0.5227  0.0088 -0.3735
 1005MOL0     O35588   8.475   3.647   6.670 -0.2501 -0.2886 -0.2688
 1005MOL0     C35589   8.342   3.974   6.585 -0.0224  0.4571  0.2647
 1005MOL0     C35590   8.220   4.035   6.569 -0.2008 -0.6923 -0.3916
 1005MOL0     N35591   7.693   4.473   7.024 -0.2609  0.2975 -0.9767
 1005MOL0     N35592   7.620   4.439   7.135  0.4659 -0.1256  0.2684
 1005MOL0     C35593   6.932   4.664   7.956 -1.0727  0.1462  0.0529
 1005MOL0     C35594   6.854   4.624   8.060 -0.0344 -0.1358  1.0253
 1005MOL0     C35595   6.611   4.577   8.396  0.5395  0.3288 -0.6786
 1005MOL0     C35596   6.574   4.706   8.436  0.1391  0.8679  0.3590
 1005MOL0     C35597   6.529   4.730   8.567  0.8872 -0.4409 -0.4078
 1005MOL0     C35598   6.534   4.631   8.664 -0.1486  0.3915  0.3834
 1005MOL0     O35599   6.520   4.660   8.802  0.3904 -0.3796  0.4529
 1005MOL0     C35600   6.490   4.792   8.855 -0.3873  0.7652  0.8153
 1005MOL0     C35601   6.344   4.811   8.853  0.5520 -0.3516  0.5630
 1005MOL0     C35602   6.316   4.960   8.905  0.9008  0.5059 -0.0861
 1005MOL0     C35603   6.162   4.992   8.913 -0.6056  0.9344 -0.4008
 1005MOL0     C35604   6.094   4.923   9.020 -0.0145  0.3319 -0.0070
 1005MOL0     C35605   6.028   4.873   9.113 -0.3204 -0.3945  0.1654
 1005MOL0     C35606   6.576   4.497   8.625 -0.4812  0.0885 -0.0127
 1005MOL0     C35607   6.608   4.472   8.494  0.1562 -0.0344 -0.7675
 1005MOL0     H35608   6.569   4.749   7.948 -0.1227  0.2000  1.2311
 1005MOL0     H35609   6.715   4.795   7.738 -1.1594 -1.8428 -0.7753
 1005MOL0     H35610   7.161   4.663   7.734  0.0936 -3.9603  1.0130
 1005MOL0     H35611   7.039   4.534   7.735 -2.4927  0.0732 -1.1779
 1005MOL0     H35612   6.975   4.605   7.491  2.0312  2.7128 -4.0448
 1005MOL0     H35613   7.101   4.719   7.499  0.9645 -1.6714 -1.6448
 1005MOL0     H35614   7.262   4.556   7.532  0.4515  0.5182 -2.3714
 1005MOL0     H35615   7.139   4.431   7.566 -0.4180  2.8363  4.0661
 1005MOL0     H35616   7.047   4.443   7.341 -0.2434  0.7569  1.6926
 1005MOL0     H35617   7.154   4.572   7.285 -3.7129  0.5562 -0.5945
 1005MOL0     H35618   7.351   4.407   7.374  0.3021 -0.3336 -1.7298
 1005MOL0     H35619   7.232   4.293   7.382  2.7946  0.4424  2.0792
 1005MOL0     H35620   7.170   4.311   7.143  0.4608 -1.1311  0.7977
 1005MOL0     H35621   7.311   4.413   7.114 -0.6209 -2.3678 -2.7809
 1005MOL0     H35622   7.305   4.136   7.246 -1.6182 -2.2081 -1.9215
 1005MOL0     H35623   7.349   4.168   7.073  0.4549 -1.1772  0.4918
 1005MOL0     H35624   7.544   4.134   7.223  2.8185  0.7936 -2.3394
 1005MOL0     H35625   7.507   4.259   7.324  2.2888 -0.4047  0.4047
 1005MOL0     H35626   7.579   4.177   6.959 -1.1874  1.1773 -1.3879
 1005MOL0     H35627   7.707   4.415   6.734 -2.9979 -2.1214 -0.7760
 1005MOL0     H35628   7.858   4.390   6.821 -0.6343 -1.3543  0.6987
 1005MOL0     H35629   7.654   4.186   6.746  0.4919 -2.2266  1.0832
 1005MOL0     H35630   7.799   4.151   6.824 -1.5385 -1.8612  0.2566
 1005MOL0     H35631   7.823   4.326   6.565  1.1725  0.0913  1.3438
 1005MOL0     H35632   7.778   4.150   6.540  0.8904 -1.0263  0.6759
 1005MOL0     H35633   8.036   4.265   6.653  1.1600 -2.1379  0.5890
 1005MOL0     H35634   8.015   4.209   6.493  0.3708  0.5018 -0.9137
 1005MOL0     H35635   8.029   3.868   6.790 -1.3919  3.1625 -0.8115
 1005MOL0     H35636   8.121   3.675   6.863  1.3322  0.0745  2.8415
 1005MOL0     H35637   8.205   3.600   6.735  0.4396 -0.2735  0.1026
 1005MOL0     H35638   8.294   3.663   6.888 -1.5247 -1.8756  1.3565
 1005MOL0     H35639   8.784   3.794   6.702  0.8666  0.2531  0.2196
 1005MOL0     H35640   8.978   3.654   6.646  0.3040 -0.9449 -0.9137
 1005MOL0     H35641   9.124   3.480   6.580 -0.8242  0.3002  0.3479
 1005MOL0     H35642   8.979   3.374   6.610 -0.4997  0.1538 -1.1190
 1005MOL0     H35643   9.127   3.225   6.578  1.3157  1.6617  1.3899
 1005MOL0     H35644   9.050   3.249   6.413 -1.7728  1.9381 -0.4280
 1005MOL0     H35645   9.307   3.385   6.487 -1.1766 -2.6610  2.8326
 1005MOL0     H35646   9.247   3.372   6.334  0.9483  1.5307  1.1428
 1005MOL0     H35647   9.301   3.136   6.325  1.3229  3.3667 -1.5844
 1005MOL0     H35648   9.441   3.231   6.376 -0.7664  1.5373 -2.9734
 1005MOL0     H35649   9.441   3.026   6.466  0.5959  1.7481  0.5569
 1005MOL0     H35650   9.285   3.048   6.552 -0.6421 -0.0881 -0.0779
 1005MOL0     H35651   9.518   3.247   6.604 -1.1370 -0.1372  0.9479
 1005MOL0     H35652   9.375   3.193   6.708 -0.2227 -0.8005  0.5377
 1005MOL0     H35653   9.642   3.059   6.650 -0.9902 -1.2708 -0.6506
 1005MOL0     H35654   9.502   2.977   6.719 -2.4047  1.0329 -2.4452
 1005MOL0     H35655   9.650   3.031   6.888 -0.6044 -1.4291 -0.9913
 1005MOL0     H35656   9.497   3.120   6.906  0.2368 -2.1380  0.3838
 1005MOL0     H35657   8.763   3.517   6.296 -1.1143  1.0315 -1.6740
 1005MOL0     H35658   8.570   3.657   6.368  0.0651 -4.1812  0.2309
 1005MOL0     H35659   8.418   4.027   6.528  1.8347 -1.5896  0.6931
 1005MOL0     H35660   8.218   4.122   6.504  1.7882  0.1913  0.6354
 1005MOL0     H35661   7.037   4.637   7.957 -1.0929 -0.0495 -1.4665
 1005MOL0     H35662   6.898   4.573   8.144  1.2571  4.0383  3.1446
 1005MOL0     H35663   6.587   4.790   8.369  0.0625  1.8217  1.5250
 1005MOL0     H35664   6.491   4.826   8.600 -2.3952 -0.9453 -2.2402
 1005MOL0     H35665   6.528   4.786   8.957 -0.0004 -0.4308  0.6194
 1005MOL0     H35666   6.546   4.875   8.809 -1.4189  1.5527  0.9457
 1005MOL0     H35667   6.303   4.739   8.924 -1.3946  0.2273  0.0934
 1005MOL0     H35668   6.301   4.790   8.754 -0.1071  3.4113 -0.0846
 1005MOL0     H35669   6.361   5.028   8.832  3.1227 -0.1133  0.6516
 1005MOL0     H35670   6.365   4.986   8.999  1.0142  1.0554 -0.2960
 1005MOL0     H35671   6.117   4.954   8.821  2.3018  0.9990 -1.9716
 1005MOL0     H35672   6.145   5.100   8.921 -1.1488  0.8338 -0.1251
 1005MOL0     H35673   5.977   4.832   9.198  1.4172 -2.8963  0.1331
 1005MOL0     H35674   6.573   4.426   8.707 -1.0839 -0.8160 -0.7976
 1005MOL0     H35675   6.641   4.375   8.459  2.1122  0.1722  0.3869
 1006MOL0     O35676   6.416   4.783   0.158 -0.2159 -0.0871 -0.3864
 1006MOL0     C35677   6.346   4.863   0.095 -0.6298 -0.2641 -0.1883
 1006MOL0     O35678   6.214   4.877   0.096 -0.0263  0.2212 -0.0775
 1006MOL0     C35679   6.135   4.791   0.169 -0.4088  0.3144 -0.0093
 1006MOL0     C35680   6.164   4.661   0.175  0.2378  0.2632 -0.1331
 1006MOL0     C35681   6.101   4.582   0.270  0.5266  1.0226 -1.2169
 1006MOL0     C35682   5.982   4.630   0.324 -0.7154  0.3706 -0.3403
 1006MOL0     O35683   5.914   4.526   0.373  0.3447 -0.8625 -0.4092
 1006MOL0     C35684   5.822   4.567   0.478  1.1627 -0.0248  0.5721
 1006MOL0     C35685   5.756   4.434   0.542  0.5202  0.2856 -0.3824
 1006MOL0     C35686   5.697   4.333   0.436 -0.0988  0.5763 -0.2413
 1006MOL0     C35687   5.647   4.224   0.532  0.7495  0.2825 -0.5615
 1006MOL0     C35688   5.595   4.088   0.469 -0.5416 -0.4970 -0.2135
 1006MOL0     C35689   5.459   4.099   0.418  0.4013 -0.5302  0.6330
 1006MOL0     C35690   5.430   3.997   0.309  0.0102  0.6220 -0.6202
 1006MOL0     C35691   5.391   3.853   0.355  0.5920 -0.1614  0.6521
 1006MOL0     N35692   5.260   3.853   0.427  0.0793  0.3572 -0.2983
 1006MOL0     C35693   5.139   3.812   0.362  0.2928  0.0622 -0.4665
 1006MOL0     C35694   5.050   3.825   0.466  0.3692 -0.5184  1.6943
 1006MOL0     C35695   4.897   3.797   0.467  0.9448  0.2828  0.4582
 1006MOL0     C35696   4.874   3.642   0.475  0.2164  0.1868 -0.3393
 1006MOL0     C35697   4.727   3.615   0.514 -0.7350  0.0221  1.4691
 1006MOL0     C35698   4.701   3.466   0.517 -0.0624 -0.4953 -0.7003
 1006MOL0     O35699   4.568   3.462   0.556 -0.3575  0.2184  0.0210
 1006MOL0     C35700   4.479   3.427   0.455 -0.3177  0.1503  0.7449
 1006MOL0     C35701   4.347   3.458   0.479  0.1810 -0.5431 -1.1399
 1006MOL0     C35702   4.244   3.431   0.392  0.3750  0.4171  0.2323
 1006MOL0     C35703   4.111   3.469   0.454  0.2591  0.6860 -0.3028
 1006MOL0     C35704   4.278   3.366   0.271 -0.0777  0.4602  0.4703
 1006MOL0     C35705   4.169   3.317   0.181 -0.2023 -0.5343 -0.4903
 1006MOL0     O35706   4.040   3.320   0.228 -0.6098  1.1222  0.1198
 1006MOL0     C35707   3.940   3.322   0.132 -1.2596  0.1941  0.0063
 1006MOL0     C35708   3.918   3.445   0.064 -0.1547  0.1287 -0.4536
 1006MOL0     C35709   3.827   3.449  -0.037  0.7041 -0.5477  0.0887
 1006MOL0     C35710   3.756   3.338  -0.079 -0.3340  0.3298  0.8306
 1006MOL0     O35711   3.676   3.370  -0.187  0.3072  0.2251 -0.3023
 1006MOL0     C35712   3.608   3.256  -0.250  0.2539 -0.3935 -0.2110
 1006MOL0     C35713   3.497   3.301  -0.344 -0.1247  0.2987  0.4311
 1006MOL0     C35714   3.533   3.415  -0.426 -0.0178 -0.7472  0.6884
 1006MOL0     C35715   3.467   3.417  -0.566 -0.2356  0.8524  0.5868
 1006MOL0     C35716   3.309   3.446  -0.564 -0.7248 -0.2636 -0.5926
 1006MOL0     C35717   3.293   3.597  -0.530 -0.4000  0.1884  0.2738
 1006MOL0     C35718   3.147   3.644  -0.557  0.4924  0.3530 -0.1628
 1006MOL0     C35719   3.119   3.661  -0.710 -0.3672 -0.1793  0.2009
 1006MOL0    Cl35720   3.206   3.797  -0.785 -0.4932  0.3206 -0.2732
 1006MOL0     C35721   3.775   3.213  -0.011 -1.1575  0.4799  0.5046
 1006MOL0     C35722   3.869   3.205   0.095 -0.4464 -0.6929 -0.1100
 1006MOL0     O35723   4.199   3.292   0.063 -0.1090  0.1637  0.6553
 1006MOL0     C35724   4.411   3.324   0.242 -0.1088 -0.5593 -0.6240
 1006MOL0     C35725   4.511   3.358   0.334 -1.0805 -0.1169  0.1929
 1006MOL0     N35726   5.119   3.876   0.583 -1.1357 -0.8197  0.0669
 1006MOL0     N35727   5.239   3.883   0.557  0.3377 -0.4660 -0.8219
 1006MOL0     C35728   5.948   4.768   0.308 -0.1617  0.3546  0.2523
 1006MOL0     C35729   6.026   4.848   0.233 -0.1727 -0.0421  1.2912
 1006MOL0     C35730   6.433   4.948   0.018  0.4656 -0.7146 -0.3698
 1006MOL0     C35731   6.387   5.073  -0.033  0.1239 -0.2309  0.1974
 1006MOL0     C35732   6.463   5.156  -0.124 -0.1292 -0.1391  0.2124
 1006MOL0     C35733   6.586   5.108  -0.170 -0.2259 -0.1568  0.0206
 1006MOL0     O35734   6.666   5.160  -0.260 -0.9559 -0.0911  0.0659
 1006MOL0     C35735   6.632   5.281  -0.331  0.8375  0.2232  0.3270
 1006MOL0     C35736   6.710   5.271  -0.465  0.0957  0.6681 -0.0721
 1006MOL0     C35737   6.654   5.366  -0.576 -1.3017 -0.3743  0.5935
 1006MOL0     C35738   6.710   5.315  -0.709  1.0927  0.7166  0.2874
 1006MOL0     C35739   6.632   5.394  -0.812 -0.5967  0.1741  0.0536
 1006MOL0     C35740   6.555   5.474  -0.868 -0.3563  0.7383 -0.0981
 1006MOL0     C35741   6.636   4.987  -0.116  1.1195  0.3939  0.4259
 1006MOL0     C35742   6.564   4.911  -0.020 -0.3196 -0.1769  0.5363
 1006MOL0     H35743   6.253   4.622   0.126  3.2546  2.5566  2.9538
 1006MOL0     H35744   6.113   4.477   0.296 -1.8024  1.2830  1.3389
 1006MOL0     H35745   5.875   4.622   0.557  1.6454 -0.4295  0.5391
 1006MOL0     H35746   5.751   4.633   0.430  2.8826  0.5454 -1.3281
 1006MOL0     H35747   5.829   4.396   0.615  1.1923  3.5408  0.7701
 1006MOL0     H35748   5.669   4.465   0.599  1.0648  0.0683  0.5973
 1006MOL0     H35749   5.629   4.387   0.369 -2.0228  0.7231  1.7137
 1006MOL0     H35750   5.779   4.295   0.374  0.8817  0.5860  1.0010
 1006MOL0     H35751   5.729   4.186   0.594  0.1399  1.1725  0.8276
 1006MOL0     H35752   5.566   4.266   0.593  1.2213 -2.6178  2.3760
 1006MOL0     H35753   5.668   4.053   0.395 -0.0220 -1.1651  0.5952
 1006MOL0     H35754   5.602   4.016   0.551  1.2158  2.4015  2.3805
 1006MOL0     H35755   5.375   4.105   0.488 -2.5379  3.8091 -2.7282
 1006MOL0     H35756   5.459   4.189   0.356  2.4063 -0.2793  0.9292
 1006MOL0     H35757   5.348   4.044   0.253  0.0321  0.5661 -0.6987
 1006MOL0     H35758   5.514   3.981   0.240  1.9356 -0.4290  1.8206
 1006MOL0     H35759   5.463   3.824   0.433 -0.6697 -2.8751  0.9324
 1006MOL0     H35760   5.398   3.780   0.274  0.6110  2.6918 -2.1271
 1006MOL0     H35761   5.120   3.792   0.257  0.7285  1.1896 -0.7796
 1006MOL0     H35762   4.855   3.846   0.555  0.3301 -0.3517  0.5250
 1006MOL0     H35763   4.842   3.828   0.377  1.1280 -2.5636 -0.7398
 1006MOL0     H35764   4.942   3.598   0.548 -1.6587  1.7350  2.5189
 1006MOL0     H35765   4.893   3.587   0.382 -0.3813 -1.9914  0.7651
 1006MOL0     H35766   4.662   3.665   0.442  2.1565  1.8689 -0.0367
 1006MOL0     H35767   4.723   3.660   0.614  0.8022 -0.5646  1.8366
 1006MOL0     H35768   4.762   3.419   0.595 -1.7598 -3.2804 -0.9312
 1006MOL0     H35769   4.733   3.435   0.417  4.2070  0.4918  0.1478
 1006MOL0     H35770   4.337   3.516   0.570  0.0433 -2.7748  0.3420
 1006MOL0     H35771   4.050   3.388   0.495 -0.3118  1.7142  0.9205
 1006MOL0     H35772   4.136   3.540   0.534  3.9324 -0.7052  0.0007
 1006MOL0     H35773   4.046   3.521   0.383 -1.6958  1.2372  1.7672
 1006MOL0     H35774   3.984   3.531   0.076  1.5902 -1.5693  3.9708
 1006MOL0     H35775   3.813   3.530  -0.108 -0.8787 -0.0028  0.9706
 1006MOL0     H35776   3.678   3.189  -0.301 -0.2858 -0.4725 -0.8620
 1006MOL0     H35777   3.552   3.200  -0.175  1.3279  1.7910  2.3608
 1006MOL0     H35778   3.461   3.213  -0.398 -2.0013 -0.1336  2.2160
 1006MOL0     H35779   3.418   3.335  -0.276 -1.2551 -2.4078  0.5927
 1006MOL0     H35780   3.642   3.413  -0.435 -0.1071 -0.1037 -0.9145
 1006MOL0     H35781   3.523   3.513  -0.379  2.0222  0.1492 -0.5900
 1006MOL0     H35782   3.506   3.502  -0.623 -1.0884  0.2757 -0.9251
 1006MOL0     H35783   3.487   3.323  -0.617  1.2072  1.5584 -0.2001
 1006MOL0     H35784   3.264   3.399  -0.476  1.1124  1.6807  1.5080
 1006MOL0     H35785   3.258   3.429  -0.659 -2.5180  3.3381 -0.4363
 1006MOL0     H35786   3.311   3.603  -0.423 -1.3963  1.7246  0.3799
 1006MOL0     H35787   3.370   3.651  -0.587 -0.4753 -1.4408 -1.4751
 1006MOL0     H35788   3.145   3.743  -0.511 -0.0100  0.4639 -0.4221
 1006MOL0     H35789   3.070   3.574  -0.523  0.6490  0.4350  0.3692
 1006MOL0     H35790   3.013   3.680  -0.725 -0.2489 -1.0774 -2.1832
 1006MOL0     H35791   3.141   3.574  -0.774 -2.6384  0.0017 -0.9218
 1006MOL0     H35792   3.720   3.129  -0.053  2.1807 -1.8426  0.4194
 1006MOL0     H35793   3.883   3.108   0.140  3.2353 -0.4111 -0.3735
 1006MOL0     H35794   4.434   3.271   0.150 -0.9696 -0.4539 -0.9076
 1006MOL0     H35795   4.610   3.314   0.324  1.0048  3.2405  3.4006
 1006MOL0     H35796   5.852   4.802   0.346  0.4554  3.5008 -0.7225
 1006MOL0     H35797   6.000   4.952   0.219 -0.8808 -0.4013 -0.2892
 1006MOL0     H35798   6.290   5.107  -0.001  1.0244  1.3198  1.4486
 1006MOL0     H35799   6.427   5.239  -0.185  1.4690  1.9190  1.9343
 1006MOL0     H35800   6.525   5.298  -0.351  1.2355 -0.4655 -2.9745
 1006MOL0     H35801   6.660   5.368  -0.271  2.3073 -0.6396  0.9351
 1006MOL0     H35802   6.712   5.167  -0.498  0.0432  0.6690 -0.0801
 1006MOL0     H35803   6.815   5.295  -0.444 -0.4572  1.7140  1.7087
 1006MOL0     H35804   6.705   5.462  -0.568  1.2304 -1.3380 -1.9342
 1006MOL0     H35805   6.545   5.376  -0.578 -1.1676  1.9105 -2.3398
 1006MOL0     H35806   6.697   5.206  -0.717  0.1051  0.9399 -1.8993
 1006MOL0     H35807   6.813   5.347  -0.729 -0.1082  4.5121 -0.5524
 1006MOL0     H35808   6.487   5.548  -0.905 -1.4470 -0.6686 -1.0129
 1006MOL0     H35809   6.740   4.965  -0.135  0.8826 -1.1509  0.7660
 1006MOL0     H35810   6.611   4.819   0.011  0.4775 -0.4790 -1.4579
 1007MOL0     O35811   1.564   5.481   7.637 -0.2895 -0.6184  0.0385
 1007MOL0     C35812   1.688   5.462   7.630  0.5976  0.1983 -0.7937
 1007MOL0     O35813   1.769   5.529   7.540  0.1363 -0.1011  0.1710
 1007MOL0     C35814   1.698   5.629   7.472 -0.1411 -0.8027  0.4574
 1007MOL0     C35815   1.670   5.752   7.537  0.0905  0.7806 -0.6736
 1007MOL0     C35816   1.608   5.855   7.469  0.6338 -0.1182  0.4264
 1007MOL0     C35817   1.572   5.844   7.327  0.2502  1.0105 -0.5288
 1007MOL0     O35818   1.510   5.941   7.247 -0.6240 -0.0171 -0.2903
 1007MOL0     C35819   1.598   6.022   7.177 -0.1936 -1.3977 -0.0533
 1007MOL0     C35820   1.548   6.055   7.034  0.0585 -0.2855 -0.4963
 1007MOL0     C35821   1.530   5.923   6.957  0.1950 -0.1190 -0.1847
 1007MOL0     C35822   1.406   5.927   6.857 -0.6351  1.1056 -0.5738
 1007MOL0     C35823   1.374   5.793   6.807 -0.3662 -0.7565 -0.1091
 1007MOL0     C35824   1.253   5.793   6.719 -0.0490 -0.6001 -0.0372
 1007MOL0     C35825   1.202   5.645   6.699  0.6307 -0.2998 -0.2335
 1007MOL0     C35826   1.088   5.640   6.595 -0.1236  1.0232  0.2585
 1007MOL0     N35827   0.982   5.730   6.612 -0.3397  0.0597 -0.9727
 1007MOL0     C35828   0.912   5.790   6.519  0.1667 -0.2541 -0.2814
 1007MOL0     C35829   0.793   5.847   6.576 -0.7086  1.5394  0.6470
 1007MOL0     C35830   0.674   5.894   6.516  0.0163 -0.3793 -0.0473
 1007MOL0     C35831   0.590   5.780   6.465  0.5004  0.0093  0.7742
 1007MOL0     C35832   0.646   5.692   6.354 -0.4757 -0.3052 -0.5990
 1007MOL0     C35833   0.631   5.751   6.213 -0.2756  0.3212 -0.5271
 1007MOL0     O35834   0.641   5.633   6.122  0.0255  0.0490 -0.2397
 1007MOL0     C35835   0.766   5.601   6.061  0.4361 -0.1398  0.3013
 1007MOL0     C35836   0.770   5.501   5.960 -0.0432 -0.1397  0.3946
 1007MOL0     C35837   0.893   5.459   5.902 -0.0386  0.9845 -0.2748
 1007MOL0     C35838   0.893   5.345   5.801 -0.0441  0.0245 -0.1345
 1007MOL0     C35839   1.013   5.514   5.942 -0.3411  0.5391  0.3950
 1007MOL0     C35840   1.155   5.482   5.911 -0.3385 -1.0412 -0.1784
 1007MOL0     O35841   1.255   5.527   5.992 -0.7223  0.1813 -0.5140
 1007MOL0     C35842   1.388   5.485   5.983 -0.9289  0.3673 -0.4742
 1007MOL0     C35843   1.451   5.365   5.944 -0.3965  0.7062  0.4041
 1007MOL0     C35844   1.591   5.344   5.955 -0.0619  0.0769 -0.4552
 1007MOL0     C35845   1.673   5.437   6.022  0.6533  0.6739  0.9014
 1007MOL0     O35846   1.805   5.420   6.014 -0.4009  0.2617  0.2279
 1007MOL0     C35847   1.850   5.327   6.107 -0.1788  0.6113  0.6987
 1007MOL0     C35848   2.004   5.340   6.112 -0.1995 -0.5747 -0.6721
 1007MOL0     C35849   2.056   5.295   5.982 -0.6614 -0.0472 -0.6352
 1007MOL0     C35850   2.211   5.291   5.981  0.5870  0.0734  0.1974
 1007MOL0     C35851   2.256   5.432   5.926 -0.0848  0.0335  0.1237
 1007MOL0     C35852   2.409   5.432   5.900  0.2433 -0.2871  0.0498
 1007MOL0     C35853   2.467   5.534   5.810 -0.3874 -0.9980  0.8351
 1007MOL0     C35854   2.610   5.490   5.763 -0.4823 -0.6577  0.3337
 1007MOL0    Cl35855   2.666   5.606   5.635 -0.1835  0.1758 -0.5531
 1007MOL0     C35856   1.620   5.556   6.059  0.2329 -0.3231 -0.3630
 1007MOL0     C35857   1.484   5.575   6.047 -0.3393  0.1444 -0.1735
 1007MOL0     O35858   1.169   5.427   5.802 -0.2457  0.1042  1.0698
 1007MOL0     C35859   1.001   5.624   6.027  0.5201 -0.5199 -0.2869
 1007MOL0     C35860   0.887   5.667   6.097 -0.2427 -0.5272  0.1893
 1007MOL0     N35861   0.817   5.830   6.711 -0.0508 -0.1444 -0.4580
 1007MOL0     N35862   0.924   5.767   6.739 -0.9041  0.2192  0.8041
 1007MOL0     C35863   1.593   5.711   7.269  0.0875 -1.2262  0.0373
 1007MOL0     C35864   1.652   5.608   7.337  0.4299  0.4164  0.7212
 1007MOL0     C35865   1.733   5.360   7.721  0.0159  0.6147  0.1265
 1007MOL0     C35866   1.664   5.330   7.836  0.4204  0.2648 -0.0034
 1007MOL0     C35867   1.712   5.232   7.929  1.0743 -0.1756 -0.0274
 1007MOL0     C35868   1.823   5.151   7.899 -0.3575 -0.2438  0.0609
 1007MOL0     O35869   1.871   5.070   8.000 -0.1891 -0.4262 -0.1139
 1007MOL0     C35870   1.905   4.941   7.954 -0.0946  0.1066 -0.5409
 1007MOL0     C35871   1.802   4.859   7.873 -0.1266 -0.0088  0.1714
 1007MOL0     C35872   1.840   4.708   7.863  0.1839  0.6549 -0.5517
 1007MOL0     C35873   1.733   4.631   7.782 -1.4640  1.7133  0.8364
 1007MOL0     C35874   1.601   4.639   7.835  0.3296  0.6138  0.9702
 1007MOL0     C35875   1.481   4.639   7.864  0.6514  0.0390 -0.0255
 1007MOL0     C35876   1.893   5.181   7.786 -0.1251 -0.1722 -0.6966
 1007MOL0     C35877   1.852   5.289   7.694  0.7169  0.2950  0.4149
 1007MOL0     H35878   1.712   5.767   7.636  0.8378  0.3727 -0.9196
 1007MOL0     H35879   1.582   5.946   7.523 -0.4566 -0.7669  1.0421
 1007MOL0     H35880   1.601   6.116   7.232 -1.2894 -2.6423  2.3401
 1007MOL0     H35881   1.701   5.984   7.175 -0.2191 -1.4810  0.1357
 1007MOL0     H35882   1.450   6.100   7.055  0.3420 -0.5810  1.7634
 1007MOL0     H35883   1.620   6.121   6.986  0.9219 -1.0040 -0.2069
 1007MOL0     H35884   1.619   5.902   6.897 -2.0730 -2.8989 -2.8661
 1007MOL0     H35885   1.512   5.843   7.029 -3.6030  0.0246 -0.7355
 1007MOL0     H35886   1.329   5.984   6.909  1.4223  0.9045  3.1040
 1007MOL0     H35887   1.446   5.980   6.770  2.2314 -1.5672 -1.0582
 1007MOL0     H35888   1.456   5.741   6.758  0.7266  1.9113 -1.3350
 1007MOL0     H35889   1.354   5.745   6.903  2.9113 -1.5401  0.2737
 1007MOL0     H35890   1.182   5.857   6.772  1.7281 -0.5142  2.3986
 1007MOL0     H35891   1.281   5.832   6.621  4.7352 -0.8134  1.0149
 1007MOL0     H35892   1.286   5.587   6.660 -1.5074 -4.7048  1.0130
 1007MOL0     H35893   1.177   5.593   6.792 -1.8732  2.0348  0.5488
 1007MOL0     H35894   1.054   5.537   6.581  1.7838  0.4450 -0.5205
 1007MOL0     H35895   1.130   5.662   6.496 -1.6297 -2.4567 -1.3324
 1007MOL0     H35896   0.925   5.793   6.411  3.1366  1.5148  0.0171
 1007MOL0     H35897   0.618   5.956   6.587  0.7872  1.1894 -0.7379
 1007MOL0     H35898   0.701   5.960   6.433 -1.8104 -0.0026 -0.3726
 1007MOL0     H35899   0.491   5.819   6.438  0.9280  0.9103  0.4868
 1007MOL0     H35900   0.572   5.708   6.546 -2.2090  1.8904  2.0039
 1007MOL0     H35901   0.591   5.598   6.366  1.2076 -1.4738 -1.6063
 1007MOL0     H35902   0.749   5.658   6.372 -0.5244  0.6478  1.9423
 1007MOL0     H35903   0.714   5.821   6.195  0.6928 -0.5706  0.2961
 1007MOL0     H35904   0.531   5.794   6.209 -1.0818 -1.1596  1.6457
 1007MOL0     H35905   0.677   5.459   5.924 -2.8489  3.6798  2.4362
 1007MOL0     H35906   0.972   5.269   5.810  2.6807  2.3905 -2.1230
 1007MOL0     H35907   0.800   5.288   5.792 -0.0878 -0.0967  0.9657
 1007MOL0     H35908   0.910   5.396   5.706 -1.9169  3.2036  1.0749
 1007MOL0     H35909   1.391   5.284   5.904 -0.6290 -1.2500  4.2386
 1007MOL0     H35910   1.632   5.258   5.902 -2.1352 -2.7406  2.1112
 1007MOL0     H35911   1.806   5.337   6.206 -1.0266  1.6068  0.2363
 1007MOL0     H35912   1.826   5.225   6.075 -2.0807  1.7103 -1.7828
 1007MOL0     H35913   2.032   5.445   6.122 -2.5418  0.0464 -0.1569
 1007MOL0     H35914   2.049   5.273   6.185  0.1613 -2.7393 -2.7235
 1007MOL0     H35915   2.018   5.354   5.898 -0.8862 -0.5944 -0.9211
 1007MOL0     H35916   2.038   5.188   5.969  1.9097 -0.5140 -0.8316
 1007MOL0     H35917   2.251   5.274   6.082 -0.6394  2.0929  1.0798
 1007MOL0     H35918   2.245   5.212   5.914 -2.4475  0.4454 -1.9560
 1007MOL0     H35919   2.241   5.509   6.002 -0.4238 -0.7514  0.8628
 1007MOL0     H35920   2.201   5.450   5.833 -3.0182 -0.0538  1.7445
 1007MOL0     H35921   2.465   5.426   5.994  0.7780 -0.2690 -0.2633
 1007MOL0     H35922   2.424   5.333   5.856 -3.9752 -2.2583  2.3750
 1007MOL0     H35923   2.486   5.627   5.865 -3.3727  0.5180 -0.4230
 1007MOL0     H35924   2.400   5.561   5.728 -1.7529  0.3164  2.3179
 1007MOL0     H35925   2.622   5.393   5.715  2.1440  1.1085 -3.0011
 1007MOL0     H35926   2.667   5.475   5.855 -2.3462 -1.1314  1.4825
 1007MOL0     H35927   1.677   5.643   6.091  0.1938 -0.8043  1.0800
 1007MOL0     H35928   1.456   5.672   6.085 -1.9429 -0.4250  0.1806
 1007MOL0     H35929   1.082   5.681   6.072  1.2619 -3.2161  2.1302
 1007MOL0     H35930   0.896   5.747   6.170  0.3614  0.3657 -0.8266
 1007MOL0     H35931   1.560   5.686   7.169 -2.6541 -2.0613  1.0786
 1007MOL0     H35932   1.666   5.511   7.290 -2.0671  0.7325 -0.8554
 1007MOL0     H35933   1.565   5.364   7.865 -0.5900 -3.3039  1.2714
 1007MOL0     H35934   1.646   5.206   8.011  0.8758  0.1972 -0.0680
 1007MOL0     H35935   1.997   4.958   7.897 -0.5190  0.6984 -1.0663
 1007MOL0     H35936   1.934   4.874   8.036  3.1110 -0.7885 -2.2227
 1007MOL0     H35937   1.796   4.902   7.773  0.5239  3.1770  1.3592
 1007MOL0     H35938   1.704   4.884   7.916 -0.5612  2.8690 -2.1955
 1007MOL0     H35939   1.847   4.664   7.963 -0.5453 -1.3662 -1.3336
 1007MOL0     H35940   1.940   4.706   7.818  1.3261  5.0212  1.2834
 1007MOL0     H35941   1.755   4.524   7.779  0.2824  2.0223  1.1777
 1007MOL0     H35942   1.731   4.665   7.678  1.1201 -2.6919 -0.9463
 1007MOL0     H35943   1.377   4.626   7.888  0.4783  4.1103  2.3960
 1007MOL0     H35944   1.986   5.128   7.767 -1.2136 -2.4022 -0.1923
 1007MOL0     H35945   1.910   5.305   7.603 -0.8000 -1.9971 -1.0899
 1008MOL0     O35946   0.655   4.317   2.841  0.4181 -0.0711 -0.4297
 1008MOL0     C35947   0.755   4.311   2.772 -0.6228 -0.3218 -0.4739
 1008MOL0     O35948   0.754   4.321   2.635  0.0664 -0.7553 -0.2555
 1008MOL0     C35949   0.624   4.325   2.581 -0.6375  0.3587  0.3338
 1008MOL0     C35950   0.539   4.215   2.592  0.1977 -0.4114  0.2526
 1008MOL0     C35951   0.408   4.230   2.548  1.0411  0.7604 -0.6468
 1008MOL0     C35952   0.360   4.339   2.473  1.5911  0.3976 -0.1784
 1008MOL0     O35953   0.228   4.356   2.439 -0.9658  0.2778  0.1180
 1008MOL0     C35954   0.124   4.314   2.526 -0.7858  0.2421 -0.1876
 1008MOL0     C35955  -0.001   4.395   2.502 -0.2433  0.1031  0.5733
 1008MOL0     C35956  -0.136   4.341   2.563 -0.7953  0.3561  0.2896
 1008MOL0     C35957  -0.261   4.369   2.479 -0.5646 -0.0909 -1.0915
 1008MOL0     C35958  -0.398   4.357   2.557 -1.4872 -0.4872  0.3516
 1008MOL0     C35959  -0.426   4.213   2.589 -0.3501 -0.0218  0.3094
 1008MOL0     C35960  -0.566   4.193   2.664 -0.7192  0.1874 -0.3051
 1008MOL0     C35961  -0.572   4.046   2.721 -0.5938 -0.3284  0.2851
 1008MOL0     N35962  -0.711   4.018   2.770 -0.3348 -0.2799 -0.7389
 1008MOL0     C35963  -0.772   4.069   2.879  0.1100 -0.1391  0.7241
 1008MOL0     C35964  -0.890   3.998   2.889 -0.6861  0.2221  0.1847
 1008MOL0     C35965  -0.988   4.026   2.994  0.7929 -0.3752 -0.1894
 1008MOL0     C35966  -0.922   4.032   3.135 -0.2654 -0.1557 -0.1941
 1008MOL0     C35967  -1.020   4.030   3.253  0.4311 -0.3858 -0.1461
 1008MOL0     C35968  -0.941   4.025   3.380  0.3697 -0.1626 -0.8613
 1008MOL0     O35969  -0.852   3.914   3.390 -0.0967  0.5536 -0.0182
 1008MOL0     C35970  -0.898   3.804   3.453  0.2311 -0.8219  0.0709
 1008MOL0     C35971  -0.800   3.711   3.476  0.3461 -1.0008  0.2970
 1008MOL0     C35972  -0.828   3.596   3.551  1.1817  0.6841  0.5406
 1008MOL0     C35973  -0.709   3.507   3.578 -0.5985 -0.1628  0.0132
 1008MOL0     C35974  -0.958   3.563   3.583 -1.1607  0.0677  0.3545
 1008MOL0     C35975  -0.986   3.435   3.642  0.0632 -1.2954  0.3464
 1008MOL0     O35976  -0.922   3.409   3.760  0.2819  0.2541 -0.3874
 1008MOL0     C35977  -0.943   3.287   3.816  0.6366 -0.1206  0.5562
 1008MOL0     C35978  -0.904   3.166   3.757 -0.8322 -0.8048 -0.0078
 1008MOL0     C35979  -0.928   3.048   3.821  0.4216 -0.4758  0.0670
 1008MOL0     C35980  -1.005   3.046   3.941  1.2026  0.7942  0.1084
 1008MOL0     O35981  -1.040   2.932   4.005  0.2265  0.3322  0.0985
 1008MOL0     C35982  -0.988   2.807   3.956  0.4552  0.2481  0.1445
 1008MOL0     C35983  -1.054   2.706   4.040  0.2667 -1.2253 -0.3100
 1008MOL0     C35984  -1.059   2.566   3.982 -0.0846 -0.1666 -0.7125
 1008MOL0     C35985  -1.159   2.473   4.060 -0.6948 -0.2044  0.2040
 1008MOL0     C35986  -1.191   2.328   4.007  0.7933  0.5547  0.5238
 1008MOL0     C35987  -1.290   2.251   4.082 -0.3694 -0.4400  0.6085
 1008MOL0     C35988  -1.334   2.134   4.000 -0.5233  0.4398  0.6464
 1008MOL0     C35989  -1.443   2.053   4.069 -0.7843 -0.4871  0.4198
 1008MOL0    Cl35990  -1.585   2.138   4.092 -0.0789 -0.4825  0.7614
 1008MOL0     C35991  -1.028   3.169   4.015  0.5946  0.4106 -0.7340
 1008MOL0     C35992  -0.992   3.290   3.950 -0.4983  1.1070 -1.2745
 1008MOL0     O35993  -1.076   3.367   3.596 -0.1010 -0.4185  0.1059
 1008MOL0     C35994  -1.059   3.659   3.545  0.2528  0.8904 -0.4029
 1008MOL0     C35995  -1.030   3.780   3.483  0.2873 -0.2622  0.2432
 1008MOL0     N35996  -0.896   3.898   2.791 -0.7792  0.3501 -0.9128
 1008MOL0     N35997  -0.787   3.914   2.723  0.4071 -0.0205  0.7861
 1008MOL0     C35998   0.445   4.448   2.461 -0.3891  0.6291 -0.0622
 1008MOL0     C35999   0.573   4.436   2.507  0.3995  0.2170 -1.1572
 1008MOL0     C36000   0.885   4.277   2.838 -0.0182  0.5112 -0.1572
 1008MOL0     C36001   0.988   4.241   2.757 -0.6348  1.3125  0.2644
 1008MOL0     C36002   1.108   4.199   2.810 -0.0253  0.8301  0.0318
 1008MOL0     C36003   1.133   4.190   2.949  0.4036  0.4999  0.1761
 1008MOL0     O36004   1.261   4.163   2.992 -0.0068  0.4999 -0.1080
 1008MOL0     C36005   1.308   4.166   3.126  0.4301  0.1910  0.0664
 1008MOL0     C36006   1.452   4.122   3.118 -0.5466  0.0526 -0.3743
 1008MOL0     C36007   1.543   4.134   3.244  0.8372  0.4612 -0.1288
 1008MOL0     C36008   1.660   4.053   3.227  0.1500  0.7261  0.6088
 1008MOL0     C36009   1.761   4.080   3.323  0.4598 -0.8349 -0.0219
 1008MOL0     C36010   1.836   4.107   3.413  0.2238 -0.2721  0.2930
 1008MOL0     C36011   1.023   4.208   3.042  0.8583 -0.2832 -0.0662
 1008MOL0     C36012   0.897   4.246   2.978  0.2730 -1.3270 -0.4815
 1008MOL0     H36013   0.559   4.129   2.654 -0.5854  0.6970  2.1328
 1008MOL0     H36014   0.338   4.151   2.573 -0.0796  1.9983  0.2982
 1008MOL0     H36015   0.097   4.210   2.503 -0.7880  0.6495 -2.2252
 1008MOL0     H36016   0.159   4.322   2.629  2.8514 -0.4536 -1.2432
 1008MOL0     H36017   0.009   4.503   2.514 -0.6285  0.3238 -0.8529
 1008MOL0     H36018  -0.021   4.401   2.394 -0.1679  2.6743  0.6406
 1008MOL0     H36019  -0.138   4.231   2.565 -2.5082  0.3646  0.8719
 1008MOL0     H36020  -0.156   4.389   2.658 -0.4117 -1.3944  1.3085
 1008MOL0     H36021  -0.243   4.470   2.442 -0.5120  1.4113  2.6235
 1008MOL0     H36022  -0.252   4.295   2.399  2.7620 -2.1016  0.9028
 1008MOL0     H36023  -0.387   4.415   2.649 -0.5561  1.0038 -0.6436
 1008MOL0     H36024  -0.477   4.398   2.494  0.0223  1.3495 -0.4338
 1008MOL0     H36025  -0.436   4.153   2.498  0.1951 -1.9140  1.4491
 1008MOL0     H36026  -0.344   4.170   2.646  0.3077  1.2513  0.3660
 1008MOL0     H36027  -0.580   4.267   2.744 -1.5918 -0.0219 -0.2592
 1008MOL0     H36028  -0.645   4.211   2.591 -2.1213  2.6215  1.6083
 1008MOL0     H36029  -0.488   4.028   2.789 -1.8547  0.3445  2.0957
 1008MOL0     H36030  -0.550   3.976   2.639 -0.8828 -0.4253  0.2898
 1008MOL0     H36031  -0.740   4.153   2.940  1.3752  0.1956 -0.3547
 1008MOL0     H36032  -1.020   4.125   2.963  1.7000  0.6896  2.0736
 1008MOL0     H36033  -1.072   3.956   2.997  1.9714 -1.8057  1.2173
 1008MOL0     H36034  -0.861   4.121   3.143 -1.8093  0.8922  0.3181
 1008MOL0     H36035  -0.856   3.945   3.144  0.2438  0.2921  0.3995
 1008MOL0     H36036  -1.084   3.941   3.246 -1.1284  0.7374 -0.6411
 1008MOL0     H36037  -1.091   4.113   3.258  0.9453  0.0180  0.8688
 1008MOL0     H36038  -1.004   4.031   3.469 -2.3852  1.1213 -2.7444
 1008MOL0     H36039  -0.881   4.116   3.390  1.2299 -0.6564 -1.4136
 1008MOL0     H36040  -0.694   3.733   3.466  1.1506 -4.9146 -1.7176
 1008MOL0     H36041  -0.615   3.538   3.531 -0.7796  0.1985 -0.1095
 1008MOL0     H36042  -0.676   3.520   3.681  2.7643 -2.3772 -0.6077
 1008MOL0     H36043  -0.731   3.403   3.553 -1.4529  0.2678 -1.1310
 1008MOL0     H36044  -0.860   3.180   3.659  0.7846  0.3500  0.8279
 1008MOL0     H36045  -0.900   2.958   3.767 -2.8800 -3.0050  2.2117
 1008MOL0     H36046  -1.008   2.786   3.850  1.1301 -0.0383  0.0651
 1008MOL0     H36047  -0.879   2.798   3.959  0.3365 -2.0463 -0.3692
 1008MOL0     H36048  -1.026   2.729   4.143 -0.5728 -2.3858  0.1974
 1008MOL0     H36049  -1.161   2.729   4.054 -0.0566  0.8748 -4.6908
 1008MOL0     H36050  -0.964   2.515   3.995 -1.6071 -2.8452  0.7931
 1008MOL0     H36051  -1.085   2.562   3.876  0.8223 -1.6976 -0.8970
 1008MOL0     H36052  -1.134   2.463   4.166 -0.2988 -5.1338 -0.1266
 1008MOL0     H36053  -1.255   2.522   4.047 -1.0827 -1.1658 -0.6370
 1008MOL0     H36054  -1.097   2.273   3.997  0.6607  0.4687 -0.4077
 1008MOL0     H36055  -1.232   2.324   3.905  0.6993  0.7070  0.5546
 1008MOL0     H36056  -1.247   2.211   4.174  0.3191 -0.1759  0.4018
 1008MOL0     H36057  -1.374   2.318   4.102  1.3539  3.3307 -3.3105
 1008MOL0     H36058  -1.250   2.065   3.985  1.3816  2.5609  1.0120
 1008MOL0     H36059  -1.372   2.161   3.901  1.0361 -1.5322 -0.5611
 1008MOL0     H36060  -1.407   2.026   4.169 -1.1216 -0.2747  0.5987
 1008MOL0     H36061  -1.448   1.962   4.009  0.8622 -1.8306  2.1786
 1008MOL0     H36062  -1.072   3.179   4.114  0.1688  0.9451 -0.9754
 1008MOL0     H36063  -0.996   3.388   3.997  0.8167  0.1898  0.8950
 1008MOL0     H36064  -1.163   3.639   3.568  0.7025 -1.4169 -0.0730
 1008MOL0     H36065  -1.102   3.858   3.459 -0.1726 -1.2270 -1.7446
 1008MOL0     H36066   0.404   4.537   2.416  0.3480  1.2907  0.5502
 1008MOL0     H36067   0.639   4.523   2.509 -0.5108  1.0142  2.8208
 1008MOL0     H36068   0.974   4.226   2.650 -0.6239 -2.4304  0.6594
 1008MOL0     H36069   1.193   4.162   2.753 -0.6055 -1.9878  0.8720
 1008MOL0     H36070   1.297   4.266   3.170 -1.4079  1.5026 -2.9461
 1008MOL0     H36071   1.249   4.094   3.183 -0.3980 -2.9749 -4.2760
 1008MOL0     H36072   1.503   4.182   3.042  2.4048  0.1671  1.5266
 1008MOL0     H36073   1.450   4.016   3.090 -2.5896 -0.2362  0.7023
 1008MOL0     H36074   1.486   4.097   3.330  3.0782 -3.0591  0.0699
 1008MOL0     H36075   1.573   4.238   3.257 -0.1423  0.9864 -1.7965
 1008MOL0     H36076   1.712   4.071   3.132  1.3234 -2.0386  0.6258
 1008MOL0     H36077   1.637   3.946   3.234  0.2544  0.4843 -1.8195
 1008MOL0     H36078   1.882   4.118   3.510 -1.3326  0.9895  0.9205
 1008MOL0     H36079   1.030   4.187   3.148 -1.1818  2.3273  0.6837
 1008MOL0     H36080   0.805   4.244   3.036  1.9612  0.1879  2.5311
 1009MOL0     O36081   1.256   1.798   1.583 -0.0280 -0.6953 -0.9749
 1009MOL0     C36082   1.210   1.872   1.668 -0.5481 -0.1615 -0.5039
 1009MOL0     O36083   1.172   1.838   1.797 -0.7296 -0.0976 -0.2179
 1009MOL0     C36084   1.195   1.715   1.844  0.3790 -0.1182  0.1102
 1009MOL0     C36085   1.113   1.656   1.940 -0.6018  0.4460 -0.4441
 1009MOL0     C36086   1.137   1.524   1.985 -0.2600 -0.5725  0.0356
 1009MOL0     C36087   1.245   1.452   1.937  0.3020  0.2420 -0.3698
 1009MOL0     O36088   1.265   1.325   1.988 -0.2817 -0.2497  0.2013
 1009MOL0     C36089   1.394   1.256   1.978  0.3482 -0.7310 -0.6185
 1009MOL0     C36090   1.406   1.125   2.044 -0.3333 -0.4221  0.0385
 1009MOL0     C36091   1.534   1.117   2.120 -0.5972 -0.2936 -1.0208
 1009MOL0     C36092   1.549   0.976   2.163 -0.2669 -0.0679 -1.3812
 1009MOL0     C36093   1.645   0.958   2.284  0.1414 -0.4313 -0.2434
 1009MOL0     C36094   1.649   0.812   2.332 -0.5819  0.2844 -0.0590
 1009MOL0     C36095   1.546   0.778   2.443 -0.1841  1.1993  0.2796
 1009MOL0     C36096   1.537   0.618   2.457  0.3127  0.2047  0.4870
 1009MOL0     N36097   1.489   0.550   2.342  0.0272 -0.1626  1.1460
 1009MOL0     C36098   1.387   0.590   2.263  0.9072 -0.5727  0.1258
 1009MOL0     C36099   1.398   0.511   2.151 -0.0545 -0.1553 -0.3707
 1009MOL0     C36100   1.322   0.522   2.023  1.1992  0.2833  0.4611
 1009MOL0     C36101   1.317   0.667   1.986 -0.5401  0.0381  0.4173
 1009MOL0     C36102   1.231   0.689   1.861  0.1968  0.6777  0.0355
 1009MOL0     C36103   1.075   0.671   1.881  0.5456 -0.6435  0.0046
 1009MOL0     O36104   1.028   0.758   1.987  0.2379  0.7303  1.1821
 1009MOL0     C36105   0.895   0.791   1.977 -0.4536  0.2152  0.0603
 1009MOL0     C36106   0.795   0.694   1.971  0.6279  0.4023  0.6118
 1009MOL0     C36107   0.661   0.739   1.983 -0.0555 -0.0300 -0.5038
 1009MOL0     C36108   0.561   0.631   1.986 -0.1253  0.2378  0.6664
 1009MOL0     C36109   0.621   0.885   1.992  0.2022  0.1063  0.2692
 1009MOL0     C36110   0.485   0.948   2.001  0.2063  0.9729 -1.3545
 1009MOL0     O36111   0.483   1.086   1.971 -0.3761  0.5860 -0.1518
 1009MOL0     C36112   0.362   1.157   1.975 -0.7824  0.3312  0.6695
 1009MOL0     C36113   0.231   1.100   1.981  0.2897 -0.3838  0.5127
 1009MOL0     C36114   0.117   1.180   1.973 -0.0805  0.4623 -0.6800
 1009MOL0     C36115   0.132   1.321   1.961 -0.0805  0.0700  0.1191
 1009MOL0     O36116   0.020   1.401   1.962  0.0261  0.7389  1.3485
 1009MOL0     C36117   0.033   1.519   2.037  0.0167 -0.4734 -0.4057
 1009MOL0     C36118  -0.084   1.532   2.124  0.7854 -0.2460  0.1386
 1009MOL0     C36119  -0.072   1.653   2.222 -0.5964  0.0547 -0.4099
 1009MOL0     C36120  -0.088   1.794   2.164  0.8930 -0.2251  0.5295
 1009MOL0     C36121  -0.094   1.898   2.270  0.5617  0.3174 -0.5440
 1009MOL0     C36122   0.025   1.924   2.369  0.8014  0.6092 -0.0351
 1009MOL0     C36123  -0.001   2.045   2.457  0.3337  0.4920 -0.0714
 1009MOL0     C36124   0.106   2.046   2.565 -0.4159  0.1043  0.2909
 1009MOL0    Cl36125   0.251   2.152   2.532 -0.2029  0.1205 -0.4051
 1009MOL0     C36126   0.264   1.378   1.953 -0.2798  0.2391  0.3475
 1009MOL0     C36127   0.369   1.295   1.953 -0.2266  0.8194  0.4808
 1009MOL0     O36128   0.399   0.876   2.055 -0.2850  0.0887 -0.0619
 1009MOL0     C36129   0.735   0.972   1.995 -0.0160  0.6536 -0.2864
 1009MOL0     C36130   0.864   0.928   1.974  0.3445 -0.1945 -0.2004
 1009MOL0     N36131   1.500   0.427   2.172  0.0356 -0.7806  0.5968
 1009MOL0     N36132   1.551   0.447   2.285 -1.1714  0.2954  0.3463
 1009MOL0     C36133   1.320   1.504   1.839  0.4563  0.6698  0.7952
 1009MOL0     C36134   1.302   1.630   1.807  0.4238 -0.3994  0.5651
 1009MOL0     C36135   1.201   2.018   1.639  0.5329  0.1433 -0.7904
 1009MOL0     C36136   1.154   2.102   1.744 -0.1322 -0.7029  0.1426
 1009MOL0     C36137   1.143   2.241   1.717 -0.7606  0.3012  0.6889
 1009MOL0     C36138   1.194   2.291   1.598 -0.6831 -0.8457  1.0349
 1009MOL0     O36139   1.178   2.425   1.578  0.3927  0.6422  0.2760
 1009MOL0     C36140   1.045   2.476   1.537 -0.6236  0.1476  0.9325
 1009MOL0     C36141   1.045   2.629   1.556 -0.5097 -0.3464  0.4899
 1009MOL0     C36142   1.152   2.704   1.469  0.6130 -0.0367  0.3197
 1009MOL0     C36143   1.149   2.854   1.500 -0.2129 -0.7852 -0.2406
 1009MOL0     C36144   1.220   2.920   1.385  0.3589 -0.0224 -0.2148
 1009MOL0     C36145   1.290   2.973   1.298  0.0556 -0.7318 -0.6209
 1009MOL0     C36146   1.261   2.212   1.508  0.8689  0.5154  1.3499
 1009MOL0     C36147   1.272   2.071   1.538 -0.6411 -0.0983  0.7944
 1009MOL0     H36148   1.022   1.700   1.978 -1.7705 -2.6998  0.7258
 1009MOL0     H36149   1.078   1.483   2.066 -0.7824 -1.0843 -0.6011
 1009MOL0     H36150   1.427   1.233   1.876  2.1377  2.8201 -0.9781
 1009MOL0     H36151   1.457   1.337   2.015 -0.3223  0.3639 -1.8100
 1009MOL0     H36152   1.322   1.099   2.109 -0.5786 -1.4734 -0.6822
 1009MOL0     H36153   1.399   1.046   1.969 -0.0935 -2.0318  1.6465
 1009MOL0     H36154   1.624   1.133   2.060  0.7583  0.5333  1.1294
 1009MOL0     H36155   1.540   1.193   2.198 -0.7827 -1.9602  0.6698
 1009MOL0     H36156   1.458   0.934   2.206  0.1913  0.9352  0.6779
 1009MOL0     H36157   1.583   0.908   2.084  0.8033 -1.4942  0.2443
 1009MOL0     H36158   1.745   0.984   2.246  0.1940 -1.1742 -0.6303
 1009MOL0     H36159   1.630   1.036   2.360  0.5545  1.3863 -1.9316
 1009MOL0     H36160   1.640   0.758   2.237 -2.2421  1.9001 -0.8989
 1009MOL0     H36161   1.741   0.778   2.379 -1.4532 -0.4402  1.1817
 1009MOL0     H36162   1.585   0.813   2.539 -1.4038  1.5673  0.6696
 1009MOL0     H36163   1.443   0.810   2.420 -1.1741 -2.3201 -0.7876
 1009MOL0     H36164   1.474   0.594   2.543 -1.0459  1.2715 -0.1689
 1009MOL0     H36165   1.634   0.576   2.485  0.4186  0.2991  0.2696
 1009MOL0     H36166   1.318   0.671   2.281  0.7623 -0.8680  0.9299
 1009MOL0     H36167   1.364   0.467   1.939 -1.7404 -0.1421 -0.8752
 1009MOL0     H36168   1.222   0.477   2.035  1.5703 -0.2135  1.8884
 1009MOL0     H36169   1.414   0.715   1.974  0.7797 -3.0361 -2.8145
 1009MOL0     H36170   1.277   0.714   2.076 -1.9019 -0.5191  0.1327
 1009MOL0     H36171   1.271   0.633   1.776  1.7172 -2.0788  2.3608
 1009MOL0     H36172   1.248   0.794   1.837  2.0630  0.3615 -0.2044
 1009MOL0     H36173   1.053   0.568   1.913  0.2516 -0.4230  0.5122
 1009MOL0     H36174   1.022   0.691   1.788 -0.5450 -0.8440  0.5684
 1009MOL0     H36175   0.825   0.590   1.966 -3.6186 -1.0446  1.0536
 1009MOL0     H36176   0.601   0.551   1.923  0.8573  0.0693  1.4793
 1009MOL0     H36177   0.553   0.599   2.090 -0.3245  1.9243  1.1928
 1009MOL0     H36178   0.459   0.653   1.952 -1.4382 -3.7633  1.5153
 1009MOL0     H36179   0.206   0.995   1.982  0.4258 -0.4183  1.6561
 1009MOL0     H36180   0.017   1.138   1.981 -1.9943  4.6096 -0.1280
 1009MOL0     H36181   0.122   1.516   2.100  1.0550  1.5184 -1.6880
 1009MOL0     H36182   0.028   1.600   1.964 -2.2811  0.2076  0.4090
 1009MOL0     H36183  -0.177   1.548   2.068 -0.4618 -5.0451  0.3650
 1009MOL0     H36184  -0.101   1.444   2.188 -0.0692  0.1078  0.4234
 1009MOL0     H36185   0.027   1.652   2.268 -0.6774  0.7141 -0.2084
 1009MOL0     H36186  -0.152   1.644   2.296 -1.5632  1.2125 -1.2669
 1009MOL0     H36187  -0.006   1.813   2.095  0.4315 -0.8685 -0.2219
 1009MOL0     H36188  -0.179   1.807   2.104  1.1652  1.1832  0.4065
 1009MOL0     H36189  -0.187   1.882   2.326  1.3462 -3.7474 -0.0499
 1009MOL0     H36190  -0.105   1.987   2.209  4.3023  0.6994 -0.8908
 1009MOL0     H36191   0.028   1.835   2.433 -0.0396  0.6484  0.0686
 1009MOL0     H36192   0.119   1.940   2.315  1.1694  2.4864  1.0514
 1009MOL0     H36193  -0.099   2.035   2.504  0.2891  1.9511  0.1958
 1009MOL0     H36194   0.005   2.137   2.398 -1.7830  1.2322  0.7813
 1009MOL0     H36195   0.141   1.945   2.589 -2.9119 -0.5630  1.4698
 1009MOL0     H36196   0.063   2.082   2.659  1.4214 -0.7707  1.5179
 1009MOL0     H36197   0.283   1.481   1.926  0.8351 -0.2883 -0.9925
 1009MOL0     H36198   0.470   1.334   1.941 -0.1187  0.4887  0.3146
 1009MOL0     H36199   0.729   1.080   2.004 -0.7857  0.6293 -0.4369
 1009MOL0     H36200   0.937   1.008   1.962 -1.2271  0.8650 -4.8117
 1009MOL0     H36201   1.406   1.449   1.802 -1.6479 -0.6554 -2.6338
 1009MOL0     H36202   1.381   1.687   1.758 -0.7474 -0.8043 -1.9459
 1009MOL0     H36203   1.117   2.053   1.834  0.5611 -1.6226 -0.0500
 1009MOL0     H36204   1.101   2.311   1.788 -1.7046  0.0685  0.3708
 1009MOL0     H36205   1.016   2.444   1.436  2.0383 -2.9289  0.9642
 1009MOL0     H36206   0.974   2.430   1.607  2.0330  0.5421  4.1231
 1009MOL0     H36207   1.056   2.658   1.661  0.3399 -2.7904  1.1394
 1009MOL0     H36208   0.949   2.667   1.518 -0.3479 -2.1873 -1.9928
 1009MOL0     H36209   1.109   2.686   1.370 -1.2994  1.4768  0.8045
 1009MOL0     H36210   1.253   2.666   1.489 -0.7129 -2.3784  3.6443
 1009MOL0     H36211   1.184   2.882   1.599 -4.1905 -2.8355  1.9812
 1009MOL0     H36212   1.044   2.883   1.503  0.0391  0.1265 -0.0183
 1009MOL0     H36213   1.357   3.012   1.224  0.7191 -1.3524 -0.3617
 1009MOL0     H36214   1.302   2.259   1.419  1.6281  1.3243  2.1023
 1009MOL0     H36215   1.321   2.002   1.471  0.0650  0.0262  1.1693
 1010MOL0     O36216   7.086   0.634   0.715 -0.3111  0.1877 -0.0936
 1010MOL0     C36217   7.172   0.664   0.629 -0.2519  0.9165 -0.3395
 1010MOL0     O36218   7.195   0.789   0.576  0.3918 -0.0448 -0.2866
 1010MOL0     C36219   7.115   0.898   0.607  0.3655  0.4465  0.3483
 1010MOL0     C36220   7.172   1.025   0.578 -0.2451 -0.6732  0.3290
 1010MOL0     C36221   7.116   1.148   0.600  0.7125 -0.4487 -0.5365
 1010MOL0     C36222   6.975   1.152   0.633  0.2512  0.3593  0.4181
 1010MOL0     O36223   6.905   1.269   0.648  0.2861 -0.2260 -0.0570
 1010MOL0     C36224   6.941   1.358   0.541 -0.0925 -0.3735 -0.4565
 1010MOL0     C36225   6.823   1.364   0.452 -0.0437 -0.5874 -0.9287
 1010MOL0     C36226   6.687   1.398   0.524  0.6802  0.0225  0.2434
 1010MOL0     C36227   6.565   1.421   0.430 -0.6076  0.1575 -0.4153
 1010MOL0     C36228   6.447   1.447   0.515  0.5646  1.1218 -0.2575
 1010MOL0     C36229   6.330   1.517   0.441  0.1823  0.5393  0.4072
 1010MOL0     C36230   6.292   1.453   0.302  1.0290  0.5535 -0.6698
 1010MOL0     C36231   6.223   1.313   0.319  0.9456  0.1591  0.2877
 1010MOL0     N36232   6.093   1.326   0.392  0.2218 -0.6030  0.2553
 1010MOL0     C36233   5.970   1.366   0.337 -0.0594  0.8534  0.0918
 1010MOL0     C36234   5.884   1.354   0.434  0.5411  0.9487 -0.1679
 1010MOL0     C36235   5.742   1.397   0.418 -0.8392 -0.4026 -0.1519
 1010MOL0     C36236   5.712   1.505   0.522 -0.1634  0.1098 -0.2311
 1010MOL0     C36237   5.801   1.634   0.508  1.3128  0.3958 -0.2961
 1010MOL0     C36238   5.727   1.755   0.563  0.2504 -1.5290 -0.5275
 1010MOL0     O36239   5.804   1.879   0.573 -0.4658 -0.1204 -0.2171
 1010MOL0     C36240   5.727   1.969   0.631 -0.8861 -0.6540 -0.5359
 1010MOL0     C36241   5.683   2.080   0.560 -0.4275  0.2645  0.2604
 1010MOL0     C36242   5.595   2.173   0.608  0.4492  0.4164  0.4715
 1010MOL0     C36243   5.563   2.272   0.506 -0.3811  0.5800 -0.7742
 1010MOL0     C36244   5.546   2.166   0.741  0.0097 -0.1445 -0.1043
 1010MOL0     C36245   5.445   2.256   0.804 -0.9424 -0.3234 -1.0914
 1010MOL0     O36246   5.411   2.238   0.941 -0.0964  0.0856 -0.5389
 1010MOL0     C36247   5.341   2.345   0.993  0.1674 -0.7927 -0.5769
 1010MOL0     C36248   5.414   2.461   1.032  0.9242  0.3988  0.5460
 1010MOL0     C36249   5.341   2.572   1.066  0.4068  0.2325  1.1492
 1010MOL0     C36250   5.201   2.566   1.079  0.4587 -1.5050  0.1707
 1010MOL0     O36251   5.135   2.670   1.143 -0.1611 -0.4069  0.2385
 1010MOL0     C36252   5.126   2.657   1.281 -0.4656 -0.6829 -0.4144
 1010MOL0     C36253   5.238   2.743   1.347  0.7510 -0.5287  0.5610
 1010MOL0     C36254   5.247   2.734   1.492 -0.0333 -0.1582 -0.4058
 1010MOL0     C36255   5.358   2.833   1.544 -0.2607 -0.4129  0.4738
 1010MOL0     C36256   5.347   2.848   1.697 -0.5556  0.2679  0.7954
 1010MOL0     C36257   5.447   2.948   1.748  0.8637 -0.0731 -0.0539
 1010MOL0     C36258   5.434   2.962   1.895 -0.5886 -0.0559  0.2259
 1010MOL0     C36259   5.304   3.005   1.960  0.5020  0.1353  0.2616
 1010MOL0    Cl36260   5.216   3.133   1.861  0.1696  0.2797 -0.1792
 1010MOL0     C36261   5.134   2.449   1.039 -0.3237  0.1032 -0.8418
 1010MOL0     C36262   5.204   2.342   0.994 -0.4280 -0.3370  0.7840
 1010MOL0     O36263   5.394   2.347   0.731  0.1610 -0.2113 -1.0615
 1010MOL0     C36264   5.604   2.064   0.822  0.3295  0.0462 -0.3384
 1010MOL0     C36265   5.699   1.973   0.771  0.0563  0.3823 -0.0750
 1010MOL0     N36266   5.954   1.297   0.544  0.2715  0.1223  1.2300
 1010MOL0     N36267   6.080   1.266   0.514 -0.3820 -0.3684  0.8807
 1010MOL0     C36268   6.908   1.025   0.658  0.4438 -0.7629 -1.0011
 1010MOL0     C36269   6.986   0.903   0.660  0.9477  0.2338  0.3913
 1010MOL0     C36270   7.256   0.550   0.581  0.7093  0.2839  0.3778
 1010MOL0     C36271   7.377   0.569   0.526 -0.2749 -0.0666 -0.9725
 1010MOL0     C36272   7.468   0.473   0.478  0.0587  0.1384  0.3956
 1010MOL0     C36273   7.423   0.340   0.480 -0.7932 -0.3078 -0.5957
 1010MOL0     O36274   7.490   0.236   0.425  0.4829 -0.1122 -0.0720
 1010MOL0     C36275   7.637   0.237   0.420 -0.0100  0.3049 -0.7466
 1010MOL0     C36276   7.694   0.134   0.315  0.0631  0.7788 -0.4964
 1010MOL0     C36277   7.839   0.089   0.347  0.3653  1.1136 -0.8881
 1010MOL0     C36278   7.876  -0.035   0.268  1.0120  0.1910 -1.0855
 1010MOL0     C36279   7.917  -0.144   0.357 -0.5247  0.1884  0.3166
 1010MOL0     C36280   7.970  -0.226   0.426 -0.2800 -0.3889 -0.5715
 1010MOL0     C36281   7.299   0.316   0.531 -1.1046  0.0484  0.4777
 1010MOL0     C36282   7.212   0.415   0.575 -0.8942 -0.4799  1.7023
 1010MOL0     H36283   7.274   1.028   0.541 -0.0487  0.5940  0.9410
 1010MOL0     H36284   7.180   1.234   0.581  2.2801 -1.5918 -0.5572
 1010MOL0     H36285   6.942   1.459   0.582  0.9373  0.7107 -2.9801
 1010MOL0     H36286   7.028   1.351   0.475 -0.0880  5.1489 -1.4512
 1010MOL0     H36287   6.841   1.444   0.380 -0.5752  2.3548  1.9898
 1010MOL0     H36288   6.810   1.267   0.401 -2.2459 -0.0940 -1.4037
 1010MOL0     H36289   6.660   1.318   0.594  0.7053  0.3810  0.6615
 1010MOL0     H36290   6.697   1.494   0.575  0.9814  1.0876 -1.6977
 1010MOL0     H36291   6.585   1.509   0.367  2.0114  0.3488  0.5453
 1010MOL0     H36292   6.545   1.339   0.360 -0.2557  0.1588 -0.5206
 1010MOL0     H36293   6.416   1.355   0.566 -0.0419  2.5076  2.0518
 1010MOL0     H36294   6.463   1.510   0.604  0.6252 -0.5426  0.9560
 1010MOL0     H36295   6.243   1.520   0.508  0.4252 -3.4671  1.1434
 1010MOL0     H36296   6.362   1.618   0.414  1.0584  0.0966 -0.2563
 1010MOL0     H36297   6.220   1.515   0.248 -0.1698 -0.3520 -0.1537
 1010MOL0     H36298   6.385   1.428   0.249  0.3768 -2.7036 -0.4724
 1010MOL0     H36299   6.293   1.249   0.374 -0.1658 -0.0939  1.4622
 1010MOL0     H36300   6.210   1.271   0.219  4.1886 -1.3821  0.3793
 1010MOL0     H36301   5.949   1.402   0.237  2.9524 -0.8063 -1.2546
 1010MOL0     H36302   5.730   1.434   0.315 -0.6716 -0.3893 -0.1666
 1010MOL0     H36303   5.670   1.316   0.430 -0.3081 -0.8589 -0.0273
 1010MOL0     H36304   5.720   1.463   0.622  2.2892  1.6680  0.3178
 1010MOL0     H36305   5.611   1.540   0.499 -0.1245  1.1609  1.1078
 1010MOL0     H36306   5.840   1.644   0.406 -1.6059  1.5398 -1.4406
 1010MOL0     H36307   5.887   1.621   0.573  0.2668 -0.2506  0.9972
 1010MOL0     H36308   5.689   1.722   0.660  0.4891 -0.0700  0.1008
 1010MOL0     H36309   5.648   1.777   0.491 -0.6681 -0.4618  0.7485
 1010MOL0     H36310   5.714   2.091   0.456 -4.3072 -2.9291 -1.5105
 1010MOL0     H36311   5.619   2.274   0.412 -1.9636  0.4823 -1.7565
 1010MOL0     H36312   5.457   2.267   0.477 -0.3268  0.5329 -0.9632
 1010MOL0     H36313   5.572   2.375   0.542 -0.5365  0.2491  0.2572
 1010MOL0     H36314   5.522   2.455   1.028  0.9511  1.0165 -0.0270
 1010MOL0     H36315   5.386   2.669   1.081 -3.1778  1.9739  1.6582
 1010MOL0     H36316   5.024   2.683   1.312  0.2470  1.0042  0.6657
 1010MOL0     H36317   5.142   2.552   1.306  1.9402 -0.8667 -2.3619
 1010MOL0     H36318   5.336   2.711   1.310  0.9330  1.8882 -1.3002
 1010MOL0     H36319   5.222   2.847   1.318 -0.6160 -0.6179  0.9307
 1010MOL0     H36320   5.294   2.643   1.531  0.1522  0.0916 -0.0396
 1010MOL0     H36321   5.152   2.758   1.541 -1.3234 -0.9035 -2.4181
 1010MOL0     H36322   5.457   2.796   1.517 -0.3122 -0.5713  0.5021
 1010MOL0     H36323   5.356   2.929   1.491  1.8512 -0.0816  0.9235
 1010MOL0     H36324   5.357   2.752   1.749 -0.1210  0.2003  0.5943
 1010MOL0     H36325   5.252   2.899   1.716  0.7854  3.7784 -1.0705
 1010MOL0     H36326   5.548   2.913   1.725  0.7239 -0.8909  0.5461
 1010MOL0     H36327   5.433   3.045   1.699  4.9504  0.0876 -1.2559
 1010MOL0     H36328   5.505   3.039   1.926 -0.5493 -0.7369  1.9403
 1010MOL0     H36329   5.472   2.869   1.940 -0.6935  0.0806  0.5916
 1010MOL0     H36330   5.323   3.042   2.061 -0.4475  0.7254  0.2372
 1010MOL0     H36331   5.239   2.917   1.974  1.1308 -0.2375  0.8888
 1010MOL0     H36332   5.026   2.454   1.045 -0.4556 -1.4933 -1.3824
 1010MOL0     H36333   5.150   2.253   0.961 -2.4829 -0.1356  3.2968
 1010MOL0     H36334   5.572   2.060   0.926 -2.5345  1.0065 -1.0714
 1010MOL0     H36335   5.738   1.902   0.843 -0.9690 -1.7846 -1.5308
 1010MOL0     H36336   6.804   1.036   0.689  0.1842  2.5857 -2.6358
 1010MOL0     H36337   6.930   0.812   0.676  5.1398 -2.6776  0.0594
 1010MOL0     H36338   7.406   0.674   0.527  1.6710 -0.5627  0.4982
 1010MOL0     H36339   7.559   0.513   0.434  0.2180  0.0105  0.6053
 1010MOL0     H36340   7.674   0.335   0.388  0.5941 -0.2367 -1.7607
 1010MOL0     H36341   7.675   0.202   0.516 -0.8001  1.4106  0.0011
 1010MOL0     H36342   7.681   0.176   0.215 -1.3820  1.7877  0.0758
 1010MOL0     H36343   7.640   0.040   0.325 -0.4300  1.1373  0.4368
 1010MOL0     H36344   7.833   0.064   0.454  0.5163  2.2778 -0.6014
 1010MOL0     H36345   7.912   0.169   0.330  1.6867 -0.1088 -1.2133
 1010MOL0     H36346   7.951  -0.012   0.192  1.0615  0.2611 -1.0160
 1010MOL0     H36347   7.787  -0.068   0.214 -1.4370  2.5306  1.1690
 1010MOL0     H36348   8.011  -0.303   0.489  2.0709  1.0820 -0.1931
 1010MOL0     H36349   7.252   0.218   0.525  0.0985 -0.5117 -0.0793
 1010MOL0     H36350   7.115   0.372   0.597 -2.2777 -0.3716 -3.0761
 1011MOL0     O36351  10.991   6.499   6.662  0.3885 -0.0277 -0.5672
 1011MOL0     C36352  11.004   6.581   6.569 -0.0915  0.1503  0.2639
 1011MOL0     O36353  11.045   6.702   6.590  0.1811 -0.9270 -0.1741
 1011MOL0     C36354  11.073   6.762   6.714  0.3023 -0.7671 -0.1438
 1011MOL0     C36355  11.077   6.701   6.835 -0.7112 -0.7348 -0.2683
 1011MOL0     C36356  11.115   6.775   6.956  0.2257 -0.0304 -0.0202
 1011MOL0     C36357  11.155   6.909   6.953 -0.6642  0.3517  0.1053
 1011MOL0     O36358  11.190   6.961   7.067 -0.8593  0.4258  0.3902
 1011MOL0     C36359  11.267   7.075   7.077  0.0787  0.8843  0.1307
 1011MOL0     C36360  11.333   7.085   7.214 -1.0207 -0.1839 -0.6619
 1011MOL0     C36361  11.447   6.985   7.226 -1.5902  0.2292 -0.2304
 1011MOL0     C36362  11.476   6.952   7.369 -0.2254 -0.5423  0.2535
 1011MOL0     C36363  11.622   6.926   7.391  0.8355 -0.2729 -0.5286
 1011MOL0     C36364  11.663   6.873   7.528  1.2989 -0.1894 -0.2459
 1011MOL0     C36365  11.814   6.870   7.538  0.7477 -0.7753 -0.2567
 1011MOL0     C36366  11.855   6.777   7.643  0.2884  0.2507  0.4146
 1011MOL0     N36367  12.000   6.783   7.665  0.1583  0.3465 -0.1152
 1011MOL0     C36368  12.096   6.699   7.611  0.5628  0.4596 -0.2273
 1011MOL0     C36369  12.208   6.733   7.681  1.0293  0.0624  0.5116
 1011MOL0     C36370  12.328   6.653   7.675 -1.5220 -0.1902 -0.2577
 1011MOL0     C36371  12.311   6.502   7.698 -0.5556 -0.5764 -0.0259
 1011MOL0     C36372  12.282   6.477   7.840  0.1387  0.0420  0.3214
 1011MOL0     C36373  12.235   6.327   7.840  0.3729 -0.4839 -1.0121
 1011MOL0     O36374  12.115   6.319   7.766 -0.5284  0.3467 -0.4954
 1011MOL0     C36375  11.994   6.345   7.827 -0.5280  0.1726  0.3246
 1011MOL0     C36376  11.962   6.412   7.952 -0.1359  0.2129 -0.5493
 1011MOL0     C36377  11.836   6.439   7.995 -0.2265 -0.6236 -0.6758
 1011MOL0     C36378  11.827   6.491   8.140  0.5332 -0.2912  0.5511
 1011MOL0     C36379  11.727   6.403   7.910  0.2701  0.4904  0.0547
 1011MOL0     C36380  11.579   6.417   7.941 -0.2285  1.1139  0.4651
 1011MOL0     O36381  11.486   6.367   7.855  0.0855  0.3524 -0.1625
 1011MOL0     C36382  11.356   6.352   7.907 -0.5436  0.4668  0.2545
 1011MOL0     C36383  11.258   6.422   7.846  0.0502  0.4115  0.1840
 1011MOL0     C36384  11.126   6.389   7.863  0.2438 -0.0415 -0.0846
 1011MOL0     C36385  11.079   6.290   7.954 -0.1191  0.2102 -0.3660
 1011MOL0     O36386  10.947   6.263   7.986  0.3321 -0.6111 -0.3052
 1011MOL0     C36387  10.850   6.351   7.920  0.2208  0.1307 -0.1608
 1011MOL0     C36388  10.703   6.308   7.941 -0.3647  0.0825 -0.1554
 1011MOL0     C36389  10.697   6.159   7.949 -0.0103  0.1770  0.9702
 1011MOL0     C36390  10.554   6.111   7.922 -0.6770  0.6381  0.5552
 1011MOL0     C36391  10.521   5.966   7.965  0.9615  0.3995 -0.0610
 1011MOL0     C36392  10.367   5.946   7.954 -0.1921 -1.9611 -0.5530
 1011MOL0     C36393  10.302   5.986   7.818  1.1623 -0.3794 -0.2848
 1011MOL0     C36394  10.172   5.912   7.809  0.2598 -0.7494  0.2871
 1011MOL0    Cl36395  10.114   5.905   7.644 -0.3579  0.1799 -0.6382
 1011MOL0     C36396  11.188   6.214   8.014  0.0118  0.4219 -0.2912
 1011MOL0     C36397  11.324   6.249   7.991  0.8063 -0.7257  0.2180
 1011MOL0     O36398  11.558   6.462   8.051 -0.1761  0.1401 -0.4137
 1011MOL0     C36399  11.754   6.356   7.780 -0.1708 -0.2314 -0.0217
 1011MOL0     C36400  11.884   6.327   7.737 -0.6627 -0.6444  0.8734
 1011MOL0     N36401  12.178   6.833   7.772 -0.1243  0.1460  0.8957
 1011MOL0     N36402  12.060   6.866   7.758  0.0181  0.7492  0.3198
 1011MOL0     C36403  11.151   6.968   6.825  0.2155  0.2261  0.0815
 1011MOL0     C36404  11.112   6.893   6.715 -0.4804 -0.6499 -0.2864
 1011MOL0     C36405  11.013   6.530   6.434  0.5246  1.1030 -1.0131
 1011MOL0     C36406  10.941   6.413   6.404  0.2375  0.4005  0.0873
 1011MOL0     C36407  10.916   6.378   6.270  0.1696 -0.3450  0.6554
 1011MOL0     C36408  10.951   6.457   6.166 -0.2035  0.5765 -0.0433
 1011MOL0     O36409  10.919   6.404   6.045  0.0976  0.3002  0.1054
 1011MOL0     C36410  11.019   6.418   5.941 -0.2310 -0.6342  0.1766
 1011MOL0     C36411  10.998   6.326   5.813  0.0457  0.3939 -0.0688
 1011MOL0     C36412  11.064   6.190   5.870  0.9672  0.9099  0.0231
 1011MOL0     C36413  11.026   6.084   5.758 -0.3374  0.3255  0.3539
 1011MOL0     C36414  11.085   6.117   5.627  0.4346  0.6269  0.2157
 1011MOL0     C36415  11.120   6.142   5.518 -0.9581 -0.1000  0.2612
 1011MOL0     C36416  11.037   6.565   6.193  0.4297 -0.1846 -0.7412
 1011MOL0     C36417  11.055   6.611   6.327  0.0449  0.5648 -0.2346
 1011MOL0     H36418  11.029   6.604   6.849 -1.0573 -0.6475 -0.8116
 1011MOL0     H36419  11.115   6.731   7.055 -1.3405  1.9474  0.9305
 1011MOL0     H36420  11.345   7.068   7.000 -0.4369 -4.1961 -0.2620
 1011MOL0     H36421  11.199   7.160   7.062 -5.7991 -3.0671  0.9179
 1011MOL0     H36422  11.365   7.189   7.212  1.4073 -0.8075  1.3370
 1011MOL0     H36423  11.251   7.069   7.284 -2.5937  0.3308 -2.3116
 1011MOL0     H36424  11.428   6.894   7.169 -0.7232 -0.3080  0.3223
 1011MOL0     H36425  11.536   7.039   7.190 -1.3626  0.0251  0.0292
 1011MOL0     H36426  11.442   7.026   7.442 -2.4296 -0.2325 -0.9810
 1011MOL0     H36427  11.421   6.861   7.396 -0.6117 -0.3799  0.0283
 1011MOL0     H36428  11.660   6.855   7.318  1.8493 -1.6770  1.3011
 1011MOL0     H36429  11.681   7.017   7.373 -3.4281  2.4855 -2.2399
 1011MOL0     H36430  11.634   6.944   7.606  1.3647 -3.3002  2.8535
 1011MOL0     H36431  11.615   6.777   7.550  0.8443 -0.0833 -0.7544
 1011MOL0     H36432  11.863   6.847   7.443 -0.1134  0.8163 -1.1076
 1011MOL0     H36433  11.843   6.969   7.575  0.9832 -0.6584 -0.7531
 1011MOL0     H36434  11.824   6.675   7.617  0.2125  0.4689 -0.3786
 1011MOL0     H36435  11.811   6.807   7.739 -2.0651 -1.1035 -0.1603
 1011MOL0     H36436  12.079   6.625   7.533  2.5725  1.2458 -1.4854
 1011MOL0     H36437  12.366   6.670   7.574  0.9921 -3.2352  0.0204
 1011MOL0     H36438  12.392   6.710   7.742  0.5166 -0.8343 -1.5696
 1011MOL0     H36439  12.405   6.455   7.668  0.1092  0.9028 -0.3537
 1011MOL0     H36440  12.232   6.475   7.628 -1.1744  1.2313 -0.0940
 1011MOL0     H36441  12.206   6.547   7.877 -0.8257 -1.9112  2.3331
 1011MOL0     H36442  12.375   6.486   7.896  0.3916  0.7982 -0.2017
 1011MOL0     H36443  12.225   6.295   7.944  1.8176 -1.9747 -1.2718
 1011MOL0     H36444  12.306   6.254   7.799  1.3700 -0.6470  0.8940
 1011MOL0     H36445  12.038   6.456   8.016 -0.5121  0.9329 -0.5822
 1011MOL0     H36446  11.770   6.584   8.135  0.2082 -0.5198 -0.1573
 1011MOL0     H36447  11.769   6.414   8.193  0.5907 -0.2022  0.7412
 1011MOL0     H36448  11.923   6.505   8.190  0.5341  2.2007 -0.0536
 1011MOL0     H36449  11.287   6.510   7.789 -0.7748 -0.1038 -1.0783
 1011MOL0     H36450  11.054   6.453   7.813 -0.6322 -0.0127  1.1689
 1011MOL0     H36451  10.875   6.457   7.930 -0.5472  0.1609  1.9414
 1011MOL0     H36452  10.860   6.337   7.812 -2.1903 -1.7255 -0.2252
 1011MOL0     H36453  10.665   6.356   8.032  0.5240 -3.0199  2.0262
 1011MOL0     H36454  10.640   6.348   7.861  0.2715 -0.1383 -0.7767
 1011MOL0     H36455  10.731   6.134   8.050  1.2539  0.7811  0.7132
 1011MOL0     H36456  10.760   6.109   7.875 -2.2203  0.1264 -0.9764
 1011MOL0     H36457  10.492   6.179   7.981  2.3938  2.3647  2.0312
 1011MOL0     H36458  10.532   6.123   7.815  1.3144  1.4256  0.1830
 1011MOL0     H36459  10.551   5.942   8.067 -2.7923 -0.3905  1.0062
 1011MOL0     H36460  10.562   5.895   7.892  0.7323 -0.4312  0.6018
 1011MOL0     H36461  10.350   5.840   7.977  0.1131 -1.9925 -0.4767
 1011MOL0     H36462  10.319   6.003   8.034 -0.7460  2.9970 -4.0213
 1011MOL0     H36463  10.368   5.962   7.734  2.1120 -0.3539  0.4294
 1011MOL0     H36464  10.275   6.091   7.827 -0.3497 -0.6645 -1.2749
 1011MOL0     H36465  10.094   5.968   7.862  2.0530  0.9483  1.2889
 1011MOL0     H36466  10.179   5.815   7.858 -1.5787 -1.1473 -0.1858
 1011MOL0     H36467  11.170   6.143   8.094  0.3741  1.0390  0.3471
 1011MOL0     H36468  11.403   6.186   8.030  2.5204  1.3098  0.2167
 1011MOL0     H36469  11.673   6.323   7.717 -1.8719 -0.1878  2.0241
 1011MOL0     H36470  11.897   6.300   7.633 -1.3668 -0.3380  0.6988
 1011MOL0     H36471  11.204   7.062   6.811  0.5815 -0.3953 -3.6988
 1011MOL0     H36472  11.113   6.931   6.613 -0.3577 -1.6114 -0.6456
 1011MOL0     H36473  10.902   6.350   6.482  0.3819  0.8095  0.4935
 1011MOL0     H36474  10.851   6.295   6.244 -1.6559  0.5657  2.0410
 1011MOL0     H36475  11.015   6.520   5.901 -1.6548 -1.1003 -0.9411
 1011MOL0     H36476  11.116   6.405   5.991  0.0081  2.5681  0.7870
 1011MOL0     H36477  11.062   6.359   5.730 -2.4225  0.6430 -2.0113
 1011MOL0     H36478  10.891   6.322   5.791  0.2604 -0.0839 -1.1101
 1011MOL0     H36479  11.017   6.165   5.965  1.7008  2.8681  0.9742
 1011MOL0     H36480  11.170   6.201   5.896  0.5885  1.7046  1.3175
 1011MOL0     H36481  10.919   6.065   5.747 -0.2534 -0.6731  1.0628
 1011MOL0     H36482  11.074   5.993   5.797 -0.4732 -0.4579 -1.1995
 1011MOL0     H36483  11.147   6.147   5.414  1.0234 -0.6094  0.7190
 1011MOL0     H36484  11.093   6.620   6.118 -0.1794  1.3774 -0.0789
 1011MOL0     H36485  11.081   6.715   6.340  1.4721  0.3995 -1.5080
 1012MOL0     O36486  10.093  10.137   1.389 -0.5453  0.4796  0.8739
 1012MOL0     C36487  10.090  10.024   1.440 -0.5974 -0.9256 -0.1867
 1012MOL0     O36488   9.976   9.965   1.500 -0.1667 -0.0703  0.4728
 1012MOL0     C36489   9.877  10.057   1.517 -0.2391  0.2235 -0.5748
 1012MOL0     C36490   9.897  10.169   1.593  0.7465  0.0594  0.3394
 1012MOL0     C36491   9.799  10.262   1.610  0.3403  0.3286 -0.2316
 1012MOL0     C36492   9.670  10.240   1.550 -0.0161 -1.3289 -1.1456
 1012MOL0     O36493   9.566  10.325   1.598  0.3984  0.0400 -0.0501
 1012MOL0     C36494   9.431  10.311   1.554  0.1237  0.7736  1.0023
 1012MOL0     C36495   9.338  10.421   1.600  0.6008  0.3923  0.2709
 1012MOL0     C36496   9.189  10.421   1.562 -0.2849 -0.7431 -0.2130
 1012MOL0     C36497   9.111  10.534   1.637  0.0949 -1.1472  0.7652
 1012MOL0     C36498   8.988  10.576   1.568  0.2259 -0.5130 -0.2451
 1012MOL0     C36499   8.891  10.645   1.668 -0.4466 -0.4306 -0.1722
 1012MOL0     C36500   8.789  10.712   1.576 -0.4986 -0.8056 -0.0375
 1012MOL0     C36501   8.655  10.730   1.658  0.3716  0.6438  0.0237
 1012MOL0     N36502   8.581  10.607   1.711 -0.6060 -0.5498 -0.0318
 1012MOL0     C36503   8.620  10.479   1.686 -0.1329  0.1362 -0.5628
 1012MOL0     C36504   8.558  10.412   1.783 -1.0574  0.5138 -0.0781
 1012MOL0     C36505   8.558  10.267   1.810  0.1124 -0.0145 -0.1295
 1012MOL0     C36506   8.446  10.196   1.743  0.2406  0.8574 -0.1650
 1012MOL0     C36507   8.472  10.051   1.717  0.1069  0.1933  0.0038
 1012MOL0     C36508   8.362  10.004   1.612 -0.4476 -0.1731 -0.8516
 1012MOL0     O36509   8.362   9.860   1.593 -0.6382  0.2959 -0.4422
 1012MOL0     C36510   8.469   9.799   1.528  0.4228  0.2229  0.3229
 1012MOL0     C36511   8.468   9.661   1.537 -0.4631  0.6341  0.0866
 1012MOL0     C36512   8.582   9.581   1.493  0.2842  0.3248  0.3808
 1012MOL0     C36513   8.562   9.433   1.536  0.0524 -0.1092 -0.0634
 1012MOL0     C36514   8.687   9.643   1.419 -0.3880  1.8494 -0.3100
 1012MOL0     C36515   8.800   9.573   1.356  0.1074  0.0742 -0.4869
 1012MOL0     O36516   8.891   9.661   1.288 -1.0094  0.5836 -0.2364
 1012MOL0     C36517   9.007   9.609   1.229 -0.7807  0.2338 -0.0423
 1012MOL0     C36518   9.017   9.627   1.093 -0.5791  0.2855  0.4074
 1012MOL0     C36519   9.138   9.574   1.036  0.1189  0.2851  0.1470
 1012MOL0     C36520   9.241   9.523   1.114  0.4129 -0.1915 -0.0949
 1012MOL0     O36521   9.359   9.500   1.051 -0.2717  0.0205  0.0242
 1012MOL0     C36522   9.438   9.386   1.107  0.2998 -0.2039  0.1153
 1012MOL0     C36523   9.521   9.316   1.010 -0.2444  0.7302 -0.3982
 1012MOL0     C36524   9.439   9.215   0.938  0.1971 -0.1933 -0.0883
 1012MOL0     C36525   9.513   9.163   0.816 -0.2955  0.6676 -0.1888
 1012MOL0     C36526   9.441   9.041   0.755 -0.5439  0.7913 -0.3036
 1012MOL0     C36527   9.297   9.078   0.721 -0.7696  0.1318  0.0006
 1012MOL0     C36528   9.232   8.970   0.642 -0.6628 -1.6367  0.5575
 1012MOL0     C36529   9.086   9.028   0.637 -0.9162  0.2003 -0.2187
 1012MOL0    Cl36530   8.976   8.941   0.532 -0.1834 -0.2525 -0.1071
 1012MOL0     C36531   9.222   9.513   1.253 -0.1970 -0.5913 -0.3182
 1012MOL0     C36532   9.106   9.551   1.306  0.1188 -0.0424  0.2691
 1012MOL0     O36533   8.798   9.450   1.358  0.0430  0.2915  0.3181
 1012MOL0     C36534   8.680   9.782   1.415  0.5442 -1.4742  0.0809
 1012MOL0     C36535   8.578   9.860   1.468 -0.5598 -0.0016 -0.3385
 1012MOL0     N36536   8.479  10.489   1.863 -0.1801 -0.5921  0.8069
 1012MOL0     N36537   8.489  10.612   1.817  0.1449 -0.0038 -0.4637
 1012MOL0     C36538   9.644  10.126   1.468  0.2547 -0.3717 -0.4784
 1012MOL0     C36539   9.751  10.039   1.448  0.6426 -0.3065 -0.8314
 1012MOL0     C36540  10.203   9.928   1.436 -0.9378  0.0517 -0.2504
 1012MOL0     C36541  10.178   9.788   1.430 -0.6294 -0.4182  0.1074
 1012MOL0     C36542  10.284   9.692   1.416 -0.5008 -0.4764 -0.1881
 1012MOL0     C36543  10.423   9.735   1.412  0.0319 -0.2623 -0.4640
 1012MOL0     O36544  10.522   9.645   1.412  0.7734  0.3192  0.1747
 1012MOL0     C36545  10.639   9.670   1.344 -0.4475  0.2444 -0.6378
 1012MOL0     C36546  10.738   9.554   1.340 -0.5804  0.2663  0.0714
 1012MOL0     C36547  10.828   9.521   1.460 -0.0773  0.1395  0.9618
 1012MOL0     C36548  10.904   9.635   1.516  0.6341 -0.7953 -0.0176
 1012MOL0     C36549  10.983   9.596   1.635  0.1757 -0.3382 -0.1319
 1012MOL0     C36550  11.036   9.544   1.733  0.2057 -0.6024  0.5512
 1012MOL0     C36551  10.445   9.876   1.412  0.7073  0.1252  0.7884
 1012MOL0     C36552  10.335   9.960   1.422 -0.3404 -0.0396  0.0112
 1012MOL0     H36553   9.995  10.167   1.640  0.8589 -2.5901  0.1526
 1012MOL0     H36554   9.812  10.338   1.686  0.5714 -2.2304  2.5180
 1012MOL0     H36555   9.423  10.312   1.445 -0.4691  2.0795  1.0401
 1012MOL0     H36556   9.399  10.210   1.581 -1.2559  1.1223  0.7737
 1012MOL0     H36557   9.346  10.429   1.709 -3.9064  5.4733  0.6564
 1012MOL0     H36558   9.374  10.517   1.560 -0.8649  0.5042 -0.8459
 1012MOL0     H36559   9.181  10.439   1.455 -0.0718  0.6498 -0.0107
 1012MOL0     H36560   9.135  10.326   1.568 -0.4628 -0.5730  1.3627
 1012MOL0     H36561   9.096  10.499   1.739 -1.0251 -0.1478  0.9649
 1012MOL0     H36562   9.170  10.625   1.653 -0.1083 -1.2007  1.9067
 1012MOL0     H36563   9.018  10.649   1.492 -0.2828 -1.0582 -0.9735
 1012MOL0     H36564   8.951  10.485   1.520  2.3057 -0.6188 -1.7699
 1012MOL0     H36565   8.849  10.571   1.738 -1.2746  1.4160  1.3644
 1012MOL0     H36566   8.938  10.724   1.727  1.0662  0.3210 -2.2685
 1012MOL0     H36567   8.821  10.812   1.545 -2.4283  0.4937  1.8538
 1012MOL0     H36568   8.776  10.655   1.484  1.7908 -0.8900 -0.3551
 1012MOL0     H36569   8.580  10.782   1.597  0.6521  1.2387  0.1799
 1012MOL0     H36570   8.691  10.785   1.746  1.1899  0.1296  0.0152
 1012MOL0     H36571   8.689  10.449   1.607  0.7143  1.5318 -0.3953
 1012MOL0     H36572   8.651  10.229   1.768 -0.0457 -0.1817 -0.3301
 1012MOL0     H36573   8.550  10.248   1.918 -1.9951 -1.0215 -0.4146
 1012MOL0     H36574   8.438  10.242   1.645  1.3550 -1.3931 -1.3959
 1012MOL0     H36575   8.352  10.214   1.797 -0.2830 -1.7136 -0.0789
 1012MOL0     H36576   8.454   9.998   1.810 -4.5739  0.7009 -0.3579
 1012MOL0     H36577   8.576  10.035   1.685  1.0124 -2.2229  3.5268
 1012MOL0     H36578   8.364  10.069   1.523 -1.4049  1.6427  0.3939
 1012MOL0     H36579   8.268  10.014   1.666  2.2112  1.3164  4.1843
 1012MOL0     H36580   8.386   9.620   1.595 -1.0954  1.3172 -0.3015
 1012MOL0     H36581   8.606   9.435   1.636 -1.0376 -0.5080  0.4396
 1012MOL0     H36582   8.459   9.397   1.551 -1.0723  1.1009 -3.7686
 1012MOL0     H36583   8.614   9.357   1.477  0.9800  1.0494 -0.7742
 1012MOL0     H36584   8.937   9.670   1.034 -1.7395 -0.9901  1.0101
 1012MOL0     H36585   9.159   9.603   0.933  3.0032  0.4528  0.7007
 1012MOL0     H36586   9.506   9.435   1.177 -0.6889  3.1982 -1.1110
 1012MOL0     H36587   9.379   9.315   1.165 -0.7894 -1.0017 -1.8613
 1012MOL0     H36588   9.556   9.397   0.946 -2.0735  0.9962 -1.1347
 1012MOL0     H36589   9.605   9.273   1.065 -2.0399 -0.5671  1.4481
 1012MOL0     H36590   9.345   9.268   0.916 -1.0491 -2.2690  0.0096
 1012MOL0     H36591   9.396   9.138   1.002 -0.9204  2.4238  2.5366
 1012MOL0     H36592   9.533   9.236   0.736 -0.3250  0.1041 -0.7216
 1012MOL0     H36593   9.608   9.118   0.845 -0.6518  0.5286  0.7934
 1012MOL0     H36594   9.450   8.954   0.822 -0.4449  2.0134  1.3474
 1012MOL0     H36595   9.501   9.020   0.666  0.7934 -0.3773  0.8292
 1012MOL0     H36596   9.242   9.094   0.815  2.7667  0.4617  2.1771
 1012MOL0     H36597   9.290   9.165   0.655  0.6392  0.1818 -0.1062
 1012MOL0     H36598   9.247   8.875   0.694  0.9610 -1.0957  1.1515
 1012MOL0     H36599   9.263   8.963   0.537  0.1082  1.5598  0.4374
 1012MOL0     H36600   9.106   9.129   0.602  0.4974  0.3198  0.8384
 1012MOL0     H36601   9.042   9.040   0.736 -0.6802 -3.8018  0.5521
 1012MOL0     H36602   9.301   9.481   1.320 -0.1824 -0.5648 -0.3228
 1012MOL0     H36603   9.110   9.546   1.414  5.1946 -2.3301  0.2703
 1012MOL0     H36604   8.763   9.839   1.373  0.3119  0.5402  2.1616
 1012MOL0     H36605   8.600   9.966   1.480  4.9648 -0.8834 -0.2545
 1012MOL0     H36606   9.550  10.102   1.418 -0.3630  0.5653  0.2005
 1012MOL0     H36607   9.736   9.950   1.387  0.5476 -2.3039  1.8805
 1012MOL0     H36608  10.076   9.755   1.445 -0.0547 -0.9782  3.6692
 1012MOL0     H36609  10.256   9.588   1.411 -4.3966  0.3752  0.4391
 1012MOL0     H36610  10.612   9.688   1.240  0.3844  1.3238 -0.6899
 1012MOL0     H36611  10.681   9.764   1.382 -2.3284  0.3913  1.2611
 1012MOL0     H36612  10.787   9.575   1.245 -0.2896  2.4881  0.6632
 1012MOL0     H36613  10.682   9.462   1.324  0.9458 -0.4668 -1.3316
 1012MOL0     H36614  10.901   9.446   1.429 -1.8801 -1.3998  0.1683
 1012MOL0     H36615  10.769   9.473   1.539 -0.5399 -0.3385  0.3413
 1012MOL0     H36616  10.833   9.715   1.540  0.3014 -1.2512  0.5445
 1012MOL0     H36617  10.978   9.677   1.448 -1.2964 -3.2674 -4.0031
 1012MOL0     H36618  11.081   9.497   1.818  1.8816  1.4039  0.8728
 1012MOL0     H36619  10.547   9.913   1.419  0.3227  1.0551  1.8494
 1012MOL0     H36620  10.352  10.067   1.424  1.4662 -0.2636 -1.2404
 1013MOL0     O36621   7.226   1.716   4.119  0.5601 -0.0032  0.3298
 1013MOL0     C36622   7.293   1.756   4.022  0.4321 -0.7192  1.2287
 1013MOL0     O36623   7.363   1.880   4.018 -0.3116  0.1102  0.1227
 1013MOL0     C36624   7.336   1.982   4.101  0.9208  0.1103 -0.2704
 1013MOL0     C36625   7.347   2.103   4.045 -0.1655  0.2889 -0.1455
 1013MOL0     C36626   7.322   2.221   4.098 -0.0355  0.0653  0.3279
 1013MOL0     C36627   7.283   2.222   4.235 -1.0456  0.1712 -0.2902
 1013MOL0     O36628   7.264   2.339   4.295  0.5203  0.0570  0.0611
 1013MOL0     C36629   7.380   2.370   4.371  0.2138  0.5492  0.1197
 1013MOL0     C36630   7.470   2.459   4.281  0.6888  0.4982  0.8833
 1013MOL0     C36631   7.581   2.538   4.349  0.2642 -0.0291  0.5603
 1013MOL0     C36632   7.685   2.450   4.421 -0.3380  0.4109 -0.9224
 1013MOL0     C36633   7.788   2.532   4.494  0.0249  0.7974 -0.4076
 1013MOL0     C36634   7.890   2.442   4.581  0.2640 -0.2111 -0.0843
 1013MOL0     C36635   7.982   2.538   4.666 -0.0762  1.3203  0.0557
 1013MOL0     C36636   8.121   2.469   4.711  0.5329 -0.2290 -0.8049
 1013MOL0     N36637   8.090   2.380   4.826  0.1844  0.0889 -0.0346
 1013MOL0     C36638   8.112   2.408   4.958  0.5864  0.2689  0.0798
 1013MOL0     C36639   8.101   2.293   5.026 -0.3287 -0.3762  0.5797
 1013MOL0     C36640   8.104   2.267   5.172  0.4437  0.7223  0.9812
 1013MOL0     C36641   8.217   2.177   5.219  0.4116  0.4698  0.8370
 1013MOL0     C36642   8.190   2.125   5.356  0.5104  0.7992 -1.3866
 1013MOL0     C36643   8.288   2.011   5.395  0.4605 -0.5888  0.4323
 1013MOL0     O36644   8.417   2.059   5.451 -0.1062 -0.2153 -0.3455
 1013MOL0     C36645   8.504   1.957   5.474  0.0147  0.5884  0.0467
 1013MOL0     C36646   8.473   1.816   5.480  0.8484 -0.6244 -0.1873
 1013MOL0     C36647   8.579   1.727   5.503  0.2931  0.6026  0.1205
 1013MOL0     C36648   8.544   1.583   5.530 -0.2891  0.1241 -0.3179
 1013MOL0     C36649   8.712   1.771   5.506  0.2233 -0.4257 -0.7306
 1013MOL0     C36650   8.829   1.689   5.536  0.6999  0.5994 -0.6105
 1013MOL0     O36651   8.850   1.571   5.465  0.0461  0.2307  0.4011
 1013MOL0     C36652   8.966   1.494   5.490 -0.0075 -0.3997 -0.2742
 1013MOL0     C36653   8.992   1.433   5.620  0.4810  0.0999 -0.1089
 1013MOL0     C36654   9.112   1.363   5.648 -0.3341  0.5988  0.8092
 1013MOL0     C36655   9.192   1.327   5.536 -0.8949  0.3941  0.9932
 1013MOL0     O36656   9.310   1.260   5.555  0.2368  1.0603  0.4997
 1013MOL0     C36657   9.300   1.130   5.622 -0.2318 -0.8183 -0.3898
 1013MOL0     C36658   9.444   1.073   5.620  0.6308  0.0103 -0.0635
 1013MOL0     C36659   9.535   1.147   5.729 -0.2184  0.1972 -0.3764
 1013MOL0     C36660   9.684   1.095   5.728  0.7225 -0.0101  0.3169
 1013MOL0     C36661   9.766   1.162   5.844 -0.3622 -0.4404  0.2868
 1013MOL0     C36662   9.805   1.309   5.832  0.3967 -0.1145  0.5389
 1013MOL0     C36663   9.913   1.355   5.935  0.3823 -0.0712 -0.1850
 1013MOL0     C36664  10.007   1.464   5.902 -0.3388 -0.0839 -0.7915
 1013MOL0    Cl36665  10.126   1.506   6.030 -0.3921  0.3359  0.2381
 1013MOL0     C36666   9.170   1.386   5.413 -0.1522 -0.1875 -0.4043
 1013MOL0     C36667   9.063   1.478   5.390 -0.0833  0.7593  0.0786
 1013MOL0     O36668   8.900   1.721   5.635 -0.1637  0.7073  0.1655
 1013MOL0     C36669   8.739   1.914   5.505 -0.0494  0.2733 -0.7167
 1013MOL0     C36670   8.635   2.003   5.494 -0.0653 -0.6165  0.1480
 1013MOL0     N36671   8.086   2.195   4.933 -0.6735  0.5311 -0.2729
 1013MOL0     N36672   8.074   2.241   4.813  0.0271  0.3248 -0.2689
 1013MOL0     C36673   7.267   2.099   4.303  0.6717 -1.1848 -0.9491
 1013MOL0     C36674   7.306   1.980   4.236  0.6898  0.2151  0.2641
 1013MOL0     C36675   7.304   1.663   3.910  0.4231 -0.7747 -0.5305
 1013MOL0     C36676   7.390   1.687   3.804  0.5711 -1.5034 -1.0946
 1013MOL0     C36677   7.409   1.602   3.702  0.1657 -0.4598  0.0606
 1013MOL0     C36678   7.340   1.471   3.710 -0.3891 -0.1910  0.7826
 1013MOL0     O36679   7.371   1.380   3.608  0.3540 -0.0145  0.9356
 1013MOL0     C36680   7.282   1.367   3.495  0.1141 -0.5066  0.1814
 1013MOL0     C36681   7.191   1.244   3.523  1.0309 -0.5165  0.0881
 1013MOL0     C36682   7.275   1.121   3.567 -0.5480 -0.0600  0.0747
 1013MOL0     C36683   7.365   1.068   3.457 -0.1221 -0.0613  0.2438
 1013MOL0     C36684   7.395   0.929   3.466  0.0505  0.3417  0.4748
 1013MOL0     C36685   7.421   0.813   3.459  1.0063  0.3715 -0.8011
 1013MOL0     C36686   7.263   1.439   3.823 -0.2164  0.0286  0.3920
 1013MOL0     C36687   7.244   1.541   3.924 -0.1204  0.4028 -0.2852
 1013MOL0     H36688   7.371   2.094   3.939 -2.1170 -0.3559 -0.5828
 1013MOL0     H36689   7.324   2.309   4.034  1.0323  0.3674  0.7707
 1013MOL0     H36690   7.357   2.430   4.460  1.2058 -0.1575  0.8759
 1013MOL0     H36691   7.409   2.276   4.418 -1.6701  1.2047  2.8578
 1013MOL0     H36692   7.521   2.392   4.211 -1.8547  0.9933 -1.6234
 1013MOL0     H36693   7.410   2.524   4.217  2.9585  1.4539 -0.3645
 1013MOL0     H36694   7.624   2.591   4.263 -1.0952 -3.0663 -2.2003
 1013MOL0     H36695   7.540   2.613   4.418  1.3543  1.8336 -0.7173
 1013MOL0     H36696   7.641   2.387   4.499  1.4599 -1.4524 -1.2999
 1013MOL0     H36697   7.733   2.382   4.349 -3.6948 -1.1611 -1.8425
 1013MOL0     H36698   7.844   2.594   4.423 -1.9646  0.5952 -2.2603
 1013MOL0     H36699   7.738   2.604   4.558 -2.3281  0.4786 -1.7803
 1013MOL0     H36700   7.833   2.378   4.650 -3.3445  1.2778 -1.4066
 1013MOL0     H36701   7.940   2.381   4.505 -2.1230  0.4981 -2.3810
 1013MOL0     H36702   8.021   2.618   4.603 -1.0700  0.3064 -1.9364
 1013MOL0     H36703   7.921   2.572   4.750 -1.5158 -1.7068  0.3918
 1013MOL0     H36704   8.181   2.552   4.749  2.0884 -2.2924  1.5977
 1013MOL0     H36705   8.169   2.424   4.624  1.7055 -0.8345  0.1268
 1013MOL0     H36706   8.112   2.506   5.005 -2.0455 -0.0033  0.7876
 1013MOL0     H36707   8.105   2.367   5.216  2.6131  1.5083 -0.6130
 1013MOL0     H36708   8.001   2.242   5.197 -0.1878  3.5904  1.6055
 1013MOL0     H36709   8.317   2.219   5.217  0.5624  0.1049  0.4501
 1013MOL0     H36710   8.217   2.088   5.155  0.5688  0.3791  0.9636
 1013MOL0     H36711   8.086   2.092   5.354  1.2867 -1.8404 -3.2285
 1013MOL0     H36712   8.201   2.216   5.416 -2.2894  0.8476 -0.7656
 1013MOL0     H36713   8.303   1.951   5.304  1.8660  2.1628 -1.2822
 1013MOL0     H36714   8.241   1.943   5.466 -0.1149 -2.0499 -1.2498
 1013MOL0     H36715   8.367   1.796   5.470  0.2128  1.7224  1.1294
 1013MOL0     H36716   8.617   1.509   5.494 -1.0840 -1.7487  1.6681
 1013MOL0     H36717   8.548   1.572   5.639 -3.9234  0.5478 -0.0068
 1013MOL0     H36718   8.447   1.545   5.497 -2.2647  2.6976  1.9864
 1013MOL0     H36719   8.922   1.462   5.698 -2.7743  0.0788 -2.7836
 1013MOL0     H36720   9.133   1.322   5.747 -0.4344 -0.1810  0.5165
 1013MOL0     H36721   9.279   1.140   5.729 -0.1152 -1.8043 -0.2674
 1013MOL0     H36722   9.224   1.065   5.577 -0.3009 -1.7794  1.0585
 1013MOL0     H36723   9.428   0.968   5.646 -2.7083  0.5313  0.4691
 1013MOL0     H36724   9.488   1.077   5.520  0.9729 -2.0342 -0.0491
 1013MOL0     H36725   9.487   1.143   5.828  1.7196  1.2620  0.6622
 1013MOL0     H36726   9.540   1.257   5.724  0.2447  0.1756 -0.4498
 1013MOL0     H36727   9.683   0.987   5.746  1.3318  0.2528  2.1836
 1013MOL0     H36728   9.738   1.128   5.639  1.3795 -2.3490 -0.2199
 1013MOL0     H36729   9.859   1.106   5.847  0.6569  0.9786 -2.0829
 1013MOL0     H36730   9.714   1.158   5.940  0.7237 -0.5962  0.8800
 1013MOL0     H36731   9.839   1.322   5.729  1.5858 -0.8344  0.8227
 1013MOL0     H36732   9.716   1.370   5.849 -1.2917 -0.8882 -3.9831
 1013MOL0     H36733   9.975   1.273   5.972  0.7584  0.7627  1.1285
 1013MOL0     H36734   9.857   1.384   6.025 -1.1375  2.8353 -1.9211
 1013MOL0     H36735   9.954   1.560   5.894 -2.5811 -1.2361 -0.5381
 1013MOL0     H36736  10.063   1.443   5.810  2.0883  0.3789  0.4829
 1013MOL0     H36737   9.234   1.379   5.326 -0.4407  0.9782 -0.7264
 1013MOL0     H36738   9.054   1.536   5.298 -1.6897 -2.7170 -2.1449
 1013MOL0     H36739   8.841   1.947   5.519 -0.7216  1.9411  0.6082
 1013MOL0     H36740   8.658   2.108   5.482 -3.1311  0.3211  1.5440
 1013MOL0     H36741   7.233   2.103   4.406 -0.2312  2.0238 -1.2751
 1013MOL0     H36742   7.301   1.890   4.297 -0.3322  2.2826  3.4935
 1013MOL0     H36743   7.457   1.771   3.813 -0.8547 -0.4875  0.5561
 1013MOL0     H36744   7.472   1.642   3.623  0.5892 -0.0114  0.6097
 1013MOL0     H36745   7.224   1.459   3.488  0.5276 -0.1847  0.8494
 1013MOL0     H36746   7.340   1.353   3.403 -0.7159  0.6558 -0.5486
 1013MOL0     H36747   7.131   1.216   3.436  1.6392 -0.8430 -0.2358
 1013MOL0     H36748   7.123   1.291   3.595  3.4514  2.5372  0.5979
 1013MOL0     H36749   7.214   1.042   3.612 -0.2086 -0.3969 -0.0565
 1013MOL0     H36750   7.345   1.148   3.647  2.2438 -2.7301 -1.2897
 1013MOL0     H36751   7.451   1.133   3.442  0.7643 -1.3106 -0.3345
 1013MOL0     H36752   7.316   1.083   3.360  2.9332  2.5045 -1.0955
 1013MOL0     H36753   7.423   0.706   3.448  1.2058  0.2555  0.2479
 1013MOL0     H36754   7.212   1.343   3.830 -0.3169 -0.0629 -1.3107
 1013MOL0     H36755   7.181   1.525   4.011 -0.0763  1.2009 -0.1032
 1014MOL0     O36756   2.136   1.142  10.883  1.1315  0.8423 -1.0517
 1014MOL0     C36757   2.183   1.144  10.995 -0.9310  0.5001  0.1343
 1014MOL0     O36758   2.143   1.217  11.104  0.9959 -0.3702  0.0985
 1014MOL0     C36759   2.018   1.291  11.106  0.1291 -0.1686 -0.7265
 1014MOL0     C36760   2.012   1.381  11.209  0.0609  0.4803  0.4131
 1014MOL0     C36761   1.882   1.448  11.236  0.8304  0.8157 -0.5775
 1014MOL0     C36762   1.764   1.417  11.170  0.0737  0.0194  1.1023
 1014MOL0     O36763   1.652   1.488  11.192  0.4223  0.2366 -0.7678
 1014MOL0     C36764   1.530   1.472  11.116  0.6243 -0.5345 -1.1091
 1014MOL0     C36765   1.418   1.565  11.156 -0.3137 -0.9711 -0.4744
 1014MOL0     C36766   1.277   1.533  11.096 -0.3319 -0.9763 -0.8658
 1014MOL0     C36767   1.207   1.421  11.176 -0.0470 -0.1517 -0.6794
 1014MOL0     C36768   1.063   1.403  11.130  0.5819  0.3790 -0.7953
 1014MOL0     C36769   0.970   1.532  11.162 -0.1301  0.4414 -0.0562
 1014MOL0     C36770   0.824   1.511  11.123 -0.1548 -0.0193  0.5739
 1014MOL0     C36771   0.739   1.623  11.181 -1.1352 -0.0502 -0.1319
 1014MOL0     N36772   0.602   1.611  11.136  0.1172 -0.5037  0.1162
 1014MOL0     C36773   0.550   1.679  11.031 -0.1863 -0.2727 -0.1278
 1014MOL0     C36774   0.414   1.668  11.041 -1.1130 -0.8563  0.1313
 1014MOL0     C36775   0.323   1.742  10.939 -0.5553  0.5921 -0.3041
 1014MOL0     C36776   0.185   1.682  10.916  0.9605 -0.4141 -0.3890
 1014MOL0     C36777   0.111   1.739  10.796  0.2930 -0.0040  0.4947
 1014MOL0     C36778  -0.047   1.740  10.793  0.6969 -0.6530  0.2691
 1014MOL0     O36779  -0.099   1.613  10.826  0.5403 -0.0654 -0.1638
 1014MOL0     C36780  -0.193   1.569  10.741  0.2971 -0.2712 -0.4013
 1014MOL0     C36781  -0.167   1.475  10.638 -0.1012 -0.5357  0.3485
 1014MOL0     C36782  -0.273   1.417  10.563  0.0272 -0.1183 -0.3873
 1014MOL0     C36783  -0.229   1.319  10.450  0.0153  0.1219 -0.8913
 1014MOL0     C36784  -0.410   1.449  10.595 -0.4871  0.2607  0.0203
 1014MOL0     C36785  -0.529   1.388  10.530 -0.1409  0.6486  0.0344
 1014MOL0     O36786  -0.648   1.436  10.578  0.6741 -0.0358  0.2820
 1014MOL0     C36787  -0.765   1.372  10.573 -0.3515 -0.3308 -0.7877
 1014MOL0     C36788  -0.777   1.236  10.583  0.2333  0.1871  1.4646
 1014MOL0     C36789  -0.908   1.176  10.595 -0.3817 -0.6967  0.9702
 1014MOL0     C36790  -1.023   1.254  10.582 -0.4795  0.4342 -0.6522
 1014MOL0     O36791  -1.144   1.197  10.587  0.7144 -0.0573  0.1258
 1014MOL0     C36792  -1.228   1.231  10.708 -0.4045 -0.0955 -0.5834
 1014MOL0     C36793  -1.367   1.267  10.655 -0.2543 -1.3551  1.1294
 1014MOL0     C36794  -1.490   1.279  10.751  0.0379 -0.2428  0.4389
 1014MOL0     C36795  -1.619   1.215  10.688  0.7665  0.4878 -0.2700
 1014MOL0     C36796  -1.728   1.191  10.795  0.2656 -0.6714  0.3211
 1014MOL0     C36797  -1.865   1.150  10.737  0.8647  0.6807  0.2799
 1014MOL0     C36798  -1.941   1.055  10.835  0.7518 -0.3989  0.0743
 1014MOL0     C36799  -2.085   1.029  10.776  0.0096  0.8969 -0.0436
 1014MOL0    Cl36800  -2.156   0.924  10.898 -0.0039 -0.2366  0.1591
 1014MOL0     C36801  -1.008   1.395  10.577  0.3532  0.7514 -0.1337
 1014MOL0     C36802  -0.881   1.451  10.567  0.7634 -0.6399 -0.2680
 1014MOL0     O36803  -0.518   1.288  10.460 -0.1960 -0.6690  0.2850
 1014MOL0     C36804  -0.436   1.538  10.703  0.0014  0.3003  0.0296
 1014MOL0     C36805  -0.326   1.602  10.770  0.1985  0.3400 -0.3527
 1014MOL0     N36806   0.387   1.600  11.165 -0.2237  0.3772  0.1527
 1014MOL0     N36807   0.508   1.564  11.217  0.2679 -0.1132 -0.3273
 1014MOL0     C36808   1.775   1.327  11.065 -0.4371 -0.2346  0.1611
 1014MOL0     C36809   1.895   1.262  11.036 -0.3451  0.1874  0.8335
 1014MOL0     C36810   2.316   1.080  11.015  0.2642  0.1307 -0.2378
 1014MOL0     C36811   2.390   1.091  11.136 -0.3947  0.4672  1.0037
 1014MOL0     C36812   2.511   1.028  11.155 -0.7387 -0.5455 -0.7746
 1014MOL0     C36813   2.561   0.930  11.061 -0.1370 -0.2923 -1.0924
 1014MOL0     O36814   2.666   0.844  11.082  1.2860 -0.0073  0.4557
 1014MOL0     C36815   2.760   0.884  11.179  0.3367  0.0833 -0.1540
 1014MOL0     C36816   2.855   0.992  11.120  0.0122  0.2261  0.7215
 1014MOL0     C36817   2.915   0.957  10.973 -0.0190 -1.0153  0.7831
 1014MOL0     C36818   3.005   0.835  10.975  0.1179  0.4628 -0.3481
 1014MOL0     C36819   3.115   0.836  11.066 -0.6237 -0.0793 -0.1363
 1014MOL0     C36820   3.207   0.812  11.146 -0.6511 -0.1661  0.2109
 1014MOL0     C36821   2.481   0.916  10.937  0.0622 -0.2666 -0.3305
 1014MOL0     C36822   2.360   0.986  10.926 -0.1522  0.2137  0.5741
 1014MOL0     H36823   2.103   1.412  11.260  1.0100 -1.4565 -0.0058
 1014MOL0     H36824   1.884   1.531  11.306  0.4187  2.1358 -2.0624
 1014MOL0     H36825   1.545   1.484  11.008 -3.0623 -2.5514 -2.0082
 1014MOL0     H36826   1.494   1.369  11.123  0.1308 -0.2951  0.3272
 1014MOL0     H36827   1.406   1.570  11.264 -2.2784  1.1297 -0.7161
 1014MOL0     H36828   1.452   1.666  11.128 -0.7485 -1.2315 -2.0362
 1014MOL0     H36829   1.220   1.626  11.096  3.4692  1.5891 -1.1198
 1014MOL0     H36830   1.284   1.500  10.991 -0.1517 -0.1186 -1.1306
 1014MOL0     H36831   1.256   1.324  11.164 -0.6376 -0.6328  0.6304
 1014MOL0     H36832   1.217   1.432  11.285 -0.1818 -0.4530 -0.6368
 1014MOL0     H36833   1.076   1.394  11.022  0.5657 -1.1920 -0.6852
 1014MOL0     H36834   1.026   1.306  11.165 -0.6757  1.3266  0.6113
 1014MOL0     H36835   0.988   1.553  11.268  3.4275 -1.0012 -0.2249
 1014MOL0     H36836   1.011   1.618  11.108 -0.1596 -0.8426 -2.2617
 1014MOL0     H36837   0.806   1.498  11.016 -0.8879 -1.4714  0.8500
 1014MOL0     H36838   0.799   1.418  11.174  2.7949 -1.7102 -0.8234
 1014MOL0     H36839   0.779   1.721  11.155 -2.8258  0.8287  0.3856
 1014MOL0     H36840   0.756   1.613  11.289  1.1798  1.6449 -0.2692
 1014MOL0     H36841   0.604   1.743  10.963  2.4268 -2.4281 -0.2414
 1014MOL0     H36842   0.316   1.844  10.978 -1.1522 -0.0613  1.4344
 1014MOL0     H36843   0.372   1.737  10.842  1.5321 -3.9279  0.7107
 1014MOL0     H36844   0.122   1.701  11.004  1.5951  0.9061 -0.1885
 1014MOL0     H36845   0.199   1.577  10.890  5.5716 -0.1692  0.3339
 1014MOL0     H36846   0.143   1.686  10.707  1.0077  0.1318  0.6625
 1014MOL0     H36847   0.146   1.842  10.778  5.6677 -1.6393 -0.1889
 1014MOL0     H36848  -0.067   1.777  10.692 -1.9174 -2.2755  0.0952
 1014MOL0     H36849  -0.094   1.808  10.865 -3.0300 -4.2602  1.5835
 1014MOL0     H36850  -0.068   1.445  10.602 -0.0959  0.0025 -0.0928
 1014MOL0     H36851  -0.121   1.303  10.441  0.3255  0.4152  1.6173
 1014MOL0     H36852  -0.278   1.221  10.457 -3.2082  1.5047 -2.1487
 1014MOL0     H36853  -0.247   1.369  10.355  0.9960  1.4807 -0.3894
 1014MOL0     H36854  -0.689   1.176  10.604  2.0887  2.7506  1.4893
 1014MOL0     H36855  -0.911   1.068  10.611  2.0439 -1.6158 -3.1389
 1014MOL0     H36856  -1.223   1.147  10.779  2.4581  1.1095  0.8252
 1014MOL0     H36857  -1.192   1.318  10.764 -0.3247 -2.0675  2.7097
 1014MOL0     H36858  -1.369   1.363  10.603 -3.0050 -1.7336  0.3492
 1014MOL0     H36859  -1.387   1.187  10.583  1.4912 -1.7534  1.0596
 1014MOL0     H36860  -1.509   1.382  10.780 -5.1098 -0.3892 -1.2988
 1014MOL0     H36861  -1.478   1.221  10.843  1.1929 -1.2617 -0.3175
 1014MOL0     H36862  -1.652   1.274  10.602 -0.2727  0.6019  0.1896
 1014MOL0     H36863  -1.581   1.122  10.643 -0.4243  1.3580 -3.3602
 1014MOL0     H36864  -1.739   1.285  10.849  0.3105 -1.5939  1.9928
 1014MOL0     H36865  -1.691   1.110  10.858  3.3076  0.1509 -0.2761
 1014MOL0     H36866  -1.924   1.239  10.716  0.3877  0.5439  0.9961
 1014MOL0     H36867  -1.853   1.095  10.644 -0.5731  2.0531 -0.7635
 1014MOL0     H36868  -1.954   1.093  10.937  0.9842  1.1535 -0.4459
 1014MOL0     H36869  -1.908   0.952  10.852 -1.4011 -1.4981 -1.7862
 1014MOL0     H36870  -2.088   0.970  10.684  1.3465  0.3143  0.2619
 1014MOL0     H36871  -2.149   1.117  10.776 -0.3051  0.6760  0.8359
 1014MOL0     H36872  -1.103   1.441  10.556 -0.7015 -1.4553 -0.4226
 1014MOL0     H36873  -0.871   1.559  10.557 -0.9189 -0.3297  0.9398
 1014MOL0     H36874  -0.539   1.555  10.735  0.4530 -0.5793  2.1419
 1014MOL0     H36875  -0.343   1.682  10.842  2.5425  1.2437 -0.7134
 1014MOL0     H36876   1.690   1.300  11.004 -0.4357 -0.8382  0.4153
 1014MOL0     H36877   1.892   1.181  10.964  3.4630 -0.1314  0.8265
 1014MOL0     H36878   2.359   1.154  11.218 -3.0653  0.5327  0.0318
 1014MOL0     H36879   2.576   1.060  11.235 -1.8709  1.0078 -0.4393
 1014MOL0     H36880   2.714   0.935  11.263 -0.1453  4.1881 -2.6403
 1014MOL0     H36881   2.816   0.793  11.202 -1.7888 -1.4485 -0.7513
 1014MOL0     H36882   2.934   1.024  11.188 -0.7014  4.9182 -0.3549
 1014MOL0     H36883   2.787   1.073  11.093 -3.0895 -2.5354 -0.5476
 1014MOL0     H36884   2.975   1.044  10.947 -3.4149  1.0704 -0.8169
 1014MOL0     H36885   2.831   0.952  10.903  1.5508 -1.7331 -1.1281
 1014MOL0     H36886   3.048   0.811  10.877  2.9537 -1.5202  1.2795
 1014MOL0     H36887   2.948   0.748  11.010 -1.1248  1.6470  0.6786
 1014MOL0     H36888   3.290   0.788  11.209 -0.2845  0.5695  0.0122
 1014MOL0     H36889   2.500   0.845  10.857  0.4253  1.6720 -2.0475
 1014MOL0     H36890   2.291   0.971  10.843  0.3181  4.1266 -0.7351
 1015MOL0     O36891   5.598   1.185   7.676 -0.3900  0.1010 -0.7881
 1015MOL0     C36892   5.512   1.127   7.734  0.5944  0.8328 -0.0967
 1015MOL0     O36893   5.490   0.994   7.730  0.5525  1.0934 -0.4766
 1015MOL0     C36894   5.580   0.896   7.691 -0.7233  0.4144 -0.2818
 1015MOL0     C36895   5.552   0.764   7.733 -0.0920 -0.9287 -0.1015
 1015MOL0     C36896   5.639   0.664   7.706 -0.6694  0.2581  0.3783
 1015MOL0     C36897   5.759   0.690   7.633 -0.0457  0.5899 -0.0306
 1015MOL0     O36898   5.835   0.573   7.604  0.4460 -0.1828 -0.3113
 1015MOL0     C36899   5.931   0.585   7.505  1.1918  0.0011 -0.2285
 1015MOL0     C36900   6.071   0.577   7.560 -0.6350  0.1484 -0.9205
 1015MOL0     C36901   6.101   0.446   7.633 -0.4062  0.7004 -0.0024
 1015MOL0     C36902   6.219   0.377   7.569 -0.5810 -0.2441 -0.4579
 1015MOL0     C36903   6.275   0.262   7.647 -0.7967  0.2936  0.5779
 1015MOL0     C36904   6.377   0.299   7.765 -1.3856  0.4948  0.6095
 1015MOL0     C36905   6.433   0.191   7.850  1.0511  0.1697  0.2968
 1015MOL0     C36906   6.392   0.190   7.993 -0.1670  0.1667 -0.1523
 1015MOL0     N36907   6.247   0.164   8.024  0.0029 -1.1612 -0.3328
 1015MOL0     C36908   6.162   0.097   7.944  0.9319  0.7207 -0.6592
 1015MOL0     C36909   6.042   0.103   8.011 -0.1434  0.1426 -0.8843
 1015MOL0     C36910   5.909   0.053   7.966  0.5178 -0.5976  1.3578
 1015MOL0     C36911   5.824   0.175   7.924  0.0679 -0.4904  0.0312
 1015MOL0     C36912   5.774   0.260   8.053  0.8555  0.2852  1.0174
 1015MOL0     C36913   5.699   0.393   8.021  0.1665 -0.0118  0.0377
 1015MOL0     O36914   5.571   0.347   7.964  0.9207 -0.2399 -0.7223
 1015MOL0     C36915   5.459   0.344   8.050  0.6536  0.0508 -0.2620
 1015MOL0     C36916   5.454   0.316   8.183 -0.9890 -0.1912 -0.0411
 1015MOL0     C36917   5.337   0.311   8.261  0.7897 -0.6076  0.1553
 1015MOL0     C36918   5.343   0.253   8.402 -0.1252 -0.6377 -0.1004
 1015MOL0     C36919   5.219   0.339   8.198 -0.2393 -0.3163  0.7298
 1015MOL0     C36920   5.087   0.325   8.259 -0.4246  0.2528 -0.4204
 1015MOL0     O36921   5.075   0.358   8.391  0.1630 -0.8262 -0.3027
 1015MOL0     C36922   4.952   0.354   8.451 -0.0827  0.4460  0.1515
 1015MOL0     C36923   4.853   0.448   8.416  0.4003 -0.3498  0.4331
 1015MOL0     C36924   4.735   0.446   8.488 -0.5590 -0.6025  0.4968
 1015MOL0     C36925   4.712   0.358   8.589 -0.1944  0.6818  0.0838
 1015MOL0     O36926   4.605   0.353   8.671 -0.5056  1.4176  0.3703
 1015MOL0     C36927   4.486   0.427   8.641  0.4015  0.5220 -0.5774
 1015MOL0     C36928   4.364   0.386   8.724 -0.5004 -1.4698  0.0095
 1015MOL0     C36929   4.406   0.419   8.872  0.3320 -0.2771 -0.5657
 1015MOL0     C36930   4.283   0.453   8.944  0.2471  0.4296 -0.6085
 1015MOL0     C36931   4.324   0.493   9.086  0.3195  0.9750 -0.2771
 1015MOL0     C36932   4.206   0.512   9.173 -0.0312  0.4915 -1.2327
 1015MOL0     C36933   4.252   0.505   9.316 -0.4489  1.1325  0.5488
 1015MOL0     C36934   4.279   0.358   9.368  0.0423 -0.5253  0.9510
 1015MOL0    Cl36935   4.296   0.351   9.545 -0.2776 -0.0882 -0.4205
 1015MOL0     C36936   4.813   0.262   8.620  0.3616 -0.1157  0.2956
 1015MOL0     C36937   4.933   0.258   8.564 -0.6997 -0.4150  0.0593
 1015MOL0     O36938   4.992   0.281   8.200  0.0059  0.3048  0.3078
 1015MOL0     C36939   5.214   0.348   8.064 -0.5133  0.7156  0.3289
 1015MOL0     C36940   5.333   0.359   7.990 -0.6002  0.0177 -0.0791
 1015MOL0     N36941   6.059   0.147   8.127 -0.5897 -0.7540 -0.4501
 1015MOL0     N36942   6.174   0.198   8.138 -0.2011 -0.7297 -0.1501
 1015MOL0     C36943   5.792   0.822   7.595 -0.0062  1.2098 -0.0049
 1015MOL0     C36944   5.706   0.927   7.628 -0.1508 -0.0907 -0.4132
 1015MOL0     C36945   5.419   1.203   7.827 -0.3722  1.1926  0.0750
 1015MOL0     C36946   5.342   1.145   7.932  0.4035  0.0840  0.7117
 1015MOL0     C36947   5.257   1.225   8.011 -0.4460  0.6487  0.7412
 1015MOL0     C36948   5.261   1.358   8.005 -0.6539 -0.9604 -0.8298
 1015MOL0     O36949   5.189   1.428   8.100 -0.0181 -1.3343  0.3357
 1015MOL0     C36950   5.172   1.570   8.086  0.3468  0.3404 -0.3138
 1015MOL0     C36951   5.047   1.628   8.155  0.0027  0.7433 -0.5058
 1015MOL0     C36952   4.923   1.546   8.120  0.1023 -0.5091  0.2963
 1015MOL0     C36953   4.788   1.614   8.137  0.3534 -0.6764  1.0320
 1015MOL0     C36954   4.763   1.710   8.025 -0.1924 -1.0688  0.1417
 1015MOL0     C36955   4.727   1.779   7.934  0.2322 -0.6587 -1.2892
 1015MOL0     C36956   5.351   1.425   7.914  0.3219  0.0657  0.0792
 1015MOL0     C36957   5.429   1.341   7.824  1.4809  0.4013 -0.7319
 1015MOL0     H36958   5.460   0.753   7.790  0.1355  2.5531  1.2421
 1015MOL0     H36959   5.607   0.564   7.734 -1.5212  0.6516  0.8632
 1015MOL0     H36960   5.910   0.501   7.439  1.5328  2.3564 -3.6128
 1015MOL0     H36961   5.915   0.672   7.441 -0.4030 -0.6910 -0.8021
 1015MOL0     H36962   6.132   0.592   7.470  2.0967  0.8314  0.9256
 1015MOL0     H36963   6.077   0.664   7.626  2.6162 -0.5471 -0.1522
 1015MOL0     H36964   6.125   0.465   7.738  0.1615  1.3541 -0.2458
 1015MOL0     H36965   6.014   0.379   7.631  2.5916 -3.6028 -1.8836
 1015MOL0     H36966   6.192   0.344   7.468  0.6828  0.2199 -0.9681
 1015MOL0     H36967   6.303   0.445   7.552 -0.3723  0.4228  2.6228
 1015MOL0     H36968   6.189   0.203   7.680 -1.0251  0.7777  0.8714
 1015MOL0     H36969   6.339   0.196   7.589  0.4032  1.2569  0.7613
 1015MOL0     H36970   6.464   0.339   7.712 -0.6151 -1.1740  0.5655
 1015MOL0     H36971   6.333   0.377   7.828 -0.5319  0.9124  0.6951
 1015MOL0     H36972   6.425   0.091   7.805  3.0067  0.0660  0.0760
 1015MOL0     H36973   6.541   0.210   7.850  0.8253  1.5294  0.9889
 1015MOL0     H36974   6.421   0.283   8.044  1.2761 -1.8398  2.9792
 1015MOL0     H36975   6.448   0.113   8.045 -1.5871 -1.8749 -1.4973
 1015MOL0     H36976   6.186   0.059   7.845 -1.1345  0.9648 -1.2948
 1015MOL0     H36977   5.912  -0.021   7.885 -2.4200  1.5766 -0.9701
 1015MOL0     H36978   5.867   0.004   8.054  1.3383 -1.3440  1.3403
 1015MOL0     H36979   5.735   0.142   7.869 -0.6227  1.0632  0.1622
 1015MOL0     H36980   5.882   0.241   7.860 -2.1224 -0.0008 -1.5741
 1015MOL0     H36981   5.860   0.297   8.110 -1.2391  2.1771  3.1201
 1015MOL0     H36982   5.709   0.197   8.115 -0.7394  0.5346 -0.3364
 1015MOL0     H36983   5.765   0.453   7.959  0.8649 -1.0647 -0.2548
 1015MOL0     H36984   5.685   0.446   8.116 -1.2945 -1.8956  0.9348
 1015MOL0     H36985   5.545   0.293   8.237 -1.1139  0.4831  0.4604
 1015MOL0     H36986   5.441   0.211   8.426  0.7713  1.8568  1.0079
 1015MOL0     H36987   5.323   0.334   8.474  2.0762  0.1425 -0.2923
 1015MOL0     H36988   5.265   0.178   8.416 -0.4882 -0.0790  1.0580
 1015MOL0     H36989   4.859   0.520   8.335 -5.1254  0.0457 -0.0112
 1015MOL0     H36990   4.669   0.529   8.461 -0.1691 -0.3903  0.1807
 1015MOL0     H36991   4.516   0.528   8.670  3.0192 -0.3937  0.1835
 1015MOL0     H36992   4.463   0.415   8.535  1.4057  1.4319 -0.9099
 1015MOL0     H36993   4.283   0.454   8.696 -3.0189 -4.0391  0.6580
 1015MOL0     H36994   4.322   0.286   8.709 -0.2847 -1.2060 -2.9129
 1015MOL0     H36995   4.471   0.504   8.892  0.1433 -0.9264  3.6140
 1015MOL0     H36996   4.452   0.330   8.917 -1.2525 -0.8214  0.0283
 1015MOL0     H36997   4.231   0.536   8.896 -1.5773 -0.3819 -0.1176
 1015MOL0     H36998   4.215   0.367   8.940 -1.4461  1.7833 -3.5990
 1015MOL0     H36999   4.395   0.576   9.086  0.3350  0.9721  1.0266
 1015MOL0     H37000   4.374   0.403   9.123 -0.6966  0.3461 -0.3799
 1015MOL0     H37001   4.162   0.611   9.158  1.0649  1.1227 -0.4639
 1015MOL0     H37002   4.136   0.428   9.170 -0.4254  0.8356 -1.8692
 1015MOL0     H37003   4.180   0.554   9.382  0.2686  1.8392  0.8208
 1015MOL0     H37004   4.351   0.551   9.329  0.4539 -0.4063 -0.5321
 1015MOL0     H37005   4.375   0.321   9.330 -0.2868  0.8539 -1.4423
 1015MOL0     H37006   4.192   0.292   9.353 -0.1186 -0.4562  1.5585
 1015MOL0     H37007   4.778   0.204   8.704 -0.9337  0.3118  0.0650
 1015MOL0     H37008   5.014   0.193   8.597 -0.4769 -1.3850 -2.1723
 1015MOL0     H37009   5.123   0.355   8.006 -1.1378  2.4109  1.4717
 1015MOL0     H37010   5.334   0.362   7.882  1.3905 -2.0638 -0.1839
 1015MOL0     H37011   5.878   0.849   7.535  1.0890  3.3176  2.3582
 1015MOL0     H37012   5.734   1.018   7.576 -1.3138  0.5914  0.1239
 1015MOL0     H37013   5.350   1.038   7.948 -0.9077 -0.7557 -3.1229
 1015MOL0     H37014   5.203   1.181   8.095  1.2797 -2.3054  0.4300
 1015MOL0     H37015   5.255   1.634   8.117 -1.7586  3.1458 -0.0572
 1015MOL0     H37016   5.149   1.576   7.980 -1.0943 -5.0106 -0.6175
 1015MOL0     H37017   5.026   1.731   8.123  3.2695  1.1671 -1.6564
 1015MOL0     H37018   5.069   1.635   8.262  0.3760  1.5892 -0.6231
 1015MOL0     H37019   4.928   1.443   8.156  0.6502 -1.3193 -1.9073
 1015MOL0     H37020   4.927   1.535   8.011 -1.4546  3.6702 -0.3936
 1015MOL0     H37021   4.786   1.673   8.229  0.8340 -3.5804  3.0471
 1015MOL0     H37022   4.706   1.542   8.142 -1.1828  0.8689 -0.1836
 1015MOL0     H37023   4.705   1.843   7.850  1.9953 -1.6683 -2.6040
 1015MOL0     H37024   5.366   1.532   7.907 -2.8659  0.6341  0.3317
 1015MOL0     H37025   5.490   1.392   7.751 -0.1536  0.9749 -1.7566
 1016MOL0     O37026   4.382   1.274   8.413 -0.5210 -0.2020  0.6911
 1016MOL0     C37027   4.372   1.386   8.360 -0.0469  0.3672 -0.0831
 1016MOL0     O37028   4.251   1.431   8.316 -0.0251  0.0488 -0.0907
 1016MOL0     C37029   4.149   1.351   8.280  1.0291  0.2847  0.5158
 1016MOL0     C37030   4.076   1.274   8.369  0.0849  1.1299  0.5153
 1016MOL0     C37031   3.975   1.189   8.323  0.4592  0.3286 -0.2780
 1016MOL0     C37032   3.945   1.182   8.182 -0.7030 -0.3916  0.2206
 1016MOL0     O37033   3.852   1.092   8.139 -0.0042  0.2805  0.9740
 1016MOL0     C37034   3.834   1.060   8.002 -0.2717  0.0509  0.0550
 1016MOL0     C37035   3.746   1.174   7.944  0.4006 -0.2713 -0.0421
 1016MOL0     C37036   3.603   1.196   8.004  0.7750  0.3984 -0.1778
 1016MOL0     C37037   3.513   1.075   7.975 -0.6659 -0.0628  0.3656
 1016MOL0     C37038   3.378   1.114   8.040  0.1723  0.6833  0.1728
 1016MOL0     C37039   3.267   1.012   8.017 -0.6211  0.2385  1.1688
 1016MOL0     C37040   3.146   1.046   8.099 -0.1817  0.7023  0.8079
 1016MOL0     C37041   3.044   0.936   8.092  0.5267  0.6456 -0.2905
 1016MOL0     N37042   2.924   0.980   8.161  0.5500 -0.3807  0.0843
 1016MOL0     C37043   2.901   1.045   8.280  0.2092  0.2975  0.4336
 1016MOL0     C37044   2.773   1.023   8.305 -0.1638 -0.3147 -1.2030
 1016MOL0     C37045   2.714   1.054   8.448 -0.9984 -0.2978  0.6441
 1016MOL0     C37046   2.556   1.044   8.453  0.4401  0.4085  0.4299
 1016MOL0     C37047   2.503   1.000   8.587  0.5738 -0.0036  0.5349
 1016MOL0     C37048   2.360   0.944   8.575 -0.0718  0.3324 -0.1059
 1016MOL0     O37049   2.260   1.030   8.522 -0.1193  0.3715 -0.1083
 1016MOL0     C37050   2.137   0.971   8.507  0.4627 -0.5581  0.7296
 1016MOL0     C37051   2.117   0.867   8.425  0.2761  0.1748  0.8679
 1016MOL0     C37052   1.984   0.819   8.394 -0.3327  0.0045 -0.7812
 1016MOL0     C37053   1.968   0.713   8.294 -0.3230 -0.4127  0.1288
 1016MOL0     C37054   1.876   0.878   8.461 -0.1753  0.4275 -0.3356
 1016MOL0     C37055   1.740   0.813   8.464 -0.6996 -0.1448 -0.3530
 1016MOL0     O37056   1.702   0.790   8.590 -0.2163  0.2620 -1.1775
 1016MOL0     C37057   1.568   0.784   8.624 -0.3913  0.6040  0.2160
 1016MOL0     C37058   1.466   0.847   8.546  0.7177  0.0945  0.3146
 1016MOL0     C37059   1.330   0.837   8.580 -0.6695 -0.2437  0.5603
 1016MOL0     C37060   1.302   0.738   8.682  0.3622  0.1287  0.0557
 1016MOL0     O37061   1.171   0.693   8.715  0.5840 -0.4994 -0.0830
 1016MOL0     C37062   1.057   0.760   8.648 -0.5686  0.0901 -0.3257
 1016MOL0     C37063   0.940   0.732   8.738  0.1726  0.1828  0.4329
 1016MOL0     C37064   0.816   0.794   8.687  0.3658  0.0236 -0.1984
 1016MOL0     C37065   0.683   0.711   8.704 -0.3375  0.9264  0.8513
 1016MOL0     C37066   0.548   0.785   8.687 -1.4115  0.6499 -0.2848
 1016MOL0     C37067   0.524   0.833   8.545 -0.0961  0.3211  0.2899
 1016MOL0     C37068   0.379   0.882   8.526 -0.2547 -0.3069  0.1788
 1016MOL0     C37069   0.361   0.947   8.392 -0.2310  0.5889 -0.0095
 1016MOL0    Cl37070   0.437   1.106   8.354 -0.0274  0.4630 -0.2001
 1016MOL0     C37071   1.398   0.678   8.756 -0.3695 -0.3496  0.0673
 1016MOL0     C37072   1.536   0.691   8.723 -1.1183 -0.6903  0.3667
 1016MOL0     O37073   1.676   0.787   8.354  0.1461 -0.4100 -1.3152
 1016MOL0     C37074   1.901   0.991   8.545  0.3736  0.2388  0.5313
 1016MOL0     C37075   2.027   1.036   8.564 -0.5522  0.1011 -0.1998
 1016MOL0     N37076   2.709   0.962   8.201  0.0270  0.7782 -0.6587
 1016MOL0     N37077   2.798   0.939   8.114  0.8629  1.1092  0.2545
 1016MOL0     C37078   4.025   1.261   8.094  0.1821  0.2224 -0.1618
 1016MOL0     C37079   4.126   1.346   8.146  0.3789 -1.0253 -0.0298
 1016MOL0     C37080   4.480   1.481   8.396  0.0306  1.1233  0.5753
 1016MOL0     C37081   4.600   1.439   8.449 -0.7224 -0.6539  0.0964
 1016MOL0     C37082   4.708   1.530   8.474  0.8739  0.3200 -0.3851
 1016MOL0     C37083   4.690   1.665   8.445  0.3031 -0.1654  0.3496
 1016MOL0     O37084   4.787   1.755   8.462  1.3942  0.7164  0.6921
 1016MOL0     C37085   4.766   1.887   8.506  0.0717  0.9871  0.3143
 1016MOL0     C37086   4.896   1.947   8.557 -0.1652 -0.0164  0.4165
 1016MOL0     C37087   5.008   1.921   8.446  0.1161  0.3144 -0.0083
 1016MOL0     C37088   5.131   2.014   8.460  0.3161 -0.8973 -0.1799
 1016MOL0     C37089   5.238   1.970   8.373  0.1858 -0.2457  0.7961
 1016MOL0     C37090   5.314   1.928   8.290  0.0792  0.2031  0.4121
 1016MOL0     C37091   4.563   1.707   8.393  0.1080  0.9615 -0.1646
 1016MOL0     C37092   4.463   1.616   8.364  0.2111  0.2486 -0.3862
 1016MOL0     H37093   4.112   1.282   8.471 -0.3936 -0.8866  0.8773
 1016MOL0     H37094   3.919   1.124   8.388  0.0010  0.9860 -0.0038
 1016MOL0     H37095   3.934   1.064   7.959 -0.4574 -1.2921 -0.5512
 1016MOL0     H37096   3.793   0.960   7.985 -2.3388  0.7858  0.3880
 1016MOL0     H37097   3.795   1.271   7.940  2.0946 -1.0743  0.0166
 1016MOL0     H37098   3.751   1.152   7.837  0.8681 -1.2565  0.1687
 1016MOL0     H37099   3.616   1.209   8.112  0.8548 -0.8777 -0.0143
 1016MOL0     H37100   3.550   1.280   7.958 -2.7351 -2.0716 -1.1187
 1016MOL0     H37101   3.514   1.069   7.866  0.1397  3.0198  0.1016
 1016MOL0     H37102   3.549   0.992   8.036 -1.1366  1.7136  3.2557
 1016MOL0     H37103   3.394   1.120   8.148 -1.2755  1.3407  0.3732
 1016MOL0     H37104   3.343   1.208   7.997 -3.6102 -1.5419 -2.2527
 1016MOL0     H37105   3.250   1.010   7.909  2.8088 -0.9809  0.5380
 1016MOL0     H37106   3.303   0.911   8.035 -1.1565 -0.1099  0.3230
 1016MOL0     H37107   3.177   1.058   8.203  0.5621 -1.8297  0.9455
 1016MOL0     H37108   3.101   1.140   8.064  1.6999  1.8643  1.3443
 1016MOL0     H37109   3.082   0.846   8.140 -0.4535  0.5865  0.4258
 1016MOL0     H37110   3.011   0.917   7.989  1.4274 -0.2064 -0.4255
 1016MOL0     H37111   2.978   1.081   8.347  1.3383  1.0390 -1.2219
 1016MOL0     H37112   2.752   0.983   8.522  1.2146 -0.3439 -0.4377
 1016MOL0     H37113   2.731   1.159   8.474  0.1822 -0.5046  0.7874
 1016MOL0     H37114   2.513   0.971   8.385 -2.5419 -1.1430  3.6784
 1016MOL0     H37115   2.509   1.140   8.429  0.1128 -0.0303 -0.7196
 1016MOL0     H37116   2.498   1.075   8.667 -0.4028  0.7958 -0.2363
 1016MOL0     H37117   2.556   0.913   8.624 -0.4803 -1.0464 -0.3412
 1016MOL0     H37118   2.337   0.894   8.670 -2.3185 -1.9521 -1.7203
 1016MOL0     H37119   2.359   0.858   8.507 -0.1569  0.2691 -0.0262
 1016MOL0     H37120   2.214   0.848   8.381  2.0287  1.8030  3.7525
 1016MOL0     H37121   2.068   0.675   8.271 -0.3030  0.1433 -0.7450
 1016MOL0     H37122   1.917   0.621   8.326  1.7984 -1.8377 -0.3952
 1016MOL0     H37123   1.912   0.759   8.212  2.7994  2.8157 -0.4075
 1016MOL0     H37124   1.496   0.914   8.466  3.9462 -0.8063  0.6305
 1016MOL0     H37125   1.256   0.901   8.534 -0.2244  1.8177  2.5395
 1016MOL0     H37126   1.076   0.868   8.644  0.5344 -0.0909 -0.4612
 1016MOL0     H37127   1.029   0.713   8.554  0.2297  4.8074 -3.2868
 1016MOL0     H37128   0.921   0.625   8.741 -0.2944  0.1892 -1.4336
 1016MOL0     H37129   0.962   0.778   8.835  0.4011  3.3328 -0.9601
 1016MOL0     H37130   0.828   0.823   8.582 -1.6244  0.8241 -0.2432
 1016MOL0     H37131   0.791   0.891   8.730 -2.3368 -0.3807 -0.6542
 1016MOL0     H37132   0.689   0.615   8.651 -1.0442  0.1500  2.1274
 1016MOL0     H37133   0.680   0.685   8.810  1.1876 -0.3146  0.6431
 1016MOL0     H37134   0.537   0.874   8.750 -1.6134  2.3951 -2.6889
 1016MOL0     H37135   0.482   0.709   8.730  1.3550 -0.2696  2.8105
 1016MOL0     H37136   0.591   0.920   8.540 -1.0342  1.1890  2.0620
 1016MOL0     H37137   0.560   0.758   8.474 -2.1507 -1.8637  1.4090
 1016MOL0     H37138   0.352   0.948   8.610 -0.8737 -1.8523  1.2390
 1016MOL0     H37139   0.312   0.796   8.521 -1.4099  0.5844  0.1194
 1016MOL0     H37140   0.256   0.954   8.363 -0.6385 -3.0655  0.0845
 1016MOL0     H37141   0.406   0.887   8.313 -0.6100 -0.5962  0.6505
 1016MOL0     H37142   1.371   0.619   8.843  0.8087  2.0609  2.2057
 1016MOL0     H37143   1.617   0.635   8.767 -2.0244 -2.1015  0.2963
 1016MOL0     H37144   1.817   1.043   8.590 -1.0839 -1.6082  0.0838
 1016MOL0     H37145   2.044   1.135   8.607  1.5583  0.2755 -1.2943
 1016MOL0     H37146   3.998   1.271   7.989 -2.2734  0.0552  0.4113
 1016MOL0     H37147   4.183   1.417   8.088  1.1172 -1.1893  0.4899
 1016MOL0     H37148   4.618   1.333   8.465 -1.1606 -0.4739  2.0126
 1016MOL0     H37149   4.803   1.495   8.511  0.3874  0.1935  0.7840
 1016MOL0     H37150   4.724   1.958   8.434  0.0688  1.0964  0.4241
 1016MOL0     H37151   4.686   1.879   8.580 -0.3065 -0.5839 -0.2177
 1016MOL0     H37152   4.922   1.910   8.656  1.8355  2.0589  0.7658
 1016MOL0     H37153   4.872   2.051   8.580 -0.2403 -0.0578  0.5246
 1016MOL0     H37154   4.968   1.944   8.348  2.9342  1.5836 -0.9791
 1016MOL0     H37155   5.030   1.818   8.475 -2.5805 -0.3492 -0.0531
 1016MOL0     H37156   5.181   2.016   8.558  2.2438 -0.1597 -1.1374
 1016MOL0     H37157   5.096   2.112   8.428 -0.8468 -0.8644  1.1123
 1016MOL0     H37158   5.394   1.888   8.231  0.5195  0.7261  0.6402
 1016MOL0     H37159   4.543   1.813   8.381 -2.7836  0.7353  1.6573
 1016MOL0     H37160   4.367   1.646   8.325  0.8244 -0.3029 -2.4295
 1017MOL0     O37161   0.666   9.802   7.159 -0.1518  0.3754 -0.3165
 1017MOL0     C37162   0.607   9.770   7.263  0.5376 -0.2942 -1.2969
 1017MOL0     O37163   0.663   9.696   7.371 -0.1437  0.1701  0.0372
 1017MOL0     C37164   0.788   9.638   7.375 -0.7234 -0.1913 -0.5678
 1017MOL0     C37165   0.855   9.609   7.493 -0.1862  0.0499 -0.9727
 1017MOL0     C37166   0.986   9.550   7.491  0.6831  0.2832 -0.2230
 1017MOL0     C37167   1.052   9.502   7.372 -0.6883 -0.2946 -0.0583
 1017MOL0     O37168   1.167   9.434   7.379 -0.1035 -0.7922 -0.5164
 1017MOL0     C37169   1.217   9.365   7.267 -0.5318 -0.5838  0.9957
 1017MOL0     C37170   1.362   9.298   7.270 -0.6820  0.4368 -0.4868
 1017MOL0     C37171   1.388   9.173   7.174 -0.1569 -0.1760  0.2674
 1017MOL0     C37172   1.529   9.114   7.178 -0.1448 -0.7541 -1.1138
 1017MOL0     C37173   1.541   9.003   7.076  0.7309  0.5368  0.4066
 1017MOL0     C37174   1.691   8.956   7.067 -0.0218  0.6030 -0.5641
 1017MOL0     C37175   1.716   8.882   6.933  0.4136 -0.3781  0.9351
 1017MOL0     C37176   1.863   8.841   6.930  0.7192  0.0927  0.9752
 1017MOL0     N37177   1.891   8.760   6.809 -0.7149 -0.9494 -1.2094
 1017MOL0     C37178   1.888   8.809   6.684 -0.1592 -0.5277 -0.3031
 1017MOL0     C37179   1.930   8.702   6.623 -0.3549  0.2002 -0.1926
 1017MOL0     C37180   1.961   8.682   6.474  0.1608  1.4491  0.1796
 1017MOL0     C37181   2.092   8.737   6.432  0.2911 -0.6710  0.5376
 1017MOL0     C37182   2.139   8.673   6.301 -0.2101 -0.0306  0.3722
 1017MOL0     C37183   2.266   8.751   6.249  0.1489  0.8047 -1.1890
 1017MOL0     O37184   2.376   8.755   6.342  0.1322 -0.4147  0.3681
 1017MOL0     C37185   2.468   8.865   6.332  0.9652 -0.3235  0.5540
 1017MOL0     C37186   2.586   8.875   6.417  1.3788 -0.1117  0.1163
 1017MOL0     C37187   2.681   8.982   6.397 -0.1932  0.4131 -0.5659
 1017MOL0     C37188   2.811   8.977   6.480  0.0833 -0.7578  0.7593
 1017MOL0     C37189   2.659   9.077   6.291 -0.1219  0.1658 -0.3807
 1017MOL0     C37190   2.745   9.189   6.271 -1.5568 -0.3020 -0.2754
 1017MOL0     O37191   2.830   9.244   6.366  0.0236 -0.3988  0.1098
 1017MOL0     C37192   2.940   9.303   6.313 -0.8109 -0.1465  0.0221
 1017MOL0     C37193   2.973   9.419   6.369 -0.4461  0.2123 -0.6440
 1017MOL0     C37194   3.086   9.491   6.332  0.5668  0.1765  0.1499
 1017MOL0     C37195   3.161   9.441   6.225 -0.0380  0.4584 -0.9453
 1017MOL0     O37196   3.282   9.494   6.187 -0.4060  0.1691  0.1860
 1017MOL0     C37197   3.296   9.645   6.202 -0.1517  0.4718  0.0510
 1017MOL0     C37198   3.405   9.678   6.090 -0.4441 -0.2145  0.1827
 1017MOL0     C37199   3.549   9.624   6.111 -0.6008  0.1833  0.4715
 1017MOL0     C37200   3.650   9.698   6.029  1.2342 -0.2208  0.3205
 1017MOL0     C37201   3.789   9.642   6.057 -0.1123  0.6083 -0.0868
 1017MOL0     C37202   3.828   9.508   5.997  0.3503 -0.4407 -1.0217
 1017MOL0     C37203   3.971   9.457   6.036  0.1140  0.2473 -0.1502
 1017MOL0     C37204   4.004   9.318   5.973  0.3181  0.2025 -0.7342
 1017MOL0    Cl37205   4.161   9.266   6.050 -0.0601 -0.2606 -0.2783
 1017MOL0     C37206   3.122   9.327   6.160 -0.6831  0.4054  0.3124
 1017MOL0     C37207   3.007   9.261   6.198  0.9945 -0.5683  1.2384
 1017MOL0     O37208   2.734   9.231   6.158 -0.1252  0.6851 -0.2547
 1017MOL0     C37209   2.539   9.067   6.224 -0.6349  0.2034 -0.4947
 1017MOL0     C37210   2.448   8.969   6.240 -0.3042 -0.7782 -0.0039
 1017MOL0     N37211   1.958   8.588   6.709  0.2349 -0.5207 -0.0403
 1017MOL0     N37212   1.933   8.632   6.821 -0.6408 -0.3147  0.5195
 1017MOL0     C37213   0.977   9.520   7.254 -0.0004 -0.1381 -0.3234
 1017MOL0     C37214   0.851   9.594   7.253 -0.3813 -0.0036 -0.1031
 1017MOL0     C37215   0.459   9.793   7.276  0.9408 -0.3387  0.3990
 1017MOL0     C37216   0.386   9.764   7.387  0.5791  0.3199  0.3388
 1017MOL0     C37217   0.252   9.786   7.405 -0.6533 -0.7143 -0.5117
 1017MOL0     C37218   0.185   9.861   7.314  0.0455 -0.2060 -0.1668
 1017MOL0     O37219   0.054   9.895   7.350 -0.2754 -0.1574  0.1149
 1017MOL0     C37220  -0.050   9.934   7.258  0.6264 -0.6240  1.1462
 1017MOL0     C37221  -0.115   9.813   7.170  0.9227 -0.1611 -0.4655
 1017MOL0     C37222  -0.166   9.698   7.276  0.3426 -0.3651  0.1063
 1017MOL0     C37223  -0.282   9.724   7.375  0.5621  0.4002 -0.3419
 1017MOL0     C37224  -0.405   9.780   7.314 -0.2331 -0.3153  1.4361
 1017MOL0     C37225  -0.495   9.828   7.254  0.2100 -0.5438  0.5118
 1017MOL0     C37226   0.250   9.889   7.193 -0.4573  0.7252  1.1022
 1017MOL0     C37227   0.383   9.855   7.174  0.4316 -0.1069 -0.0411
 1017MOL0     H37228   0.806   9.644   7.582 -0.7598 -1.9700 -0.4374
 1017MOL0     H37229   1.034   9.538   7.588  0.7307 -2.6663 -0.5208
 1017MOL0     H37230   1.144   9.290   7.235 -0.1260  0.0766 -1.7853
 1017MOL0     H37231   1.213   9.435   7.182 -0.6766 -0.3007  1.2338
 1017MOL0     H37232   1.447   9.363   7.246 -0.9303  0.6950 -0.6718
 1017MOL0     H37233   1.391   9.273   7.372 -0.8951  2.7469  0.2018
 1017MOL0     H37234   1.302   9.105   7.181 -0.1862 -0.1003  0.6867
 1017MOL0     H37235   1.381   9.208   7.071  0.5080 -1.0848 -0.0978
 1017MOL0     H37236   1.597   9.194   7.146 -2.2061  0.3102 -3.0881
 1017MOL0     H37237   1.557   9.081   7.278  1.6542 -2.1658 -2.0253
 1017MOL0     H37238   1.482   8.913   7.098  2.2780 -0.5881  0.1329
 1017MOL0     H37239   1.510   9.048   6.982 -1.0039  0.9638  1.1487
 1017MOL0     H37240   1.752   9.047   7.057  0.5588  0.3095  0.2463
 1017MOL0     H37241   1.719   8.889   7.149 -1.5658  0.0672 -0.4605
 1017MOL0     H37242   1.651   8.794   6.937 -1.6775  0.8562 -2.0927
 1017MOL0     H37243   1.697   8.950   6.850  0.4939  0.6573  1.7444
 1017MOL0     H37244   1.882   8.769   7.011 -0.4944  1.4476  2.5547
 1017MOL0     H37245   1.928   8.929   6.926 -0.8278  1.3423  1.8428
 1017MOL0     H37246   1.872   8.908   6.643 -1.5047  1.0790  3.5662
 1017MOL0     H37247   1.963   8.574   6.459 -2.0755  1.3343  0.4533
 1017MOL0     H37248   1.880   8.715   6.409  0.2218  1.7340  0.2430
 1017MOL0     H37249   2.168   8.716   6.508  1.6763 -0.6110 -0.7650
 1017MOL0     H37250   2.071   8.845   6.431 -0.4738 -0.7861  2.0721
 1017MOL0     H37251   2.063   8.684   6.224  0.7791 -1.0587 -0.7991
 1017MOL0     H37252   2.158   8.567   6.321  1.5255  0.4443  1.5231
 1017MOL0     H37253   2.238   8.854   6.225  4.3650  2.3005 -0.3974
 1017MOL0     H37254   2.300   8.694   6.162 -2.1011 -5.4317  1.3724
 1017MOL0     H37255   2.596   8.787   6.480  1.0374 -0.3630 -0.1734
 1017MOL0     H37256   2.831   8.879   6.525  2.6944 -0.4849  0.3760
 1017MOL0     H37257   2.895   8.995   6.413 -1.4443 -1.1064 -1.3365
 1017MOL0     H37258   2.806   9.056   6.555 -0.4621 -0.6698  0.6354
 1017MOL0     H37259   2.914   9.465   6.447  3.8898  0.6930  2.7407
 1017MOL0     H37260   3.106   9.587   6.380 -0.6534 -0.5005  2.1400
 1017MOL0     H37261   3.202   9.697   6.183 -0.6169 -0.4201 -0.1812
 1017MOL0     H37262   3.344   9.668   6.297  1.7001  1.8009 -1.1186
 1017MOL0     H37263   3.376   9.648   5.989  2.2426 -2.5609 -0.0517
 1017MOL0     H37264   3.409   9.786   6.080  3.0472 -0.2409  0.0526
 1017MOL0     H37265   3.551   9.517   6.088 -0.4996  0.5245 -1.2920
 1017MOL0     H37266   3.557   9.647   6.217 -0.9460  1.0424  0.3257
 1017MOL0     H37267   3.629   9.697   5.922  0.8322  0.1915  0.3921
 1017MOL0     H37268   3.651   9.806   6.046  0.2995 -0.0140 -0.8541
 1017MOL0     H37269   3.811   9.643   6.165  0.5697 -0.8402 -0.1737
 1017MOL0     H37270   3.857   9.717   6.017 -1.5621  1.4292 -1.0835
 1017MOL0     H37271   3.755   9.437   6.035 -0.6488  0.2997 -1.5061
 1017MOL0     H37272   3.813   9.518   5.889 -0.1062 -1.3116 -1.0369
 1017MOL0     H37273   3.976   9.446   6.144  1.4312 -1.7162 -0.3473
 1017MOL0     H37274   4.050   9.530   6.016  1.9907 -0.5064  3.6692
 1017MOL0     H37275   3.995   9.327   5.864  4.6201 -1.8934 -1.5006
 1017MOL0     H37276   3.934   9.242   6.011  1.2131  1.3904  3.9274
 1017MOL0     H37277   3.187   9.277   6.089  4.4527 -0.7885  5.1316
 1017MOL0     H37278   2.974   9.172   6.144 -0.9203  0.3767  0.7510
 1017MOL0     H37279   2.518   9.142   6.148 -2.7947 -0.5152 -0.6695
 1017MOL0     H37280   2.364   8.974   6.171 -1.9757  0.9435  2.0250
 1017MOL0     H37281   1.007   9.477   7.160  0.6079  0.5873 -0.4703
 1017MOL0     H37282   0.806   9.608   7.155 -2.1100 -2.7339  0.1851
 1017MOL0     H37283   0.434   9.706   7.465  1.8343 -2.0678 -2.0271
 1017MOL0     H37284   0.187   9.749   7.483 -3.4374  0.6109 -2.0469
 1017MOL0     H37285  -0.120   9.998   7.313  0.4824  0.6918 -0.5010
 1017MOL0     H37286  -0.008   9.996   7.179 -1.1431 -2.5315 -1.4329
 1017MOL0     H37287  -0.033   9.771   7.112  0.9839  2.3445 -2.3846
 1017MOL0     H37288  -0.198   9.831   7.100  2.2835  2.4062 -1.5462
 1017MOL0     H37289  -0.078   9.666   7.333  0.5842 -0.7389 -0.4659
 1017MOL0     H37290  -0.205   9.616   7.215 -0.7116 -1.9134  2.6652
 1017MOL0     H37291  -0.237   9.795   7.446  0.8211  0.6219 -0.7248
 1017MOL0     H37292  -0.304   9.634   7.432 -0.4784  0.5160 -0.5542
 1017MOL0     H37293  -0.576   9.881   7.208  0.8061  2.6111  2.7775
 1017MOL0     H37294   0.194   9.926   7.108  0.6145 -0.1504 -0.0338
 1017MOL0     H37295   0.421   9.871   7.074 -0.4414 -0.2350 -0.3994
 1018MOL0     O37296   6.870  10.797   9.816  0.0862  0.7003  0.1265
 1018MOL0     C37297   6.842  10.691   9.768 -0.3016  0.4842 -0.4357
 1018MOL0     O37298   6.912  10.574   9.785 -0.2179 -0.1994 -0.9416
 1018MOL0     C37299   7.031  10.571   9.851 -0.3579  0.2500  0.5494
 1018MOL0     C37300   7.045  10.474   9.949  0.2155 -0.0604  0.0002
 1018MOL0     C37301   7.166  10.446  10.017 -1.4833 -0.1519 -0.2325
 1018MOL0     C37302   7.274  10.534   9.992  0.7978  0.2261  0.3004
 1018MOL0     O37303   7.385  10.526  10.071 -0.7628 -0.1031  0.1331
 1018MOL0     C37304   7.513  10.511  10.006 -0.4004 -0.2039  0.3699
 1018MOL0     C37305   7.609  10.451  10.109 -0.1444  0.4359 -0.8500
 1018MOL0     C37306   7.548  10.321  10.179 -0.8210  0.1057  0.3415
 1018MOL0     C37307   7.491  10.220  10.079 -0.4708 -0.0477 -0.1670
 1018MOL0     C37308   7.433  10.103  10.157  0.6418  0.6949  0.3405
 1018MOL0     C37309   7.353  10.010  10.065 -0.4191  0.8999  0.2664
 1018MOL0     C37310   7.230  10.075  10.014 -0.4487 -0.2729 -0.4914
 1018MOL0     C37311   7.127   9.971   9.954 -0.5209 -0.3977  0.2601
 1018MOL0     N37312   7.012  10.056   9.912  0.1544  0.0960  0.8313
 1018MOL0     C37313   6.972  10.074   9.777  0.0477  0.1264  0.6396
 1018MOL0     C37314   6.854  10.144   9.782  0.4877  0.7580 -0.1303
 1018MOL0     C37315   6.790  10.210   9.666 -0.1922 -0.0975  0.0722
 1018MOL0     C37316   6.660  10.135   9.605  0.3992  0.1097  0.0974
 1018MOL0     C37317   6.523  10.173   9.666  0.4816 -0.4944 -0.5602
 1018MOL0     C37318   6.411  10.079   9.621  0.2891 -0.4401 -0.0828
 1018MOL0     O37319   6.285  10.148   9.630  0.1211 -0.3364 -1.1471
 1018MOL0     C37320   6.236  10.210   9.520 -0.0363  0.0282  0.2789
 1018MOL0     C37321   6.306  10.258   9.403 -0.3281  0.7474 -0.6607
 1018MOL0     C37322   6.246  10.326   9.299 -0.4996 -0.1935 -0.4955
 1018MOL0     C37323   6.341  10.386   9.193  0.1248  0.4227  0.1664
 1018MOL0     C37324   6.103  10.342   9.306  0.0917 -0.7665 -0.4698
 1018MOL0     C37325   6.025  10.388   9.189 -0.2347  0.6105 -0.3022
 1018MOL0     O37326   5.902  10.429   9.223 -0.4761 -0.3633 -0.3298
 1018MOL0     C37327   5.795  10.436   9.142  0.2861 -0.4873 -0.0798
 1018MOL0     C37328   5.782  10.359   9.025 -0.2769  0.6885 -0.2094
 1018MOL0     C37329   5.660  10.373   8.963  0.2512  0.1093  0.8762
 1018MOL0     C37330   5.553  10.455   9.005  0.2175 -0.2158  0.2400
 1018MOL0     O37331   5.437  10.430   8.934 -0.0860 -0.3015 -0.0119
 1018MOL0     C37332   5.390  10.556   8.878 -0.2368  0.1908 -0.0747
 1018MOL0     C37333   5.334  10.535   8.740 -0.0833  0.1816 -0.0290
 1018MOL0     C37334   5.456  10.509   8.656  0.1152  0.1159 -0.1534
 1018MOL0     C37335   5.418  10.563   8.516 -0.1893 -0.3581  0.3773
 1018MOL0     C37336   5.293  10.486   8.458 -0.4774  1.0243 -1.0230
 1018MOL0     C37337   5.283  10.544   8.311  0.2843  0.4657  0.1792
 1018MOL0     C37338   5.168  10.481   8.233 -0.1472 -0.1272  0.4455
 1018MOL0     C37339   5.190  10.339   8.194  0.0672  0.7123  0.4367
 1018MOL0    Cl37340   5.132  10.239   8.342 -0.0169  0.0649  0.4298
 1018MOL0     C37341   5.570  10.527   9.122 -0.3376 -0.4482 -0.0410
 1018MOL0     C37342   5.696  10.517   9.184 -0.7227 -0.0152  0.1640
 1018MOL0     O37343   6.074  10.387   9.073 -0.1489  0.0850  0.2024
 1018MOL0     C37344   6.036  10.307   9.431 -0.5411 -0.2652  0.3891
 1018MOL0     C37345   6.106  10.246   9.532 -0.8079  0.4632 -0.0554
 1018MOL0     N37346   6.817  10.153   9.916  0.4501  0.0571  1.1331
 1018MOL0     N37347   6.909  10.102   9.989 -0.0928 -0.0989 -0.2060
 1018MOL0     C37348   7.265  10.620   9.890 -0.1940  0.1262  0.1959
 1018MOL0     C37349   7.148  10.646   9.809  1.1888  0.5501  0.8050
 1018MOL0     C37350   6.710  10.679   9.705  0.1280  0.6362  0.7791
 1018MOL0     C37351   6.603  10.752   9.761  0.0361  0.7922  0.6138
 1018MOL0     C37352   6.468  10.718   9.724  1.2381  0.3216  0.1532
 1018MOL0     C37353   6.449  10.613   9.636 -0.0534  0.5437 -0.2455
 1018MOL0     O37354   6.329  10.558   9.615 -0.7780 -0.3760 -0.3856
 1018MOL0     C37355   6.247  10.640   9.528 -0.4894  0.3224  0.3627
 1018MOL0     C37356   6.113  10.669   9.596 -0.3846  0.6185  0.5280
 1018MOL0     C37357   6.027  10.740   9.490 -1.1224  0.0787  0.3326
 1018MOL0     C37358   5.876  10.726   9.517 -0.7112 -0.8715 -0.1077
 1018MOL0     C37359   5.835  10.778   9.653  0.1524 -0.5394 -0.6903
 1018MOL0     C37360   5.807  10.833   9.762 -0.5961 -0.4702  0.6697
 1018MOL0     C37361   6.557  10.554   9.565  0.4744  0.5412  0.0298
 1018MOL0     C37362   6.691  10.583   9.605 -0.1165  0.0477 -0.0434
 1018MOL0     H37363   6.961  10.408   9.966 -0.0156  0.4541  0.9536
 1018MOL0     H37364   7.178  10.372  10.096  2.0688  3.8869  3.5540
 1018MOL0     H37365   7.509  10.448   9.917 -2.6071 -1.5004  1.3151
 1018MOL0     H37366   7.546  10.614   9.987  2.3071 -0.7810  1.4326
 1018MOL0     H37367   7.708  10.425  10.072  1.3663 -1.2373  3.6581
 1018MOL0     H37368   7.632  10.529  10.182  1.5179 -1.0388  0.2912
 1018MOL0     H37369   7.619  10.265  10.241  0.8955 -1.5932 -2.8938
 1018MOL0     H37370   7.460  10.344  10.241  0.3159  2.0753  1.3134
 1018MOL0     H37371   7.412  10.263  10.017 -1.8153 -2.0418  0.0831
 1018MOL0     H37372   7.567  10.178  10.013 -2.9140 -2.5423 -1.5650
 1018MOL0     H37373   7.511  10.039  10.201  0.3834 -0.4640 -0.8153
 1018MOL0     H37374   7.363  10.147  10.228 -2.3758  3.7006 -3.9971
 1018MOL0     H37375   7.419   9.983   9.982 -0.6924 -0.7702  0.5480
 1018MOL0     H37376   7.334   9.920  10.124  1.4645  0.6474  0.5427
 1018MOL0     H37377   7.180  10.122  10.099 -0.6715  0.2938 -0.9234
 1018MOL0     H37378   7.251  10.154   9.941 -2.5755 -0.4060 -1.3222
 1018MOL0     H37379   7.100   9.910  10.040  0.6757  2.4299  2.8383
 1018MOL0     H37380   7.162   9.904   9.875 -0.2235 -1.4606  1.2670
 1018MOL0     H37381   7.027  10.058   9.685 -2.4506 -0.7696 -0.8230
 1018MOL0     H37382   6.762  10.306   9.710  0.2351 -0.1396  0.4561
 1018MOL0     H37383   6.862  10.222   9.585  0.4188 -4.8389 -0.3766
 1018MOL0     H37384   6.676  10.027   9.613 -0.2025  0.1666  2.8687
 1018MOL0     H37385   6.648  10.155   9.498 -4.9688 -1.3562  0.1190
 1018MOL0     H37386   6.512  10.278   9.640  2.2360 -0.2021 -0.2757
 1018MOL0     H37387   6.547  10.171   9.773  2.5388  2.0478 -0.8784
 1018MOL0     H37388   6.417   9.987   9.680 -2.6504  0.7640  2.3432
 1018MOL0     H37389   6.430  10.057   9.515 -2.8890  1.8428 -1.3017
 1018MOL0     H37390   6.413  10.240   9.405 -0.8284 -2.8317  0.6308
 1018MOL0     H37391   6.331  10.337   9.096  1.1160  0.9797 -0.2278
 1018MOL0     H37392   6.312  10.489   9.172 -3.2370  0.0027  1.9646
 1018MOL0     H37393   6.445  10.358   9.214 -0.4799 -2.8477 -0.5199
 1018MOL0     H37394   5.867  10.306   8.984 -0.0612  1.0783 -0.2790
 1018MOL0     H37395   5.631  10.309   8.881 -1.7704  1.7133  0.2493
 1018MOL0     H37396   5.309  10.595   8.941 -0.5430 -0.7175  0.1066
 1018MOL0     H37397   5.464  10.637   8.888 -1.1803  0.8367  2.6548
 1018MOL0     H37398   5.277  10.442   8.746 -0.9929  0.8034  3.3224
 1018MOL0     H37399   5.270  10.613   8.696 -1.9102 -1.1066  0.2446
 1018MOL0     H37400   5.471  10.400   8.659  1.2799  0.2732  0.3360
 1018MOL0     H37401   5.547  10.561   8.688 -0.1976  0.9507 -0.6097
 1018MOL0     H37402   5.403  10.671   8.521  4.8388  0.5652  1.6126
 1018MOL0     H37403   5.512  10.551   8.461  0.6439 -0.2047  1.7076
 1018MOL0     H37404   5.200  10.496   8.514  0.8111 -0.0991  1.4766
 1018MOL0     H37405   5.321  10.380   8.454  3.7135  1.8254  0.9851
 1018MOL0     H37406   5.275  10.653   8.317  1.5821  0.6890 -1.3472
 1018MOL0     H37407   5.375  10.516   8.260  0.0720  0.6723 -0.3329
 1018MOL0     H37408   5.158  10.544   8.144  3.5500  2.7539  1.8138
 1018MOL0     H37409   5.078  10.486   8.295  0.1443 -0.2751  0.8801
 1018MOL0     H37410   5.296  10.319   8.176 -0.0859 -0.2895  0.6383
 1018MOL0     H37411   5.125  10.312   8.110  0.6202 -0.9845  0.5339
 1018MOL0     H37412   5.494  10.595   9.158  0.9663  2.1000 -1.8304
 1018MOL0     H37413   5.714  10.559   9.282 -0.9562 -1.7712  1.0051
 1018MOL0     H37414   5.928  10.323   9.432 -0.6552 -0.9520 -0.0349
 1018MOL0     H37415   6.044  10.220   9.617 -2.5184  3.4611 -0.2209
 1018MOL0     H37416   7.352  10.674   9.853 -0.9791 -0.5188 -2.9344
 1018MOL0     H37417   7.152  10.715   9.725 -2.2804  3.5951  2.8613
 1018MOL0     H37418   6.607  10.837   9.828  0.8181 -0.8138  2.7361
 1018MOL0     H37419   6.388  10.773   9.772  1.1667  1.0615 -0.7749
 1018MOL0     H37420   6.290  10.737   9.502 -0.9644  1.0772  2.1791
 1018MOL0     H37421   6.225  10.580   9.440 -1.3626 -2.1732  2.1403
 1018MOL0     H37422   6.121  10.726   9.689  0.6186  1.1893  0.1111
 1018MOL0     H37423   6.067  10.573   9.621  2.8132 -0.5055  2.8173
 1018MOL0     H37424   6.050  10.702   9.389 -1.6193 -1.1627  0.6702
 1018MOL0     H37425   6.046  10.847   9.484  0.0113 -0.0752  0.9352
 1018MOL0     H37426   5.848  10.621   9.506 -1.1900 -0.5628 -2.3422
 1018MOL0     H37427   5.821  10.775   9.436 -0.9309  1.0385  1.1275
 1018MOL0     H37428   5.799  10.877   9.859  2.4757  1.9768 -0.0373
 1018MOL0     H37429   6.526  10.492   9.482  0.2686  0.4325  0.1864
 1018MOL0     H37430   6.768  10.534   9.546 -0.4405  0.7793 -1.1103
 1019MOL0     O37431   6.948   3.305   5.927  0.7479  0.2316 -0.4495
 1019MOL0     C37432   6.933   3.187   5.896 -0.1991 -0.4273  0.2179
 1019MOL0     O37433   6.819   3.136   5.851  0.7597  0.2475 -0.2226
 1019MOL0     C37434   6.714   3.224   5.835 -0.1201  0.1015 -0.5662
 1019MOL0     C37435   6.631   3.260   5.938  0.0422 -0.1766  0.6943
 1019MOL0     C37436   6.548   3.379   5.919 -0.3620 -0.1808 -0.4784
 1019MOL0     C37437   6.539   3.440   5.795 -0.0999  0.5652 -0.3174
 1019MOL0     O37438   6.467   3.548   5.747 -0.1972 -0.1754 -0.2036
 1019MOL0     C37439   6.359   3.575   5.834 -0.0963 -1.2484  0.1356
 1019MOL0     C37440   6.304   3.721   5.808  0.0467  0.7879 -0.7152
 1019MOL0     C37441   6.207   3.772   5.909 -0.3508  0.5189  0.2207
 1019MOL0     C37442   6.175   3.915   5.871 -0.3583 -0.5707  0.2641
 1019MOL0     C37443   6.065   3.985   5.954 -0.5076 -0.5955  0.0642
 1019MOL0     C37444   6.128   4.075   6.058  0.1378 -0.5759 -1.0466
 1019MOL0     C37445   6.015   4.161   6.129 -0.4938  0.0561  0.2316
 1019MOL0     C37446   6.062   4.270   6.230 -0.3943 -0.1615 -0.5397
 1019MOL0     N37447   6.111   4.209   6.360  0.1383  0.0617 -0.0797
 1019MOL0     C37448   6.038   4.181   6.476  0.1438 -0.5918  0.9885
 1019MOL0     C37449   6.122   4.102   6.547 -1.4382 -0.6632  0.2150
 1019MOL0     C37450   6.098   4.046   6.685  0.4780 -0.0861  0.6754
 1019MOL0     C37451   6.088   3.892   6.694 -0.3819 -0.1297 -0.6865
 1019MOL0     C37452   6.212   3.813   6.682 -0.0594  0.4094  0.0203
 1019MOL0     C37453   6.186   3.666   6.694 -0.0190  0.6794  0.5142
 1019MOL0     O37454   6.296   3.578   6.659 -0.1106  0.1039 -0.4139
 1019MOL0     C37455   6.265   3.446   6.672 -0.5971 -0.0121 -0.3560
 1019MOL0     C37456   6.141   3.387   6.634  0.3535 -0.8011 -0.2743
 1019MOL0     C37457   6.128   3.248   6.616 -0.8229 -0.0171  0.2760
 1019MOL0     C37458   6.000   3.205   6.539 -0.2988  0.5384 -0.0134
 1019MOL0     C37459   6.240   3.167   6.642 -0.0049 -0.2951  0.4770
 1019MOL0     C37460   6.242   3.023   6.611 -1.7299 -0.1897  0.0633
 1019MOL0     O37461   6.363   2.968   6.573 -0.0930 -0.2358  0.5273
 1019MOL0     C37462   6.367   2.842   6.547 -0.6560  0.2688  0.2039
 1019MOL0     C37463   6.463   2.768   6.612  0.8594 -0.6228 -0.7618
 1019MOL0     C37464   6.478   2.632   6.592 -0.1163 -0.2931  0.7409
 1019MOL0     C37465   6.398   2.556   6.508 -0.7216 -0.3305 -0.6542
 1019MOL0     O37466   6.435   2.426   6.507  0.8109 -0.5006  0.2099
 1019MOL0     C37467   6.315   2.344   6.529 -0.0415  0.1399 -0.4804
 1019MOL0     C37468   6.330   2.253   6.650 -0.1657 -0.7205 -0.0858
 1019MOL0     C37469   6.420   2.142   6.616  0.5312  0.3920 -0.5094
 1019MOL0     C37470   6.418   2.041   6.731  0.6215  0.5490  0.2884
 1019MOL0     C37471   6.293   1.946   6.725  0.3699  0.6587 -0.5547
 1019MOL0     C37472   6.304   1.863   6.857 -1.3725 -0.0199 -0.5130
 1019MOL0     C37473   6.202   1.748   6.850 -0.3691  1.3613  0.9608
 1019MOL0     C37474   6.222   1.648   6.960  0.0128 -1.3349  0.0979
 1019MOL0    Cl37475   6.169   1.743   7.116  0.3295  0.1288  0.0960
 1019MOL0     C37476   6.308   2.628   6.439  0.5556 -0.3780  0.1067
 1019MOL0     C37477   6.289   2.763   6.450  0.0596  0.4003  0.0454
 1019MOL0     O37478   6.133   2.966   6.619 -0.3752  0.3329 -0.0659
 1019MOL0     C37479   6.359   3.229   6.679  0.1653  0.2335 -0.2002
 1019MOL0     C37480   6.376   3.370   6.684  0.0902  0.0733 -0.0631
 1019MOL0     N37481   6.250   4.110   6.489  0.1620 -1.1119 -0.0470
 1019MOL0     N37482   6.238   4.147   6.372 -0.7192  0.1148  0.3818
 1019MOL0     C37483   6.619   3.395   5.690 -0.3642  0.4334  0.0938
 1019MOL0     C37484   6.707   3.284   5.713  0.0730  0.2754 -0.6226
 1019MOL0     C37485   7.057   3.109   5.894 -0.3052  0.1314 -0.3141
 1019MOL0     C37486   7.171   3.154   5.953 -1.0775  0.8351  0.1935
 1019MOL0     C37487   7.281   3.090   5.952  0.6330  1.0827  1.3321
 1019MOL0     C37488   7.290   2.961   5.885  0.0456 -0.1235  0.2851
 1019MOL0     O37489   7.411   2.889   5.891  0.9428 -0.0408 -0.6617
 1019MOL0     C37490   7.405   2.749   5.869 -0.3176 -0.2564 -0.3178
 1019MOL0     C37491   7.460   2.671   5.997  0.8196  0.2478 -0.4636
 1019MOL0     C37492   7.391   2.717   6.122  0.2541  0.1879 -1.0109
 1019MOL0     C37493   7.429   2.611   6.226 -0.2644 -0.5841  0.1996
 1019MOL0     C37494   7.325   2.509   6.261 -0.0707 -0.6324  0.4361
 1019MOL0     C37495   7.259   2.420   6.296  0.2982  0.3709  0.7256
 1019MOL0     C37496   7.181   2.910   5.820  1.0160  0.0694 -0.4300
 1019MOL0     C37497   7.066   2.984   5.825  0.2656  0.0207  0.4802
 1019MOL0     H37498   6.639   3.198   6.027 -1.1225 -1.9226 -0.3504
 1019MOL0     H37499   6.498   3.426   6.003  0.2288 -0.0591 -0.1949
 1019MOL0     H37500   6.272   3.511   5.816 -1.3289  1.0388 -3.0027
 1019MOL0     H37501   6.379   3.568   5.942  1.3929 -0.1559 -0.0339
 1019MOL0     H37502   6.398   3.776   5.822  0.9349 -0.4116 -1.7004
 1019MOL0     H37503   6.267   3.733   5.706  1.1173 -1.0676 -1.3825
 1019MOL0     H37504   6.112   3.720   5.898  0.6753 -2.2136  2.8652
 1019MOL0     H37505   6.254   3.768   6.008  0.4372 -2.5754 -0.1927
 1019MOL0     H37506   6.264   3.978   5.870 -1.8597  1.7522  1.9324
 1019MOL0     H37507   6.160   3.923   5.763  0.7594  1.0120  0.2003
 1019MOL0     H37508   5.995   4.029   5.883 -0.9819  0.7406  1.3085
 1019MOL0     H37509   6.009   3.912   6.012  2.0086 -0.7981  2.4733
 1019MOL0     H37510   6.195   4.025   6.128  1.0783 -0.7251 -2.0287
 1019MOL0     H37511   6.191   4.146   6.005  0.8560  1.4122  2.2062
 1019MOL0     H37512   5.947   4.214   6.061  0.7173  0.5549 -0.6107
 1019MOL0     H37513   5.954   4.090   6.186  0.2378  1.1510  2.5415
 1019MOL0     H37514   5.985   4.345   6.250 -0.8673 -1.2412  2.0771
 1019MOL0     H37515   6.144   4.320   6.177  2.4244  0.1555  3.6814
 1019MOL0     H37516   5.938   4.205   6.512  0.4935  0.0768  1.5292
 1019MOL0     H37517   6.176   4.071   6.758 -0.3355 -1.4596  2.0678
 1019MOL0     H37518   5.997   4.075   6.714 -0.2782 -2.6445  0.8037
 1019MOL0     H37519   6.024   3.848   6.617  0.4261 -2.8246  0.0868
 1019MOL0     H37520   6.042   3.870   6.790 -1.9526  1.0151 -1.1338
 1019MOL0     H37521   6.268   3.836   6.773 -3.2214  0.4242  2.1368
 1019MOL0     H37522   6.261   3.832   6.586  1.1257  1.6604  0.8387
 1019MOL0     H37523   6.105   3.649   6.623  1.5764  1.3376 -1.5808
 1019MOL0     H37524   6.154   3.644   6.796  3.8762 -1.8362  1.4236
 1019MOL0     H37525   6.052   3.449   6.632  0.8757  0.1611  2.0537
 1019MOL0     H37526   5.923   3.282   6.535  0.6366  1.5259  0.3604
 1019MOL0     H37527   6.033   3.176   6.439  1.9489 -1.0327  1.0992
 1019MOL0     H37528   5.938   3.122   6.575  0.2209  0.4131  0.6228
 1019MOL0     H37529   6.526   2.820   6.683  1.5840  3.4804 -4.0327
 1019MOL0     H37530   6.553   2.591   6.659  0.8010 -0.5364 -0.4061
 1019MOL0     H37531   6.219   2.396   6.536  1.8219  3.6540  1.6831
 1019MOL0     H37532   6.317   2.287   6.436 -0.8653  0.9360 -1.0048
 1019MOL0     H37533   6.377   2.310   6.730  1.4815 -1.3083 -0.5930
 1019MOL0     H37534   6.228   2.221   6.675 -0.2724  0.0493  0.4868
 1019MOL0     H37535   6.525   2.171   6.606 -0.2281  3.8675  0.1425
 1019MOL0     H37536   6.388   2.085   6.528 -1.0035 -1.5697  1.2331
 1019MOL0     H37537   6.499   1.970   6.714 -0.0437  0.0664 -1.0303
 1019MOL0     H37538   6.440   2.096   6.823  0.4028  2.0150 -0.5000
 1019MOL0     H37539   6.290   1.898   6.627 -2.0765  1.4024 -0.9206
 1019MOL0     H37540   6.202   2.007   6.720  0.3774  0.6139 -1.4118
 1019MOL0     H37541   6.402   1.816   6.856 -1.3864 -0.0917  0.4654
 1019MOL0     H37542   6.291   1.919   6.950  0.9652 -0.0483 -0.1170
 1019MOL0     H37543   6.223   1.703   6.753  4.6440 -1.4393  2.9371
 1019MOL0     H37544   6.101   1.790   6.859 -1.2845 -0.6556  0.6163
 1019MOL0     H37545   6.322   1.605   6.963  0.9060  0.6593  1.2658
 1019MOL0     H37546   6.154   1.562   6.958 -0.2560 -1.1488  0.7129
 1019MOL0     H37547   6.241   2.574   6.373  0.2510 -3.8638  2.9686
 1019MOL0     H37548   6.219   2.818   6.387  1.9985  2.5562 -0.4129
 1019MOL0     H37549   6.436   3.156   6.701 -2.0972 -2.1097  0.4640
 1019MOL0     H37550   6.475   3.403   6.711  1.5927 -1.6493 -2.9188
 1019MOL0     H37551   6.616   3.437   5.590  0.7937  1.8660  0.6280
 1019MOL0     H37552   6.764   3.239   5.633 -0.1340 -0.7248 -0.2125
 1019MOL0     H37553   7.174   3.251   6.002  0.7988 -0.0952  2.0621
 1019MOL0     H37554   7.374   3.121   5.999  2.4309 -1.3098 -0.3990
 1019MOL0     H37555   7.309   2.704   5.843 -0.4965  0.0317 -0.1661
 1019MOL0     H37556   7.474   2.727   5.788  1.1904  1.6175  0.3711
 1019MOL0     H37557   7.568   2.687   6.010  1.5519 -1.6491 -3.3218
 1019MOL0     H37558   7.444   2.565   5.972  0.0335  0.4569 -0.8706
 1019MOL0     H37559   7.282   2.714   6.107  0.0486 -1.9764  0.3514
 1019MOL0     H37560   7.417   2.821   6.141  2.4994  0.2734 -3.8634
 1019MOL0     H37561   7.451   2.668   6.316  1.1236 -1.4332  0.4219
 1019MOL0     H37562   7.526   2.565   6.204  0.3321  1.0701 -0.7503
 1019MOL0     H37563   7.180   2.352   6.319 -1.0065  1.1640 -1.1186
 1019MOL0     H37564   7.186   2.828   5.749  1.9857  1.8462 -2.5552
 1019MOL0     H37565   6.981   2.948   5.769  1.0414  3.0325 -2.9991
 1020MOL0     O37566   1.408   7.374   5.224  0.3672 -0.1414 -1.0307
 1020MOL0     C37567   1.423   7.273   5.294 -0.1900  0.3179 -0.1783
 1020MOL0     O37568   1.469   7.153   5.245  0.3857  0.0268 -0.3299
 1020MOL0     C37569   1.526   7.134   5.121  0.3876  0.2701 -0.0969
 1020MOL0     C37570   1.494   7.013   5.063 -0.0642  0.3148 -0.6697
 1020MOL0     C37571   1.528   6.986   4.937 -0.0160 -0.2404 -0.5098
 1020MOL0     C37572   1.604   7.078   4.859 -0.7599  0.2592 -0.2724
 1020MOL0     O37573   1.638   7.055   4.721  0.7155 -0.0917 -0.8935
 1020MOL0     C37574   1.589   7.148   4.619 -0.9682 -0.4729  0.7172
 1020MOL0     C37575   1.697   7.214   4.530  0.8672  1.3934  1.4657
 1020MOL0     C37576   1.773   7.337   4.586 -0.2330 -0.3172  0.0771
 1020MOL0     C37577   1.870   7.393   4.481 -0.4457 -0.5186 -0.3647
 1020MOL0     C37578   1.961   7.506   4.529 -0.6928  0.1104  0.7176
 1020MOL0     C37579   2.070   7.568   4.431  0.0439  0.3780 -0.1132
 1020MOL0     C37580   1.996   7.620   4.309 -0.4658 -0.6288 -0.3081
 1020MOL0     C37581   2.083   7.712   4.229 -0.2272  0.1661 -0.2982
 1020MOL0     N37582   2.078   7.853   4.272  0.9042 -0.5024  0.0658
 1020MOL0     C37583   1.987   7.932   4.213  0.6162  0.2288  0.0075
 1020MOL0     C37584   2.000   8.049   4.288  1.0346 -0.7334  0.1796
 1020MOL0     C37585   1.928   8.175   4.274  0.1147 -0.2618  0.4624
 1020MOL0     C37586   1.923   8.227   4.127 -1.1343 -0.2613 -1.5494
 1020MOL0     C37587   1.915   8.381   4.105  0.1035 -0.1482 -0.8256
 1020MOL0     C37588   1.914   8.425   3.960  0.5264  0.2580 -0.5092
 1020MOL0     O37589   1.931   8.563   3.972 -0.7464  0.3123 -0.0137
 1020MOL0     C37590   1.842   8.662   3.921  0.3233  0.9670  0.4680
 1020MOL0     C37591   1.892   8.792   3.907  0.5059  0.2373 -0.7071
 1020MOL0     C37592   1.813   8.899   3.852  0.0340  0.9081 -0.5100
 1020MOL0     C37593   1.871   9.037   3.835  0.2806 -0.4304  0.0490
 1020MOL0     C37594   1.675   8.871   3.828  0.6015  0.2752 -0.2625
 1020MOL0     C37595   1.564   8.968   3.793 -0.4810  0.0021  0.5819
 1020MOL0     O37596   1.465   8.925   3.712 -0.2572 -0.0059  0.3253
 1020MOL0     C37597   1.372   9.004   3.649 -0.0384 -0.6009 -0.0265
 1020MOL0     C37598   1.308   8.932   3.550  1.1416  0.3490  0.3520
 1020MOL0     C37599   1.212   9.001   3.473  0.0261  0.1619  0.2089
 1020MOL0     C37600   1.175   9.132   3.493 -0.3595 -0.2656 -0.0334
 1020MOL0     O37601   1.084   9.178   3.405  0.4171 -0.1006  1.0129
 1020MOL0     C37602   1.035   9.309   3.424  0.3122 -0.5049  1.0972
 1020MOL0     C37603   0.924   9.354   3.332  0.6755 -0.5111  0.5109
 1020MOL0     C37604   0.972   9.417   3.206 -0.5016 -0.2571  0.2911
 1020MOL0     C37605   0.862   9.389   3.104  0.3724  0.1530 -0.2498
 1020MOL0     C37606   0.888   9.467   2.979  0.8374  0.6787 -0.6747
 1020MOL0     C37607   0.776   9.438   2.875 -0.9958 -0.8682 -0.0640
 1020MOL0     C37608   0.820   9.516   2.751 -0.6241 -0.6786 -0.1639
 1020MOL0     C37609   0.754   9.477   2.617 -0.3453 -0.4460  0.3572
 1020MOL0    Cl37610   0.800   9.594   2.484 -0.7947 -0.0566  0.2121
 1020MOL0     C37611   1.239   9.203   3.596  1.0220 -0.0758 -0.5310
 1020MOL0     C37612   1.335   9.139   3.679  0.1193 -0.4784  0.3533
 1020MOL0     O37613   1.586   9.080   3.827 -0.0828  0.2861  0.3331
 1020MOL0     C37614   1.630   8.744   3.830 -0.2560 -0.1240  0.8285
 1020MOL0     C37615   1.708   8.638   3.878  0.6674 -0.0712  0.1114
 1020MOL0     N37616   2.090   8.031   4.386 -0.9613  0.1624 -0.7865
 1020MOL0     N37617   2.145   7.907   4.376  0.7454 -0.5798  0.4655
 1020MOL0     C37618   1.655   7.193   4.935 -0.4627 -0.2986  1.1747
 1020MOL0     C37619   1.604   7.230   5.051 -0.3914 -0.5988 -0.0293
 1020MOL0     C37620   1.359   7.264   5.433 -0.9333 -0.3599  0.7896
 1020MOL0     C37621   1.337   7.142   5.492 -0.7133  0.1106 -0.0746
 1020MOL0     C37622   1.287   7.142   5.626  0.3754  0.4912  0.2914
 1020MOL0     C37623   1.233   7.262   5.686 -0.6103  0.5000  0.9401
 1020MOL0     O37624   1.180   7.259   5.812 -0.1036  0.0917 -0.3323
 1020MOL0     C37625   1.079   7.360   5.845 -0.1597  0.5119  0.6171
 1020MOL0     C37626   1.005   7.330   5.966  0.8032 -0.2941  0.3696
 1020MOL0     C37627   0.900   7.436   5.993 -0.1705 -0.3329  0.4933
 1020MOL0     C37628   0.847   7.414   6.133 -0.0643 -0.5753 -0.0411
 1020MOL0     C37629   0.777   7.539   6.179  0.4924  0.4206  0.4604
 1020MOL0     C37630   0.720   7.641   6.224  0.3286 -0.5251  0.6329
 1020MOL0     C37631   1.247   7.384   5.624  0.6975 -0.0436  0.2313
 1020MOL0     C37632   1.300   7.385   5.492  0.3920 -0.1098  0.6874
 1020MOL0     H37633   1.442   6.934   5.116 -0.1384 -0.1417 -1.4065
 1020MOL0     H37634   1.504   6.898   4.880 -1.2909 -0.8662  0.9388
 1020MOL0     H37635   1.523   7.095   4.549 -5.2818  1.0812  3.1754
 1020MOL0     H37636   1.529   7.227   4.666  0.2290  0.0306  1.4504
 1020MOL0     H37637   1.757   7.127   4.503 -1.2733  0.0915  0.6804
 1020MOL0     H37638   1.647   7.246   4.438 -0.8363 -1.4170  1.3096
 1020MOL0     H37639   1.706   7.418   4.618  1.1402  0.8808  0.0323
 1020MOL0     H37640   1.823   7.306   4.678  1.4280 -0.0169 -0.6887
 1020MOL0     H37641   1.934   7.322   4.430 -0.4539 -0.3626 -0.5939
 1020MOL0     H37642   1.812   7.438   4.400  1.1287  2.5757  0.0325
 1020MOL0     H37643   1.909   7.585   4.584  0.9634  2.3078 -0.7359
 1020MOL0     H37644   2.025   7.451   4.599  2.1446  0.9206 -1.0965
 1020MOL0     H37645   2.124   7.652   4.477  0.3883  1.0583 -1.7010
 1020MOL0     H37646   2.154   7.506   4.401  0.0863 -0.5220  1.6948
 1020MOL0     H37647   1.962   7.532   4.254 -1.3545 -2.1642  2.5073
 1020MOL0     H37648   1.905   7.675   4.336  0.7532 -0.0335  2.9929
 1020MOL0     H37649   2.061   7.703   4.122  0.8492 -2.2534 -0.3884
 1020MOL0     H37650   2.188   7.683   4.234 -0.6240 -1.2039  1.2774
 1020MOL0     H37651   1.912   7.915   4.137 -2.4393  0.7344  2.6846
 1020MOL0     H37652   1.828   8.165   4.318 -0.2483  0.5684 -0.1312
 1020MOL0     H37653   1.980   8.246   4.340  2.4307  0.0144 -1.5219
 1020MOL0     H37654   1.833   8.179   4.086 -2.6620  0.9050  0.2404
 1020MOL0     H37655   2.012   8.190   4.076  0.1948  0.4982  0.1352
 1020MOL0     H37656   1.995   8.433   4.159  1.9111 -0.7122 -2.8356
 1020MOL0     H37657   1.824   8.415   4.156  1.0616  2.2021 -0.5876
 1020MOL0     H37658   1.825   8.388   3.908  1.4430 -0.1931 -1.8090
 1020MOL0     H37659   1.997   8.394   3.897 -0.0742 -0.3796 -1.0162
 1020MOL0     H37660   1.999   8.807   3.921  0.3818  1.7504 -1.1849
 1020MOL0     H37661   1.881   9.096   3.927 -1.0903  0.6442 -0.4467
 1020MOL0     H37662   1.973   9.020   3.799  0.7712  2.1444  0.0050
 1020MOL0     H37663   1.820   9.095   3.757 -1.1126 -0.8700  0.6134
 1020MOL0     H37664   1.317   8.826   3.526 -1.0235  0.3225 -0.5733
 1020MOL0     H37665   1.167   8.941   3.394  2.0324 -0.5883 -0.4185
 1020MOL0     H37666   0.988   9.314   3.523 -2.1307  0.8915 -0.0615
 1020MOL0     H37667   1.114   9.385   3.419  0.1932 -0.4817 -2.1044
 1020MOL0     H37668   0.864   9.266   3.307  2.6076 -1.7873  0.1198
 1020MOL0     H37669   0.865   9.431   3.381  2.6481 -0.9683  3.9340
 1020MOL0     H37670   1.065   9.376   3.167  0.5141  3.5168 -1.7802
 1020MOL0     H37671   0.978   9.525   3.225 -1.8881 -0.2304  0.6541
 1020MOL0     H37672   0.852   9.282   3.082  0.5516  0.0676  0.0726
 1020MOL0     H37673   0.767   9.426   3.144 -0.3168  1.1866 -2.6819
 1020MOL0     H37674   0.983   9.426   2.943  0.2167 -1.4251 -0.0591
 1020MOL0     H37675   0.893   9.575   2.997 -3.1087  1.0149 -0.7848
 1020MOL0     H37676   0.773   9.330   2.858  0.1954 -1.3156  2.2893
 1020MOL0     H37677   0.675   9.470   2.902 -0.2270  1.6741  0.0505
 1020MOL0     H37678   0.929   9.513   2.738 -0.5200  2.2461 -0.5080
 1020MOL0     H37679   0.790   9.621   2.760 -1.9288 -1.0579  0.1653
 1020MOL0     H37680   0.646   9.464   2.627 -0.3930  0.7514  1.7899
 1020MOL0     H37681   0.795   9.381   2.584  0.5262  0.2081 -0.5268
 1020MOL0     H37682   1.203   9.305   3.610 -1.4352 -0.5851 -2.4894
 1020MOL0     H37683   1.395   9.197   3.748 -0.8698  1.8351 -0.6427
 1020MOL0     H37684   1.531   8.714   3.799  1.2900 -2.8516 -2.0922
 1020MOL0     H37685   1.679   8.534   3.871  2.1446 -0.7814  3.0118
 1020MOL0     H37686   1.717   7.258   4.874 -2.8460  2.8392  1.8456
 1020MOL0     H37687   1.627   7.328   5.089  1.4353 -0.7346 -0.7211
 1020MOL0     H37688   1.371   7.046   5.455 -1.7493  0.0748 -0.9860
 1020MOL0     H37689   1.291   7.050   5.684 -1.2161  0.9067  1.0981
 1020MOL0     H37690   1.108   7.464   5.859 -2.3014  1.9462 -3.7361
 1020MOL0     H37691   1.000   7.368   5.770 -0.8544  0.4688  1.3336
 1020MOL0     H37692   1.063   7.324   6.059  1.2449  2.0405  0.2910
 1020MOL0     H37693   0.949   7.237   5.952  1.9428 -0.5553 -3.2692
 1020MOL0     H37694   0.820   7.445   5.919 -1.1578  1.6014  1.7187
 1020MOL0     H37695   0.944   7.536   5.988  0.3338 -0.1194  5.0577
 1020MOL0     H37696   0.930   7.389   6.200  0.4387 -0.4754 -0.6158
 1020MOL0     H37697   0.775   7.332   6.134 -1.0442  0.2816  0.0210
 1020MOL0     H37698   0.675   7.718   6.284  1.7989  0.4776  0.5041
 1020MOL0     H37699   1.214   7.479   5.665 -1.1839 -0.6336  0.2050
 1020MOL0     H37700   1.314   7.488   5.459  0.5194 -1.0321 -2.4638
 1021MOL0     O37701   5.141   9.607  10.917 -0.3146 -0.8000 -0.3607
 1021MOL0     C37702   5.206   9.579  11.017  0.6350 -0.4263  0.0090
 1021MOL0     O37703   5.187   9.474  11.098 -0.3746 -0.3521  0.5911
 1021MOL0     C37704   5.098   9.367  11.087  0.6322 -0.7624  0.3984
 1021MOL0     C37705   5.051   9.316  10.966 -0.3147  0.2227 -0.4087
 1021MOL0     C37706   4.962   9.207  10.966  0.4260  1.1428 -1.0255
 1021MOL0     C37707   4.914   9.147  11.088 -0.3018 -0.5392  0.7816
 1021MOL0     O37708   4.825   9.044  11.097 -0.9675 -0.4462  0.7002
 1021MOL0     C37709   4.780   8.997  10.975  0.2039 -0.6939  0.5713
 1021MOL0     C37710   4.669   8.891  11.014  0.2784 -1.0409  0.4765
 1021MOL0     C37711   4.612   8.821  10.897  0.5883  0.7397 -0.1426
 1021MOL0     C37712   4.517   8.720  10.954  0.5911 -0.8556  0.2845
 1021MOL0     C37713   4.485   8.622  10.847 -0.0441  0.2547  0.9586
 1021MOL0     C37714   4.390   8.518  10.894  0.3618  0.2026  0.6253
 1021MOL0     C37715   4.375   8.423  10.778  0.4257 -0.3459 -0.2204
 1021MOL0     C37716   4.312   8.295  10.831 -0.2198  0.2101  0.2206
 1021MOL0     N37717   4.170   8.295  10.880 -0.3775  0.4318  0.3928
 1021MOL0     C37718   4.138   8.324  11.008  0.0130  0.1133  0.2482
 1021MOL0     C37719   3.996   8.310  11.016 -0.1373 -0.5641 -0.4186
 1021MOL0     C37720   3.910   8.318  11.141 -0.1006  0.3491 -0.1950
 1021MOL0     C37721   3.932   8.184  11.224  1.1029 -0.4575 -0.5446
 1021MOL0     C37722   3.860   8.064  11.141  0.5305 -0.6343 -0.4200
 1021MOL0     C37723   3.716   8.023  11.182 -0.3447  0.1232  1.5493
 1021MOL0     O37724   3.666   7.895  11.128  0.1679 -0.5339  0.0348
 1021MOL0     C37725   3.634   7.896  10.998  0.2212  0.6194 -0.3671
 1021MOL0     C37726   3.651   8.006  10.906  0.7072 -0.3191  0.6759
 1021MOL0     C37727   3.620   7.990  10.774 -0.7427 -1.0713 -0.1180
 1021MOL0     C37728   3.661   8.101  10.680  0.0797  0.6556 -0.6069
 1021MOL0     C37729   3.559   7.873  10.724  0.0023  0.0343  0.3446
 1021MOL0     C37730   3.495   7.874  10.594  1.2575  1.1791  0.1216
 1021MOL0     O37731   3.432   7.995  10.568  0.6915  0.5130  0.6187
 1021MOL0     C37732   3.337   8.005  10.461 -1.0520 -0.5611  0.9159
 1021MOL0     C37733   3.237   7.910  10.428  0.3282  0.4001 -0.2463
 1021MOL0     C37734   3.139   7.937  10.339  0.2310  0.1676  0.1134
 1021MOL0     C37735   3.155   8.053  10.245 -0.0553 -0.3229  0.3212
 1021MOL0     O37736   3.056   8.088  10.161  0.2334 -0.8258 -0.3267
 1021MOL0     C37737   2.926   8.045  10.197 -0.3100 -0.6615 -1.0313
 1021MOL0     C37738   2.824   8.104  10.098 -1.2600  0.4075  0.7987
 1021MOL0     C37739   2.855   8.057   9.952 -0.1162  0.5331 -0.1067
 1021MOL0     C37740   2.735   8.094   9.857 -0.4229  0.6976 -0.9698
 1021MOL0     C37741   2.777   8.085   9.717 -1.1367 -0.1667  0.4629
 1021MOL0     C37742   2.766   7.937   9.659  0.6278 -0.8875  0.8817
 1021MOL0     C37743   2.615   7.912   9.630  0.5829  0.4485  0.1433
 1021MOL0     C37744   2.578   7.769   9.635 -0.9243  0.7844  0.2116
 1021MOL0    Cl37745   2.555   7.743   9.810  0.5626 -0.2641 -0.1985
 1021MOL0     C37746   3.249   8.148  10.278 -0.1273  0.9136  0.7087
 1021MOL0     C37747   3.333   8.120  10.380  0.6664 -0.4627 -1.0433
 1021MOL0     O37748   3.492   7.774  10.521 -0.2790 -0.1730  0.4658
 1021MOL0     C37749   3.529   7.767  10.810  0.8237 -0.6587  0.9771
 1021MOL0     C37750   3.576   7.778  10.939  0.4004  0.1402 -0.8800
 1021MOL0     N37751   3.958   8.281  10.887 -0.1959 -0.5628  0.3794
 1021MOL0     N37752   4.060   8.279  10.809 -0.6377  0.1133  0.2910
 1021MOL0     C37753   4.969   9.200  11.209  0.3173 -0.0372 -0.2320
 1021MOL0     C37754   5.054   9.313  11.204  0.0963 -0.9885 -0.3895
 1021MOL0     C37755   5.320   9.673  11.046  0.4324 -0.0883 -0.3298
 1021MOL0     C37756   5.406   9.655  11.161 -1.1747 -0.4339 -0.7795
 1021MOL0     C37757   5.507   9.753  11.176 -0.1059  0.8581 -0.1498
 1021MOL0     C37758   5.538   9.853  11.087 -0.0973 -0.9452 -0.7318
 1021MOL0     O37759   5.626   9.947  11.123  0.4052 -0.4119  0.1185
 1021MOL0     C37760   5.683  10.021  11.012  0.0347  0.2453  0.5286
 1021MOL0     C37761   5.778   9.930  10.937  0.3830  0.1678  0.2473
 1021MOL0     C37762   5.911   9.894  11.009 -0.2045 -0.2606 -0.5065
 1021MOL0     C37763   5.988   9.792  10.925  0.0523 -0.7187 -0.3956
 1021MOL0     C37764   6.015   9.841  10.788 -1.0754 -0.2947  0.5223
 1021MOL0     C37765   6.022   9.873  10.670 -0.0227 -0.7502 -0.2298
 1021MOL0     C37766   5.451   9.871  10.981 -0.5899  0.2531  0.5310
 1021MOL0     C37767   5.341   9.784  10.961 -0.5685  0.2794  1.0181
 1021MOL0     H37768   5.111   9.352  10.883  0.9925  2.0728  1.2473
 1021MOL0     H37769   4.940   9.166  10.868  0.8264  0.1984 -0.7293
 1021MOL0     H37770   4.728   9.074  10.916 -2.8117 -0.8772  2.7178
 1021MOL0     H37771   4.851   8.942  10.914  1.2598  2.6144 -1.4239
 1021MOL0     H37772   4.722   8.818  11.075  0.5720 -2.3689 -1.3003
 1021MOL0     H37773   4.593   8.955  11.060  1.6370 -1.3457  3.3421
 1021MOL0     H37774   4.562   8.898  10.838  2.1595  1.9983  0.1018
 1021MOL0     H37775   4.683   8.759  10.843  0.5971 -1.2227  1.9688
 1021MOL0     H37776   4.569   8.662  11.031 -0.5920 -2.6671 -0.2192
 1021MOL0     H37777   4.432   8.762  11.010 -0.4608 -2.9606  0.3527
 1021MOL0     H37778   4.424   8.675  10.773 -2.0751  0.0062  2.3735
 1021MOL0     H37779   4.574   8.576  10.802 -0.6157 -1.0430  1.1127
 1021MOL0     H37780   4.432   8.471  10.983 -1.7804  2.1931  2.8525
 1021MOL0     H37781   4.295   8.569  10.914 -0.8987 -0.5216 -2.7944
 1021MOL0     H37782   4.308   8.467  10.704  1.2234  1.0148 -0.1742
 1021MOL0     H37783   4.469   8.409  10.724  0.7496  2.9751 -0.7049
 1021MOL0     H37784   4.382   8.252  10.905 -0.6670  0.4210  0.7746
 1021MOL0     H37785   4.319   8.226  10.746  0.8195  1.0576 -0.4068
 1021MOL0     H37786   4.201   8.353  11.092  4.6049  2.3588 -3.5096
 1021MOL0     H37787   3.921   8.413  11.194  2.1115 -0.0644  0.2145
 1021MOL0     H37788   3.807   8.313  11.105  0.7210 -2.2395 -2.5186
 1021MOL0     H37789   3.903   8.200  11.328 -1.4076  3.1120 -1.5927
 1021MOL0     H37790   4.037   8.163  11.241  0.9120  0.4736  2.1945
 1021MOL0     H37791   3.925   7.978  11.158  1.8612 -0.1335 -2.6332
 1021MOL0     H37792   3.869   8.089  11.035 -0.1809 -0.3663 -0.4220
 1021MOL0     H37793   3.647   8.107  11.176 -2.9143 -1.8082  2.3119
 1021MOL0     H37794   3.722   8.015  11.291  0.0985  0.5600  1.5580
 1021MOL0     H37795   3.689   8.104  10.935 -0.1141  0.2233 -0.0410
 1021MOL0     H37796   3.685   8.071  10.578  3.4920  0.2845  0.1986
 1021MOL0     H37797   3.583   8.178  10.690 -1.3533 -0.7646 -0.4343
 1021MOL0     H37798   3.760   8.132  10.713  2.2060 -4.6265 -1.1417
 1021MOL0     H37799   3.242   7.819  10.487  0.8184  0.0220 -0.8619
 1021MOL0     H37800   3.059   7.864  10.340 -0.4046  0.8530  0.1557
 1021MOL0     H37801   2.915   7.936  10.204 -0.6695 -0.5656  0.1778
 1021MOL0     H37802   2.904   8.082  10.298  1.1490  1.4638 -1.4416
 1021MOL0     H37803   2.724   8.070  10.125 -3.4064  3.9728 -1.7317
 1021MOL0     H37804   2.830   8.214  10.096  1.8209  0.3214 -1.9220
 1021MOL0     H37805   2.880   7.950   9.954  4.2132  1.4081  0.8910
 1021MOL0     H37806   2.936   8.111   9.903 -2.7901  1.7405 -3.7313
 1021MOL0     H37807   2.645   8.036   9.882  0.3424  0.5524  1.8516
 1021MOL0     H37808   2.689   8.191   9.879  0.9939  2.0616 -3.6624
 1021MOL0     H37809   2.877   8.129   9.713 -1.4881  0.6005 -0.2059
 1021MOL0     H37810   2.722   8.157   9.656 -1.1353  0.2563  0.9535
 1021MOL0     H37811   2.822   7.919   9.567  0.4762 -0.7192  0.7547
 1021MOL0     H37812   2.805   7.866   9.733 -0.4752 -1.5013  0.8839
 1021MOL0     H37813   2.604   7.933   9.524  0.2563 -1.8279 -0.3335
 1021MOL0     H37814   2.537   7.974   9.674 -0.2561  0.9652 -1.9782
 1021MOL0     H37815   2.656   7.698   9.606  1.2008  1.9894  2.5479
 1021MOL0     H37816   2.486   7.762   9.577  2.3261 -0.5815 -5.6378
 1021MOL0     H37817   3.259   8.244  10.230 -0.9407  0.9082  0.5123
 1021MOL0     H37818   3.411   8.192  10.402 -0.2626  0.5391 -0.9386
 1021MOL0     H37819   3.469   7.684  10.775 -0.0037  1.1710 -2.4552
 1021MOL0     H37820   3.552   7.712  11.022  0.4409  1.8617  0.5642
 1021MOL0     H37821   4.934   9.158  11.302  0.4162 -1.5648 -0.8532
 1021MOL0     H37822   5.094   9.365  11.290  0.3913  1.0729 -1.7104
 1021MOL0     H37823   5.389   9.576  11.233  3.0401  0.5077  1.6019
 1021MOL0     H37824   5.580   9.745  11.256 -0.1724 -1.1535 -0.2529
 1021MOL0     H37825   5.615  10.067  10.939  0.1889  1.4396  1.1109
 1021MOL0     H37826   5.747  10.102  11.047 -1.0950  0.3080  2.5848
 1021MOL0     H37827   5.799   9.990  10.849 -1.5699  1.8293  0.8405
 1021MOL0     H37828   5.725   9.841  10.900  1.7402  0.2819 -2.1286
 1021MOL0     H37829   5.899   9.875  11.116 -1.4447  0.3100 -0.5236
 1021MOL0     H37830   5.969   9.987  11.009 -0.2380 -0.1925 -2.7625
 1021MOL0     H37831   5.922   9.704  10.924  1.6835 -1.9901 -0.5250
 1021MOL0     H37832   6.080   9.770  10.980 -0.0535  3.2842  1.7522
 1021MOL0     H37833   6.017   9.914  10.572 -3.5535 -2.1303 -0.7576
 1021MOL0     H37834   5.471   9.934  10.895 -1.5343  1.6418  1.2973
 1021MOL0     H37835   5.287   9.807  10.870 -0.9964 -0.2896  1.1208
 1022MOL0     O37836   2.464   1.444   0.429  0.3050  0.6299 -0.1771
 1022MOL0     C37837   2.482   1.353   0.505  0.8127  0.0616  0.2308
 1022MOL0     O37838   2.395   1.258   0.533 -0.0023  0.8065  0.9209
 1022MOL0     C37839   2.263   1.276   0.494  1.1856  0.0596 -0.4947
 1022MOL0     C37840   2.200   1.184   0.408  0.3779  0.3981  0.8358
 1022MOL0     C37841   2.068   1.199   0.362  0.2650 -0.1151 -0.8194
 1022MOL0     C37842   1.994   1.307   0.407  0.9621 -0.0250  0.2190
 1022MOL0     O37843   1.865   1.309   0.363  0.4209 -0.1331 -0.6797
 1022MOL0     C37844   1.768   1.411   0.391 -0.0413 -0.5445  0.1048
 1022MOL0     C37845   1.775   1.522   0.284 -0.5075  0.0671  0.2882
 1022MOL0     C37846   1.698   1.644   0.321 -0.5013 -0.6836 -0.1438
 1022MOL0     C37847   1.752   1.707   0.458 -0.7181 -0.0502  0.2407
 1022MOL0     C37848   1.675   1.844   0.487 -0.0858 -0.0547 -0.5635
 1022MOL0     C37849   1.523   1.842   0.495 -0.2844  0.9637 -0.5170
 1022MOL0     C37850   1.477   1.765   0.622 -1.1549 -0.1197  0.4171
 1022MOL0     C37851   1.323   1.750   0.631 -0.4169  0.1628  0.0377
 1022MOL0     N37852   1.245   1.880   0.655 -0.5546 -0.0381  0.4842
 1022MOL0     C37853   1.185   1.916   0.774  0.0769 -1.0088 -0.4304
 1022MOL0     C37854   1.141   2.045   0.749  0.1312 -0.0953  0.4160
 1022MOL0     C37855   1.052   2.137   0.836  0.1564 -0.1822  0.5252
 1022MOL0     C37856   1.126   2.254   0.892 -0.0177 -0.2342  0.5773
 1022MOL0     C37857   1.084   2.281   1.034 -0.2050 -0.5061 -0.5628
 1022MOL0     C37858   1.192   2.352   1.115 -0.1266  0.1727  0.0987
 1022MOL0     O37859   1.326   2.301   1.111  0.1915 -0.0648 -0.2815
 1022MOL0     C37860   1.434   2.391   1.128  0.1014 -1.0180  0.1843
 1022MOL0     C37861   1.436   2.529   1.096  0.5497  0.0673 -0.2371
 1022MOL0     C37862   1.552   2.598   1.124  0.9884 -0.3746  0.1397
 1022MOL0     C37863   1.539   2.748   1.108  0.3797  0.4719 -0.3292
 1022MOL0     C37864   1.676   2.539   1.165 -0.5454  0.2273 -0.7007
 1022MOL0     C37865   1.800   2.614   1.180  0.2935  0.7129 -0.3632
 1022MOL0     O37866   1.903   2.564   1.267  0.2194  0.4106  0.1708
 1022MOL0     C37867   2.023   2.628   1.268  0.2620 -0.6587  0.2324
 1022MOL0     C37868   2.098   2.632   1.143 -0.2385  0.3535 -0.0242
 1022MOL0     C37869   2.223   2.687   1.131 -0.2740  1.3075  0.6209
 1022MOL0     C37870   2.284   2.743   1.249 -0.2301 -0.7751  0.3064
 1022MOL0     O37871   2.414   2.793   1.258  0.7210 -0.0021 -0.2996
 1022MOL0     C37872   2.460   2.838   1.133  0.2103 -0.3773 -0.7120
 1022MOL0     C37873   2.573   2.929   1.156  0.0045  0.4840  0.5710
 1022MOL0     C37874   2.603   3.007   1.031 -0.6435  0.5745  0.2060
 1022MOL0     C37875   2.672   2.914   0.931  0.3291 -0.8122 -0.7488
 1022MOL0     C37876   2.712   3.005   0.812 -0.0735  0.6721  0.2060
 1022MOL0     C37877   2.778   2.919   0.693 -1.0481  0.3639 -0.2486
 1022MOL0     C37878   2.703   2.800   0.631  0.2148  0.4071 -0.5123
 1022MOL0     C37879   2.740   2.761   0.487  0.1847  0.0355  0.1061
 1022MOL0    Cl37880   2.660   2.882   0.375  0.2745 -0.5337 -0.0613
 1022MOL0     C37881   2.210   2.727   1.372  0.4382  0.2830  0.1878
 1022MOL0     C37882   2.083   2.676   1.383  0.3796  0.1576 -0.0177
 1022MOL0     O37883   1.812   2.716   1.118  0.5551 -0.4750 -0.0325
 1022MOL0     C37884   1.668   2.398   1.183  1.4255  0.8798 -0.4148
 1022MOL0     C37885   1.544   2.329   1.170 -0.4794  0.4899  0.0842
 1022MOL0     N37886   1.174   2.075   0.616 -0.4066 -0.9639  0.2897
 1022MOL0     N37887   1.245   1.981   0.565  0.2273 -0.1635  0.3318
 1022MOL0     C37888   2.051   1.398   0.501  0.1409  0.1036  0.1581
 1022MOL0     C37889   2.182   1.381   0.549 -0.0688 -0.2583  0.4393
 1022MOL0     C37890   2.599   1.361   0.587  0.4021 -0.2813 -0.1290
 1022MOL0     C37891   2.697   1.451   0.560  0.4482  0.0882 -0.4733
 1022MOL0     C37892   2.813   1.440   0.631  0.4485  0.0149  0.1496
 1022MOL0     C37893   2.826   1.360   0.743 -0.6020  0.0872 -0.5454
 1022MOL0     O37894   2.956   1.358   0.799  1.1694  0.4674 -0.1134
 1022MOL0     C37895   2.972   1.285   0.920  0.3876 -0.3253  0.1835
 1022MOL0     C37896   2.994   1.131   0.902 -0.1439  0.6263  0.4880
 1022MOL0     C37897   3.135   1.105   0.827  0.3842 -0.7115 -0.1073
 1022MOL0     C37898   3.148   0.972   0.757  0.7582  0.7499 -0.3564
 1022MOL0     C37899   3.290   0.958   0.732  0.0483 -0.2049 -0.5397
 1022MOL0     C37900   3.409   0.936   0.726 -0.0173 -0.2738 -0.6884
 1022MOL0     C37901   2.721   1.276   0.781  0.0489  0.2895  0.9774
 1022MOL0     C37902   2.606   1.278   0.700  0.1502  0.1272 -0.0610
 1022MOL0     H37903   2.258   1.105   0.361 -3.2994 -1.6968 -0.5955
 1022MOL0     H37904   2.028   1.124   0.294  1.9807 -1.5198 -0.3533
 1022MOL0     H37905   1.671   1.362   0.376 -0.7483  1.4474 -2.5023
 1022MOL0     H37906   1.775   1.442   0.496  1.6212  0.7482 -0.3463
 1022MOL0     H37907   1.880   1.552   0.270 -0.7066  0.3614 -0.6222
 1022MOL0     H37908   1.734   1.495   0.187 -0.9924  3.4662 -0.6036
 1022MOL0     H37909   1.712   1.720   0.243  4.1151  1.2028  2.0957
 1022MOL0     H37910   1.591   1.626   0.327 -0.7035  0.5091  0.1511
 1022MOL0     H37911   1.742   1.635   0.540  0.3415 -0.8241 -0.2819
 1022MOL0     H37912   1.859   1.731   0.457 -1.4246  3.8458 -2.5351
 1022MOL0     H37913   1.711   1.888   0.580  2.0420  1.6865 -2.1051
 1022MOL0     H37914   1.702   1.915   0.408  1.0153  3.0297  2.3256
 1022MOL0     H37915   1.487   1.945   0.498  1.5855  1.7032 -1.7346
 1022MOL0     H37916   1.492   1.792   0.402 -1.9265 -1.5494  1.2439
 1022MOL0     H37917   1.513   1.662   0.608  1.5838  0.8631 -0.2677
 1022MOL0     H37918   1.507   1.805   0.719 -1.8534 -2.7565  1.8389
 1022MOL0     H37919   1.315   1.677   0.712 -1.6600 -0.2528 -0.4450
 1022MOL0     H37920   1.286   1.705   0.539 -1.1406 -0.4605  0.6226
 1022MOL0     H37921   1.170   1.862   0.867  1.8272  1.5129  1.4402
 1022MOL0     H37922   0.973   2.170   0.769 -1.3202  0.6909  2.5635
 1022MOL0     H37923   1.002   2.076   0.913  0.0505 -1.4632 -0.5117
 1022MOL0     H37924   1.139   2.328   0.812  1.3201 -2.5423 -1.5206
 1022MOL0     H37925   1.229   2.216   0.891  0.3079  0.5063 -1.5851
 1022MOL0     H37926   1.060   2.186   1.084 -1.0384  0.0984  0.2003
 1022MOL0     H37927   0.992   2.339   1.031  1.0503  1.9380  2.7002
 1022MOL0     H37928   1.165   2.330   1.219  2.2899 -0.7272  0.6087
 1022MOL0     H37929   1.192   2.458   1.088 -0.6152 -0.4959 -2.9196
 1022MOL0     H37930   1.351   2.574   1.047  0.6340 -0.3930 -0.8190
 1022MOL0     H37931   1.607   2.801   1.175  2.2096  0.9733 -2.4749
 1022MOL0     H37932   1.558   2.767   1.002 -2.9375  3.1749 -0.6078
 1022MOL0     H37933   1.439   2.792   1.114  0.8262  1.3234  1.5516
 1022MOL0     H37934   2.046   2.594   1.055 -2.5128  0.0338  1.3742
 1022MOL0     H37935   2.283   2.673   1.042 -1.8981  0.1972 -0.3583
 1022MOL0     H37936   2.502   2.755   1.075  0.6144 -0.4804 -0.2747
 1022MOL0     H37937   2.379   2.888   1.078  0.3116  0.3088 -0.2577
 1022MOL0     H37938   2.551   3.001   1.235 -1.1173  0.9645 -0.1553
 1022MOL0     H37939   2.662   2.872   1.185  0.5333  1.1388  0.2754
 1022MOL0     H37940   2.664   3.094   1.056 -0.3223  0.8640 -1.4757
 1022MOL0     H37941   2.511   3.041   0.982  0.7282  0.0072 -3.0584
 1022MOL0     H37942   2.757   2.864   0.977 -0.0866 -0.2201  0.6988
 1022MOL0     H37943   2.607   2.832   0.901  0.5468 -1.5934  0.8499
 1022MOL0     H37944   2.775   3.085   0.851 -1.8105  1.7781  0.8388
 1022MOL0     H37945   2.630   3.055   0.761  1.0444  1.3505 -0.9931
 1022MOL0     H37946   2.798   2.991   0.614 -0.9237  0.6913  0.0767
 1022MOL0     H37947   2.879   2.885   0.720 -0.2119  2.5013 -0.5180
 1022MOL0     H37948   2.599   2.833   0.636  0.6766  1.8959 -0.3359
 1022MOL0     H37949   2.734   2.717   0.695 -1.2623 -2.2472 -2.9759
 1022MOL0     H37950   2.693   2.664   0.469  2.6648 -0.8548 -2.2772
 1022MOL0     H37951   2.847   2.752   0.466 -0.2218 -1.9008 -1.4774
 1022MOL0     H37952   2.259   2.761   1.463 -0.0171  0.3155  0.4296
 1022MOL0     H37953   2.028   2.670   1.477 -0.3894 -0.0586 -0.4754
 1022MOL0     H37954   1.760   2.347   1.211  1.2456  0.5952 -0.3431
 1022MOL0     H37955   1.545   2.224   1.195 -1.3035 -0.9019 -4.6366
 1022MOL0     H37956   1.989   1.475   0.545 -0.9498 -0.5856 -0.1294
 1022MOL0     H37957   2.221   1.465   0.605 -0.3575  0.3564 -0.2729
 1022MOL0     H37958   2.698   1.529   0.485 -0.5253  1.4719  0.8919
 1022MOL0     H37959   2.887   1.515   0.606  2.6314 -1.8869  0.6368
 1022MOL0     H37960   3.063   1.324   0.966 -0.1966  2.8159 -1.0488
 1022MOL0     H37961   2.883   1.294   0.982 -1.8169  0.2179 -2.8187
 1022MOL0     H37962   2.920   1.089   0.834 -0.6019 -0.0986  1.4074
 1022MOL0     H37963   2.983   1.070   0.992  1.0813 -0.7660 -0.2674
 1022MOL0     H37964   3.215   1.123   0.900  2.1173  0.1502 -2.1322
 1022MOL0     H37965   3.151   1.176   0.746  3.6011 -2.0744 -0.7907
 1022MOL0     H37966   3.090   0.979   0.665 -2.0994  0.1508  1.2632
 1022MOL0     H37967   3.115   0.886   0.816 -0.9580  1.9908  0.5881
 1022MOL0     H37968   3.513   0.914   0.722  0.7861  2.5646  1.4113
 1022MOL0     H37969   2.732   1.212   0.868  0.7083 -0.5152  0.3110
 1022MOL0     H37970   2.519   1.225   0.739  1.7871 -0.2807  3.3963
 1023MOL0     O37971  10.764   5.957   7.673  0.1079  0.3964 -0.5311
 1023MOL0     C37972  10.793   6.031   7.580  0.2299  0.1507  0.0860
 1023MOL0     O37973  10.922   6.053   7.533 -1.2581  0.6713  0.9213
 1023MOL0     C37974  11.030   6.015   7.597 -1.2726 -0.3332 -0.8029
 1023MOL0     C37975  11.041   6.023   7.738 -0.4931  0.1324  0.4697
 1023MOL0     C37976  11.159   5.978   7.793 -0.4437  0.8168 -0.0203
 1023MOL0     C37977  11.271   5.954   7.708 -0.2959  0.7036 -0.4388
 1023MOL0     O37978  11.381   5.896   7.769 -0.0471  0.2034 -0.5855
 1023MOL0     C37979  11.511   5.932   7.733  0.0469  0.3677 -0.2953
 1023MOL0     C37980  11.592   5.902   7.854  0.2615  0.9843  1.5515
 1023MOL0     C37981  11.746   5.906   7.824 -0.2577  0.7802  0.2096
 1023MOL0     C37982  11.848   5.884   7.934  0.0431 -0.3205  0.3490
 1023MOL0     C37983  11.997   5.920   7.884  0.1802  0.3201 -0.5930
 1023MOL0     C37984  12.110   5.900   7.987 -0.5686 -0.2257 -0.8810
 1023MOL0     C37985  12.245   5.932   7.929 -0.2459 -0.1248  0.6635
 1023MOL0     C37986  12.347   5.945   8.043  0.0782  0.2077  0.5091
 1023MOL0     N37987  12.476   5.873   8.026 -0.0329  1.0200 -0.5905
 1023MOL0     C37988  12.487   5.738   8.057 -0.2670  0.2103 -0.2113
 1023MOL0     C37989  12.613   5.697   8.026 -0.1882  0.0223 -0.2622
 1023MOL0     C37990  12.675   5.551   8.049 -0.5937 -0.8541 -0.3896
 1023MOL0     C37991  12.827   5.569   8.081 -0.4478  0.2589 -1.1850
 1023MOL0     C37992  12.855   5.680   8.187 -0.2437  0.1680  0.0961
 1023MOL0     C37993  12.995   5.672   8.249  0.6084  0.8239  0.4171
 1023MOL0     O37994  13.049   5.541   8.249  0.1799  0.0291  0.8470
 1023MOL0     C37995  13.160   5.524   8.323  0.8424 -0.3714  0.7284
 1023MOL0     C37996  13.239   5.621   8.389  0.5769 -0.3967  0.4085
 1023MOL0     C37997  13.365   5.589   8.449 -0.2720  0.3636  0.7722
 1023MOL0     C37998  13.451   5.696   8.502  0.0680  0.3547  0.2568
 1023MOL0     C37999  13.413   5.457   8.423 -0.4549 -1.3015 -0.7102
 1023MOL0     C38000  13.551   5.407   8.466  0.5025  0.0077 -0.5851
 1023MOL0     O38001  13.571   5.275   8.467  0.4624 -0.3966 -0.5137
 1023MOL0     C38002  13.668   5.231   8.555  0.4663  0.1628  0.7880
 1023MOL0     C38003  13.709   5.299   8.673 -0.3762 -0.5441  0.3100
 1023MOL0     C38004  13.822   5.261   8.743 -0.0803  0.3246 -0.1955
 1023MOL0     C38005  13.886   5.136   8.713  0.3206  0.4482  0.1963
 1023MOL0     O38006  13.970   5.064   8.798  0.4525 -0.2953 -0.7782
 1023MOL0     C38007  13.983   5.114   8.934 -0.6051  0.2752 -1.0605
 1023MOL0     C38008  13.897   5.055   9.049  0.3023 -0.5658  0.2421
 1023MOL0     C38009  13.907   4.901   9.059 -0.7287  0.1454 -0.3535
 1023MOL0     C38010  13.825   4.856   9.180 -0.5476 -0.7117 -1.1072
 1023MOL0     C38011  13.837   4.699   9.208 -0.6892  0.2707 -0.5039
 1023MOL0     C38012  13.862   4.669   9.354 -0.1053  0.4313  0.9022
 1023MOL0     C38013  13.889   4.518   9.362 -1.1040  0.3072  0.1947
 1023MOL0     C38014  14.036   4.494   9.331  0.2346  0.6187 -0.7891
 1023MOL0    Cl38015  14.075   4.334   9.259 -0.3018 -0.0681 -0.1978
 1023MOL0     C38016  13.844   5.068   8.600 -0.0483 -0.1518  0.2194
 1023MOL0     C38017  13.749   5.131   8.510 -0.1475  0.4127  0.0550
 1023MOL0     O38018  13.642   5.492   8.477 -0.5957  0.6307  0.1617
 1023MOL0     C38019  13.335   5.363   8.374 -0.1174  0.3824 -0.2609
 1023MOL0     C38020  13.211   5.393   8.318  0.3699 -0.1104 -0.3118
 1023MOL0     N38021  12.666   5.814   7.968  0.0357 -0.0940 -0.5675
 1023MOL0     N38022  12.593   5.913   7.971  0.3069  1.0503 -0.0935
 1023MOL0     C38023  11.261   5.968   7.565  1.2029 -0.1734  0.0379
 1023MOL0     C38024  11.138   6.001   7.509  0.5440 -0.0886  0.2425
 1023MOL0     C38025  10.676   6.097   7.522 -0.3528  0.3361 -1.2215
 1023MOL0     C38026  10.540   6.047   7.545 -1.2604  0.0384  0.6035
 1023MOL0     C38027  10.429   6.114   7.494  0.3751  0.1263  0.6610
 1023MOL0     C38028  10.447   6.234   7.428 -1.1296 -0.8730  0.2489
 1023MOL0     O38029  10.340   6.314   7.390 -0.1510 -0.1614  0.5061
 1023MOL0     C38030  10.330   6.337   7.249 -0.1766  0.0128  0.5254
 1023MOL0     C38031  10.281   6.213   7.179 -0.2098  0.1794  0.1218
 1023MOL0     C38032  10.230   6.241   7.037  0.7218 -0.5332 -0.2473
 1023MOL0     C38033  10.191   6.116   6.952  0.5300 -0.2408  0.3580
 1023MOL0     C38034  10.303   6.025   6.939 -0.1430 -0.8792  0.3150
 1023MOL0     C38035  10.396   5.952   6.946 -0.2463 -0.2911  0.0340
 1023MOL0     C38036  10.579   6.281   7.415  0.2814  0.6923  0.0942
 1023MOL0     C38037  10.693   6.213   7.460 -0.5290 -0.2766  0.0150
 1023MOL0     H38038  10.955   6.038   7.803  1.4671 -1.3905  3.6279
 1023MOL0     H38039  11.169   5.976   7.901  2.0772 -2.7518 -0.1541
 1023MOL0     H38040  11.530   5.879   7.639 -4.1736 -0.6899 -0.7583
 1023MOL0     H38041  11.505   6.038   7.710  0.6526  0.5430  0.3095
 1023MOL0     H38042  11.561   5.962   7.940 -2.4103 -0.4811  1.7217
 1023MOL0     H38043  11.555   5.806   7.890  2.1612 -0.0046  0.9730
 1023MOL0     H38044  11.780   5.848   7.738  0.7553  0.6809  0.6624
 1023MOL0     H38045  11.754   6.012   7.796 -2.1860  1.9534  3.5523
 1023MOL0     H38046  11.816   5.946   8.018 -1.9693  0.8326 -1.1784
 1023MOL0     H38047  11.849   5.779   7.964 -0.4451 -1.0711 -1.9906
 1023MOL0     H38048  12.035   5.873   7.793  0.3718  1.3775 -1.0756
 1023MOL0     H38049  11.986   6.029   7.874 -0.1834  0.1923 -1.7165
 1023MOL0     H38050  12.100   5.963   8.076  2.0301 -0.2929 -0.4525
 1023MOL0     H38051  12.114   5.794   8.016 -2.0088 -0.0768 -0.0624
 1023MOL0     H38052  12.266   5.862   7.848 -1.4632 -0.6668  0.7877
 1023MOL0     H38053  12.222   6.025   7.877 -0.8194  0.0207  1.1607
 1023MOL0     H38054  12.298   5.915   8.136 -2.3191  3.1901  0.3337
 1023MOL0     H38055  12.380   6.049   8.040 -1.6019  0.7544 -1.5716
 1023MOL0     H38056  12.410   5.684   8.111 -1.0066  1.1144 -0.3332
 1023MOL0     H38057  12.621   5.494   8.125 -2.2365 -2.3893 -2.5985
 1023MOL0     H38058  12.660   5.485   7.963 -0.8171 -1.6500  0.2534
 1023MOL0     H38059  12.893   5.577   7.993  1.6346 -2.2045 -0.0048
 1023MOL0     H38060  12.859   5.475   8.128  0.0257  1.4957  1.0906
 1023MOL0     H38061  12.784   5.665   8.268 -0.3200  2.2080  0.4610
 1023MOL0     H38062  12.846   5.781   8.144  0.0161  0.2111  0.1399
 1023MOL0     H38063  12.998   5.713   8.351 -1.6771 -1.5413  1.5696
 1023MOL0     H38064  13.060   5.741   8.194  2.0674  0.3488  1.4816
 1023MOL0     H38065  13.219   5.727   8.396  1.1678 -0.1339 -1.3265
 1023MOL0     H38066  13.389   5.784   8.522 -2.8003 -0.9960 -1.9264
 1023MOL0     H38067  13.505   5.666   8.592 -0.8371 -0.6523  0.4890
 1023MOL0     H38068  13.518   5.737   8.426 -0.1135 -1.1949 -0.7737
 1023MOL0     H38069  13.660   5.382   8.723  2.4832  0.5868  1.4320
 1023MOL0     H38070  13.852   5.329   8.822  1.0038  2.8506 -2.6371
 1023MOL0     H38071  14.086   5.096   8.966 -0.8632 -1.8018 -1.2657
 1023MOL0     H38072  13.973   5.222   8.942  1.3589  0.4580 -0.5324
 1023MOL0     H38073  13.929   5.102   9.142 -1.5120  2.8164 -0.6312
 1023MOL0     H38074  13.793   5.088   9.035 -1.3397 -5.6246 -2.0373
 1023MOL0     H38075  14.013   4.879   9.075  0.7264  6.1363  0.7438
 1023MOL0     H38076  13.866   4.855   8.969 -1.9745 -3.9401  2.0801
 1023MOL0     H38077  13.851   4.920   9.264  0.3628  0.2641 -2.1095
 1023MOL0     H38078  13.722   4.883   9.154 -0.6708  3.4652  2.6040
 1023MOL0     H38079  13.916   4.651   9.151  1.6045  0.2769  2.4457
 1023MOL0     H38080  13.736   4.658   9.202 -1.5281  1.5887  2.5186
 1023MOL0     H38081  13.943   4.740   9.372 -0.4134  1.2924 -0.8571
 1023MOL0     H38082  13.772   4.696   9.410  0.0449  0.3258  1.1965
 1023MOL0     H38083  13.820   4.459   9.300  0.8098 -1.7059 -0.1116
 1023MOL0     H38084  13.874   4.492   9.467 -0.9334 -0.0148  0.1393
 1023MOL0     H38085  14.086   4.494   9.428  0.6540 -0.8168 -0.9734
 1023MOL0     H38086  14.072   4.577   9.269  0.7187  1.4735  0.5990
 1023MOL0     H38087  13.897   4.987   8.553 -1.6462  0.1528 -2.2666
 1023MOL0     H38088  13.721   5.097   8.411 -2.8109  1.5093  0.3409
 1023MOL0     H38089  13.376   5.263   8.361  2.9248  1.6397 -1.0770
 1023MOL0     H38090  13.150   5.321   8.265 -0.5214  1.9125 -2.1580
 1023MOL0     H38091  11.347   5.955   7.501  1.8012 -0.7004  0.9330
 1023MOL0     H38092  11.118   6.010   7.403 -3.2803  0.3947  0.8655
 1023MOL0     H38093  10.524   5.948   7.586 -0.5230 -1.2311 -1.9838
 1023MOL0     H38094  10.328   6.073   7.491  0.0003  0.9700  1.1144
 1023MOL0     H38095  10.258   6.419   7.244 -1.2208 -0.6286  3.3156
 1023MOL0     H38096  10.417   6.383   7.201 -2.6775  2.7799 -1.8065
 1023MOL0     H38097  10.215   6.150   7.239  2.5165 -3.2459 -0.1498
 1023MOL0     H38098  10.371   6.152   7.172 -1.3038 -1.9916  3.1153
 1023MOL0     H38099  10.318   6.282   6.985  1.4065 -2.4798 -0.7039
 1023MOL0     H38100  10.155   6.320   7.038 -0.2063 -1.3984  0.7376
 1023MOL0     H38101  10.159   6.149   6.852  0.4657 -0.2633  0.3705
 1023MOL0     H38102  10.104   6.078   7.007  1.5230  2.8421  4.5689
 1023MOL0     H38103  10.485   5.893   6.946  1.1765  1.6937  1.8856
 1023MOL0     H38104  10.588   6.384   7.382 -1.1173  0.5774 -0.7443
 1023MOL0     H38105  10.795   6.246   7.442 -1.1405  3.0133  1.7568
 1024MOL0     O38106   0.862   5.160   2.376 -0.8994 -0.3110  0.0367
 1024MOL0     C38107   0.975   5.212   2.353  0.3015 -0.4248 -0.5300
 1024MOL0     O38108   0.994   5.338   2.314 -0.1917  0.6689 -0.2054
 1024MOL0     C38109   0.880   5.421   2.323 -0.1306  0.3956 -1.0480
 1024MOL0     C38110   0.754   5.399   2.260  0.6206 -0.2654  0.2855
 1024MOL0     C38111   0.661   5.509   2.266  0.0950  0.3531  0.5266
 1024MOL0     C38112   0.688   5.623   2.339 -0.0353 -0.0055  1.0612
 1024MOL0     O38113   0.592   5.709   2.344  1.0737 -0.7907  0.0665
 1024MOL0     C38114   0.571   5.767   2.474  0.6634 -0.4854 -0.0753
 1024MOL0     C38115   0.428   5.744   2.513 -0.7234 -0.2621 -0.4416
 1024MOL0     C38116   0.338   5.851   2.464 -0.2243  0.6148 -0.3397
 1024MOL0     C38117   0.190   5.826   2.508  0.6166 -0.7679 -0.3022
 1024MOL0     C38118   0.161   5.868   2.659 -0.1321 -0.3632 -0.0706
 1024MOL0     C38119   0.017   5.855   2.687  0.8679  0.2656  0.2702
 1024MOL0     C38120  -0.006   5.838   2.834  0.0366 -0.5841  0.1544
 1024MOL0     C38121  -0.153   5.860   2.878 -0.3388  0.6593 -0.8180
 1024MOL0     N38122  -0.235   5.739   2.839  0.0425 -0.3089 -0.3123
 1024MOL0     C38123  -0.249   5.617   2.900 -0.2183  0.4892 -0.4048
 1024MOL0     C38124  -0.320   5.546   2.817  0.7158  0.7606  0.9005
 1024MOL0     C38125  -0.363   5.404   2.838 -0.1308 -0.4120 -0.4025
 1024MOL0     C38126  -0.493   5.370   2.763 -0.8228  0.4308 -0.5328
 1024MOL0     C38127  -0.495   5.220   2.728 -0.5873 -0.5728  1.1040
 1024MOL0     C38128  -0.643   5.155   2.721  0.8579 -0.5776 -0.2722
 1024MOL0     O38129  -0.711   5.151   2.849 -0.4140 -0.1823  0.3216
 1024MOL0     C38130  -0.823   5.072   2.863  0.6481 -0.4157  0.1755
 1024MOL0     C38131  -0.894   5.013   2.750  0.1353  0.0497 -0.1802
 1024MOL0     C38132  -1.017   4.942   2.767  0.6631  0.2129 -0.6762
 1024MOL0     C38133  -1.084   4.896   2.638 -0.9857  0.0294 -0.0417
 1024MOL0     C38134  -1.070   4.926   2.899 -0.2517  0.4143  0.5065
 1024MOL0     C38135  -1.192   4.845   2.923 -0.5584 -0.3733  0.4436
 1024MOL0     O38136  -1.246   4.874   3.047  0.1024 -0.1270 -0.3868
 1024MOL0     C38137  -1.352   4.802   3.098 -0.6904 -1.0920 -0.3053
 1024MOL0     C38138  -1.444   4.720   3.033  0.1453 -0.4483  0.2976
 1024MOL0     C38139  -1.554   4.654   3.090 -0.1193  0.2936 -0.6408
 1024MOL0     C38140  -1.565   4.650   3.230  0.1989  0.1701 -0.1272
 1024MOL0     O38141  -1.668   4.567   3.287 -0.7651  0.0158 -0.7184
 1024MOL0     C38142  -1.727   4.618   3.412 -0.7756  0.1724 -0.3164
 1024MOL0     C38143  -1.832   4.543   3.484 -0.7820  0.3365  0.1979
 1024MOL0     C38144  -1.855   4.587   3.628 -0.2821 -0.3211  0.3521
 1024MOL0     C38145  -1.951   4.499   3.712  0.7368 -0.9821  0.6384
 1024MOL0     C38146  -1.955   4.531   3.860  0.7253  0.0555 -0.4597
 1024MOL0     C38147  -1.995   4.672   3.891  0.6493 -0.4552  0.6798
 1024MOL0     C38148  -1.997   4.709   4.042 -0.1876 -0.1768 -0.2072
 1024MOL0     C38149  -2.095   4.825   4.061 -0.4171  0.1460  0.1636
 1024MOL0    Cl38150  -2.015   4.970   3.998  0.1564  0.6982  0.1061
 1024MOL0     C38151  -1.478   4.731   3.295 -0.7952  0.2230  0.3334
 1024MOL0     C38152  -1.378   4.815   3.236  0.4862 -0.1025  0.6553
 1024MOL0     O38153  -1.221   4.757   2.845  0.5289 -0.0542 -0.0093
 1024MOL0     C38154  -1.006   4.988   3.004 -0.1038  0.2633 -0.6630
 1024MOL0     C38155  -0.884   5.049   2.987  1.7084  0.0313 -0.5165
 1024MOL0     N38156  -0.352   5.622   2.702  0.4513 -0.2152 -0.1253
 1024MOL0     N38157  -0.299   5.735   2.722  0.5341  0.4971 -0.2764
 1024MOL0     C38158   0.815   5.645   2.388  0.6782 -1.2422 -1.6498
 1024MOL0     C38159   0.908   5.551   2.374 -0.7869  1.2708  0.7682
 1024MOL0     C38160   1.098   5.136   2.367  0.1351  0.6253  0.1835
 1024MOL0     C38161   1.221   5.184   2.320  0.6093  0.6399 -0.9344
 1024MOL0     C38162   1.341   5.113   2.344 -0.0955  1.3889 -0.1397
 1024MOL0     C38163   1.340   4.985   2.395 -0.3508  0.1736 -1.1838
 1024MOL0     O38164   1.448   4.895   2.421  0.4071 -0.1169  0.1189
 1024MOL0     C38165   1.584   4.934   2.398  1.0556  0.0533 -0.6082
 1024MOL0     C38166   1.624   4.957   2.262 -0.8381  1.7086  0.3807
 1024MOL0     C38167   1.626   4.829   2.174 -0.3476 -0.1671 -0.0465
 1024MOL0     C38168   1.681   4.836   2.037  0.9759 -0.2171 -0.0493
 1024MOL0     C38169   1.718   4.706   1.989  1.0873 -0.3995  0.1623
 1024MOL0     C38170   1.733   4.595   1.960  0.0898  0.1484 -0.1969
 1024MOL0     C38171   1.215   4.936   2.439  1.4485 -0.3137  0.0062
 1024MOL0     C38172   1.096   5.009   2.424 -0.0695  0.3930  0.3383
 1024MOL0     H38173   0.742   5.303   2.211  1.8024 -0.8341  1.0485
 1024MOL0     H38174   0.563   5.505   2.218 -0.3507 -0.7588  1.4626
 1024MOL0     H38175   0.627   5.711   2.549  0.2691  2.8137  2.9233
 1024MOL0     H38176   0.594   5.874   2.474 -3.1035  0.5259  2.9932
 1024MOL0     H38177   0.399   5.640   2.495  2.7188 -1.6257  0.9214
 1024MOL0     H38178   0.431   5.755   2.622  0.3207  0.2830 -0.5159
 1024MOL0     H38179   0.382   5.937   2.515  3.8091 -0.9172 -0.8750
 1024MOL0     H38180   0.343   5.866   2.356 -1.0802  0.1503 -0.4569
 1024MOL0     H38181   0.137   5.898   2.445  1.8147  0.1542 -0.2884
 1024MOL0     H38182   0.157   5.723   2.489  0.1120 -0.8671  0.9860
 1024MOL0     H38183   0.217   5.809   2.733 -2.6989 -0.2584  2.0891
 1024MOL0     H38184   0.198   5.971   2.665  0.9343 -0.6161 -1.6622
 1024MOL0     H38185  -0.035   5.947   2.659 -1.2296 -0.4000  1.7681
 1024MOL0     H38186  -0.035   5.774   2.636  1.1386 -0.1680  0.6814
 1024MOL0     H38187   0.025   5.737   2.860  0.3577 -0.3240  0.8069
 1024MOL0     H38188   0.058   5.906   2.891  1.8019 -2.2874  0.2906
 1024MOL0     H38189  -0.204   5.950   2.842 -1.0884  0.1142 -1.1559
 1024MOL0     H38190  -0.145   5.868   2.987  1.2059  1.3927 -0.9532
 1024MOL0     H38191  -0.207   5.591   2.996  1.4286  3.0021 -0.3606
 1024MOL0     H38192  -0.289   5.330   2.807  1.0353  1.1291 -1.5197
 1024MOL0     H38193  -0.381   5.391   2.945 -0.5060  0.7195 -0.3148
 1024MOL0     H38194  -0.497   5.426   2.669 -0.8484  4.3467  1.6122
 1024MOL0     H38195  -0.584   5.387   2.820 -3.9638 -2.3361 -4.1373
 1024MOL0     H38196  -0.440   5.180   2.813 -0.4957  0.2232  1.4302
 1024MOL0     H38197  -0.444   5.209   2.632 -2.4101 -5.2341  0.3927
 1024MOL0     H38198  -0.627   5.055   2.681 -0.6159 -0.2340 -1.8410
 1024MOL0     H38199  -0.704   5.219   2.656  0.5267  0.2387  0.8181
 1024MOL0     H38200  -0.870   5.028   2.645  1.7341  0.2713  0.1821
 1024MOL0     H38201  -1.192   4.912   2.643 -0.7460  1.7904  0.3009
 1024MOL0     H38202  -1.054   4.967   2.560 -1.7698  0.7160  0.2690
 1024MOL0     H38203  -1.059   4.791   2.623 -0.5085 -0.4702  3.5078
 1024MOL0     H38204  -1.433   4.707   2.925 -2.2674  4.2699 -0.8074
 1024MOL0     H38205  -1.621   4.589   3.034 -0.4560  1.2619 -1.3955
 1024MOL0     H38206  -1.635   4.619   3.472 -2.3732  1.0717  2.2668
 1024MOL0     H38207  -1.758   4.719   3.384  2.1479  1.4360  0.6255
 1024MOL0     H38208  -1.929   4.552   3.435 -0.3219  0.3154 -0.7253
 1024MOL0     H38209  -1.787   4.443   3.483  1.9033  1.4264 -2.9168
 1024MOL0     H38210  -1.890   4.691   3.625  0.2057 -0.0761  1.9264
 1024MOL0     H38211  -1.757   4.597   3.675  1.6370 -3.2365 -2.6248
 1024MOL0     H38212  -2.050   4.504   3.667  0.8031 -3.5611  0.0215
 1024MOL0     H38213  -1.916   4.395   3.707  1.8581 -0.7144  2.1444
 1024MOL0     H38214  -1.855   4.508   3.897  0.7905  0.0186 -0.6571
 1024MOL0     H38215  -2.023   4.464   3.914 -1.0716  1.3831 -0.9669
 1024MOL0     H38216  -1.930   4.747   3.846 -1.4887  1.0484 -0.0794
 1024MOL0     H38217  -2.093   4.677   3.841  0.7309 -2.1693  0.2681
 1024MOL0     H38218  -1.900   4.748   4.075  0.2264 -1.5892  0.2905
 1024MOL0     H38219  -2.028   4.621   4.099 -0.2338  0.4771  0.7976
 1024MOL0     H38220  -2.112   4.838   4.168  2.8717 -0.4840  0.8636
 1024MOL0     H38221  -2.189   4.800   4.010 -1.6652 -0.1203  2.4643
 1024MOL0     H38222  -1.490   4.736   3.403  1.8499 -0.3614  0.7403
 1024MOL0     H38223  -1.314   4.877   3.297  1.6015  0.7122 -1.2303
 1024MOL0     H38224  -1.043   4.982   3.106  4.0099 -2.4450  0.9296
 1024MOL0     H38225  -0.840   5.094   3.075 -0.5404  0.6516  0.3284
 1024MOL0     H38226   0.848   5.733   2.443 -1.8021 -1.2767  0.0226
 1024MOL0     H38227   1.006   5.560   2.420 -1.3744 -1.3254  2.7569
 1024MOL0     H38228   1.229   5.282   2.273 -2.4105  0.5926 -1.7836
 1024MOL0     H38229   1.436   5.162   2.324  1.1025  0.0945  1.9230
 1024MOL0     H38230   1.598   5.033   2.442  2.5606 -0.0494 -0.7974
 1024MOL0     H38231   1.627   4.855   2.461 -0.4310  0.6753  1.3014
 1024MOL0     H38232   1.716   5.015   2.271  0.6533 -0.5583  0.4791
 1024MOL0     H38233   1.543   5.015   2.216 -4.1548 -3.1412 -0.6092
 1024MOL0     H38234   1.523   4.792   2.175 -1.0253  1.5935  1.1306
 1024MOL0     H38235   1.680   4.755   2.234 -0.7097 -0.4317 -0.0422
 1024MOL0     H38236   1.778   4.887   2.038 -0.1164  2.0120  1.0334
 1024MOL0     H38237   1.610   4.887   1.971  2.0114 -0.6913 -1.5943
 1024MOL0     H38238   1.746   4.492   1.935  1.4963  0.2133  0.1419
 1024MOL0     H38239   1.200   4.846   2.498 -0.8272  0.6972  1.0774
 1024MOL0     H38240   1.001   4.972   2.462  1.2662 -0.7564  2.7107
  11.45214  11.45214  11.45214
